<event>
11    0  0.3485800E-009  0.9118800E+02  0.7816531E-02  0.1126479E+00
         25   -1    0    0    0    0  0.00000000000E+00  0.00000000000E+00  0.99999998245E-14  0.12500000000E+03  0.12500000000E+03 0.  0.
    3000001    1    3    3    0    0  0.29238743725E+01 -0.12299238910E+02  0.23136187187E+02  0.26383772980E+02  0.10000000000E+01 0. -1.
    1000022    2    1    0    0    0  0.15171169745E+02 -0.34562167664E+02  0.48801045815E+02  0.62499998036E+02  0.99999928401E+01 0.  0.
    3000022    2    3    3    0    0  0.12247295373E+02 -0.22262928754E+02  0.25664858628E+02  0.36116225056E+02  0.25000649779E+00 0.  0.
    1000022    2    1    0    0    0 -0.15171169745E+02  0.34562167664E+02 -0.48801045815E+02  0.62500001964E+02  0.10000017387E+02 0.  0.
    3000022    2    5    5    0    0 -0.67718735973E+01  0.23733763941E+02 -0.36473142076E+02  0.44039782204E+02  0.25000174503E+00 0.  0.
        -13    1    4    4    0    0  0.53569664716E+01 -0.98012683020E+01  0.11198797481E+02  0.15817270312E+02  0.10500000000E+00 0.  1.
         13    1    4    4    0    0  0.68903289012E+01 -0.12461660452E+02  0.14466061147E+02  0.20298954744E+02  0.10500000000E+00 0. -1.
    3000001    1    5    5    0    0 -0.83992961480E+01  0.10828403722E+02 -0.12327903740E+02  0.18460219760E+02  0.10000000000E+01 0. -1.
        -13    1    6    6    0    0 -0.44108944549E+01  0.15606632244E+02 -0.24033243127E+02  0.28993633095E+02  0.10500000000E+00 0.  1.
         13    1    6    6    0    0 -0.23609791424E+01  0.81271316976E+01 -0.12439898949E+02  0.15046149109E+02  0.10500000000E+00 0. -1.
</event>
<event>
11    0  0.3485800E-009  0.9118800E+02  0.7816531E-02  0.1126479E+00
         25   -1    0    0    0    0  0.00000000000E+00  0.00000000000E+00  0.99999998245E-14  0.12500000000E+03  0.12500000000E+03 0.  0.
    3000001    1    3    3    0    0  0.61326139571E+01 -0.30805630762E+01  0.10394459205E+02  0.12495743475E+02  0.10000000000E+01 0. -1.
    1000022    2    1    0    0    0  0.30252563662E+02  0.40087488494E+01  0.53618679677E+02  0.62500003807E+02  0.99999995050E+01 0.  0.
    3000022    2    3    3    0    0  0.24119949705E+02  0.70893119255E+01  0.43224220472E+02  0.50004260332E+02  0.24999729830E+00 0.  0.
    1000022    2    1    0    0    0 -0.30252563662E+02 -0.40087488494E+01 -0.53618679677E+02  0.62499996193E+02  0.99999519165E+01 0.  0.
    3000022    2    5    5    0    0 -0.21463922563E+02 -0.28533981491E+01 -0.28155824817E+02  0.35519780752E+02  0.25000153597E+00 0.  0.
        -13    1    4    4    0    0  0.86331272367E+01  0.24894937486E+01  0.15517640872E+02  0.17931443562E+02  0.10500000000E+00 0.  1.
         13    1    4    4    0    0  0.15486822468E+02  0.45998181769E+01  0.27706579600E+02  0.32072816770E+02  0.10500000000E+00 0. -1.
    3000001    1    5    5    0    0 -0.87886410993E+01 -0.11553507003E+01 -0.25462854860E+02  0.26980215441E+02  0.10000000000E+01 0. -1.
        -13    1    6    6    0    0 -0.15875607715E+02 -0.21162322377E+01 -0.20876596713E+02  0.26312671368E+02  0.10500000000E+00 0. -1.
         13    1    6    6    0    0 -0.55883148482E+01 -0.73716591144E+00 -0.72792281044E+01  0.92071093846E+01  0.10500000000E+00 0.  1.
</event>
<event>
11    0  0.3485800E-009  0.9118800E+02  0.7816531E-02  0.1126479E+00
         25   -1    0    0    0    0  0.00000000000E+00  0.00000000000E+00  0.99999998245E-14  0.12500000000E+03  0.12500000000E+03 0.  0.
    3000001    1    3    3    0    0 -0.33104540933E+02 -0.27454187962E+02 -0.18545045452E+02  0.46846150086E+02  0.10000000000E+01 0. -1.
    1000022    2    1    0    0    0 -0.44430787096E+02 -0.38234231780E+02 -0.19243144938E+02  0.62500000625E+02  0.10000006462E+02 0.  0.
    3000022    2    3    3    0    0 -0.11326246163E+02 -0.10780043818E+02 -0.69809948529E+00  0.15653850539E+02  0.24999388803E+00 0.  0.
    1000022    2    1    0    0    0  0.44430787096E+02  0.38234231780E+02  0.19243144938E+02  0.62499999375E+02  0.99999986547E+01 0.  0.
    3000022    2    5    5    0    0  0.93298418231E+01  0.48107046298E+01  0.65908913354E+01  0.12397224528E+02  0.24999985333E+00 0.  0.
        -13    1    4    4    0    0 -0.51593203485E+01 -0.49845875590E+01 -0.28006741607E+00  0.71801227252E+01  0.10500000000E+00 0. -1.
         13    1    4    4    0    0 -0.61669258143E+01 -0.57954562590E+01 -0.41803206922E+00  0.84737278137E+01  0.10500000000E+00 0.  1.
    3000001    1    5    5    0    0  0.35100945273E+02  0.33423527150E+02  0.12652253602E+02  0.50102774847E+02  0.10000000000E+01 0. -1.
        -13    1    6    6    0    0  0.25175179208E+01  0.12995042401E+01  0.18221415787E+01  0.33701383777E+01  0.10500000000E+00 0. -1.
         13    1    6    6    0    0  0.68123239023E+01  0.35112003897E+01  0.47687497566E+01  0.90270861505E+01  0.10500000000E+00 0.  1.
</event>
<event>
11    0  0.3485800E-009  0.9118800E+02  0.7816531E-02  0.1126479E+00
         25   -1    0    0    0    0  0.00000000000E+00  0.00000000000E+00  0.99999998245E-14  0.12500000000E+03  0.12500000000E+03 0.  0.
    3000001    1    3    3    0    0  0.29207396958E+01 -0.85632067084E+01 -0.41543093696E+01  0.10005874067E+02  0.10000000000E+01 0. -1.
    1000022    2    1    0    0    0  0.23188069907E+02 -0.38902219400E+02 -0.41894876794E+02  0.62500000440E+02  0.10000004657E+02 0.  0.
    3000022    2    3    3    0    0  0.20267330211E+02 -0.30339012692E+02 -0.37740567424E+02  0.52494126373E+02  0.25001834028E+00 0.  0.
    1000022    2    1    0    0    0 -0.23188069907E+02  0.38902219400E+02  0.41894876794E+02  0.62499999560E+02  0.99999991608E+01 0.  0.
    3000022    2    5    5    0    0 -0.71916062547E+01  0.63768063338E+01  0.52807278643E+01  0.10969569266E+02  0.25000711704E+00 0.  0.
        -13    1    4    4    0    0  0.13281297669E+02 -0.19971643768E+02 -0.24775656221E+02  0.34483381341E+02  0.10500000000E+00 0.  1.
         13    1    4    4    0    0  0.69860325421E+01 -0.10367368924E+02 -0.12964911203E+02  0.18010745032E+02  0.10500000000E+00 0. -1.
    3000001    1    5    5    0    0 -0.15996463652E+02  0.32525413066E+02  0.36614148930E+02  0.51530430294E+02  0.10000000000E+01 0. -1.
        -13    1    6    6    0    0 -0.37893277278E+01  0.34474095265E+01  0.27959600204E+01  0.58371272479E+01  0.10500000000E+00 0.  1.
         13    1    6    6    0    0 -0.34022785269E+01  0.29293968073E+01  0.24847678439E+01  0.51324420179E+01  0.10500000000E+00 0. -1.
</event>
<event>
11    0  0.3485800E-009  0.9118800E+02  0.7816531E-02  0.1126479E+00
         25   -1    0    0    0    0  0.00000000000E+00  0.00000000000E+00  0.99999998245E-14  0.12500000000E+03  0.12500000000E+03 0.  0.
    3000001    1    3    3    0    0  0.22510161546E+01  0.34385509277E+01  0.26581265652E+00  0.42380847772E+01  0.10000000000E+01 0. -1.
    1000022    2    1    0    0    0  0.22087036269E+02  0.50094736877E+02 -0.28441695536E+02  0.62500001189E+02  0.10000013484E+02 0.  0.
    3000022    2    3    3    0    0  0.19836020115E+02  0.46656185949E+02 -0.28707508193E+02  0.58261916411E+02  0.24999196273E+00 0.  0.
    1000022    2    1    0    0    0 -0.22087036269E+02 -0.50094736877E+02  0.28441695536E+02  0.62499998811E+02  0.99999986279E+01 0.  0.
    3000022    2    5    5    0    0 -0.10838247498E+00  0.27456997143E+00  0.98654766001E+00  0.10596745946E+01  0.24999706186E+00 0.  0.
        -13    1    4    4    0    0  0.13192895713E+02  0.31126132940E+02 -0.19098702538E+02  0.38828599160E+02  0.10500000000E+00 0. -1.
         13    1    4    4    0    0  0.66431244016E+01  0.15530053008E+02 -0.96088056549E+01  0.19433317251E+02  0.10500000000E+00 0.  1.
    3000001    1    5    5    0    0 -0.21978653794E+02 -0.50369306848E+02  0.27455147876E+02  0.61440324217E+02  0.10000000000E+01 0.  1.
        -13    1    6    6    0    0 -0.51594908812E-01  0.44901482000E-01  0.26580606885E+00  0.29386398884E+00  0.10500000000E+00 0. -1.
         13    1    6    6    0    0 -0.56787566171E-01  0.22966848943E+00  0.72074159116E+00  0.76581060579E+00  0.10500000000E+00 0.  1.
</event>
<event>
11    0  0.3485800E-009  0.9118800E+02  0.7816531E-02  0.1126479E+00
         25   -1    0    0    0    0  0.00000000000E+00  0.00000000000E+00  0.99999998245E-14  0.12500000000E+03  0.12500000000E+03 0.  0.
    3000001    1    3    3    0    0  0.37417107279E+02 -0.44998551207E+02 -0.33519842939E+01  0.58627172254E+02  0.10000000000E+01 0.  1.
    1000022    2    1    0    0    0  0.39311118564E+02 -0.47535222152E+02 -0.11351622243E+01  0.62500000144E+02  0.10000001847E+02 0.  0.
    3000022    2    3    3    0    0  0.18940112852E+01 -0.25366709448E+01  0.22168220696E+01  0.38728278895E+01  0.25003508326E+00 0.  0.
    1000022    2    1    0    0    0 -0.39311118564E+02  0.47535222152E+02  0.11351622243E+01  0.62499999856E+02  0.10000000048E+02 0.  0.
    3000022    2    5    5    0    0 -0.15536842956E+02  0.15636983166E+02  0.47152135515E+01  0.22543390908E+02  0.25000648454E+00 0.  0.
        -13    1    4    4    0    0  0.46478203860E+00 -0.61120518002E+00  0.56680167170E+00  0.96014751498E+00  0.10500000000E+00 0.  1.
         13    1    4    4    0    0  0.14292292466E+01 -0.19254657648E+01  0.16500203979E+01  0.29126803745E+01  0.10500000000E+00 0. -1.
    3000001    1    5    5    0    0 -0.23774275608E+02  0.31898238986E+02 -0.35800513272E+01  0.39956608948E+02  0.10000000000E+01 0.  1.
        -13    1    6    6    0    0 -0.83666252543E+01  0.84984341565E+01  0.25903178696E+01  0.12204285023E+02  0.10500000000E+00 0.  1.
         13    1    6    6    0    0 -0.71702177016E+01  0.71385490091E+01  0.21248956819E+01  0.10339105885E+02  0.10500000000E+00 0. -1.
</event>
<event>
11    0  0.3485800E-009  0.9118800E+02  0.7816531E-02  0.1126479E+00
         25   -1    0    0    0    0  0.00000000000E+00  0.00000000000E+00  0.99999998245E-14  0.12500000000E+03  0.12500000000E+03 0.  0.
    3000001    1    3    3    0    0 -0.52245358669E+01 -0.48912311076E+01  0.13837491996E+02  0.15610768768E+02  0.10000000000E+01 0. -1.
    1000022    2    1    0    0    0 -0.35507696930E+02 -0.18971080618E+02  0.46749885757E+02  0.62500001726E+02  0.99999978198E+01 0.  0.
    3000022    2    3    3    0    0 -0.30283161063E+02 -0.14079849510E+02  0.32912393761E+02  0.46889232958E+02  0.24999632949E+00 0.  0.
    1000022    2    1    0    0    0  0.35507696930E+02  0.18971080618E+02 -0.46749885757E+02  0.62499998274E+02  0.99999762428E+01 0.  0.
    3000022    2    5    5    0    0  0.33768534670E+01 -0.11174847252E+01 -0.36714073304E+01  0.51179726670E+01  0.25000197265E+00 0.  0.
        -13    1    4    4    0    0 -0.17162378974E+02 -0.80502966020E+01  0.18662417291E+02  0.26601717456E+02  0.10500000000E+00 0.  1.
         13    1    4    4    0    0 -0.13120782089E+02 -0.60295529083E+01  0.14249976469E+02  0.20287515503E+02  0.10500000000E+00 0. -1.
    3000001    1    5    5    0    0  0.32130843463E+02  0.20088565343E+02 -0.43078478426E+02  0.57382025607E+02  0.10000000000E+01 0.  1.
        -13    1    6    6    0    0  0.15636760358E+01 -0.54223675912E+00 -0.16182761190E+01  0.23170986266E+01  0.10500000000E+00 0. -1.
         13    1    6    6    0    0  0.18131774312E+01 -0.57524796613E+00 -0.20531312113E+01  0.28008740404E+01  0.10500000000E+00 0.  1.
</event>
<event>
11    0  0.3485800E-009  0.9118800E+02  0.7816531E-02  0.1126479E+00
         25   -1    0    0    0    0  0.00000000000E+00  0.00000000000E+00  0.99999998245E-14  0.12500000000E+03  0.12500000000E+03 0.  0.
    3000001    1    3    3    0    0  0.81941685683E+01 -0.29662288786E+01 -0.99374051750E+01  0.13254996564E+02  0.10000000000E+01 0.  1.
    1000022    2    1    0    0    0  0.50882206581E+02 -0.77464565576E+01 -0.34018285322E+02  0.62500000875E+02  0.99999918675E+01 0.  0.
    3000022    2    3    3    0    0  0.42688038013E+02 -0.47802276790E+01 -0.24080880147E+02  0.49245004312E+02  0.24998986056E+00 0.  0.
    1000022    2    1    0    0    0 -0.50882206581E+02  0.77464565576E+01  0.34018285322E+02  0.62499999125E+02  0.99999809265E+01 0.  0.
    3000022    2    5    5    0    0 -0.49401886781E+02  0.86746691884E+01  0.31321137798E+02  0.59134359487E+02  0.24999194615E+00 0.  0.
        -13    1    4    4    0    0  0.29377805783E+02 -0.33381610819E+01 -0.16584651402E+02  0.33900744522E+02  0.10500000000E+00 0.  1.
         13    1    4    4    0    0  0.13310232230E+02 -0.14420665970E+01 -0.74962287452E+01  0.15344259789E+02  0.10500000000E+00 0. -1.
    3000001    1    5    5    0    0 -0.14803198004E+01 -0.92821263080E+00  0.26971475249E+01  0.33656396377E+01  0.10000000000E+01 0.  1.
        -13    1    6    6    0    0 -0.28240231434E+02  0.50249510005E+01  0.17904852516E+02  0.33813541261E+02  0.10500000000E+00 0. -1.
         13    1    6    6    0    0 -0.21161655346E+02  0.36497181879E+01  0.13416285282E+02  0.25320818226E+02  0.10500000000E+00 0.  1.
</event>
<event>
11    0  0.3485800E-009  0.9118800E+02  0.7816531E-02  0.1126479E+00
         25   -1    0    0    0    0  0.00000000000E+00  0.00000000000E+00  0.99999998245E-14  0.12500000000E+03  0.12500000000E+03 0.  0.
    3000001    1    3    3    0    0 -0.17841788744E+02 -0.18944185600E+02  0.18483174473E+02  0.31934923394E+02  0.10000000000E+01 0. -1.
    1000022    2    1    0    0    0 -0.31349263089E+02 -0.31214425781E+02  0.43001550719E+02  0.62500000440E+02  0.10000000884E+02 0.  0.
    3000022    2    3    3    0    0 -0.13507474346E+02 -0.12270240181E+02  0.24518376247E+02  0.30565077046E+02  0.25000748846E+00 0.  0.
    1000022    2    1    0    0    0  0.31349263089E+02  0.31214425781E+02 -0.43001550719E+02  0.62499999560E+02  0.99999953849E+01 0.  0.
    3000022    2    5    5    0    0  0.19872451840E+02  0.25160998760E+02 -0.33612621397E+02  0.46452782700E+02  0.25000526925E+00 0.  0.
        -13    1    4    4    0    0 -0.46632106530E+01 -0.42395945883E+01  0.83751692697E+01  0.10482088588E+02  0.10500000000E+00 0. -1.
         13    1    4    4    0    0 -0.88442636927E+01 -0.80306455925E+01  0.16143206977E+02  0.20082988458E+02  0.10500000000E+00 0.  1.
    3000001    1    5    5    0    0  0.11476811249E+02  0.60534270210E+01 -0.93889293220E+01  0.16047216860E+02  0.10000000000E+01 0.  1.
        -13    1    6    6    0    0  0.82596497477E+01  0.10441362020E+02 -0.14049397079E+02  0.19355630655E+02  0.10500000000E+00 0.  1.
         13    1    6    6    0    0  0.11612802092E+02  0.14719636740E+02 -0.19563224318E+02  0.27097152044E+02  0.10500000000E+00 0. -1.
</event>
<event>
11    0  0.3485800E-009  0.9118800E+02  0.7816531E-02  0.1126479E+00
         25   -1    0    0    0    0  0.00000000000E+00  0.00000000000E+00  0.99999998245E-14  0.12500000000E+03  0.12500000000E+03 0.  0.
    3000001    1    3    3    0    0  0.13698909147E+01  0.32659970570E+02 -0.50885372370E+02  0.60488605539E+02  0.10000000000E+01 0.  1.
    1000022    2    1    0    0    0  0.10215711908E+01  0.34617621049E+02 -0.51057090559E+02  0.62500001703E+02  0.10000021089E+02 0.  0.
    3000022    2    3    3    0    0 -0.34831972387E+00  0.19576504793E+01 -0.17171818834E+00  0.20113961644E+01  0.25001073011E+00 0.  0.
    1000022    2    1    0    0    0 -0.10215711908E+01 -0.34617621049E+02  0.51057090559E+02  0.62499998297E+02  0.99999998004E+01 0.  0.
    3000022    2    5    5    0    0  0.23908686994E+01 -0.26036987281E+02  0.32199561055E+02  0.41479093444E+02  0.25000195214E+00 0.  0.
        -13    1    4    4    0    0 -0.10657623537E+00  0.92690542102E+00 -0.45165514461E-01  0.93998780692E+00  0.10500000000E+00 0.  1.
         13    1    4    4    0    0 -0.24174348850E+00  0.10307450582E+01 -0.12655267388E+00  0.10714083575E+01  0.10500000000E+00 0. -1.
    3000001    1    5    5    0    0 -0.34124398902E+01 -0.85806337681E+01  0.18857529503E+02  0.21020904853E+02  0.10000000000E+01 0. -1.
        -13    1    6    6    0    0  0.15259617072E+01 -0.16015986570E+02  0.19769502495E+02  0.25488912076E+02  0.10500000000E+00 0.  1.
         13    1    6    6    0    0  0.86490699221E+00 -0.10021000711E+02  0.12430058560E+02  0.15990181368E+02  0.10500000000E+00 0. -1.
</event>
<event>
11    0  0.3485800E-009  0.9118800E+02  0.7816531E-02  0.1126479E+00
         25   -1    0    0    0    0  0.00000000000E+00  0.00000000000E+00  0.99999998245E-14  0.12500000000E+03  0.12500000000E+03 0.  0.
    3000001    1    3    3    0    0 -0.28564782637E+02 -0.31603436302E+01  0.26209278173E+02  0.38908364670E+02  0.10000000000E+01 0.  1.
    1000022    2    1    0    0    0 -0.46352739658E+02 -0.12075344530E+02  0.38882639256E+02  0.62499999537E+02  0.99999943625E+01 0.  0.
    3000022    2    3    3    0    0 -0.17787957021E+02 -0.89150008999E+01  0.12673361083E+02  0.23591634867E+02  0.24999701446E+00 0.  0.
    1000022    2    1    0    0    0  0.46352739658E+02  0.12075344530E+02 -0.38882639256E+02  0.62500000463E+02  0.10000000151E+02 0.  0.
    3000022    2    5    5    0    0  0.20030609836E+02  0.80203053960E+01 -0.22704350653E+02  0.31322526498E+02  0.24999711042E+00 0.  0.
        -13    1    4    4    0    0 -0.95757113490E+01 -0.47264978103E+01  0.67812435921E+01  0.12650309049E+02  0.10500000000E+00 0. -1.
         13    1    4    4    0    0 -0.82122456724E+01 -0.41885030896E+01  0.58921174910E+01  0.10941325817E+02  0.10500000000E+00 0.  1.
    3000001    1    5    5    0    0  0.26322129822E+02  0.40550391341E+01 -0.16178288603E+02  0.31177473965E+02  0.10000000000E+01 0. -1.
        -13    1    6    6    0    0  0.12667150563E+02  0.51235471248E+01 -0.14427968199E+02  0.19871706768E+02  0.10500000000E+00 0. -1.
         13    1    6    6    0    0  0.73634592733E+01  0.28967582712E+01 -0.82763824546E+01  0.11450819730E+02  0.10500000000E+00 0.  1.
</event>
<event>
11    0  0.3485800E-009  0.9118800E+02  0.7816531E-02  0.1126479E+00
         25   -1    0    0    0    0  0.00000000000E+00  0.00000000000E+00  0.99999998245E-14  0.12500000000E+03  0.12500000000E+03 0.  0.
    3000001    1    3    3    0    0  0.23781111156E+02  0.59748898361E+01  0.67309643955E+01  0.25446933765E+02  0.10000000000E+01 0. -1.
    1000022    2    1    0    0    0  0.55713167713E+02  0.72881192755E+01  0.25478936357E+02  0.62500000565E+02  0.10000006674E+02 0.  0.
    3000022    2    3    3    0    0  0.31932056558E+02  0.13132294394E+01  0.18747971962E+02  0.37053066800E+02  0.24999803545E+00 0.  0.
    1000022    2    1    0    0    0 -0.55713167713E+02 -0.72881192755E+01 -0.25478936357E+02  0.62499999435E+02  0.99999996136E+01 0.  0.
    3000022    2    5    5    0    0 -0.26695106149E+01 -0.21532717800E+01 -0.33085782061E+01  0.47720079776E+01  0.25000822092E+00 0.  0.
        -13    1    4    4    0    0  0.22490173576E+02  0.94011509887E+00  0.13253217880E+02  0.26121840154E+02  0.10500000000E+00 0.  1.
         13    1    4    4    0    0  0.94418829819E+01  0.37311434053E+00  0.54947540821E+01  0.10931226646E+02  0.10500000000E+00 0. -1.
    3000001    1    5    5    0    0 -0.53043657098E+02 -0.51348474955E+01 -0.22170358151E+02  0.57727991458E+02  0.10000000000E+01 0. -1.
        -13    1    6    6    0    0 -0.67190421996E+00 -0.51077900917E+00 -0.81851078716E+00  0.11803962833E+01  0.10500000000E+00 0.  1.
         13    1    6    6    0    0 -0.19976063950E+01 -0.16424927708E+01 -0.24900674190E+01  0.35916116943E+01  0.10500000000E+00 0. -1.
</event>
<event>
11    0  0.3485800E-009  0.9118800E+02  0.7816531E-02  0.1126479E+00
         25   -1    0    0    0    0  0.00000000000E+00  0.00000000000E+00  0.99999998245E-14  0.12500000000E+03  0.12500000000E+03 0.  0.
    3000001    1    3    3    0    0 -0.12785779629E+02  0.18113193334E+02  0.10320005892E+02  0.24475834104E+02  0.10000000000E+01 0.  1.
    1000022    2    1    0    0    0 -0.28147830615E+02  0.40993694425E+02  0.36516662253E+02  0.62500000760E+02  0.10000006098E+02 0.  0.
    3000022    2    3    3    0    0 -0.15362050985E+02  0.22880501091E+02  0.26196656361E+02  0.38024166655E+02  0.25000942478E+00 0.  0.
    1000022    2    1    0    0    0  0.28147830615E+02 -0.40993694425E+02 -0.36516662253E+02  0.62499999240E+02  0.99999966024E+01 0.  0.
    3000022    2    5    5    0    0  0.14902700021E+02 -0.26246205670E+02 -0.16891225765E+02  0.34588000632E+02  0.24999966221E+00 0.  0.
        -13    1    4    4    0    0 -0.88337900072E+01  0.13145974480E+02  0.14965546629E+02  0.21790619584E+02  0.10500000000E+00 0. -1.
         13    1    4    4    0    0 -0.65282609782E+01  0.97345266106E+01  0.11231109732E+02  0.16233547072E+02  0.10500000000E+00 0.  1.
    3000001    1    5    5    0    0  0.13245130593E+02 -0.14747488754E+02 -0.19625436488E+02  0.27911998609E+02  0.10000000000E+01 0.  1.
        -13    1    6    6    0    0  0.71329355609E+01 -0.12643556890E+02 -0.81867027162E+01  0.16666476140E+02  0.10500000000E+00 0.  1.
         13    1    6    6    0    0  0.77697644605E+01 -0.13602648780E+02 -0.87045230490E+01  0.17921524492E+02  0.10500000000E+00 0. -1.
</event>
<event>
11    0  0.3485800E-009  0.9118800E+02  0.7816531E-02  0.1126479E+00
         25   -1    0    0    0    0  0.00000000000E+00  0.00000000000E+00  0.99999998245E-14  0.12500000000E+03  0.12500000000E+03 0.  0.
    3000001    1    3    3    0    0  0.97046160611E+01  0.29044940791E+02  0.25343146994E+01  0.30744282548E+02  0.10000000000E+01 0. -1.
    1000022    2    1    0    0    0  0.19802739792E+02  0.56504310625E+02  0.14878275716E+02  0.62499990175E+02  0.10000003058E+02 0.  0.
    3000022    2    3    3    0    0  0.10098123731E+02  0.27459369834E+02  0.12343961017E+02  0.31755707627E+02  0.24999743045E+00 0.  0.
    1000022    2    1    0    0    0 -0.19802739792E+02 -0.56504310625E+02 -0.14878275716E+02  0.62500009825E+02  0.10000125867E+02 0.  0.
    3000022    2    5    5    0    0 -0.32858535486E+01 -0.10514616608E+02 -0.68350298592E+01  0.12966654489E+02  0.24999899199E+00 0.  0.
        -13    1    4    4    0    0  0.29072947328E+01  0.80137455809E+01  0.36208454915E+01  0.92625065707E+01  0.10500000000E+00 0.  1.
         13    1    4    4    0    0  0.71908289983E+01  0.19445624253E+02  0.87231155251E+01  0.22493201056E+02  0.10500000000E+00 0. -1.
    3000001    1    5    5    0    0 -0.16516886244E+02 -0.45989694017E+02 -0.80432458568E+01  0.49533355336E+02  0.10000000000E+01 0.  1.
        -13    1    6    6    0    0 -0.13592089538E+01 -0.45463525398E+01 -0.29099118474E+01  0.55673496707E+01  0.10500000000E+00 0.  1.
         13    1    6    6    0    0 -0.19266445949E+01 -0.59682640681E+01 -0.39251180117E+01  0.73993048178E+01  0.10500000000E+00 0. -1.
</event>
<event>
11    0  0.3485800E-009  0.9118800E+02  0.7816531E-02  0.1126479E+00
         25   -1    0    0    0    0  0.00000000000E+00  0.00000000000E+00  0.99999998245E-14  0.12500000000E+03  0.12500000000E+03 0.  0.
    3000001    1    3    3    0    0  0.24405122690E+02  0.22934458247E+01 -0.53567964927E+02  0.58918560520E+02  0.10000000000E+01 0.  1.
    1000022    2    1    0    0    0  0.26444085158E+02  0.44447731544E+01 -0.55562616175E+02  0.62500000628E+02  0.10000005703E+02 0.  0.
    3000022    2    3    3    0    0  0.20389624678E+01  0.21513273297E+01 -0.19946512484E+01  0.35814401088E+01  0.25000485096E+00 0.  0.
    1000022    2    1    0    0    0 -0.26444085158E+02 -0.44447731544E+01  0.55562616175E+02  0.62499999372E+02  0.99999978481E+01 0.  0.
    3000022    2    5    5    0    0 -0.16569157583E+02 -0.23762976654E+01  0.44240439226E+02  0.47301825917E+02  0.24999726946E+00 0.  0.
        -13    1    4    4    0    0  0.71270259985E+00  0.68328994353E+00 -0.63576772331E+00  0.11790062514E+01  0.10500000000E+00 0.  1.
         13    1    4    4    0    0  0.13262598679E+01  0.14680373862E+01 -0.13588835250E+01  0.24024338574E+01  0.10500000000E+00 0. -1.
    3000001    1    5    5    0    0 -0.98749275754E+01 -0.20684754890E+01  0.11322176950E+02  0.15198173454E+02  0.10000000000E+01 0. -1.
        -13    1    6    6    0    0 -0.10654836890E+02 -0.15641638216E+01  0.28333424241E+02  0.30311154907E+02  0.10500000000E+00 0.  1.
         13    1    6    6    0    0 -0.59143206926E+01 -0.81213384380E+00  0.15907014985E+02  0.16990671010E+02  0.10500000000E+00 0. -1.
</event>
<event>
11    0  0.3485800E-009  0.9118800E+02  0.7816531E-02  0.1126479E+00
         25   -1    0    0    0    0  0.00000000000E+00  0.00000000000E+00  0.99999998245E-14  0.12500000000E+03  0.12500000000E+03 0.  0.
    3000001    1    3    3    0    0 -0.24840068333E+02 -0.18473807285E+02 -0.71836377871E+01  0.31794892707E+02  0.10000000000E+01 0. -1.
    1000022    2    1    0    0    0 -0.42755806585E+02 -0.39108795881E+02 -0.21182375631E+02  0.62499999635E+02  0.10000000247E+02 0.  0.
    3000022    2    3    3    0    0 -0.17915738252E+02 -0.20634988596E+02 -0.13998737844E+02  0.30705106927E+02  0.24999746798E+00 0.  0.
    1000022    2    1    0    0    0  0.42755806585E+02  0.39108795881E+02  0.21182375631E+02  0.62500000365E+02  0.10000004815E+02 0.  0.
    3000022    2    5    5    0    0  0.42662942593E+02  0.38205293571E+02  0.21388477137E+02  0.61133465340E+02  0.25000538073E+00 0.  0.
        -13    1    4    4    0    0 -0.10394344284E+02 -0.11872926598E+02 -0.80861785771E+01  0.17731499883E+02  0.10500000000E+00 0. -1.
         13    1    4    4    0    0 -0.75213939674E+01 -0.87620619977E+01 -0.59125592669E+01  0.12973607045E+02  0.10500000000E+00 0.  1.
    3000001    1    5    5    0    0  0.92863991796E-01  0.90350231042E+00 -0.20610150552E+00  0.13665350257E+01  0.10000000000E+01 0.  1.
        -13    1    6    6    0    0  0.28671210018E+02  0.25671329739E+02  0.14428707163E+02  0.41100536126E+02  0.10500000000E+00 0.  1.
         13    1    6    6    0    0  0.13991732575E+02  0.12533963832E+02  0.69597699732E+01  0.20032929213E+02  0.10500000000E+00 0. -1.
</event>
<event>
11    0  0.3485800E-009  0.9118800E+02  0.7816531E-02  0.1126479E+00
         25   -1    0    0    0    0  0.00000000000E+00  0.00000000000E+00  0.99999998245E-14  0.12500000000E+03  0.12500000000E+03 0.  0.
    3000001    1    3    3    0    0  0.12460078898E+01 -0.92949068980E+01  0.73302701590E+01  0.11944902281E+02  0.10000000000E+01 0. -1.
    1000022    2    1    0    0    0  0.53823037273E+01 -0.33565258112E+02  0.51484504787E+02  0.62499999156E+02  0.99999957944E+01 0.  0.
    3000022    2    3    3    0    0  0.41362958375E+01 -0.24270351214E+02  0.44154234628E+02  0.50555096875E+02  0.24998640103E+00 0.  0.
    1000022    2    1    0    0    0 -0.53823037273E+01  0.33565258112E+02 -0.51484504787E+02  0.62500000844E+02  0.10000006341E+02 0.  0.
    3000022    2    5    5    0    0 -0.28379251968E+01  0.27543343334E+02 -0.46860755186E+02  0.54430528738E+02  0.25000126596E+00 0.  0.
        -13    1    4    4    0    0  0.26034264171E+01 -0.15077367702E+02  0.27543342149E+02  0.31507960386E+02  0.10500000000E+00 0.  1.
         13    1    4    4    0    0  0.15328694204E+01 -0.91929835117E+01  0.16610892479E+02  0.19047136489E+02  0.10500000000E+00 0. -1.
    3000001    1    5    5    0    0 -0.25443785305E+01  0.60219147778E+01 -0.46237496001E+01  0.80694721055E+01  0.10000000000E+01 0.  1.
        -13    1    6    6    0    0 -0.18350946059E+01  0.17375846413E+02 -0.29646818375E+02  0.34412678994E+02  0.10500000000E+00 0. -1.
         13    1    6    6    0    0 -0.10028305909E+01  0.10167496921E+02 -0.17213936811E+02  0.20017849744E+02  0.10500000000E+00 0.  1.
</event>
<event>
11    0  0.3485800E-009  0.9118800E+02  0.7816531E-02  0.1126479E+00
         25   -1    0    0    0    0  0.00000000000E+00  0.00000000000E+00  0.99999998245E-14  0.12500000000E+03  0.12500000000E+03 0.  0.
    3000001    1    3    3    0    0  0.24770297753E+02 -0.12217606083E+02 -0.70263471344E+01  0.28516786341E+02  0.10000000000E+01 0. -1.
    1000022    2    1    0    0    0  0.50894183603E+02 -0.24033405352E+02 -0.25267120588E+02  0.62500000399E+02  0.10000008487E+02 0.  0.
    3000022    2    3    3    0    0  0.26123885850E+02 -0.11815799269E+02 -0.18240773453E+02  0.33983214058E+02  0.24999460741E+00 0.  0.
    1000022    2    1    0    0    0 -0.50894183603E+02  0.24033405352E+02  0.25267120588E+02  0.62499999601E+02  0.10000003495E+02 0.  0.
    3000022    2    5    5    0    0 -0.22353690888E+02  0.13076577650E+02  0.16393226053E+02  0.30651015286E+02  0.24999653474E+00 0.  0.
        -13    1    4    4    0    0  0.88556726015E+01 -0.39866653967E+01 -0.62400857219E+01  0.11544095158E+02  0.10500000000E+00 0. -1.
         13    1    4    4    0    0  0.17268213248E+02 -0.78291338719E+01 -0.12000687731E+02  0.22439118900E+02  0.10500000000E+00 0.  1.
    3000001    1    5    5    0    0 -0.28540492715E+02  0.10956827702E+02  0.88738945349E+01  0.31848984315E+02  0.10000000000E+01 0.  1.
        -13    1    6    6    0    0 -0.67799727235E+01  0.39559818129E+01  0.49149514674E+01  0.92620513474E+01  0.10500000000E+00 0.  1.
         13    1    6    6    0    0 -0.15573718165E+02  0.91205958372E+01  0.11478274585E+02  0.21388963938E+02  0.10500000000E+00 0. -1.
</event>
<event>
11    0  0.3485800E-009  0.9118800E+02  0.7816531E-02  0.1126479E+00
         25   -1    0    0    0    0  0.00000000000E+00  0.00000000000E+00  0.99999998245E-14  0.12500000000E+03  0.12500000000E+03 0.  0.
    3000001    1    3    3    0    0  0.15960952010E+02  0.31745296227E+02  0.47802751454E+02  0.59570285111E+02  0.10000000000E+01 0.  1.
    1000022    2    1    0    0    0  0.17083424887E+02  0.31159687117E+02  0.50432927714E+02  0.62499996764E+02  0.99999945260E+01 0.  0.
    3000022    2    3    3    0    0  0.11224728770E+01 -0.58560911011E+00  0.26301762599E+01  0.29297116525E+01  0.24999963837E+00 0.  0.
    1000022    2    1    0    0    0 -0.17083424887E+02 -0.31159687117E+02 -0.50432927714E+02  0.62500003236E+02  0.10000034982E+02 0.  0.
    3000022    2    5    5    0    0 -0.10256305982E+02 -0.97615526440E+01 -0.23258284931E+02  0.27230314807E+02  0.25000837872E+00 0.  0.
        -13    1    4    4    0    0  0.61286740803E+00 -0.35471455365E+00  0.13309033996E+01  0.15112106847E+01  0.10500000000E+00 0. -1.
         13    1    4    4    0    0  0.50960546896E+00 -0.23089455646E+00  0.12992728603E+01  0.14185009679E+01  0.10500000000E+00 0.  1.
    3000001    1    5    5    0    0 -0.68271189058E+01 -0.21398134473E+02 -0.27174642783E+02  0.35269688429E+02  0.10000000000E+01 0. -1.
        -13    1    6    6    0    0 -0.26948351886E+01 -0.26107116423E+01 -0.61517468834E+01  0.72064531283E+01  0.10500000000E+00 0. -1.
         13    1    6    6    0    0 -0.75614707931E+01 -0.71508410018E+01 -0.17106538047E+02  0.20023861679E+02  0.10500000000E+00 0.  1.
</event>
<event>
11    0  0.3485800E-009  0.9118800E+02  0.7816531E-02  0.1126479E+00
         25   -1    0    0    0    0  0.00000000000E+00  0.00000000000E+00  0.99999998245E-14  0.12500000000E+03  0.12500000000E+03 0.  0.
    3000001    1    3    3    0    0  0.59820658774E+02 -0.29621563385E+01 -0.46797857026E+01  0.60084823213E+02  0.10000000000E+01 0.  1.
    1000022    2    1    0    0    0  0.61519576745E+02 -0.12771378796E+01 -0.44677235174E+01  0.62499999981E+02  0.10000002007E+02 0.  0.
    3000022    2    3    3    0    0  0.16989179716E+01  0.16850184589E+01  0.21206218522E+00  0.24151767685E+01  0.24999794322E+00 0.  0.
    1000022    2    1    0    0    0 -0.61519576745E+02  0.12771378796E+01  0.44677235174E+01  0.62500000019E+02  0.10000002240E+02 0.  0.
    3000022    2    5    5    0    0 -0.41087487286E+02 -0.36578539690E+01  0.18223102642E+01  0.41290977516E+02  0.25000482625E+00 0.  0.
        -13    1    4    4    0    0  0.63809147397E+00  0.55277277291E+00  0.71569136845E-01  0.85373626429E+00  0.10500000000E+00 0. -1.
         13    1    4    4    0    0  0.10608264977E+01  0.11322456860E+01  0.14049304838E+00  0.15614405042E+01  0.10500000000E+00 0.  1.
    3000001    1    5    5    0    0 -0.20432089460E+02  0.49349918487E+01  0.26454132531E+01  0.21209022502E+02  0.10000000000E+01 0.  1.
        -13    1    6    6    0    0 -0.25210418715E+02 -0.21962140409E+01  0.11566233068E+01  0.25332535806E+02  0.10500000000E+00 0. -1.
         13    1    6    6    0    0 -0.15877068571E+02 -0.14616399282E+01  0.66568695741E+00  0.15958441710E+02  0.10500000000E+00 0.  1.
</event>
<event>
11    0  0.3485800E-009  0.9118800E+02  0.7816531E-02  0.1126479E+00
         25   -1    0    0    0    0  0.00000000000E+00  0.00000000000E+00  0.99999998245E-14  0.12500000000E+03  0.12500000000E+03 0.  0.
    3000001    1    3    3    0    0 -0.37031834054E+01 -0.12732961425E+01 -0.71911240077E+00  0.41051154729E+01  0.10000000000E+01 0. -1.
    1000022    2    1    0    0    0 -0.37941258488E+02 -0.29801335389E+02 -0.38452455257E+02  0.62499999424E+02  0.99999963043E+01 0.  0.
    3000022    2    3    3    0    0 -0.34238075083E+02 -0.28528039246E+02 -0.37733342856E+02  0.58394883951E+02  0.24999989556E+00 0.  0.
    1000022    2    1    0    0    0  0.37941258488E+02  0.29801335389E+02  0.38452455257E+02  0.62500000576E+02  0.10000003505E+02 0.  0.
    3000022    2    5    5    0    0  0.34561095271E+02  0.29851481431E+02  0.34740030903E+02  0.57380419286E+02  0.25004065306E+00 0.  0.
        -13    1    4    4    0    0 -0.16698117384E+02 -0.14001440172E+02 -0.18447121886E+02  0.28551265855E+02  0.10500000000E+00 0.  1.
         13    1    4    4    0    0 -0.17539957699E+02 -0.14526599074E+02 -0.19286220971E+02  0.29843618096E+02  0.10500000000E+00 0. -1.
    3000001    1    5    5    0    0  0.33801632173E+01 -0.50146042657E-01  0.37124243537E+01  0.51195812899E+01  0.10000000000E+01 0. -1.
        -13    1    6    6    0    0  0.22613484273E+02  0.19467698718E+02  0.22663606715E+02  0.37470135558E+02  0.10500000000E+00 0.  1.
         13    1    6    6    0    0  0.11947610997E+02  0.10383782713E+02  0.12076424188E+02  0.19910283728E+02  0.10500000000E+00 0. -1.
</event>
<event>
11    0  0.3485800E-009  0.9118800E+02  0.7816531E-02  0.1126479E+00
         25   -1    0    0    0    0  0.00000000000E+00  0.00000000000E+00  0.99999998245E-14  0.12500000000E+03  0.12500000000E+03 0.  0.
    3000001    1    3    3    0    0 -0.53069875135E-02 -0.50565155320E+02  0.87357660688E+01  0.51323957071E+02  0.10000000000E+01 0. -1.
    1000022    2    1    0    0    0 -0.26040729858E+01 -0.59998305512E+02  0.14130536185E+02  0.62500000768E+02  0.10000009132E+02 0.  0.
    3000022    2    3    3    0    0 -0.25987659983E+01 -0.94331501925E+01  0.53947701163E+01  0.11176043696E+02  0.25000165011E+00 0.  0.
    1000022    2    1    0    0    0  0.26040729858E+01  0.59998305512E+02 -0.14130536185E+02  0.62499999232E+02  0.99999995361E+01 0.  0.
    3000022    2    5    5    0    0  0.60708491266E+00  0.30987470217E+02 -0.12299899555E+02  0.33345792738E+02  0.25000336076E+00 0.  0.
        -13    1    4    4    0    0 -0.14864502691E+01 -0.52884120421E+01  0.30965954929E+01  0.63068823500E+01  0.10500000000E+00 0.  1.
         13    1    4    4    0    0 -0.11123157292E+01 -0.41447381504E+01  0.22981746233E+01  0.48691613463E+01  0.10500000000E+00 0. -1.
    3000001    1    5    5    0    0  0.19969880731E+01  0.29010835295E+02 -0.18306366303E+01  0.29154206495E+02  0.10000000000E+01 0.  1.
        -13    1    6    6    0    0  0.43760420924E+00  0.20146806357E+02 -0.79575710384E+01  0.21666085610E+02  0.10500000000E+00 0. -1.
         13    1    6    6    0    0  0.16948070342E+00  0.10840663861E+02 -0.43423285163E+01  0.11679707128E+02  0.10500000000E+00 0.  1.
</event>
<event>
11    0  0.3485800E-009  0.9118800E+02  0.7816531E-02  0.1126479E+00
         25   -1    0    0    0    0  0.00000000000E+00  0.00000000000E+00  0.99999998245E-14  0.12500000000E+03  0.12500000000E+03 0.  0.
    3000001    1    3    3    0    0  0.47189607028E+02 -0.13238747199E+02 -0.24434917271E+02  0.54773977588E+02  0.10000000000E+01 0.  1.
    1000022    2    1    0    0    0  0.54850311159E+02 -0.14209245876E+02 -0.24408829915E+02  0.62500001021E+02  0.99999923657E+01 0.  0.
    3000022    2    3    3    0    0  0.76607041307E+01 -0.97049867770E+00  0.26087356272E-01  0.77260234329E+01  0.25000414840E+00 0.  0.
    1000022    2    1    0    0    0 -0.54850311159E+02  0.14209245876E+02  0.24408829915E+02  0.62499998979E+02  0.99999795982E+01 0.  0.
    3000022    2    5    5    0    0 -0.24540525733E+02  0.65780877156E+01  0.16324180663E+02  0.30200165838E+02  0.25000212332E+00 0.  0.
        -13    1    4    4    0    0  0.56077906771E+01 -0.71223518466E+00  0.54237404261E-01  0.56540748079E+01  0.10500000000E+00 0.  1.
         13    1    4    4    0    0  0.20529134536E+01 -0.25826349304E+00 -0.28150047989E-01  0.20719486250E+01  0.10500000000E+00 0. -1.
    3000001    1    5    5    0    0 -0.30309785425E+02  0.76311581607E+01  0.80846492519E+01  0.32299833141E+02  0.10000000000E+01 0.  1.
        -13    1    6    6    0    0 -0.86439927263E+01  0.23749467409E+01  0.57726045055E+01  0.10662690563E+02  0.10500000000E+00 0. -1.
         13    1    6    6    0    0 -0.15896533007E+02  0.42031409746E+01  0.10551576157E+02  0.19537475275E+02  0.10500000000E+00 0.  1.
</event>
<event>
11    0  0.3485800E-009  0.9118800E+02  0.7816531E-02  0.1126479E+00
         25   -1    0    0    0    0  0.00000000000E+00  0.00000000000E+00  0.99999998245E-14  0.12500000000E+03  0.12500000000E+03 0.  0.
    3000001    1    3    3    0    0  0.98890597425E+01 -0.10738976424E+01 -0.26094859200E+01  0.10332288009E+02  0.10000000000E+01 0. -1.
    1000022    2    1    0    0    0  0.49949441351E+02 -0.17946310756E+02 -0.31452078891E+02  0.62499999851E+02  0.99999976906E+01 0.  0.
    3000022    2    3    3    0    0  0.40060381608E+02 -0.16872413114E+02 -0.28842592971E+02  0.52167711842E+02  0.24998130168E+00 0.  0.
    1000022    2    1    0    0    0 -0.49949441351E+02  0.17946310756E+02  0.31452078891E+02  0.62500000149E+02  0.99999995498E+01 0.  0.
    3000022    2    5    5    0    0 -0.19428098354E+02  0.35682658928E+01  0.75842369307E+01  0.21160498068E+02  0.25000306372E+00 0.  0.
        -13    1    4    4    0    0  0.23261014804E+02 -0.98651305150E+01 -0.16783359337E+02  0.30332948841E+02  0.10500000000E+00 0.  1.
         13    1    4    4    0    0  0.16799366804E+02 -0.70072825990E+01 -0.12059233635E+02  0.21834763001E+02  0.10500000000E+00 0. -1.
    3000001    1    5    5    0    0 -0.30521342997E+02  0.14378044864E+02  0.23867841961E+02  0.41339502081E+02  0.10000000000E+01 0. -1.
        -13    1    6    6    0    0 -0.61106404660E+01  0.11725593684E+01  0.23938026810E+01  0.66675436746E+01  0.10500000000E+00 0. -1.
         13    1    6    6    0    0 -0.13317457888E+02  0.23957065244E+01  0.51904342498E+01  0.14492954394E+02  0.10500000000E+00 0.  1.
</event>
<event>
11    0  0.3485800E-009  0.9118800E+02  0.7816531E-02  0.1126479E+00
         25   -1    0    0    0    0  0.00000000000E+00  0.00000000000E+00  0.99999998245E-14  0.12500000000E+03  0.12500000000E+03 0.  0.
    3000001    1    3    3    0    0 -0.29889590146E+00 -0.22757924327E+02  0.36300733137E+02  0.42857387750E+02  0.10000000000E+01 0.  1.
    1000022    2    1    0    0    0  0.34450081973E+01 -0.28051142170E+02  0.54840817053E+02  0.62499999068E+02  0.10000000500E+02 0.  0.
    3000022    2    3    3    0    0  0.37439040988E+01 -0.52932178425E+01  0.18540083915E+02  0.19642611318E+02  0.24998955206E+00 0.  0.
    1000022    2    1    0    0    0 -0.34450081973E+01  0.28051142170E+02 -0.54840817053E+02  0.62500000932E+02  0.10000012147E+02 0.  0.
    3000022    2    5    5    0    0 -0.47049064905E+01  0.11943951719E+02 -0.32219296018E+02  0.34683420591E+02  0.25000048652E+00 0.  0.
        -13    1    4    4    0    0  0.18256519561E+01 -0.24778515412E+01  0.88960524459E+01  0.94140069814E+01  0.10500000000E+00 0.  1.
         13    1    4    4    0    0  0.19182521427E+01 -0.28153663012E+01  0.96440314696E+01  0.10228604337E+02  0.10500000000E+00 0. -1.
    3000001    1    5    5    0    0  0.12598982932E+01  0.16107190451E+02 -0.22621521035E+02  0.27816580341E+02  0.10000000000E+01 0. -1.
        -13    1    6    6    0    0 -0.29174841579E+01  0.74132311231E+01 -0.19829551465E+02  0.21370302894E+02  0.10500000000E+00 0. -1.
         13    1    6    6    0    0 -0.17874223327E+01  0.45307205961E+01 -0.12389744553E+02  0.13313117697E+02  0.10500000000E+00 0.  1.
</event>
<event>
11    0  0.3485800E-009  0.9118800E+02  0.7816531E-02  0.1126479E+00
         25   -1    0    0    0    0  0.00000000000E+00  0.00000000000E+00  0.99999998245E-14  0.12500000000E+03  0.12500000000E+03 0.  0.
    3000001    1    3    3    0    0  0.98714788189E+01  0.53555894843E+01 -0.87222629290E+01  0.14255044840E+02  0.10000000000E+01 0.  1.
    1000022    2    1    0    0    0  0.53077849691E+02  0.11308149122E+02 -0.29344810850E+02  0.62499997246E+02  0.99999683734E+01 0.  0.
    3000022    2    3    3    0    0  0.43206370872E+02  0.59525596374E+01 -0.20622547922E+02  0.48244952405E+02  0.24999927807E+00 0.  0.
    1000022    2    1    0    0    0 -0.53077849691E+02 -0.11308149122E+02  0.29344810850E+02  0.62500002754E+02  0.10000002803E+02 0.  0.
    3000022    2    5    5    0    0 -0.44703941662E+02 -0.65610366498E+01  0.21479429891E+02  0.50029171582E+02  0.24999736024E+00 0.  0.
        -13    1    4    4    0    0  0.23611023836E+02  0.33052466034E+01 -0.11226366647E+02  0.26352370573E+02  0.10500000000E+00 0.  1.
         13    1    4    4    0    0  0.19595347036E+02  0.26473130340E+01 -0.93961812741E+01  0.21892581833E+02  0.10500000000E+00 0. -1.
    3000001    1    5    5    0    0 -0.83739080293E+01 -0.47471124719E+01  0.78653809592E+01  0.12470831173E+02  0.10000000000E+01 0. -1.
        -13    1    6    6    0    0 -0.19605749058E+02 -0.28217575408E+01  0.94566974741E+01  0.21949666601E+02  0.10500000000E+00 0. -1.
         13    1    6    6    0    0 -0.25098192603E+02 -0.37392791090E+01  0.12022732417E+02  0.28079504981E+02  0.10500000000E+00 0.  1.
</event>
<event>
11    0  0.3485800E-009  0.9118800E+02  0.7816531E-02  0.1126479E+00
         25   -1    0    0    0    0  0.00000000000E+00  0.00000000000E+00  0.99999998245E-14  0.12500000000E+03  0.12500000000E+03 0.  0.
    3000001    1    3    3    0    0  0.46186266395E+01  0.10175648731E+02  0.28019207985E+02  0.30181974012E+02  0.10000000000E+01 0.  1.
    1000022    2    1    0    0    0  0.18463161264E+02  0.23867336065E+02  0.53811819633E+02  0.62499999522E+02  0.99999976649E+01 0.  0.
    3000022    2    3    3    0    0  0.13844534624E+02  0.13691687335E+02  0.25792611648E+02  0.32318025510E+02  0.25003243773E+00 0.  0.
    1000022    2    1    0    0    0 -0.18463161264E+02 -0.23867336065E+02 -0.53811819633E+02  0.62500000478E+02  0.10000003645E+02 0.  0.
    3000022    2    5    5    0    0 -0.13267674958E+02 -0.98223608206E+01 -0.32230875929E+02  0.36213282564E+02  0.25000000956E+00 0.  0.
        -13    1    4    4    0    0  0.65424335787E+01  0.65486998060E+01  0.12325111922E+02  0.15414548815E+02  0.10500000000E+00 0.  1.
         13    1    4    4    0    0  0.73021010456E+01  0.71429875287E+01  0.13467499726E+02  0.16903476695E+02  0.10500000000E+00 0. -1.
    3000001    1    5    5    0    0 -0.51954863055E+01 -0.14044975245E+02 -0.21580943704E+02  0.26286717914E+02  0.10000000000E+01 0. -1.
        -13    1    6    6    0    0 -0.46302894690E+01 -0.33760271839E+01 -0.11271216524E+02  0.12644701936E+02  0.10500000000E+00 0. -1.
         13    1    6    6    0    0 -0.86373854893E+01 -0.64463336367E+01 -0.20959659405E+02  0.23568580628E+02  0.10500000000E+00 0.  1.
</event>
<event>
11    0  0.3485800E-009  0.9118800E+02  0.7816531E-02  0.1126479E+00
         25   -1    0    0    0    0  0.00000000000E+00  0.00000000000E+00  0.99999998245E-14  0.12500000000E+03  0.12500000000E+03 0.  0.
    3000001    1    3    3    0    0 -0.59887610642E+01  0.18759943136E+02 -0.97611635206E+01  0.22001841714E+02  0.10000000000E+01 0.  1.
    1000022    2    1    0    0    0 -0.78972201203E+01  0.49072713190E+02 -0.36547952189E+02  0.62499999596E+02  0.99999937410E+01 0.  0.
    3000022    2    3    3    0    0 -0.19084590562E+01  0.30312770055E+02 -0.26786788669E+02  0.40498157882E+02  0.25000062922E+00 0.  0.
    1000022    2    1    0    0    0  0.78972201203E+01 -0.49072713190E+02  0.36547952189E+02  0.62500000404E+02  0.99999987883E+01 0.  0.
    3000022    2    5    5    0    0  0.13934969885E+01 -0.25325098418E+02  0.13381943925E+02  0.28678238758E+02  0.25002259061E+00 0.  0.
        -13    1    4    4    0    0 -0.72691208509E+00  0.12570191259E+02 -0.11105768507E+02  0.16789497568E+02  0.10500000000E+00 0. -1.
         13    1    4    4    0    0 -0.11815469711E+01  0.17742578796E+02 -0.15681020162E+02  0.23708660314E+02  0.10500000000E+00 0.  1.
    3000001    1    5    5    0    0  0.65037231318E+01 -0.23747614772E+02  0.23166008264E+02  0.33821761646E+02  0.10000000000E+01 0.  1.
        -13    1    6    6    0    0  0.58709115376E+00 -0.11854282664E+02  0.62816986134E+01  0.13429052684E+02  0.10500000000E+00 0.  1.
         13    1    6    6    0    0  0.80640583478E+00 -0.13470815754E+02  0.71002453118E+01  0.15249186074E+02  0.10500000000E+00 0. -1.
</event>
<event>
11    0  0.3485800E-009  0.9118800E+02  0.7816531E-02  0.1126479E+00
         25   -1    0    0    0    0  0.00000000000E+00  0.00000000000E+00  0.99999998245E-14  0.12500000000E+03  0.12500000000E+03 0.  0.
    3000001    1    3    3    0    0 -0.36204401386E+01 -0.65858162252E+01  0.13902995549E+01  0.77080149845E+01  0.10000000000E+01 0.  1.
    1000022    2    1    0    0    0 -0.36663091739E+02 -0.38803066078E+02  0.30925551133E+02  0.62499999902E+02  0.10000002099E+02 0.  0.
    3000022    2    3    3    0    0 -0.33042651600E+02 -0.32217249853E+02  0.29535251578E+02  0.54791984918E+02  0.25002513544E+00 0.  0.
    1000022    2    1    0    0    0  0.36663091739E+02  0.38803066078E+02 -0.30925551133E+02  0.62500000098E+02  0.10000003323E+02 0.  0.
    3000022    2    5    5    0    0  0.15654053517E+01  0.25365060965E+01  0.50836880179E+00  0.30340242370E+01  0.25001427841E+00 0.  0.
        -13    1    4    4    0    0 -0.25040380711E+02 -0.24443914507E+02  0.22396605094E+02  0.41546896001E+02  0.10500000000E+00 0. -1.
         13    1    4    4    0    0 -0.80022708896E+01 -0.77733353461E+01  0.71386464836E+01  0.13245088917E+02  0.10500000000E+00 0.  1.
    3000001    1    5    5    0    0  0.35097686387E+02  0.36266559982E+02 -0.31433919934E+02  0.59465975861E+02  0.10000000000E+01 0.  1.
        -13    1    6    6    0    0  0.53126125409E+00  0.78832518522E+00  0.19645920285E+00  0.97637919689E+00  0.10500000000E+00 0.  1.
         13    1    6    6    0    0  0.10341440977E+01  0.17481809113E+01  0.31190959894E+00  0.20576450402E+01  0.10500000000E+00 0. -1.
</event>
<event>
11    0  0.3485800E-009  0.9118800E+02  0.7816531E-02  0.1126479E+00
         25   -1    0    0    0    0  0.00000000000E+00  0.00000000000E+00  0.99999998245E-14  0.12500000000E+03  0.12500000000E+03 0.  0.
    3000001    1    3    3    0    0 -0.43001423611E+01  0.82597765428E+01 -0.97808953954E+00  0.94165700768E+01  0.10000000000E+01 0.  1.
    1000022    2    1    0    0    0 -0.65804325050E+01  0.61166049165E+02 -0.46542938941E+01  0.62499998608E+02  0.99999855938E+01 0.  0.
    3000022    2    3    3    0    0 -0.22802901439E+01  0.52906272622E+02 -0.36762043546E+01  0.53083428531E+02  0.25000041535E+00 0.  0.
    1000022    2    1    0    0    0  0.65804325050E+01 -0.61166049165E+02  0.46542938941E+01  0.62500001392E+02  0.10000002998E+02 0.  0.
    3000022    2    5    5    0    0  0.46085268840E+01 -0.91686819738E+01  0.13143693890E+01  0.10348590076E+02  0.25000097778E+00 0.  0.
        -13    1    4    4    0    0 -0.17073482646E+01  0.38991044479E+02 -0.27286917619E+01  0.39123821023E+02  0.10500000000E+00 0.  1.
         13    1    4    4    0    0 -0.57294187922E+00  0.13915228143E+02 -0.94751259266E+00  0.13959607508E+02  0.10500000000E+00 0. -1.
    3000001    1    5    5    0    0  0.19719056210E+01 -0.51997367191E+02  0.33399245051E+01  0.52151411317E+02  0.10000000000E+01 0.  1.
        -13    1    6    6    0    0  0.28110202593E+01 -0.56792758510E+01  0.85905093837E+00  0.63957018852E+01  0.10500000000E+00 0. -1.
         13    1    6    6    0    0  0.17975066248E+01 -0.34894061229E+01  0.45531845061E+00  0.39528881906E+01  0.10500000000E+00 0.  1.
</event>
<event>
11    0  0.3485800E-009  0.9118800E+02  0.7816531E-02  0.1126479E+00
         25   -1    0    0    0    0  0.00000000000E+00  0.00000000000E+00  0.99999998245E-14  0.12500000000E+03  0.12500000000E+03 0.  0.
    3000001    1    3    3    0    0  0.48326110738E+01 -0.20175687722E+02  0.31135709586E+02  0.37427862833E+02  0.10000000000E+01 0.  1.
    1000022    2    1    0    0    0  0.15505331145E+02 -0.30523775062E+02  0.51323816225E+02  0.62499999685E+02  0.99999855373E+01 0.  0.
    3000022    2    3    3    0    0  0.10672720071E+02 -0.10348087340E+02  0.20188106640E+02  0.25072136852E+02  0.25006262931E+00 0.  0.
    1000022    2    1    0    0    0 -0.15505331145E+02  0.30523775062E+02 -0.51323816225E+02  0.62500000315E+02  0.99999894760E+01 0.  0.
    3000022    2    5    5    0    0 -0.13340383836E+02  0.20704764540E+02 -0.42318610592E+02  0.48965093852E+02  0.24999583481E+00 0.  0.
        -13    1    4    4    0    0  0.49408692951E+01 -0.47022612827E+01  0.92257168731E+01  0.11473810500E+02  0.10500000000E+00 0. -1.
         13    1    4    4    0    0  0.57318507760E+01 -0.56458260574E+01  0.10962389767E+02  0.13598326352E+02  0.10500000000E+00 0.  1.
    3000001    1    5    5    0    0 -0.21649473084E+01  0.98190105214E+01 -0.90052056335E+01  0.13534906463E+02  0.10000000000E+01 0. -1.
        -13    1    6    6    0    0 -0.60091258524E+01  0.94201949457E+01 -0.19111681023E+02  0.22138587192E+02  0.10500000000E+00 0.  1.
         13    1    6    6    0    0 -0.73312579840E+01  0.11284569595E+02 -0.23206929569E+02  0.26826506660E+02  0.10500000000E+00 0. -1.
</event>
<event>
11    0  0.3485800E-009  0.9118800E+02  0.7816531E-02  0.1126479E+00
         25   -1    0    0    0    0  0.00000000000E+00  0.00000000000E+00  0.99999998245E-14  0.12500000000E+03  0.12500000000E+03 0.  0.
    3000001    1    3    3    0    0  0.43368956187E+01 -0.18493803222E+01 -0.64159451466E-01  0.48200609559E+01  0.10000000000E+01 0.  1.
    1000022    2    1    0    0    0  0.61174702568E+02  0.77906859052E+01  0.17919890852E+01  0.62499996499E+02  0.99999658165E+01 0.  0.
    3000022    2    3    3    0    0  0.56837806949E+02  0.96400662275E+01  0.18561485366E+01  0.57679935543E+02  0.25000236194E+00 0.  0.
    1000022    2    1    0    0    0 -0.61174702568E+02 -0.77906859052E+01 -0.17919890852E+01  0.62500003501E+02  0.10000009584E+02 0.  0.
    3000022    2    5    5    0    0 -0.15237832004E+02 -0.53847997192E+01  0.22188446028E+01  0.16314820246E+02  0.24999214373E+00 0.  0.
        -13    1    4    4    0    0  0.27144180376E+02  0.45664246527E+01  0.94291715093E+00  0.27541947646E+02  0.10500000000E+00 0.  1.
         13    1    4    4    0    0  0.29693626573E+02  0.50736415747E+01  0.91323138570E+00  0.30137987897E+02  0.10500000000E+00 0. -1.
    3000001    1    5    5    0    0 -0.45936870563E+02 -0.24058861860E+01 -0.40108336880E+01  0.46185183256E+02  0.10000000000E+01 0. -1.
        -13    1    6    6    0    0 -0.57361359037E+01 -0.20370702873E+01  0.77556817262E+00  0.61372177288E+01  0.10500000000E+00 0. -1.
         13    1    6    6    0    0 -0.95016961008E+01 -0.33477294319E+01  0.14432764302E+01  0.10177602517E+02  0.10500000000E+00 0.  1.
</event>
<event>
11    0  0.3485800E-009  0.9118800E+02  0.7816531E-02  0.1126479E+00
         25   -1    0    0    0    0  0.00000000000E+00  0.00000000000E+00  0.99999998245E-14  0.12500000000E+03  0.12500000000E+03 0.  0.
    3000001    1    3    3    0    0 -0.32330868562E+02  0.28481150099E+02 -0.35078012249E+02  0.55569127366E+02  0.10000000000E+01 0.  1.
    1000022    2    1    0    0    0 -0.38592550601E+02  0.30131429215E+02 -0.37536144221E+02  0.62500000045E+02  0.99999947118E+01 0.  0.
    3000022    2    3    3    0    0 -0.62616820391E+01  0.16502791158E+01 -0.24581319719E+01  0.69308726786E+01  0.25000035287E+00 0.  0.
    1000022    2    1    0    0    0  0.38592550601E+02 -0.30131429215E+02  0.37536144221E+02  0.62499999955E+02  0.99999941504E+01 0.  0.
    3000022    2    5    5    0    0  0.57663185194E+01 -0.30630342009E+01  0.14304689436E+01  0.66888961448E+01  0.24996490517E+00 0.  0.
        -13    1    4    4    0    0 -0.30856918011E+01  0.83369114568E+00 -0.11439776640E+01  0.33965047790E+01  0.10500000000E+00 0.  1.
         13    1    4    4    0    0 -0.31759902380E+01  0.81658797013E+00 -0.13141543080E+01  0.35343678996E+01  0.10500000000E+00 0. -1.
    3000001    1    5    5    0    0  0.32826232082E+02 -0.27068395014E+02  0.36105675277E+02  0.55811103810E+02  0.10000000000E+01 0. -1.
        -13    1    6    6    0    0  0.28538754983E+01 -0.15145768648E+01  0.77721098342E+00  0.33247000394E+01  0.10500000000E+00 0. -1.
         13    1    6    6    0    0  0.29124430211E+01 -0.15484573362E+01  0.65325796014E+00  0.33641961054E+01  0.10500000000E+00 0.  1.
</event>
<event>
11    0  0.3485800E-009  0.9118800E+02  0.7816531E-02  0.1126479E+00
         25   -1    0    0    0    0  0.00000000000E+00  0.00000000000E+00  0.99999998245E-14  0.12500000000E+03  0.12500000000E+03 0.  0.
    3000001    1    3    3    0    0  0.17689593986E+02 -0.34066974144E+01  0.94827953359E+01  0.20382608519E+02  0.10000000000E+01 0. -1.
    1000022    2    1    0    0    0  0.58814921722E+02 -0.22506147234E+01  0.18492962246E+02  0.62500000499E+02  0.10000006297E+02 0.  0.
    3000022    2    3    3    0    0  0.41125327736E+02  0.11560826910E+01  0.90101669101E+01  0.42117391980E+02  0.24998171031E+00 0.  0.
    1000022    2    1    0    0    0 -0.58814921722E+02  0.22506147234E+01 -0.18492962246E+02  0.62499999501E+02  0.10000000063E+02 0.  0.
    3000022    2    5    5    0    0 -0.27466951150E+02 -0.12886859856E+01 -0.40703138899E+01  0.27797914635E+02  0.24997167723E+00 0.  0.
        -13    1    4    4    0    0  0.28094843276E+02  0.77656909839E+00  0.62045561070E+01  0.28782474177E+02  0.10500000000E+00 0. -1.
         13    1    4    4    0    0  0.13030484459E+02  0.37951359257E+00  0.28056108031E+01  0.13334917802E+02  0.10500000000E+00 0.  1.
    3000001    1    5    5    0    0 -0.31347970572E+02  0.35393007091E+01 -0.14422648356E+02  0.34702084867E+02  0.10000000000E+01 0.  1.
        -13    1    6    6    0    0 -0.15556465028E+02 -0.79450757733E+00 -0.22932708900E+01  0.15744998026E+02  0.10500000000E+00 0.  1.
         13    1    6    6    0    0 -0.11910486121E+02 -0.49417840829E+00 -0.17770429999E+01  0.12052916608E+02  0.10500000000E+00 0. -1.
</event>
<event>
11    0  0.3485800E-009  0.9118800E+02  0.7816531E-02  0.1126479E+00
         25   -1    0    0    0    0  0.00000000000E+00  0.00000000000E+00  0.99999998245E-14  0.12500000000E+03  0.12500000000E+03 0.  0.
    3000001    1    3    3    0    0  0.41981523939E+01  0.11047690832E+01  0.68665324928E+01  0.81850025488E+01  0.10000000000E+01 0.  1.
    1000022    2    1    0    0    0  0.16565010296E+02 -0.98482383859E+01  0.58607703201E+02  0.62499998581E+02  0.99999791346E+01 0.  0.
    3000022    2    3    3    0    0  0.12366857903E+02 -0.10953007469E+02  0.51741170708E+02  0.54314996032E+02  0.25000142799E+00 0.  0.
    1000022    2    1    0    0    0 -0.16565010296E+02  0.98482383859E+01 -0.58607703201E+02  0.62500001419E+02  0.99999968713E+01 0.  0.
    3000022    2    5    5    0    0 -0.14384738029E+02  0.10367124889E+02 -0.56650142840E+02  0.59360754227E+02  0.24998394092E+00 0.  0.
        -13    1    4    4    0    0  0.61251798546E+01 -0.54718010925E+01  0.25915056710E+02  0.27185651082E+02  0.10500000000E+00 0.  1.
         13    1    4    4    0    0  0.62416780479E+01 -0.54812063766E+01  0.25826113998E+02  0.27129344951E+02  0.10500000000E+00 0. -1.
    3000001    1    5    5    0    0 -0.21802722678E+01 -0.51888650304E+00 -0.19575603608E+01  0.31392471918E+01  0.10000000000E+01 0. -1.
        -13    1    6    6    0    0 -0.86174061797E+01  0.61847628956E+01 -0.34087440571E+02  0.35699798474E+02  0.10500000000E+00 0. -1.
         13    1    6    6    0    0 -0.57673318489E+01  0.41823619934E+01 -0.22562702269E+02  0.23660955754E+02  0.10500000000E+00 0.  1.
</event>
<event>
11    0  0.3485800E-009  0.9118800E+02  0.7816531E-02  0.1126479E+00
         25   -1    0    0    0    0  0.00000000000E+00  0.00000000000E+00  0.99999998245E-14  0.12500000000E+03  0.12500000000E+03 0.  0.
    3000001    1    3    3    0    0 -0.53916985055E+02 -0.27634693530E+01  0.27087389513E+02  0.60410303020E+02  0.10000000000E+01 0.  1.
    1000022    2    1    0    0    0 -0.55782588236E+02 -0.24336618896E+01  0.26241763089E+02  0.62499999884E+02  0.99999997471E+01 0.  0.
    3000022    2    3    3    0    0 -0.18656031809E+01  0.32980746336E+00 -0.84562642467E+00  0.20896968638E+01  0.25000148162E+00 0.  0.
    1000022    2    1    0    0    0  0.55782588236E+02  0.24336618896E+01 -0.26241763089E+02  0.62500000116E+02  0.10000001198E+02 0.  0.
    3000022    2    5    5    0    0  0.48976000514E+02 -0.76197229172E+00 -0.24252891264E+02  0.54657977075E+02  0.24999028360E+00 0.  0.
        -13    1    4    4    0    0 -0.68454789485E+00  0.15373003645E+00 -0.36964154131E+00  0.79993663094E+00  0.10500000000E+00 0.  1.
         13    1    4    4    0    0 -0.11810552861E+01  0.17607742691E+00 -0.47598488336E+00  0.12897602328E+01  0.10500000000E+00 0. -1.
    3000001    1    5    5    0    0  0.68065877226E+01  0.31956341813E+01 -0.19888718250E+01  0.78420230414E+01  0.10000000000E+01 0.  1.
        -13    1    6    6    0    0  0.29483444735E+02 -0.50440993056E+00 -0.14648600517E+02  0.32925984646E+02  0.10500000000E+00 0. -1.
         13    1    6    6    0    0  0.19492555779E+02 -0.25756236116E+00 -0.96042907469E+01  0.21731992429E+02  0.10500000000E+00 0.  1.
</event>
<event>
11    0  0.3485800E-009  0.9118800E+02  0.7816531E-02  0.1126479E+00
         25   -1    0    0    0    0  0.00000000000E+00  0.00000000000E+00  0.99999998245E-14  0.12500000000E+03  0.12500000000E+03 0.  0.
    3000001    1    3    3    0    0 -0.27523696947E+02  0.43434902704E+02 -0.27602801885E+02  0.58370020888E+02  0.10000000000E+01 0. -1.
    1000022    2    1    0    0    0 -0.30041051697E+02  0.46641150509E+02 -0.26988673875E+02  0.62500001307E+02  0.99999968982E+01 0.  0.
    3000022    2    3    3    0    0 -0.25173547500E+01  0.32062478051E+01  0.61412801069E+00  0.41299804189E+01  0.24997024150E+00 0.  0.
    1000022    2    1    0    0    0  0.30041051697E+02 -0.46641150509E+02  0.26988673875E+02  0.62499998693E+02  0.99999805619E+01 0.  0.
    3000022    2    5    5    0    0  0.24178593381E+01 -0.10994501444E+02  0.57119124467E+01  0.12625907999E+02  0.25000645030E+00 0.  0.
        -13    1    4    4    0    0 -0.12641145257E+01  0.16822566771E+01  0.26542786118E+00  0.21235465645E+01  0.10500000000E+00 0.  1.
         13    1    4    4    0    0 -0.12532402243E+01  0.15239911280E+01  0.34870014951E+00  0.20064338544E+01  0.10500000000E+00 0. -1.
    3000001    1    5    5    0    0  0.27623192359E+02 -0.35646649065E+02  0.21276761428E+02  0.49874090694E+02  0.10000000000E+01 0. -1.
        -13    1    6    6    0    0  0.88321724991E+00 -0.38509730672E+01  0.19554857640E+01  0.44096503091E+01  0.10500000000E+00 0.  1.
         13    1    6    6    0    0  0.15346420882E+01 -0.71435283769E+01  0.37564266827E+01  0.82162576902E+01  0.10500000000E+00 0. -1.
</event>
<event>
11    0  0.3485800E-009  0.9118800E+02  0.7816531E-02  0.1126479E+00
         25   -1    0    0    0    0  0.00000000000E+00  0.00000000000E+00  0.99999998245E-14  0.12500000000E+03  0.12500000000E+03 0.  0.
    3000001    1    3    3    0    0 -0.10245563754E+01  0.54317557817E+01 -0.81789506806E+01  0.99221429577E+01  0.10000000000E+01 0.  1.
    1000022    2    1    0    0    0 -0.30395307852E+01  0.49931176832E+02 -0.36109401484E+02  0.62500001188E+02  0.10000005288E+02 0.  0.
    3000022    2    3    3    0    0 -0.20149744099E+01  0.44499421050E+02 -0.27930450804E+02  0.52577858230E+02  0.24999664650E+00 0.  0.
    1000022    2    1    0    0    0  0.30395307852E+01 -0.49931176832E+02  0.36109401484E+02  0.62499998812E+02  0.99999904368E+01 0.  0.
    3000022    2    5    5    0    0 -0.19886713442E+01 -0.31452746445E+02  0.19001771079E+02  0.36801628741E+02  0.25000241371E+00 0.  0.
        -13    1    4    4    0    0 -0.12783918864E+01  0.27961862240E+02 -0.17481718800E+02  0.33001841508E+02  0.10500000000E+00 0.  1.
         13    1    4    4    0    0 -0.73658252347E+00  0.16537558810E+02 -0.10448732004E+02  0.19576016722E+02  0.10500000000E+00 0. -1.
    3000001    1    5    5    0    0  0.50282021295E+01 -0.18478430387E+02  0.17107630406E+02  0.25698370071E+02  0.10000000000E+01 0. -1.
        -13    1    6    6    0    0 -0.91088373088E+00 -0.14111398155E+02  0.84513218184E+01  0.16474135259E+02  0.10500000000E+00 0. -1.
         13    1    6    6    0    0 -0.10777876133E+01 -0.17341348290E+02  0.10550449260E+02  0.20327493482E+02  0.10500000000E+00 0.  1.
</event>
<event>
11    0  0.3485800E-009  0.9118800E+02  0.7816531E-02  0.1126479E+00
         25   -1    0    0    0    0  0.00000000000E+00  0.00000000000E+00  0.99999998245E-14  0.12500000000E+03  0.12500000000E+03 0.  0.
    3000001    1    3    3    0    0 -0.22481231273E+02  0.35326785382E+02  0.80170369592E+01  0.42645754849E+02  0.10000000000E+01 0.  1.
    1000022    2    1    0    0    0 -0.35651513705E+02  0.47620321308E+02  0.16356174946E+02  0.62500000944E+02  0.10000011412E+02 0.  0.
    3000022    2    3    3    0    0 -0.13170282431E+02  0.12293535926E+02  0.83391379866E+01  0.19854246096E+02  0.25000155480E+00 0.  0.
    1000022    2    1    0    0    0  0.35651513705E+02 -0.47620321308E+02 -0.16356174946E+02  0.62499999056E+02  0.99999996079E+01 0.  0.
    3000022    2    5    5    0    0  0.28178590717E+02 -0.34056269777E+02 -0.81606034210E+01  0.44950199497E+02  0.25000146217E+00 0.  0.
        -13    1    4    4    0    0 -0.89779947772E+01  0.84452467624E+01  0.57215611007E+01  0.13589476426E+02  0.10500000000E+00 0.  1.
         13    1    4    4    0    0 -0.41922876541E+01  0.38482891637E+01  0.26175768859E+01  0.62647696698E+01  0.10500000000E+00 0. -1.
    3000001    1    5    5    0    0  0.74729229882E+01 -0.13564051532E+02 -0.81955715248E+01  0.17549799559E+02  0.10000000000E+01 0.  1.
        -13    1    6    6    0    0  0.18452686307E+02 -0.22361087911E+02 -0.53110971820E+01  0.29474372984E+02  0.10500000000E+00 0. -1.
         13    1    6    6    0    0  0.97259044098E+01 -0.11695181866E+02 -0.28495062390E+01  0.15475826513E+02  0.10500000000E+00 0.  1.
</event>
<event>
11    0  0.3485800E-009  0.9118800E+02  0.7816531E-02  0.1126479E+00
         25   -1    0    0    0    0  0.00000000000E+00  0.00000000000E+00  0.99999998245E-14  0.12500000000E+03  0.12500000000E+03 0.  0.
    3000001    1    3    3    0    0  0.85560270578E+01 -0.54771724281E+02  0.61806092767E+01  0.55788415561E+02  0.10000000000E+01 0.  1.
    1000022    2    1    0    0    0  0.65935379106E+01 -0.61116702328E+02  0.52463620328E+01  0.62500004404E+02  0.10000009512E+02 0.  0.
    3000022    2    3    3    0    0 -0.19624891472E+01 -0.63449780472E+01 -0.93424724388E+00  0.67115888432E+01  0.24999363113E+00 0.  0.
    1000022    2    1    0    0    0 -0.65935379106E+01  0.61116702328E+02 -0.52463620328E+01  0.62499995596E+02  0.99999544653E+01 0.  0.
    3000022    2    5    5    0    0 -0.67705826811E+01  0.58647306949E+02 -0.67725093769E+01  0.59424546994E+02  0.24999993828E+00 0.  0.
        -13    1    4    4    0    0 -0.11469529905E+01 -0.38193943773E+01 -0.61511139771E+00  0.40364169263E+01  0.10500000000E+00 0.  1.
         13    1    4    4    0    0 -0.81553615672E+00 -0.25255836699E+01 -0.31913584617E+00  0.26751719169E+01  0.10500000000E+00 0. -1.
    3000001    1    5    5    0    0  0.17704477048E+00  0.24693953791E+01  0.15261473441E+01  0.30754486022E+01  0.10000000000E+01 0.  1.
        -13    1    6    6    0    0 -0.29316614365E+01  0.24992508206E+02 -0.28401891850E+01  0.25323858411E+02  0.10500000000E+00 0.  1.
         13    1    6    6    0    0 -0.38389212446E+01  0.33654798743E+02 -0.39323201920E+01  0.34100688584E+02  0.10500000000E+00 0. -1.
</event>
<event>
11    0  0.3485800E-009  0.9118800E+02  0.7816531E-02  0.1126479E+00
         25   -1    0    0    0    0  0.00000000000E+00  0.00000000000E+00  0.99999998245E-14  0.12500000000E+03  0.12500000000E+03 0.  0.
    3000001    1    3    3    0    0 -0.39726854415E+01  0.86875508942E+01  0.90161315116E+01  0.13173700983E+02  0.10000000000E+01 0.  1.
    1000022    2    1    0    0    0 -0.18988772429E+02  0.25320903582E+02  0.52957797564E+02  0.62500000316E+02  0.10000004008E+02 0.  0.
    3000022    2    3    3    0    0 -0.15016086987E+02  0.16633352688E+02  0.43941666052E+02  0.49326299333E+02  0.25000083190E+00 0.  0.
    1000022    2    1    0    0    0  0.18988772429E+02 -0.25320903582E+02 -0.52957797564E+02  0.62499999684E+02  0.10000000054E+02 0.  0.
    3000022    2    5    5    0    0  0.15752906979E+02 -0.23780212150E+02 -0.50624387539E+02  0.58108034561E+02  0.24999723782E+00 0.  0.
        -13    1    4    4    0    0 -0.63216128641E+01  0.70616310664E+01  0.18472053720E+02  0.20761917449E+02  0.10500000000E+00 0. -1.
         13    1    4    4    0    0 -0.86944741232E+01  0.95717216217E+01  0.25469612332E+02  0.28564381885E+02  0.10500000000E+00 0.  1.
    3000001    1    5    5    0    0  0.32358654494E+01 -0.15406914326E+01 -0.23334100247E+01  0.43919651229E+01  0.10000000000E+01 0.  1.
        -13    1    6    6    0    0  0.93855010623E+01 -0.14098663996E+02 -0.30162048216E+02  0.34592197592E+02  0.10500000000E+00 0.  1.
         13    1    6    6    0    0  0.63674059170E+01 -0.96815481538E+01 -0.20462339323E+02  0.23515836968E+02  0.10500000000E+00 0. -1.
</event>
<event>
11    0  0.3485800E-009  0.9118800E+02  0.7816531E-02  0.1126479E+00
         25   -1    0    0    0    0  0.00000000000E+00  0.00000000000E+00  0.99999998245E-14  0.12500000000E+03  0.12500000000E+03 0.  0.
    3000001    1    3    3    0    0  0.10970210021E+02 -0.49397469837E+02 -0.59130617377E+01  0.50955076620E+02  0.10000000000E+01 0. -1.
    1000022    2    1    0    0    0  0.17559894252E+02 -0.58545684092E+02 -0.83847013476E+01  0.62500000617E+02  0.99999924210E+01 0.  0.
    3000022    2    3    3    0    0  0.65896842311E+01 -0.91482142555E+01 -0.24716396099E+01  0.11544923997E+02  0.25001082118E+00 0.  0.
    1000022    2    1    0    0    0 -0.17559894252E+02  0.58545684092E+02  0.83847013476E+01  0.62499999383E+02  0.99999847100E+01 0.  0.
    3000022    2    5    5    0    0 -0.13927837384E+02  0.54442809378E+02  0.89360930847E+01  0.56902727649E+02  0.25001431274E+00 0.  0.
        -13    1    4    4    0    0  0.40936273534E+01 -0.57819048664E+01 -0.15372380093E+01  0.72499885855E+01  0.10500000000E+00 0.  1.
         13    1    4    4    0    0  0.24960568776E+01 -0.33663093891E+01 -0.93440160062E+00  0.42949354117E+01  0.10500000000E+00 0. -1.
    3000001    1    5    5    0    0 -0.36320568677E+01  0.41028747146E+01 -0.55139173706E+00  0.55972717337E+01  0.10000000000E+01 0. -1.
        -13    1    6    6    0    0 -0.32031373731E+01  0.12500178821E+02  0.20545437338E+01  0.13067009395E+02  0.10500000000E+00 0.  1.
         13    1    6    6    0    0 -0.10724700011E+02  0.41942630557E+02  0.68815493509E+01  0.43835718254E+02  0.10500000000E+00 0. -1.
</event>
<event>
11    0  0.3485800E-009  0.9118800E+02  0.7816531E-02  0.1126479E+00
         25   -1    0    0    0    0  0.00000000000E+00  0.00000000000E+00  0.99999998245E-14  0.12500000000E+03  0.12500000000E+03 0.  0.
    3000001    1    3    3    0    0  0.74548900916E+01  0.61042692010E+01  0.80930012712E+01  0.12622763498E+02  0.10000000000E+01 0.  1.
    1000022    2    1    0    0    0  0.22085352607E+02  0.42622063637E+02  0.38753668789E+02  0.62500000568E+02  0.10000005896E+02 0.  0.
    3000022    2    3    3    0    0  0.14630462516E+02  0.36517794436E+02  0.30660667518E+02  0.49877237070E+02  0.25000236802E+00 0.  0.
    1000022    2    1    0    0    0 -0.22085352607E+02 -0.42622063637E+02 -0.38753668789E+02  0.62499999432E+02  0.99999987914E+01 0.  0.
    3000022    2    5    5    0    0 -0.10481679860E+02 -0.10384415752E+02 -0.11836979156E+02  0.18917671095E+02  0.25000187312E+00 0.  0.
        -13    1    4    4    0    0  0.86595298291E+01  0.21578106643E+02  0.18042069007E+02  0.29430076830E+02  0.10500000000E+00 0.  1.
         13    1    4    4    0    0  0.59709326868E+01  0.14939687793E+02  0.12618598511E+02  0.20447160240E+02  0.10500000000E+00 0. -1.
    3000001    1    5    5    0    0 -0.11603672748E+02 -0.32237647885E+02 -0.26916689633E+02  0.43582328336E+02  0.10000000000E+01 0.  1.
        -13    1    6    6    0    0 -0.36877454018E+01 -0.37271727273E+01 -0.42368648076E+01  0.67419085640E+01  0.10500000000E+00 0. -1.
         13    1    6    6    0    0 -0.67939344580E+01 -0.66572430252E+01 -0.76001143484E+01  0.12175762532E+02  0.10500000000E+00 0.  1.
</event>
<event>
11    0  0.3485800E-009  0.9118800E+02  0.7816531E-02  0.1126479E+00
         25   -1    0    0    0    0  0.00000000000E+00  0.00000000000E+00  0.99999998245E-14  0.12500000000E+03  0.12500000000E+03 0.  0.
    3000001    1    3    3    0    0 -0.31477426949E+01  0.26812964291E+01 -0.79455989890E+00  0.43276968525E+01  0.10000000000E+01 0. -1.
    1000022    2    1    0    0    0 -0.56041638400E+02  0.91111128006E+01 -0.24136534681E+02  0.62500001511E+02  0.10000013573E+02 0.  0.
    3000022    2    3    3    0    0 -0.52893895705E+02  0.64298163715E+01 -0.23341974782E+02  0.58172304659E+02  0.25000225665E+00 0.  0.
    1000022    2    1    0    0    0  0.56041638400E+02 -0.91111128006E+01  0.24136534681E+02  0.62499998489E+02  0.99999946853E+01 0.  0.
    3000022    2    5    5    0    0  0.24376421937E+02 -0.63411012890E+01  0.15385684823E+02  0.29516119539E+02  0.25000620002E+00 0.  0.
        -13    1    4    4    0    0 -0.34722855834E+02  0.41766139220E+01 -0.15357513759E+02  0.38196663139E+02  0.10500000000E+00 0.  1.
         13    1    4    4    0    0 -0.18171039871E+02  0.22532024495E+01 -0.79844610232E+01  0.19975641519E+02  0.10500000000E+00 0. -1.
    3000001    1    5    5    0    0  0.31665216462E+02 -0.27700115117E+01  0.87508498579E+01  0.32983878950E+02  0.10000000000E+01 0. -1.
        -13    1    6    6    0    0  0.10020451515E+02 -0.25994387608E+01  0.62490052165E+01  0.12092461356E+02  0.10500000000E+00 0. -1.
         13    1    6    6    0    0  0.14355970422E+02 -0.37416625282E+01  0.91366796070E+01  0.17423658183E+02  0.10500000000E+00 0.  1.
</event>
<event>
11    0  0.3485800E-009  0.9118800E+02  0.7816531E-02  0.1126479E+00
         25   -1    0    0    0    0  0.00000000000E+00  0.00000000000E+00  0.99999998245E-14  0.12500000000E+03  0.12500000000E+03 0.  0.
    3000001    1    3    3    0    0 -0.31467733910E+02 -0.15145940173E+02  0.12909995148E+02  0.37246285129E+02  0.10000000000E+01 0. -1.
    1000022    2    1    0    0    0 -0.48684766668E+02 -0.32238078084E+02  0.19918582041E+02  0.62500001402E+02  0.10000004037E+02 0.  0.
    3000022    2    3    3    0    0 -0.17217032757E+02 -0.17092137911E+02  0.70085868927E+01  0.25253716274E+02  0.25000012104E+00 0.  0.
    1000022    2    1    0    0    0  0.48684766668E+02  0.32238078084E+02 -0.19918582041E+02  0.62499998598E+02  0.99999865106E+01 0.  0.
    3000022    2    5    5    0    0  0.33782388742E+02  0.26308635717E+02 -0.11392971565E+02  0.44308649319E+02  0.25000189540E+00 0.  0.
        -13    1    4    4    0    0 -0.77445479531E+01 -0.76076157747E+01  0.31010019512E+01  0.11290751918E+02  0.10500000000E+00 0.  1.
         13    1    4    4    0    0 -0.94724848043E+01 -0.94845221360E+01  0.39075849415E+01  0.13962964355E+02  0.10500000000E+00 0. -1.
    3000001    1    5    5    0    0  0.14902377926E+02  0.59294423665E+01 -0.85256104755E+01  0.18191349279E+02  0.10000000000E+01 0.  1.
        -13    1    6    6    0    0  0.99277190170E+01  0.76761514513E+01 -0.33339494735E+01  0.12984958609E+02  0.10500000000E+00 0. -1.
         13    1    6    6    0    0  0.23854669725E+02  0.18632484266E+02 -0.80590220915E+01  0.31323690710E+02  0.10500000000E+00 0.  1.
</event>
<event>
11    0  0.3485800E-009  0.9118800E+02  0.7816531E-02  0.1126479E+00
         25   -1    0    0    0    0  0.00000000000E+00  0.00000000000E+00  0.99999998245E-14  0.12500000000E+03  0.12500000000E+03 0.  0.
    3000001    1    3    3    0    0  0.92439398929E+01 -0.16939709735E+02 -0.26576257934E+02  0.32858814288E+02  0.10000000000E+01 0.  1.
    1000022    2    1    0    0    0  0.12540804955E+02 -0.25496718076E+02 -0.54762172335E+02  0.62500001524E+02  0.10000012506E+02 0.  0.
    3000022    2    3    3    0    0  0.32968650622E+01 -0.85570083411E+01 -0.28185914401E+02  0.29641187236E+02  0.24999831843E+00 0.  0.
    1000022    2    1    0    0    0 -0.12540804955E+02  0.25496718076E+02  0.54762172335E+02  0.62499998476E+02  0.99999934562E+01 0.  0.
    3000022    2    5    5    0    0 -0.35686952027E+01  0.17324583755E+02  0.28360053854E+02  0.33425019662E+02  0.24999414762E+00 0.  0.
        -13    1    4    4    0    0  0.20960775425E+01 -0.55260420048E+01 -0.18319255170E+02  0.19249332879E+02  0.10500000000E+00 0.  1.
         13    1    4    4    0    0  0.12007875197E+01 -0.30309663363E+01 -0.98666592306E+01  0.10391854357E+02  0.10500000000E+00 0. -1.
    3000001    1    5    5    0    0 -0.89721097524E+01  0.81721343214E+01  0.26402118481E+02  0.29074978814E+02  0.10000000000E+01 0.  1.
        -13    1    6    6    0    0 -0.17641504505E+01  0.86226595586E+01  0.14237456049E+02  0.16738538300E+02  0.10500000000E+00 0. -1.
         13    1    6    6    0    0 -0.18045447522E+01  0.87019241963E+01  0.14122597805E+02  0.16686481362E+02  0.10500000000E+00 0.  1.
</event>
<event>
11    0  0.3485800E-009  0.9118800E+02  0.7816531E-02  0.1126479E+00
         25   -1    0    0    0    0  0.00000000000E+00  0.00000000000E+00  0.99999998245E-14  0.12500000000E+03  0.12500000000E+03 0.  0.
    3000001    1    3    3    0    0 -0.82748099169E+01  0.13926623157E+02 -0.62571599519E+01  0.17394693512E+02  0.10000000000E+01 0. -1.
    1000022    2    1    0    0    0 -0.14773266881E+02  0.54961774718E+02 -0.23816017514E+02  0.62500010100E+02  0.10000123885E+02 0.  0.
    3000022    2    3    3    0    0 -0.64984569645E+01  0.41035151561E+02 -0.17558857562E+02  0.45105316587E+02  0.24999800967E+00 0.  0.
    1000022    2    1    0    0    0  0.14773266881E+02 -0.54961774718E+02  0.23816017514E+02  0.62499989900E+02  0.99999976376E+01 0.  0.
    3000022    2    5    5    0    0  0.56117265678E+01 -0.38238430119E+02  0.14826605441E+02  0.41395165690E+02  0.25000120036E+00 0.  0.
        -13    1    4    4    0    0 -0.14947944061E+01  0.94249262080E+01 -0.40274477989E+01  0.10358330228E+02  0.10500000000E+00 0. -1.
         13    1    4    4    0    0 -0.50036625584E+01  0.31610225353E+02 -0.13531409763E+02  0.34746986359E+02  0.10500000000E+00 0.  1.
    3000001    1    5    5    0    0  0.91615403137E+01 -0.16723344600E+02  0.89894120727E+01  0.21104824210E+02  0.10000000000E+01 0.  1.
        -13    1    6    6    0    0  0.31292703252E+01 -0.20869216616E+02  0.81076445245E+01  0.22606668478E+02  0.10500000000E+00 0. -1.
         13    1    6    6    0    0  0.24824562426E+01 -0.17369213503E+02  0.67189609167E+01  0.18788497212E+02  0.10500000000E+00 0.  1.
</event>
<event>
11    0  0.3485800E-009  0.9118800E+02  0.7816531E-02  0.1126479E+00
         25   -1    0    0    0    0  0.00000000000E+00  0.00000000000E+00  0.99999998245E-14  0.12500000000E+03  0.12500000000E+03 0.  0.
    3000001    1    3    3    0    0  0.17619239273E+02 -0.10912614506E+02  0.11066953262E+02  0.23515956336E+02  0.10000000000E+01 0.  1.
    1000022    2    1    0    0    0  0.37094062381E+02 -0.35849041683E+02  0.33839721004E+02  0.62499999381E+02  0.99999975753E+01 0.  0.
    3000022    2    3    3    0    0  0.19474823109E+02 -0.24936427177E+02  0.22772767742E+02  0.38984043045E+02  0.25005209484E+00 0.  0.
    1000022    2    1    0    0    0 -0.37094062381E+02  0.35849041683E+02 -0.33839721004E+02  0.62500000619E+02  0.10000005307E+02 0.  0.
    3000022    2    5    5    0    0 -0.12158965812E+02  0.17992559607E+02 -0.11765689044E+02  0.24699526017E+02  0.24999199894E+00 0.  0.
        -13    1    4    4    0    0  0.14049068436E+02 -0.17924509213E+02  0.16394779701E+02  0.28061792189E+02  0.10500000000E+00 0. -1.
         13    1    4    4    0    0  0.54257546730E+01 -0.70119179645E+01  0.63779880409E+01  0.10922250856E+02  0.10500000000E+00 0.  1.
    3000001    1    5    5    0    0 -0.24935096570E+02  0.17856482076E+02 -0.22074031960E+02  0.37800474601E+02  0.10000000000E+01 0. -1.
        -13    1    6    6    0    0 -0.50522539549E+01  0.75418509644E+01 -0.48579513978E+01  0.10296382995E+02  0.10500000000E+00 0. -1.
         13    1    6    6    0    0 -0.71067118568E+01  0.10450708642E+02 -0.69077376460E+01  0.14403143023E+02  0.10500000000E+00 0.  1.
</event>
<event>
11    0  0.3485800E-009  0.9118800E+02  0.7816531E-02  0.1126479E+00
         25   -1    0    0    0    0  0.00000000000E+00  0.00000000000E+00  0.99999998245E-14  0.12500000000E+03  0.12500000000E+03 0.  0.
    3000001    1    3    3    0    0 -0.11715810990E+02  0.26748819071E+02  0.13302874765E+02  0.32104922143E+02  0.10000000000E+01 0. -1.
    1000022    2    1    0    0    0 -0.31090147933E+02  0.47981419801E+02  0.23182662747E+02  0.62500003853E+02  0.10000034246E+02 0.  0.
    3000022    2    3    3    0    0 -0.19374336943E+02  0.21232600731E+02  0.98797879824E+01  0.30395081710E+02  0.25003155904E+00 0.  0.
    1000022    2    1    0    0    0  0.31090147933E+02 -0.47981419801E+02 -0.23182662747E+02  0.62499996147E+02  0.99999860824E+01 0.  0.
    3000022    2    5    5    0    0  0.18508251001E+02 -0.21376702930E+02 -0.80939389211E+01  0.29412465612E+02  0.25000565109E+00 0.  0.
        -13    1    4    4    0    0 -0.12313726621E+02  0.13520906997E+02  0.63450102066E+01  0.19357504200E+02  0.10500000000E+00 0. -1.
         13    1    4    4    0    0 -0.70606103228E+01  0.77116937333E+01  0.35347777759E+01  0.11037577510E+02  0.10500000000E+00 0.  1.
    3000001    1    5    5    0    0  0.12581896932E+02 -0.26604716872E+02 -0.15088723826E+02  0.33087530535E+02  0.10000000000E+01 0.  1.
        -13    1    6    6    0    0  0.83801008892E+01 -0.96048061786E+01 -0.36010912142E+01  0.13246028672E+02  0.10500000000E+00 0. -1.
         13    1    6    6    0    0  0.10128150112E+02 -0.11771896751E+02 -0.44928477069E+01  0.16166436940E+02  0.10500000000E+00 0.  1.
</event>
<event>
11    0  0.3485800E-009  0.9118800E+02  0.7816531E-02  0.1126479E+00
         25   -1    0    0    0    0  0.00000000000E+00  0.00000000000E+00  0.99999998245E-14  0.12500000000E+03  0.12500000000E+03 0.  0.
    3000001    1    3    3    0    0 -0.74955230618E+01 -0.62675362376E+01  0.15841397432E+02  0.18639065134E+02  0.10000000000E+01 0.  1.
    1000022    2    1    0    0    0 -0.34281514810E+02 -0.93397553573E+01  0.50436066643E+02  0.62499999041E+02  0.99999886911E+01 0.  0.
    3000022    2    3    3    0    0 -0.26785991748E+02 -0.30722191197E+01  0.34594669211E+02  0.43860933907E+02  0.25000218104E+00 0.  0.
    1000022    2    1    0    0    0  0.34281514810E+02  0.93397553573E+01 -0.50436066643E+02  0.62500000959E+02  0.10000000684E+02 0.  0.
    3000022    2    5    5    0    0  0.22273652359E+01 -0.17945250033E+01 -0.52333158299E+01  0.59692183259E+01  0.24999393043E+00 0.  0.
        -13    1    4    4    0    0 -0.16458140669E+02 -0.19372032415E+01  0.21322856832E+02  0.27005525345E+02  0.10500000000E+00 0.  1.
         13    1    4    4    0    0 -0.10327851079E+02 -0.11350158783E+01  0.13271812379E+02  0.16855408561E+02  0.10500000000E+00 0. -1.
    3000001    1    5    5    0    0  0.32054149574E+02  0.11134280361E+02 -0.45202750813E+02  0.56530782634E+02  0.10000000000E+01 0. -1.
        -13    1    6    6    0    0  0.13219846154E+01 -0.10038017062E+01 -0.31237451240E+01  0.35389362510E+01  0.10500000000E+00 0. -1.
         13    1    6    6    0    0  0.90538062044E+00 -0.79072329705E+00 -0.21095707060E+01  0.24302820749E+01  0.10500000000E+00 0.  1.
</event>
<event>
11    0  0.3485800E-009  0.9118800E+02  0.7816531E-02  0.1126479E+00
         25   -1    0    0    0    0  0.00000000000E+00  0.00000000000E+00  0.99999998245E-14  0.12500000000E+03  0.12500000000E+03 0.  0.
    3000001    1    3    3    0    0 -0.31846748648E+02 -0.74010838092E+01 -0.15561611713E+02  0.36223682862E+02  0.10000000000E+01 0. -1.
    1000022    2    1    0    0    0 -0.54942398927E+02 -0.43779815280E+01 -0.27720316717E+02  0.62499999443E+02  0.10000002467E+02 0.  0.
    3000022    2    3    3    0    0 -0.23095650280E+02  0.30231022813E+01 -0.12158705004E+02  0.26276316581E+02  0.24999289201E+00 0.  0.
    1000022    2    1    0    0    0  0.54942398927E+02  0.43779815280E+01  0.27720316717E+02  0.62500000557E+02  0.10000009432E+02 0.  0.
    3000022    2    5    5    0    0  0.42803014163E+02  0.26915125012E+01  0.25810611203E+02  0.50055892900E+02  0.25000471408E+00 0.  0.
        -13    1    4    4    0    0 -0.13021569814E+02  0.17709094486E+01 -0.68592031654E+01  0.14824206345E+02  0.10500000000E+00 0.  1.
         13    1    4    4    0    0 -0.10074080466E+02  0.12521928327E+01 -0.52995018385E+01  0.11452110236E+02  0.10500000000E+00 0. -1.
    3000001    1    5    5    0    0  0.12139384764E+02  0.16864690267E+01  0.19097055133E+01  0.12444107657E+02  0.10000000000E+01 0.  1.
        -13    1    6    6    0    0  0.26113407518E+02  0.16729469673E+01  0.15810454916E+02  0.30572705366E+02  0.10500000000E+00 0.  1.
         13    1    6    6    0    0  0.16689606645E+02  0.10185655339E+01  0.10000156287E+02  0.19483187534E+02  0.10500000000E+00 0. -1.
</event>
<event>
11    0  0.3485800E-009  0.9118800E+02  0.7816531E-02  0.1126479E+00
         25   -1    0    0    0    0  0.00000000000E+00  0.00000000000E+00  0.99999998245E-14  0.12500000000E+03  0.12500000000E+03 0.  0.
    3000001    1    3    3    0    0  0.53350444239E+02  0.30074237454E+02 -0.13333421416E+01  0.61265875168E+02  0.10000000000E+01 0. -1.
    1000022    2    1    0    0    0  0.53988831176E+02  0.29767567458E+02 -0.23126140728E+01  0.62499998028E+02  0.99999802786E+01 0.  0.
    3000022    2    3    3    0    0  0.63838693743E+00 -0.30666999638E+00 -0.97927193124E+00  0.12341228597E+01  0.25000269772E+00 0.  0.
    1000022    2    1    0    0    0 -0.53988831176E+02 -0.29767567458E+02  0.23126140728E+01  0.62500001972E+02  0.10000004927E+02 0.  0.
    3000022    2    5    5    0    0 -0.37437730252E+01 -0.36279584203E+01  0.26475469751E+01  0.58523435097E+01  0.25000161314E+00 0.  0.
        -13    1    4    4    0    0  0.25759373797E+00 -0.12435507448E+00 -0.51098137604E+00  0.59493334505E+00  0.10500000000E+00 0. -1.
         13    1    4    4    0    0  0.38079319946E+00 -0.18231492190E+00 -0.46829055520E+00  0.63918951461E+00  0.10500000000E+00 0.  1.
    3000001    1    5    5    0    0 -0.50245058151E+02 -0.26139609037E+02 -0.33493290233E+00  0.56647658462E+02  0.10000000000E+01 0. -1.
        -13    1    6    6    0    0 -0.26391673429E+01 -0.25992842672E+01  0.18455376677E+01  0.41398692308E+01  0.10500000000E+00 0. -1.
         13    1    6    6    0    0 -0.11046056823E+01 -0.10286741531E+01  0.80200930739E+00  0.17124742789E+01  0.10500000000E+00 0.  1.
</event>
<event>
11    0  0.3485800E-009  0.9118800E+02  0.7816531E-02  0.1126479E+00
         25   -1    0    0    0    0  0.00000000000E+00  0.00000000000E+00  0.99999998245E-14  0.12500000000E+03  0.12500000000E+03 0.  0.
    3000001    1    3    3    0    0  0.94552262678E+01 -0.50026753717E+02  0.28083900922E+02  0.58153098647E+02  0.10000000000E+01 0. -1.
    1000022    2    1    0    0    0  0.97630339784E+01 -0.51821325362E+02  0.32023164565E+02  0.62499997714E+02  0.10000002539E+02 0.  0.
    3000022    2    3    3    0    0  0.30780771057E+00 -0.17945716445E+01  0.39392636432E+01  0.43468990671E+01  0.25000094947E+00 0.  0.
    1000022    2    1    0    0    0 -0.97630339784E+01  0.51821325362E+02 -0.32023164565E+02  0.62500002286E+02  0.10000031112E+02 0.  0.
    3000022    2    5    5    0    0 -0.47617900873E+01  0.44399489504E+02 -0.27150844893E+02  0.52261077198E+02  0.24999698126E+00 0.  0.
        -13    1    4    4    0    0  0.23936324233E+00 -0.10081009103E+01  0.22446246403E+01  0.24744548860E+01  0.10500000000E+00 0. -1.
         13    1    4    4    0    0  0.68444468245E-01 -0.78647073427E+00  0.16946390029E+01  0.18724441811E+01  0.10500000000E+00 0.  1.
    3000001    1    5    5    0    0 -0.50012438911E+01  0.74218358584E+01 -0.48723196719E+01  0.10238925088E+02  0.10000000000E+01 0.  1.
        -13    1    6    6    0    0 -0.22765716874E+01  0.21659957321E+02 -0.13300368316E+02  0.25519548431E+02  0.10500000000E+00 0.  1.
         13    1    6    6    0    0 -0.24852183999E+01  0.22739532182E+02 -0.13850476577E+02  0.26741528767E+02  0.10500000000E+00 0. -1.
</event>
<event>
11    0  0.3485800E-009  0.9118800E+02  0.7816531E-02  0.1126479E+00
         25   -1    0    0    0    0  0.00000000000E+00  0.00000000000E+00  0.99999998245E-14  0.12500000000E+03  0.12500000000E+03 0.  0.
    3000001    1    3    3    0    0 -0.88177525718E+01 -0.32626271139E+02  0.37508882740E+02  0.50498936753E+02  0.10000000000E+01 0.  1.
    1000022    2    1    0    0    0 -0.14423200429E+02 -0.37125183283E+02  0.47116263735E+02  0.62500000341E+02  0.99999894914E+01 0.  0.
    3000022    2    3    3    0    0 -0.56054478571E+01 -0.44989121442E+01  0.96073809951E+01  0.12001063587E+02  0.25000295520E+00 0.  0.
    1000022    2    1    0    0    0  0.14423200429E+02  0.37125183283E+02 -0.47116263735E+02  0.62499999659E+02  0.99999852344E+01 0.  0.
    3000022    2    5    5    0    0  0.11649531060E+02  0.29333163347E+02 -0.30396673833E+02  0.43819702474E+02  0.24999785101E+00 0.  0.
        -13    1    4    4    0    0 -0.40656850269E+01 -0.33093174950E+01  0.70114434479E+01  0.87551551240E+01  0.10500000000E+00 0.  1.
         13    1    4    4    0    0 -0.15397628302E+01 -0.11895946492E+01  0.25959375472E+01  0.32459084632E+01  0.10500000000E+00 0. -1.
    3000001    1    5    5    0    0  0.27736693687E+01  0.77920199357E+01 -0.16719589902E+02  0.18680297186E+02  0.10000000000E+01 0.  1.
        -13    1    6    6    0    0  0.67769971943E+01  0.16929129173E+02 -0.17619653279E+02  0.25357174767E+02  0.10500000000E+00 0.  1.
         13    1    6    6    0    0  0.48725338659E+01  0.12404034174E+02 -0.12777020554E+02  0.18462527707E+02  0.10500000000E+00 0. -1.
</event>
<event>
11    0  0.3485800E-009  0.9118800E+02  0.7816531E-02  0.1126479E+00
         25   -1    0    0    0    0  0.00000000000E+00  0.00000000000E+00  0.99999998245E-14  0.12500000000E+03  0.12500000000E+03 0.  0.
    3000001    1    3    3    0    0  0.28257892282E+02 -0.45989079924E+01  0.15317493168E+02  0.32485135491E+02  0.10000000000E+01 0. -1.
    1000022    2    1    0    0    0  0.57558856185E+02 -0.85062719657E+01  0.20515143540E+02  0.62499999318E+02  0.10000010616E+02 0.  0.
    3000022    2    3    3    0    0  0.29300963903E+02 -0.39073639733E+01  0.51976503722E+01  0.30014863827E+02  0.25000466906E+00 0.  0.
    1000022    2    1    0    0    0 -0.57558856185E+02  0.85062719657E+01 -0.20515143540E+02  0.62500000682E+02  0.10000019135E+02 0.  0.
    3000022    2    5    5    0    0 -0.11295913645E+02  0.50971802251E+01 -0.66878490571E+01  0.14084343797E+02  0.25000767887E+00 0.  0.
        -13    1    4    4    0    0  0.15721708843E+02 -0.21079367368E+01  0.28563659283E+01  0.16117858963E+02  0.10500000000E+00 0. -1.
         13    1    4    4    0    0  0.13579255059E+02 -0.17994272364E+01  0.23412844439E+01  0.13897004864E+02  0.10500000000E+00 0.  1.
    3000001    1    5    5    0    0 -0.46262942539E+02  0.34090917406E+01 -0.13827294483E+02  0.48415656885E+02  0.10000000000E+01 0. -1.
        -13    1    6    6    0    0 -0.50546997180E+01  0.23529636594E+01 -0.29959647446E+01  0.63303441432E+01  0.10500000000E+00 0. -1.
         13    1    6    6    0    0 -0.62412139273E+01  0.27442165657E+01 -0.36918843125E+01  0.77539996533E+01  0.10500000000E+00 0.  1.
</event>
<event>
11    0  0.3485800E-009  0.9118800E+02  0.7816531E-02  0.1126479E+00
         25   -1    0    0    0    0  0.00000000000E+00  0.00000000000E+00  0.99999998245E-14  0.12500000000E+03  0.12500000000E+03 0.  0.
    3000001    1    3    3    0    0  0.39854639979E+02 -0.24431467043E+02 -0.38980351105E+02  0.60874926546E+02  0.10000000000E+01 0. -1.
    1000022    2    1    0    0    0  0.40151949215E+02 -0.23721992267E+02 -0.40389824810E+02  0.62499999927E+02  0.10000004990E+02 0.  0.
    3000022    2    3    3    0    0  0.29730923610E+00  0.70947477588E+00 -0.14094737051E+01  0.16250733810E+01  0.25000025708E+00 0.  0.
    1000022    2    1    0    0    0 -0.40151949215E+02  0.23721992267E+02  0.40389824810E+02  0.62500000073E+02  0.10000005908E+02 0.  0.
    3000022    2    5    5    0    0 -0.28892608456E+02  0.21650404534E+02  0.32317825797E+02  0.48456446460E+02  0.24999862351E+00 0.  0.
        -13    1    4    4    0    0  0.57042083274E-01  0.25294217839E+00 -0.55286572967E+00  0.61961202370E+00  0.10500000000E+00 0.  1.
         13    1    4    4    0    0  0.24026715283E+00  0.45653259749E+00 -0.85660797547E+00  0.10054613573E+01  0.10500000000E+00 0. -1.
    3000001    1    5    5    0    0 -0.11259340758E+02  0.20715877325E+01  0.80719990124E+01  0.14043553614E+02  0.10000000000E+01 0.  1.
        -13    1    6    6    0    0 -0.11666408574E+02  0.86764369764E+01  0.12966988772E+02  0.19481772774E+02  0.10500000000E+00 0. -1.
         13    1    6    6    0    0 -0.17226199883E+02  0.12973967558E+02  0.19350837025E+02  0.28974673685E+02  0.10500000000E+00 0.  1.
</event>
<event>
11    0  0.3485800E-009  0.9118800E+02  0.7816531E-02  0.1126479E+00
         25   -1    0    0    0    0  0.00000000000E+00  0.00000000000E+00  0.99999998245E-14  0.12500000000E+03  0.12500000000E+03 0.  0.
    3000001    1    3    3    0    0  0.17191575777E+02  0.35193788807E+02  0.30375749932E+02  0.49576599643E+02  0.10000000000E+01 0. -1.
    1000022    2    1    0    0    0  0.21348268863E+02  0.46903130711E+02  0.33920462490E+02  0.62499999799E+02  0.99999972711E+01 0.  0.
    3000022    2    3    3    0    0  0.41566930862E+01  0.11709341905E+02  0.35447125583E+01  0.12923400156E+02  0.24999845393E+00 0.  0.
    1000022    2    1    0    0    0 -0.21348268863E+02 -0.46903130711E+02 -0.33920462490E+02  0.62500000201E+02  0.99999997781E+01 0.  0.
    3000022    2    5    5    0    0 -0.41192679709E+01 -0.15934477362E+02 -0.65681634397E+01  0.17722280011E+02  0.25000082761E+00 0.  0.
        -13    1    4    4    0    0  0.25094402634E+01  0.69626793070E+01  0.20565952176E+01  0.76822394168E+01  0.10500000000E+00 0. -1.
         13    1    4    4    0    0  0.16472528227E+01  0.47466625975E+01  0.14881173407E+01  0.52411607394E+01  0.10500000000E+00 0.  1.
    3000001    1    5    5    0    0 -0.17229000892E+02 -0.30968653350E+02 -0.27352299050E+02  0.44777720190E+02  0.10000000000E+01 0.  1.
        -13    1    6    6    0    0 -0.19214578621E+01 -0.73265544822E+01 -0.29564685161E+01  0.81315516344E+01  0.10500000000E+00 0.  1.
         13    1    6    6    0    0 -0.21978101088E+01 -0.86079228793E+01 -0.36116949235E+01  0.95907283765E+01  0.10500000000E+00 0. -1.
</event>
<event>
11    0  0.3485800E-009  0.9118800E+02  0.7816531E-02  0.1126479E+00
         25   -1    0    0    0    0  0.00000000000E+00  0.00000000000E+00  0.99999998245E-14  0.12500000000E+03  0.12500000000E+03 0.  0.
    3000001    1    3    3    0    0  0.10179514453E+01 -0.79451762007E+00 -0.32150870308E+01  0.36061430933E+01  0.10000000000E+01 0. -1.
    1000022    2    1    0    0    0 -0.76475682873E+01 -0.39000882293E+02 -0.47187877836E+02  0.62499999978E+02  0.10000003115E+02 0.  0.
    3000022    2    3    3    0    0 -0.86655197326E+01 -0.38206364673E+02 -0.43972790805E+02  0.58893856885E+02  0.25002770455E+00 0.  0.
    1000022    2    1    0    0    0  0.76475682873E+01  0.39000882293E+02  0.47187877836E+02  0.62500000022E+02  0.10000003386E+02 0.  0.
    3000022    2    5    5    0    0 -0.17813546922E+01  0.27111701584E+01  0.57578927978E+01  0.66135843590E+01  0.25000087121E+00 0.  0.
        -13    1    4    4    0    0 -0.36521041429E+01 -0.15833903453E+02 -0.18276636336E+02  0.24456018155E+02  0.10500000000E+00 0. -1.
         13    1    4    4    0    0 -0.50134155897E+01 -0.22372461219E+02 -0.25696154469E+02  0.34437838730E+02  0.10500000000E+00 0.  1.
    3000001    1    5    5    0    0  0.94289229795E+01  0.36289712134E+02  0.41429985038E+02  0.55886415663E+02  0.10000000000E+01 0. -1.
        -13    1    6    6    0    0 -0.85490707190E+00  0.12761851865E+01  0.28615542722E+01  0.32494665077E+01  0.10500000000E+00 0.  1.
         13    1    6    6    0    0 -0.92644762033E+00  0.14349849719E+01  0.28963385256E+01  0.33641178513E+01  0.10500000000E+00 0. -1.
</event>
<event>
11    0  0.3485800E-009  0.9118800E+02  0.7816531E-02  0.1126479E+00
         25   -1    0    0    0    0  0.00000000000E+00  0.00000000000E+00  0.99999998245E-14  0.12500000000E+03  0.12500000000E+03 0.  0.
    3000001    1    3    3    0    0 -0.61541797657E+01 -0.68233730539E-03 -0.12663862542E+02  0.14115500116E+02  0.10000000000E+01 0. -1.
    1000022    2    1    0    0    0 -0.13130587839E+02  0.10840365693E+02 -0.59298600488E+02  0.62500000474E+02  0.10000008701E+02 0.  0.
    3000022    2    3    3    0    0 -0.69764080737E+01  0.10841048031E+02 -0.46634737946E+02  0.48384500358E+02  0.24999906501E+00 0.  0.
    1000022    2    1    0    0    0  0.13130587839E+02 -0.10840365693E+02  0.59298600488E+02  0.62499999526E+02  0.10000002775E+02 0.  0.
    3000022    2    5    5    0    0  0.24025968853E+01 -0.55120568237E+01  0.93038169039E+01  0.11080557182E+02  0.24999251885E+00 0.  0.
        -13    1    4    4    0    0 -0.35193506058E+01  0.55896255318E+01 -0.23824979991E+02  0.24723883976E+02  0.10500000000E+00 0. -1.
         13    1    4    4    0    0 -0.34570574679E+01  0.52514224990E+01 -0.22809757955E+02  0.23660616382E+02  0.10500000000E+00 0.  1.
    3000001    1    5    5    0    0  0.10727990954E+02 -0.53283088698E+01  0.49994783584E+02  0.51419442344E+02  0.10000000000E+01 0.  1.
        -13    1    6    6    0    0  0.97505285061E+00 -0.21551238794E+01  0.35636371205E+01  0.42785302994E+01  0.10500000000E+00 0.  1.
         13    1    6    6    0    0  0.14275440346E+01 -0.33569329443E+01  0.57401797835E+01  0.68020268825E+01  0.10500000000E+00 0. -1.
</event>
<event>
11    0  0.3485800E-009  0.9118800E+02  0.7816531E-02  0.1126479E+00
         25   -1    0    0    0    0  0.00000000000E+00  0.00000000000E+00  0.99999998245E-14  0.12500000000E+03  0.12500000000E+03 0.  0.
    3000001    1    3    3    0    0 -0.10776003564E+02  0.15719702882E+02 -0.13764923593E+02  0.23530925036E+02  0.10000000000E+01 0. -1.
    1000022    2    1    0    0    0 -0.21710606912E+02  0.49673763070E+02 -0.29451943215E+02  0.62500000485E+02  0.99999955730E+01 0.  0.
    3000022    2    3    3    0    0 -0.10934603348E+02  0.33954060188E+02 -0.15687019622E+02  0.38969075449E+02  0.25000624278E+00 0.  0.
    1000022    2    1    0    0    0  0.21710606912E+02 -0.49673763070E+02  0.29451943215E+02  0.62499999515E+02  0.99999895100E+01 0.  0.
    3000022    2    5    5    0    0  0.11914301650E+01 -0.89205785104E+01  0.81128854332E+01  0.12119308242E+02  0.24999082506E+00 0.  0.
        -13    1    4    4    0    0 -0.75898058336E+01  0.23717248049E+02 -0.10943181080E+02  0.27200684637E+02  0.10500000000E+00 0. -1.
         13    1    4    4    0    0 -0.33447975140E+01  0.10236812140E+02 -0.47438385414E+01  0.11768390812E+02  0.10500000000E+00 0.  1.
    3000001    1    5    5    0    0  0.20519176747E+02 -0.40753184560E+02  0.21339057781E+02  0.50380691273E+02  0.10000000000E+01 0. -1.
        -13    1    6    6    0    0  0.64003604980E+00 -0.42977983605E+01  0.38934288270E+01  0.58352831913E+01  0.10500000000E+00 0.  1.
         13    1    6    6    0    0  0.55139411523E+00 -0.46227801499E+01  0.42194566062E+01  0.62840250506E+01  0.10500000000E+00 0. -1.
</event>
<event>
11    0  0.3485800E-009  0.9118800E+02  0.7816531E-02  0.1126479E+00
         25   -1    0    0    0    0  0.00000000000E+00  0.00000000000E+00  0.99999998245E-14  0.12500000000E+03  0.12500000000E+03 0.  0.
    3000001    1    3    3    0    0 -0.62172393075E+01 -0.52822361542E+01 -0.31028377245E+02  0.32098540120E+02  0.10000000000E+01 0. -1.
    1000022    2    1    0    0    0 -0.11816549849E+02 -0.19412199600E+02 -0.57356653110E+02  0.62499999813E+02  0.99999988504E+01 0.  0.
    3000022    2    3    3    0    0 -0.55993105413E+01 -0.14129963446E+02 -0.26328275865E+02  0.30401459693E+02  0.24999182171E+00 0.  0.
    1000022    2    1    0    0    0  0.11816549849E+02  0.19412199600E+02  0.57356653110E+02  0.62500000187E+02  0.10000001192E+02 0.  0.
    3000022    2    5    5    0    0  0.68356905901E+01  0.28061498411E+01  0.15053084328E+02  0.16770777810E+02  0.24999560005E+00 0.  0.
        -13    1    4    4    0    0 -0.39080315214E+01 -0.99002618451E+01 -0.18523027113E+02  0.21363554325E+02  0.10500000000E+00 0. -1.
         13    1    4    4    0    0 -0.16912790199E+01 -0.42297016007E+01 -0.78052487522E+01  0.90379053679E+01  0.10500000000E+00 0.  1.
    3000001    1    5    5    0    0  0.49808592586E+01  0.16606049759E+02  0.42303568782E+02  0.45729222377E+02  0.10000000000E+01 0. -1.
        -13    1    6    6    0    0  0.45796274104E+01  0.18302782407E+01  0.99821321080E+01  0.11134491101E+02  0.10500000000E+00 0. -1.
         13    1    6    6    0    0  0.22560631797E+01  0.97587160040E+00  0.50709522201E+01  0.56362867093E+01  0.10500000000E+00 0.  1.
</event>
<event>
11    0  0.3485800E-009  0.9118800E+02  0.7816531E-02  0.1126479E+00
         25   -1    0    0    0    0  0.00000000000E+00  0.00000000000E+00  0.99999998245E-14  0.12500000000E+03  0.12500000000E+03 0.  0.
    3000001    1    3    3    0    0  0.34185076808E+01 -0.85109229111E+00 -0.41276578281E+01  0.55179807899E+01  0.10000000000E+01 0. -1.
    1000022    2    1    0    0    0  0.45205612283E+02 -0.31887594647E+02 -0.27310872962E+02  0.62500000383E+02  0.10000009586E+02 0.  0.
    3000022    2    3    3    0    0  0.41787104602E+02 -0.31036502356E+02 -0.23183215134E+02  0.56982019593E+02  0.25000695832E+00 0.  0.
    1000022    2    1    0    0    0 -0.45205612283E+02  0.31887594647E+02  0.27310872962E+02  0.62499999617E+02  0.10000004800E+02 0.  0.
    3000022    2    5    5    0    0 -0.36732077374E+02  0.29764312669E+02  0.24622508674E+02  0.53305630539E+02  0.24999373913E+00 0.  0.
        -13    1    4    4    0    0  0.16013597238E+02 -0.11960935709E+02 -0.88701877519E+01  0.21867568115E+02  0.10500000000E+00 0.  1.
         13    1    4    4    0    0  0.25773507364E+02 -0.19075566647E+02 -0.14313027382E+02  0.35114451477E+02  0.10500000000E+00 0. -1.
    3000001    1    5    5    0    0 -0.84735349085E+01  0.21232819774E+01  0.26883642880E+01  0.91943690782E+01  0.10000000000E+01 0.  1.
        -13    1    6    6    0    0 -0.90060758844E+01  0.72682565463E+01  0.60248919532E+01  0.13047885043E+02  0.10500000000E+00 0. -1.
         13    1    6    6    0    0 -0.27726001490E+02  0.22496056123E+02  0.18597616720E+02  0.40257745496E+02  0.10500000000E+00 0.  1.
</event>
<event>
11    0  0.3485800E-009  0.9118800E+02  0.7816531E-02  0.1126479E+00
         25   -1    0    0    0    0  0.00000000000E+00  0.00000000000E+00  0.99999998245E-14  0.12500000000E+03  0.12500000000E+03 0.  0.
    3000001    1    3    3    0    0 -0.33550907290E+00 -0.48345102462E+01  0.33178064951E+01  0.59575914258E+01  0.10000000000E+01 0.  1.
    1000022    2    1    0    0    0  0.25116227932E+02 -0.47249512218E+02  0.30706821797E+02  0.62499999993E+02  0.99999891937E+01 0.  0.
    3000022    2    3    3    0    0  0.25451737005E+02 -0.42415001972E+02  0.27389015302E+02  0.56542408568E+02  0.24999704620E+00 0.  0.
    1000022    2    1    0    0    0 -0.25116227932E+02  0.47249512218E+02 -0.30706821797E+02  0.62500000007E+02  0.99999892772E+01 0.  0.
    3000022    2    5    5    0    0 -0.45686648034E+01  0.18327681715E+02 -0.12007094140E+02  0.22383239861E+02  0.25000364191E+00 0.  0.
        -13    1    4    4    0    0  0.63915861157E+01 -0.10704923048E+02  0.69020968909E+01  0.14251235632E+02  0.10500000000E+00 0.  1.
         13    1    4    4    0    0  0.19060150890E+02 -0.31710078924E+02  0.20486918411E+02  0.42291172936E+02  0.10500000000E+00 0. -1.
    3000001    1    5    5    0    0 -0.20547563129E+02  0.28921830503E+02 -0.18699727657E+02  0.40116760146E+02  0.10000000000E+01 0.  1.
        -13    1    6    6    0    0 -0.29367822361E+01  0.11938232400E+02 -0.78641737808E+01  0.14594599583E+02  0.10500000000E+00 0.  1.
         13    1    6    6    0    0 -0.16318825674E+01  0.63894493152E+01 -0.41429203592E+01  0.77886402773E+01  0.10500000000E+00 0. -1.
</event>
<event>
11    0  0.3485800E-009  0.9118800E+02  0.7816531E-02  0.1126479E+00
         25   -1    0    0    0    0  0.00000000000E+00  0.00000000000E+00  0.99999998245E-14  0.12500000000E+03  0.12500000000E+03 0.  0.
    3000001    1    3    3    0    0 -0.63778302269E+01  0.61428046416E+01 -0.68104494683E+00  0.89372584995E+01  0.10000000000E+01 0.  1.
    1000022    2    1    0    0    0 -0.56093051604E+02  0.25088318192E+02  0.55132399640E+01  0.62500000802E+02  0.10000006867E+02 0.  0.
    3000022    2    3    3    0    0 -0.49715221377E+02  0.18945513551E+02  0.61942849108E+01  0.53562742302E+02  0.24995419235E+00 0.  0.
    1000022    2    1    0    0    0  0.56093051604E+02 -0.25088318192E+02 -0.55132399640E+01  0.62499999198E+02  0.99999968432E+01 0.  0.
    3000022    2    5    5    0    0  0.27289806038E+02 -0.16772423477E+02 -0.18140869603E+00  0.32033468632E+02  0.25000120533E+00 0.  0.
        -13    1    4    4    0    0 -0.33052741573E+02  0.12561814249E+02  0.40729627534E+01  0.35593299275E+02  0.10500000000E+00 0. -1.
         13    1    4    4    0    0 -0.16662479805E+02  0.63836993020E+01  0.21213221574E+01  0.17969443027E+02  0.10500000000E+00 0.  1.
    3000001    1    5    5    0    0  0.28803245566E+02 -0.83158947157E+01 -0.53318312680E+01  0.30466530566E+02  0.10000000000E+01 0.  1.
        -13    1    6    6    0    0  0.12806537076E+02 -0.77987932121E+01 -0.57392820319E-01  0.14994761965E+02  0.10500000000E+00 0.  1.
         13    1    6    6    0    0  0.14483268962E+02 -0.89736302645E+01 -0.12401587571E+00  0.17038706667E+02  0.10500000000E+00 0. -1.
</event>
<event>
11    0  0.3485800E-009  0.9118800E+02  0.7816531E-02  0.1126479E+00
         25   -1    0    0    0    0  0.00000000000E+00  0.00000000000E+00  0.99999998245E-14  0.12500000000E+03  0.12500000000E+03 0.  0.
    3000001    1    3    3    0    0  0.22358684876E+02  0.22220792417E+01  0.11135380191E+02  0.25096715274E+02  0.10000000000E+01 0.  1.
    1000022    2    1    0    0    0  0.58173513494E+02  0.11055817401E+02  0.17316504182E+02  0.62499999558E+02  0.99999928528E+01 0.  0.
    3000022    2    3    3    0    0  0.35814828618E+02  0.88337381591E+01  0.61811239908E+01  0.37403284284E+02  0.25000532824E+00 0.  0.
    1000022    2    1    0    0    0 -0.58173513494E+02 -0.11055817401E+02 -0.17316504182E+02  0.62500000442E+02  0.99999983752E+01 0.  0.
    3000022    2    5    5    0    0 -0.45551636524E+02 -0.72898753187E+01 -0.93370053199E+01  0.47067356465E+02  0.25000826533E+00 0.  0.
        -13    1    4    4    0    0  0.12907323189E+02  0.31243358670E+01  0.22170741734E+01  0.13464282729E+02  0.10500000000E+00 0.  1.
         13    1    4    4    0    0  0.22907505428E+02  0.57094022921E+01  0.39640498174E+01  0.23939001555E+02  0.10500000000E+00 0. -1.
    3000001    1    5    5    0    0 -0.12621876970E+02 -0.37659420822E+01 -0.79794988618E+01  0.15432643976E+02  0.10000000000E+01 0. -1.
        -13    1    6    6    0    0 -0.30837938358E+02 -0.49836537274E+01 -0.63035486296E+01  0.31867867782E+02  0.10500000000E+00 0. -1.
         13    1    6    6    0    0 -0.14713698166E+02 -0.23062215913E+01 -0.30334566902E+01  0.15199488683E+02  0.10500000000E+00 0.  1.
</event>
<event>
11    0  0.3485800E-009  0.9118800E+02  0.7816531E-02  0.1126479E+00
         25   -1    0    0    0    0  0.00000000000E+00  0.00000000000E+00  0.99999998245E-14  0.12500000000E+03  0.12500000000E+03 0.  0.
    3000001    1    3    3    0    0  0.10159585445E+02 -0.66727171493E+01 -0.20019866833E+02  0.23442214029E+02  0.10000000000E+01 0. -1.
    1000022    2    1    0    0    0  0.33714091292E+02 -0.24980677424E+02 -0.45228043098E+02  0.62500002050E+02  0.10000008877E+02 0.  0.
    3000022    2    3    3    0    0  0.23554505847E+02 -0.18307960275E+02 -0.25208176265E+02  0.39057788021E+02  0.24999871058E+00 0.  0.
    1000022    2    1    0    0    0 -0.33714091292E+02  0.24980677424E+02  0.45228043098E+02  0.62499997950E+02  0.99999832553E+01 0.  0.
    3000022    2    5    5    0    0 -0.75928753069E+01  0.61143130169E+01  0.17245729339E+02  0.19811972536E+02  0.24999245562E+00 0.  0.
        -13    1    4    4    0    0  0.10880828705E+02 -0.84197721402E+01 -0.11546486807E+02  0.17961552795E+02  0.10500000000E+00 0. -1.
         13    1    4    4    0    0  0.12673677141E+02 -0.98881881349E+01 -0.13661689458E+02  0.21096235226E+02  0.10500000000E+00 0.  1.
    3000001    1    5    5    0    0 -0.26121215985E+02  0.18866364407E+02  0.27982313759E+02  0.42688025414E+02  0.10000000000E+01 0. -1.
        -13    1    6    6    0    0 -0.56990113599E+01  0.45698049974E+01  0.12874938284E+02  0.14803273591E+02  0.10500000000E+00 0.  1.
         13    1    6    6    0    0 -0.18938639470E+01  0.15445080195E+01  0.43707910554E+01  0.50086989450E+01  0.10500000000E+00 0. -1.
</event>
<event>
11    0  0.3485800E-009  0.9118800E+02  0.7816531E-02  0.1126479E+00
         25   -1    0    0    0    0  0.00000000000E+00  0.00000000000E+00  0.99999998245E-14  0.12500000000E+03  0.12500000000E+03 0.  0.
    3000001    1    3    3    0    0 -0.31427196408E+01  0.22933208911E+02 -0.10082107122E+02  0.25267719361E+02  0.10000000000E+01 0. -1.
    1000022    2    1    0    0    0 -0.15349366275E+02  0.50548567918E+02 -0.31866736233E+02  0.62500001607E+02  0.10000027957E+02 0.  0.
    3000022    2    3    3    0    0 -0.12206646634E+02  0.27615359007E+02 -0.21784629111E+02  0.37232282246E+02  0.25000119873E+00 0.  0.
    1000022    2    1    0    0    0  0.15349366275E+02 -0.50548567918E+02  0.31866736233E+02  0.62499998393E+02  0.10000007870E+02 0.  0.
    3000022    2    5    5    0    0  0.15683664525E+02 -0.41865216612E+02  0.29025215917E+02  0.53302901953E+02  0.25000532581E+00 0.  0.
        -13    1    4    4    0    0 -0.65398183235E+01  0.14787176867E+02 -0.11748796858E+02  0.19986872591E+02  0.10500000000E+00 0.  1.
         13    1    4    4    0    0 -0.56668283106E+01  0.12828182140E+02 -0.10035832253E+02  0.17245409654E+02  0.10500000000E+00 0. -1.
    3000001    1    5    5    0    0 -0.33429825045E+00 -0.86833513057E+01  0.28415203158E+01  0.91970964399E+01  0.10000000000E+01 0.  1.
        -13    1    6    6    0    0  0.10048831913E+02 -0.26980593422E+02  0.18712188595E+02  0.34337857697E+02  0.10500000000E+00 0. -1.
         13    1    6    6    0    0  0.56348326126E+01 -0.14884623190E+02  0.10313027323E+02  0.18965044256E+02  0.10500000000E+00 0.  1.
</event>
<event>
11    0  0.3485800E-009  0.9118800E+02  0.7816531E-02  0.1126479E+00
         25   -1    0    0    0    0  0.00000000000E+00  0.00000000000E+00  0.99999998245E-14  0.12500000000E+03  0.12500000000E+03 0.  0.
    3000001    1    3    3    0    0  0.26879295663E+02  0.26258639246E+02  0.25482339012E+02  0.45413238949E+02  0.10000000000E+01 0. -1.
    1000022    2    1    0    0    0  0.38407300893E+02  0.30656931364E+02  0.37299900088E+02  0.62499992281E+02  0.99999143056E+01 0.  0.
    3000022    2    3    3    0    0  0.11528005230E+02  0.43982921180E+01  0.11817561076E+02  0.17086753332E+02  0.25002301525E+00 0.  0.
    1000022    2    1    0    0    0 -0.38407300893E+02 -0.30656931364E+02 -0.37299900088E+02  0.62500007719E+02  0.10000010788E+02 0.  0.
    3000022    2    5    5    0    0 -0.12221169617E+02 -0.43558212634E+01 -0.10839100392E+02  0.16907949372E+02  0.24997797210E+00 0.  0.
        -13    1    4    4    0    0  0.67741511451E+01  0.25627476960E+01  0.70208259287E+01  0.10087607309E+02  0.10500000000E+00 0. -1.
         13    1    4    4    0    0  0.47538540845E+01  0.18355444220E+01  0.47967351475E+01  0.69991460234E+01  0.10500000000E+00 0.  1.
    3000001    1    5    5    0    0 -0.26186131276E+02 -0.26301110100E+02 -0.26460799695E+02  0.45592058346E+02  0.10000000000E+01 0.  1.
        -13    1    6    6    0    0 -0.45565542866E+01 -0.15704596822E+01 -0.40683432485E+01  0.63080085897E+01  0.10500000000E+00 0.  1.
         13    1    6    6    0    0 -0.76646153299E+01 -0.27853615812E+01 -0.67707571438E+01  0.10599940783E+02  0.10500000000E+00 0. -1.
</event>
<event>
11    0  0.3485800E-009  0.9118800E+02  0.7816531E-02  0.1126479E+00
         25   -1    0    0    0    0  0.00000000000E+00  0.00000000000E+00  0.99999998245E-14  0.12500000000E+03  0.12500000000E+03 0.  0.
    3000001    1    3    3    0    0 -0.28787684065E+02 -0.16075218104E+02  0.89563247756E+01  0.34181268911E+02  0.10000000000E+01 0. -1.
    1000022    2    1    0    0    0 -0.52944417184E+02 -0.30777273458E+02  0.74765086105E+01  0.62500000266E+02  0.99999989888E+01 0.  0.
    3000022    2    3    3    0    0 -0.24156733119E+02 -0.14702055354E+02 -0.14798161651E+01  0.28318731354E+02  0.25000604735E+00 0.  0.
    1000022    2    1    0    0    0  0.52944417184E+02  0.30777273458E+02 -0.74765086105E+01  0.62499999734E+02  0.99999956672E+01 0.  0.
    3000022    2    5    5    0    0  0.84646601731E+00  0.26459879510E+01  0.15713247162E+00  0.27937335959E+01  0.24999967111E+00 0.  0.
        -13    1    4    4    0    0 -0.12836411217E+02 -0.78559268530E+01 -0.84374904098E+00  0.15073552238E+02  0.10500000000E+00 0.  1.
         13    1    4    4    0    0 -0.11320321902E+02 -0.68461285009E+01 -0.63606712410E+00  0.13245179116E+02  0.10500000000E+00 0. -1.
    3000001    1    5    5    0    0  0.52097951167E+02  0.28131285506E+02 -0.76336410822E+01  0.59706266138E+02  0.10000000000E+01 0. -1.
        -13    1    6    6    0    0  0.53742604097E+00  0.16950596843E+01  0.15847719996E+00  0.17883495479E+01  0.10500000000E+00 0.  1.
         13    1    6    6    0    0  0.30903997633E+00  0.95092826678E+00 -0.13447283452E-02  0.10053840479E+01  0.10500000000E+00 0. -1.
</event>
<event>
11    0  0.3485800E-009  0.9118800E+02  0.7816531E-02  0.1126479E+00
         25   -1    0    0    0    0  0.00000000000E+00  0.00000000000E+00  0.99999998245E-14  0.12500000000E+03  0.12500000000E+03 0.  0.
    3000001    1    3    3    0    0 -0.24699692511E+02  0.11952288047E+02  0.24530355183E+02  0.36819428636E+02  0.10000000000E+01 0.  1.
    1000022    2    1    0    0    0 -0.43816477453E+02  0.12233485379E+02  0.41673829785E+02  0.62500000225E+02  0.10000003913E+02 0.  0.
    3000022    2    3    3    0    0 -0.19116784942E+02  0.28119733158E+00  0.17143474602E+02  0.25680571588E+02  0.24999445557E+00 0.  0.
    1000022    2    1    0    0    0  0.43816477453E+02 -0.12233485379E+02 -0.41673829785E+02  0.62499999775E+02  0.10000001103E+02 0.  0.
    3000022    2    5    5    0    0  0.32128096001E+02 -0.94117969463E+01 -0.36017254904E+02  0.49174196762E+02  0.25000383571E+00 0.  0.
        -13    1    4    4    0    0 -0.10740173791E+02  0.17716528182E+00  0.95467375795E+01  0.14371288878E+02  0.10500000000E+00 0.  1.
         13    1    4    4    0    0 -0.83766111511E+01  0.10403204975E+00  0.75967370225E+01  0.11309282711E+02  0.10500000000E+00 0. -1.
    3000001    1    5    5    0    0  0.11688381451E+02 -0.28216884327E+01 -0.56565748806E+01  0.13325803013E+02  0.10000000000E+01 0.  1.
        -13    1    6    6    0    0  0.18101816846E+02 -0.53681591470E+01 -0.20342690850E+02  0.27754801418E+02  0.10500000000E+00 0. -1.
         13    1    6    6    0    0  0.14026279155E+02 -0.40436377993E+01 -0.15674564055E+02  0.21419395344E+02  0.10500000000E+00 0.  1.
</event>
<event>
11    0  0.3485800E-009  0.9118800E+02  0.7816531E-02  0.1126479E+00
         25   -1    0    0    0    0  0.00000000000E+00  0.00000000000E+00  0.99999998245E-14  0.12500000000E+03  0.12500000000E+03 0.  0.
    3000001    1    3    3    0    0 -0.16450314875E+02  0.21316472393E+02 -0.28051646971E+01  0.27090105274E+02  0.10000000000E+01 0.  1.
    1000022    2    1    0    0    0 -0.29486740316E+02  0.54184286107E+02 -0.91922557707E+00  0.62500002659E+02  0.10000032067E+02 0.  0.
    3000022    2    3    3    0    0 -0.13036425440E+02  0.32867813714E+02  0.18859391200E+01  0.35409897385E+02  0.24999968730E+00 0.  0.
    1000022    2    1    0    0    0  0.29486740316E+02 -0.54184286107E+02  0.91922557707E+00  0.62499997341E+02  0.99999988256E+01 0.  0.
    3000022    2    5    5    0    0  0.19761910048E+02 -0.44661201496E+02  0.10986280995E+01  0.48851054176E+02  0.25000517387E+00 0.  0.
        -13    1    4    4    0    0 -0.34897706459E+01  0.87527819095E+01  0.47243315200E+00  0.94352481896E+01  0.10500000000E+00 0.  1.
         13    1    4    4    0    0 -0.95466547943E+01  0.24115031805E+02  0.14135059680E+01  0.25974649195E+02  0.10500000000E+00 0. -1.
    3000001    1    5    5    0    0  0.97248302675E+01 -0.95230846113E+01 -0.17940252247E+00  0.13648943165E+02  0.10000000000E+01 0. -1.
        -13    1    6    6    0    0  0.14222635247E+02 -0.32188810538E+02  0.82643437990E+00  0.35200808173E+02  0.10500000000E+00 0.  1.
         13    1    6    6    0    0  0.55392748010E+01 -0.12472390958E+02  0.27219371964E+00  0.13650246004E+02  0.10500000000E+00 0. -1.
</event>
<event>
11    0  0.3485800E-009  0.9118800E+02  0.7816531E-02  0.1126479E+00
         25   -1    0    0    0    0  0.00000000000E+00  0.00000000000E+00  0.99999998245E-14  0.12500000000E+03  0.12500000000E+03 0.  0.
    3000001    1    3    3    0    0  0.16563233064E+02 -0.38867374346E+02 -0.26003598855E+02  0.49620566618E+02  0.10000000000E+01 0.  1.
    1000022    2    1    0    0    0  0.20214594747E+02 -0.45522062603E+02 -0.36405518195E+02  0.62499997785E+02  0.99999971827E+01 0.  0.
    3000022    2    3    3    0    0  0.36513616830E+01 -0.66546882573E+01 -0.10401919340E+02  0.12879431167E+02  0.25000657487E+00 0.  0.
    1000022    2    1    0    0    0 -0.20214594747E+02  0.45522062603E+02  0.36405518195E+02  0.62500002215E+02  0.10000024870E+02 0.  0.
    3000022    2    5    5    0    0 -0.73360073402E+00  0.43776937385E+01  0.70123777866E+01  0.83029089344E+01  0.24996409008E+00 0.  0.
        -13    1    4    4    0    0  0.13626553266E+01 -0.25383231904E+01 -0.38563015649E+01  0.48147690409E+01  0.10500000000E+00 0. -1.
         13    1    4    4    0    0  0.22887063564E+01 -0.41163650669E+01 -0.65456177756E+01  0.80646621265E+01  0.10500000000E+00 0.  1.
    3000001    1    5    5    0    0 -0.19480994013E+02  0.41144368864E+02  0.29393140408E+02  0.54197093281E+02  0.10000000000E+01 0. -1.
        -13    1    6    6    0    0 -0.34261352543E+00  0.19736325201E+01  0.32882458658E+01  0.38517781901E+01  0.10500000000E+00 0. -1.
         13    1    6    6    0    0 -0.39098720859E+00  0.24040612183E+01  0.37241319208E+01  0.44511307443E+01  0.10500000000E+00 0.  1.
</event>
<event>
11    0  0.3485800E-009  0.9118800E+02  0.7816531E-02  0.1126479E+00
         25   -1    0    0    0    0  0.00000000000E+00  0.00000000000E+00  0.99999998245E-14  0.12500000000E+03  0.12500000000E+03 0.  0.
    3000001    1    3    3    0    0 -0.45820049886E+01  0.23991164128E+02 -0.38908713995E+02  0.45950612082E+02  0.10000000000E+01 0.  1.
    1000022    2    1    0    0    0 -0.50298648058E+01  0.37027216624E+02 -0.49091086193E+02  0.62500006202E+02  0.10000086041E+02 0.  0.
    3000022    2    3    3    0    0 -0.44785981728E+00  0.13036052496E+02 -0.10182372197E+02  0.16549394120E+02  0.24999818510E+00 0.  0.
    1000022    2    1    0    0    0  0.50298648058E+01 -0.37027216624E+02  0.49091086193E+02  0.62499993798E+02  0.10000008514E+02 0.  0.
    3000022    2    5    5    0    0  0.20567822777E+01 -0.23176373026E+02  0.22574319314E+02  0.32419701017E+02  0.25000312969E+00 0.  0.
        -13    1    4    4    0    0 -0.14921556609E+00  0.57888250451E+01 -0.45763624732E+01  0.73815228222E+01  0.10500000000E+00 0.  1.
         13    1    4    4    0    0 -0.29864425119E+00  0.72472274507E+01 -0.56060097240E+01  0.91678712980E+01  0.10500000000E+00 0. -1.
    3000001    1    5    5    0    0  0.29730825282E+01 -0.13850843598E+02  0.26516766878E+02  0.30080292781E+02  0.10000000000E+01 0. -1.
        -13    1    6    6    0    0  0.14998198194E+01 -0.16649451339E+02  0.16171541093E+02  0.23259051049E+02  0.10500000000E+00 0. -1.
         13    1    6    6    0    0  0.55696245831E+00 -0.65269216864E+01  0.64027782214E+01  0.91606499678E+01  0.10500000000E+00 0.  1.
</event>
<event>
11    0  0.3485800E-009  0.9118800E+02  0.7816531E-02  0.1126479E+00
         25   -1    0    0    0    0  0.00000000000E+00  0.00000000000E+00  0.99999998245E-14  0.12500000000E+03  0.12500000000E+03 0.  0.
    3000001    1    3    3    0    0 -0.13204142485E+02  0.45107406719E+01  0.86135041561E-01  0.13989409545E+02  0.10000000000E+01 0. -1.
    1000022    2    1    0    0    0 -0.50573114291E+02  0.34729556244E+02 -0.65167490104E+01  0.62500000627E+02  0.10000004733E+02 0.  0.
    3000022    2    3    3    0    0 -0.37368971805E+02  0.30218815572E+02 -0.66028840520E+01  0.48510591081E+02  0.25000169827E+00 0.  0.
    1000022    2    1    0    0    0  0.50573114291E+02 -0.34729556244E+02  0.65167490104E+01  0.62499999373E+02  0.99999969014E+01 0.  0.
    3000022    2    5    5    0    0  0.97213870005E+01 -0.76634148655E+01 -0.25828292330E+01  0.12647798259E+02  0.25000268522E+00 0.  0.
        -13    1    4    4    0    0 -0.26944899879E+02  0.21793855953E+02 -0.47218576147E+01  0.34975802365E+02  0.10500000000E+00 0.  1.
         13    1    4    4    0    0 -0.10424071927E+02  0.84249596193E+01 -0.18810264373E+01  0.13534788716E+02  0.10500000000E+00 0. -1.
    3000001    1    5    5    0    0  0.40851727290E+02 -0.27066141379E+02  0.90995782435E+01  0.49852201114E+02  0.10000000000E+01 0.  1.
        -13    1    6    6    0    0  0.58088278629E+01 -0.45599224271E+01 -0.16036279998E+01  0.75576465546E+01  0.10500000000E+00 0. -1.
         13    1    6    6    0    0  0.39125591375E+01 -0.31034924384E+01 -0.97920123323E+00  0.50901517045E+01  0.10500000000E+00 0.  1.
</event>
<event>
11    0  0.3485800E-009  0.9118800E+02  0.7816531E-02  0.1126479E+00
         25   -1    0    0    0    0  0.00000000000E+00  0.00000000000E+00  0.99999998245E-14  0.12500000000E+03  0.12500000000E+03 0.  0.
    3000001    1    3    3    0    0 -0.24471501451E+02  0.20900288588E+02 -0.70640374649E+01  0.32963268521E+02  0.10000000000E+01 0. -1.
    1000022    2    1    0    0    0 -0.41452915291E+02  0.45060632908E+02 -0.75792535667E+01  0.62500001570E+02  0.10000014372E+02 0.  0.
    3000022    2    3    3    0    0 -0.16981413840E+02  0.24160344320E+02 -0.51521610179E+00  0.29536733048E+02  0.24999574318E+00 0.  0.
    1000022    2    1    0    0    0  0.41452915291E+02 -0.45060632908E+02  0.75792535667E+01  0.62499998430E+02  0.99999947513E+01 0.  0.
    3000022    2    5    5    0    0  0.20923608666E+02 -0.29807628255E+02  0.53158464997E+01  0.36805065214E+02  0.24999923753E+00 0.  0.
        -13    1    4    4    0    0 -0.79610777364E+01  0.11231723840E+02 -0.27954832983E+00  0.13770241516E+02  0.10500000000E+00 0.  1.
         13    1    4    4    0    0 -0.90203361034E+01  0.12928620479E+02 -0.23566777196E+00  0.15766491532E+02  0.10500000000E+00 0. -1.
    3000001    1    5    5    0    0  0.20529306625E+02 -0.15253004653E+02  0.22634070669E+01  0.25694933216E+02  0.10000000000E+01 0.  1.
        -13    1    6    6    0    0  0.11257477666E+02 -0.16153794349E+02  0.28695800399E+01  0.19897773491E+02  0.10500000000E+00 0. -1.
         13    1    6    6    0    0  0.96661309997E+01 -0.13653833906E+02  0.24462664598E+01  0.16907291723E+02  0.10500000000E+00 0.  1.
</event>
<event>
11    0  0.3485800E-009  0.9118800E+02  0.7816531E-02  0.1126479E+00
         25   -1    0    0    0    0  0.00000000000E+00  0.00000000000E+00  0.99999998245E-14  0.12500000000E+03  0.12500000000E+03 0.  0.
    3000001    1    3    3    0    0  0.81938971601E+01 -0.40447386949E+01  0.43100642228E+02  0.44070003656E+02  0.10000000000E+01 0. -1.
    1000022    2    1    0    0    0  0.11913455324E+02  0.64324476292E+00  0.60530209676E+02  0.62499996475E+02  0.99999547150E+01 0.  0.
    3000022    2    3    3    0    0  0.37195581641E+01  0.46879834578E+01  0.17429567449E+02  0.18429992819E+02  0.25002404901E+00 0.  0.
    1000022    2    1    0    0    0 -0.11913455324E+02 -0.64324476292E+00 -0.60530209676E+02  0.62500003525E+02  0.99999987814E+01 0.  0.
    3000022    2    5    5    0    0 -0.87913307936E+01 -0.38815498320E+01 -0.27118526976E+02  0.28772050398E+02  0.24990503897E+00 0.  0.
        -13    1    4    4    0    0  0.13277273664E+01  0.17638197366E+01  0.63725926824E+01  0.67449894379E+01  0.10500000000E+00 0. -1.
         13    1    4    4    0    0  0.23918307977E+01  0.29241637212E+01  0.11056974766E+02  0.11685003381E+02  0.10500000000E+00 0.  1.
    3000001    1    5    5    0    0 -0.31221245306E+01  0.32383050691E+01 -0.33411682701E+02  0.33727953128E+02  0.10000000000E+01 0.  1.
        -13    1    6    6    0    0 -0.43982518062E+01 -0.18909913084E+01 -0.13362073035E+02  0.14194241363E+02  0.10500000000E+00 0. -1.
         13    1    6    6    0    0 -0.43930789874E+01 -0.19905585236E+01 -0.13756453941E+02  0.14577809034E+02  0.10500000000E+00 0.  1.
</event>
<event>
11    0  0.3485800E-009  0.9118800E+02  0.7816531E-02  0.1126479E+00
         25   -1    0    0    0    0  0.00000000000E+00  0.00000000000E+00  0.99999998245E-14  0.12500000000E+03  0.12500000000E+03 0.  0.
    3000001    1    3    3    0    0  0.34902182054E+01  0.70978349812E+01 -0.94244349108E+01  0.12344264171E+02  0.10000000000E+01 0. -1.
    1000022    2    1    0    0    0  0.29846228146E+02  0.42221927439E+02 -0.33656524374E+02  0.62499999574E+02  0.99999911295E+01 0.  0.
    3000022    2    3    3    0    0  0.26356009941E+02  0.35124092458E+02 -0.24232089463E+02  0.50155735403E+02  0.25000610404E+00 0.  0.
    1000022    2    1    0    0    0 -0.29846228146E+02 -0.42221927439E+02  0.33656524374E+02  0.62500000426E+02  0.99999964564E+01 0.  0.
    3000022    2    5    5    0    0 -0.10424715205E+02 -0.12622058645E+02  0.55555105382E+01  0.17289223214E+02  0.24998091623E+00 0.  0.
        -13    1    4    4    0    0  0.14922824158E+02  0.19920324945E+02 -0.13806365038E+02  0.28462901597E+02  0.10500000000E+00 0. -1.
         13    1    4    4    0    0  0.11433185783E+02  0.15203767513E+02 -0.10425724425E+02  0.21692833806E+02  0.10500000000E+00 0.  1.
    3000001    1    5    5    0    0 -0.19421512942E+02 -0.29599868794E+02  0.28101013836E+02  0.45210777212E+02  0.10000000000E+01 0.  1.
        -13    1    6    6    0    0 -0.64493368975E+01 -0.77971860929E+01  0.33697968464E+01  0.10665674530E+02  0.10500000000E+00 0. -1.
         13    1    6    6    0    0 -0.39753783071E+01 -0.48248725523E+01  0.21857136918E+01  0.66235486843E+01  0.10500000000E+00 0.  1.
</event>
<event>
11    0  0.3485800E-009  0.9118800E+02  0.7816531E-02  0.1126479E+00
         25   -1    0    0    0    0  0.00000000000E+00  0.00000000000E+00  0.99999998245E-14  0.12500000000E+03  0.12500000000E+03 0.  0.
    3000001    1    3    3    0    0 -0.68307886365E+01 -0.10314893073E+02  0.81642343552E+01  0.14856359417E+02  0.10000000000E+01 0. -1.
    1000022    2    1    0    0    0 -0.37866757412E+02 -0.29182877945E+02  0.38996391740E+02  0.62500001545E+02  0.99999971154E+01 0.  0.
    3000022    2    3    3    0    0 -0.31035968775E+02 -0.18867984872E+02  0.30832157385E+02  0.47643642128E+02  0.24999056085E+00 0.  0.
    1000022    2    1    0    0    0  0.37866757412E+02  0.29182877945E+02 -0.38996391740E+02  0.62499998455E+02  0.99999778035E+01 0.  0.
    3000022    2    5    5    0    0  0.40377456834E+01  0.68909099633E+01 -0.92828893562E+01  0.12248370671E+02  0.25003792881E+00 0.  0.
        -13    1    4    4    0    0 -0.81968583541E+01 -0.49626979067E+01  0.80970955403E+01  0.12545550549E+02  0.10500000000E+00 0. -1.
         13    1    4    4    0    0 -0.22839110421E+02 -0.13905286965E+02  0.22735061845E+02  0.35098091579E+02  0.10500000000E+00 0.  1.
    3000001    1    5    5    0    0  0.33829011729E+02  0.22291967982E+02 -0.29713502384E+02  0.50251627784E+02  0.10000000000E+01 0. -1.
        -13    1    6    6    0    0  0.15435338095E+01  0.25429696695E+01 -0.33997108256E+01  0.45186557801E+01  0.10500000000E+00 0.  1.
         13    1    6    6    0    0  0.24942118739E+01  0.43479402938E+01 -0.58831785307E+01  0.77297148908E+01  0.10500000000E+00 0. -1.
</event>
<event>
11    0  0.3485800E-009  0.9118800E+02  0.7816531E-02  0.1126479E+00
         25   -1    0    0    0    0  0.00000000000E+00  0.00000000000E+00  0.99999998245E-14  0.12500000000E+03  0.12500000000E+03 0.  0.
    3000001    1    3    3    0    0 -0.11559348301E+02 -0.20896638111E+02  0.51958351196E+02  0.57192292107E+02  0.10000000000E+01 0. -1.
    1000022    2    1    0    0    0 -0.13161988266E+02 -0.19867098984E+02  0.56906159458E+02  0.62499995284E+02  0.99999434546E+01 0.  0.
    3000022    2    3    3    0    0 -0.16026399652E+01  0.10295391273E+01  0.49478082624E+01  0.53077031770E+01  0.25000148221E+00 0.  0.
    1000022    2    1    0    0    0  0.13161988266E+02  0.19867098984E+02 -0.56906159458E+02  0.62500004716E+02  0.10000002404E+02 0.  0.
    3000022    2    5    5    0    0  0.53534315472E+01  0.57170486840E+01 -0.90111475203E+01  0.11941823874E+02  0.25000564598E+00 0.  0.
        -13    1    4    4    0    0 -0.79419974199E+00  0.58181621354E+00  0.24658245633E+01  0.26571750250E+01  0.10500000000E+00 0. -1.
         13    1    4    4    0    0 -0.80844022321E+00  0.44772291375E+00  0.24819836991E+01  0.26505281520E+01  0.10500000000E+00 0.  1.
    3000001    1    5    5    0    0  0.78085567187E+01  0.14150050300E+02 -0.47895011938E+02  0.50558180842E+02  0.10000000000E+01 0.  1.
        -13    1    6    6    0    0  0.39745626896E+01  0.42845883905E+01 -0.67090760054E+01  0.88981780212E+01  0.10500000000E+00 0.  1.
         13    1    6    6    0    0  0.13788688576E+01  0.14324602935E+01 -0.23020715149E+01  0.30436458530E+01  0.10500000000E+00 0. -1.
</event>
<event>
11    0  0.3485800E-009  0.9118800E+02  0.7816531E-02  0.1126479E+00
         25   -1    0    0    0    0  0.00000000000E+00  0.00000000000E+00  0.99999998245E-14  0.12500000000E+03  0.12500000000E+03 0.  0.
    3000001    1    3    3    0    0 -0.43841793065E+02  0.10535196384E+02 -0.37870735318E+02  0.58892153769E+02  0.10000000000E+01 0.  1.
    1000022    2    1    0    0    0 -0.44471973608E+02  0.12262099018E+02 -0.40965039930E+02  0.62499999224E+02  0.99999948819E+01 0.  0.
    3000022    2    3    3    0    0 -0.63018054305E+00  0.17269026346E+01 -0.30943046115E+01  0.36078454552E+01  0.25001514659E+00 0.  0.
    1000022    2    1    0    0    0  0.44471973608E+02 -0.12262099018E+02  0.40965039930E+02  0.62500000776E+02  0.10000004581E+02 0.  0.
    3000022    2    5    5    0    0  0.28714900071E+02 -0.10085642706E+02  0.21113031192E+02  0.37041709799E+02  0.25000770561E+00 0.  0.
        -13    1    4    4    0    0 -0.47612159666E+00  0.12824905549E+01 -0.23468079386E+01  0.27184566024E+01  0.10500000000E+00 0.  1.
         13    1    4    4    0    0 -0.15405894639E+00  0.44441207964E+00 -0.74749667294E+00  0.88938885284E+00  0.10500000000E+00 0. -1.
    3000001    1    5    5    0    0  0.15757073537E+02 -0.21764563118E+01  0.19852008738E+02  0.25458290977E+02  0.10000000000E+01 0.  1.
        -13    1    6    6    0    0  0.11748842259E+02 -0.41496261710E+01  0.85707437321E+01  0.15123602908E+02  0.10500000000E+00 0.  1.
         13    1    6    6    0    0  0.16966057811E+02 -0.59360165353E+01  0.12542287460E+02  0.21918106891E+02  0.10500000000E+00 0. -1.
</event>
<event>
11    0  0.3485800E-009  0.9118800E+02  0.7816531E-02  0.1126479E+00
         25   -1    0    0    0    0  0.00000000000E+00  0.00000000000E+00  0.99999998245E-14  0.12500000000E+03  0.12500000000E+03 0.  0.
    3000001    1    3    3    0    0 -0.69373053212E+01  0.11007766683E+02  0.40898921823E+01  0.13675684645E+02  0.10000000000E+01 0.  1.
    1000022    2    1    0    0    0 -0.14962039229E+02  0.57632232411E+02  0.16152811416E+02  0.62499999062E+02  0.99999867786E+01 0.  0.
    3000022    2    3    3    0    0 -0.80247339077E+01  0.46624465728E+02  0.12062919234E+02  0.48824314417E+02  0.24999816985E+00 0.  0.
    1000022    2    1    0    0    0  0.14962039229E+02 -0.57632232411E+02 -0.16152811416E+02  0.62500000938E+02  0.99999984999E+01 0.  0.
    3000022    2    5    5    0    0  0.11769177194E+01 -0.17153208387E+00  0.60279844214E-01  0.12168386063E+01  0.25000792008E+00 0.  0.
        -13    1    4    4    0    0 -0.53564766379E+01  0.30799585970E+02  0.79709044711E+01  0.32262248542E+02  0.10500000000E+00 0. -1.
         13    1    4    4    0    0 -0.26682572698E+01  0.15824879758E+02  0.40920147628E+01  0.16562065874E+02  0.10500000000E+00 0.  1.
    3000001    1    5    5    0    0  0.13785121510E+02 -0.57460700327E+02 -0.16213091260E+02  0.61283162331E+02  0.10000000000E+01 0. -1.
        -13    1    6    6    0    0  0.68906162488E+00 -0.10633651912E+00  0.99398235675E-01  0.71205223645E+00  0.10500000000E+00 0. -1.
         13    1    6    6    0    0  0.48785609451E+00 -0.65195564753E-01 -0.39118391461E-01  0.50478636983E+00  0.10500000000E+00 0.  1.
</event>
<event>
11    0  0.3485800E-009  0.9118800E+02  0.7816531E-02  0.1126479E+00
         25   -1    0    0    0    0  0.00000000000E+00  0.00000000000E+00  0.99999998245E-14  0.12500000000E+03  0.12500000000E+03 0.  0.
    3000001    1    3    3    0    0 -0.59800036125E+00  0.58784887359E+01  0.68765981490E+01  0.91215040620E+01  0.10000000000E+01 0. -1.
    1000022    2    1    0    0    0 -0.11915410651E+02  0.53025234760E+02  0.29199271762E+02  0.62499998790E+02  0.99999922504E+01 0.  0.
    3000022    2    3    3    0    0 -0.11317410290E+02  0.47146746024E+02  0.22322673613E+02  0.53378494728E+02  0.25001177660E+00 0.  0.
    1000022    2    1    0    0    0  0.11915410651E+02 -0.53025234760E+02 -0.29199271762E+02  0.62500001210E+02  0.10000007371E+02 0.  0.
    3000022    2    5    5    0    0  0.89492481261E+01 -0.44042219904E+02 -0.27900408230E+02  0.52898974051E+02  0.25000021473E+00 0.  0.
        -13    1    4    4    0    0 -0.68640304878E+01  0.28336567246E+02  0.13443247003E+02  0.32106196798E+02  0.10500000000E+00 0.  1.
         13    1    4    4    0    0 -0.44533798020E+01  0.18810178779E+02  0.88794266096E+01  0.21272297931E+02  0.10500000000E+00 0. -1.
    3000001    1    5    5    0    0  0.29661625250E+01 -0.89830148566E+01 -0.12988635314E+01  0.96010271592E+01  0.10000000000E+01 0. -1.
        -13    1    6    6    0    0  0.50510632024E+01 -0.25162582091E+02 -0.15961539652E+02  0.30223344454E+02  0.10500000000E+00 0. -1.
         13    1    6    6    0    0  0.38981849237E+01 -0.18879637813E+02 -0.11938868578E+02  0.22675629596E+02  0.10500000000E+00 0.  1.
</event>
<event>
11    0  0.3485800E-009  0.9118800E+02  0.7816531E-02  0.1126479E+00
         25   -1    0    0    0    0  0.00000000000E+00  0.00000000000E+00  0.99999998245E-14  0.12500000000E+03  0.12500000000E+03 0.  0.
    3000001    1    3    3    0    0  0.28022208101E+01 -0.32150046248E+02  0.20282129941E+02  0.38129289400E+02  0.10000000000E+01 0.  1.
    1000022    2    1    0    0    0  0.51117021011E+01 -0.47421740908E+02  0.39131816010E+02  0.62499999819E+02  0.99999972036E+01 0.  0.
    3000022    2    3    3    0    0  0.23094812911E+01 -0.15271694660E+02  0.18849686068E+02  0.24370710419E+02  0.24999965694E+00 0.  0.
    1000022    2    1    0    0    0 -0.51117021011E+01  0.47421740908E+02 -0.39131816010E+02  0.62500000181E+02  0.99999994619E+01 0.  0.
    3000022    2    5    5    0    0 -0.35160747883E+01  0.90112735160E+01 -0.12100666859E+02  0.15493691496E+02  0.25001084629E+00 0.  0.
        -13    1    4    4    0    0  0.70578021118E+00 -0.43850910176E+01  0.54188865716E+01  0.70073180045E+01  0.10500000000E+00 0. -1.
         13    1    4    4    0    0  0.16037010799E+01 -0.10886603643E+02  0.13430799496E+02  0.17363392414E+02  0.10500000000E+00 0.  1.
    3000001    1    5    5    0    0 -0.15956273128E+01  0.38410467392E+02 -0.27031149150E+02  0.47006308685E+02  0.10000000000E+01 0. -1.
        -13    1    6    6    0    0 -0.20999213677E+01  0.52987376009E+01 -0.72198202520E+01  0.91990825295E+01  0.10500000000E+00 0. -1.
         13    1    6    6    0    0 -0.14161534206E+01  0.37125359151E+01 -0.48808466074E+01  0.62946089661E+01  0.10500000000E+00 0.  1.
</event>
<event>
11    0  0.3485800E-009  0.9118800E+02  0.7816531E-02  0.1126479E+00
         25   -1    0    0    0    0  0.00000000000E+00  0.00000000000E+00  0.99999998245E-14  0.12500000000E+03  0.12500000000E+03 0.  0.
    3000001    1    3    3    0    0  0.12148461280E+02 -0.47515100584E+01 -0.29508265679E+00  0.13086215384E+02  0.10000000000E+01 0. -1.
    1000022    2    1    0    0    0  0.58828098319E+02 -0.10133768374E+02 -0.15582412378E+02  0.62500000552E+02  0.10000004009E+02 0.  0.
    3000022    2    3    3    0    0  0.46679637039E+02 -0.53822583156E+01 -0.15287329722E+02  0.49413785167E+02  0.24999183298E+00 0.  0.
    1000022    2    1    0    0    0 -0.58828098319E+02  0.10133768374E+02  0.15582412378E+02  0.62499999448E+02  0.99999971133E+01 0.  0.
    3000022    2    5    5    0    0 -0.17468536716E+02  0.76195749371E+01  0.41880871630E+01  0.19514360547E+02  0.24999254309E+00 0.  0.
        -13    1    4    4    0    0  0.14201571027E+02 -0.15926778092E+01 -0.46337124601E+01  0.15023433643E+02  0.10500000000E+00 0.  1.
         13    1    4    4    0    0  0.32478066011E+02 -0.37895805064E+01 -0.10653617261E+02  0.34390351525E+02  0.10500000000E+00 0. -1.
    3000001    1    5    5    0    0 -0.41359561603E+02  0.25141934370E+01  0.11394325215E+02  0.42985638901E+02  0.10000000000E+01 0. -1.
        -13    1    6    6    0    0 -0.84805684670E+01  0.36601421372E+01  0.19709217778E+01  0.94452231123E+01  0.10500000000E+00 0. -1.
         13    1    6    6    0    0 -0.89879682489E+01  0.39594327999E+01  0.22171653852E+01  0.10069137435E+02  0.10500000000E+00 0.  1.
</event>
<event>
11    0  0.3485800E-009  0.9118800E+02  0.7816531E-02  0.1126479E+00
         25   -1    0    0    0    0  0.00000000000E+00  0.00000000000E+00  0.99999998245E-14  0.12500000000E+03  0.12500000000E+03 0.  0.
    3000001    1    3    3    0    0  0.41511957521E+02 -0.40665924291E+00  0.38186858976E+01  0.41701203231E+02  0.10000000000E+01 0.  1.
    1000022    2    1    0    0    0  0.61638887548E+02  0.25814988783E+01 -0.48306169252E+00  0.62499999700E+02  0.10000000965E+02 0.  0.
    3000022    2    3    3    0    0  0.20126930027E+02  0.29881581212E+01 -0.43017475901E+01  0.20798796469E+02  0.25000189485E+00 0.  0.
    1000022    2    1    0    0    0 -0.61638887548E+02 -0.25814988783E+01  0.48306169252E+00  0.62500000300E+02  0.10000004718E+02 0.  0.
    3000022    2    5    5    0    0 -0.36055315657E+02 -0.13971206595E+01 -0.45846031150E+01  0.36373325635E+02  0.24999756131E+00 0.  0.
        -13    1    4    4    0    0  0.15504500199E+02  0.23061502590E+01 -0.33098661109E+01  0.16021051592E+02  0.10500000000E+00 0.  1.
         13    1    4    4    0    0  0.46224298279E+01  0.68200786220E+00 -0.99188147916E+00  0.47777448767E+01  0.10500000000E+00 0. -1.
    3000001    1    5    5    0    0 -0.25583571891E+02 -0.11843782189E+01  0.50676648076E+01  0.26126674665E+02  0.10000000000E+01 0.  1.
        -13    1    6    6    0    0 -0.13531534584E+02 -0.50494088611E+00 -0.17780137337E+01  0.13657589514E+02  0.10500000000E+00 0. -1.
         13    1    6    6    0    0 -0.22523781073E+02 -0.89217977336E+00 -0.28065893814E+01  0.22715736121E+02  0.10500000000E+00 0.  1.
</event>
<event>
11    0  0.3485800E-009  0.9118800E+02  0.7816531E-02  0.1126479E+00
         25   -1    0    0    0    0  0.00000000000E+00  0.00000000000E+00  0.99999998245E-14  0.12500000000E+03  0.12500000000E+03 0.  0.
    3000001    1    3    3    0    0 -0.14794940918E+01 -0.11089879323E+02 -0.78519420996E+01  0.13705010795E+02  0.10000000000E+01 0.  1.
    1000022    2    1    0    0    0 -0.40956648429E+01 -0.37667980188E+02 -0.48688800950E+02  0.62500003725E+02  0.99999962902E+01 0.  0.
    3000022    2    3    3    0    0 -0.26161707511E+01 -0.26578100865E+02 -0.40836858850E+02  0.48794992930E+02  0.24999863739E+00 0.  0.
    1000022    2    1    0    0    0  0.40956648429E+01  0.37667980188E+02  0.48688800950E+02  0.62499996275E+02  0.99999497246E+01 0.  0.
    3000022    2    5    5    0    0  0.70173276137E+01  0.23392820851E+02  0.27704857281E+02  0.36933569474E+02  0.24996593852E+00 0.  0.
        -13    1    4    4    0    0 -0.18967410434E+01 -0.18833313260E+02 -0.28955993188E+02  0.34594101831E+02  0.10500000000E+00 0.  1.
         13    1    4    4    0    0 -0.71942970771E+00 -0.77447876051E+01 -0.11880865662E+02  0.14200891099E+02  0.10500000000E+00 0. -1.
    3000001    1    5    5    0    0 -0.29216627707E+01  0.14275159337E+02  0.20983943669E+02  0.25566426800E+02  0.10000000000E+01 0. -1.
        -13    1    6    6    0    0  0.29447375750E+01  0.97887474941E+01  0.11499040031E+02  0.15386032742E+02  0.10500000000E+00 0.  1.
         13    1    6    6    0    0  0.40725900386E+01  0.13604073357E+02  0.16205817249E+02  0.21547536733E+02  0.10500000000E+00 0. -1.
</event>
<event>
11    0  0.3485800E-009  0.9118800E+02  0.7816531E-02  0.1126479E+00
         25   -1    0    0    0    0  0.00000000000E+00  0.00000000000E+00  0.99999998245E-14  0.12500000000E+03  0.12500000000E+03 0.  0.
    3000001    1    3    3    0    0  0.23371880490E+02 -0.72719432973E+01  0.14449484960E+02  0.28441405953E+02  0.10000000000E+01 0. -1.
    1000022    2    1    0    0    0  0.43949750176E+02 -0.20847636752E+02  0.37947932982E+02  0.62499998639E+02  0.99999856773E+01 0.  0.
    3000022    2    3    3    0    0  0.20577869686E+02 -0.13575693455E+02  0.23498448021E+02  0.34058592686E+02  0.25000544206E+00 0.  0.
    1000022    2    1    0    0    0 -0.43949750176E+02  0.20847636752E+02 -0.37947932982E+02  0.62500001361E+02  0.10000002695E+02 0.  0.
    3000022    2    5    5    0    0 -0.24100077981E+02  0.10616207696E+02 -0.26595915896E+02  0.37428904084E+02  0.24998810253E+00 0.  0.
        -13    1    4    4    0    0  0.11439577529E+02 -0.76071421343E+01  0.13154395248E+02  0.19020559530E+02  0.10500000000E+00 0. -1.
         13    1    4    4    0    0  0.91382921575E+01 -0.59685513204E+01  0.10344052773E+02  0.15038033156E+02  0.10500000000E+00 0.  1.
    3000001    1    5    5    0    0 -0.19849672195E+02  0.10231429056E+02 -0.11352017086E+02  0.25071097278E+02  0.10000000000E+01 0. -1.
        -13    1    6    6    0    0 -0.16013363230E+02  0.71097674616E+01 -0.17717975255E+02  0.24918151365E+02  0.10500000000E+00 0.  1.
         13    1    6    6    0    0 -0.80867147506E+01  0.35064402345E+01 -0.88779406404E+01  0.12510752719E+02  0.10500000000E+00 0. -1.
</event>
<event>
11    0  0.3485800E-009  0.9118800E+02  0.7816531E-02  0.1126479E+00
         25   -1    0    0    0    0  0.00000000000E+00  0.00000000000E+00  0.99999998245E-14  0.12500000000E+03  0.12500000000E+03 0.  0.
    3000001    1    3    3    0    0  0.32234394850E+00 -0.40649972954E+00 -0.10590496699E+01  0.15461998107E+01  0.10000000000E+01 0. -1.
    1000022    2    1    0    0    0  0.30923598635E+02 -0.51390477949E+02 -0.14456827866E+02  0.62500000205E+02  0.99999988665E+01 0.  0.
    3000022    2    3    3    0    0  0.30601254686E+02 -0.50983978219E+02 -0.13397778196E+02  0.60953800394E+02  0.24999692865E+00 0.  0.
    1000022    2    1    0    0    0 -0.30923598635E+02  0.51390477949E+02  0.14456827866E+02  0.62499999795E+02  0.99999963067E+01 0.  0.
    3000022    2    5    5    0    0 -0.13615025719E+02  0.20732851926E+02  0.10920871750E+02  0.27102546280E+02  0.25000150779E+00 0.  0.
        -13    1    4    4    0    0  0.21498642551E+02 -0.35730398333E+02 -0.93999552143E+01  0.42746031156E+02  0.10500000000E+00 0. -1.
         13    1    4    4    0    0  0.91026121356E+01 -0.15253579886E+02 -0.39978229814E+01  0.18207769238E+02  0.10500000000E+00 0.  1.
    3000001    1    5    5    0    0 -0.17308572916E+02  0.30657626023E+02  0.35359561160E+01  0.35397453515E+02  0.10000000000E+01 0. -1.
        -13    1    6    6    0    0 -0.36529369631E+01  0.55000037046E+01  0.29062976289E+01  0.72146781019E+01  0.10500000000E+00 0.  1.
         13    1    6    6    0    0 -0.99620887555E+01  0.15232848222E+02  0.80145741208E+01  0.19887868178E+02  0.10500000000E+00 0. -1.
</event>
<event>
11    0  0.3485800E-009  0.9118800E+02  0.7816531E-02  0.1126479E+00
         25   -1    0    0    0    0  0.00000000000E+00  0.00000000000E+00  0.99999998245E-14  0.12500000000E+03  0.12500000000E+03 0.  0.
    3000001    1    3    3    0    0  0.40741295112E+01 -0.15645475735E+02 -0.13224524944E+02  0.20910942166E+02  0.10000000000E+01 0.  1.
    1000022    2    1    0    0    0  0.24501296814E+02 -0.40371755932E+02 -0.39699592108E+02  0.62500000530E+02  0.10000011508E+02 0.  0.
    3000022    2    3    3    0    0  0.20427167302E+02 -0.24726280197E+02 -0.26475067163E+02  0.41589058365E+02  0.24999592200E+00 0.  0.
    1000022    2    1    0    0    0 -0.24501296814E+02  0.40371755932E+02  0.39699592108E+02  0.62499999470E+02  0.10000004877E+02 0.  0.
    3000022    2    5    5    0    0 -0.19228334906E+02  0.25560986772E+02  0.22094038939E+02  0.38875467458E+02  0.25001078065E+00 0.  0.
        -13    1    4    4    0    0  0.15322749829E+02 -0.18529836100E+02 -0.19816574117E+02  0.31158451870E+02  0.10500000000E+00 0.  1.
         13    1    4    4    0    0  0.51044174737E+01 -0.61964440978E+01 -0.66584930462E+01  0.10430606495E+02  0.10500000000E+00 0. -1.
    3000001    1    5    5    0    0 -0.52729619073E+01  0.14810769161E+02  0.17605553169E+02  0.23624532012E+02  0.10000000000E+01 0. -1.
        -13    1    6    6    0    0 -0.87278579582E+01  0.11609756328E+02  0.10113873118E+02  0.17699248599E+02  0.10500000000E+00 0. -1.
         13    1    6    6    0    0 -0.10500476948E+02  0.13951230444E+02  0.11980165821E+02  0.21176218858E+02  0.10500000000E+00 0.  1.
</event>
<event>
11    0  0.3485800E-009  0.9118800E+02  0.7816531E-02  0.1126479E+00
         25   -1    0    0    0    0  0.00000000000E+00  0.00000000000E+00  0.99999998245E-14  0.12500000000E+03  0.12500000000E+03 0.  0.
    3000001    1    3    3    0    0  0.41188520944E+01 -0.12655244255E+02  0.25967004262E+02  0.29195983629E+02  0.10000000000E+01 0.  1.
    1000022    2    1    0    0    0  0.13562453840E+01 -0.33518524535E+02  0.51777593800E+02  0.62499999801E+02  0.99999933393E+01 0.  0.
    3000022    2    3    3    0    0 -0.27626067105E+01 -0.20863280281E+02  0.25810589538E+02  0.33304016171E+02  0.25000189946E+00 0.  0.
    1000022    2    1    0    0    0 -0.13562453840E+01  0.33518524535E+02 -0.51777593800E+02  0.62500000199E+02  0.99999958304E+01 0.  0.
    3000022    2    5    5    0    0  0.17268101238E-01  0.95353710025E+01 -0.23623731582E+02  0.25476789230E+02  0.24999454235E+00 0.  0.
        -13    1    4    4    0    0 -0.13607935413E+01 -0.10531882375E+02  0.13117161866E+02  0.16877300313E+02  0.10500000000E+00 0.  1.
         13    1    4    4    0    0 -0.14018131691E+01 -0.10331397906E+02  0.12693427672E+02  0.16426715859E+02  0.10500000000E+00 0. -1.
    3000001    1    5    5    0    0 -0.13735134852E+01  0.23983153533E+02 -0.28153862218E+02  0.37023210969E+02  0.10000000000E+01 0.  1.
        -13    1    6    6    0    0  0.27832842981E-02  0.37004027012E+01 -0.93341663411E+01  0.10041447813E+02  0.10500000000E+00 0.  1.
         13    1    6    6    0    0  0.14484816940E-01  0.58349683013E+01 -0.14289565241E+02  0.15435341417E+02  0.10500000000E+00 0. -1.
</event>
<event>
11    0  0.3485800E-009  0.9118800E+02  0.7816531E-02  0.1126479E+00
         25   -1    0    0    0    0  0.00000000000E+00  0.00000000000E+00  0.99999998245E-14  0.12500000000E+03  0.12500000000E+03 0.  0.
    3000001    1    3    3    0    0 -0.52600572536E+01  0.44600870264E+02  0.21149896799E+02  0.49651021794E+02  0.10000000000E+01 0. -1.
    1000022    2    1    0    0    0 -0.11133471393E+02  0.55541221827E+02  0.24443158329E+02  0.62500004504E+02  0.10000053331E+02 0.  0.
    3000022    2    3    3    0    0 -0.58734141396E+01  0.10940351563E+02  0.32932615302E+01  0.12848982710E+02  0.24999839088E+00 0.  0.
    1000022    2    1    0    0    0  0.11133471393E+02 -0.55541221827E+02 -0.24443158329E+02  0.62499995496E+02  0.99999970295E+01 0.  0.
    3000022    2    5    5    0    0  0.22856807237E+01 -0.15513484385E+02 -0.11676759135E+02  0.19552537913E+02  0.25000161675E+00 0.  0.
        -13    1    4    4    0    0 -0.31530535272E+01  0.57511659577E+01  0.17755337881E+01  0.67956752167E+01  0.10500000000E+00 0. -1.
         13    1    4    4    0    0 -0.27203606124E+01  0.51891856056E+01  0.15177277421E+01  0.60533074934E+01  0.10500000000E+00 0.  1.
    3000001    1    5    5    0    0  0.88477906695E+01 -0.40027737442E+02 -0.12766399194E+02  0.42947457583E+02  0.10000000000E+01 0. -1.
        -13    1    6    6    0    0  0.11953399425E+01 -0.78127734615E+01 -0.59499247352E+01  0.98934774520E+01  0.10500000000E+00 0.  1.
         13    1    6    6    0    0  0.10903407812E+01 -0.77007109234E+01 -0.57268343996E+01  0.96590604608E+01  0.10500000000E+00 0. -1.
</event>
<event>
11    0  0.3485800E-009  0.9118800E+02  0.7816531E-02  0.1126479E+00
         25   -1    0    0    0    0  0.00000000000E+00  0.00000000000E+00  0.99999998245E-14  0.12500000000E+03  0.12500000000E+03 0.  0.
    3000001    1    3    3    0    0  0.57686619197E+01  0.26323214473E+01  0.58987045614E+00  0.64462798342E+01  0.10000000000E+01 0. -1.
    1000022    2    1    0    0    0  0.49854497376E+02  0.17489582237E+02  0.31857394684E+02  0.62500000826E+02  0.10000005591E+02 0.  0.
    3000022    2    3    3    0    0  0.44085835456E+02  0.14857260789E+02  0.31267524228E+02  0.56053720992E+02  0.24995937341E+00 0.  0.
    1000022    2    1    0    0    0 -0.49854497376E+02 -0.17489582237E+02 -0.31857394684E+02  0.62499999174E+02  0.99999952618E+01 0.  0.
    3000022    2    5    5    0    0 -0.42985873005E+02 -0.14582682738E+02 -0.23031074228E+02  0.50901206209E+02  0.24999917960E+00 0.  0.
        -13    1    4    4    0    0  0.24133076601E+02  0.81448965659E+01  0.17197955847E+02  0.30733132555E+02  0.10500000000E+00 0. -1.
         13    1    4    4    0    0  0.19952758855E+02  0.67123642236E+01  0.14069568381E+02  0.25320588437E+02  0.10500000000E+00 0.  1.
    3000001    1    5    5    0    0 -0.68686243709E+01 -0.29068994982E+01 -0.88263204564E+01  0.11598792965E+02  0.10000000000E+01 0. -1.
        -13    1    6    6    0    0 -0.98956793404E+01 -0.33508402768E+01 -0.53054225011E+01  0.11717983320E+02  0.10500000000E+00 0. -1.
         13    1    6    6    0    0 -0.33090193664E+02 -0.11231842462E+02 -0.17725651727E+02  0.39183222889E+02  0.10500000000E+00 0.  1.
</event>
<event>
11    0  0.3485800E-009  0.9118800E+02  0.7816531E-02  0.1126479E+00
         25   -1    0    0    0    0  0.00000000000E+00  0.00000000000E+00  0.99999998245E-14  0.12500000000E+03  0.12500000000E+03 0.  0.
    3000001    1    3    3    0    0 -0.27972559070E+02  0.16171644050E+02 -0.38721961136E+01  0.32557334580E+02  0.10000000000E+01 0.  1.
    1000022    2    1    0    0    0 -0.53134497884E+02  0.26970144117E+02 -0.15987063185E+02  0.62500000980E+02  0.10000019710E+02 0.  0.
    3000022    2    3    3    0    0 -0.25161938813E+02  0.10798500067E+02 -0.12114867071E+02  0.29942666400E+02  0.24999688860E+00 0.  0.
    1000022    2    1    0    0    0  0.53134497884E+02 -0.26970144117E+02  0.15987063185E+02  0.62499999020E+02  0.10000007458E+02 0.  0.
    3000022    2    5    5    0    0  0.51831812319E+02 -0.25031720779E+02  0.13906851088E+02  0.59216440419E+02  0.24999058602E+00 0.  0.
        -13    1    4    4    0    0 -0.10038595572E+02  0.43765477332E+01 -0.48399026829E+01  0.11973439527E+02  0.10500000000E+00 0. -1.
         13    1    4    4    0    0 -0.15123343241E+02  0.64219523338E+01 -0.72749643886E+01  0.17969226873E+02  0.10500000000E+00 0.  1.
    3000001    1    5    5    0    0  0.13026855647E+01 -0.19384233378E+01  0.20802120968E+01  0.32835586008E+01  0.10000000000E+01 0.  1.
        -13    1    6    6    0    0  0.13425148950E+02 -0.64549803179E+01  0.35812839010E+01  0.15321162313E+02  0.10500000000E+00 0.  1.
         13    1    6    6    0    0  0.38406663369E+02 -0.18576740461E+02  0.10325567187E+02  0.43895278107E+02  0.10500000000E+00 0. -1.
</event>
<event>
11    0  0.3485800E-009  0.9118800E+02  0.7816531E-02  0.1126479E+00
         25   -1    0    0    0    0  0.00000000000E+00  0.00000000000E+00  0.99999998245E-14  0.12500000000E+03  0.12500000000E+03 0.  0.
    3000001    1    3    3    0    0  0.32862704159E+01 -0.30976228133E+02  0.19613165367E+02  0.36823939744E+02  0.10000000000E+01 0.  1.
    1000022    2    1    0    0    0  0.87061282087E+01 -0.55219262551E+02  0.26101462582E+02  0.62500000146E+02  0.10000002210E+02 0.  0.
    3000022    2    3    3    0    0  0.54198577927E+01 -0.24243034419E+02  0.64882972153E+01  0.25676060402E+02  0.25000135542E+00 0.  0.
    1000022    2    1    0    0    0 -0.87061282087E+01  0.55219262551E+02 -0.26101462582E+02  0.62499999854E+02  0.10000000385E+02 0.  0.
    3000022    2    5    5    0    0 -0.72136583676E+01  0.50938786398E+02 -0.26442717919E+02  0.57845282082E+02  0.25000301099E+00 0.  0.
        -13    1    4    4    0    0  0.28170981197E+01 -0.12362345883E+02  0.33565059582E+01  0.13116432244E+02  0.10500000000E+00 0. -1.
         13    1    4    4    0    0  0.26027596730E+01 -0.11880688536E+02  0.31317912571E+01  0.12559628158E+02  0.10500000000E+00 0.  1.
    3000001    1    5    5    0    0 -0.14924698411E+01  0.42804761538E+01  0.34125533701E+00  0.46547177718E+01  0.10000000000E+01 0.  1.
        -13    1    6    6    0    0 -0.45770513458E+01  0.32729043500E+02 -0.16977444154E+02  0.37153523688E+02  0.10500000000E+00 0.  1.
         13    1    6    6    0    0 -0.26366070218E+01  0.18209742898E+02 -0.94652737652E+01  0.20691758394E+02  0.10500000000E+00 0. -1.
</event>
<event>
11    0  0.3485800E-009  0.9118800E+02  0.7816531E-02  0.1126479E+00
         25   -1    0    0    0    0  0.00000000000E+00  0.00000000000E+00  0.99999998245E-14  0.12500000000E+03  0.12500000000E+03 0.  0.
    3000001    1    3    3    0    0 -0.53944340856E+01 -0.26151230272E+02 -0.88377392077E+01  0.28144136124E+02  0.10000000000E+01 0. -1.
    1000022    2    1    0    0    0 -0.68924823270E+01 -0.54276519822E+02 -0.28509711737E+02  0.62499995338E+02  0.99999418660E+01 0.  0.
    3000022    2    3    3    0    0 -0.14980482414E+01 -0.28125289550E+02 -0.19671972529E+02  0.34355859214E+02  0.24999673593E+00 0.  0.
    1000022    2    1    0    0    0  0.68924823270E+01  0.54276519822E+02  0.28509711737E+02  0.62500004662E+02  0.10000000144E+02 0.  0.
    3000022    2    5    5    0    0 -0.25101938148E+01  0.15079432319E+02  0.73579151449E+01  0.16967373655E+02  0.25000287458E+00 0.  0.
        -13    1    4    4    0    0 -0.55333857833E+00 -0.95516198661E+01 -0.66439080771E+01  0.11648698004E+02  0.10500000000E+00 0. -1.
         13    1    4    4    0    0 -0.94470966307E+00 -0.18573669684E+02 -0.13028064452E+02  0.22707161210E+02  0.10500000000E+00 0.  1.
    3000001    1    5    5    0    0  0.94026761418E+01  0.39197087503E+02  0.21151796592E+02  0.45532631007E+02  0.10000000000E+01 0.  1.
        -13    1    6    6    0    0 -0.10237945017E+01  0.59152038459E+01  0.28353175989E+01  0.66398676649E+01  0.10500000000E+00 0. -1.
         13    1    6    6    0    0 -0.14863993131E+01  0.91642284726E+01  0.45225975460E+01  0.10327505990E+02  0.10500000000E+00 0.  1.
</event>
<event>
11    0  0.3485800E-009  0.9118800E+02  0.7816531E-02  0.1126479E+00
         25   -1    0    0    0    0  0.00000000000E+00  0.00000000000E+00  0.99999998245E-14  0.12500000000E+03  0.12500000000E+03 0.  0.
    3000001    1    3    3    0    0  0.41035726147E+02  0.22611241255E+02  0.30241747841E+02  0.55774208770E+02  0.10000000000E+01 0.  1.
    1000022    2    1    0    0    0  0.45417558918E+02  0.27586993282E+02  0.31344111848E+02  0.62500000590E+02  0.99999934929E+01 0.  0.
    3000022    2    3    3    0    0  0.43818327713E+01  0.49757520271E+01  0.11023640062E+01  0.67257918198E+01  0.25000505913E+00 0.  0.
    1000022    2    1    0    0    0 -0.45417558918E+02 -0.27586993282E+02 -0.31344111848E+02  0.62499999410E+02  0.99999861174E+01 0.  0.
    3000022    2    5    5    0    0 -0.42639017488E+02 -0.24135302463E+02 -0.25937400020E+02  0.55438342751E+02  0.24997967280E+00 0.  0.
        -13    1    4    4    0    0  0.17360839942E+01  0.19102704944E+01  0.47688944447E+00  0.26270838470E+01  0.10500000000E+00 0.  1.
         13    1    4    4    0    0  0.26457487771E+01  0.30654815327E+01  0.62547456176E+00  0.40987079728E+01  0.10500000000E+00 0. -1.
    3000001    1    5    5    0    0 -0.27785414298E+01 -0.34516908190E+01 -0.54067118273E+01  0.70616566591E+01  0.10000000000E+01 0. -1.
        -13    1    6    6    0    0 -0.17505285786E+02 -0.99447204481E+01 -0.10594800414E+02  0.22750677266E+02  0.10500000000E+00 0.  1.
         13    1    6    6    0    0 -0.25133731702E+02 -0.14190582015E+02 -0.15342599606E+02  0.32687665485E+02  0.10500000000E+00 0. -1.
</event>
<event>
11    0  0.3485800E-009  0.9118800E+02  0.7816531E-02  0.1126479E+00
         25   -1    0    0    0    0  0.00000000000E+00  0.00000000000E+00  0.99999998245E-14  0.12500000000E+03  0.12500000000E+03 0.  0.
    3000001    1    3    3    0    0  0.53541120807E+01 -0.37740952591E+01  0.40374870113E+00  0.66387743004E+01  0.10000000000E+01 0.  1.
    1000022    2    1    0    0    0  0.32837587634E+02 -0.51125361396E+02 -0.10683640386E+02  0.62499999953E+02  0.10000004131E+02 0.  0.
    3000022    2    3    3    0    0  0.27483475554E+02 -0.47351266137E+02 -0.11087389088E+02  0.55861225652E+02  0.25000258796E+00 0.  0.
    1000022    2    1    0    0    0 -0.32837587634E+02  0.51125361396E+02  0.10683640386E+02  0.62500000047E+02  0.10000004725E+02 0.  0.
    3000022    2    5    5    0    0 -0.44619176128E+01  0.10220165653E+02 -0.14524576872E+01  0.11248672607E+02  0.25001465755E+00 0.  0.
        -13    1    4    4    0    0  0.19640618950E+02 -0.33906719709E+02 -0.79587599648E+01  0.39984652547E+02  0.10500000000E+00 0. -1.
         13    1    4    4    0    0  0.78428566040E+01 -0.13444546428E+02 -0.31286291228E+01  0.15876573105E+02  0.10500000000E+00 0.  1.
    3000001    1    5    5    0    0 -0.28375670022E+02  0.40905195743E+02  0.12136098074E+02  0.51251327440E+02  0.10000000000E+01 0. -1.
        -13    1    6    6    0    0 -0.14386564854E+01  0.31770844605E+01 -0.46763248202E+00  0.35204123751E+01  0.10500000000E+00 0. -1.
         13    1    6    6    0    0 -0.30232611274E+01  0.70430811924E+01 -0.98482520515E+00  0.77282602319E+01  0.10500000000E+00 0.  1.
</event>
<event>
11    0  0.3485800E-009  0.9118800E+02  0.7816531E-02  0.1126479E+00
         25   -1    0    0    0    0  0.00000000000E+00  0.00000000000E+00  0.99999998245E-14  0.12500000000E+03  0.12500000000E+03 0.  0.
    3000001    1    3    3    0    0 -0.25828575250E+02 -0.27391636360E+02  0.33664660554E+01  0.37812036914E+02  0.10000000000E+01 0. -1.
    1000022    2    1    0    0    0 -0.47579065665E+02 -0.38972451025E+02  0.48611389600E+01  0.62500002551E+02  0.10000010926E+02 0.  0.
    3000022    2    3    3    0    0 -0.21750490415E+02 -0.11580814665E+02  0.14946729046E+01  0.24687965637E+02  0.24999721793E+00 0.  0.
    1000022    2    1    0    0    0  0.47579065665E+02  0.38972451025E+02 -0.48611389600E+01  0.62499997449E+02  0.99999790362E+01 0.  0.
    3000022    2    5    5    0    0  0.21649679128E+02  0.21071995370E+02  0.18515847763E+01  0.30269265859E+02  0.24998856402E+00 0.  0.
        -13    1    4    4    0    0 -0.16768797639E+02 -0.89298309886E+01  0.11553142936E+01  0.19033660496E+02  0.10500000000E+00 0. -1.
         13    1    4    4    0    0 -0.49816927759E+01 -0.26509836764E+01  0.33935861102E+00  0.56543051415E+01  0.10500000000E+00 0.  1.
    3000001    1    5    5    0    0  0.25929386537E+02  0.17900455655E+02 -0.67127237363E+01  0.32230731590E+02  0.10000000000E+01 0. -1.
        -13    1    6    6    0    0  0.13399988565E+02  0.12985549449E+02  0.10979778737E+01  0.18692264936E+02  0.10500000000E+00 0. -1.
         13    1    6    6    0    0  0.82496905631E+01  0.80864459209E+01  0.75360690262E+00  0.11577000923E+02  0.10500000000E+00 0.  1.
</event>
<event>
11    0  0.3485800E-009  0.9118800E+02  0.7816531E-02  0.1126479E+00
         25   -1    0    0    0    0  0.00000000000E+00  0.00000000000E+00  0.99999998245E-14  0.12500000000E+03  0.12500000000E+03 0.  0.
    3000001    1    3    3    0    0 -0.27545375039E+02 -0.41013275898E+01 -0.54628297011E+01  0.28397378090E+02  0.10000000000E+01 0.  1.
    1000022    2    1    0    0    0 -0.59541159097E+02  0.93618756988E+00 -0.16131455489E+02  0.62500000181E+02  0.10000004630E+02 0.  0.
    3000022    2    3    3    0    0 -0.31995784058E+02  0.50375151597E+01 -0.10668625788E+02  0.34102622091E+02  0.25000157558E+00 0.  0.
    1000022    2    1    0    0    0  0.59541159097E+02 -0.93618756988E+00  0.16131455489E+02  0.62499999819E+02  0.10000002365E+02 0.  0.
    3000022    2    5    5    0    0  0.54097295664E+02 -0.36401949469E+01  0.14638737984E+02  0.56161584360E+02  0.24998130455E+00 0.  0.
        -13    1    4    4    0    0 -0.11575247101E+02  0.17703898213E+01 -0.38860376308E+01  0.12338271315E+02  0.10500000000E+00 0.  1.
         13    1    4    4    0    0 -0.20420536957E+02  0.32671253385E+01 -0.67825881576E+01  0.21764350776E+02  0.10500000000E+00 0. -1.
    3000001    1    5    5    0    0  0.54438634333E+01  0.27040073770E+01  0.14927175060E+01  0.63384154587E+01  0.10000000000E+01 0. -1.
        -13    1    6    6    0    0  0.34955891229E+02 -0.23261885063E+01  0.94058298595E+01  0.36274042302E+02  0.10500000000E+00 0.  1.
         13    1    6    6    0    0  0.19141404435E+02 -0.13140064406E+01  0.52329081240E+01  0.19887542058E+02  0.10500000000E+00 0. -1.
</event>
<event>
11    0  0.3485800E-009  0.9118800E+02  0.7816531E-02  0.1126479E+00
         25   -1    0    0    0    0  0.00000000000E+00  0.00000000000E+00  0.99999998245E-14  0.12500000000E+03  0.12500000000E+03 0.  0.
    3000001    1    3    3    0    0 -0.69061892605E+00 -0.16494891326E+01  0.17332451336E+01  0.26836370084E+01  0.10000000000E+01 0. -1.
    1000022    2    1    0    0    0 -0.16461402871E+02 -0.59273332360E+02  0.46844807700E+01  0.62499999516E+02  0.99999932893E+01 0.  0.
    3000022    2    3    3    0    0 -0.15770783945E+02 -0.57623843228E+02  0.29512356364E+01  0.59816362507E+02  0.24999448406E+00 0.  0.
    1000022    2    1    0    0    0  0.16461402871E+02  0.59273332360E+02 -0.46844807700E+01  0.62500000484E+02  0.99999993449E+01 0.  0.
    3000022    2    5    5    0    0  0.96235447995E+01  0.31923644392E+02  0.23519349703E+01  0.33426423452E+02  0.25000188015E+00 0.  0.
        -13    1    4    4    0    0 -0.87668272444E+01 -0.32270999489E+02  0.16315538552E+01  0.33480556461E+02  0.10500000000E+00 0.  1.
         13    1    4    4    0    0 -0.70039567005E+01 -0.25352843738E+02  0.13196817811E+01  0.26335806046E+02  0.10500000000E+00 0. -1.
    3000001    1    5    5    0    0  0.68378580715E+01  0.27349687968E+02 -0.70364157403E+01  0.29073577032E+02  0.10000000000E+01 0.  1.
        -13    1    6    6    0    0  0.56013686699E+01  0.18396066152E+02  0.13936723810E+01  0.19280662036E+02  0.10500000000E+00 0.  1.
         13    1    6    6    0    0  0.40221761296E+01  0.13527578240E+02  0.95826258928E+00  0.14145761416E+02  0.10500000000E+00 0. -1.
</event>
<event>
11    0  0.3485800E-009  0.9118800E+02  0.7816531E-02  0.1126479E+00
         25   -1    0    0    0    0  0.00000000000E+00  0.00000000000E+00  0.99999998245E-14  0.12500000000E+03  0.12500000000E+03 0.  0.
    3000001    1    3    3    0    0 -0.10196229867E+02 -0.77692904590E+01 -0.31769961872E+02  0.34273246929E+02  0.10000000000E+01 0.  1.
    1000022    2    1    0    0    0 -0.26202697527E+02 -0.10512427735E+02 -0.54855786529E+02  0.62500000314E+02  0.10000011453E+02 0.  0.
    3000022    2    3    3    0    0 -0.16006467660E+02 -0.27431372756E+01 -0.23085824657E+02  0.28226753385E+02  0.24999501545E+00 0.  0.
    1000022    2    1    0    0    0  0.26202697527E+02  0.10512427735E+02  0.54855786529E+02  0.62499999686E+02  0.10000007523E+02 0.  0.
    3000022    2    5    5    0    0  0.86021054900E+01 -0.12812681236E+01  0.14507798104E+02  0.16916754167E+02  0.24999774144E+00 0.  0.
        -13    1    4    4    0    0 -0.38076961044E+01 -0.67042905176E+00 -0.55000237075E+01  0.67237869181E+01  0.10500000000E+00 0.  1.
         13    1    4    4    0    0 -0.12198771556E+02 -0.20727082238E+01 -0.17585800949E+02  0.21502966467E+02  0.10500000000E+00 0. -1.
    3000001    1    5    5    0    0  0.17600592037E+02  0.11793695858E+02  0.40347988425E+02  0.45583245518E+02  0.10000000000E+01 0. -1.
        -13    1    6    6    0    0  0.27673955218E+01 -0.40149849480E+00  0.45696420596E+01  0.53583889900E+01  0.10500000000E+00 0. -1.
         13    1    6    6    0    0  0.58347099682E+01 -0.87976962883E+00  0.99381560443E+01  0.11558365177E+02  0.10500000000E+00 0.  1.
</event>
<event>
11    0  0.3485800E-009  0.9118800E+02  0.7816531E-02  0.1126479E+00
         25   -1    0    0    0    0  0.00000000000E+00  0.00000000000E+00  0.99999998245E-14  0.12500000000E+03  0.12500000000E+03 0.  0.
    3000001    1    3    3    0    0  0.39790198754E+01  0.40494118703E+02  0.57061020918E+00  0.40705427706E+02  0.10000000000E+01 0. -1.
    1000022    2    1    0    0    0  0.12210655352E+02  0.60417068690E+02 -0.26320711757E+01  0.62500000483E+02  0.99999984229E+01 0.  0.
    3000022    2    3    3    0    0  0.82316354762E+01  0.19922949987E+02 -0.32026813849E+01  0.21794572777E+02  0.24995135379E+00 0.  0.
    1000022    2    1    0    0    0 -0.12210655352E+02 -0.60417068690E+02  0.26320711757E+01  0.62499999517E+02  0.99999923902E+01 0.  0.
    3000022    2    5    5    0    0 -0.14312056160E+01 -0.21420931357E+02 -0.28537538122E+01  0.21658971870E+02  0.25000386624E+00 0.  0.
        -13    1    4    4    0    0  0.18943791577E+01  0.45929657000E+01 -0.74517767022E+00  0.50249697586E+01  0.10500000000E+00 0. -1.
         13    1    4    4    0    0  0.63372563185E+01  0.15329984287E+02 -0.24575037146E+01  0.16769603019E+02  0.10500000000E+00 0.  1.
    3000001    1    5    5    0    0 -0.10779449736E+02 -0.38996137333E+02  0.54858249878E+01  0.40841027647E+02  0.10000000000E+01 0. -1.
        -13    1    6    6    0    0 -0.70835253607E+00 -0.11582572166E+02 -0.15273562856E+01  0.11704767555E+02  0.10500000000E+00 0. -1.
         13    1    6    6    0    0 -0.72285307996E+00 -0.98383591917E+01 -0.13263975266E+01  0.99542043157E+01  0.10500000000E+00 0.  1.
</event>
<event>
11    0  0.3485800E-009  0.9118800E+02  0.7816531E-02  0.1126479E+00
         25   -1    0    0    0    0  0.00000000000E+00  0.00000000000E+00  0.99999998245E-14  0.12500000000E+03  0.12500000000E+03 0.  0.
    3000001    1    3    3    0    0 -0.15574991272E+02 -0.85442344341E+01  0.31432609847E+02  0.36119153603E+02  0.10000000000E+01 0.  1.
    1000022    2    1    0    0    0 -0.21919055717E+02 -0.21534111628E+02  0.53498476904E+02  0.62500000010E+02  0.10000000152E+02 0.  0.
    3000022    2    3    3    0    0 -0.63440644450E+01 -0.12989877193E+02  0.22065867058E+02  0.26380846407E+02  0.25000995835E+00 0.  0.
    1000022    2    1    0    0    0  0.21919055717E+02  0.21534111628E+02 -0.53498476904E+02  0.62499999990E+02  0.10000000027E+02 0.  0.
    3000022    2    5    5    0    0  0.12165609043E+02  0.13035374851E+02 -0.21260288107E+02  0.27748610583E+02  0.24999595405E+00 0.  0.
        -13    1    4    4    0    0 -0.16887419558E+01 -0.34716597044E+01  0.59568083258E+01  0.70992155149E+01  0.10500000000E+00 0. -1.
         13    1    4    4    0    0 -0.46553224891E+01 -0.95182174890E+01  0.16109058732E+02  0.19281630892E+02  0.10500000000E+00 0.  1.
    3000001    1    5    5    0    0  0.97534466739E+01  0.84987367771E+01 -0.32238188797E+02  0.34751389407E+02  0.10000000000E+01 0.  1.
        -13    1    6    6    0    0  0.65017868160E+01  0.70646989465E+01 -0.11439251208E+02  0.14934881861E+02  0.10500000000E+00 0. -1.
         13    1    6    6    0    0  0.56638222273E+01  0.59706759040E+01 -0.98210368996E+01  0.12813728722E+02  0.10500000000E+00 0.  1.
</event>
<event>
11    0  0.3485800E-009  0.9118800E+02  0.7816531E-02  0.1126479E+00
         25   -1    0    0    0    0  0.00000000000E+00  0.00000000000E+00  0.99999998245E-14  0.12500000000E+03  0.12500000000E+03 0.  0.
    3000001    1    3    3    0    0 -0.18791095652E+02  0.15359347478E+01  0.38527641198E+02  0.42905052239E+02  0.10000000000E+01 0. -1.
    1000022    2    1    0    0    0 -0.32585702765E+02  0.38773347911E+01  0.52243548664E+02  0.62499999672E+02  0.99999916081E+01 0.  0.
    3000022    2    3    3    0    0 -0.13794607113E+02  0.23414000434E+01  0.13715907466E+02  0.19594947433E+02  0.25001540929E+00 0.  0.
    1000022    2    1    0    0    0  0.32585702765E+02 -0.38773347911E+01 -0.52243548664E+02  0.62500000328E+02  0.99999957120E+01 0.  0.
    3000022    2    5    5    0    0  0.32552741825E+01  0.20928269173E+01 -0.99292324415E+01  0.10659685620E+02  0.25001226297E+00 0.  0.
        -13    1    4    4    0    0 -0.55561483006E+01  0.10053630205E+01  0.55130623486E+01  0.78921746180E+01  0.10500000000E+00 0. -1.
         13    1    4    4    0    0 -0.82384588123E+01  0.13360370228E+01  0.82028451176E+01  0.11702772815E+02  0.10500000000E+00 0.  1.
    3000001    1    5    5    0    0  0.29330428583E+02 -0.59701617085E+01 -0.42314316223E+02  0.51840314708E+02  0.10000000000E+01 0. -1.
        -13    1    6    6    0    0  0.12185670753E+01  0.72138767057E+00 -0.37118986550E+01  0.39742323175E+01  0.10500000000E+00 0.  1.
         13    1    6    6    0    0  0.20367071072E+01  0.13714392468E+01 -0.62173337865E+01  0.66854533026E+01  0.10500000000E+00 0. -1.
</event>
<event>
11    0  0.3485800E-009  0.9118800E+02  0.7816531E-02  0.1126479E+00
         25   -1    0    0    0    0  0.00000000000E+00  0.00000000000E+00  0.99999998245E-14  0.12500000000E+03  0.12500000000E+03 0.  0.
    3000001    1    3    3    0    0  0.74815230877E+01  0.27786602010E+01 -0.64866617753E+01  0.10333001559E+02  0.10000000000E+01 0. -1.
    1000022    2    1    0    0    0  0.54276876571E+02  0.21472125695E+02 -0.19980453810E+02  0.62499999940E+02  0.99999972928E+01 0.  0.
    3000022    2    3    3    0    0  0.46795353483E+02  0.18693465494E+02 -0.13493792035E+02  0.52166998381E+02  0.25007363092E+00 0.  0.
    1000022    2    1    0    0    0 -0.54276876571E+02 -0.21472125695E+02  0.19980453810E+02  0.62500000060E+02  0.99999980468E+01 0.  0.
    3000022    2    5    5    0    0 -0.12116446817E+02 -0.29845453082E+01  0.46848380220E+00  0.12489906687E+02  0.24999563779E+00 0.  0.
        -13    1    4    4    0    0  0.24177077456E+02  0.97284725105E+01 -0.69970842818E+01  0.26984152111E+02  0.10500000000E+00 0. -1.
         13    1    4    4    0    0  0.22618276027E+02  0.89649929832E+01 -0.64967077532E+01  0.25182846270E+02  0.10500000000E+00 0.  1.
    3000001    1    5    5    0    0 -0.42160429754E+02 -0.18487580386E+02  0.19511970008E+02  0.50010093373E+02  0.10000000000E+01 0.  1.
        -13    1    6    6    0    0 -0.80583493030E+01 -0.19295225853E+01  0.30627598561E+00  0.82924592780E+01  0.10500000000E+00 0.  1.
         13    1    6    6    0    0 -0.40580975141E+01 -0.10550227229E+01  0.16220781659E+00  0.41974474095E+01  0.10500000000E+00 0. -1.
</event>
<event>
11    0  0.3485800E-009  0.9118800E+02  0.7816531E-02  0.1126479E+00
         25   -1    0    0    0    0  0.00000000000E+00  0.00000000000E+00  0.99999998245E-14  0.12500000000E+03  0.12500000000E+03 0.  0.
    3000001    1    3    3    0    0 -0.48918099807E+02 -0.11595525117E+02 -0.19598709788E+02  0.53968010124E+02  0.10000000000E+01 0. -1.
    1000022    2    1    0    0    0 -0.57224655208E+02 -0.13353081988E+02 -0.18795858334E+02  0.62500005821E+02  0.10000023738E+02 0.  0.
    3000022    2    3    3    0    0 -0.83065554018E+01 -0.17575568706E+01  0.80285145403E+00  0.85319956961E+01  0.25002260911E+00 0.  0.
    1000022    2    1    0    0    0  0.57224655208E+02  0.13353081988E+02  0.18795858334E+02  0.62499994179E+02  0.99999509807E+01 0.  0.
    3000022    2    5    5    0    0  0.18918248922E+02 -0.25845042734E+00  0.67233365674E+01  0.20080654733E+02  0.25000201304E+00 0.  0.
        -13    1    4    4    0    0 -0.56489871124E+01 -0.11986421718E+01  0.59680191696E+00  0.58064615713E+01  0.10500000000E+00 0. -1.
         13    1    4    4    0    0 -0.26575682894E+01 -0.55891469882E+00  0.20604953707E+00  0.27255341248E+01  0.10500000000E+00 0.  1.
    3000001    1    5    5    0    0  0.38306406287E+02  0.13611532415E+02  0.12072521767E+02  0.42419339447E+02  0.10000000000E+01 0. -1.
        -13    1    6    6    0    0  0.74132144910E+01 -0.56067696658E-01  0.26798266410E+01  0.78836151924E+01  0.10500000000E+00 0.  1.
         13    1    6    6    0    0  0.11505034431E+02 -0.20238273069E+00  0.40435099264E+01  0.12197039540E+02  0.10500000000E+00 0. -1.
</event>
<event>
11    0  0.3485800E-009  0.9118800E+02  0.7816531E-02  0.1126479E+00
         25   -1    0    0    0    0  0.00000000000E+00  0.00000000000E+00  0.99999998245E-14  0.12500000000E+03  0.12500000000E+03 0.  0.
    3000001    1    3    3    0    0 -0.14404134701E+02  0.22277863098E+02 -0.50578916621E+02  0.57122754549E+02  0.10000000000E+01 0. -1.
    1000022    2    1    0    0    0 -0.17808107765E+02  0.22211734662E+02 -0.54733537656E+02  0.62500000745E+02  0.10000004495E+02 0.  0.
    3000022    2    3    3    0    0 -0.34039730637E+01 -0.66128436378E-01 -0.41546210352E+01  0.53772461960E+01  0.24999023469E+00 0.  0.
    1000022    2    1    0    0    0  0.17808107765E+02 -0.22211734662E+02  0.54733537656E+02  0.62499999255E+02  0.99999951795E+01 0.  0.
    3000022    2    5    5    0    0  0.26854737039E+01  0.59994931569E+00  0.43316946274E+01  0.51378796324E+01  0.25004114936E+00 0.  0.
        -13    1    4    4    0    0 -0.22659887231E+01 -0.62219404117E-01 -0.26827411340E+01  0.35137872928E+01  0.10500000000E+00 0.  1.
         13    1    4    4    0    0 -0.11379843406E+01 -0.39090322611E-02 -0.14718799013E+01  0.18634589032E+01  0.10500000000E+00 0. -1.
    3000001    1    5    5    0    0  0.15122634061E+02 -0.22811683978E+02  0.50401843029E+02  0.57362119622E+02  0.10000000000E+01 0. -1.
        -13    1    6    6    0    0  0.11892402748E+01  0.29886262489E+00  0.18235948951E+01  0.22000306000E+01  0.10500000000E+00 0.  1.
         13    1    6    6    0    0  0.14962334291E+01  0.30108669080E+00  0.25080997323E+01  0.29378490324E+01  0.10500000000E+00 0. -1.
</event>
<event>
11    0  0.3485800E-009  0.9118800E+02  0.7816531E-02  0.1126479E+00
         25   -1    0    0    0    0  0.00000000000E+00  0.00000000000E+00  0.99999998245E-14  0.12500000000E+03  0.12500000000E+03 0.  0.
    3000001    1    3    3    0    0 -0.16145737300E+02 -0.56703002708E+01 -0.73663139571E+01  0.18657430676E+02  0.10000000000E+01 0.  1.
    1000022    2    1    0    0    0 -0.50096563812E+02 -0.31545137106E+02 -0.17363412020E+02  0.62499992914E+02  0.99999828226E+01 0.  0.
    3000022    2    3    3    0    0 -0.33950826512E+02 -0.25874836835E+02 -0.99970980634E+01  0.43842562237E+02  0.24998358856E+00 0.  0.
    1000022    2    1    0    0    0  0.50096563812E+02  0.31545137106E+02  0.17363412020E+02  0.62500007086E+02  0.10000071402E+02 0.  0.
    3000022    2    5    5    0    0  0.61917293151E+01  0.25323513620E+01  0.52048420504E+01  0.84795752805E+01  0.25000167036E+00 0.  0.
        -13    1    4    4    0    0 -0.14758087178E+02 -0.11330207414E+02 -0.43531156649E+01  0.19108515855E+02  0.10500000000E+00 0. -1.
         13    1    4    4    0    0 -0.19192739334E+02 -0.14544629421E+02 -0.56439823985E+01  0.24734046383E+02  0.10500000000E+00 0.  1.
    3000001    1    5    5    0    0  0.43904834497E+02  0.29012785744E+02  0.12158569970E+02  0.54020431806E+02  0.10000000000E+01 0. -1.
        -13    1    6    6    0    0  0.42227578855E+01  0.17688234639E+01  0.36004126826E+01  0.58253254922E+01  0.10500000000E+00 0.  1.
         13    1    6    6    0    0  0.19689714296E+01  0.76352789818E+00  0.16044293678E+01  0.26542497882E+01  0.10500000000E+00 0. -1.
</event>
<event>
11    0  0.3485800E-009  0.9118800E+02  0.7816531E-02  0.1126479E+00
         25   -1    0    0    0    0  0.00000000000E+00  0.00000000000E+00  0.99999998245E-14  0.12500000000E+03  0.12500000000E+03 0.  0.
    3000001    1    3    3    0    0 -0.50121662230E+01  0.11442118466E+02  0.23863349319E+01  0.12756899296E+02  0.10000000000E+01 0. -1.
    1000022    2    1    0    0    0 -0.82903654445E+01  0.61075436692E+02  0.27038721660E+01  0.62500001306E+02  0.10000005617E+02 0.  0.
    3000022    2    3    3    0    0 -0.32781992214E+01  0.49633318225E+02  0.31753723409E+00  0.49743102010E+02  0.24999904255E+00 0.  0.
    1000022    2    1    0    0    0  0.82903654445E+01 -0.61075436692E+02 -0.27038721660E+01  0.62499998694E+02  0.99999892861E+01 0.  0.
    3000022    2    5    5    0    0  0.83396968202E+01 -0.44776233308E+02  0.17268337430E+01  0.45579667155E+02  0.24998173142E+00 0.  0.
        -13    1    4    4    0    0 -0.13317284765E+01  0.20934296092E+02  0.93505232479E-01  0.20977083254E+02  0.10500000000E+00 0. -1.
         13    1    4    4    0    0 -0.19464707450E+01  0.28699022133E+02  0.22403200161E+00  0.28766018757E+02  0.10500000000E+00 0.  1.
    3000001    1    5    5    0    0 -0.49331375760E-01 -0.16299203383E+02 -0.44307059090E+01  0.16920331538E+02  0.10000000000E+01 0.  1.
        -13    1    6    6    0    0  0.20774861090E+01 -0.11059306664E+02  0.40936089620E+00  0.11260675547E+02  0.10500000000E+00 0.  1.
         13    1    6    6    0    0  0.62622107112E+01 -0.33716926644E+02  0.13174728468E+01  0.34318991609E+02  0.10500000000E+00 0. -1.
</event>
<event>
11    0  0.3485800E-009  0.9118800E+02  0.7816531E-02  0.1126479E+00
         25   -1    0    0    0    0  0.00000000000E+00  0.00000000000E+00  0.99999998245E-14  0.12500000000E+03  0.12500000000E+03 0.  0.
    3000001    1    3    3    0    0  0.13986261684E+02  0.50488925607E+02  0.29143780812E+02  0.59959211844E+02  0.10000000000E+01 0.  1.
    1000022    2    1    0    0    0  0.14476922144E+02  0.50988111906E+02  0.31573426472E+02  0.62499999358E+02  0.99999914997E+01 0.  0.
    3000022    2    3    3    0    0  0.49066045959E+00  0.49918629842E+00  0.24296456607E+01  0.25407875140E+01  0.24997701395E+00 0.  0.
    1000022    2    1    0    0    0 -0.14476922144E+02 -0.50988111906E+02 -0.31573426472E+02  0.62500000642E+02  0.99999995308E+01 0.  0.
    3000022    2    5    5    0    0  0.55471291868E+00 -0.12633815567E+02 -0.59685204115E+01  0.13985947888E+02  0.25000042347E+00 0.  0.
        -13    1    4    4    0    0  0.27262412248E+00  0.22280410728E+00  0.14062971322E+01  0.14534999850E+01  0.10500000000E+00 0. -1.
         13    1    4    4    0    0  0.21803633712E+00  0.27638219114E+00  0.10233485285E+01  0.10872875290E+01  0.10500000000E+00 0.  1.
    3000001    1    5    5    0    0 -0.15031635062E+02 -0.38354296339E+02 -0.25604906061E+02  0.48514052754E+02  0.10000000000E+01 0.  1.
        -13    1    6    6    0    0  0.31400591863E+00 -0.82059691564E+01 -0.38392680648E+01  0.90657340456E+01  0.10500000000E+00 0. -1.
         13    1    6    6    0    0  0.24070700005E+00 -0.44278464110E+01 -0.21292523466E+01  0.49202138424E+01  0.10500000000E+00 0.  1.
</event>
<event>
11    0  0.3485800E-009  0.9118800E+02  0.7816531E-02  0.1126479E+00
         25   -1    0    0    0    0  0.00000000000E+00  0.00000000000E+00  0.99999998245E-14  0.12500000000E+03  0.12500000000E+03 0.  0.
    3000001    1    3    3    0    0  0.37539173773E+02  0.40024286438E+02 -0.49312749899E+01  0.55103997545E+02  0.10000000000E+01 0. -1.
    1000022    2    1    0    0    0  0.43729945099E+02  0.42803394341E+02 -0.78620202118E+01  0.62500000452E+02  0.10000001459E+02 0.  0.
    3000022    2    3    3    0    0  0.61907713268E+01  0.27791079031E+01 -0.29307452219E+01  0.73960029072E+01  0.25000218042E+00 0.  0.
    1000022    2    1    0    0    0 -0.43729945099E+02 -0.42803394341E+02  0.78620202118E+01  0.62499999548E+02  0.99999958090E+01 0.  0.
    3000022    2    5    5    0    0  0.38441634785E+00 -0.14344972398E+01  0.42311400675E-03  0.15060060552E+01  0.24999159961E+00 0.  0.
        -13    1    4    4    0    0  0.43319702410E+01  0.19413737893E+01 -0.20993838584E+01  0.51916602300E+01  0.10500000000E+00 0. -1.
         13    1    4    4    0    0  0.18588010858E+01  0.83773411377E+00 -0.83136136352E+00  0.22043426772E+01  0.10500000000E+00 0.  1.
    3000001    1    5    5    0    0 -0.44114361447E+02 -0.41368897101E+02  0.78615970978E+01  0.60993993493E+02  0.10000000000E+01 0. -1.
        -13    1    6    6    0    0  0.21674095900E+00 -0.58654184381E+00 -0.29707196531E-01  0.63475624878E+00  0.10500000000E+00 0.  1.
         13    1    6    6    0    0  0.16767538885E+00 -0.84795539596E+00  0.30130310538E-01  0.87124980642E+00  0.10500000000E+00 0. -1.
</event>
<event>
11    0  0.3485800E-009  0.9118800E+02  0.7816531E-02  0.1126479E+00
         25   -1    0    0    0    0  0.00000000000E+00  0.00000000000E+00  0.99999998245E-14  0.12500000000E+03  0.12500000000E+03 0.  0.
    3000001    1    3    3    0    0  0.44364089533E+01  0.22115144394E+02  0.30671680859E+01  0.22785277177E+02  0.10000000000E+01 0. -1.
    1000022    2    1    0    0    0  0.24210479572E+02  0.55905725326E+02  0.97289578908E+01  0.62499999715E+02  0.99999948703E+01 0.  0.
    3000022    2    3    3    0    0  0.19774070619E+02  0.33790580931E+02  0.66617898049E+01  0.39714722538E+02  0.25002860402E+00 0.  0.
    1000022    2    1    0    0    0 -0.24210479572E+02 -0.55905725326E+02 -0.97289578908E+01  0.62500000285E+02  0.99999984335E+01 0.  0.
    3000022    2    5    5    0    0 -0.39399557147E+01 -0.51487201686E+01  0.15814421572E+01  0.66780255866E+01  0.24999206120E+00 0.  0.
        -13    1    4    4    0    0  0.66793638117E+01  0.11495587908E+02  0.22258027144E+01  0.13480640378E+02  0.10500000000E+00 0. -1.
         13    1    4    4    0    0  0.13094706807E+02  0.22294993023E+02  0.44359870905E+01  0.26234082159E+02  0.10500000000E+00 0.  1.
    3000001    1    5    5    0    0 -0.20270523857E+02 -0.50757005157E+02 -0.11310400048E+02  0.55821974698E+02  0.10000000000E+01 0.  1.
        -13    1    6    6    0    0 -0.22454627410E+01 -0.29808345266E+01  0.84971219748E+00  0.38289049628E+01  0.10500000000E+00 0.  1.
         13    1    6    6    0    0 -0.16944929737E+01 -0.21678856420E+01  0.73172995970E+00  0.28491206237E+01  0.10500000000E+00 0. -1.
</event>
<event>
11    0  0.3485800E-009  0.9118800E+02  0.7816531E-02  0.1126479E+00
         25   -1    0    0    0    0  0.00000000000E+00  0.00000000000E+00  0.99999998245E-14  0.12500000000E+03  0.12500000000E+03 0.  0.
    3000001    1    3    3    0    0  0.11309058201E+02 -0.24844199360E+02 -0.34000187988E+02  0.43613550904E+02  0.10000000000E+01 0. -1.
    1000022    2    1    0    0    0  0.97077436004E+01 -0.36072568088E+02 -0.49099691012E+02  0.62500000579E+02  0.99999980267E+01 0.  0.
    3000022    2    3    3    0    0 -0.16013146003E+01 -0.11228368729E+02 -0.15099503024E+02  0.18886449675E+02  0.25003397674E+00 0.  0.
    1000022    2    1    0    0    0 -0.97077436004E+01  0.36072568088E+02  0.49099691012E+02  0.62499999421E+02  0.99999907908E+01 0.  0.
    3000022    2    5    5    0    0 -0.94110672019E+01  0.24672968680E+02  0.27958483360E+02  0.38458586306E+02  0.24999902724E+00 0.  0.
        -13    1    4    4    0    0 -0.87050131980E+00 -0.60362532223E+01 -0.80081411007E+01  0.10066552260E+02  0.10500000000E+00 0.  1.
         13    1    4    4    0    0 -0.73081328052E+00 -0.51921155062E+01 -0.70913619233E+01  0.88198974148E+01  0.10500000000E+00 0. -1.
    3000001    1    5    5    0    0 -0.29667639856E+00  0.11399599408E+02  0.21141207653E+02  0.24041413115E+02  0.10000000000E+01 0.  1.
        -13    1    6    6    0    0 -0.44865693492E+01  0.11761320955E+02  0.13229301270E+02  0.18261528201E+02  0.10500000000E+00 0. -1.
         13    1    6    6    0    0 -0.49244978526E+01  0.12911647725E+02  0.14729182089E+02  0.20197058105E+02  0.10500000000E+00 0.  1.
</event>
<event>
11    0  0.3485800E-009  0.9118800E+02  0.7816531E-02  0.1126479E+00
         25   -1    0    0    0    0  0.00000000000E+00  0.00000000000E+00  0.99999998245E-14  0.12500000000E+03  0.12500000000E+03 0.  0.
    3000001    1    3    3    0    0 -0.99502296927E+01 -0.24724503827E+02 -0.22847317528E+01  0.26768043627E+02  0.10000000000E+01 0. -1.
    1000022    2    1    0    0    0 -0.24755872781E+02 -0.56204260276E+02  0.58717608092E+01  0.62500004155E+02  0.10000041699E+02 0.  0.
    3000022    2    3    3    0    0 -0.14805643088E+02 -0.31479756449E+02  0.81564925620E+01  0.35731960528E+02  0.24999777062E+00 0.  0.
    1000022    2    1    0    0    0  0.24755872781E+02  0.56204260276E+02 -0.58717608092E+01  0.62499995845E+02  0.99999897638E+01 0.  0.
    3000022    2    5    5    0    0  0.12494058333E+02  0.23783213603E+02 -0.71436211758E+01  0.27799938356E+02  0.25001236324E+00 0.  0.
        -13    1    4    4    0    0 -0.48557652032E+01 -0.10448749180E+02  0.27055044922E+01  0.11835776049E+02  0.10500000000E+00 0. -1.
         13    1    4    4    0    0 -0.99498778852E+01 -0.21031007270E+02  0.54509880698E+01  0.23896184479E+02  0.10500000000E+00 0.  1.
    3000001    1    5    5    0    0  0.12261814448E+02  0.32421046674E+02  0.12718603667E+01  0.34700057489E+02  0.10000000000E+01 0.  1.
        -13    1    6    6    0    0  0.42707692908E+01  0.81786461983E+01 -0.25057469163E+01  0.95613553736E+01  0.10500000000E+00 0. -1.
         13    1    6    6    0    0  0.82232890419E+01  0.15604567405E+02 -0.46378742595E+01  0.18238582982E+02  0.10500000000E+00 0.  1.
</event>
<event>
11    0  0.3485800E-009  0.9118800E+02  0.7816531E-02  0.1126479E+00
         25   -1    0    0    0    0  0.00000000000E+00  0.00000000000E+00  0.99999998245E-14  0.12500000000E+03  0.12500000000E+03 0.  0.
    3000001    1    3    3    0    0 -0.30532648458E+02  0.68312607040E+01 -0.25871098044E+01  0.31410219384E+02  0.10000000000E+01 0. -1.
    1000022    2    1    0    0    0 -0.57723291524E+02  0.21769971759E+02 -0.58316222787E+00  0.62499999865E+02  0.99999925098E+01 0.  0.
    3000022    2    3    3    0    0 -0.27190643067E+02  0.14938711055E+02  0.20039475765E+01  0.31089780481E+02  0.24997218740E+00 0.  0.
    1000022    2    1    0    0    0  0.57723291524E+02 -0.21769971759E+02  0.58316222787E+00  0.62500000135E+02  0.99999941942E+01 0.  0.
    3000022    2    5    5    0    0  0.33178329762E+02 -0.13176258751E+02  0.51747851138E+01  0.36072929697E+02  0.24999102306E+00 0.  0.
        -13    1    4    4    0    0 -0.16919745646E+02  0.93037265321E+01  0.11869837911E+01  0.19345724996E+02  0.10500000000E+00 0.  1.
         13    1    4    4    0    0 -0.10270897421E+02  0.56349845228E+01  0.81696378541E+00  0.11744055484E+02  0.10500000000E+00 0. -1.
    3000001    1    5    5    0    0  0.24544961762E+02 -0.85937130079E+01 -0.45916228860E+01  0.26427070437E+02  0.10000000000E+01 0.  1.
        -13    1    6    6    0    0  0.12886102291E+02 -0.50937070038E+01  0.19502987891E+01  0.13993290309E+02  0.10500000000E+00 0.  1.
         13    1    6    6    0    0  0.20292227471E+02 -0.80825517473E+01  0.32244863248E+01  0.22079639388E+02  0.10500000000E+00 0. -1.
</event>
<event>
11    0  0.3485800E-009  0.9118800E+02  0.7816531E-02  0.1126479E+00
         25   -1    0    0    0    0  0.00000000000E+00  0.00000000000E+00  0.99999998245E-14  0.12500000000E+03  0.12500000000E+03 0.  0.
    3000001    1    3    3    0    0  0.19964144005E+02  0.13755590499E+02  0.26346870714E+01  0.24407476146E+02  0.10000000000E+01 0. -1.
    1000022    2    1    0    0    0  0.52520711602E+02  0.27839867482E+02  0.16515641259E+02  0.62499999555E+02  0.10000008478E+02 0.  0.
    3000022    2    3    3    0    0  0.32556567597E+02  0.14084276983E+02  0.13880954187E+02  0.38092523409E+02  0.24999741398E+00 0.  0.
    1000022    2    1    0    0    0 -0.52520711602E+02 -0.27839867482E+02 -0.16515641259E+02  0.62500000445E+02  0.10000014042E+02 0.  0.
    3000022    2    5    5    0    0 -0.23044348863E+02 -0.11920155329E+02 -0.21483630429E+01  0.26034785805E+02  0.24998121113E+00 0.  0.
        -13    1    4    4    0    0  0.20722691878E+02  0.90187813487E+01  0.88771959149E+01  0.24281351033E+02  0.10500000000E+00 0. -1.
         13    1    4    4    0    0  0.11833875719E+02  0.50654956345E+01  0.50037582722E+01  0.13811172376E+02  0.10500000000E+00 0.  1.
    3000001    1    5    5    0    0 -0.29476362739E+02 -0.15919712154E+02 -0.14367278216E+02  0.36465214640E+02  0.10000000000E+01 0. -1.
        -13    1    6    6    0    0 -0.13048318734E+02 -0.67565071706E+01 -0.11510374174E+01  0.14739230749E+02  0.10500000000E+00 0.  1.
         13    1    6    6    0    0 -0.99960301285E+01 -0.51636481581E+01 -0.99732562547E+00  0.11295555057E+02  0.10500000000E+00 0. -1.
</event>
<event>
11    0  0.3485800E-009  0.9118800E+02  0.7816531E-02  0.1126479E+00
         25   -1    0    0    0    0  0.00000000000E+00  0.00000000000E+00  0.99999998245E-14  0.12500000000E+03  0.12500000000E+03 0.  0.
    3000001    1    3    3    0    0 -0.16108130641E+02  0.37017671379E+02  0.17131758727E+02  0.43866582089E+02  0.10000000000E+01 0. -1.
    1000022    2    1    0    0    0 -0.21751908208E+02  0.49430097540E+02  0.29829032314E+02  0.62499987704E+02  0.99998620313E+01 0.  0.
    3000022    2    3    3    0    0 -0.56437775664E+01  0.12412426161E+02  0.12697273587E+02  0.18633405614E+02  0.24999966234E+00 0.  0.
    1000022    2    1    0    0    0  0.21751908208E+02 -0.49430097540E+02 -0.29829032314E+02  0.62500012296E+02  0.10000015738E+02 0.  0.
    3000022    2    5    5    0    0  0.12558259691E+02 -0.38528899825E+02 -0.23699749236E+02  0.46945996875E+02  0.25000115481E+00 0.  0.
        -13    1    4    4    0    0 -0.42895164025E+01  0.94189854135E+01  0.96629040450E+01  0.14159801438E+02  0.10500000000E+00 0.  1.
         13    1    4    4    0    0 -0.13542611640E+01  0.29934407473E+01  0.30343695418E+01  0.44736041761E+01  0.10500000000E+00 0. -1.
    3000001    1    5    5    0    0  0.91936485166E+01 -0.10901197715E+02 -0.61292830782E+01  0.15554015421E+02  0.10000000000E+01 0. -1.
        -13    1    6    6    0    0  0.88652499478E+01 -0.27159170850E+02 -0.16658725871E+02  0.33071700750E+02  0.10500000000E+00 0.  1.
         13    1    6    6    0    0  0.36930097433E+01 -0.11369728975E+02 -0.70410233649E+01  0.13874296125E+02  0.10500000000E+00 0. -1.
</event>
<event>
11    0  0.3485800E-009  0.9118800E+02  0.7816531E-02  0.1126479E+00
         25   -1    0    0    0    0  0.00000000000E+00  0.00000000000E+00  0.99999998245E-14  0.12500000000E+03  0.12500000000E+03 0.  0.
    3000001    1    3    3    0    0 -0.15146665954E+02 -0.22362836424E+01 -0.47548996395E+02  0.49963281640E+02  0.10000000000E+01 0.  1.
    1000022    2    1    0    0    0 -0.16055037697E+02 -0.68276603322E+01 -0.59176590219E+02  0.62500000391E+02  0.10000001890E+02 0.  0.
    3000022    2    3    3    0    0 -0.90837174314E+00 -0.45913766898E+01 -0.11627593824E+02  0.12536718751E+02  0.24999953311E+00 0.  0.
    1000022    2    1    0    0    0  0.16055037697E+02  0.68276603322E+01  0.59176590219E+02  0.62499999609E+02  0.99999970038E+01 0.  0.
    3000022    2    5    5    0    0  0.11218481608E+02  0.81747374156E+00  0.24474914656E+02  0.26937084873E+02  0.25000218905E+00 0.  0.
        -13    1    4    4    0    0 -0.53349041437E+00 -0.28728384981E+01 -0.71216434060E+01  0.76984831532E+01  0.10500000000E+00 0. -1.
         13    1    4    4    0    0 -0.37488132877E+00 -0.17185381917E+01 -0.45059504184E+01  0.48382355978E+01  0.10500000000E+00 0.  1.
    3000001    1    5    5    0    0  0.48365560886E+01  0.60101865906E+01  0.34701675563E+02  0.35562914736E+02  0.10000000000E+01 0.  1.
        -13    1    6    6    0    0  0.29249071002E+01  0.18116206012E+00  0.63770527320E+01  0.70189548925E+01  0.10500000000E+00 0. -1.
         13    1    6    6    0    0  0.82935745083E+01  0.63631168144E+00  0.18097861924E+02  0.19918129980E+02  0.10500000000E+00 0.  1.
</event>
<event>
11    0  0.3485800E-009  0.9118800E+02  0.7816531E-02  0.1126479E+00
         25   -1    0    0    0    0  0.00000000000E+00  0.00000000000E+00  0.99999998245E-14  0.12500000000E+03  0.12500000000E+03 0.  0.
    3000001    1    3    3    0    0  0.13016329827E+01 -0.13426942020E+01  0.45645403948E+00  0.21691994910E+01  0.10000000000E+01 0. -1.
    1000022    2    1    0    0    0  0.28628687944E+02 -0.45778773909E+02 -0.29848820274E+02  0.62499998136E+02  0.99999890637E+01 0.  0.
    3000022    2    3    3    0    0  0.27327054962E+02 -0.44436079707E+02 -0.30305274314E+02  0.60330798645E+02  0.25000273833E+00 0.  0.
    1000022    2    1    0    0    0 -0.28628687944E+02  0.45778773909E+02  0.29848820274E+02  0.62500001864E+02  0.10000012360E+02 0.  0.
    3000022    2    5    5    0    0 -0.22453639131E+02  0.27709463610E+02  0.17405032045E+02  0.39685991518E+02  0.24999713903E+00 0.  0.
        -13    1    4    4    0    0  0.18205858535E+02 -0.29503362717E+02 -0.20127597283E+02  0.40087814782E+02  0.10500000000E+00 0. -1.
         13    1    4    4    0    0  0.91211964265E+01 -0.14932716989E+02 -0.10177677031E+02  0.20242983863E+02  0.10500000000E+00 0.  1.
    3000001    1    5    5    0    0 -0.61750488134E+01  0.18069310299E+02  0.12443788229E+02  0.22814010345E+02  0.10000000000E+01 0. -1.
        -13    1    6    6    0    0 -0.15959706659E+02  0.19723975268E+02  0.12424732901E+02  0.28251238020E+02  0.10500000000E+00 0. -1.
         13    1    6    6    0    0 -0.64939324725E+01  0.79854883412E+01  0.49802991432E+01  0.11434753498E+02  0.10500000000E+00 0.  1.
</event>
<event>
11    0  0.3485800E-009  0.9118800E+02  0.7816531E-02  0.1126479E+00
         25   -1    0    0    0    0  0.00000000000E+00  0.00000000000E+00  0.99999998245E-14  0.12500000000E+03  0.12500000000E+03 0.  0.
    3000001    1    3    3    0    0 -0.23404423003E+02 -0.34351615194E+02 -0.40502699658E+02  0.58045406039E+02  0.10000000000E+01 0.  1.
    1000022    2    1    0    0    0 -0.25678463963E+02 -0.34382787035E+02 -0.44324828788E+02  0.62499999851E+02  0.99999989214E+01 0.  0.
    3000022    2    3    3    0    0 -0.22740409594E+01 -0.31171841022E-01 -0.38221291301E+01  0.44545938122E+01  0.25000195170E+00 0.  0.
    1000022    2    1    0    0    0  0.25678463963E+02  0.34382787035E+02  0.44324828788E+02  0.62500000149E+02  0.10000000786E+02 0.  0.
    3000022    2    5    5    0    0  0.54445313537E+01  0.10265446208E+02  0.66392727316E+01  0.13385243785E+02  0.25000253702E+00 0.  0.
        -13    1    4    4    0    0 -0.15200007851E+01 -0.49612502496E-01 -0.24602906708E+01  0.28942907546E+01  0.10500000000E+00 0. -1.
         13    1    4    4    0    0 -0.75404017426E+00  0.18440661473E-01 -0.13618384593E+01  0.15603030576E+01  0.10500000000E+00 0.  1.
    3000001    1    5    5    0    0  0.20233932609E+02  0.24117340827E+02  0.37685556057E+02  0.49114756364E+02  0.10000000000E+01 0.  1.
        -13    1    6    6    0    0  0.35456784313E+01  0.67647804518E+01  0.43164040852E+01  0.87736229304E+01  0.10500000000E+00 0.  1.
         13    1    6    6    0    0  0.18988529224E+01  0.35006657562E+01  0.23228686465E+01  0.46116208546E+01  0.10500000000E+00 0. -1.
</event>
<event>
11    0  0.3485800E-009  0.9118800E+02  0.7816531E-02  0.1126479E+00
         25   -1    0    0    0    0  0.00000000000E+00  0.00000000000E+00  0.99999998245E-14  0.12500000000E+03  0.12500000000E+03 0.  0.
    3000001    1    3    3    0    0 -0.18752966281E+02 -0.94846285431E+01  0.38818260757E+01  0.21393935978E+02  0.10000000000E+01 0.  1.
    1000022    2    1    0    0    0 -0.58598577340E+02 -0.14657573039E+02  0.12554399363E+02  0.62499995102E+02  0.99999365322E+01 0.  0.
    3000022    2    3    3    0    0 -0.39845611059E+02 -0.51729444958E+01  0.86725732869E+01  0.41106059124E+02  0.24998767565E+00 0.  0.
    1000022    2    1    0    0    0  0.58598577340E+02  0.14657573039E+02 -0.12554399363E+02  0.62500004898E+02  0.99999977611E+01 0.  0.
    3000022    2    5    5    0    0  0.23675119549E+02  0.19729768415E+01 -0.79159337694E+01  0.25042532374E+02  0.24999403912E+00 0.  0.
        -13    1    4    4    0    0 -0.30330187183E+02 -0.39559572148E+01  0.66004243204E+01  0.31291316339E+02  0.10500000000E+00 0. -1.
         13    1    4    4    0    0 -0.95154238761E+01 -0.12169872809E+01  0.20721489664E+01  0.98147427843E+01  0.10500000000E+00 0.  1.
    3000001    1    5    5    0    0  0.34923457792E+02  0.12684596197E+02 -0.46384655931E+01  0.37457472524E+02  0.10000000000E+01 0. -1.
        -13    1    6    6    0    0  0.61192594823E+01  0.50714757547E+00 -0.20785621456E+01  0.64833618492E+01  0.10500000000E+00 0.  1.
         13    1    6    6    0    0  0.17555860066E+02  0.14658292661E+01 -0.58373716238E+01  0.18559170525E+02  0.10500000000E+00 0. -1.
</event>
<event>
11    0  0.3485800E-009  0.9118800E+02  0.7816531E-02  0.1126479E+00
         25   -1    0    0    0    0  0.00000000000E+00  0.00000000000E+00  0.99999998245E-14  0.12500000000E+03  0.12500000000E+03 0.  0.
    3000001    1    3    3    0    0  0.25490803808E+02  0.36323050169E+02  0.84798440671E+01  0.45189078412E+02  0.10000000000E+01 0. -1.
    1000022    2    1    0    0    0  0.39523976925E+02  0.46399157084E+02  0.95511020909E+01  0.62499999113E+02  0.99999903964E+01 0.  0.
    3000022    2    3    3    0    0  0.14033173118E+02  0.10076106915E+02  0.10712580238E+01  0.17310920701E+02  0.25000691172E+00 0.  0.
    1000022    2    1    0    0    0 -0.39523976925E+02 -0.46399157084E+02 -0.95511020909E+01  0.62500000887E+02  0.10000001480E+02 0.  0.
    3000022    2    5    5    0    0 -0.30161776824E+02 -0.38464910311E+02 -0.41564117562E+01  0.49057317137E+02  0.24999914466E+00 0.  0.
        -13    1    4    4    0    0  0.47447929237E+01  0.34185796327E+01  0.41643931393E+00  0.58638036543E+01  0.10500000000E+00 0. -1.
         13    1    4    4    0    0  0.92883801941E+01  0.66575272821E+01  0.65481870989E+00  0.11447117047E+02  0.10500000000E+00 0.  1.
    3000001    1    5    5    0    0 -0.93622001010E+01 -0.79342467733E+01 -0.53946903348E+01  0.13442683750E+02  0.10000000000E+01 0. -1.
        -13    1    6    6    0    0 -0.12104468108E+02 -0.15438598519E+02 -0.17315797769E+01  0.19694615151E+02  0.10500000000E+00 0. -1.
         13    1    6    6    0    0 -0.18057308716E+02 -0.23026311791E+02 -0.24248319793E+01  0.29362701986E+02  0.10500000000E+00 0.  1.
</event>
<event>
11    0  0.3485800E-009  0.9118800E+02  0.7816531E-02  0.1126479E+00
         25   -1    0    0    0    0  0.00000000000E+00  0.00000000000E+00  0.99999998245E-14  0.12500000000E+03  0.12500000000E+03 0.  0.
    3000001    1    3    3    0    0  0.16165739520E+02 -0.11677888584E+02  0.20053498324E+01  0.20068025413E+02  0.10000000000E+01 0.  1.
    1000022    2    1    0    0    0  0.40208285498E+02 -0.46446909617E+02  0.56770192004E+01  0.62500000397E+02  0.99999933462E+01 0.  0.
    3000022    2    3    3    0    0  0.24042545978E+02 -0.34769021033E+02  0.36716693680E+01  0.42431974984E+02  0.25000879615E+00 0.  0.
    1000022    2    1    0    0    0 -0.40208285498E+02  0.46446909617E+02 -0.56770192004E+01  0.62499999603E+02  0.99999883829E+01 0.  0.
    3000022    2    5    5    0    0 -0.33440624671E+02  0.40018747160E+02 -0.13656933679E+01  0.52169944614E+02  0.24999991665E+00 0.  0.
        -13    1    4    4    0    0  0.66919279368E+01 -0.96233918139E+01  0.10417436835E+01  0.11768084994E+02  0.10500000000E+00 0.  1.
         13    1    4    4    0    0  0.17350618041E+02 -0.25145629220E+02  0.26299256845E+01  0.30663889991E+02  0.10500000000E+00 0. -1.
    3000001    1    5    5    0    0 -0.67676608268E+01  0.64281624571E+01 -0.43113258325E+01  0.10330054989E+02  0.10000000000E+01 0.  1.
        -13    1    6    6    0    0 -0.20365764256E+02  0.24285411067E+02 -0.80173930439E+00  0.31704879046E+02  0.10500000000E+00 0. -1.
         13    1    6    6    0    0 -0.13074860416E+02  0.15733336093E+02 -0.56395406352E+00  0.20465065568E+02  0.10500000000E+00 0.  1.
</event>
<event>
11    0  0.3485800E-009  0.9118800E+02  0.7816531E-02  0.1126479E+00
         25   -1    0    0    0    0  0.00000000000E+00  0.00000000000E+00  0.99999998245E-14  0.12500000000E+03  0.12500000000E+03 0.  0.
    3000001    1    3    3    0    0  0.45149330973E+01 -0.38598550370E+02 -0.10196153914E+02  0.40189479546E+02  0.10000000000E+01 0. -1.
    1000022    2    1    0    0    0  0.70218464153E+01 -0.56981029293E+02 -0.22585519586E+02  0.62499994699E+02  0.99999807996E+01 0.  0.
    3000022    2    3    3    0    0  0.25069133180E+01 -0.18382478923E+02 -0.12389365673E+02  0.22310515153E+02  0.25011772672E+00 0.  0.
    1000022    2    1    0    0    0 -0.70218464153E+01  0.56981029293E+02  0.22585519586E+02  0.62500005301E+02  0.10000047062E+02 0.  0.
    3000022    2    5    5    0    0  0.59169195751E+00  0.27668619958E+02  0.76291494873E+01  0.28708344879E+02  0.25002797527E+00 0.  0.
        -13    1    4    4    0    0  0.11671864570E+01 -0.90356266229E+01 -0.61096218255E+01  0.10970112877E+02  0.10500000000E+00 0. -1.
         13    1    4    4    0    0  0.13397268610E+01 -0.93468523001E+01 -0.62797438471E+01  0.11340402275E+02  0.10500000000E+00 0.  1.
    3000001    1    5    5    0    0 -0.76135383728E+01  0.29312409335E+02  0.14956370099E+02  0.33791660422E+02  0.10000000000E+01 0. -1.
        -13    1    6    6    0    0  0.20755678884E+00  0.11288782412E+02  0.30564117802E+01  0.11697536755E+02  0.10500000000E+00 0. -1.
         13    1    6    6    0    0  0.38413516867E+00  0.16379837547E+02  0.45727377071E+01  0.17010808124E+02  0.10500000000E+00 0.  1.
</event>
<event>
11    0  0.3485800E-009  0.9118800E+02  0.7816531E-02  0.1126479E+00
         25   -1    0    0    0    0  0.00000000000E+00  0.00000000000E+00  0.99999998245E-14  0.12500000000E+03  0.12500000000E+03 0.  0.
    3000001    1    3    3    0    0 -0.31458702270E+02  0.19384852754E+02  0.34876806567E+02  0.50821394128E+02  0.10000000000E+01 0. -1.
    1000022    2    1    0    0    0 -0.40759234891E+02  0.25225642196E+02  0.38840722251E+02  0.62500000679E+02  0.10000006339E+02 0.  0.
    3000022    2    3    3    0    0 -0.93005326216E+01  0.58407894423E+01  0.39639156843E+01  0.11678606551E+02  0.24999015568E+00 0.  0.
    1000022    2    1    0    0    0  0.40759234891E+02 -0.25225642196E+02 -0.38840722251E+02  0.62499999321E+02  0.99999978512E+01 0.  0.
    3000022    2    5    5    0    0  0.50526244968E+00  0.68009419490E+00 -0.61071122750E-01  0.88546518407E+00  0.25000130634E+00 0.  0.
        -13    1    4    4    0    0 -0.39527385608E+01  0.25294865787E+01  0.17488484257E+01  0.50091855923E+01  0.10500000000E+00 0. -1.
         13    1    4    4    0    0 -0.53477940608E+01  0.33113028635E+01  0.22150672586E+01  0.66694209592E+01  0.10500000000E+00 0.  1.
    3000001    1    5    5    0    0  0.40253972442E+02 -0.25905736391E+02 -0.38779651128E+02  0.61614534137E+02  0.10000000000E+01 0. -1.
        -13    1    6    6    0    0  0.34484309792E+00  0.49372920022E+00 -0.53181108893E-03  0.61131871242E+00  0.10500000000E+00 0. -1.
         13    1    6    6    0    0  0.16041935177E+00  0.18636499468E+00 -0.60539311661E-01  0.27414647165E+00  0.10500000000E+00 0.  1.
</event>
<event>
11    0  0.3485800E-009  0.9118800E+02  0.7816531E-02  0.1126479E+00
         25   -1    0    0    0    0  0.00000000000E+00  0.00000000000E+00  0.99999998245E-14  0.12500000000E+03  0.12500000000E+03 0.  0.
    3000001    1    3    3    0    0  0.14873590179E+02  0.38193702655E+02 -0.24353215249E+02  0.47687123003E+02  0.10000000000E+01 0. -1.
    1000022    2    1    0    0    0  0.23300626620E+02  0.49841315264E+02 -0.27913690316E+02  0.62499999735E+02  0.99999975793E+01 0.  0.
    3000022    2    3    3    0    0  0.84270364408E+01  0.11647612609E+02 -0.35604750679E+01  0.14812876732E+02  0.25002339852E+00 0.  0.
    1000022    2    1    0    0    0 -0.23300626620E+02 -0.49841315264E+02  0.27913690316E+02  0.62500000265E+02  0.10000000897E+02 0.  0.
    3000022    2    5    5    0    0 -0.19538624212E+02 -0.47419838681E+02  0.24892218451E+02  0.57009508193E+02  0.25009671455E+00 0.  0.
        -13    1    4    4    0    0  0.42868597409E+01  0.58406099684E+01 -0.17465423230E+01  0.74532762143E+01  0.10500000000E+00 0. -1.
         13    1    4    4    0    0  0.41401766999E+01  0.58070026409E+01 -0.18139327449E+01  0.73596005177E+01  0.10500000000E+00 0.  1.
    3000001    1    5    5    0    0 -0.37620024082E+01 -0.24214765829E+01  0.30214718652E+01  0.54904920720E+01  0.10000000000E+01 0. -1.
        -13    1    6    6    0    0 -0.90401473729E+01 -0.21960598612E+02  0.11452017303E+02  0.26365733087E+02  0.10500000000E+00 0. -1.
         13    1    6    6    0    0 -0.10498476839E+02 -0.25459240069E+02  0.13440201149E+02  0.30643775106E+02  0.10500000000E+00 0.  1.
</event>
<event>
11    0  0.3485800E-009  0.9118800E+02  0.7816531E-02  0.1126479E+00
         25   -1    0    0    0    0  0.00000000000E+00  0.00000000000E+00  0.99999998245E-14  0.12500000000E+03  0.12500000000E+03 0.  0.
    3000001    1    3    3    0    0 -0.15085228295E+02  0.74609185587E+01 -0.30631467179E+02  0.34964499138E+02  0.10000000000E+01 0.  1.
    1000022    2    1    0    0    0 -0.29620464303E+02  0.50040814020E+01 -0.53887264838E+02  0.62499999909E+02  0.99999970376E+01 0.  0.
    3000022    2    3    3    0    0 -0.14535236008E+02 -0.24568371567E+01 -0.23255797659E+02  0.27535500771E+02  0.25008665750E+00 0.  0.
    1000022    2    1    0    0    0  0.29620464303E+02 -0.50040814020E+01  0.53887264838E+02  0.62500000091E+02  0.99999981743E+01 0.  0.
    3000022    2    5    5    0    0  0.24777243746E+02 -0.74787660127E+01  0.47120352459E+02  0.53760895307E+02  0.24999923451E+00 0.  0.
        -13    1    4    4    0    0 -0.74445145698E+01 -0.13269737526E+01 -0.11921018010E+02  0.14117483908E+02  0.10500000000E+00 0.  1.
         13    1    4    4    0    0 -0.70907214384E+01 -0.11298634041E+01 -0.11334779649E+02  0.13418016862E+02  0.10500000000E+00 0. -1.
    3000001    1    5    5    0    0  0.48432205571E+01  0.24746846107E+01  0.67669123782E+01  0.87391047837E+01  0.10000000000E+01 0.  1.
        -13    1    6    6    0    0  0.90018258418E+01 -0.26582078083E+01  0.17056674250E+02  0.19468952173E+02  0.10500000000E+00 0. -1.
         13    1    6    6    0    0  0.15775417904E+02 -0.48205582044E+01  0.30063678210E+02  0.34291943135E+02  0.10500000000E+00 0.  1.
</event>
<event>
11    0  0.3485800E-009  0.9118800E+02  0.7816531E-02  0.1126479E+00
         25   -1    0    0    0    0  0.00000000000E+00  0.00000000000E+00  0.99999998245E-14  0.12500000000E+03  0.12500000000E+03 0.  0.
    3000001    1    3    3    0    0 -0.40020810960E+00  0.72675553640E+01  0.40744524904E+01  0.84011124619E+01  0.10000000000E+01 0. -1.
    1000022    2    1    0    0    0  0.16840090108E+02  0.57045703238E+02  0.16384417873E+02  0.62500000376E+02  0.10000000258E+02 0.  0.
    3000022    2    3    3    0    0  0.17240298218E+02  0.49778147874E+02  0.12309965383E+02  0.54098887914E+02  0.25007478500E+00 0.  0.
    1000022    2    1    0    0    0 -0.16840090108E+02 -0.57045703238E+02 -0.16384417873E+02  0.62499999624E+02  0.99999955630E+01 0.  0.
    3000022    2    5    5    0    0 -0.54657274958E+01 -0.66013891196E+01 -0.28910044796E+01  0.90483658168E+01  0.25000337200E+00 0.  0.
        -13    1    4    4    0    0  0.98578219071E+01  0.28303495553E+02  0.69624745350E+01  0.30769328720E+02  0.10500000000E+00 0.  1.
         13    1    4    4    0    0  0.73824763106E+01  0.21474652321E+02  0.53474908477E+01  0.23329559194E+02  0.10500000000E+00 0. -1.
    3000001    1    5    5    0    0 -0.11374362612E+02 -0.50444314118E+02 -0.13493413393E+02  0.53451633808E+02  0.10000000000E+01 0.  1.
        -13    1    6    6    0    0 -0.27838275788E+01 -0.34675288966E+01 -0.14909187272E+01  0.46911956140E+01  0.10500000000E+00 0.  1.
         13    1    6    6    0    0 -0.26818999170E+01 -0.31338602230E+01 -0.14000857524E+01  0.43571702028E+01  0.10500000000E+00 0. -1.
</event>
<event>
11    0  0.3485800E-009  0.9118800E+02  0.7816531E-02  0.1126479E+00
         25   -1    0    0    0    0  0.00000000000E+00  0.00000000000E+00  0.99999998245E-14  0.12500000000E+03  0.12500000000E+03 0.  0.
    3000001    1    3    3    0    0  0.22096466453E+02  0.63982506409E+01  0.99536242314E+01  0.25085176426E+02  0.10000000000E+01 0.  1.
    1000022    2    1    0    0    0  0.56926623968E+02  0.19600829536E+02  0.13469116264E+02  0.62500001669E+02  0.10000004039E+02 0.  0.
    3000022    2    3    3    0    0  0.34830157515E+02  0.13202578895E+02  0.35154920327E+01  0.37414825243E+02  0.25000347971E+00 0.  0.
    1000022    2    1    0    0    0 -0.56926623968E+02 -0.19600829536E+02 -0.13469116264E+02  0.62499998331E+02  0.99999831783E+01 0.  0.
    3000022    2    5    5    0    0 -0.47172499824E+02 -0.12171999234E+02 -0.11239952107E+02  0.49998013276E+02  0.25000640450E+00 0.  0.
        -13    1    4    4    0    0  0.12134204666E+02  0.46422745442E+01  0.12660481139E+01  0.13053870638E+02  0.10500000000E+00 0.  1.
         13    1    4    4    0    0  0.22695952849E+02  0.85603043510E+01  0.22494439188E+01  0.24360954605E+02  0.10500000000E+00 0. -1.
    3000001    1    5    5    0    0 -0.97541241437E+01 -0.74288303022E+01 -0.22291641573E+01  0.12501985055E+02  0.10000000000E+01 0. -1.
        -13    1    6    6    0    0 -0.22494224224E+02 -0.57352482340E+01 -0.53663633796E+01  0.23826289612E+02  0.10500000000E+00 0. -1.
         13    1    6    6    0    0 -0.24678275600E+02 -0.64367509998E+01 -0.58735887272E+01  0.26171723665E+02  0.10500000000E+00 0.  1.
</event>
<event>
11    0  0.3485800E-009  0.9118800E+02  0.7816531E-02  0.1126479E+00
         25   -1    0    0    0    0  0.00000000000E+00  0.00000000000E+00  0.99999998245E-14  0.12500000000E+03  0.12500000000E+03 0.  0.
    3000001    1    3    3    0    0  0.37078863366E+02 -0.15409711412E+01 -0.81461566545E+00  0.37133277519E+02  0.10000000000E+01 0. -1.
    1000022    2    1    0    0    0  0.61002919233E+02 -0.61876204293E+00 -0.91929892935E+01  0.62499998986E+02  0.99999899840E+01 0.  0.
    3000022    2    3    3    0    0  0.23924055866E+02  0.92220909829E+00 -0.83783736280E+01  0.25366721467E+02  0.24998922785E+00 0.  0.
    1000022    2    1    0    0    0 -0.61002919233E+02  0.61876204293E+00  0.91929892935E+01  0.62500001014E+02  0.10000002665E+02 0.  0.
    3000022    2    5    5    0    0 -0.34114750371E+02  0.17210925585E+01  0.36636707744E+00  0.34161016964E+02  0.25000535713E+00 0.  0.
        -13    1    4    4    0    0  0.10313864752E+02  0.36567454551E+00 -0.36723505001E+01  0.10954757286E+02  0.10500000000E+00 0. -1.
         13    1    4    4    0    0  0.13610191114E+02  0.55653455277E+00 -0.47060231280E+01  0.14411964181E+02  0.10500000000E+00 0.  1.
    3000001    1    5    5    0    0 -0.26888168861E+02 -0.11023305156E+01  0.88266222161E+01  0.28338984050E+02  0.10000000000E+01 0. -1.
        -13    1    6    6    0    0 -0.21244405210E+02  0.10115113942E+01  0.22201436561E+00  0.21269890065E+02  0.10500000000E+00 0. -1.
         13    1    6    6    0    0 -0.12870345162E+02  0.70958116432E+00  0.14435271183E+00  0.12891126899E+02  0.10500000000E+00 0.  1.
</event>
<event>
11    0  0.3485800E-009  0.9118800E+02  0.7816531E-02  0.1126479E+00
         25   -1    0    0    0    0  0.00000000000E+00  0.00000000000E+00  0.99999998245E-14  0.12500000000E+03  0.12500000000E+03 0.  0.
    3000001    1    3    3    0    0  0.95446020694E+01 -0.23238289777E+02 -0.17518774494E+02  0.30643514815E+02  0.10000000000E+01 0. -1.
    1000022    2    1    0    0    0  0.24867775608E+02 -0.49344791947E+02 -0.27439668833E+02  0.62500001536E+02  0.10000000519E+02 0.  0.
    3000022    2    3    3    0    0  0.15323173538E+02 -0.26106502170E+02 -0.99208943386E+01  0.31856486721E+02  0.24999781854E+00 0.  0.
    1000022    2    1    0    0    0 -0.24867775608E+02  0.49344791947E+02  0.27439668833E+02  0.62499998464E+02  0.99999813159E+01 0.  0.
    3000022    2    5    5    0    0 -0.10968692709E+02  0.20299493282E+02  0.16910518955E+02  0.28607862546E+02  0.25000163484E+00 0.  0.
        -13    1    4    4    0    0  0.70106281790E+01 -0.11836793536E+02 -0.45496143313E+01  0.14490293449E+02  0.10500000000E+00 0. -1.
         13    1    4    4    0    0  0.83125453594E+01 -0.14269708634E+02 -0.53712800073E+01  0.17366193272E+02  0.10500000000E+00 0.  1.
    3000001    1    5    5    0    0 -0.13899082899E+02  0.29045298665E+02  0.10529149878E+02  0.33892135918E+02  0.10000000000E+01 0. -1.
        -13    1    6    6    0    0 -0.71755037474E+01  0.13166688070E+02  0.10967336870E+02  0.18578025508E+02  0.10500000000E+00 0.  1.
         13    1    6    6    0    0 -0.37931889618E+01  0.71328052124E+01  0.59431820857E+01  0.10029837038E+02  0.10500000000E+00 0. -1.
</event>
<event>
11    0  0.3485800E-009  0.9118800E+02  0.7816531E-02  0.1126479E+00
         25   -1    0    0    0    0  0.00000000000E+00  0.00000000000E+00  0.99999998245E-14  0.12500000000E+03  0.12500000000E+03 0.  0.
    3000001    1    3    3    0    0 -0.99260313355E+01  0.42925612802E+01 -0.72091859649E+01  0.13035510834E+02  0.10000000000E+01 0.  1.
    1000022    2    1    0    0    0 -0.49325031911E+02  0.31673227975E+02 -0.19237934594E+02  0.62499997570E+02  0.99999712719E+01 0.  0.
    3000022    2    3    3    0    0 -0.39399000576E+02  0.27380666695E+02 -0.12028748629E+02  0.49464486737E+02  0.24999902151E+00 0.  0.
    1000022    2    1    0    0    0  0.49325031911E+02 -0.31673227975E+02  0.19237934594E+02  0.62500002430E+02  0.10000001644E+02 0.  0.
    3000022    2    5    5    0    0  0.28270826632E+02 -0.19157077036E+02  0.16199709200E+02  0.37798496245E+02  0.25000235822E+00 0.  0.
        -13    1    4    4    0    0 -0.24045844043E+02  0.16785452643E+02 -0.73430351607E+01  0.30230534672E+02  0.10500000000E+00 0. -1.
         13    1    4    4    0    0 -0.15353156533E+02  0.10595214052E+02 -0.46857134679E+01  0.19233952065E+02  0.10500000000E+00 0.  1.
    3000001    1    5    5    0    0  0.21054205279E+02 -0.12516150939E+02  0.30382253937E+01  0.24701506185E+02  0.10000000000E+01 0.  1.
        -13    1    6    6    0    0  0.68014533540E+01 -0.46126232825E+01  0.38768271266E+01  0.90871818978E+01  0.10500000000E+00 0. -1.
         13    1    6    6    0    0  0.21469373278E+02 -0.14544453754E+02  0.12322882073E+02  0.28711314347E+02  0.10500000000E+00 0.  1.
</event>
<event>
11    0  0.3485800E-009  0.9118800E+02  0.7816531E-02  0.1126479E+00
         25   -1    0    0    0    0  0.00000000000E+00  0.00000000000E+00  0.99999998245E-14  0.12500000000E+03  0.12500000000E+03 0.  0.
    3000001    1    3    3    0    0 -0.24293129997E+01 -0.13004712856E+00  0.32779638728E+02  0.32884999453E+02  0.10000000000E+01 0. -1.
    1000022    2    1    0    0    0 -0.26685042845E+00 -0.84861406552E+01  0.61107807987E+02  0.62499999447E+02  0.99999970726E+01 0.  0.
    3000022    2    3    3    0    0  0.21624625713E+01 -0.83560935266E+01  0.28328169260E+02  0.29614999994E+02  0.25001525276E+00 0.  0.
    1000022    2    1    0    0    0  0.26685042845E+00  0.84861406552E+01 -0.61107807987E+02  0.62500000553E+02  0.10000003987E+02 0.  0.
    3000022    2    5    5    0    0  0.39439910139E+01  0.78515346919E+01 -0.33979757466E+02  0.35098263150E+02  0.24999312640E+00 0.  0.
        -13    1    4    4    0    0  0.68953142231E+00 -0.28282757610E+01  0.94353227662E+01  0.98747626840E+01  0.10500000000E+00 0. -1.
         13    1    4    4    0    0  0.14729311489E+01 -0.55278177656E+01  0.18892846494E+02  0.19740237310E+02  0.10500000000E+00 0.  1.
    3000001    1    5    5    0    0 -0.36771405854E+01  0.63460596326E+00 -0.27128050522E+02  0.27401737404E+02  0.10000000000E+01 0. -1.
        -13    1    6    6    0    0  0.29052395215E+01  0.57093449743E+01 -0.24709362171E+02  0.25526469411E+02  0.10500000000E+00 0. -1.
         13    1    6    6    0    0  0.10387514924E+01  0.21421897176E+01 -0.92703952949E+01  0.95717937386E+01  0.10500000000E+00 0.  1.
</event>
<event>
11    0  0.3485800E-009  0.9118800E+02  0.7816531E-02  0.1126479E+00
         25   -1    0    0    0    0  0.00000000000E+00  0.00000000000E+00  0.99999998245E-14  0.12500000000E+03  0.12500000000E+03 0.  0.
    3000001    1    3    3    0    0  0.11745717152E+02  0.27040973683E+02  0.24020833824E+02  0.38041774233E+02  0.10000000000E+01 0.  1.
    1000022    2    1    0    0    0  0.26334801783E+02  0.41291895643E+02  0.37519434772E+02  0.62500001640E+02  0.99999894338E+01 0.  0.
    3000022    2    3    3    0    0  0.14589084631E+02  0.14250921960E+02  0.13498600947E+02  0.24458227407E+02  0.24998661103E+00 0.  0.
    1000022    2    1    0    0    0 -0.26334801783E+02 -0.41291895643E+02 -0.37519434772E+02  0.62499998360E+02  0.99999689342E+01 0.  0.
    3000022    2    5    5    0    0 -0.14964159408E+02 -0.15348179385E+02 -0.13381953400E+02  0.25271166411E+02  0.24999555785E+00 0.  0.
        -13    1    4    4    0    0  0.46075698318E+01  0.44321071693E+01  0.42276853657E+01  0.76653520641E+01  0.10500000000E+00 0. -1.
         13    1    4    4    0    0  0.99815147991E+01  0.98188147905E+01  0.92709155815E+01  0.16792875343E+02  0.10500000000E+00 0.  1.
    3000001    1    5    5    0    0 -0.11370642376E+02 -0.25943716257E+02 -0.24137481372E+02  0.37228831949E+02  0.10000000000E+01 0. -1.
        -13    1    6    6    0    0 -0.94997495578E+01 -0.96590521253E+01 -0.84639655773E+01  0.15974738430E+02  0.10500000000E+00 0.  1.
         13    1    6    6    0    0 -0.54644098499E+01 -0.56891272601E+01 -0.49179878224E+01  0.92964279812E+01  0.10500000000E+00 0. -1.
</event>
<event>
11    0  0.3485800E-009  0.9118800E+02  0.7816531E-02  0.1126479E+00
         25   -1    0    0    0    0  0.00000000000E+00  0.00000000000E+00  0.99999998245E-14  0.12500000000E+03  0.12500000000E+03 0.  0.
    3000001    1    3    3    0    0 -0.12596108123E+02 -0.10891655691E+02 -0.43895181754E+02  0.46958248314E+02  0.10000000000E+01 0.  1.
    1000022    2    1    0    0    0 -0.11413325496E+02 -0.12709451304E+02 -0.59282845805E+02  0.62500000429E+02  0.10000004782E+02 0.  0.
    3000022    2    3    3    0    0  0.11827826276E+01 -0.18177956123E+01 -0.15387664051E+02  0.15541752115E+02  0.24999644840E+00 0.  0.
    1000022    2    1    0    0    0  0.11413325496E+02  0.12709451304E+02  0.59282845805E+02  0.62499999571E+02  0.99999994170E+01 0.  0.
    3000022    2    5    5    0    0  0.61914711582E+01  0.21848265888E+01  0.11131749867E+02  0.12926180593E+02  0.25001455902E+00 0.  0.
        -13    1    4    4    0    0  0.65489788531E+00 -0.11136645619E+01 -0.89600886908E+01  0.90533614941E+01  0.10500000000E+00 0.  1.
         13    1    4    4    0    0  0.52788474233E+00 -0.70413105041E+00 -0.64275753604E+01  0.64883906210E+01  0.10500000000E+00 0. -1.
    3000001    1    5    5    0    0  0.52218543375E+01  0.10524624715E+02  0.48151095937E+02  0.49573818978E+02  0.10000000000E+01 0.  1.
        -13    1    6    6    0    0  0.34107337398E+01  0.12323518464E+01  0.62671843041E+01  0.72415757829E+01  0.10500000000E+00 0.  1.
         13    1    6    6    0    0  0.27807374183E+01  0.95247474237E+00  0.48645655633E+01  0.56846048098E+01  0.10500000000E+00 0. -1.
</event>
<event>
11    0  0.3485800E-009  0.9118800E+02  0.7816531E-02  0.1126479E+00
         25   -1    0    0    0    0  0.00000000000E+00  0.00000000000E+00  0.99999998245E-14  0.12500000000E+03  0.12500000000E+03 0.  0.
    3000001    1    3    3    0    0  0.23031090148E+02 -0.82671727283E+00 -0.28138864000E+02  0.36385577391E+02  0.10000000000E+01 0.  1.
    1000022    2    1    0    0    0  0.32982541364E+02 -0.52451310002E+01 -0.51873793078E+02  0.62500001020E+02  0.10000014261E+02 0.  0.
    3000022    2    3    3    0    0  0.99514512160E+01 -0.44184137274E+01 -0.23734929077E+02  0.26114423629E+02  0.25000400471E+00 0.  0.
    1000022    2    1    0    0    0 -0.32982541364E+02  0.52451310002E+01  0.51873793078E+02  0.62499998980E+02  0.10000001510E+02 0.  0.
    3000022    2    5    5    0    0 -0.16867702242E+02 -0.22677645919E+01  0.24002970389E+02  0.29425622229E+02  0.25004183639E+00 0.  0.
        -13    1    4    4    0    0  0.25878393480E+01 -0.11479476854E+01 -0.62501453127E+01  0.68622181406E+01  0.10500000000E+00 0.  1.
         13    1    4    4    0    0  0.73636118680E+01 -0.32704660420E+01 -0.17484783765E+02  0.19252205489E+02  0.10500000000E+00 0. -1.
    3000001    1    5    5    0    0 -0.16114839122E+02  0.75128955921E+01  0.27870822689E+02  0.33074376750E+02  0.10000000000E+01 0.  1.
        -13    1    6    6    0    0 -0.12173794912E+02 -0.16358087757E+01  0.17389820031E+02  0.21290702633E+02  0.10500000000E+00 0.  1.
         13    1    6    6    0    0 -0.46939073298E+01 -0.63195581611E+00  0.66131503582E+01  0.81349195961E+01  0.10500000000E+00 0. -1.
</event>
<event>
11    0  0.3485800E-009  0.9118800E+02  0.7816531E-02  0.1126479E+00
         25   -1    0    0    0    0  0.00000000000E+00  0.00000000000E+00  0.99999998245E-14  0.12500000000E+03  0.12500000000E+03 0.  0.
    3000001    1    3    3    0    0 -0.90139099413E+01  0.10196909159E+02  0.15134135259E+02  0.20378164266E+02  0.10000000000E+01 0.  1.
    1000022    2    1    0    0    0 -0.38649395376E+02  0.23620517000E+02  0.41887291628E+02  0.62500000838E+02  0.10000015923E+02 0.  0.
    3000022    2    3    3    0    0 -0.29635485435E+02  0.13423607842E+02  0.26753156369E+02  0.42121836571E+02  0.24999197111E+00 0.  0.
    1000022    2    1    0    0    0  0.38649395376E+02 -0.23620517000E+02 -0.41887291628E+02  0.62499999162E+02  0.10000005451E+02 0.  0.
    3000022    2    5    5    0    0  0.11881566120E+02 -0.22432035606E+01 -0.10102598330E+02  0.15758444406E+02  0.25000277903E+00 0.  0.
        -13    1    4    4    0    0 -0.10847131449E+02  0.48678341569E+01  0.98311476789E+01  0.15427850134E+02  0.10500000000E+00 0. -1.
         13    1    4    4    0    0 -0.18788353986E+02  0.85557736848E+01  0.16922008690E+02  0.26693986438E+02  0.10500000000E+00 0.  1.
    3000001    1    5    5    0    0  0.26767829256E+02 -0.21377313440E+02 -0.31784693298E+02  0.46741554757E+02  0.10000000000E+01 0. -1.
        -13    1    6    6    0    0  0.60176817171E+01 -0.10924346625E+01 -0.51782856575E+01  0.80144603119E+01  0.10500000000E+00 0. -1.
         13    1    6    6    0    0  0.58638844033E+01 -0.11507688981E+01 -0.49243126722E+01  0.77439840938E+01  0.10500000000E+00 0.  1.
</event>
<event>
11    0  0.3485800E-009  0.9118800E+02  0.7816531E-02  0.1126479E+00
         25   -1    0    0    0    0  0.00000000000E+00  0.00000000000E+00  0.99999998245E-14  0.12500000000E+03  0.12500000000E+03 0.  0.
    3000001    1    3    3    0    0  0.19845868784E+02 -0.27082723911E+02  0.12426429394E+02  0.35815479750E+02  0.10000000000E+01 0. -1.
    1000022    2    1    0    0    0  0.26874829174E+02 -0.50750243255E+02  0.22547864845E+02  0.62500001897E+02  0.10000019726E+02 0.  0.
    3000022    2    3    3    0    0  0.70289603896E+01 -0.23667519344E+02  0.10121435451E+02  0.26684522147E+02  0.25002114841E+00 0.  0.
    1000022    2    1    0    0    0 -0.26874829174E+02  0.50750243255E+02 -0.22547864845E+02  0.62499998103E+02  0.99999960094E+01 0.  0.
    3000022    2    5    5    0    0 -0.13305604230E+02  0.16658535339E+02 -0.11171604637E+02  0.24071002402E+02  0.25000584505E+00 0.  0.
        -13    1    4    4    0    0  0.39125625223E+01 -0.13235430459E+02  0.55889191293E+01  0.14890661737E+02  0.10500000000E+00 0.  1.
         13    1    4    4    0    0  0.31163978673E+01 -0.10432088885E+02  0.45325163216E+01  0.11793860410E+02  0.10500000000E+00 0. -1.
    3000001    1    5    5    0    0 -0.13569224944E+02  0.34091707916E+02 -0.11376260208E+02  0.38428995700E+02  0.10000000000E+01 0. -1.
        -13    1    6    6    0    0 -0.46508980954E+01  0.57386070781E+01 -0.38492698258E+01  0.83300880837E+01  0.10500000000E+00 0. -1.
         13    1    6    6    0    0 -0.86547061347E+01  0.10919928261E+02 -0.73223348109E+01  0.15740914318E+02  0.10500000000E+00 0.  1.
</event>
<event>
11    0  0.3485800E-009  0.9118800E+02  0.7816531E-02  0.1126479E+00
         25   -1    0    0    0    0  0.00000000000E+00  0.00000000000E+00  0.99999998245E-14  0.12500000000E+03  0.12500000000E+03 0.  0.
    3000001    1    3    3    0    0  0.74329916979E+01  0.26315966034E+02 -0.36446309037E+02  0.45575353825E+02  0.10000000000E+01 0. -1.
    1000022    2    1    0    0    0  0.42326219643E+01  0.35215453337E+02 -0.50479765777E+02  0.62500000010E+02  0.10000000297E+02 0.  0.
    3000022    2    3    3    0    0 -0.32003697336E+01  0.88994873031E+01 -0.14033456740E+02  0.16924646184E+02  0.24999943814E+00 0.  0.
    1000022    2    1    0    0    0 -0.42326219643E+01 -0.35215453337E+02  0.50479765777E+02  0.62499999990E+02  0.10000000173E+02 0.  0.
    3000022    2    5    5    0    0  0.20882824820E+01 -0.13101095706E+02  0.13423043469E+02  0.18874327334E+02  0.25000786848E+00 0.  0.
        -13    1    4    4    0    0 -0.12632457435E+01  0.36898556846E+01 -0.57461796981E+01  0.69455331620E+01  0.10500000000E+00 0. -1.
         13    1    4    4    0    0 -0.19371239901E+01  0.52096316184E+01 -0.82872770414E+01  0.99791130224E+01  0.10500000000E+00 0.  1.
    3000001    1    5    5    0    0 -0.63209044463E+01 -0.22114357631E+02  0.37056722308E+02  0.43625672656E+02  0.10000000000E+01 0.  1.
        -13    1    6    6    0    0  0.14039271314E+01 -0.88055762809E+01  0.90957885426E+01  0.12737879700E+02  0.10500000000E+00 0.  1.
         13    1    6    6    0    0  0.68435535064E+00 -0.42955194255E+01  0.43272549259E+01  0.61364476348E+01  0.10500000000E+00 0. -1.
</event>
<event>
11    0  0.3485800E-009  0.9118800E+02  0.7816531E-02  0.1126479E+00
         25   -1    0    0    0    0  0.00000000000E+00  0.00000000000E+00  0.99999998245E-14  0.12500000000E+03  0.12500000000E+03 0.  0.
    3000001    1    3    3    0    0  0.30413168081E+02 -0.88838287578E+01 -0.90047536822E+01  0.32954040648E+02  0.10000000000E+01 0. -1.
    1000022    2    1    0    0    0  0.52981274206E+02 -0.24350685126E+02 -0.20156325538E+02  0.62499989899E+02  0.99999997787E+01 0.  0.
    3000022    2    3    3    0    0  0.22568106125E+02 -0.15466856368E+02 -0.11151571856E+02  0.29545949251E+02  0.25000466136E+00 0.  0.
    1000022    2    1    0    0    0 -0.52981274206E+02  0.24350685126E+02  0.20156325538E+02  0.62500010101E+02  0.10000126042E+02 0.  0.
    3000022    2    5    5    0    0 -0.15146683332E+02  0.11616698497E+02  0.85315372418E+01  0.20909790277E+02  0.25000359845E+00 0.  0.
        -13    1    4    4    0    0  0.13424426427E+02 -0.92737236685E+01 -0.66705402540E+01  0.17627373822E+02  0.10500000000E+00 0.  1.
         13    1    4    4    0    0  0.91436796983E+01 -0.61931326992E+01 -0.44810316020E+01  0.11918575430E+02  0.10500000000E+00 0. -1.
    3000001    1    5    5    0    0 -0.37834590874E+02  0.12733986629E+02  0.11624788296E+02  0.41590219824E+02  0.10000000000E+01 0. -1.
        -13    1    6    6    0    0 -0.41097321985E+01  0.31133182442E+01  0.22839573961E+01  0.56400474839E+01  0.10500000000E+00 0. -1.
         13    1    6    6    0    0 -0.11036951133E+02  0.85033802525E+01  0.62475798457E+01  0.15269742793E+02  0.10500000000E+00 0.  1.
</event>
<event>
11    0  0.3485800E-009  0.9118800E+02  0.7816531E-02  0.1126479E+00
         25   -1    0    0    0    0  0.00000000000E+00  0.00000000000E+00  0.99999998245E-14  0.12500000000E+03  0.12500000000E+03 0.  0.
    3000001    1    3    3    0    0 -0.12829528988E+02  0.41448907020E+02 -0.17605103811E+02  0.46835332682E+02  0.10000000000E+01 0.  1.
    1000022    2    1    0    0    0 -0.18153307276E+02  0.51898158116E+02 -0.27987284784E+02  0.62499995138E+02  0.99999950938E+01 0.  0.
    3000022    2    3    3    0    0 -0.53237782885E+01  0.10449251095E+02 -0.10382180973E+02  0.15664662457E+02  0.25000881764E+00 0.  0.
    1000022    2    1    0    0    0  0.18153307276E+02 -0.51898158116E+02  0.27987284784E+02  0.62500004862E+02  0.10000055864E+02 0.  0.
    3000022    2    5    5    0    0  0.39607205431E+01 -0.18168949543E+02  0.14135855485E+02  0.23359857663E+02  0.25001005850E+00 0.  0.
        -13    1    4    4    0    0 -0.22071535051E+01  0.44386665078E+01 -0.43307090448E+01  0.65832630809E+01  0.10500000000E+00 0.  1.
         13    1    4    4    0    0 -0.31166247833E+01  0.60105845877E+01 -0.60514719281E+01  0.90813993758E+01  0.10500000000E+00 0. -1.
    3000001    1    5    5    0    0  0.14192586733E+02 -0.33729208573E+02  0.13851429299E+02  0.39140147199E+02  0.10000000000E+01 0. -1.
        -13    1    6    6    0    0  0.13878003062E+01 -0.63009756591E+01  0.48368380541E+01  0.80643853645E+01  0.10500000000E+00 0.  1.
         13    1    6    6    0    0  0.25729202369E+01 -0.11867973884E+02  0.92990174306E+01  0.15295472298E+02  0.10500000000E+00 0. -1.
</event>
<event>
11    0  0.3485800E-009  0.9118800E+02  0.7816531E-02  0.1126479E+00
         25   -1    0    0    0    0  0.00000000000E+00  0.00000000000E+00  0.99999998245E-14  0.12500000000E+03  0.12500000000E+03 0.  0.
    3000001    1    3    3    0    0 -0.95492152548E+01 -0.32554724036E+02  0.31714224153E+02  0.46452013764E+02  0.10000000000E+01 0. -1.
    1000022    2    1    0    0    0 -0.14665220475E+02 -0.46482898411E+02  0.37822235545E+02  0.62499999960E+02  0.99999978537E+01 0.  0.
    3000022    2    3    3    0    0 -0.51160052205E+01 -0.13928174375E+02  0.61080113921E+01  0.16047986196E+02  0.25001392140E+00 0.  0.
    1000022    2    1    0    0    0  0.14665220475E+02  0.46482898411E+02 -0.37822235545E+02  0.62500000040E+02  0.99999983576E+01 0.  0.
    3000022    2    5    5    0    0  0.87515609904E+01  0.12863911357E+02 -0.13102713745E+02  0.20342409774E+02  0.24998553278E+00 0.  0.
        -13    1    4    4    0    0 -0.36067414488E+01 -0.98097846778E+01  0.43502116475E+01  0.11321476303E+02  0.10500000000E+00 0.  1.
         13    1    4    4    0    0 -0.15092637717E+01 -0.41183896968E+01  0.17577997446E+01  0.47265098931E+01  0.10500000000E+00 0. -1.
    3000001    1    5    5    0    0  0.59136594849E+01  0.33618987054E+02 -0.24719521800E+02  0.42157590266E+02  0.10000000000E+01 0. -1.
        -13    1    6    6    0    0  0.24236064658E+01  0.35996910324E+01 -0.36987338927E+01  0.57029204132E+01  0.10500000000E+00 0. -1.
         13    1    6    6    0    0  0.63279545246E+01  0.92642203247E+01 -0.94039798523E+01  0.14639489361E+02  0.10500000000E+00 0.  1.
</event>
<event>
11    0  0.3485800E-009  0.9118800E+02  0.7816531E-02  0.1126479E+00
         25   -1    0    0    0    0  0.00000000000E+00  0.00000000000E+00  0.99999998245E-14  0.12500000000E+03  0.12500000000E+03 0.  0.
    3000001    1    3    3    0    0  0.21361722283E+02 -0.18425141597E+02 -0.15626650398E+02  0.32264550584E+02  0.10000000000E+01 0. -1.
    1000022    2    1    0    0    0  0.42898979243E+02 -0.27414221010E+02 -0.34848069289E+02  0.62500000421E+02  0.10000009290E+02 0.  0.
    3000022    2    3    3    0    0  0.21537256960E+02 -0.89890794132E+01 -0.19221418891E+02  0.30235449837E+02  0.24999317146E+00 0.  0.
    1000022    2    1    0    0    0 -0.42898979243E+02  0.27414221010E+02  0.34848069289E+02  0.62499999579E+02  0.10000004028E+02 0.  0.
    3000022    2    5    5    0    0 -0.19962181764E+02  0.16411279065E+02  0.22214120899E+02  0.34078562917E+02  0.25000366521E+00 0.  0.
        -13    1    4    4    0    0  0.51731234274E+01 -0.21536222432E+01 -0.46400207321E+01  0.72759956127E+01  0.10500000000E+00 0. -1.
         13    1    4    4    0    0  0.16364133533E+02 -0.68354571701E+01 -0.14581398159E+02  0.22959454224E+02  0.10500000000E+00 0.  1.
    3000001    1    5    5    0    0 -0.22936797479E+02  0.11002941945E+02  0.12633948390E+02  0.28421436662E+02  0.10000000000E+01 0. -1.
        -13    1    6    6    0    0 -0.13285402989E+02  0.10991281057E+02  0.14823864063E+02  0.22739132847E+02  0.10500000000E+00 0. -1.
         13    1    6    6    0    0 -0.66767787753E+01  0.54199980080E+01  0.73902568360E+01  0.11339430070E+02  0.10500000000E+00 0.  1.
</event>
<event>
11    0  0.3485800E-009  0.9118800E+02  0.7816531E-02  0.1126479E+00
         25   -1    0    0    0    0  0.00000000000E+00  0.00000000000E+00  0.99999998245E-14  0.12500000000E+03  0.12500000000E+03 0.  0.
    3000001    1    3    3    0    0  0.10985421515E+02  0.32105294282E+02 -0.23719082980E+02  0.41412851920E+02  0.10000000000E+01 0. -1.
    1000022    2    1    0    0    0  0.95804911847E+01  0.49470767123E+02 -0.35596450749E+02  0.62500000758E+02  0.10000008893E+02 0.  0.
    3000022    2    3    3    0    0 -0.14049303306E+01  0.17365472841E+02 -0.11877367769E+02  0.21087148838E+02  0.25000954667E+00 0.  0.
    1000022    2    1    0    0    0 -0.95804911847E+01 -0.49470767123E+02  0.35596450749E+02  0.62499999242E+02  0.99999994135E+01 0.  0.
    3000022    2    5    5    0    0 -0.23105348620E+01 -0.17659814539E+02  0.18369089886E+02  0.25586980787E+02  0.25000321165E+00 0.  0.
        -13    1    4    4    0    0 -0.40395157139E+00  0.51222124678E+01 -0.34510840265E+01  0.61904154461E+01  0.10500000000E+00 0.  1.
         13    1    4    4    0    0 -0.10009787592E+01  0.12243260373E+02 -0.84262837425E+01  0.14896733392E+02  0.10500000000E+00 0. -1.
    3000001    1    5    5    0    0 -0.72699563226E+01 -0.31810952583E+02  0.17227360862E+02  0.36913018455E+02  0.10000000000E+01 0. -1.
        -13    1    6    6    0    0 -0.56110009549E+00 -0.42175264259E+01  0.43661682422E+01  0.60972791137E+01  0.10500000000E+00 0.  1.
         13    1    6    6    0    0 -0.17494347666E+01 -0.13442288113E+02  0.14002921644E+02  0.19489701673E+02  0.10500000000E+00 0. -1.
</event>
<event>
11    0  0.3485800E-009  0.9118800E+02  0.7816531E-02  0.1126479E+00
         25   -1    0    0    0    0  0.00000000000E+00  0.00000000000E+00  0.99999998245E-14  0.12500000000E+03  0.12500000000E+03 0.  0.
    3000001    1    3    3    0    0 -0.13792822961E+02  0.16146957503E+02 -0.28019852138E+02  0.35172124128E+02  0.10000000000E+01 0.  1.
    1000022    2    1    0    0    0 -0.30340365129E+02  0.22258796888E+02 -0.48890271319E+02  0.62499996816E+02  0.99999588610E+01 0.  0.
    3000022    2    3    3    0    0 -0.16547542168E+02  0.61118393851E+01 -0.20870419181E+02  0.27327872688E+02  0.24999273023E+00 0.  0.
    1000022    2    1    0    0    0  0.30340365129E+02 -0.22258796888E+02  0.48890271319E+02  0.62500003184E+02  0.99999986644E+01 0.  0.
    3000022    2    5    5    0    0  0.25858434242E+02 -0.14040226752E+02  0.38858304118E+02  0.48742352022E+02  0.24998616040E+00 0.  0.
        -13    1    4    4    0    0 -0.11901906420E+02  0.44240650832E+01 -0.14975652095E+02  0.19634380789E+02  0.10500000000E+00 0. -1.
         13    1    4    4    0    0 -0.46456357478E+01  0.16877743019E+01 -0.58947670857E+01  0.76934918983E+01  0.10500000000E+00 0.  1.
    3000001    1    5    5    0    0  0.44819308872E+01 -0.82185701360E+01  0.10031967202E+02  0.13757651162E+02  0.10000000000E+01 0. -1.
        -13    1    6    6    0    0  0.15906943046E+02 -0.86405105190E+01  0.24007376929E+02  0.30067497919E+02  0.10500000000E+00 0. -1.
         13    1    6    6    0    0  0.99514911955E+01 -0.53997162331E+01  0.14850927189E+02  0.18674854103E+02  0.10500000000E+00 0.  1.
</event>
<event>
11    0  0.3485800E-009  0.9118800E+02  0.7816531E-02  0.1126479E+00
         25   -1    0    0    0    0  0.00000000000E+00  0.00000000000E+00  0.99999998245E-14  0.12500000000E+03  0.12500000000E+03 0.  0.
    3000001    1    3    3    0    0 -0.29465104465E+02  0.42203895118E+01  0.13095853001E+02  0.32534680490E+02  0.10000000000E+01 0. -1.
    1000022    2    1    0    0    0 -0.56333512340E+02 -0.13866706440E+01  0.25116974574E+02  0.62499999286E+02  0.10000001553E+02 0.  0.
    3000022    2    3    3    0    0 -0.26868407875E+02 -0.56070601558E+01  0.12021121573E+02  0.29965318796E+02  0.25000277095E+00 0.  0.
    1000022    2    1    0    0    0  0.56333512340E+02  0.13866706440E+01 -0.25116974574E+02  0.62500000714E+02  0.10000010472E+02 0.  0.
    3000022    2    5    5    0    0  0.54134692965E+02 -0.29162151481E+00 -0.24785037541E+02  0.59539991692E+02  0.24999852458E+00 0.  0.
        -13    1    4    4    0    0 -0.17668924929E+02 -0.37065292114E+01  0.78501606942E+01  0.19686678614E+02  0.10500000000E+00 0.  1.
         13    1    4    4    0    0 -0.91994829457E+01 -0.19005309444E+01  0.41709608789E+01  0.10278640182E+02  0.10500000000E+00 0. -1.
    3000001    1    5    5    0    0  0.21988193747E+01  0.16782921588E+01 -0.33193703284E+00  0.29600090214E+01  0.10000000000E+01 0. -1.
        -13    1    6    6    0    0  0.20836762517E+02 -0.16628321795E+00 -0.95722069190E+01  0.22931124974E+02  0.10500000000E+00 0. -1.
         13    1    6    6    0    0  0.33297930448E+02 -0.12533829686E+00 -0.15212830622E+02  0.36608866718E+02  0.10500000000E+00 0.  1.
</event>
<event>
11    0  0.3485800E-009  0.9118800E+02  0.7816531E-02  0.1126479E+00
         25   -1    0    0    0    0  0.00000000000E+00  0.00000000000E+00  0.99999998245E-14  0.12500000000E+03  0.12500000000E+03 0.  0.
    3000001    1    3    3    0    0  0.71958894103E+01 -0.11022383281E+02  0.21195304063E+02  0.24970275768E+02  0.10000000000E+01 0. -1.
    1000022    2    1    0    0    0  0.28637577991E+02 -0.27417621633E+02  0.47269579510E+02  0.62499999893E+02  0.99999995238E+01 0.  0.
    3000022    2    3    3    0    0  0.21441688580E+02 -0.16395238351E+02  0.26074275447E+02  0.37529724125E+02  0.25000614913E+00 0.  0.
    1000022    2    1    0    0    0 -0.28637577991E+02  0.27417621633E+02 -0.47269579510E+02  0.62500000107E+02  0.10000000855E+02 0.  0.
    3000022    2    5    5    0    0 -0.37906480395E+01  0.22064289863E+01 -0.10836188864E+02  0.11692853792E+02  0.24999855584E+00 0.  0.
        -13    1    4    4    0    0  0.92667859655E+01 -0.70131734574E+01  0.11269826849E+02  0.16188821646E+02  0.10500000000E+00 0. -1.
         13    1    4    4    0    0  0.12174902615E+02 -0.93820648939E+01  0.14804448597E+02  0.21340902479E+02  0.10500000000E+00 0.  1.
    3000001    1    5    5    0    0 -0.24846929951E+02  0.25211192646E+02 -0.36433390646E+02  0.50807146314E+02  0.10000000000E+01 0. -1.
        -13    1    6    6    0    0 -0.16824615260E+01  0.10387055397E+01 -0.47717984722E+01  0.51663015440E+01  0.10500000000E+00 0.  1.
         13    1    6    6    0    0 -0.21081865135E+01  0.11677234466E+01 -0.60643903918E+01  0.65265522482E+01  0.10500000000E+00 0. -1.
</event>
<event>
11    0  0.3485800E-009  0.9118800E+02  0.7816531E-02  0.1126479E+00
         25   -1    0    0    0    0  0.00000000000E+00  0.00000000000E+00  0.99999998245E-14  0.12500000000E+03  0.12500000000E+03 0.  0.
    3000001    1    3    3    0    0 -0.42283512720E+01 -0.35978071018E+02  0.15479856130E+02  0.39407188360E+02  0.10000000000E+01 0.  1.
    1000022    2    1    0    0    0 -0.12290525849E+01 -0.58517151640E+02  0.19505958566E+02  0.62499999997E+02  0.99999986858E+01 0.  0.
    3000022    2    3    3    0    0  0.29992986871E+01 -0.22539080623E+02  0.40261024361E+01  0.23092811637E+02  0.25000111835E+00 0.  0.
    1000022    2    1    0    0    0  0.12290525849E+01  0.58517151640E+02 -0.19505958566E+02  0.62500000003E+02  0.99999987206E+01 0.  0.
    3000022    2    5    5    0    0 -0.95001899561E+00  0.40665767264E+02 -0.17819637289E+02  0.44409561739E+02  0.25007501051E+00 0.  0.
        -13    1    4    4    0    0  0.16490768413E+01 -0.12518687387E+02  0.23010414631E+01  0.12835217378E+02  0.10500000000E+00 0. -1.
         13    1    4    4    0    0  0.13502218458E+01 -0.10020393236E+02  0.17250609730E+01  0.10257594260E+02  0.10500000000E+00 0.  1.
    3000001    1    5    5    0    0  0.21790715805E+01  0.17851384377E+02 -0.16863212764E+01  0.18090438264E+02  0.10000000000E+01 0. -1.
        -13    1    6    6    0    0 -0.43179480148E+00  0.15885155284E+02 -0.69468690907E+01  0.17343431619E+02  0.10500000000E+00 0. -1.
         13    1    6    6    0    0 -0.51822419412E+00  0.24780611979E+02 -0.10872768199E+02  0.27066130120E+02  0.10500000000E+00 0.  1.
</event>
<event>
11    0  0.3485800E-009  0.9118800E+02  0.7816531E-02  0.1126479E+00
         25   -1    0    0    0    0  0.00000000000E+00  0.00000000000E+00  0.99999998245E-14  0.12500000000E+03  0.12500000000E+03 0.  0.
    3000001    1    3    3    0    0  0.19831175114E+01 -0.36873667966E+01  0.41430538519E+01  0.59744727112E+01  0.10000000000E+01 0. -1.
    1000022    2    1    0    0    0  0.12333039676E+01 -0.22296791832E+02  0.57511581850E+02  0.62499999657E+02  0.99999972744E+01 0.  0.
    3000022    2    3    3    0    0 -0.74981354383E+00 -0.18609425035E+02  0.53368527998E+02  0.56525526945E+02  0.24999051379E+00 0.  0.
    1000022    2    1    0    0    0 -0.12333039676E+01  0.22296791832E+02 -0.57511581850E+02  0.62500000343E+02  0.10000001568E+02 0.  0.
    3000022    2    5    5    0    0 -0.24415883801E+01  0.70928072954E+00 -0.36788282337E+01  0.44789184099E+01  0.24999995596E+00 0.  0.
        -13    1    4    4    0    0 -0.31809028375E+00 -0.66228605692E+01  0.18921248026E+02  0.20049641279E+02  0.10500000000E+00 0. -1.
         13    1    4    4    0    0 -0.43172326008E+00 -0.11986564466E+02  0.34447279972E+02  0.36475885667E+02  0.10500000000E+00 0.  1.
    3000001    1    5    5    0    0  0.12082844126E+01  0.21587511102E+02 -0.53832753617E+02  0.58021081934E+02  0.10000000000E+01 0. -1.
        -13    1    6    6    0    0 -0.16702973307E+01  0.43413536797E+00 -0.24637204427E+01  0.30098687863E+01  0.10500000000E+00 0.  1.
         13    1    6    6    0    0 -0.77129104939E+00  0.27514536157E+00 -0.12151077910E+01  0.14690496236E+01  0.10500000000E+00 0. -1.
</event>
<event>
11    0  0.3485800E-009  0.9118800E+02  0.7816531E-02  0.1126479E+00
         25   -1    0    0    0    0  0.00000000000E+00  0.00000000000E+00  0.99999998245E-14  0.12500000000E+03  0.12500000000E+03 0.  0.
    3000001    1    3    3    0    0 -0.24466075944E+02  0.29050338037E+02 -0.31790025325E+02  0.49539042404E+02  0.10000000000E+01 0.  1.
    1000022    2    1    0    0    0 -0.26099634433E+02  0.37148514470E+02 -0.41773759018E+02  0.62499999655E+02  0.99999984762E+01 0.  0.
    3000022    2    3    3    0    0 -0.16335584888E+01  0.80981764327E+01 -0.99837336933E+01  0.12960957251E+02  0.24999905518E+00 0.  0.
    1000022    2    1    0    0    0  0.26099634433E+02 -0.37148514470E+02  0.41773759018E+02  0.62500000345E+02  0.10000002792E+02 0.  0.
    3000022    2    5    5    0    0  0.20623932873E+02 -0.31046285169E+02  0.28727655096E+02  0.47059102135E+02  0.24999292291E+00 0.  0.
        -13    1    4    4    0    0 -0.11014909073E+01  0.54681489054E+01 -0.68205666814E+01  0.88116451090E+01  0.10500000000E+00 0.  1.
         13    1    4    4    0    0 -0.53206758153E+00  0.26300275273E+01 -0.31631670118E+01  0.41493121418E+01  0.10500000000E+00 0. -1.
    3000001    1    5    5    0    0  0.54757015599E+01 -0.61022293005E+01  0.13046103922E+02  0.15440898210E+02  0.10000000000E+01 0.  1.
        -13    1    6    6    0    0  0.12064794135E+02 -0.18047327182E+02  0.16715610175E+02  0.27398684721E+02  0.10500000000E+00 0.  1.
         13    1    6    6    0    0  0.85591387380E+01 -0.12998957987E+02  0.12012044921E+02  0.19660417414E+02  0.10500000000E+00 0. -1.
</event>
<event>
11    0  0.3485800E-009  0.9118800E+02  0.7816531E-02  0.1126479E+00
         25   -1    0    0    0    0  0.00000000000E+00  0.00000000000E+00  0.99999998245E-14  0.12500000000E+03  0.12500000000E+03 0.  0.
    3000001    1    3    3    0    0  0.35616487568E+02  0.43620180478E+02  0.24304115392E+02  0.61342842750E+02  0.10000000000E+01 0. -1.
    1000022    2    1    0    0    0  0.36688481434E+02  0.43267147018E+02  0.24251990114E+02  0.62500002238E+02  0.10000028714E+02 0.  0.
    3000022    2    3    3    0    0  0.10719938660E+01 -0.35303346009E+00 -0.52125278220E-01  0.11571594884E+01  0.24999512863E+00 0.  0.
    1000022    2    1    0    0    0 -0.36688481434E+02 -0.43267147018E+02 -0.24251990114E+02  0.62499997762E+02  0.10000000740E+02 0.  0.
    3000022    2    5    5    0    0 -0.18921584827E+00 -0.39395814902E+00  0.73514815656E+00  0.89103907089E+00  0.25000430667E+00 0.  0.
        -13    1    4    4    0    0  0.78802846901E+00 -0.22098665534E+00 -0.21089810594E-01  0.82540520347E+00  0.10500000000E+00 0. -1.
         13    1    4    4    0    0  0.28396539697E+00 -0.13204680475E+00 -0.31035467625E-01  0.33175428493E+00  0.10500000000E+00 0.  1.
    3000001    1    5    5    0    0 -0.36499265585E+02 -0.42873188869E+02 -0.24987138270E+02  0.61608958691E+02  0.10000000000E+01 0. -1.
        -13    1    6    6    0    0 -0.23690014095E-01 -0.13720016380E+00  0.32632047081E+00  0.36999344776E+00  0.10500000000E+00 0.  1.
         13    1    6    6    0    0 -0.16552583417E+00 -0.25675798523E+00  0.40882768574E+00  0.52104562313E+00  0.10500000000E+00 0. -1.
</event>
<event>
11    0  0.3485800E-009  0.9118800E+02  0.7816531E-02  0.1126479E+00
         25   -1    0    0    0    0  0.00000000000E+00  0.00000000000E+00  0.99999998245E-14  0.12500000000E+03  0.12500000000E+03 0.  0.
    3000001    1    3    3    0    0 -0.28164639502E+01 -0.44755178169E+01 -0.28551089502E+01  0.60921569276E+01  0.10000000000E+01 0. -1.
    1000022    2    1    0    0    0 -0.31751591877E+02 -0.23625960029E+02 -0.47327586059E+02  0.62500000200E+02  0.10000002437E+02 0.  0.
    3000022    2    3    3    0    0 -0.28935127927E+02 -0.19150442212E+02 -0.44472477109E+02  0.56407843272E+02  0.24999465715E+00 0.  0.
    1000022    2    1    0    0    0  0.31751591877E+02  0.23625960029E+02  0.47327586059E+02  0.62499999800E+02  0.99999999422E+01 0.  0.
    3000022    2    5    5    0    0  0.20565828969E+02  0.10572177038E+02  0.31753999549E+02  0.39282352654E+02  0.24998838839E+00 0.  0.
        -13    1    4    4    0    0 -0.18830571659E+02 -0.12465596359E+02 -0.28852102269E+02  0.36639273355E+02  0.10500000000E+00 0.  1.
         13    1    4    4    0    0 -0.10104556267E+02 -0.66848458530E+01 -0.15620374840E+02  0.19768569917E+02  0.10500000000E+00 0. -1.
    3000001    1    5    5    0    0  0.11185762908E+02  0.13053782991E+02  0.15573586510E+02  0.23217647146E+02  0.10000000000E+01 0.  1.
        -13    1    6    6    0    0  0.78676649497E+01  0.40501979089E+01  0.12255331236E+02  0.15116495082E+02  0.10500000000E+00 0.  1.
         13    1    6    6    0    0  0.12698164019E+02  0.65219791292E+01  0.19498668313E+02  0.24165857572E+02  0.10500000000E+00 0. -1.
</event>
<event>
11    0  0.3485800E-009  0.9118800E+02  0.7816531E-02  0.1126479E+00
         25   -1    0    0    0    0  0.00000000000E+00  0.00000000000E+00  0.99999998245E-14  0.12500000000E+03  0.12500000000E+03 0.  0.
    3000001    1    3    3    0    0  0.13710366631E+02  0.14818038915E+02 -0.32645668178E+02  0.38396459228E+02  0.10000000000E+01 0.  1.
    1000022    2    1    0    0    0  0.28979600826E+02  0.23783249022E+02 -0.48997848687E+02  0.62500002781E+02  0.10000048677E+02 0.  0.
    3000022    2    3    3    0    0  0.15269234195E+02  0.89652101074E+01 -0.16352180509E+02  0.24103543553E+02  0.24999848491E+00 0.  0.
    1000022    2    1    0    0    0 -0.28979600826E+02 -0.23783249022E+02  0.48997848687E+02  0.62499997219E+02  0.10000013920E+02 0.  0.
    3000022    2    5    5    0    0 -0.13468879596E+01  0.70158636850E+00  0.40001177433E+01  0.42859974038E+01  0.25000235257E+00 0.  0.
        -13    1    4    4    0    0  0.71402744518E+01  0.41626445470E+01 -0.77176261648E+01  0.11308576723E+02  0.10500000000E+00 0. -1.
         13    1    4    4    0    0  0.81289597430E+01  0.48025655604E+01 -0.86345543440E+01  0.12794966830E+02  0.10500000000E+00 0.  1.
    3000001    1    5    5    0    0 -0.27632712867E+02 -0.24484835391E+02  0.44997730943E+02  0.58213999816E+02  0.10000000000E+01 0.  1.
        -13    1    6    6    0    0 -0.88259679134E+00  0.39343108894E+00  0.25417606166E+01  0.27212749126E+01  0.10500000000E+00 0.  1.
         13    1    6    6    0    0 -0.46429116826E+00  0.30815527957E+00  0.14583571268E+01  0.15647224912E+01  0.10500000000E+00 0. -1.
</event>
<event>
11    0  0.3485800E-009  0.9118800E+02  0.7816531E-02  0.1126479E+00
         25   -1    0    0    0    0  0.00000000000E+00  0.00000000000E+00  0.99999998245E-14  0.12500000000E+03  0.12500000000E+03 0.  0.
    3000001    1    3    3    0    0 -0.29273223480E+00  0.28615443876E+01 -0.24394535862E+01  0.39019305789E+01  0.10000000000E+01 0.  1.
    1000022    2    1    0    0    0  0.14503499978E+02  0.21275210835E+02 -0.56064817532E+02  0.62500000163E+02  0.10000007388E+02 0.  0.
    3000022    2    3    3    0    0  0.14796232213E+02  0.18413666447E+02 -0.53625363946E+02  0.58598069584E+02  0.25000179969E+00 0.  0.
    1000022    2    1    0    0    0 -0.14503499978E+02 -0.21275210835E+02  0.56064817532E+02  0.62499999837E+02  0.10000005351E+02 0.  0.
    3000022    2    5    5    0    0 -0.12033826238E+02 -0.14934875012E+02  0.49091511386E+02  0.52705810471E+02  0.25000340809E+00 0.  0.
        -13    1    4    4    0    0  0.78527609022E+01  0.97488557375E+01 -0.28255095654E+02  0.30904166343E+02  0.10500000000E+00 0.  1.
         13    1    4    4    0    0  0.69434713106E+01  0.86648107097E+01 -0.25370268292E+02  0.27693903241E+02  0.10500000000E+00 0. -1.
    3000001    1    5    5    0    0 -0.24696737400E+01 -0.63403358225E+01  0.69733061464E+01  0.97941893659E+01  0.10000000000E+01 0. -1.
        -13    1    6    6    0    0 -0.36538201231E+01 -0.46080190133E+01  0.15020353652E+02  0.16130910996E+02  0.10500000000E+00 0. -1.
         13    1    6    6    0    0 -0.83800061150E+01 -0.10326855999E+02  0.34071157734E+02  0.36574899475E+02  0.10500000000E+00 0.  1.
</event>
<event>
11    0  0.3485800E-009  0.9118800E+02  0.7816531E-02  0.1126479E+00
         25   -1    0    0    0    0  0.00000000000E+00  0.00000000000E+00  0.99999998245E-14  0.12500000000E+03  0.12500000000E+03 0.  0.
    3000001    1    3    3    0    0 -0.40279221089E+02 -0.33764645539E+02  0.14408701615E+02  0.54507592335E+02  0.10000000000E+01 0. -1.
    1000022    2    1    0    0    0 -0.43372788475E+02 -0.39586277967E+02  0.18920299152E+02  0.62499999658E+02  0.10000002692E+02 0.  0.
    3000022    2    3    3    0    0 -0.30935673863E+01 -0.58216324286E+01  0.45115975371E+01  0.79924073236E+01  0.24999836434E+00 0.  0.
    1000022    2    1    0    0    0  0.43372788475E+02  0.39586277967E+02 -0.18920299152E+02  0.62500000342E+02  0.10000006962E+02 0.  0.
    3000022    2    5    5    0    0  0.92722538642E+01  0.36375867958E+01 -0.22754276283E+01  0.10219921863E+02  0.25000513577E+00 0.  0.
        -13    1    4    4    0    0 -0.11705294514E+01 -0.23362029186E+01  0.17916068185E+01  0.31699942059E+01  0.10500000000E+00 0. -1.
         13    1    4    4    0    0 -0.19230379349E+01 -0.34854295101E+01  0.27199907186E+01  0.48224131177E+01  0.10500000000E+00 0.  1.
    3000001    1    5    5    0    0  0.34100534611E+02  0.35948691172E+02 -0.16644871524E+02  0.52280078479E+02  0.10000000000E+01 0. -1.
        -13    1    6    6    0    0  0.51278143240E+01  0.20785114114E+01 -0.12876727395E+01  0.56818848556E+01  0.10500000000E+00 0.  1.
         13    1    6    6    0    0  0.41444395402E+01  0.15590753844E+01 -0.98775488878E+00  0.45380370070E+01  0.10500000000E+00 0. -1.
</event>
<event>
11    0  0.3485800E-009  0.9118800E+02  0.7816531E-02  0.1126479E+00
         25   -1    0    0    0    0  0.00000000000E+00  0.00000000000E+00  0.99999998245E-14  0.12500000000E+03  0.12500000000E+03 0.  0.
    3000001    1    3    3    0    0 -0.21973426850E+02  0.33659712250E+00 -0.12485972917E+02  0.25295143898E+02  0.10000000000E+01 0. -1.
    1000022    2    1    0    0    0 -0.47205757864E+02  0.53855975891E+01 -0.39355580585E+02  0.62499998968E+02  0.99999955444E+01 0.  0.
    3000022    2    3    3    0    0 -0.25232331014E+02  0.50490004666E+01 -0.26869607668E+02  0.37204855069E+02  0.24998077002E+00 0.  0.
    1000022    2    1    0    0    0  0.47205757864E+02 -0.53855975891E+01  0.39355580585E+02  0.62500001032E+02  0.10000008448E+02 0.  0.
    3000022    2    5    5    0    0  0.24849117656E+02  0.20239721428E+01  0.21595497742E+02  0.32984892569E+02  0.25000712897E+00 0.  0.
        -13    1    4    4    0    0 -0.15937171849E+02  0.32088310511E+01 -0.17055986807E+02  0.23562846904E+02  0.10500000000E+00 0.  1.
         13    1    4    4    0    0 -0.92951591648E+01  0.18401694155E+01 -0.98136208620E+01  0.13642008166E+02  0.10500000000E+00 0. -1.
    3000001    1    5    5    0    0  0.22356640208E+02 -0.74095697319E+01  0.17760082843E+02  0.29515108463E+02  0.10000000000E+01 0.  1.
        -13    1    6    6    0    0  0.12526273445E+02  0.10866361033E+01  0.10910620807E+02  0.16647551646E+02  0.10500000000E+00 0. -1.
         13    1    6    6    0    0  0.12322844212E+02  0.93733603950E+00  0.10684876936E+02  0.16337340923E+02  0.10500000000E+00 0.  1.
</event>
<event>
11    0  0.3485800E-009  0.9118800E+02  0.7816531E-02  0.1126479E+00
         25   -1    0    0    0    0  0.00000000000E+00  0.00000000000E+00  0.99999998245E-14  0.12500000000E+03  0.12500000000E+03 0.  0.
    3000001    1    3    3    0    0 -0.13495071481E+02  0.16073540248E+02 -0.63547413573E+01  0.21951273041E+02  0.10000000000E+01 0. -1.
    1000022    2    1    0    0    0 -0.27573358799E+02  0.49104669637E+02 -0.25193082393E+02  0.62500000734E+02  0.99999997871E+01 0.  0.
    3000022    2    3    3    0    0 -0.14078287318E+02  0.33031129389E+02 -0.18838341035E+02  0.40548727694E+02  0.25008420657E+00 0.  0.
    1000022    2    1    0    0    0  0.27573358799E+02 -0.49104669637E+02  0.25193082393E+02  0.62499999266E+02  0.99999906098E+01 0.  0.
    3000022    2    5    5    0    0  0.81010813978E+01 -0.72042664638E+01  0.31164106194E+01  0.11282884843E+02  0.25000026324E+00 0.  0.
        -13    1    4    4    0    0 -0.81450279447E+01  0.18995299709E+02 -0.10896655011E+02  0.23364738532E+02  0.10500000000E+00 0.  1.
         13    1    4    4    0    0 -0.59332593736E+01  0.14035829680E+02 -0.79416860243E+01  0.17183989161E+02  0.10500000000E+00 0. -1.
    3000001    1    5    5    0    0  0.19472277402E+02 -0.41900403173E+02  0.22076671773E+02  0.51217114423E+02  0.10000000000E+01 0. -1.
        -13    1    6    6    0    0  0.36802799630E+01 -0.32825932975E+01  0.14868776276E+01  0.51518646568E+01  0.10500000000E+00 0.  1.
         13    1    6    6    0    0  0.44208014347E+01 -0.39216731663E+01  0.16295329918E+01  0.61310201859E+01  0.10500000000E+00 0. -1.
</event>
<event>
11    0  0.3485800E-009  0.9118800E+02  0.7816531E-02  0.1126479E+00
         25   -1    0    0    0    0  0.00000000000E+00  0.00000000000E+00  0.99999998245E-14  0.12500000000E+03  0.12500000000E+03 0.  0.
    3000001    1    3    3    0    0 -0.10126160325E+02 -0.13937256462E+02 -0.23351134625E+02  0.29035525290E+02  0.10000000000E+01 0. -1.
    1000022    2    1    0    0    0 -0.18858401734E+02 -0.20913275121E+02 -0.54893044996E+02  0.62500006327E+02  0.10000000486E+02 0.  0.
    3000022    2    3    3    0    0 -0.87322414085E+01 -0.69760186596E+01 -0.31541910371E+02  0.33464481037E+02  0.25000971337E+00 0.  0.
    1000022    2    1    0    0    0  0.18858401734E+02  0.20913275121E+02  0.54893044996E+02  0.62499993673E+02  0.99999213917E+01 0.  0.
    3000022    2    5    5    0    0  0.49093644428E+01  0.10384280354E+02  0.29495258584E+02  0.31653876789E+02  0.24999824199E+00 0.  0.
        -13    1    4    4    0    0 -0.42648196811E+01 -0.33367757923E+01 -0.15162881326E+02  0.16101141410E+02  0.10500000000E+00 0. -1.
         13    1    4    4    0    0 -0.44674217274E+01 -0.36392428674E+01 -0.16379029045E+02  0.17363339627E+02  0.10500000000E+00 0.  1.
    3000001    1    5    5    0    0  0.13949037291E+02  0.10528994767E+02  0.25397786412E+02  0.30846116883E+02  0.10000000000E+01 0.  1.
        -13    1    6    6    0    0  0.37278284890E+01  0.79016377984E+01  0.22383179024E+02  0.24028115060E+02  0.10500000000E+00 0. -1.
         13    1    6    6    0    0  0.11815359538E+01  0.24826425561E+01  0.71120795602E+01  0.76257617286E+01  0.10500000000E+00 0.  1.
</event>
<event>
11    0  0.3485800E-009  0.9118800E+02  0.7816531E-02  0.1126479E+00
         25   -1    0    0    0    0  0.00000000000E+00  0.00000000000E+00  0.99999998245E-14  0.12500000000E+03  0.12500000000E+03 0.  0.
    3000001    1    3    3    0    0  0.23638734589E+02 -0.45761389556E+01 -0.68069061473E+01  0.25041261789E+02  0.10000000000E+01 0.  1.
    1000022    2    1    0    0    0  0.54551590477E+02 -0.22608272073E+02 -0.17867300675E+02  0.62500003256E+02  0.99999991957E+01 0.  0.
    3000022    2    3    3    0    0  0.30912855888E+02 -0.18032133117E+02 -0.11060394528E+02  0.37458741467E+02  0.25000249263E+00 0.  0.
    1000022    2    1    0    0    0 -0.54551590477E+02  0.22608272073E+02  0.17867300675E+02  0.62499996744E+02  0.99999584894E+01 0.  0.
    3000022    2    5    5    0    0 -0.46335470592E+02  0.22584000183E+02  0.16410161124E+02  0.54095922091E+02  0.24999902819E+00 0.  0.
        -13    1    4    4    0    0  0.20745178134E+02 -0.12040036438E+02 -0.74155307217E+01  0.25106294313E+02  0.10500000000E+00 0. -1.
         13    1    4    4    0    0  0.10167677754E+02 -0.59920966797E+01 -0.36448638060E+01  0.12352447154E+02  0.10500000000E+00 0.  1.
    3000001    1    5    5    0    0 -0.82161198849E+01  0.24271890147E-01  0.14571395510E+01  0.84040746521E+01  0.10000000000E+01 0. -1.
        -13    1    6    6    0    0 -0.23517483832E+02  0.11421978394E+02  0.83833263363E+01  0.27455870441E+02  0.10500000000E+00 0. -1.
         13    1    6    6    0    0 -0.22817986760E+02  0.11162021789E+02  0.80268347877E+01  0.26640051650E+02  0.10500000000E+00 0.  1.
</event>
<event>
11    0  0.3485800E-009  0.9118800E+02  0.7816531E-02  0.1126479E+00
         25   -1    0    0    0    0  0.00000000000E+00  0.00000000000E+00  0.99999998245E-14  0.12500000000E+03  0.12500000000E+03 0.  0.
    3000001    1    3    3    0    0  0.19681051753E+02  0.36172748032E+02  0.38481285337E+02  0.56370389563E+02  0.10000000000E+01 0. -1.
    1000022    2    1    0    0    0  0.24459105839E+02  0.38951778461E+02  0.41118864826E+02  0.62500000397E+02  0.10000005068E+02 0.  0.
    3000022    2    3    3    0    0  0.47780540863E+01  0.27790304295E+01  0.26375794884E+01  0.61296108344E+01  0.24998488735E+00 0.  0.
    1000022    2    1    0    0    0 -0.24459105839E+02 -0.38951778461E+02 -0.41118864826E+02  0.62499999603E+02  0.10000000102E+02 0.  0.
    3000022    2    5    5    0    0 -0.17604829466E+01 -0.47520172064E+01 -0.91511655019E+01  0.10463618568E+02  0.25003152300E+00 0.  0.
        -13    1    4    4    0    0  0.18050822019E+01  0.98607659719E+00  0.10074298801E+01  0.22927295467E+01  0.10500000000E+00 0.  1.
         13    1    4    4    0    0  0.29729718843E+01  0.17929538323E+01  0.16301496083E+01  0.38368812876E+01  0.10500000000E+00 0. -1.
    3000001    1    5    5    0    0 -0.22698622892E+02 -0.34199761255E+02 -0.31967699324E+02  0.52036381034E+02  0.10000000000E+01 0. -1.
        -13    1    6    6    0    0 -0.63924779078E+00 -0.15710746382E+01 -0.30562025091E+01  0.34969003465E+01  0.10500000000E+00 0.  1.
         13    1    6    6    0    0 -0.11212351558E+01 -0.31809425682E+01 -0.60949629928E+01  0.69667182217E+01  0.10500000000E+00 0. -1.
</event>
<event>
11    0  0.3485800E-009  0.9118800E+02  0.7816531E-02  0.1126479E+00
         25   -1    0    0    0    0  0.00000000000E+00  0.00000000000E+00  0.99999998245E-14  0.12500000000E+03  0.12500000000E+03 0.  0.
    3000001    1    3    3    0    0  0.24538793445E+01  0.38372166786E+02 -0.59205051135E+01  0.38916540037E+02  0.10000000000E+01 0.  1.
    1000022    2    1    0    0    0 -0.25243512052E+01  0.61414587478E+02 -0.53035263718E+01  0.62499989590E+02  0.99998701342E+01 0.  0.
    3000022    2    3    3    0    0 -0.49782305497E+01  0.23042420692E+02  0.61697874177E+00  0.23583449552E+02  0.24999857111E+00 0.  0.
    1000022    2    1    0    0    0  0.25243512052E+01 -0.61414587478E+02  0.53035263718E+01  0.62500010410E+02  0.10000000263E+02 0.  0.
    3000022    2    5    5    0    0  0.25783202683E+01 -0.60040254742E+02  0.37767356422E+01  0.60214667316E+02  0.25000588799E+00 0.  0.
        -13    1    4    4    0    0 -0.14191373662E+01  0.67276146306E+01  0.15237172012E+00  0.68781532131E+01  0.10500000000E+00 0.  1.
         13    1    4    4    0    0 -0.35590931835E+01  0.16314806061E+02  0.46460702165E+00  0.16705296339E+02  0.10500000000E+00 0. -1.
    3000001    1    5    5    0    0 -0.53969063059E-01 -0.13743327354E+01  0.15267907296E+01  0.22853430944E+01  0.10000000000E+01 0. -1.
        -13    1    6    6    0    0  0.60054629964E+00 -0.14305012744E+02  0.91121847367E+00  0.14346964473E+02  0.10500000000E+00 0.  1.
         13    1    6    6    0    0  0.19777739686E+01 -0.45735241998E+02  0.28655171685E+01  0.45867702843E+02  0.10500000000E+00 0. -1.
</event>
<event>
11    0  0.3485800E-009  0.9118800E+02  0.7816531E-02  0.1126479E+00
         25   -1    0    0    0    0  0.00000000000E+00  0.00000000000E+00  0.99999998245E-14  0.12500000000E+03  0.12500000000E+03 0.  0.
    3000001    1    3    3    0    0 -0.50738084689E+01  0.24018062241E+02 -0.17443127283E+01  0.24630336439E+02  0.10000000000E+01 0. -1.
    1000022    2    1    0    0    0 -0.64548437883E+01  0.59557299123E+02 -0.14748324450E+02  0.62500000239E+02  0.10000003430E+02 0.  0.
    3000022    2    3    3    0    0 -0.13810353194E+01  0.35539236882E+02 -0.13004011721E+02  0.37869663800E+02  0.24999751940E+00 0.  0.
    1000022    2    1    0    0    0  0.64548437883E+01 -0.59557299123E+02  0.14748324450E+02  0.62499999761E+02  0.10000000446E+02 0.  0.
    3000022    2    5    5    0    0  0.26112660206E+01 -0.57379195920E+01  0.40118909306E+01  0.74766437397E+01  0.25000259289E+00 0.  0.
        -13    1    4    4    0    0 -0.61687536652E+00  0.17580666291E+02 -0.64473166558E+01  0.18736042259E+02  0.10500000000E+00 0.  1.
         13    1    4    4    0    0 -0.76415995283E+00  0.17958570591E+02 -0.65566950656E+01  0.19133621541E+02  0.10500000000E+00 0. -1.
    3000001    1    5    5    0    0  0.38435777676E+01 -0.53819379531E+02  0.10736433519E+02  0.55023356022E+02  0.10000000000E+01 0.  1.
        -13    1    6    6    0    0  0.16779171557E+01 -0.36724359791E+01  0.26370025413E+01  0.48235878145E+01  0.10500000000E+00 0. -1.
         13    1    6    6    0    0  0.93334886493E+00 -0.20654836129E+01  0.13748883894E+01  0.26530559251E+01  0.10500000000E+00 0.  1.
</event>
<event>
11    0  0.3485800E-009  0.9118800E+02  0.7816531E-02  0.1126479E+00
         25   -1    0    0    0    0  0.00000000000E+00  0.00000000000E+00  0.99999998245E-14  0.12500000000E+03  0.12500000000E+03 0.  0.
    3000001    1    3    3    0    0  0.74129500253E+01 -0.18816622080E+02 -0.46957989105E+02  0.51137753523E+02  0.10000000000E+01 0.  1.
    1000022    2    1    0    0    0  0.12890200522E+02 -0.20383344004E+02 -0.56785666270E+02  0.62499999392E+02  0.10000002402E+02 0.  0.
    3000022    2    3    3    0    0  0.54772504971E+01 -0.15667219239E+01 -0.98276771646E+01  0.11362245869E+02  0.25000429261E+00 0.  0.
    1000022    2    1    0    0    0 -0.12890200522E+02  0.20383344004E+02  0.56785666270E+02  0.62500000608E+02  0.10000009997E+02 0.  0.
    3000022    2    5    5    0    0 -0.22311067398E+01  0.12666464840E+02  0.29907003350E+02  0.32556236237E+02  0.24999946594E+00 0.  0.
        -13    1    4    4    0    0  0.27923032839E+01 -0.86414628312E+00 -0.50910647935E+01  0.58714284599E+01  0.10500000000E+00 0. -1.
         13    1    4    4    0    0  0.26849472132E+01 -0.70257564083E+00 -0.47366123712E+01  0.54908174094E+01  0.10500000000E+00 0.  1.
    3000001    1    5    5    0    0 -0.10659093783E+02  0.77168791632E+01  0.26878662920E+02  0.29943764370E+02  0.10000000000E+01 0.  1.
        -13    1    6    6    0    0 -0.10144386349E+01  0.60886182560E+01  0.14444318047E+02  0.15708268741E+02  0.10500000000E+00 0.  1.
         13    1    6    6    0    0 -0.12166681049E+01  0.65778465844E+01  0.15462685303E+02  0.16847967496E+02  0.10500000000E+00 0. -1.
</event>
<event>
11    0  0.3485800E-009  0.9118800E+02  0.7816531E-02  0.1126479E+00
         25   -1    0    0    0    0  0.00000000000E+00  0.00000000000E+00  0.99999998245E-14  0.12500000000E+03  0.12500000000E+03 0.  0.
    3000001    1    3    3    0    0  0.27880790477E+02 -0.41918071392E+02 -0.47531988713E+01  0.50577228931E+02  0.10000000000E+01 0. -1.
    1000022    2    1    0    0    0  0.35720235835E+02 -0.49335537228E+02 -0.98142542970E+01  0.62500000612E+02  0.10000000371E+02 0.  0.
    3000022    2    3    3    0    0  0.78394453581E+01 -0.74174658369E+01 -0.50610554257E+01  0.11922771682E+02  0.24999917453E+00 0.  0.
    1000022    2    1    0    0    0 -0.35720235835E+02  0.49335537228E+02  0.98142542970E+01  0.62499999388E+02  0.99999927160E+01 0.  0.
    3000022    2    5    5    0    0 -0.14820587421E+02  0.12972644093E+02  0.45654439679E+01  0.20219917660E+02  0.24997058948E+00 0.  0.
        -13    1    4    4    0    0  0.34408080598E+01 -0.31872049697E+01 -0.22471681698E+01  0.52017521478E+01  0.10500000000E+00 0. -1.
         13    1    4    4    0    0  0.43986372983E+01 -0.42302608671E+01 -0.28138872559E+01  0.67210195339E+01  0.10500000000E+00 0.  1.
    3000001    1    5    5    0    0 -0.20899648414E+02  0.36362893136E+02  0.52488103291E+01  0.42280081728E+02  0.10000000000E+01 0. -1.
        -13    1    6    6    0    0 -0.40926482630E+01  0.35829483535E+01  0.13002898990E+01  0.55936631584E+01  0.10500000000E+00 0.  1.
         13    1    6    6    0    0 -0.10727939158E+02  0.93896957395E+01  0.32651540689E+01  0.14626254502E+02  0.10500000000E+00 0. -1.
</event>
<event>
11    0  0.3485800E-009  0.9118800E+02  0.7816531E-02  0.1126479E+00
         25   -1    0    0    0    0  0.00000000000E+00  0.00000000000E+00  0.99999998245E-14  0.12500000000E+03  0.12500000000E+03 0.  0.
    3000001    1    3    3    0    0  0.79823355732E+01  0.13837002781E+01 -0.29213089292E+01  0.86698531431E+01  0.10000000000E+01 0.  1.
    1000022    2    1    0    0    0  0.48781583265E+02  0.32265622019E+02 -0.19635090711E+02  0.62500000112E+02  0.99999998338E+01 0.  0.
    3000022    2    3    3    0    0  0.40799247691E+02  0.30881921741E+02 -0.16713781782E+02  0.53830146969E+02  0.25003726377E+00 0.  0.
    1000022    2    1    0    0    0 -0.48781583265E+02 -0.32265622019E+02  0.19635090711E+02  0.62499999888E+02  0.99999984375E+01 0.  0.
    3000022    2    5    5    0    0 -0.25825897470E+02 -0.12033010935E+02  0.67372625723E+01  0.29278379936E+02  0.24998481265E+00 0.  0.
        -13    1    4    4    0    0  0.31120205737E+02  0.23534101168E+02 -0.12742845819E+02  0.41045246588E+02  0.10500000000E+00 0. -1.
         13    1    4    4    0    0  0.96790419548E+01  0.73478205722E+01 -0.39709359628E+01  0.12784900381E+02  0.10500000000E+00 0.  1.
    3000001    1    5    5    0    0 -0.22955685795E+02 -0.20232611084E+02  0.12897828138E+02  0.33221619953E+02  0.10000000000E+01 0.  1.
        -13    1    6    6    0    0 -0.15438994701E+02 -0.72107474462E+01  0.39663426824E+01  0.17495723346E+02  0.10500000000E+00 0.  1.
         13    1    6    6    0    0 -0.10386902769E+02 -0.48222634885E+01  0.27709198899E+01  0.11782656590E+02  0.10500000000E+00 0. -1.
</event>
<event>
11    0  0.3485800E-009  0.9118800E+02  0.7816531E-02  0.1126479E+00
         25   -1    0    0    0    0  0.00000000000E+00  0.00000000000E+00  0.99999998245E-14  0.12500000000E+03  0.12500000000E+03 0.  0.
    3000001    1    3    3    0    0 -0.46498023846E+02  0.70060838283E+01 -0.76846556394E+01  0.47657164881E+02  0.10000000000E+01 0. -1.
    1000022    2    1    0    0    0 -0.59587972662E+02  0.13998896060E+02 -0.77171514492E+01  0.62499999469E+02  0.99999965107E+01 0.  0.
    3000022    2    3    3    0    0 -0.13089948817E+02  0.69928122315E+01 -0.32495809816E-01  0.14842834588E+02  0.24999941719E+00 0.  0.
    1000022    2    1    0    0    0  0.59587972662E+02 -0.13998896060E+02  0.77171514492E+01  0.62500000531E+02  0.10000003149E+02 0.  0.
    3000022    2    5    5    0    0  0.31496396489E+02 -0.98455292979E+01 -0.20790143731E+00  0.33000956976E+02  0.24999884064E+00 0.  0.
        -13    1    4    4    0    0 -0.75442336750E+01  0.40182672707E+01 -0.82966972384E-01  0.85486748751E+01  0.10500000000E+00 0. -1.
         13    1    4    4    0    0 -0.55457151419E+01  0.29745449607E+01  0.50471162568E-01  0.62941597133E+01  0.10500000000E+00 0.  1.
    3000001    1    5    5    0    0  0.28091576174E+02 -0.41533667618E+01  0.79250528865E+01  0.29499043555E+02  0.10000000000E+01 0. -1.
        -13    1    6    6    0    0  0.12274056463E+02 -0.38255940763E+01 -0.19971389139E-01  0.12856868046E+02  0.10500000000E+00 0. -1.
         13    1    6    6    0    0  0.19222340026E+02 -0.60199352217E+01 -0.18793004817E+00  0.20144088931E+02  0.10500000000E+00 0.  1.
</event>
<event>
11    0  0.3485800E-009  0.9118800E+02  0.7816531E-02  0.1126479E+00
         25   -1    0    0    0    0  0.00000000000E+00  0.00000000000E+00  0.99999998245E-14  0.12500000000E+03  0.12500000000E+03 0.  0.
    3000001    1    3    3    0    0  0.45851937169E+01  0.17575746390E+02 -0.12773477085E+02  0.22228193346E+02  0.10000000000E+01 0.  1.
    1000022    2    1    0    0    0  0.97127668046E+01  0.40670140808E+02 -0.45363545888E+02  0.62499996709E+02  0.10000005040E+02 0.  0.
    3000022    2    3    3    0    0  0.51275730877E+01  0.23094394418E+02 -0.32590068803E+02  0.40271803363E+02  0.25000447602E+00 0.  0.
    1000022    2    1    0    0    0 -0.97127668046E+01 -0.40670140808E+02  0.45363545888E+02  0.62500003291E+02  0.10000046175E+02 0.  0.
    3000022    2    5    5    0    0 -0.11577003672E+02 -0.35410441625E+02  0.38126760717E+02  0.53307023676E+02  0.25000061717E+00 0.  0.
        -13    1    4    4    0    0  0.24879203076E+01  0.11290969206E+02 -0.16038793332E+02  0.19771940967E+02  0.10500000000E+00 0. -1.
         13    1    4    4    0    0  0.26396527801E+01  0.11803425212E+02 -0.16551275471E+02  0.20499862396E+02  0.10500000000E+00 0.  1.
    3000001    1    5    5    0    0  0.18642368675E+01 -0.52596991829E+01  0.72367851707E+01  0.91929796149E+01  0.10000000000E+01 0.  1.
        -13    1    6    6    0    0 -0.28834184736E+01 -0.89026543052E+01  0.95886983940E+01  0.13398713284E+02  0.10500000000E+00 0.  1.
         13    1    6    6    0    0 -0.86935851984E+01 -0.26507787320E+02  0.28538062323E+02  0.39908310392E+02  0.10500000000E+00 0. -1.
</event>
<event>
11    0  0.3485800E-009  0.9118800E+02  0.7816531E-02  0.1126479E+00
         25   -1    0    0    0    0  0.00000000000E+00  0.00000000000E+00  0.99999998245E-14  0.12500000000E+03  0.12500000000E+03 0.  0.
    3000001    1    3    3    0    0  0.35983806487E+01  0.25535993787E+02 -0.46612425009E+01  0.26225226474E+02  0.10000000000E+01 0. -1.
    1000022    2    1    0    0    0  0.10187920699E+02  0.56783901607E+02 -0.21864234089E+02  0.62500000101E+02  0.10000003524E+02 0.  0.
    3000022    2    3    3    0    0  0.65895400507E+01  0.31247907820E+02 -0.17202991588E+02  0.36274773627E+02  0.25000180223E+00 0.  0.
    1000022    2    1    0    0    0 -0.10187920699E+02 -0.56783901607E+02  0.21864234089E+02  0.62499999899E+02  0.10000002263E+02 0.  0.
    3000022    2    5    5    0    0 -0.24518286397E+01 -0.26078917111E+01  0.78610621639E-01  0.35890454135E+01  0.25000899045E+00 0.  0.
        -13    1    4    4    0    0  0.32223977334E+01  0.14957975302E+02 -0.82291510343E+01  0.17373969726E+02  0.10500000000E+00 0. -1.
         13    1    4    4    0    0  0.33671423173E+01  0.16289932518E+02 -0.89738405534E+01  0.18900803901E+02  0.10500000000E+00 0.  1.
    3000001    1    5    5    0    0 -0.77360920597E+01 -0.54176009896E+02  0.21785623467E+02  0.58910954486E+02  0.10000000000E+01 0.  1.
        -13    1    6    6    0    0 -0.17188533445E+01 -0.18887760662E+01  0.48838114773E-01  0.25564314991E+01  0.10500000000E+00 0.  1.
         13    1    6    6    0    0 -0.73297529518E+00 -0.71911564486E+00  0.29772506866E-01  0.10326139144E+01  0.10500000000E+00 0. -1.
</event>
<event>
11    0  0.3485800E-009  0.9118800E+02  0.7816531E-02  0.1126479E+00
         25   -1    0    0    0    0  0.00000000000E+00  0.00000000000E+00  0.99999998245E-14  0.12500000000E+03  0.12500000000E+03 0.  0.
    3000001    1    3    3    0    0  0.34256257999E+02  0.13315908550E+02  0.39579837848E+01  0.36979322172E+02  0.10000000000E+01 0. -1.
    1000022    2    1    0    0    0  0.54026630301E+02  0.29441737532E+02  0.45341645754E+01  0.62499989539E+02  0.99998676660E+01 0.  0.
    3000022    2    3    3    0    0  0.19770372302E+02  0.16125828982E+02  0.57618079061E+00  0.25520667367E+02  0.24999449915E+00 0.  0.
    1000022    2    1    0    0    0 -0.54026630301E+02 -0.29441737532E+02 -0.45341645754E+01  0.62500010461E+02  0.99999984328E+01 0.  0.
    3000022    2    5    5    0    0 -0.14838299688E+02 -0.12591925057E+02 -0.37687588975E+01  0.19824170896E+02  0.24998766796E+00 0.  0.
        -13    1    4    4    0    0  0.71768991088E+01  0.58368834351E+01  0.26591309421E+00  0.92552052287E+01  0.10500000000E+00 0. -1.
         13    1    4    4    0    0  0.12593473193E+02  0.10288945547E+02  0.31026769639E+00  0.16265462138E+02  0.10500000000E+00 0.  1.
    3000001    1    5    5    0    0 -0.39188330614E+02 -0.16849812475E+02 -0.76540567793E+00  0.42675839565E+02  0.10000000000E+01 0. -1.
        -13    1    6    6    0    0 -0.10269351912E+02 -0.87465847501E+01 -0.25704845335E+01  0.13732470616E+02  0.10500000000E+00 0. -1.
         13    1    6    6    0    0 -0.45689477752E+01 -0.38453403073E+01 -0.11982743640E+01  0.60917002801E+01  0.10500000000E+00 0.  1.
</event>
<event>
11    0  0.3485800E-009  0.9118800E+02  0.7816531E-02  0.1126479E+00
         25   -1    0    0    0    0  0.00000000000E+00  0.00000000000E+00  0.99999998245E-14  0.12500000000E+03  0.12500000000E+03 0.  0.
    3000001    1    3    3    0    0 -0.12821974929E+02  0.11964006111E+02  0.14113007406E+02  0.22532586654E+02  0.10000000000E+01 0. -1.
    1000022    2    1    0    0    0 -0.32563803197E+02  0.42602827183E+02  0.30509795326E+02  0.62500002071E+02  0.10000024272E+02 0.  0.
    3000022    2    3    3    0    0 -0.19741828268E+02  0.30638821073E+02  0.16396787920E+02  0.39967415417E+02  0.25000188394E+00 0.  0.
    1000022    2    1    0    0    0  0.32563803197E+02 -0.42602827183E+02 -0.30509795326E+02  0.62499997929E+02  0.99999983786E+01 0.  0.
    3000022    2    5    5    0    0  0.23956235593E+02 -0.25065930626E+02 -0.22666928769E+02  0.41425285196E+02  0.24998366713E+00 0.  0.
        -13    1    4    4    0    0 -0.11360891397E+02  0.17663752377E+02  0.95167396212E+01  0.23057696316E+02  0.10500000000E+00 0. -1.
         13    1    4    4    0    0 -0.83809368711E+01  0.12975068695E+02  0.68800482985E+01  0.16909719101E+02  0.10500000000E+00 0.  1.
    3000001    1    5    5    0    0  0.86075676032E+01 -0.17536896557E+02 -0.78428665574E+01  0.21074712732E+02  0.10000000000E+01 0. -1.
        -13    1    6    6    0    0  0.12720058812E+02 -0.13368890993E+02 -0.11999983174E+02  0.22012218510E+02  0.10500000000E+00 0.  1.
         13    1    6    6    0    0  0.11236176782E+02 -0.11697039634E+02 -0.10666945595E+02  0.19413066687E+02  0.10500000000E+00 0. -1.
</event>
<event>
11    0  0.3485800E-009  0.9118800E+02  0.7816531E-02  0.1126479E+00
         25   -1    0    0    0    0  0.00000000000E+00  0.00000000000E+00  0.99999998245E-14  0.12500000000E+03  0.12500000000E+03 0.  0.
    3000001    1    3    3    0    0  0.21231822873E+02  0.10852579620E+02 -0.11735981565E+02  0.26595150877E+02  0.10000000000E+01 0.  1.
    1000022    2    1    0    0    0  0.54246891064E+02  0.15162216873E+02 -0.25172043574E+02  0.62499996771E+02  0.99999904039E+01 0.  0.
    3000022    2    3    3    0    0  0.33015068191E+02  0.43096372540E+01 -0.13436062010E+02  0.35904845894E+02  0.24999082763E+00 0.  0.
    1000022    2    1    0    0    0 -0.54246891064E+02 -0.15162216873E+02  0.25172043574E+02  0.62500003229E+02  0.10000030767E+02 0.  0.
    3000022    2    5    5    0    0 -0.46375184795E+02 -0.14803556272E+02  0.24580318875E+02  0.54534920987E+02  0.24997595039E+00 0.  0.
        -13    1    4    4    0    0  0.76521642372E+01  0.10084185316E+01 -0.31107417469E+01  0.83222752096E+01  0.10500000000E+00 0.  1.
         13    1    4    4    0    0  0.25362903954E+02  0.33012187224E+01 -0.10325320263E+02  0.27582570684E+02  0.10500000000E+00 0. -1.
    3000001    1    5    5    0    0 -0.78717062689E+01 -0.35866060101E+00  0.59172469968E+00  0.79650822425E+01  0.10000000000E+01 0.  1.
        -13    1    6    6    0    0 -0.30082221199E+02 -0.96243950091E+01  0.15888673435E+02  0.35355763039E+02  0.10500000000E+00 0. -1.
         13    1    6    6    0    0 -0.16292963596E+02 -0.51791612634E+01  0.86916454400E+01  0.19179157948E+02  0.10500000000E+00 0.  1.
</event>
<event>
11    0  0.3485800E-009  0.9118800E+02  0.7816531E-02  0.1126479E+00
         25   -1    0    0    0    0  0.00000000000E+00  0.00000000000E+00  0.99999998245E-14  0.12500000000E+03  0.12500000000E+03 0.  0.
    3000001    1    3    3    0    0 -0.44739063091E+01 -0.20778725229E+01 -0.14049409182E+02  0.14923782706E+02  0.10000000000E+01 0.  1.
    1000022    2    1    0    0    0 -0.33425253409E+02 -0.12710813310E+02 -0.50273627939E+02  0.62500000053E+02  0.10000000000E+02 0.  0.
    3000022    2    3    3    0    0 -0.28951347100E+02 -0.10632940787E+02 -0.36224218756E+02  0.47576217347E+02  0.25000763564E+00 0.  0.
    1000022    2    1    0    0    0  0.33425253409E+02  0.12710813310E+02  0.50273627939E+02  0.62499999947E+02  0.99999993389E+01 0.  0.
    3000022    2    5    5    0    0  0.43076034261E+01  0.52866725825E+01  0.12286851063E+02  0.14054663499E+02  0.25000555215E+00 0.  0.
        -13    1    4    4    0    0 -0.20230305914E+02 -0.74782692342E+01 -0.25319234458E+02  0.33260553914E+02  0.10500000000E+00 0.  1.
         13    1    4    4    0    0 -0.87210411857E+01 -0.31546715529E+01 -0.10904984299E+02  0.14315663433E+02  0.10500000000E+00 0. -1.
    3000001    1    5    5    0    0  0.29117649983E+02  0.74241407276E+01  0.37986776876E+02  0.48445336448E+02  0.10000000000E+01 0.  1.
        -13    1    6    6    0    0  0.19308247682E+01  0.22666145356E+01  0.53861820908E+01  0.61552910780E+01  0.10500000000E+00 0. -1.
         13    1    6    6    0    0  0.23767786578E+01  0.30200580469E+01  0.69006689717E+01  0.78993724214E+01  0.10500000000E+00 0.  1.
</event>
<event>
11    0  0.3485800E-009  0.9118800E+02  0.7816531E-02  0.1126479E+00
         25   -1    0    0    0    0  0.00000000000E+00  0.00000000000E+00  0.99999998245E-14  0.12500000000E+03  0.12500000000E+03 0.  0.
    3000001    1    3    3    0    0 -0.41694255793E+02  0.30548172743E+02 -0.10939585477E+02  0.52841994233E+02  0.10000000000E+01 0. -1.
    1000022    2    1    0    0    0 -0.46176411217E+02  0.38043396875E+02 -0.15056194430E+02  0.62499999862E+02  0.99999996699E+01 0.  0.
    3000022    2    3    3    0    0 -0.44821554236E+01  0.74952241313E+01 -0.41166089526E+01  0.96580056288E+01  0.25000287784E+00 0.  0.
    1000022    2    1    0    0    0  0.46176411217E+02 -0.38043396875E+02  0.15056194430E+02  0.62500000138E+02  0.10000001398E+02 0.  0.
    3000022    2    5    5    0    0  0.24069924186E+02 -0.23541810096E+02  0.43132635813E+01  0.33944731777E+02  0.24999960986E+00 0.  0.
        -13    1    4    4    0    0 -0.11632128667E+01  0.19789249119E+01 -0.11138264164E+01  0.25535939901E+01  0.10500000000E+00 0. -1.
         13    1    4    4    0    0 -0.33189425569E+01  0.55162992194E+01 -0.30027825362E+01  0.71044116388E+01  0.10500000000E+00 0.  1.
    3000001    1    5    5    0    0  0.22106487031E+02 -0.14501586778E+02  0.10742930849E+02  0.28555268361E+02  0.10000000000E+01 0. -1.
        -13    1    6    6    0    0  0.90620124602E+01 -0.89390735218E+01  0.16579025487E+01  0.12836929972E+02  0.10500000000E+00 0.  1.
         13    1    6    6    0    0  0.15007911726E+02 -0.14602736574E+02  0.26553610326E+01  0.21107801805E+02  0.10500000000E+00 0. -1.
</event>
<event>
11    0  0.3485800E-009  0.9118800E+02  0.7816531E-02  0.1126479E+00
         25   -1    0    0    0    0  0.00000000000E+00  0.00000000000E+00  0.99999998245E-14  0.12500000000E+03  0.12500000000E+03 0.  0.
    3000001    1    3    3    0    0 -0.16075978706E+02  0.97901566822E-01  0.22649281918E+01  0.16265810025E+02  0.10000000000E+01 0. -1.
    1000022    2    1    0    0    0 -0.56748781061E+02  0.56643561934E+01  0.23531700502E+02  0.62500000540E+02  0.10000002795E+02 0.  0.
    3000022    2    3    3    0    0 -0.40672802355E+02  0.55664546266E+01  0.21266772311E+02  0.46234190514E+02  0.24999889596E+00 0.  0.
    1000022    2    1    0    0    0  0.56748781061E+02 -0.56643561934E+01 -0.23531700502E+02  0.62499999460E+02  0.99999960508E+01 0.  0.
    3000022    2    5    5    0    0  0.12233048271E+02 -0.12452583302E+01 -0.97048320694E+01  0.15666665366E+02  0.24999976042E+00 0.  0.
        -13    1    4    4    0    0 -0.23213539634E+02  0.31149859347E+01  0.12158916148E+02  0.26389805354E+02  0.10500000000E+00 0.  1.
         13    1    4    4    0    0 -0.17459262721E+02  0.24514686919E+01  0.91078561630E+01  0.19844385161E+02  0.10500000000E+00 0. -1.
    3000001    1    5    5    0    0  0.44515732790E+02 -0.44190978632E+01 -0.13826868433E+02  0.46833334094E+02  0.10000000000E+01 0.  1.
        -13    1    6    6    0    0  0.49094790579E+01 -0.44312017441E+00 -0.39269782602E+01  0.63032946436E+01  0.10500000000E+00 0.  1.
         13    1    6    6    0    0  0.73235692136E+01 -0.80213815575E+00 -0.57778538092E+01  0.93633707225E+01  0.10500000000E+00 0. -1.
</event>
<event>
11    0  0.3485800E-009  0.9118800E+02  0.7816531E-02  0.1126479E+00
         25   -1    0    0    0    0  0.00000000000E+00  0.00000000000E+00  0.99999998245E-14  0.12500000000E+03  0.12500000000E+03 0.  0.
    3000001    1    3    3    0    0  0.67037971268E+01  0.61417973688E+01 -0.19322046197E+01  0.93485820063E+01  0.10000000000E+01 0.  1.
    1000022    2    1    0    0    0  0.43188626172E+02  0.42912812752E+02  0.99741162826E+01  0.62500000593E+02  0.10000007482E+02 0.  0.
    3000022    2    3    3    0    0  0.36484829045E+02  0.36771015383E+02  0.11906320902E+02  0.53151418587E+02  0.24999523548E+00 0.  0.
    1000022    2    1    0    0    0 -0.43188626172E+02 -0.42912812752E+02 -0.99741162826E+01  0.62499999407E+02  0.10000000069E+02 0.  0.
    3000022    2    5    5    0    0 -0.23537856130E+02 -0.19655451327E+02 -0.92357879267E+01  0.32027015430E+02  0.25000136750E+00 0.  0.
        -13    1    4    4    0    0  0.26209436931E+02  0.26439049817E+02  0.85196123885E+01  0.38191003649E+02  0.10500000000E+00 0. -1.
         13    1    4    4    0    0  0.10275392114E+02  0.10331965565E+02  0.33867085138E+01  0.14960414938E+02  0.10500000000E+00 0.  1.
    3000001    1    5    5    0    0 -0.19650770042E+02 -0.23257361425E+02 -0.73832835597E+00  0.30472983977E+02  0.10000000000E+01 0. -1.
        -13    1    6    6    0    0 -0.12510216785E+02 -0.10417379647E+02 -0.48367534668E+01  0.16983301558E+02  0.10500000000E+00 0. -1.
         13    1    6    6    0    0 -0.11027639346E+02 -0.92380716796E+01 -0.43990344598E+01  0.15043713872E+02  0.10500000000E+00 0.  1.
</event>
<event>
11    0  0.3485800E-009  0.9118800E+02  0.7816531E-02  0.1126479E+00
         25   -1    0    0    0    0  0.00000000000E+00  0.00000000000E+00  0.99999998245E-14  0.12500000000E+03  0.12500000000E+03 0.  0.
    3000001    1    3    3    0    0  0.12991905544E+02  0.50791425308E+01 -0.15737500713E+01  0.14073520804E+02  0.10000000000E+01 0. -1.
    1000022    2    1    0    0    0  0.55411536306E+02  0.24864253811E+02  0.10843424529E+02  0.62500005570E+02  0.10000068369E+02 0.  0.
    3000022    2    3    3    0    0  0.42419630762E+02  0.19785111281E+02  0.12417174600E+02  0.48426484767E+02  0.24999895022E+00 0.  0.
    1000022    2    1    0    0    0 -0.55411536306E+02 -0.24864253811E+02 -0.10843424529E+02  0.62499994430E+02  0.99999987401E+01 0.  0.
    3000022    2    5    5    0    0 -0.13796792636E+02 -0.94845460327E+01 -0.63029258003E+01  0.17891268481E+02  0.25002744068E+00 0.  0.
        -13    1    4    4    0    0  0.24708355515E+02  0.11503685811E+02  0.72943460844E+01  0.28214466667E+02  0.10500000000E+00 0. -1.
         13    1    4    4    0    0  0.17711275246E+02  0.82814254693E+01  0.51228285158E+01  0.20212018100E+02  0.10500000000E+00 0.  1.
    3000001    1    5    5    0    0 -0.41614743670E+02 -0.15379707779E+02 -0.45404987286E+01  0.44608725949E+02  0.10000000000E+01 0.  1.
        -13    1    6    6    0    0 -0.56626541543E+01 -0.38528766757E+01 -0.25199621495E+01  0.72987358484E+01  0.10500000000E+00 0.  1.
         13    1    6    6    0    0 -0.81341384821E+01 -0.56316693571E+01 -0.37829636507E+01  0.10592532633E+02  0.10500000000E+00 0. -1.
</event>
<event>
11    0  0.3485800E-009  0.9118800E+02  0.7816531E-02  0.1126479E+00
         25   -1    0    0    0    0  0.00000000000E+00  0.00000000000E+00  0.99999998245E-14  0.12500000000E+03  0.12500000000E+03 0.  0.
    3000001    1    3    3    0    0  0.36652152843E+02 -0.12562613686E+02 -0.44076192817E+02  0.58693358601E+02  0.10000000000E+01 0. -1.
    1000022    2    1    0    0    0  0.39749664100E+02 -0.11232059246E+02 -0.45826361449E+02  0.62500002502E+02  0.99999979101E+01 0.  0.
    3000022    2    3    3    0    0  0.30975112566E+01  0.13305544402E+01 -0.17501686319E+01  0.38066439010E+01  0.24999289160E+00 0.  0.
    1000022    2    1    0    0    0 -0.39749664100E+02  0.11232059246E+02  0.45826361449E+02  0.62499997498E+02  0.99999666309E+01 0.  0.
    3000022    2    5    5    0    0 -0.29326508657E+02  0.43980964913E+01  0.28476889451E+02  0.41114268730E+02  0.24999529034E+00 0.  0.
        -13    1    4    4    0    0  0.21555623626E+01  0.94710843823E+00 -0.11729481987E+01  0.26325455304E+01  0.10500000000E+00 0.  1.
         13    1    4    4    0    0  0.94194889406E+00  0.38344600194E+00 -0.57722043319E+00  0.11740983706E+01  0.10500000000E+00 0. -1.
    3000001    1    5    5    0    0 -0.10423155443E+02  0.68339627548E+01  0.17349471998E+02  0.21385728767E+02  0.10000000000E+01 0.  1.
        -13    1    6    6    0    0 -0.15155532623E+02  0.22065246990E+01  0.14730049691E+02  0.21249571978E+02  0.10500000000E+00 0.  1.
         13    1    6    6    0    0 -0.14170976034E+02  0.21915717922E+01  0.13746839760E+02  0.19864696753E+02  0.10500000000E+00 0. -1.
</event>
<event>
11    0  0.3485800E-009  0.9118800E+02  0.7816531E-02  0.1126479E+00
         25   -1    0    0    0    0  0.00000000000E+00  0.00000000000E+00  0.99999998245E-14  0.12500000000E+03  0.12500000000E+03 0.  0.
    3000001    1    3    3    0    0  0.19009436730E+01 -0.58425054542E+00 -0.91225205708E+01  0.93901713037E+01  0.10000000000E+01 0.  1.
    1000022    2    1    0    0    0  0.33487631029E+02 -0.12633010504E+00 -0.51815176754E+02  0.62499999948E+02  0.10000003009E+02 0.  0.
    3000022    2    3    3    0    0  0.31586687356E+02  0.45792044037E+00 -0.42692656184E+02  0.53109828644E+02  0.24999471077E+00 0.  0.
    1000022    2    1    0    0    0 -0.33487631029E+02  0.12633010504E+00  0.51815176754E+02  0.62500000052E+02  0.10000003657E+02 0.  0.
    3000022    2    5    5    0    0 -0.31329170164E+02 -0.61391084163E+00  0.42169818193E+02  0.52538079969E+02  0.24998135329E+00 0.  0.
        -13    1    4    4    0    0  0.21386042837E+02  0.35108516386E+00 -0.28853804396E+02  0.35917114892E+02  0.10500000000E+00 0. -1.
         13    1    4    4    0    0  0.10200644519E+02  0.10683527651E+00 -0.13838851788E+02  0.17192713753E+02  0.10500000000E+00 0.  1.
    3000001    1    5    5    0    0 -0.21584608654E+01  0.74024094667E+00  0.96453585614E+01  0.99619200832E+01  0.10000000000E+01 0. -1.
        -13    1    6    6    0    0 -0.10702420535E+02 -0.15715517347E+00  0.14377333734E+02  0.17924431744E+02  0.10500000000E+00 0.  1.
         13    1    6    6    0    0 -0.20626749629E+02 -0.45675566816E+00  0.27792484459E+02  0.34613648225E+02  0.10500000000E+00 0. -1.
</event>
<event>
11    0  0.3485800E-009  0.9118800E+02  0.7816531E-02  0.1126479E+00
         25   -1    0    0    0    0  0.00000000000E+00  0.00000000000E+00  0.99999998245E-14  0.12500000000E+03  0.12500000000E+03 0.  0.
    3000001    1    3    3    0    0 -0.20600562311E+02 -0.42229231242E+01 -0.12761513045E+02  0.24618538999E+02  0.10000000000E+01 0.  1.
    1000022    2    1    0    0    0 -0.44503997024E+02 -0.92378955266E+01 -0.41716970235E+02  0.62500000644E+02  0.10000000499E+02 0.  0.
    3000022    2    3    3    0    0 -0.23903434713E+02 -0.50149724025E+01 -0.28955457190E+02  0.37881461645E+02  0.24999195102E+00 0.  0.
    1000022    2    1    0    0    0  0.44503997024E+02  0.92378955266E+01  0.41716970235E+02  0.62499999356E+02  0.99999924503E+01 0.  0.
    3000022    2    5    5    0    0  0.77671589164E+01  0.10215161218E+00  0.29677777494E+01  0.83192185446E+01  0.24999967891E+00 0.  0.
        -13    1    4    4    0    0 -0.10370368949E+02 -0.22278065244E+01 -0.12510527630E+02  0.16402194994E+02  0.10500000000E+00 0.  1.
         13    1    4    4    0    0 -0.13533065764E+02 -0.27871658780E+01 -0.16444929560E+02  0.21479266650E+02  0.10500000000E+00 0. -1.
    3000001    1    5    5    0    0  0.36736838108E+02  0.91357439145E+01  0.38749192486E+02  0.54180780811E+02  0.10000000000E+01 0.  1.
        -13    1    6    6    0    0  0.39611137194E+01  0.13805054892E-01  0.14534246416E+01  0.42206730111E+01  0.10500000000E+00 0. -1.
         13    1    6    6    0    0  0.38060451970E+01  0.88346557293E-01  0.15143531078E+01  0.40985455335E+01  0.10500000000E+00 0.  1.
</event>
<event>
11    0  0.3485800E-009  0.9118800E+02  0.7816531E-02  0.1126479E+00
         25   -1    0    0    0    0  0.00000000000E+00  0.00000000000E+00  0.99999998245E-14  0.12500000000E+03  0.12500000000E+03 0.  0.
    3000001    1    3    3    0    0  0.23424190325E+02  0.42907579262E+02 -0.35131991704E+02  0.60208055039E+02  0.10000000000E+01 0. -1.
    1000022    2    1    0    0    0  0.22820222229E+02  0.43591053840E+02 -0.37219716764E+02  0.62500000201E+02  0.10000009583E+02 0.  0.
    3000022    2    3    3    0    0 -0.60396809665E+00  0.68347457782E+00 -0.20877250600E+01  0.22919451614E+01  0.25000347328E+00 0.  0.
    1000022    2    1    0    0    0 -0.22820222229E+02 -0.43591053840E+02  0.37219716764E+02  0.62499999799E+02  0.10000007077E+02 0.  0.
    3000022    2    5    5    0    0 -0.53209638660E+01 -0.89602681961E+01  0.13335404434E+02  0.16926150577E+02  0.24999860896E+00 0.  0.
        -13    1    4    4    0    0 -0.19320323562E+00  0.29474986899E+00 -0.90145135933E+00  0.97357307315E+00  0.10500000000E+00 0. -1.
         13    1    4    4    0    0 -0.41076486103E+00  0.38872470883E+00 -0.11862737007E+01  0.13183720883E+01  0.10500000000E+00 0.  1.
    3000001    1    5    5    0    0 -0.17499258363E+02 -0.34630785644E+02  0.23884312329E+02  0.45573849223E+02  0.10000000000E+01 0. -1.
        -13    1    6    6    0    0 -0.17762314099E+01 -0.28957694443E+01  0.43779217612E+01  0.55423553335E+01  0.10500000000E+00 0. -1.
         13    1    6    6    0    0 -0.35447324562E+01 -0.60644987519E+01  0.89574826733E+01  0.11383795243E+02  0.10500000000E+00 0.  1.
</event>
<event>
11    0  0.3485800E-009  0.9118800E+02  0.7816531E-02  0.1126479E+00
         25   -1    0    0    0    0  0.00000000000E+00  0.00000000000E+00  0.99999998245E-14  0.12500000000E+03  0.12500000000E+03 0.  0.
    3000001    1    3    3    0    0  0.41170554890E+02  0.21055379817E+02 -0.26878258341E+01  0.46331069672E+02  0.10000000000E+01 0. -1.
    1000022    2    1    0    0    0  0.57102059432E+02  0.23330168428E+02 -0.11437050338E+01  0.62499999908E+02  0.99999988527E+01 0.  0.
    3000022    2    3    3    0    0  0.15931504542E+02  0.22747886104E+01  0.15441208003E+01  0.16168930236E+02  0.24999150187E+00 0.  0.
    1000022    2    1    0    0    0 -0.57102059432E+02 -0.23330168428E+02  0.11437050338E+01  0.62500000092E+02  0.10000000002E+02 0.  0.
    3000022    2    5    5    0    0 -0.94084721396E+01 -0.29368559056E+01  0.37643736062E+01  0.10553552974E+02  0.25000221662E+00 0.  0.
        -13    1    4    4    0    0  0.85200203070E+01  0.11672271713E+01  0.87159872319E+00  0.86442972320E+01  0.10500000000E+00 0.  1.
         13    1    4    4    0    0  0.74114842347E+01  0.11075614391E+01  0.67252207707E+00  0.75246330041E+01  0.10500000000E+00 0. -1.
    3000001    1    5    5    0    0 -0.47693587292E+02 -0.20393312522E+02 -0.26206685724E+01  0.51946447118E+02  0.10000000000E+01 0. -1.
        -13    1    6    6    0    0 -0.24037776877E+01 -0.72141939341E+00  0.94966061692E+00  0.26854186639E+01  0.10500000000E+00 0. -1.
         13    1    6    6    0    0 -0.70046944519E+01 -0.22154365122E+01  0.28147129892E+01  0.78681343097E+01  0.10500000000E+00 0.  1.
</event>
<event>
11    0  0.3485800E-009  0.9118800E+02  0.7816531E-02  0.1126479E+00
         25   -1    0    0    0    0  0.00000000000E+00  0.00000000000E+00  0.99999998245E-14  0.12500000000E+03  0.12500000000E+03 0.  0.
    3000001    1    3    3    0    0 -0.11075820664E+01  0.25470755948E+02  0.27896810734E+02  0.37805002258E+02  0.10000000000E+01 0.  1.
    1000022    2    1    0    0    0 -0.94570242823E+01  0.39668876877E+02  0.46294657297E+02  0.62500003418E+02  0.10000001604E+02 0.  0.
    3000022    2    3    3    0    0 -0.83494422159E+01  0.14198120929E+02  0.18397846563E+02  0.24695001160E+02  0.25000183504E+00 0.  0.
    1000022    2    1    0    0    0  0.94570242823E+01 -0.39668876877E+02 -0.46294657297E+02  0.62499996582E+02  0.99999588747E+01 0.  0.
    3000022    2    5    5    0    0  0.96840750948E+01 -0.22285014282E+02 -0.23394838861E+02  0.33731056469E+02  0.25002640210E+00 0.  0.
        -13    1    4    4    0    0 -0.37332447111E+01  0.64640980868E+01  0.82899237239E+01  0.11155964346E+02  0.10500000000E+00 0. -1.
         13    1    4    4    0    0 -0.46161975049E+01  0.77340228422E+01  0.10107922839E+02  0.13539036814E+02  0.10500000000E+00 0.  1.
    3000001    1    5    5    0    0 -0.22705081253E+00 -0.17383862595E+02 -0.22899818436E+02  0.28768940112E+02  0.10000000000E+01 0. -1.
        -13    1    6    6    0    0  0.71404036394E+01 -0.16481397319E+02 -0.17328154352E+02  0.24957920185E+02  0.10500000000E+00 0. -1.
         13    1    6    6    0    0  0.25436714554E+01 -0.58036169634E+01 -0.60666845092E+01  0.87731362844E+01  0.10500000000E+00 0.  1.
</event>
<event>
11    0  0.3485800E-009  0.9118800E+02  0.7816531E-02  0.1126479E+00
         25   -1    0    0    0    0  0.00000000000E+00  0.00000000000E+00  0.99999998245E-14  0.12500000000E+03  0.12500000000E+03 0.  0.
    3000001    1    3    3    0    0 -0.35518083532E+02 -0.14843643897E+02  0.34015683171E+01  0.38657970575E+02  0.10000000000E+01 0.  1.
    1000022    2    1    0    0    0 -0.53252827581E+02 -0.30536664528E+02  0.61561136238E+01  0.62499993546E+02  0.99999966244E+01 0.  0.
    3000022    2    3    3    0    0 -0.17734744048E+02 -0.15693020631E+02  0.27545453067E+01  0.23842022971E+02  0.24999305861E+00 0.  0.
    1000022    2    1    0    0    0  0.53252827581E+02  0.30536664528E+02 -0.61561136238E+01  0.62500006454E+02  0.10000077300E+02 0.  0.
    3000022    2    5    5    0    0  0.14337471415E+02  0.40183709675E+01 -0.36406924250E+01  0.15330607659E+02  0.24999613255E+00 0.  0.
        -13    1    4    4    0    0 -0.87026271678E+01 -0.76995552064E+01  0.14198247932E+01  0.11706656117E+02  0.10500000000E+00 0. -1.
         13    1    4    4    0    0 -0.90321168805E+01 -0.79934654245E+01  0.13347205135E+01  0.12135366854E+02  0.10500000000E+00 0.  1.
    3000001    1    5    5    0    0  0.38915356166E+02  0.26518293560E+02 -0.25154211987E+01  0.47169398795E+02  0.10000000000E+01 0.  1.
        -13    1    6    6    0    0  0.10421682527E+02  0.28959631386E+01 -0.26150075113E+01  0.11128672809E+02  0.10500000000E+00 0. -1.
         13    1    6    6    0    0  0.39157888876E+01  0.11224078289E+01 -0.10256849137E+01  0.42019348507E+01  0.10500000000E+00 0.  1.
</event>
<event>
11    0  0.3485800E-009  0.9118800E+02  0.7816531E-02  0.1126479E+00
         25   -1    0    0    0    0  0.00000000000E+00  0.00000000000E+00  0.99999998245E-14  0.12500000000E+03  0.12500000000E+03 0.  0.
    3000001    1    3    3    0    0  0.24925040004E+02 -0.30303339818E+02  0.17900114793E+02  0.43138893506E+02  0.10000000000E+01 0.  1.
    1000022    2    1    0    0    0  0.30446576606E+02 -0.47317220975E+02  0.25304871973E+02  0.62500000083E+02  0.10000001846E+02 0.  0.
    3000022    2    3    3    0    0  0.55215366026E+01 -0.17013881157E+02  0.74047571804E+01  0.19361106577E+02  0.25000100408E+00 0.  0.
    1000022    2    1    0    0    0 -0.30446576606E+02  0.47317220975E+02 -0.25304871973E+02  0.62499999917E+02  0.10000000807E+02 0.  0.
    3000022    2    5    5    0    0 -0.10936932438E+02  0.23355657505E+02 -0.76646871395E+01  0.26905634345E+02  0.25000380482E+00 0.  0.
        -13    1    4    4    0    0  0.18921382597E+01 -0.57002595427E+01  0.24474475423E+01  0.64864605542E+01  0.10500000000E+00 0.  1.
         13    1    4    4    0    0  0.36293983429E+01 -0.11313621615E+02  0.49573096381E+01  0.12874646023E+02  0.10500000000E+00 0. -1.
    3000001    1    5    5    0    0 -0.19509644168E+02  0.23961563471E+02 -0.17640184834E+02  0.35594365572E+02  0.10000000000E+01 0. -1.
        -13    1    6    6    0    0 -0.55556350365E+01  0.11852568965E+02 -0.39609071941E+01  0.13676559601E+02  0.10500000000E+00 0. -1.
         13    1    6    6    0    0 -0.53812974017E+01  0.11503088540E+02 -0.37037799454E+01  0.13229074744E+02  0.10500000000E+00 0.  1.
</event>
<event>
11    0  0.3485800E-009  0.9118800E+02  0.7816531E-02  0.1126479E+00
         25   -1    0    0    0    0  0.00000000000E+00  0.00000000000E+00  0.99999998245E-14  0.12500000000E+03  0.12500000000E+03 0.  0.
    3000001    1    3    3    0    0  0.15307629251E+02 -0.32565851594E+01 -0.63625239025E+01  0.16923668946E+02  0.10000000000E+01 0.  1.
    1000022    2    1    0    0    0  0.59091842446E+02  0.27008871866E+01 -0.17524539861E+02  0.62499999446E+02  0.99999899069E+01 0.  0.
    3000022    2    3    3    0    0  0.43784213195E+02  0.59574723461E+01 -0.11162015958E+02  0.45576330500E+02  0.24999941987E+00 0.  0.
    1000022    2    1    0    0    0 -0.59091842446E+02 -0.27008871866E+01  0.17524539861E+02  0.62500000554E+02  0.99999968315E+01 0.  0.
    3000022    2    5    5    0    0 -0.28028381633E+02 -0.31003999171E+00  0.32611223141E+01  0.28220271440E+02  0.24999929986E+00 0.  0.
        -13    1    4    4    0    0  0.23498816245E+02  0.31338230824E+01 -0.59641556038E+01  0.24445805143E+02  0.10500000000E+00 0.  1.
         13    1    4    4    0    0  0.20285396950E+02  0.28236492636E+01 -0.51978603544E+01  0.21130525357E+02  0.10500000000E+00 0. -1.
    3000001    1    5    5    0    0 -0.31063460814E+02 -0.23908471949E+01  0.14263417547E+02  0.34279729114E+02  0.10000000000E+01 0. -1.
        -13    1    6    6    0    0 -0.18280706861E+02 -0.23127828574E+00  0.20786158666E+01  0.18400255485E+02  0.10500000000E+00 0. -1.
         13    1    6    6    0    0 -0.97476747713E+01 -0.78761705970E-01  0.11825064475E+01  0.98200159547E+01  0.10500000000E+00 0.  1.
</event>
<event>
11    0  0.3485800E-009  0.9118800E+02  0.7816531E-02  0.1126479E+00
         25   -1    0    0    0    0  0.00000000000E+00  0.00000000000E+00  0.99999998245E-14  0.12500000000E+03  0.12500000000E+03 0.  0.
    3000001    1    3    3    0    0  0.66716714655E+01 -0.13082605423E+02  0.44628137595E+02  0.46992940215E+02  0.10000000000E+01 0.  1.
    1000022    2    1    0    0    0  0.39139909833E+01 -0.19976375437E+02  0.58239812895E+02  0.62500005199E+02  0.99999971400E+01 0.  0.
    3000022    2    3    3    0    0 -0.27576804821E+01 -0.68937700145E+01  0.13611675300E+02  0.15507064984E+02  0.24998661877E+00 0.  0.
    1000022    2    1    0    0    0 -0.39139909833E+01  0.19976375437E+02 -0.58239812895E+02  0.62499994801E+02  0.99999321535E+01 0.  0.
    3000022    2    5    5    0    0 -0.67430310056E+01  0.14463360258E+02 -0.35750804690E+02  0.39151498193E+02  0.25003536821E+00 0.  0.
        -13    1    4    4    0    0 -0.14526345375E+01 -0.34638323796E+01  0.69410334239E+01  0.78928608151E+01  0.10500000000E+00 0.  1.
         13    1    4    4    0    0 -0.13050459446E+01 -0.34299376349E+01  0.66706418756E+01  0.76142041692E+01  0.10500000000E+00 0. -1.
    3000001    1    5    5    0    0  0.28290400223E+01  0.55130151796E+01 -0.22489008205E+02  0.23348496609E+02  0.10000000000E+01 0.  1.
        -13    1    6    6    0    0 -0.24950635522E+01  0.52454851887E+01 -0.13106810228E+02  0.14336664757E+02  0.10500000000E+00 0.  1.
         13    1    6    6    0    0 -0.42479674534E+01  0.92178750689E+01 -0.22643994462E+02  0.24814833436E+02  0.10500000000E+00 0. -1.
</event>
<event>
11    0  0.3485800E-009  0.9118800E+02  0.7816531E-02  0.1126479E+00
         25   -1    0    0    0    0  0.00000000000E+00  0.00000000000E+00  0.99999998245E-14  0.12500000000E+03  0.12500000000E+03 0.  0.
    3000001    1    3    3    0    0 -0.10226581819E+02  0.19616832447E+01  0.38944677634E+02  0.40325166991E+02  0.10000000000E+01 0. -1.
    1000022    2    1    0    0    0 -0.11621623276E+02 -0.29708647370E+01  0.60517450804E+02  0.62499999986E+02  0.99999990806E+01 0.  0.
    3000022    2    3    3    0    0 -0.13950414568E+01 -0.49325479817E+01  0.21572773170E+02  0.22174832995E+02  0.25001170768E+00 0.  0.
    1000022    2    1    0    0    0  0.11621623276E+02  0.29708647370E+01 -0.60517450804E+02  0.62500000014E+02  0.99999992552E+01 0.  0.
    3000022    2    5    5    0    0  0.58771574962E+01 -0.21857285993E+00 -0.10454569754E+02  0.11997886610E+02  0.25000006242E+00 0.  0.
        -13    1    4    4    0    0 -0.72904028354E+00 -0.26494429105E+01  0.11840398428E+02  0.12155538138E+02  0.10500000000E+00 0. -1.
         13    1    4    4    0    0 -0.66600117330E+00 -0.22831050712E+01  0.97323747417E+01  0.10019294858E+02  0.10500000000E+00 0.  1.
    3000001    1    5    5    0    0  0.57444657795E+01  0.31894375970E+01 -0.50062881050E+02  0.50502113404E+02  0.10000000000E+01 0. -1.
        -13    1    6    6    0    0  0.20822760256E+01 -0.21784583342E-01 -0.36760952933E+01  0.42262335028E+01  0.10500000000E+00 0.  1.
         13    1    6    6    0    0  0.37948814706E+01 -0.19678827659E+00 -0.67784744610E+01  0.77716531073E+01  0.10500000000E+00 0. -1.
</event>
<event>
11    0  0.3485800E-009  0.9118800E+02  0.7816531E-02  0.1126479E+00
         25   -1    0    0    0    0  0.00000000000E+00  0.00000000000E+00  0.99999998245E-14  0.12500000000E+03  0.12500000000E+03 0.  0.
    3000001    1    3    3    0    0 -0.67757159975E+01  0.84129808234E+01  0.11985559427E+02  0.16166082036E+02  0.10000000000E+01 0.  1.
    1000022    2    1    0    0    0 -0.24135107294E+02  0.17893919788E+02  0.53884638540E+02  0.62500000593E+02  0.10000001701E+02 0.  0.
    3000022    2    3    3    0    0 -0.17359391296E+02  0.94809389651E+01  0.41899079113E+02  0.46333918557E+02  0.25001695284E+00 0.  0.
    1000022    2    1    0    0    0  0.24135107294E+02 -0.17893919788E+02 -0.53884638540E+02  0.62499999407E+02  0.99999942937E+01 0.  0.
    3000022    2    5    5    0    0  0.47343449639E+01 -0.42327525277E+01 -0.47752568681E+01  0.79495783449E+01  0.25000301694E+00 0.  0.
        -13    1    4    4    0    0 -0.80301987128E+01  0.43402527114E+01  0.19209492411E+02  0.21268227680E+02  0.10500000000E+00 0.  1.
         13    1    4    4    0    0 -0.93291925835E+01  0.51406862537E+01  0.22689586702E+02  0.25065690877E+02  0.10500000000E+00 0. -1.
    3000001    1    5    5    0    0  0.19400762330E+02 -0.13661167261E+02 -0.49109381672E+02  0.54550421062E+02  0.10000000000E+01 0. -1.
        -13    1    6    6    0    0  0.12671377906E+01 -0.11024920578E+01 -0.12958573172E+01  0.21240052034E+01  0.10500000000E+00 0.  1.
         13    1    6    6    0    0  0.34672071733E+01 -0.31302604699E+01 -0.34793995509E+01  0.58255731415E+01  0.10500000000E+00 0. -1.
</event>
<event>
11    0  0.3485800E-009  0.9118800E+02  0.7816531E-02  0.1126479E+00
         25   -1    0    0    0    0  0.00000000000E+00  0.00000000000E+00  0.99999998245E-14  0.12500000000E+03  0.12500000000E+03 0.  0.
    3000001    1    3    3    0    0 -0.21264190673E+01  0.12827532730E+01  0.90150685505E+01  0.94041785914E+01  0.10000000000E+01 0. -1.
    1000022    2    1    0    0    0 -0.31425262106E+02  0.19374083767E+02  0.49430231064E+02  0.62500000474E+02  0.10000004795E+02 0.  0.
    3000022    2    3    3    0    0 -0.29298843039E+02  0.18091330494E+02  0.40415162513E+02  0.53095821882E+02  0.24999575825E+00 0.  0.
    1000022    2    1    0    0    0  0.31425262106E+02 -0.19374083767E+02 -0.49430231064E+02  0.62499999526E+02  0.99999988745E+01 0.  0.
    3000022    2    5    5    0    0  0.22910636299E+02 -0.17963279414E+02 -0.33740793160E+02  0.44565460689E+02  0.25000088209E+00 0.  0.
        -13    1    4    4    0    0 -0.15497246738E+02  0.95232502025E+01  0.21263929375E+02  0.27982542206E+02  0.10500000000E+00 0. -1.
         13    1    4    4    0    0 -0.13801596301E+02  0.85680802917E+01  0.19151233139E+02  0.25113279676E+02  0.10500000000E+00 0.  1.
    3000001    1    5    5    0    0  0.85146258071E+01 -0.14108043534E+01 -0.15689437904E+02  0.17934538837E+02  0.10000000000E+01 0.  1.
        -13    1    6    6    0    0  0.92452215725E+01 -0.73275810302E+01 -0.13650792689E+02  0.18042248522E+02  0.10500000000E+00 0.  1.
         13    1    6    6    0    0  0.13665414727E+02 -0.10635698384E+02 -0.20090000471E+02  0.26523212167E+02  0.10500000000E+00 0. -1.
</event>
<event>
11    0  0.3485800E-009  0.9118800E+02  0.7816531E-02  0.1126479E+00
         25   -1    0    0    0    0  0.00000000000E+00  0.00000000000E+00  0.99999998245E-14  0.12500000000E+03  0.12500000000E+03 0.  0.
    3000001    1    3    3    0    0  0.27999941351E+02  0.15313278154E+02  0.95685815075E+01  0.33332430988E+02  0.10000000000E+01 0. -1.
    1000022    2    1    0    0    0  0.55164405872E+02  0.25932788706E+02  0.95198974929E+01  0.62499998607E+02  0.10000008613E+02 0.  0.
    3000022    2    3    3    0    0  0.27164464521E+02  0.10619510551E+02 -0.48684014675E-01  0.29167567618E+02  0.24998718348E+00 0.  0.
    1000022    2    1    0    0    0 -0.55164405872E+02 -0.25932788706E+02 -0.95198974929E+01  0.62500001393E+02  0.10000026031E+02 0.  0.
    3000022    2    5    5    0    0 -0.44988979708E+01 -0.31956108431E+01 -0.37104678179E+01  0.66544785541E+01  0.25000357368E+00 0.  0.
        -13    1    4    4    0    0  0.64850246932E+01  0.25539417191E+01 -0.17659852689E-01  0.69706169344E+01  0.10500000000E+00 0. -1.
         13    1    4    4    0    0  0.20679439827E+02  0.80655688324E+01 -0.31024161985E-01  0.22196950684E+02  0.10500000000E+00 0.  1.
    3000001    1    5    5    0    0 -0.50665507901E+02 -0.22737177863E+02 -0.58094296750E+01  0.55845522839E+02  0.10000000000E+01 0.  1.
        -13    1    6    6    0    0 -0.31568112638E+01 -0.22839929143E+01 -0.25842264446E+01  0.46766796239E+01  0.10500000000E+00 0.  1.
         13    1    6    6    0    0 -0.13420867070E+01 -0.91161792882E+00 -0.11262413733E+01  0.19777989301E+01  0.10500000000E+00 0. -1.
</event>
<event>
11    0  0.3485800E-009  0.9118800E+02  0.7816531E-02  0.1126479E+00
         25   -1    0    0    0    0  0.00000000000E+00  0.00000000000E+00  0.99999998245E-14  0.12500000000E+03  0.12500000000E+03 0.  0.
    3000001    1    3    3    0    0 -0.24466098006E+02 -0.22307762457E+02  0.17234856058E+02  0.37339877890E+02  0.10000000000E+01 0.  1.
    1000022    2    1    0    0    0 -0.37366032550E+02 -0.34049366009E+02  0.35364820071E+02  0.62499998102E+02  0.99999774946E+01 0.  0.
    3000022    2    3    3    0    0 -0.12899934544E+02 -0.11741603552E+02  0.18129964013E+02  0.25160120212E+02  0.24997750076E+00 0.  0.
    1000022    2    1    0    0    0  0.37366032550E+02  0.34049366009E+02 -0.35364820071E+02  0.62500001898E+02  0.10000001224E+02 0.  0.
    3000022    2    5    5    0    0  0.34062531057E+01  0.23898196210E+01 -0.67390985020E-01  0.41690324439E+01  0.24998386449E+00 0.  0.
        -13    1    4    4    0    0 -0.77823586776E+01 -0.69995078265E+01  0.10863351780E+02  0.15085809667E+02  0.10500000000E+00 0. -1.
         13    1    4    4    0    0 -0.51175758666E+01 -0.47420957256E+01  0.72666122326E+01  0.10074310545E+02  0.10500000000E+00 0.  1.
    3000001    1    5    5    0    0  0.33959779444E+02  0.31659546388E+02 -0.35297429086E+02  0.58330969454E+02  0.10000000000E+01 0.  1.
        -13    1    6    6    0    0  0.14490930260E+01  0.10968316144E+01 -0.22971673899E-01  0.18205666387E+01  0.10500000000E+00 0.  1.
         13    1    6    6    0    0  0.19571600797E+01  0.12929880066E+01 -0.44419311121E-01  0.23484658051E+01  0.10500000000E+00 0. -1.
</event>
<event>
11    0  0.3485800E-009  0.9118800E+02  0.7816531E-02  0.1126479E+00
         25   -1    0    0    0    0  0.00000000000E+00  0.00000000000E+00  0.99999998245E-14  0.12500000000E+03  0.12500000000E+03 0.  0.
    3000001    1    3    3    0    0  0.18437570852E+02  0.11450453928E+02  0.25612156002E+02  0.33586298533E+02  0.10000000000E+01 0.  1.
    1000022    2    1    0    0    0  0.40973144657E+02  0.20292014724E+02  0.41420835168E+02  0.62499999809E+02  0.99999972745E+01 0.  0.
    3000022    2    3    3    0    0  0.22535573804E+02  0.88415607959E+01  0.15808679167E+02  0.28913701276E+02  0.25000098563E+00 0.  0.
    1000022    2    1    0    0    0 -0.40973144657E+02 -0.20292014724E+02 -0.41420835168E+02  0.62500000191E+02  0.99999996601E+01 0.  0.
    3000022    2    5    5    0    0 -0.35793777416E+02 -0.13651950919E+02 -0.33329330268E+02  0.50778705727E+02  0.24986723954E+00 0.  0.
        -13    1    4    4    0    0  0.11445399839E+02  0.45393917251E+01  0.81005559307E+01  0.14738835982E+02  0.10500000000E+00 0.  1.
         13    1    4    4    0    0  0.11090173965E+02  0.43021690708E+01  0.77081232360E+01  0.14174865294E+02  0.10500000000E+00 0. -1.
    3000001    1    5    5    0    0 -0.51793672408E+01 -0.66400638049E+01 -0.80915049003E+01  0.11721294464E+02  0.10000000000E+01 0. -1.
        -13    1    6    6    0    0 -0.18346417139E+02 -0.69357732789E+01 -0.17111082946E+02  0.26028756356E+02  0.10500000000E+00 0.  1.
         13    1    6    6    0    0 -0.17447360276E+02 -0.67161776400E+01 -0.16218247322E+02  0.24749949371E+02  0.10500000000E+00 0. -1.
</event>
<event>
11    0  0.3485800E-009  0.9118800E+02  0.7816531E-02  0.1126479E+00
         25   -1    0    0    0    0  0.00000000000E+00  0.00000000000E+00  0.99999998245E-14  0.12500000000E+03  0.12500000000E+03 0.  0.
    3000001    1    3    3    0    0  0.34813863147E+02 -0.30620954306E+02 -0.22581028343E+02  0.51580526857E+02  0.10000000000E+01 0.  1.
    1000022    2    1    0    0    0  0.38512034765E+02 -0.39808761135E+02 -0.27172331449E+02  0.62499997003E+02  0.99999872073E+01 0.  0.
    3000022    2    3    3    0    0  0.36981716178E+01 -0.91878068289E+01 -0.45913031060E+01  0.10919470146E+02  0.24999282035E+00 0.  0.
    1000022    2    1    0    0    0 -0.38512034765E+02  0.39808761135E+02  0.27172331449E+02  0.62500002997E+02  0.10000024673E+02 0.  0.
    3000022    2    5    5    0    0 -0.62550041087E+00  0.12549613281E+01  0.29154770714E+01  0.32447926846E+01  0.24998862593E+00 0.  0.
        -13    1    4    4    0    0  0.19957029735E+01 -0.49943732585E+01 -0.25654030428E+01  0.59597745239E+01  0.10500000000E+00 0.  1.
         13    1    4    4    0    0  0.17024686443E+01 -0.41934335704E+01 -0.20259000632E+01  0.49596956217E+01  0.10500000000E+00 0. -1.
    3000001    1    5    5    0    0 -0.37886534354E+02  0.38553799807E+02  0.24256854377E+02  0.59255210313E+02  0.10000000000E+01 0.  1.
        -13    1    6    6    0    0 -0.19330487855E+00  0.31775576931E+00  0.82826825534E+00  0.91399606553E+00  0.10500000000E+00 0. -1.
         13    1    6    6    0    0 -0.43219553233E+00  0.93720555884E+00  0.20872088160E+01  0.23307966191E+01  0.10500000000E+00 0.  1.
</event>
<event>
11    0  0.3485800E-009  0.9118800E+02  0.7816531E-02  0.1126479E+00
         25   -1    0    0    0    0  0.00000000000E+00  0.00000000000E+00  0.99999998245E-14  0.12500000000E+03  0.12500000000E+03 0.  0.
    3000001    1    3    3    0    0 -0.12340698061E+02  0.58888840220E+01 -0.10189837052E+02  0.17082287985E+02  0.10000000000E+01 0. -1.
    1000022    2    1    0    0    0 -0.34092554655E+02  0.32884687695E+02 -0.39529045037E+02  0.62499997103E+02  0.99999634285E+01 0.  0.
    3000022    2    3    3    0    0 -0.21751856595E+02  0.26995803673E+02 -0.29339207985E+02  0.45417709118E+02  0.24999012145E+00 0.  0.
    1000022    2    1    0    0    0  0.34092554655E+02 -0.32884687695E+02  0.39529045037E+02  0.62500002897E+02  0.99999996466E+01 0.  0.
    3000022    2    5    5    0    0  0.73014450139E+01 -0.23721259823E+01  0.79144832207E+01  0.11029035383E+02  0.24999170536E+00 0.  0.
        -13    1    4    4    0    0 -0.68866568869E+01  0.84689734650E+01 -0.92270839152E+01  0.14293343108E+02  0.10500000000E+00 0. -1.
         13    1    4    4    0    0 -0.14865199708E+02  0.18526830208E+02 -0.20112124070E+02  0.31124366010E+02  0.10500000000E+00 0.  1.
    3000001    1    5    5    0    0  0.26791109641E+02 -0.30512561712E+02  0.31614561816E+02  0.51470967515E+02  0.10000000000E+01 0. -1.
        -13    1    6    6    0    0  0.39739431093E+01 -0.12212056313E+01  0.42975436350E+01  0.59802569614E+01  0.10500000000E+00 0.  1.
         13    1    6    6    0    0  0.33275019046E+01 -0.11509203510E+01  0.36169395857E+01  0.50487784212E+01  0.10500000000E+00 0. -1.
</event>
<event>
11    0  0.3485800E-009  0.9118800E+02  0.7816531E-02  0.1126479E+00
         25   -1    0    0    0    0  0.00000000000E+00  0.00000000000E+00  0.99999998245E-14  0.12500000000E+03  0.12500000000E+03 0.  0.
    3000001    1    3    3    0    0 -0.54790575234E+01  0.64618615266E+01 -0.33655748808E+02  0.34720097257E+02  0.10000000000E+01 0. -1.
    1000022    2    1    0    0    0 -0.42029240557E+01  0.48628601667E+01 -0.61359091663E+02  0.62500000536E+02  0.99999978821E+01 0.  0.
    3000022    2    3    3    0    0  0.12761334677E+01 -0.15990013599E+01 -0.27703342855E+02  0.27779903279E+02  0.24999767656E+00 0.  0.
    1000022    2    1    0    0    0  0.42029240557E+01 -0.48628601667E+01  0.61359091663E+02  0.62499999464E+02  0.99999911862E+01 0.  0.
    3000022    2    5    5    0    0  0.71337285108E+01 -0.18359929148E+01  0.33068935059E+02  0.33880347112E+02  0.25000404122E+00 0.  0.
        -13    1    4    4    0    0  0.74695732041E+00 -0.82950147756E+00 -0.14959166226E+02  0.15001123195E+02  0.10500000000E+00 0.  1.
         13    1    4    4    0    0  0.52917614729E+00 -0.76949988234E+00 -0.12744176630E+02  0.12778780084E+02  0.10500000000E+00 0. -1.
    3000001    1    5    5    0    0 -0.29308044551E+01 -0.30268672519E+01  0.28290156604E+02  0.28619652352E+02  0.10000000000E+01 0. -1.
        -13    1    6    6    0    0  0.23528917134E+01 -0.58754211750E+00  0.10664649715E+02  0.10937416683E+02  0.10500000000E+00 0. -1.
         13    1    6    6    0    0  0.47808367974E+01 -0.12484507973E+01  0.22404285345E+02  0.22942930429E+02  0.10500000000E+00 0.  1.
</event>
<event>
11    0  0.3485800E-009  0.9118800E+02  0.7816531E-02  0.1126479E+00
         25   -1    0    0    0    0  0.00000000000E+00  0.00000000000E+00  0.99999998245E-14  0.12500000000E+03  0.12500000000E+03 0.  0.
    3000001    1    3    3    0    0 -0.11739970613E+01  0.56050159606E+01  0.16179678445E+02  0.17192337468E+02  0.10000000000E+01 0. -1.
    1000022    2    1    0    0    0 -0.10198035390E+02  0.32997959650E+02  0.51121274828E+02  0.62500000080E+02  0.10000000156E+02 0.  0.
    3000022    2    3    3    0    0 -0.90240383290E+01  0.27392943689E+02  0.34941596383E+02  0.45307662613E+02  0.25000382067E+00 0.  0.
    1000022    2    1    0    0    0  0.10198035390E+02 -0.32997959650E+02 -0.51121274828E+02  0.62499999920E+02  0.99999991506E+01 0.  0.
    3000022    2    5    5    0    0  0.66860823830E+01 -0.14067837885E+02 -0.15382005462E+02  0.21892381191E+02  0.25000359123E+00 0.  0.
        -13    1    4    4    0    0 -0.41009550657E+01  0.12562984351E+02  0.15921762379E+02  0.20692026254E+02  0.10500000000E+00 0. -1.
         13    1    4    4    0    0 -0.49230832633E+01  0.14829959338E+02  0.19019834004E+02  0.24615636359E+02  0.10500000000E+00 0.  1.
    3000001    1    5    5    0    0  0.35119530074E+01 -0.18930121764E+02 -0.35739269366E+02  0.40607618728E+02  0.10000000000E+01 0. -1.
        -13    1    6    6    0    0  0.40025102412E+01 -0.85113396977E+01 -0.92185232828E+01  0.13170238730E+02  0.10500000000E+00 0. -1.
         13    1    6    6    0    0  0.26835721417E+01 -0.55564981877E+01 -0.61634821793E+01  0.87221424618E+01  0.10500000000E+00 0.  1.
</event>
<event>
11    0  0.3485800E-009  0.9118800E+02  0.7816531E-02  0.1126479E+00
         25   -1    0    0    0    0  0.00000000000E+00  0.00000000000E+00  0.99999998245E-14  0.12500000000E+03  0.12500000000E+03 0.  0.
    3000001    1    3    3    0    0  0.21613206602E+01 -0.44924266738E+01  0.27125249248E+01  0.57628982191E+01  0.10000000000E+01 0. -1.
    1000022    2    1    0    0    0  0.42169054774E+02 -0.44506867833E+02  0.68672732205E+01  0.62500000043E+02  0.10000004954E+02 0.  0.
    3000022    2    3    3    0    0  0.40007734114E+02 -0.40014441159E+02  0.41547482956E+01  0.56737101824E+02  0.24999958449E+00 0.  0.
    1000022    2    1    0    0    0 -0.42169054774E+02  0.44506867833E+02 -0.68672732205E+01  0.62499999957E+02  0.10000004411E+02 0.  0.
    3000022    2    5    5    0    0 -0.37934904642E+02  0.40683280810E+02 -0.89570116648E+01  0.56342496255E+02  0.24999731003E+00 0.  0.
        -13    1    4    4    0    0  0.29547897585E+02 -0.29533305829E+02  0.30380771952E+01  0.41887173967E+02  0.10500000000E+00 0.  1.
         13    1    4    4    0    0  0.10459836530E+02 -0.10481135330E+02  0.11166711005E+01  0.14849927858E+02  0.10500000000E+00 0. -1.
    3000001    1    5    5    0    0 -0.42341501326E+01  0.38235870230E+01  0.20897384443E+01  0.61575037015E+01  0.10000000000E+01 0. -1.
        -13    1    6    6    0    0 -0.10668803641E+02  0.11398117948E+02 -0.24870284154E+01  0.15809389591E+02  0.10500000000E+00 0.  1.
         13    1    6    6    0    0 -0.27266101000E+02  0.29285162862E+02 -0.64699832494E+01  0.40533106664E+02  0.10500000000E+00 0. -1.
</event>
<event>
11    0  0.3485800E-009  0.9118800E+02  0.7816531E-02  0.1126479E+00
         25   -1    0    0    0    0  0.00000000000E+00  0.00000000000E+00  0.99999998245E-14  0.12500000000E+03  0.12500000000E+03 0.  0.
    3000001    1    3    3    0    0 -0.19198013288E+00 -0.12379142378E+02  0.20951793768E+01  0.12596420087E+02  0.10000000000E+01 0.  1.
    1000022    2    1    0    0    0 -0.44809149084E+01 -0.54672009285E+02  0.28233718904E+02  0.62500000137E+02  0.99999968099E+01 0.  0.
    3000022    2    3    3    0    0 -0.42889347755E+01 -0.42292866908E+02  0.26138539527E+02  0.49903580050E+02  0.25000079650E+00 0.  0.
    1000022    2    1    0    0    0  0.44809149084E+01  0.54672009285E+02 -0.28233718904E+02  0.62499999863E+02  0.99999951026E+01 0.  0.
    3000022    2    5    5    0    0  0.32362170193E+01  0.16063369402E+02 -0.39361585314E+01  0.16854104248E+02  0.25009772952E+00 0.  0.
        -13    1    4    4    0    0 -0.18114685386E+01 -0.17864310916E+02  0.10964566005E+02  0.21039195694E+02  0.10500000000E+00 0.  1.
         13    1    4    4    0    0 -0.24774662369E+01 -0.24428555992E+02  0.15173973523E+02  0.28864384356E+02  0.10500000000E+00 0. -1.
    3000001    1    5    5    0    0  0.12446978891E+01  0.38608639884E+02 -0.24297560373E+02  0.45645895616E+02  0.10000000000E+01 0.  1.
        -13    1    6    6    0    0  0.15750045073E+01  0.75436680366E+01 -0.18096560432E+01  0.79166562790E+01  0.10500000000E+00 0. -1.
         13    1    6    6    0    0  0.16612125121E+01  0.85197013650E+01 -0.21265024883E+01  0.89374479686E+01  0.10500000000E+00 0.  1.
</event>
<event>
11    0  0.3485800E-009  0.9118800E+02  0.7816531E-02  0.1126479E+00
         25   -1    0    0    0    0  0.00000000000E+00  0.00000000000E+00  0.99999998245E-14  0.12500000000E+03  0.12500000000E+03 0.  0.
    3000001    1    3    3    0    0  0.18973714486E+02  0.47948951570E+02  0.11733993120E+02  0.52894143273E+02  0.10000000000E+01 0.  1.
    1000022    2    1    0    0    0  0.18776065660E+02  0.56546486933E+02  0.16006381837E+02  0.62500000032E+02  0.99999959175E+01 0.  0.
    3000022    2    3    3    0    0 -0.19764882570E+00  0.85975353635E+01  0.42723887166E+01  0.96058567593E+01  0.24999869836E+00 0.  0.
    1000022    2    1    0    0    0 -0.18776065660E+02 -0.56546486933E+02 -0.16006381837E+02  0.62499999968E+02  0.99999955184E+01 0.  0.
    3000022    2    5    5    0    0 -0.11218970165E+02 -0.43677763001E+02 -0.90102849179E+01  0.45987607045E+02  0.24999009746E+00 0.  0.
        -13    1    4    4    0    0 -0.13642857567E+00  0.65394539603E+01  0.32629582453E+01  0.73103346275E+01  0.10500000000E+00 0. -1.
         13    1    4    4    0    0 -0.61220250027E-01  0.20580814032E+01  0.10094304713E+01  0.22955221318E+01  0.10500000000E+00 0.  1.
    3000001    1    5    5    0    0 -0.75570954953E+01 -0.12868723932E+02 -0.69960969188E+01  0.16512392923E+02  0.10000000000E+01 0. -1.
        -13    1    6    6    0    0 -0.75911224055E+01 -0.29438280807E+02 -0.61184348851E+01  0.31011026856E+02  0.10500000000E+00 0. -1.
         13    1    6    6    0    0 -0.36278477593E+01 -0.14239482194E+02 -0.28918500328E+01  0.14976580188E+02  0.10500000000E+00 0.  1.
</event>
<event>
11    0  0.3485800E-009  0.9118800E+02  0.7816531E-02  0.1126479E+00
         25   -1    0    0    0    0  0.00000000000E+00  0.00000000000E+00  0.99999998245E-14  0.12500000000E+03  0.12500000000E+03 0.  0.
    3000001    1    3    3    0    0  0.88267258583E+01 -0.10144173155E+02 -0.42509809691E+02  0.44597076792E+02  0.10000000000E+01 0. -1.
    1000022    2    1    0    0    0  0.17520226304E+02 -0.10913551812E+02 -0.58139362736E+02  0.62499990620E+02  0.99999692631E+01 0.  0.
    3000022    2    3    3    0    0  0.86935004456E+01 -0.76937865718E+00 -0.15629553045E+02  0.17902913829E+02  0.25000330493E+00 0.  0.
    1000022    2    1    0    0    0 -0.17520226304E+02  0.10913551812E+02  0.58139362736E+02  0.62500009380E+02  0.10000086511E+02 0.  0.
    3000022    2    5    5    0    0 -0.12207195831E+02  0.11991976304E+02  0.47987665252E+02  0.50948028857E+02  0.25000474226E+00 0.  0.
        -13    1    4    4    0    0  0.44242621793E+01 -0.32468535059E+00 -0.79694179262E+01  0.91215219942E+01  0.10500000000E+00 0.  1.
         13    1    4    4    0    0  0.42692382663E+01 -0.44469330659E+00 -0.76601351187E+01  0.87813918343E+01  0.10500000000E+00 0. -1.
    3000001    1    5    5    0    0 -0.53130304730E+01 -0.10784244912E+01  0.10151697484E+02  0.11551980523E+02  0.10000000000E+01 0. -1.
        -13    1    6    6    0    0 -0.53346816197E+01  0.53048977226E+01  0.21239938037E+02  0.22533236800E+02  0.10500000000E+00 0.  1.
         13    1    6    6    0    0 -0.68725142112E+01  0.66870785809E+01  0.26747727214E+02  0.28414792057E+02  0.10500000000E+00 0. -1.
</event>
<event>
11    0  0.3485800E-009  0.9118800E+02  0.7816531E-02  0.1126479E+00
         25   -1    0    0    0    0  0.00000000000E+00  0.00000000000E+00  0.99999998245E-14  0.12500000000E+03  0.12500000000E+03 0.  0.
    3000001    1    3    3    0    0 -0.23262880392E+02  0.81705297944E+00 -0.15683940068E+01  0.23351424784E+02  0.10000000000E+01 0. -1.
    1000022    2    1    0    0    0 -0.60300159530E+02  0.12767140976E+02  0.26723029888E+01  0.62499996389E+02  0.99999608660E+01 0.  0.
    3000022    2    3    3    0    0 -0.37037279138E+02  0.11950087997E+02  0.42406969956E+01  0.39148571604E+02  0.24999719355E+00 0.  0.
    1000022    2    1    0    0    0  0.60300159530E+02 -0.12767140976E+02 -0.26723029888E+01  0.62500003611E+02  0.10000006006E+02 0.  0.
    3000022    2    5    5    0    0  0.19141107886E+02  0.41884330054E+00 -0.21295824833E+01  0.19265384854E+02  0.24998238596E+00 0.  0.
        -13    1    4    4    0    0 -0.16730164839E+02  0.54293094354E+01  0.19767066872E+01  0.17700118950E+02  0.10500000000E+00 0. -1.
         13    1    4    4    0    0 -0.20307114298E+02  0.65207785613E+01  0.22639903083E+01  0.21448452655E+02  0.10500000000E+00 0.  1.
    3000001    1    5    5    0    0  0.41159051643E+02 -0.13185984277E+02 -0.54272050552E+00  0.43234618757E+02  0.10000000000E+01 0.  1.
        -13    1    6    6    0    0  0.87128885895E+01  0.18158601628E+00 -0.90269776235E+00  0.87620368240E+01  0.10500000000E+00 0. -1.
         13    1    6    6    0    0  0.10428219297E+02  0.23725728427E+00 -0.12268847209E+01  0.10503348030E+02  0.10500000000E+00 0.  1.
</event>
<event>
11    0  0.3485800E-009  0.9118800E+02  0.7816531E-02  0.1126479E+00
         25   -1    0    0    0    0  0.00000000000E+00  0.00000000000E+00  0.99999998245E-14  0.12500000000E+03  0.12500000000E+03 0.  0.
    3000001    1    3    3    0    0 -0.33109228905E+01  0.21151558855E+01  0.73272053728E+01  0.83740093971E+01  0.10000000000E+01 0.  1.
    1000022    2    1    0    0    0 -0.32977545283E+02 -0.70210816403E+01  0.51666587472E+02  0.62499997783E+02  0.99999690841E+01 0.  0.
    3000022    2    3    3    0    0 -0.29666622392E+02 -0.91362375257E+01  0.44339382099E+02  0.54125988386E+02  0.24998719960E+00 0.  0.
    1000022    2    1    0    0    0  0.32977545283E+02  0.70210816403E+01 -0.51666587472E+02  0.62500002217E+02  0.99999967909E+01 0.  0.
    3000022    2    5    5    0    0  0.11094324749E+02  0.49273129562E+01 -0.11624002054E+02  0.16808998122E+02  0.25007901830E+00 0.  0.
        -13    1    4    4    0    0 -0.18972852776E+02 -0.58282402465E+01  0.28448443975E+02  0.34688074557E+02  0.10500000000E+00 0.  1.
         13    1    4    4    0    0 -0.10693769616E+02 -0.33079972792E+01  0.15890938123E+02  0.19437913830E+02  0.10500000000E+00 0. -1.
    3000001    1    5    5    0    0  0.21883220534E+02  0.20937686841E+01 -0.40042585417E+02  0.45691004094E+02  0.10000000000E+01 0. -1.
        -13    1    6    6    0    0  0.82717593197E+01  0.36421769131E+01 -0.86444111664E+01  0.12506971029E+02  0.10500000000E+00 0.  1.
         13    1    6    6    0    0  0.28225654288E+01  0.12851360431E+01 -0.29795908880E+01  0.43020270930E+01  0.10500000000E+00 0. -1.
</event>
<event>
11    0  0.3485800E-009  0.9118800E+02  0.7816531E-02  0.1126479E+00
         25   -1    0    0    0    0  0.00000000000E+00  0.00000000000E+00  0.99999998245E-14  0.12500000000E+03  0.12500000000E+03 0.  0.
    3000001    1    3    3    0    0 -0.12422087080E+02  0.24438990976E+02 -0.43990121818E+00  0.27436582157E+02  0.10000000000E+01 0. -1.
    1000022    2    1    0    0    0 -0.18019573759E+02  0.58975251556E+02  0.18612836679E+01  0.62499997618E+02  0.99999995456E+01 0.  0.
    3000022    2    3    3    0    0 -0.55974866784E+01  0.34536260579E+02  0.23011848860E+01  0.35063415462E+02  0.25000005499E+00 0.  0.
    1000022    2    1    0    0    0  0.18019573759E+02 -0.58975251556E+02 -0.18612836679E+01  0.62500002382E+02  0.10000029316E+02 0.  0.
    3000022    2    5    5    0    0  0.11593122875E+02 -0.31024776060E+02  0.35031451805E+01  0.33305731570E+02  0.25000331151E+00 0.  0.
        -13    1    4    4    0    0 -0.29366727739E+01  0.18420153738E+02  0.12739722317E+01  0.18696527510E+02  0.10500000000E+00 0.  1.
         13    1    4    4    0    0 -0.26608139045E+01  0.16116106842E+02  0.10272126544E+01  0.16366887951E+02  0.10500000000E+00 0. -1.
    3000001    1    5    5    0    0  0.64264508841E+01 -0.27950475495E+02 -0.53644288483E+01  0.29194270812E+02  0.10000000000E+01 0. -1.
        -13    1    6    6    0    0  0.54163844311E+01 -0.14328481631E+02  0.16537941165E+01  0.15407422436E+02  0.10500000000E+00 0. -1.
         13    1    6    6    0    0  0.61767384436E+01 -0.16696294430E+02  0.18493510639E+01  0.17898309134E+02  0.10500000000E+00 0.  1.
</event>
<event>
11    0  0.3485800E-009  0.9118800E+02  0.7816531E-02  0.1126479E+00
         25   -1    0    0    0    0  0.00000000000E+00  0.00000000000E+00  0.99999998245E-14  0.12500000000E+03  0.12500000000E+03 0.  0.
    3000001    1    3    3    0    0 -0.54403273203E+02 -0.62784610174E+01 -0.76973585659E+01  0.55311703434E+02  0.10000000000E+01 0. -1.
    1000022    2    1    0    0    0 -0.60798745731E+02 -0.88263701957E+01 -0.56442636416E+01  0.62499999708E+02  0.99999979053E+01 0.  0.
    3000022    2    3    3    0    0 -0.63954725283E+01 -0.25479091783E+01  0.20530949244E+01  0.71882962733E+01  0.24998900682E+00 0.  0.
    1000022    2    1    0    0    0  0.60798745731E+02  0.88263701957E+01  0.56442636416E+01  0.62500000292E+02  0.10000001559E+02 0.  0.
    3000022    2    5    5    0    0  0.51549716496E+02  0.79194908493E+01  0.12462816164E+01  0.52169984908E+02  0.25000266865E+00 0.  0.
        -13    1    4    4    0    0 -0.24131117171E+01 -0.90642976402E+00  0.73579762125E+00  0.26827497490E+01  0.10500000000E+00 0.  1.
         13    1    4    4    0    0 -0.39823608112E+01 -0.16414794143E+01  0.13172973031E+01  0.45055465243E+01  0.10500000000E+00 0. -1.
    3000001    1    5    5    0    0  0.92490292354E+01  0.90687934646E+00  0.43979820251E+01  0.10330015384E+02  0.10000000000E+01 0. -1.
        -13    1    6    6    0    0  0.27447401193E+02  0.42686265477E+01  0.62017145197E+00  0.27784467648E+02  0.10500000000E+00 0.  1.
         13    1    6    6    0    0  0.24102315303E+02  0.36508643016E+01  0.62611016448E+00  0.24385517260E+02  0.10500000000E+00 0. -1.
</event>
<event>
11    0  0.3485800E-009  0.9118800E+02  0.7816531E-02  0.1126479E+00
         25   -1    0    0    0    0  0.00000000000E+00  0.00000000000E+00  0.99999998245E-14  0.12500000000E+03  0.12500000000E+03 0.  0.
    3000001    1    3    3    0    0 -0.98480463581E+00 -0.36727277017E+01  0.21559640029E+01  0.44840773547E+01  0.10000000000E+01 0.  1.
    1000022    2    1    0    0    0  0.25401757331E+01 -0.61576830407E+02  0.28445443567E+01  0.62499999652E+02  0.99999994113E+01 0.  0.
    3000022    2    3    3    0    0  0.35249803689E+01 -0.57904102705E+02  0.68858035390E+00  0.58015922297E+02  0.25000088160E+00 0.  0.
    1000022    2    1    0    0    0 -0.25401757331E+01  0.61576830407E+02 -0.28445443567E+01  0.62500000348E+02  0.10000003762E+02 0.  0.
    3000022    2    5    5    0    0  0.33274187137E+01  0.11851670556E+02  0.35712521570E+00  0.12317624210E+02  0.25003501243E+00 0.  0.
        -13    1    4    4    0    0  0.24380316634E+01 -0.39265009814E+02  0.48558791672E+00  0.39343764623E+02  0.10500000000E+00 0.  1.
         13    1    4    4    0    0  0.10869487055E+01 -0.18639092891E+02  0.20299243718E+00  0.18672157674E+02  0.10500000000E+00 0. -1.
    3000001    1    5    5    0    0 -0.58675944468E+01  0.49725159851E+02 -0.32016695725E+01  0.50182376138E+02  0.10000000000E+01 0.  1.
        -13    1    6    6    0    0  0.22133322304E+01  0.76735429404E+01  0.23074444516E+00  0.79903922820E+01  0.10500000000E+00 0.  1.
         13    1    6    6    0    0  0.11140864833E+01  0.41781276152E+01  0.12638077054E+00  0.43272319282E+01  0.10500000000E+00 0. -1.
</event>
<event>
11    0  0.3485800E-009  0.9118800E+02  0.7816531E-02  0.1126479E+00
         25   -1    0    0    0    0  0.00000000000E+00  0.00000000000E+00  0.99999998245E-14  0.12500000000E+03  0.12500000000E+03 0.  0.
    3000001    1    3    3    0    0 -0.25165591425E+02  0.28461785023E+02  0.12586697052E+02  0.40035048909E+02  0.10000000000E+01 0.  1.
    1000022    2    1    0    0    0 -0.36417319641E+02  0.42364111621E+02  0.26178440121E+02  0.62500000511E+02  0.10000010671E+02 0.  0.
    3000022    2    3    3    0    0 -0.11251728216E+02  0.13902326599E+02  0.13591743069E+02  0.22464951603E+02  0.24999626665E+00 0.  0.
    1000022    2    1    0    0    0  0.36417319641E+02 -0.42364111621E+02 -0.26178440121E+02  0.62499999489E+02  0.10000004282E+02 0.  0.
    3000022    2    5    5    0    0  0.22845395983E+02 -0.31659777390E+02 -0.14658193898E+02  0.41703462369E+02  0.25000649085E+00 0.  0.
        -13    1    4    4    0    0 -0.41694494442E+01  0.51414295212E+01  0.49565248247E+01  0.82702339463E+01  0.10500000000E+00 0.  1.
         13    1    4    4    0    0 -0.70822787720E+01  0.87608970775E+01  0.86352182447E+01  0.14194717656E+02  0.10500000000E+00 0. -1.
    3000001    1    5    5    0    0  0.13571923658E+02 -0.10704334231E+02 -0.11520246223E+02  0.20796537120E+02  0.10000000000E+01 0.  1.
        -13    1    6    6    0    0  0.97815204171E+01 -0.13562075026E+02 -0.62083647927E+01  0.17837119697E+02  0.10500000000E+00 0. -1.
         13    1    6    6    0    0  0.13063875566E+02 -0.18097702364E+02 -0.84498291051E+01  0.23866342673E+02  0.10500000000E+00 0.  1.
</event>
<event>
11    0  0.3485800E-009  0.9118800E+02  0.7816531E-02  0.1126479E+00
         25   -1    0    0    0    0  0.00000000000E+00  0.00000000000E+00  0.99999998245E-14  0.12500000000E+03  0.12500000000E+03 0.  0.
    3000001    1    3    3    0    0 -0.12900142950E+01 -0.14006572621E+01 -0.77182714299E+00  0.22851027955E+01  0.10000000000E+01 0. -1.
    1000022    2    1    0    0    0 -0.36059508480E+01 -0.34497053752E+02 -0.51021567330E+02  0.62500000501E+02  0.10000006539E+02 0.  0.
    3000022    2    3    3    0    0 -0.23159365530E+01 -0.33096396490E+02 -0.50249740187E+02  0.60214897706E+02  0.24998829721E+00 0.  0.
    1000022    2    1    0    0    0  0.36059508480E+01  0.34497053752E+02  0.51021567330E+02  0.62499999499E+02  0.10000000272E+02 0.  0.
    3000022    2    5    5    0    0  0.62845781228E+01  0.20057689522E+02  0.25600659692E+02  0.33124961991E+02  0.24999818491E+00 0.  0.
        -13    1    4    4    0    0 -0.90926079981E+00 -0.12664243618E+02 -0.19333503956E+02  0.23130179893E+02  0.10500000000E+00 0. -1.
         13    1    4    4    0    0 -0.14066757532E+01 -0.20432152872E+02 -0.30916236230E+02  0.37084717813E+02  0.10500000000E+00 0.  1.
    3000001    1    5    5    0    0 -0.26786272748E+01  0.14439364230E+02  0.25420907638E+02  0.29375037508E+02  0.10000000000E+01 0. -1.
        -13    1    6    6    0    0  0.30331175245E+01  0.94566746036E+01  0.12109516135E+02  0.15661414447E+02  0.10500000000E+00 0. -1.
         13    1    6    6    0    0  0.32514605984E+01  0.10601014918E+02  0.13491143557E+02  0.17463547544E+02  0.10500000000E+00 0.  1.
</event>
<event>
11    0  0.3485800E-009  0.9118800E+02  0.7816531E-02  0.1126479E+00
         25   -1    0    0    0    0  0.00000000000E+00  0.00000000000E+00  0.99999998245E-14  0.12500000000E+03  0.12500000000E+03 0.  0.
    3000001    1    3    3    0    0  0.99324763926E+01  0.32255176874E+02  0.15348990309E+02  0.37089648502E+02  0.10000000000E+01 0.  1.
    1000022    2    1    0    0    0  0.95891301706E+01  0.53208711762E+02  0.29717525650E+02  0.62499997088E+02  0.99999940268E+01 0.  0.
    3000022    2    3    3    0    0 -0.34334622195E+00  0.20953534887E+02  0.14368535341E+02  0.25410348587E+02  0.24999309869E+00 0.  0.
    1000022    2    1    0    0    0 -0.95891301706E+01 -0.53208711762E+02 -0.29717525650E+02  0.62500002912E+02  0.10000030423E+02 0.  0.
    3000022    2    5    5    0    0 -0.62413071075E+01 -0.44784116660E+02 -0.28099043343E+02  0.53237108825E+02  0.24999957494E+00 0.  0.
        -13    1    4    4    0    0 -0.83340156701E-01  0.64924969733E+01  0.45038106584E+01  0.79028348064E+01  0.10500000000E+00 0.  1.
         13    1    4    4    0    0 -0.26000606525E+00  0.14461037914E+02  0.98647246821E+01  0.17507513780E+02  0.10500000000E+00 0. -1.
    3000001    1    5    5    0    0 -0.33478230631E+01 -0.84245951019E+01 -0.16184823063E+01  0.92628940871E+01  0.10000000000E+01 0. -1.
        -13    1    6    6    0    0 -0.35396361403E+01 -0.25140834257E+02 -0.15711676795E+02  0.29857300344E+02  0.10500000000E+00 0. -1.
         13    1    6    6    0    0 -0.27016709673E+01 -0.19643282403E+02 -0.12387366549E+02  0.23379808481E+02  0.10500000000E+00 0.  1.
</event>
<event>
11    0  0.3485800E-009  0.9118800E+02  0.7816531E-02  0.1126479E+00
         25   -1    0    0    0    0  0.00000000000E+00  0.00000000000E+00  0.99999998245E-14  0.12500000000E+03  0.12500000000E+03 0.  0.
    3000001    1    3    3    0    0 -0.39044060231E+02  0.27529709875E+02 -0.39061046176E+01  0.47943521131E+02  0.10000000000E+01 0. -1.
    1000022    2    1    0    0    0 -0.52041504428E+02  0.31965882458E+02 -0.87243395072E+01  0.62499999865E+02  0.10000002937E+02 0.  0.
    3000022    2    3    3    0    0 -0.12997444197E+02  0.44361725830E+01 -0.48182348897E+01  0.14556478734E+02  0.25000565165E+00 0.  0.
    1000022    2    1    0    0    0  0.52041504428E+02 -0.31965882458E+02  0.87243395072E+01  0.62500000135E+02  0.10000004629E+02 0.  0.
    3000022    2    5    5    0    0  0.15583849925E+02 -0.92431391070E+01 -0.19446432470E+01  0.18224602562E+02  0.25000428102E+00 0.  0.
        -13    1    4    4    0    0 -0.35168980293E+01  0.12081969030E+01 -0.12673381977E+01  0.39300741230E+01  0.10500000000E+00 0.  1.
         13    1    4    4    0    0 -0.94805461678E+01  0.32279756800E+01 -0.35508966920E+01  0.10626404611E+02  0.10500000000E+00 0. -1.
    3000001    1    5    5    0    0  0.36457654503E+02 -0.22722743351E+02  0.10668982754E+02  0.44275397573E+02  0.10000000000E+01 0. -1.
        -13    1    6    6    0    0  0.40644455917E+01 -0.24087739496E+01 -0.53930342179E+00  0.47564464770E+01  0.10500000000E+00 0. -1.
         13    1    6    6    0    0  0.11519404334E+02 -0.68343651574E+01 -0.14053398252E+01  0.13468156085E+02  0.10500000000E+00 0.  1.
</event>
<event>
11    0  0.3485800E-009  0.9118800E+02  0.7816531E-02  0.1126479E+00
         25   -1    0    0    0    0  0.00000000000E+00  0.00000000000E+00  0.99999998245E-14  0.12500000000E+03  0.12500000000E+03 0.  0.
    3000001    1    3    3    0    0 -0.44819555645E+01 -0.71696045311E+01  0.22503331868E+01  0.88065404255E+01  0.10000000000E+01 0. -1.
    1000022    2    1    0    0    0 -0.44794972548E+02 -0.42372614719E+02 -0.20547653664E+01  0.62500000321E+02  0.99999967867E+01 0.  0.
    3000022    2    3    3    0    0 -0.40313016984E+02 -0.35203010188E+02 -0.43050985532E+01  0.53693459896E+02  0.24999482691E+00 0.  0.
    1000022    2    1    0    0    0  0.44794972548E+02  0.42372614719E+02  0.20547653664E+01  0.62499999679E+02  0.99999927681E+01 0.  0.
    3000022    2    5    5    0    0  0.38072556118E+02  0.36896276644E+02  0.50835465723E+01  0.53261240185E+02  0.25000161043E+00 0.  0.
        -13    1    4    4    0    0 -0.18010589800E+02 -0.15779186738E+02 -0.18719375513E+01  0.24018310812E+02  0.10500000000E+00 0.  1.
         13    1    4    4    0    0 -0.22302427183E+02 -0.19423823450E+02 -0.24331610019E+01  0.29675149084E+02  0.10500000000E+00 0. -1.
    3000001    1    5    5    0    0  0.67224164305E+01  0.54763380756E+01 -0.30287812059E+01  0.92387594934E+01  0.10000000000E+01 0.  1.
        -13    1    6    6    0    0  0.12323764149E+02  0.11941714677E+02  0.16972088709E+01  0.17244455781E+02  0.10500000000E+00 0. -1.
         13    1    6    6    0    0  0.25748791968E+02  0.24954561966E+02  0.33863377014E+01  0.36016784404E+02  0.10500000000E+00 0.  1.
</event>
<event>
11    0  0.3485800E-009  0.9118800E+02  0.7816531E-02  0.1126479E+00
         25   -1    0    0    0    0  0.00000000000E+00  0.00000000000E+00  0.99999998245E-14  0.12500000000E+03  0.12500000000E+03 0.  0.
    3000001    1    3    3    0    0 -0.33638588992E+01  0.54581562584E+00 -0.21762905372E+01  0.41652973356E+01  0.10000000000E+01 0. -1.
    1000022    2    1    0    0    0 -0.32471209345E+02  0.37299936878E+02 -0.36886108306E+02  0.62499997448E+02  0.99999983806E+01 0.  0.
    3000022    2    3    3    0    0 -0.29107350446E+02  0.36754121252E+02 -0.34709817769E+02  0.58334700113E+02  0.25001735270E+00 0.  0.
    1000022    2    1    0    0    0  0.32471209345E+02 -0.37299936878E+02  0.36886108306E+02  0.62500002552E+02  0.10000030279E+02 0.  0.
    3000022    2    5    5    0    0  0.25682526297E+02 -0.26347064303E+02  0.22357515675E+02  0.43054395361E+02  0.24999674172E+00 0.  0.
        -13    1    4    4    0    0 -0.99661931353E+01  0.12496173129E+02 -0.11838926676E+02  0.19890966752E+02  0.10500000000E+00 0.  1.
         13    1    4    4    0    0 -0.19141157310E+02  0.24257948123E+02 -0.22870891093E+02  0.38443733360E+02  0.10500000000E+00 0. -1.
    3000001    1    5    5    0    0  0.67886830475E+01 -0.10952872575E+02  0.14528592631E+02  0.19445607190E+02  0.10000000000E+01 0. -1.
        -13    1    6    6    0    0  0.76922967313E+01 -0.79563173247E+01  0.67340892769E+01  0.12955052982E+02  0.10500000000E+00 0.  1.
         13    1    6    6    0    0  0.17990229566E+02 -0.18390746978E+02  0.15623426398E+02  0.30099342380E+02  0.10500000000E+00 0. -1.
</event>
<event>
11    0  0.3485800E-009  0.9118800E+02  0.7816531E-02  0.1126479E+00
         25   -1    0    0    0    0  0.00000000000E+00  0.00000000000E+00  0.99999998245E-14  0.12500000000E+03  0.12500000000E+03 0.  0.
    3000001    1    3    3    0    0  0.27503512236E+02  0.23867750264E+02  0.21203765733E+02  0.42151066051E+02  0.10000000000E+01 0. -1.
    1000022    2    1    0    0    0  0.34903796630E+02  0.37572379663E+02  0.34297097879E+02  0.62499995289E+02  0.99999877739E+01 0.  0.
    3000022    2    3    3    0    0  0.74002843942E+01  0.13704629399E+02  0.13093332145E+02  0.20348929238E+02  0.24999675086E+00 0.  0.
    1000022    2    1    0    0    0 -0.34903796630E+02 -0.37572379663E+02 -0.34297097879E+02  0.62500004711E+02  0.10000046664E+02 0.  0.
    3000022    2    5    5    0    0 -0.15728281773E+02 -0.21331326332E+02 -0.12883505417E+02  0.29469501756E+02  0.24998266923E+00 0.  0.
        -13    1    4    4    0    0  0.23303647433E+01  0.44066713554E+01  0.42257505865E+01  0.65358507702E+01  0.10500000000E+00 0. -1.
         13    1    4    4    0    0  0.50699196510E+01  0.92979580434E+01  0.88675815589E+01  0.13813078467E+02  0.10500000000E+00 0.  1.
    3000001    1    5    5    0    0 -0.19175514858E+02 -0.16241053331E+02 -0.21413592461E+02  0.33030502955E+02  0.10000000000E+01 0.  1.
        -13    1    6    6    0    0 -0.56960345020E+01 -0.76277344334E+01 -0.46319801979E+01  0.10587417399E+02  0.10500000000E+00 0. -1.
         13    1    6    6    0    0 -0.10032247271E+02 -0.13703591898E+02 -0.82515252192E+01  0.18882084357E+02  0.10500000000E+00 0.  1.
</event>
<event>
11    0  0.3485800E-009  0.9118800E+02  0.7816531E-02  0.1126479E+00
         25   -1    0    0    0    0  0.00000000000E+00  0.00000000000E+00  0.99999998245E-14  0.12500000000E+03  0.12500000000E+03 0.  0.
    3000001    1    3    3    0    0 -0.47320146956E+01 -0.30567421973E+01  0.25606406335E+01  0.62683743023E+01  0.10000000000E+01 0.  1.
    1000022    2    1    0    0    0 -0.40381315704E+02 -0.46539615014E+02  0.31086043109E+01  0.62499999346E+02  0.10000003690E+02 0.  0.
    3000022    2    3    3    0    0 -0.35649301008E+02 -0.43482872817E+02  0.54796367743E+00  0.56231625043E+02  0.25000008980E+00 0.  0.
    1000022    2    1    0    0    0  0.40381315704E+02  0.46539615014E+02 -0.31086043109E+01  0.62500000654E+02  0.10000011872E+02 0.  0.
    3000022    2    5    5    0    0  0.15042462921E+02  0.24803457132E+02 -0.21004202780E+01  0.29085416192E+02  0.24998646630E+00 0.  0.
        -13    1    4    4    0    0 -0.22666147715E+02 -0.27704151146E+02  0.39478830911E+00  0.35797222319E+02  0.10500000000E+00 0.  1.
         13    1    4    4    0    0 -0.12983153293E+02 -0.15778721670E+02  0.15317536832E+00  0.20434402724E+02  0.10500000000E+00 0. -1.
    3000001    1    5    5    0    0  0.25338852783E+02  0.21736157881E+02 -0.10081840329E+01  0.33414584463E+02  0.10000000000E+01 0. -1.
        -13    1    6    6    0    0  0.72332172966E+01  0.12053887247E+02 -0.10022652296E+01  0.14093657823E+02  0.10500000000E+00 0.  1.
         13    1    6    6    0    0  0.78092456247E+01  0.12749569885E+02 -0.10981550484E+01  0.14991758369E+02  0.10500000000E+00 0. -1.
</event>
<event>
11    0  0.3485800E-009  0.9118800E+02  0.7816531E-02  0.1126479E+00
         25   -1    0    0    0    0  0.00000000000E+00  0.00000000000E+00  0.99999998245E-14  0.12500000000E+03  0.12500000000E+03 0.  0.
    3000001    1    3    3    0    0 -0.49275477615E+01  0.16092320218E+02 -0.11826606867E+02  0.20593982785E+02  0.10000000000E+01 0.  1.
    1000022    2    1    0    0    0 -0.44252960469E+01  0.43519096458E+02 -0.43505803835E+02  0.62500000640E+02  0.10000005551E+02 0.  0.
    3000022    2    3    3    0    0  0.50225171462E+00  0.27426776240E+02 -0.31679196968E+02  0.41906017856E+02  0.25000050392E+00 0.  0.
    1000022    2    1    0    0    0  0.44252960469E+01 -0.43519096458E+02  0.43505803835E+02  0.62499999360E+02  0.99999975487E+01 0.  0.
    3000022    2    5    5    0    0  0.42746208745E+01 -0.43210424568E+02  0.40751221464E+02  0.59549456125E+02  0.24999802466E+00 0.  0.
        -13    1    4    4    0    0  0.34934371325E+00  0.19662430273E+02 -0.22650175440E+02  0.29996244393E+02  0.10500000000E+00 0. -1.
         13    1    4    4    0    0  0.15290800137E+00  0.77643459678E+01 -0.90290215282E+01  0.11909773462E+02  0.10500000000E+00 0.  1.
    3000001    1    5    5    0    0  0.15067517239E+00 -0.30867189094E+00  0.27545823706E+01  0.29505432348E+01  0.10000000000E+01 0.  1.
        -13    1    6    6    0    0  0.32258704023E+01 -0.32721617455E+02  0.30883320132E+02  0.45109876702E+02  0.10500000000E+00 0. -1.
         13    1    6    6    0    0  0.10487504722E+01 -0.10488807112E+02  0.98679013328E+01  0.14439579423E+02  0.10500000000E+00 0.  1.
</event>
<event>
11    0  0.3485800E-009  0.9118800E+02  0.7816531E-02  0.1126479E+00
         25   -1    0    0    0    0  0.00000000000E+00  0.00000000000E+00  0.99999998245E-14  0.12500000000E+03  0.12500000000E+03 0.  0.
    3000001    1    3    3    0    0  0.94972805434E+01  0.33111910858E+02 -0.14861503765E+02  0.37529472053E+02  0.10000000000E+01 0.  1.
    1000022    2    1    0    0    0  0.78557553621E+01  0.55331175429E+02 -0.26134236342E+02  0.62500000858E+02  0.99999965701E+01 0.  0.
    3000022    2    3    3    0    0 -0.16415251813E+01  0.22219264570E+02 -0.11272732578E+02  0.24970528805E+02  0.24997213804E+00 0.  0.
    1000022    2    1    0    0    0 -0.78557553621E+01 -0.55331175429E+02  0.26134236342E+02  0.62499999142E+02  0.99999858476E+01 0.  0.
    3000022    2    5    5    0    0  0.19758620786E+01 -0.16081967994E+02  0.91213013039E+01  0.18595546699E+02  0.24998806141E+00 0.  0.
        -13    1    4    4    0    0 -0.11985042546E+01  0.16375504722E+02 -0.82724474239E+01  0.18385809167E+02  0.10500000000E+00 0.  1.
         13    1    4    4    0    0 -0.44302092675E+00  0.58437598487E+01 -0.30002851536E+01  0.65847196382E+01  0.10500000000E+00 0. -1.
    3000001    1    5    5    0    0 -0.98316174407E+01 -0.39249207435E+02  0.17012935038E+02  0.43904452444E+02  0.10000000000E+01 0. -1.
        -13    1    6    6    0    0  0.11944014909E+01 -0.95621677612E+01  0.53551412916E+01  0.11024981200E+02  0.10500000000E+00 0. -1.
         13    1    6    6    0    0  0.78146058765E+00 -0.65198002328E+01  0.37661600122E+01  0.75705654983E+01  0.10500000000E+00 0.  1.
</event>
<event>
11    0  0.3485800E-009  0.9118800E+02  0.7816531E-02  0.1126479E+00
         25   -1    0    0    0    0  0.00000000000E+00  0.00000000000E+00  0.99999998245E-14  0.12500000000E+03  0.12500000000E+03 0.  0.
    3000001    1    3    3    0    0 -0.21568969505E+02  0.27362729814E+02  0.32129381675E+02  0.47405027109E+02  0.10000000000E+01 0.  1.
    1000022    2    1    0    0    0 -0.29337439436E+02  0.31001648266E+02  0.44547306033E+02  0.62500000077E+02  0.99999993480E+01 0.  0.
    3000022    2    3    3    0    0 -0.77684699311E+01  0.36389184523E+01  0.12417924358E+02  0.15094972968E+02  0.25002195981E+00 0.  0.
    1000022    2    1    0    0    0  0.29337439436E+02 -0.31001648266E+02 -0.44547306033E+02  0.62499999923E+02  0.99999983844E+01 0.  0.
    3000022    2    5    5    0    0  0.12931832874E+02 -0.79824764840E+01 -0.19462992100E+02  0.24694590234E+02  0.24998616593E+00 0.  0.
        -13    1    4    4    0    0 -0.27475976885E+01  0.13100561329E+01  0.45016374048E+01  0.54351912987E+01  0.10500000000E+00 0.  1.
         13    1    4    4    0    0 -0.50208722427E+01  0.23288623194E+01  0.79162869531E+01  0.96597816696E+01  0.10500000000E+00 0. -1.
    3000001    1    5    5    0    0  0.16405606562E+02 -0.23019171782E+02 -0.25084313933E+02  0.37805409689E+02  0.10000000000E+01 0.  1.
        -13    1    6    6    0    0  0.31886855678E+01 -0.19565108477E+01 -0.48278426729E+01  0.61085792311E+01  0.10500000000E+00 0. -1.
         13    1    6    6    0    0  0.97431473057E+01 -0.60259656364E+01 -0.14635149427E+02  0.18586011003E+02  0.10500000000E+00 0.  1.
</event>
<event>
11    0  0.3485800E-009  0.9118800E+02  0.7816531E-02  0.1126479E+00
         25   -1    0    0    0    0  0.00000000000E+00  0.00000000000E+00  0.99999998245E-14  0.12500000000E+03  0.12500000000E+03 0.  0.
    3000001    1    3    3    0    0  0.24169667095E+02 -0.15838853606E+02 -0.30638112004E+02  0.42127615625E+02  0.10000000000E+01 0.  1.
    1000022    2    1    0    0    0  0.34571126282E+02 -0.29260350239E+02 -0.41891757790E+02  0.62499998090E+02  0.99999761022E+01 0.  0.
    3000022    2    3    3    0    0  0.10401459187E+02 -0.13421496633E+02 -0.11253645785E+02  0.20372382465E+02  0.24999752698E+00 0.  0.
    1000022    2    1    0    0    0 -0.34571126282E+02  0.29260350239E+02  0.41891757790E+02  0.62500001910E+02  0.99999999731E+01 0.  0.
    3000022    2    5    5    0    0 -0.14798327636E+02  0.17792852341E+02  0.17182973389E+02  0.28825217561E+02  0.24999544578E+00 0.  0.
        -13    1    4    4    0    0  0.62981859216E+01 -0.80723592164E+01 -0.67216582076E+01  0.12248340430E+02  0.10500000000E+00 0.  1.
         13    1    4    4    0    0  0.41032732652E+01 -0.53491374169E+01 -0.45319875776E+01  0.81240420357E+01  0.10500000000E+00 0. -1.
    3000001    1    5    5    0    0 -0.19772798646E+02  0.11467497899E+02  0.24708784401E+02  0.33674784349E+02  0.10000000000E+01 0. -1.
        -13    1    6    6    0    0 -0.84095842142E+01  0.10062139106E+02  0.96646190829E+01  0.16290599653E+02  0.10500000000E+00 0.  1.
         13    1    6    6    0    0 -0.63887434219E+01  0.77307132344E+01  0.75183543057E+01  0.12534617908E+02  0.10500000000E+00 0. -1.
</event>
<event>
11    0  0.3485800E-009  0.9118800E+02  0.7816531E-02  0.1126479E+00
         25   -1    0    0    0    0  0.00000000000E+00  0.00000000000E+00  0.99999998245E-14  0.12500000000E+03  0.12500000000E+03 0.  0.
    3000001    1    3    3    0    0  0.12733012455E+01 -0.10102684817E+01 -0.54010556516E+01  0.57282929934E+01  0.10000000000E+01 0.  1.
    1000022    2    1    0    0    0 -0.14056348380E+02 -0.10315423194E+01 -0.60063342253E+02  0.62499999693E+02  0.99999934859E+01 0.  0.
    3000022    2    3    3    0    0 -0.15329649626E+02 -0.21273837642E-01 -0.54662286601E+02  0.56771706700E+02  0.24998979379E+00 0.  0.
    1000022    2    1    0    0    0  0.14056348380E+02  0.10315423194E+01  0.60063342253E+02  0.62500000307E+02  0.99999973214E+01 0.  0.
    3000022    2    5    5    0    0  0.95564852524E+00 -0.32974181876E+01  0.12612472018E+02  0.13073759080E+02  0.24999054158E+00 0.  0.
        -13    1    4    4    0    0 -0.49344213157E+01 -0.27120707382E-01 -0.17771697387E+02  0.18444335235E+02  0.10500000000E+00 0.  1.
         13    1    4    4    0    0 -0.10395228310E+02  0.58468697394E-02 -0.36890589215E+02  0.38327371465E+02  0.10500000000E+00 0. -1.
    3000001    1    5    5    0    0  0.13100699855E+02  0.43289605070E+01  0.47450870235E+02  0.49426241227E+02  0.10000000000E+01 0. -1.
        -13    1    6    6    0    0  0.55618570475E+00 -0.17180092836E+01  0.67725429340E+01  0.70099401730E+01  0.10500000000E+00 0.  1.
         13    1    6    6    0    0  0.39946282050E+00 -0.15794089040E+01  0.58399290836E+01  0.60638189067E+01  0.10500000000E+00 0. -1.
</event>
<event>
11    0  0.3485800E-009  0.9118800E+02  0.7816531E-02  0.1126479E+00
         25   -1    0    0    0    0  0.00000000000E+00  0.00000000000E+00  0.99999998245E-14  0.12500000000E+03  0.12500000000E+03 0.  0.
    3000001    1    3    3    0    0  0.58915336079E+01 -0.94921017831E+01 -0.19788562905E+02  0.22746370840E+02  0.10000000000E+01 0. -1.
    1000022    2    1    0    0    0  0.12921456161E+02 -0.36833555049E+02 -0.47776303854E+02  0.62499999841E+02  0.99999981616E+01 0.  0.
    3000022    2    3    3    0    0  0.70299225531E+01 -0.27341453266E+02 -0.27987740949E+02  0.39753629001E+02  0.24999505820E+00 0.  0.
    1000022    2    1    0    0    0 -0.12921456161E+02  0.36833555049E+02  0.47776303854E+02  0.62500000159E+02  0.10000000151E+02 0.  0.
    3000022    2    5    5    0    0 -0.10769618703E+02  0.16022735636E+02  0.24339823872E+02  0.31067704617E+02  0.24999954081E+00 0.  0.
        -13    1    4    4    0    0  0.34406896892E+01 -0.13642476479E+02 -0.13920692466E+02  0.19792731336E+02  0.10500000000E+00 0. -1.
         13    1    4    4    0    0  0.35892328639E+01 -0.13698976787E+02 -0.14067048483E+02  0.19960897665E+02  0.10500000000E+00 0.  1.
    3000001    1    5    5    0    0 -0.21518374580E+01  0.20810819413E+02  0.23436479982E+02  0.31432295542E+02  0.10000000000E+01 0.  1.
        -13    1    6    6    0    0 -0.35769485104E+01  0.52536830862E+01  0.79547453622E+01  0.10182570667E+02  0.10500000000E+00 0. -1.
         13    1    6    6    0    0 -0.71926701926E+01  0.10769052550E+02  0.16385078510E+02  0.20885133950E+02  0.10500000000E+00 0.  1.
</event>
<event>
11    0  0.3485800E-009  0.9118800E+02  0.7816531E-02  0.1126479E+00
         25   -1    0    0    0    0  0.00000000000E+00  0.00000000000E+00  0.99999998245E-14  0.12500000000E+03  0.12500000000E+03 0.  0.
    3000001    1    3    3    0    0  0.12948876357E+02 -0.40391466654E+02 -0.36308468522E+02  0.55843073552E+02  0.10000000000E+01 0. -1.
    1000022    2    1    0    0    0  0.13407093528E+02 -0.42596760952E+02 -0.42567765995E+02  0.62499991505E+02  0.10000001789E+02 0.  0.
    3000022    2    3    3    0    0  0.45821717080E+00 -0.22052942981E+01 -0.62592974738E+01  0.66569179526E+01  0.24993168059E+00 0.  0.
    1000022    2    1    0    0    0 -0.13407093528E+02  0.42596760952E+02  0.42567765995E+02  0.62500008495E+02  0.10000107979E+02 0.  0.
    3000022    2    5    5    0    0 -0.13462103164E+02  0.40942649386E+02  0.42552102533E+02  0.60566266921E+02  0.24999674232E+00 0.  0.
        -13    1    4    4    0    0  0.11952023273E+00 -0.51776141894E+00 -0.14605001470E+01  0.15577058940E+01  0.10500000000E+00 0. -1.
         13    1    4    4    0    0  0.33869693807E+00 -0.16875328792E+01 -0.47987973268E+01  0.50992120585E+01  0.10500000000E+00 0.  1.
    3000001    1    5    5    0    0  0.55009636358E-01  0.16541115660E+01  0.15663462400E-01  0.19337415745E+01  0.10000000000E+01 0.  1.
        -13    1    6    6    0    0 -0.39550615143E+01  0.12102365720E+02  0.12624499859E+02  0.17930387316E+02  0.10500000000E+00 0.  1.
         13    1    6    6    0    0 -0.95070416501E+01  0.28840283666E+02  0.29927602674E+02  0.42635879605E+02  0.10500000000E+00 0. -1.
</event>
<event>
11    0  0.3485800E-009  0.9118800E+02  0.7816531E-02  0.1126479E+00
         25   -1    0    0    0    0  0.00000000000E+00  0.00000000000E+00  0.99999998245E-14  0.12500000000E+03  0.12500000000E+03 0.  0.
    3000001    1    3    3    0    0 -0.27171553926E+02  0.62583619402E+00  0.11729366609E+02  0.29618626820E+02  0.10000000000E+01 0.  1.
    1000022    2    1    0    0    0 -0.52164268756E+02  0.62282446178E+01  0.32347325475E+02  0.62500012204E+02  0.10000004709E+02 0.  0.
    3000022    2    3    3    0    0 -0.24992714830E+02  0.56024084237E+01  0.20617958866E+02  0.32881385383E+02  0.25000434196E+00 0.  0.
    1000022    2    1    0    0    0  0.52164268756E+02 -0.62282446178E+01 -0.32347325475E+02  0.62499987796E+02  0.99998521621E+01 0.  0.
    3000022    2    5    5    0    0  0.46237640373E+02 -0.84339171371E+01 -0.29508290553E+02  0.55496414812E+02  0.25000021919E+00 0.  0.
        -13    1    4    4    0    0 -0.13281225625E+02  0.30176476937E+01  0.11033555259E+02  0.17528477354E+02  0.10500000000E+00 0.  1.
         13    1    4    4    0    0 -0.11711489206E+02  0.25847607301E+01  0.95844036077E+01  0.15352908030E+02  0.10500000000E+00 0. -1.
    3000001    1    5    5    0    0  0.59266283831E+01  0.22056725194E+01 -0.28390349221E+01  0.70035729841E+01  0.10000000000E+01 0.  1.
        -13    1    6    6    0    0  0.33591499791E+02 -0.60904979587E+01 -0.21421961391E+02  0.40303777471E+02  0.10500000000E+00 0.  1.
         13    1    6    6    0    0  0.12646140582E+02 -0.23434191784E+01 -0.80863291623E+01  0.15192637341E+02  0.10500000000E+00 0. -1.
</event>
<event>
11    0  0.3485800E-009  0.9118800E+02  0.7816531E-02  0.1126479E+00
         25   -1    0    0    0    0  0.00000000000E+00  0.00000000000E+00  0.99999998245E-14  0.12500000000E+03  0.12500000000E+03 0.  0.
    3000001    1    3    3    0    0  0.15070034852E+02  0.20469735919E+02  0.18310173871E+01  0.25504287163E+02  0.10000000000E+01 0. -1.
    1000022    2    1    0    0    0  0.44702411478E+02  0.41798184408E+02  0.78009745463E+01  0.62500007809E+02  0.10000098025E+02 0.  0.
    3000022    2    3    3    0    0  0.29632376626E+02  0.21328448488E+02  0.59699571591E+01  0.36995720645E+02  0.24999632177E+00 0.  0.
    1000022    2    1    0    0    0 -0.44702411478E+02 -0.41798184408E+02 -0.78009745463E+01  0.62499992191E+02  0.10000000419E+02 0.  0.
    3000022    2    5    5    0    0 -0.97571875324E+01 -0.66628679082E+01  0.19715550975E+01  0.11981070214E+02  0.24999334450E+00 0.  0.
        -13    1    4    4    0    0  0.12730869243E+02  0.90830551131E+01  0.25635633602E+01  0.15848022084E+02  0.10500000000E+00 0. -1.
         13    1    4    4    0    0  0.16901507383E+02  0.12245393375E+02  0.34063937990E+01  0.21147698561E+02  0.10500000000E+00 0.  1.
    3000001    1    5    5    0    0 -0.34945223945E+02 -0.35135316499E+02 -0.97725296438E+01  0.50518921977E+02  0.10000000000E+01 0.  1.
        -13    1    6    6    0    0 -0.41818580642E+01 -0.28009891572E+01  0.79215903745E+00  0.50962749208E+01  0.10500000000E+00 0.  1.
         13    1    6    6    0    0 -0.55753294682E+01 -0.38618787511E+01  0.11793960601E+01  0.68847952935E+01  0.10500000000E+00 0. -1.
</event>
<event>
11    0  0.3485800E-009  0.9118800E+02  0.7816531E-02  0.1126479E+00
         25   -1    0    0    0    0  0.00000000000E+00  0.00000000000E+00  0.99999998245E-14  0.12500000000E+03  0.12500000000E+03 0.  0.
    3000001    1    3    3    0    0  0.21104319022E+02  0.31776689067E+02  0.22450856201E+02  0.44274046502E+02  0.10000000000E+01 0.  1.
    1000022    2    1    0    0    0  0.29744008508E+02  0.47451669065E+02  0.25882070399E+02  0.62499988589E+02  0.10000003311E+02 0.  0.
    3000022    2    3    3    0    0  0.86396894859E+01  0.15674979998E+02  0.34312141983E+01  0.18225942087E+02  0.25000347987E+00 0.  0.
    1000022    2    1    0    0    0 -0.29744008508E+02 -0.47451669065E+02 -0.25882070399E+02  0.62500011411E+02  0.10000145953E+02 0.  0.
    3000022    2    5    5    0    0 -0.77181580998E+01 -0.17815408389E+02 -0.13055436785E+02  0.23397983805E+02  0.24995190801E+00 0.  0.
        -13    1    4    4    0    0  0.40359541023E+01  0.73474378661E+01  0.16745612746E+01  0.85492075174E+01  0.10500000000E+00 0.  1.
         13    1    4    4    0    0  0.46037353835E+01  0.83275421318E+01  0.17566529237E+01  0.96767345697E+01  0.10500000000E+00 0. -1.
    3000001    1    5    5    0    0 -0.22025850408E+02 -0.29636260676E+02 -0.12826633614E+02  0.39102027606E+02  0.10000000000E+01 0.  1.
        -13    1    6    6    0    0 -0.25752322562E+01 -0.58950251816E+01 -0.42665966165E+01  0.77199750487E+01  0.10500000000E+00 0.  1.
         13    1    6    6    0    0 -0.51429258436E+01 -0.11920383208E+02 -0.87888401689E+01  0.15678008757E+02  0.10500000000E+00 0. -1.
</event>
<event>
11    0  0.3485800E-009  0.9118800E+02  0.7816531E-02  0.1126479E+00
         25   -1    0    0    0    0  0.00000000000E+00  0.00000000000E+00  0.99999998245E-14  0.12500000000E+03  0.12500000000E+03 0.  0.
    3000001    1    3    3    0    0  0.12789041534E+02  0.51819875365E+01 -0.12281403270E+02  0.18499876877E+02  0.10000000000E+01 0.  1.
    1000022    2    1    0    0    0  0.39906519128E+02  0.30985545821E+02 -0.35406435121E+02  0.62499999659E+02  0.99999995296E+01 0.  0.
    3000022    2    3    3    0    0  0.27117477594E+02  0.25803558285E+02 -0.23125031851E+02  0.44000122782E+02  0.24999092057E+00 0.  0.
    1000022    2    1    0    0    0 -0.39906519128E+02 -0.30985545821E+02  0.35406435121E+02  0.62500000341E+02  0.10000003794E+02 0.  0.
    3000022    2    5    5    0    0 -0.80241876364E+00 -0.29463939062E+01  0.39689595328E+01  0.50140057267E+01  0.25000146211E+00 0.  0.
        -13    1    4    4    0    0  0.15255050229E+02  0.14545667194E+02 -0.12948430925E+02  0.24737944135E+02  0.10500000000E+00 0. -1.
         13    1    4    4    0    0  0.11862427365E+02  0.11257891090E+02 -0.10176600926E+02  0.19262178646E+02  0.10500000000E+00 0.  1.
    3000001    1    5    5    0    0 -0.39104100365E+02 -0.28039151915E+02  0.31437475588E+02  0.57485994614E+02  0.10000000000E+01 0. -1.
        -13    1    6    6    0    0 -0.19398036504E+00 -0.76560531715E+00  0.10786042140E+01  0.13409667908E+01  0.10500000000E+00 0.  1.
         13    1    6    6    0    0 -0.60843839861E+00 -0.21807885891E+01  0.28903553188E+01  0.36730389358E+01  0.10500000000E+00 0. -1.
</event>
<event>
11    0  0.3485800E-009  0.9118800E+02  0.7816531E-02  0.1126479E+00
         25   -1    0    0    0    0  0.00000000000E+00  0.00000000000E+00  0.99999998245E-14  0.12500000000E+03  0.12500000000E+03 0.  0.
    3000001    1    3    3    0    0 -0.55534294142E+01  0.23814401504E+02 -0.81511004665E+01  0.25795478985E+02  0.10000000000E+01 0.  1.
    1000022    2    1    0    0    0 -0.24316229191E+02  0.53146529816E+02 -0.19758983317E+02  0.62499999840E+02  0.99999962341E+01 0.  0.
    3000022    2    3    3    0    0 -0.18762799777E+02  0.29332128312E+02 -0.11607882850E+02  0.36704520855E+02  0.25000023199E+00 0.  0.
    1000022    2    1    0    0    0  0.24316229191E+02 -0.53146529816E+02  0.19758983317E+02  0.62500000160E+02  0.99999982367E+01 0.  0.
    3000022    2    5    5    0    0  0.11216482396E+02 -0.20793765524E+02  0.31626710932E+01  0.23838102860E+02  0.24999500523E+00 0.  0.
        -13    1    4    4    0    0 -0.60121822688E+01  0.94578773000E+01 -0.36939254960E+01  0.11800588512E+02  0.10500000000E+00 0. -1.
         13    1    4    4    0    0 -0.12750617508E+02  0.19874251012E+02 -0.79139573543E+01  0.24903932343E+02  0.10500000000E+00 0.  1.
    3000001    1    5    5    0    0  0.13099746795E+02 -0.32352764292E+02  0.16596312224E+02  0.38661897300E+02  0.10000000000E+01 0. -1.
        -13    1    6    6    0    0  0.47744964243E+01 -0.89769165504E+01  0.13337038482E+01  0.10255273659E+02  0.10500000000E+00 0. -1.
         13    1    6    6    0    0  0.64419859721E+01 -0.11816848974E+02  0.18289672449E+01  0.13582829201E+02  0.10500000000E+00 0.  1.
</event>
<event>
11    0  0.3485800E-009  0.9118800E+02  0.7816531E-02  0.1126479E+00
         25   -1    0    0    0    0  0.00000000000E+00  0.00000000000E+00  0.99999998245E-14  0.12500000000E+03  0.12500000000E+03 0.  0.
    3000001    1    3    3    0    0  0.18372774634E+02  0.11988869874E+02 -0.46493654392E+01  0.22447905194E+02  0.10000000000E+01 0.  1.
    1000022    2    1    0    0    0  0.56479779383E+02  0.24310370177E+02 -0.50290240801E+01  0.62499993948E+02  0.99999291494E+01 0.  0.
    3000022    2    3    3    0    0  0.38107004749E+02  0.12321500303E+02 -0.37965864095E+00  0.40052088754E+02  0.24998443741E+00 0.  0.
    1000022    2    1    0    0    0 -0.56479779383E+02 -0.24310370177E+02  0.50290240801E+01  0.62500006052E+02  0.10000004793E+02 0.  0.
    3000022    2    5    5    0    0 -0.13619404494E+02 -0.10657406701E+02  0.18575316800E+01  0.17394867637E+02  0.24999958938E+00 0.  0.
        -13    1    4    4    0    0  0.22975110684E+02  0.74909797058E+01 -0.24970497834E+00  0.24166999513E+02  0.10500000000E+00 0. -1.
         13    1    4    4    0    0  0.15131894065E+02  0.48305205975E+01 -0.12995366261E+00  0.15885089241E+02  0.10500000000E+00 0.  1.
    3000001    1    5    5    0    0 -0.42860374890E+02 -0.13652963476E+02  0.31714924001E+01  0.45105138415E+02  0.10000000000E+01 0.  1.
        -13    1    6    6    0    0 -0.73534256930E+01 -0.57324298654E+01  0.10667334433E+01  0.93852313144E+01  0.10500000000E+00 0.  1.
         13    1    6    6    0    0 -0.62659788006E+01 -0.49249768361E+01  0.79079823676E+00  0.80096363224E+01  0.10500000000E+00 0. -1.
</event>
<event>
11    0  0.3485800E-009  0.9118800E+02  0.7816531E-02  0.1126479E+00
         25   -1    0    0    0    0  0.00000000000E+00  0.00000000000E+00  0.99999998245E-14  0.12500000000E+03  0.12500000000E+03 0.  0.
    3000001    1    3    3    0    0  0.20593144612E+02 -0.33564639286E+01  0.31558545906E+02  0.37845544980E+02  0.10000000000E+01 0. -1.
    1000022    2    1    0    0    0  0.26685057554E+02 -0.59445344179E+01  0.55306602132E+02  0.62500000774E+02  0.10000003560E+02 0.  0.
    3000022    2    3    3    0    0  0.60919129423E+01 -0.25880704893E+01  0.23748056226E+02  0.24654455794E+02  0.25000765217E+00 0.  0.
    1000022    2    1    0    0    0 -0.26685057554E+02  0.59445344179E+01 -0.55306602132E+02  0.62499999226E+02  0.99999938862E+01 0.  0.
    3000022    2    5    5    0    0 -0.41829188162E+01  0.35601915197E+01 -0.54615607152E+01  0.77500266899E+01  0.24998953724E+00 0.  0.
        -13    1    4    4    0    0  0.20893402410E+01 -0.94750992498E+00  0.81981682877E+01  0.85137598024E+01  0.10500000000E+00 0.  1.
         13    1    4    4    0    0  0.40025727013E+01 -0.16405605643E+01  0.15549887938E+02  0.16140695992E+02  0.10500000000E+00 0. -1.
    3000001    1    5    5    0    0 -0.22502138738E+02  0.23843428982E+01 -0.49845041417E+02  0.54749972536E+02  0.10000000000E+01 0. -1.
        -13    1    6    6    0    0 -0.29236207090E+01  0.24660505173E+01 -0.37391776783E+01  0.53499007387E+01  0.10500000000E+00 0. -1.
         13    1    6    6    0    0 -0.12592981072E+01  0.10941410024E+01 -0.17223830369E+01  0.24001259512E+01  0.10500000000E+00 0.  1.
</event>
<event>
11    0  0.3485800E-009  0.9118800E+02  0.7816531E-02  0.1126479E+00
         25   -1    0    0    0    0  0.00000000000E+00  0.00000000000E+00  0.99999998245E-14  0.12500000000E+03  0.12500000000E+03 0.  0.
    3000001    1    3    3    0    0  0.49947687391E+02  0.34642237906E+02  0.49875901450E+01  0.60997804700E+02  0.10000000000E+01 0.  1.
    1000022    2    1    0    0    0  0.51255900887E+02  0.34016587789E+02  0.46855496802E+01  0.62500000013E+02  0.10000000263E+02 0.  0.
    3000022    2    3    3    0    0  0.13082134965E+01 -0.62565011679E+00 -0.30204046477E+00  0.15021953127E+01  0.25000338805E+00 0.  0.
    1000022    2    1    0    0    0 -0.51255900887E+02 -0.34016587789E+02 -0.46855496802E+01  0.62499999987E+02  0.10000000098E+02 0.  0.
    3000022    2    5    5    0    0 -0.43819240536E+02 -0.29050661297E+02 -0.50299253175E+00  0.52577393101E+02  0.25000180490E+00 0.  0.
        -13    1    4    4    0    0  0.43610379904E+00 -0.26687706686E+00 -0.12960176991E+00  0.53780248337E+00  0.10500000000E+00 0.  1.
         13    1    4    4    0    0  0.87210969743E+00 -0.35877304993E+00 -0.17243869486E+00  0.96439282930E+00  0.10500000000E+00 0. -1.
    3000001    1    5    5    0    0 -0.74366603518E+01 -0.49659264925E+01 -0.41825571484E+01  0.99226068862E+01  0.10000000000E+01 0. -1.
        -13    1    6    6    0    0 -0.18039896134E+02 -0.12010606218E+02 -0.25559785608E+00  0.21674152106E+02  0.10500000000E+00 0.  1.
         13    1    6    6    0    0 -0.25779344401E+02 -0.17040055078E+02 -0.24739467567E+00  0.30903240994E+02  0.10500000000E+00 0. -1.
</event>
<event>
11    0  0.3485800E-009  0.9118800E+02  0.7816531E-02  0.1126479E+00
         25   -1    0    0    0    0  0.00000000000E+00  0.00000000000E+00  0.99999998245E-14  0.12500000000E+03  0.12500000000E+03 0.  0.
    3000001    1    3    3    0    0  0.27379007085E+02 -0.21254114832E+02  0.14953541294E+02  0.37761830245E+02  0.10000000000E+01 0.  1.
    1000022    2    1    0    0    0  0.38976803599E+02 -0.39709932473E+02  0.26649200072E+02  0.62499999593E+02  0.10000006442E+02 0.  0.
    3000022    2    3    3    0    0  0.11597796514E+02 -0.18455817641E+02  0.11695658778E+02  0.24738169348E+02  0.24999927263E+00 0.  0.
    1000022    2    1    0    0    0 -0.38976803599E+02  0.39709932473E+02 -0.26649200072E+02  0.62500000407E+02  0.10000011530E+02 0.  0.
    3000022    2    5    5    0    0 -0.19576452682E+01  0.59862917995E+01 -0.44396318243E+01  0.77097919247E+01  0.24999256268E+00 0.  0.
        -13    1    4    4    0    0  0.88631682536E+01 -0.14126355957E+02  0.89381876348E+01  0.18921202586E+02  0.10500000000E+00 0. -1.
         13    1    4    4    0    0  0.27346282601E+01 -0.43294616842E+01  0.27574711432E+01  0.58169667612E+01  0.10500000000E+00 0.  1.
    3000001    1    5    5    0    0 -0.37019158330E+02  0.33723640674E+02 -0.22209568248E+02  0.54790208482E+02  0.10000000000E+01 0.  1.
        -13    1    6    6    0    0 -0.12036274517E+01  0.35384545959E+01 -0.26898637270E+01  0.46060581672E+01  0.10500000000E+00 0.  1.
         13    1    6    6    0    0 -0.75401781652E+00  0.24478372036E+01 -0.17497680973E+01  0.31037337575E+01  0.10500000000E+00 0. -1.
</event>
<event>
11    0  0.3485800E-009  0.9118800E+02  0.7816531E-02  0.1126479E+00
         25   -1    0    0    0    0  0.00000000000E+00  0.00000000000E+00  0.99999998245E-14  0.12500000000E+03  0.12500000000E+03 0.  0.
    3000001    1    3    3    0    0 -0.80796679843E-01  0.22028859840E+02 -0.64082288060E+01  0.22963941090E+02  0.10000000000E+01 0. -1.
    1000022    2    1    0    0    0  0.10797250892E+02  0.56188826020E+02 -0.23075634742E+02  0.62500002169E+02  0.10000027801E+02 0.  0.
    3000022    2    3    3    0    0  0.10878047572E+02  0.34159966181E+02 -0.16667405936E+02  0.39536061079E+02  0.24999318717E+00 0.  0.
    1000022    2    1    0    0    0 -0.10797250892E+02 -0.56188826020E+02  0.23075634742E+02  0.62499997831E+02  0.10000000690E+02 0.  0.
    3000022    2    5    5    0    0 -0.12524253539E+02 -0.49804829904E+02  0.19668314889E+02  0.54993482452E+02  0.24998641507E+00 0.  0.
        -13    1    4    4    0    0  0.71943219005E+01  0.22612993562E+02 -0.11091907609E+02  0.26194411328E+02  0.10500000000E+00 0. -1.
         13    1    4    4    0    0  0.36837256717E+01  0.11546972619E+02 -0.55754983270E+01  0.13341649751E+02  0.10500000000E+00 0.  1.
    3000001    1    5    5    0    0  0.17270026463E+01 -0.63839961166E+01  0.34073198527E+01  0.75065153790E+01  0.10000000000E+01 0.  1.
        -13    1    6    6    0    0 -0.37832619556E+01 -0.15191017992E+02  0.60286480306E+01  0.16776046040E+02  0.10500000000E+00 0. -1.
         13    1    6    6    0    0 -0.87409915830E+01 -0.34613811912E+02  0.13639666858E+02  0.38217436412E+02  0.10500000000E+00 0.  1.
</event>
<event>
11    0  0.3485800E-009  0.9118800E+02  0.7816531E-02  0.1126479E+00
         25   -1    0    0    0    0  0.00000000000E+00  0.00000000000E+00  0.99999998245E-14  0.12500000000E+03  0.12500000000E+03 0.  0.
    3000001    1    3    3    0    0  0.24435886965E+02  0.23299478027E+02  0.37389619696E+02  0.50388112776E+02  0.10000000000E+01 0.  1.
    1000022    2    1    0    0    0  0.32759497442E+02  0.30471873693E+02  0.42479761990E+02  0.62499999653E+02  0.10000000946E+02 0.  0.
    3000022    2    3    3    0    0  0.83236104762E+01  0.71723956662E+01  0.50901422938E+01  0.12111886877E+02  0.25000839590E+00 0.  0.
    1000022    2    1    0    0    0 -0.32759497442E+02 -0.30471873693E+02 -0.42479761990E+02  0.62500000347E+02  0.10000005282E+02 0.  0.
    3000022    2    5    5    0    0 -0.18353085788E+01 -0.20086851146E+01  0.21719052990E-02  0.27323396233E+01  0.25000326186E+00 0.  0.
        -13    1    4    4    0    0  0.61055443384E+01  0.52915638454E+01  0.37695117873E+01  0.89161967067E+01  0.10500000000E+00 0. -1.
         13    1    4    4    0    0  0.22180661378E+01  0.18808318208E+01  0.13206305065E+01  0.31956901703E+01  0.10500000000E+00 0.  1.
    3000001    1    5    5    0    0 -0.30924188863E+02 -0.28463188578E+02 -0.42481933895E+02  0.59767660724E+02  0.10000000000E+01 0.  1.
        -13    1    6    6    0    0 -0.58102121341E+00 -0.62682824184E+00 -0.48521693509E-01  0.86248399982E+00  0.10500000000E+00 0.  1.
         13    1    6    6    0    0 -0.12542873654E+01 -0.13818568728E+01  0.50693598808E-01  0.18698556235E+01  0.10500000000E+00 0. -1.
</event>
<event>
11    0  0.3485800E-009  0.9118800E+02  0.7816531E-02  0.1126479E+00
         25   -1    0    0    0    0  0.00000000000E+00  0.00000000000E+00  0.99999998245E-14  0.12500000000E+03  0.12500000000E+03 0.  0.
    3000001    1    3    3    0    0  0.57365980206E+02 -0.24805316198E+00  0.19872842325E+02  0.60719412690E+02  0.10000000000E+01 0.  1.
    1000022    2    1    0    0    0  0.58693982878E+02 -0.98929047139E+00  0.18981237715E+02  0.62499996330E+02  0.99999917169E+01 0.  0.
    3000022    2    3    3    0    0  0.13280026725E+01 -0.74123730941E+00 -0.89160461036E+00  0.17805836402E+01  0.24999094269E+00 0.  0.
    1000022    2    1    0    0    0 -0.58693982878E+02  0.98929047139E+00 -0.18981237715E+02  0.62500003670E+02  0.10000037588E+02 0.  0.
    3000022    2    5    5    0    0 -0.50533148787E+02 -0.24530052573E+00 -0.19508596725E+02  0.54169245269E+02  0.24997641299E+00 0.  0.
        -13    1    4    4    0    0  0.67058633129E+00 -0.31653912355E+00 -0.48627463899E+00  0.89295636454E+00  0.10500000000E+00 0. -1.
         13    1    4    4    0    0  0.65741634120E+00 -0.42469818586E+00 -0.40532997138E+00  0.88762727563E+00  0.10500000000E+00 0.  1.
    3000001    1    5    5    0    0 -0.81608340914E+01  0.12345909971E+01  0.52735901028E+00  0.83307584002E+01  0.10000000000E+01 0. -1.
        -13    1    6    6    0    0 -0.14186120679E+02 -0.96779443137E-01 -0.55073588678E+01  0.15218324904E+02  0.10500000000E+00 0. -1.
         13    1    6    6    0    0 -0.36347028108E+02 -0.14852108260E+00 -0.14001237858E+02  0.38950920366E+02  0.10500000000E+00 0.  1.
</event>
<event>
11    0  0.3485800E-009  0.9118800E+02  0.7816531E-02  0.1126479E+00
         25   -1    0    0    0    0  0.00000000000E+00  0.00000000000E+00  0.99999998245E-14  0.12500000000E+03  0.12500000000E+03 0.  0.
    3000001    1    3    3    0    0 -0.26531005827E+02  0.20223857790E+01  0.35999410738E+01  0.26869013569E+02  0.10000000000E+01 0.  1.
    1000022    2    1    0    0    0 -0.60261044271E+02  0.13189888638E+02  0.93986084724E+00  0.62499999257E+02  0.99999974896E+01 0.  0.
    3000022    2    3    3    0    0 -0.33730038444E+02  0.11167502859E+02 -0.26600802266E+01  0.35630985688E+02  0.25000149925E+00 0.  0.
    1000022    2    1    0    0    0  0.60261044271E+02 -0.13189888638E+02 -0.93986084724E+00  0.62500000743E+02  0.10000006777E+02 0.  0.
    3000022    2    5    5    0    0  0.58726044972E+02 -0.11198112590E+02 -0.79553966868E+00  0.59789977998E+02  0.25000413658E+00 0.  0.
        -13    1    4    4    0    0 -0.22685671039E+02  0.74592841109E+01 -0.17690899966E+01  0.23946216702E+02  0.10500000000E+00 0.  1.
         13    1    4    4    0    0 -0.11044367405E+02  0.37082187479E+01 -0.89099023002E+00  0.11684768986E+02  0.10500000000E+00 0. -1.
    3000001    1    5    5    0    0  0.15349992994E+01 -0.19917760481E+01 -0.14432117856E+00  0.27100227448E+01  0.10000000000E+01 0.  1.
        -13    1    6    6    0    0  0.22528985912E+02 -0.42414072697E+01 -0.27531045461E+00  0.22926656160E+02  0.10500000000E+00 0.  1.
         13    1    6    6    0    0  0.36197059060E+02 -0.69567053201E+01 -0.52022921407E+00  0.36863321838E+02  0.10500000000E+00 0. -1.
</event>
<event>
11    0  0.3485800E-009  0.9118800E+02  0.7816531E-02  0.1126479E+00
         25   -1    0    0    0    0  0.00000000000E+00  0.00000000000E+00  0.99999998245E-14  0.12500000000E+03  0.12500000000E+03 0.  0.
    3000001    1    3    3    0    0  0.35653602967E+00 -0.48995207222E+01 -0.75679327548E+01  0.90777765686E+01  0.10000000000E+01 0.  1.
    1000022    2    1    0    0    0  0.24634834088E+02 -0.34652133682E+02 -0.44705754108E+02  0.62500000504E+02  0.10000009668E+02 0.  0.
    3000022    2    3    3    0    0  0.24278298059E+02 -0.29752612960E+02 -0.37137821353E+02  0.53422223935E+02  0.25000156551E+00 0.  0.
    1000022    2    1    0    0    0 -0.24634834088E+02  0.34652133682E+02  0.44705754108E+02  0.62499999496E+02  0.10000003369E+02 0.  0.
    3000022    2    5    5    0    0 -0.11213629939E+02  0.24030090225E+02  0.27879529122E+02  0.38477543850E+02  0.25000798635E+00 0.  0.
        -13    1    4    4    0    0  0.11350440706E+02 -0.14013444794E+02 -0.17418399449E+02  0.25072311492E+02  0.10500000000E+00 0. -1.
         13    1    4    4    0    0  0.12927857352E+02 -0.15739168166E+02 -0.19719421905E+02  0.28349912443E+02  0.10500000000E+00 0.  1.
    3000001    1    5    5    0    0 -0.13421204149E+02  0.10622043457E+02  0.16826224986E+02  0.24022455646E+02  0.10000000000E+01 0. -1.
        -13    1    6    6    0    0 -0.29045457629E+01  0.62243057787E+01  0.72672072682E+01  0.10000084749E+02  0.10500000000E+00 0.  1.
         13    1    6    6    0    0 -0.83090841764E+01  0.17805784446E+02  0.20612321854E+02  0.28477459100E+02  0.10500000000E+00 0. -1.
</event>
<event>
11    0  0.3485800E-009  0.9118800E+02  0.7816531E-02  0.1126479E+00
         25   -1    0    0    0    0  0.00000000000E+00  0.00000000000E+00  0.99999998245E-14  0.12500000000E+03  0.12500000000E+03 0.  0.
    3000001    1    3    3    0    0  0.24706944133E+02  0.23388384032E+02 -0.92902705798E+01  0.35281138353E+02  0.10000000000E+01 0. -1.
    1000022    2    1    0    0    0  0.37919346057E+02  0.46887397335E+02 -0.13036298635E+02  0.62500000291E+02  0.10000005999E+02 0.  0.
    3000022    2    3    3    0    0  0.13212401924E+02  0.23499013303E+02 -0.37460280550E+01  0.27218861938E+02  0.25005636603E+00 0.  0.
    1000022    2    1    0    0    0 -0.37919346057E+02 -0.46887397335E+02  0.13036298635E+02  0.62499999709E+02  0.10000002367E+02 0.  0.
    3000022    2    5    5    0    0 -0.31521802107E-01  0.25438833387E+00  0.67129853727E+00  0.76080300068E+00  0.24994485651E+00 0.  0.
        -13    1    4    4    0    0  0.88454896393E+01  0.15680943932E+02 -0.24541282788E+01  0.18170538246E+02  0.10500000000E+00 0. -1.
         13    1    4    4    0    0  0.43669122845E+01  0.78180693709E+01 -0.12918997762E+01  0.90483236912E+01  0.10500000000E+00 0.  1.
    3000001    1    5    5    0    0 -0.37887824255E+02 -0.47141785669E+02  0.12365000098E+02  0.61739196709E+02  0.10000000000E+01 0. -1.
        -13    1    6    6    0    0  0.26784876767E-01  0.46710497855E-01  0.21234882133E+00  0.24293275232E+00  0.10500000000E+00 0.  1.
         13    1    6    6    0    0 -0.58306678874E-01  0.20767783601E+00  0.45894971594E+00  0.51787024836E+00  0.10500000000E+00 0. -1.
</event>
<event>
11    0  0.3485800E-009  0.9118800E+02  0.7816531E-02  0.1126479E+00
         25   -1    0    0    0    0  0.00000000000E+00  0.00000000000E+00  0.99999998245E-14  0.12500000000E+03  0.12500000000E+03 0.  0.
    3000001    1    3    3    0    0 -0.36798086365E+02 -0.25996337442E+02 -0.36450816730E+02  0.57961804326E+02  0.10000000000E+01 0. -1.
    1000022    2    1    0    0    0 -0.37370123197E+02 -0.27427247874E+02 -0.40712036694E+02  0.62499999448E+02  0.99999982760E+01 0.  0.
    3000022    2    3    3    0    0 -0.57203683232E+00 -0.14309104315E+01 -0.42612199640E+01  0.45381951212E+01  0.24997715137E+00 0.  0.
    1000022    2    1    0    0    0  0.37370123197E+02  0.27427247874E+02  0.40712036694E+02  0.62500000552E+02  0.10000005181E+02 0.  0.
    3000022    2    5    5    0    0  0.29832182134E+02  0.20324148890E+02  0.26029992904E+02  0.44504529442E+02  0.24998259470E+00 0.  0.
        -13    1    4    4    0    0 -0.43028455279E+00 -0.10938609596E+01 -0.32760469039E+01  0.34821236210E+01  0.10500000000E+00 0. -1.
         13    1    4    4    0    0 -0.14175227953E+00 -0.33704947193E+00 -0.98517306012E+00  0.10560715003E+01  0.10500000000E+00 0.  1.
    3000001    1    5    5    0    0  0.75379410627E+01  0.71030989832E+01  0.14682043790E+02  0.17995471110E+02  0.10000000000E+01 0.  1.
        -13    1    6    6    0    0  0.10879445831E+02  0.74752557098E+01  0.95521284948E+01  0.16294047174E+02  0.10500000000E+00 0.  1.
         13    1    6    6    0    0  0.18952736303E+02  0.12848893181E+02  0.16477864409E+02  0.28210482268E+02  0.10500000000E+00 0. -1.
</event>
<event>
11    0  0.3485800E-009  0.9118800E+02  0.7816531E-02  0.1126479E+00
         25   -1    0    0    0    0  0.00000000000E+00  0.00000000000E+00  0.99999998245E-14  0.12500000000E+03  0.12500000000E+03 0.  0.
    3000001    1    3    3    0    0  0.35719672705E+01 -0.17885711793E+02  0.20252850734E+02  0.27273349617E+02  0.10000000000E+01 0.  1.
    1000022    2    1    0    0    0  0.24909768426E+01 -0.33093582509E+02  0.52008267200E+02  0.62499999300E+02  0.99999943217E+01 0.  0.
    3000022    2    3    3    0    0 -0.10809904279E+01 -0.15207870717E+02  0.31755416467E+02  0.35226649683E+02  0.25000174961E+00 0.  0.
    1000022    2    1    0    0    0 -0.24909768426E+01  0.33093582509E+02 -0.52008267200E+02  0.62500000700E+02  0.10000003066E+02 0.  0.
    3000022    2    5    5    0    0 -0.45073286283E+01  0.31362087453E+02 -0.49094196533E+02  0.58431148588E+02  0.24990253314E+00 0.  0.
        -13    1    4    4    0    0 -0.29734340781E+00 -0.44267133758E+01  0.93342226312E+01  0.10335518446E+02  0.10500000000E+00 0. -1.
         13    1    4    4    0    0 -0.78364702012E+00 -0.10781157341E+02  0.22421193836E+02  0.24891131237E+02  0.10500000000E+00 0.  1.
    3000001    1    5    5    0    0  0.20163517857E+01  0.17314950562E+01 -0.29140706676E+01  0.40688521119E+01  0.10000000000E+01 0.  1.
        -13    1    6    6    0    0 -0.23851963044E+01  0.16955165797E+02 -0.26450179361E+02  0.31508567435E+02  0.10500000000E+00 0.  1.
         13    1    6    6    0    0 -0.21221323239E+01  0.14406921656E+02 -0.22644017172E+02  0.26922581152E+02  0.10500000000E+00 0. -1.
</event>
<event>
11    0  0.3485800E-009  0.9118800E+02  0.7816531E-02  0.1126479E+00
         25   -1    0    0    0    0  0.00000000000E+00  0.00000000000E+00  0.99999998245E-14  0.12500000000E+03  0.12500000000E+03 0.  0.
    3000001    1    3    3    0    0  0.66983591758E+01 -0.11932190556E+02  0.12399114773E+02  0.18492788710E+02  0.10000000000E+01 0.  1.
    1000022    2    1    0    0    0  0.84802195420E+01 -0.45597023922E+02  0.40684730618E+02  0.62499999465E+02  0.99999956836E+01 0.  0.
    3000022    2    3    3    0    0  0.17818603663E+01 -0.33664833365E+02  0.28285615845E+02  0.44007210755E+02  0.25000563554E+00 0.  0.
    1000022    2    1    0    0    0 -0.84802195420E+01  0.45597023922E+02 -0.40684730618E+02  0.62500000535E+02  0.10000002373E+02 0.  0.
    3000022    2    5    5    0    0 -0.82992854298E+01  0.20460343233E+02 -0.16121981636E+02  0.27340164205E+02  0.25000608745E+00 0.  0.
        -13    1    4    4    0    0  0.12754430404E+01 -0.24330241216E+02  0.20393734739E+02  0.31772674332E+02  0.10500000000E+00 0.  1.
         13    1    4    4    0    0  0.50641732591E+00 -0.93345921490E+01  0.78918811058E+01  0.12234536423E+02  0.10500000000E+00 0. -1.
    3000001    1    5    5    0    0 -0.18093411223E+00  0.25136680688E+02 -0.24562748982E+02  0.35159836330E+02  0.10000000000E+01 0.  1.
        -13    1    6    6    0    0 -0.36903135345E+01  0.91839607842E+01 -0.71550987851E+01  0.12213517646E+02  0.10500000000E+00 0. -1.
         13    1    6    6    0    0 -0.46089718953E+01  0.11276382449E+02 -0.89668828507E+01  0.15126646559E+02  0.10500000000E+00 0.  1.
</event>
<event>
11    0  0.3485800E-009  0.9118800E+02  0.7816531E-02  0.1126479E+00
         25   -1    0    0    0    0  0.00000000000E+00  0.00000000000E+00  0.99999998245E-14  0.12500000000E+03  0.12500000000E+03 0.  0.
    3000001    1    3    3    0    0  0.10990344815E+01 -0.94618124121E+01 -0.37761220991E+02  0.38956945230E+02  0.10000000000E+01 0. -1.
    1000022    2    1    0    0    0  0.60111041524E+01 -0.87548125524E+01 -0.60773925817E+02  0.62499999066E+02  0.99999854026E+01 0.  0.
    3000022    2    3    3    0    0  0.49120696709E+01  0.70699985974E+00 -0.23012704826E+02  0.23543053836E+02  0.25004650909E+00 0.  0.
    1000022    2    1    0    0    0 -0.60111041524E+01  0.87548125524E+01  0.60773925817E+02  0.62500000934E+02  0.99999970836E+01 0.  0.
    3000022    2    5    5    0    0  0.24552711795E+01  0.20606450429E+00  0.87650723047E+01  0.91082277097E+01  0.25000072031E+00 0.  0.
        -13    1    4    4    0    0  0.34329334913E+01  0.53761624254E+00 -0.16024720899E+02  0.16397462257E+02  0.10500000000E+00 0. -1.
         13    1    4    4    0    0  0.14791361796E+01  0.16938361720E+00 -0.69879839274E+01  0.71455915792E+01  0.10500000000E+00 0.  1.
    3000001    1    5    5    0    0 -0.84663753319E+01  0.85487480481E+01  0.52008853512E+02  0.53391773225E+02  0.10000000000E+01 0. -1.
        -13    1    6    6    0    0  0.14216040026E+01  0.14618657390E+00  0.48586407652E+01  0.50655447426E+01  0.10500000000E+00 0.  1.
         13    1    6    6    0    0  0.10336671769E+01  0.59877930393E-01  0.39064315396E+01  0.40426829671E+01  0.10500000000E+00 0. -1.
</event>
<event>
11    0  0.3485800E-009  0.9118800E+02  0.7816531E-02  0.1126479E+00
         25   -1    0    0    0    0  0.00000000000E+00  0.00000000000E+00  0.99999998245E-14  0.12500000000E+03  0.12500000000E+03 0.  0.
    3000001    1    3    3    0    0 -0.50666931833E+01 -0.30433233711E+02 -0.51649827618E+02  0.60171071014E+02  0.10000000000E+01 0. -1.
    1000022    2    1    0    0    0 -0.69081693708E+01 -0.30811799436E+02 -0.53001513670E+02  0.62499997884E+02  0.99999747829E+01 0.  0.
    3000022    2    3    3    0    0 -0.18414761875E+01 -0.37856572451E+00 -0.13516860522E+01  0.23289268707E+01  0.24999725656E+00 0.  0.
    1000022    2    1    0    0    0  0.69081693708E+01  0.30811799436E+02  0.53001513670E+02  0.62500002116E+02  0.10000001228E+02 0.  0.
    3000022    2    5    5    0    0  0.64617311167E+01  0.30442746098E+02  0.46877515791E+02  0.56267919197E+02  0.24996997317E+00 0.  0.
        -13    1    4    4    0    0 -0.45466706743E+00 -0.99844632583E-01 -0.30933044047E+00  0.56868393177E+00  0.10500000000E+00 0. -1.
         13    1    4    4    0    0 -0.13868091201E+01 -0.27872109193E+00 -0.10423556117E+01  0.17602429389E+01  0.10500000000E+00 0.  1.
    3000001    1    5    5    0    0  0.44643825412E+00  0.36905333816E+00  0.61239978794E+01  0.62320829189E+01  0.10000000000E+01 0.  1.
        -13    1    6    6    0    0  0.41503813322E+01  0.19481724605E+02  0.29901973844E+02  0.35929129179E+02  0.10500000000E+00 0. -1.
         13    1    6    6    0    0  0.23113497845E+01  0.10961021493E+02  0.16975541947E+02  0.20338790018E+02  0.10500000000E+00 0.  1.
</event>
<event>
11    0  0.3485800E-009  0.9118800E+02  0.7816531E-02  0.1126479E+00
         25   -1    0    0    0    0  0.00000000000E+00  0.00000000000E+00  0.99999998245E-14  0.12500000000E+03  0.12500000000E+03 0.  0.
    3000001    1    3    3    0    0  0.16174468792E+02  0.39020372720E+02  0.22251961465E+02  0.47753038824E+02  0.10000000000E+01 0.  1.
    1000022    2    1    0    0    0  0.16175737568E+02  0.50578182279E+02  0.31407692312E+02  0.62500000280E+02  0.99999945074E+01 0.  0.
    3000022    2    3    3    0    0  0.12687766362E-02  0.11557809559E+02  0.91557308474E+01  0.14746961456E+02  0.25000286496E+00 0.  0.
    1000022    2    1    0    0    0 -0.16175737568E+02 -0.50578182279E+02 -0.31407692312E+02  0.62499999720E+02  0.99999910066E+01 0.  0.
    3000022    2    5    5    0    0 -0.22063167512E+01 -0.19087172612E+02 -0.14729487795E+02  0.24211738938E+02  0.24999954588E+00 0.  0.
        -13    1    4    4    0    0 -0.49766735578E-01  0.76862131068E+01  0.61115040535E+01  0.98204814264E+01  0.10500000000E+00 0. -1.
         13    1    4    4    0    0  0.51035512214E-01  0.38715964518E+01  0.30442267940E+01  0.49264800296E+01  0.10500000000E+00 0.  1.
    3000001    1    5    5    0    0 -0.13969420817E+02 -0.31491009667E+02 -0.16678204517E+02  0.38288260782E+02  0.10000000000E+01 0.  1.
        -13    1    6    6    0    0 -0.94051943405E+00 -0.82544491138E+01 -0.62879087086E+01  0.10419660642E+02  0.10500000000E+00 0.  1.
         13    1    6    6    0    0 -0.12657973171E+01 -0.10832723498E+02 -0.84415790862E+01  0.13792078295E+02  0.10500000000E+00 0. -1.
</event>
<event>
11    0  0.3485800E-009  0.9118800E+02  0.7816531E-02  0.1126479E+00
         25   -1    0    0    0    0  0.00000000000E+00  0.00000000000E+00  0.99999998245E-14  0.12500000000E+03  0.12500000000E+03 0.  0.
    3000001    1    3    3    0    0  0.26426511512E+02  0.13949587813E+02  0.29965648814E+02  0.42330740836E+02  0.10000000000E+01 0. -1.
    1000022    2    1    0    0    0  0.35092804808E+02  0.26151965804E+02  0.43483557548E+02  0.62500000156E+02  0.99999988868E+01 0.  0.
    3000022    2    3    3    0    0  0.86662932962E+01  0.12202377991E+02  0.13517908734E+02  0.20169259321E+02  0.24999370760E+00 0.  0.
    1000022    2    1    0    0    0 -0.35092804808E+02 -0.26151965804E+02 -0.43483557548E+02  0.62499999844E+02  0.99999969341E+01 0.  0.
    3000022    2    5    5    0    0 -0.15286304734E+02 -0.15268917256E+02 -0.15901705468E+02  0.26827927363E+02  0.25000643596E+00 0.  0.
        -13    1    4    4    0    0  0.29608257587E+01  0.41547881257E+01  0.45353767357E+01  0.68271092475E+01  0.10500000000E+00 0. -1.
         13    1    4    4    0    0  0.57054675375E+01  0.80475898658E+01  0.89825319984E+01  0.13342150073E+02  0.10500000000E+00 0.  1.
    3000001    1    5    5    0    0 -0.19806500074E+02 -0.10883048549E+02 -0.27581852080E+02  0.35672072481E+02  0.10000000000E+01 0.  1.
        -13    1    6    6    0    0 -0.35876399231E+01 -0.35687690990E+01 -0.37358040841E+01  0.62908290594E+01  0.10500000000E+00 0.  1.
         13    1    6    6    0    0 -0.11698664811E+02 -0.11700148157E+02 -0.12165901384E+02  0.20537098304E+02  0.10500000000E+00 0. -1.
</event>
<event>
11    0  0.3485800E-009  0.9118800E+02  0.7816531E-02  0.1126479E+00
         25   -1    0    0    0    0  0.00000000000E+00  0.00000000000E+00  0.99999998245E-14  0.12500000000E+03  0.12500000000E+03 0.  0.
    3000001    1    3    3    0    0  0.19309136171E+02 -0.55930209636E-01  0.27095797636E+02  0.33287056304E+02  0.10000000000E+01 0.  1.
    1000022    2    1    0    0    0  0.32499211295E+02 -0.85394604087E+01  0.51740992995E+02  0.62500007540E+02  0.99999733745E+01 0.  0.
    3000022    2    3    3    0    0  0.13190075125E+02 -0.84835301990E+01  0.24645195359E+02  0.29212951236E+02  0.24999841137E+00 0.  0.
    1000022    2    1    0    0    0 -0.32499211295E+02  0.85394604087E+01 -0.51740992995E+02  0.62499992460E+02  0.99998791292E+01 0.  0.
    3000022    2    5    5    0    0 -0.10939426887E+02  0.29783613326E+01 -0.26515568168E+02  0.28838854863E+02  0.24999538591E+00 0.  0.
        -13    1    4    4    0    0  0.50493222766E+01 -0.32641192745E+01  0.93381752401E+01  0.11106874984E+02  0.10500000000E+00 0. -1.
         13    1    4    4    0    0  0.81407528483E+01 -0.52194109245E+01  0.15307020119E+02  0.18106076252E+02  0.10500000000E+00 0.  1.
    3000001    1    5    5    0    0 -0.21559784409E+02  0.55610990761E+01 -0.25225424827E+02  0.33661137598E+02  0.10000000000E+01 0.  1.
        -13    1    6    6    0    0 -0.31482788022E+01  0.81584622984E+00 -0.76417677171E+01  0.83057151004E+01  0.10500000000E+00 0. -1.
         13    1    6    6    0    0 -0.77911480844E+01  0.21625151027E+01 -0.18873800451E+02  0.20533139762E+02  0.10500000000E+00 0.  1.
</event>
<event>
11    0  0.3485800E-009  0.9118800E+02  0.7816531E-02  0.1126479E+00
         25   -1    0    0    0    0  0.00000000000E+00  0.00000000000E+00  0.99999998245E-14  0.12500000000E+03  0.12500000000E+03 0.  0.
    3000001    1    3    3    0    0  0.10939153134E+02 -0.14677248665E+01 -0.12331800513E+01  0.11150785650E+02  0.10000000000E+01 0. -1.
    1000022    2    1    0    0    0  0.56995546366E+02  0.39164467050E+01 -0.23289894140E+02  0.62499999836E+02  0.99999975041E+01 0.  0.
    3000022    2    3    3    0    0  0.46056393233E+02  0.53841715715E+01 -0.22056714089E+02  0.51349214186E+02  0.25000014515E+00 0.  0.
    1000022    2    1    0    0    0 -0.56995546366E+02 -0.39164467050E+01  0.23289894140E+02  0.62500000164E+02  0.99999995536E+01 0.  0.
    3000022    2    5    5    0    0 -0.31896251408E+02 -0.47422390141E+01  0.85430892789E+01  0.33360254215E+02  0.25000428089E+00 0.  0.
        -13    1    4    4    0    0  0.13742957927E+02  0.16337246673E+01 -0.65427465449E+01  0.15308706876E+02  0.10500000000E+00 0. -1.
         13    1    4    4    0    0  0.32313435306E+02  0.37504469042E+01 -0.15513967544E+02  0.36040507310E+02  0.10500000000E+00 0.  1.
    3000001    1    5    5    0    0 -0.25099294958E+02  0.82579230912E+00  0.14746804861E+02  0.29139745949E+02  0.10000000000E+01 0. -1.
        -13    1    6    6    0    0 -0.11766503044E+02 -0.17913698657E+01  0.31092684771E+01  0.12301958191E+02  0.10500000000E+00 0.  1.
         13    1    6    6    0    0 -0.20129748364E+02 -0.29508691484E+01  0.54338208018E+01  0.21058296024E+02  0.10500000000E+00 0. -1.
</event>
<event>
11    0  0.3485800E-009  0.9118800E+02  0.7816531E-02  0.1126479E+00
         25   -1    0    0    0    0  0.00000000000E+00  0.00000000000E+00  0.99999998245E-14  0.12500000000E+03  0.12500000000E+03 0.  0.
    3000001    1    3    3    0    0 -0.12311199842E+02  0.19386042745E+02  0.77596093784E+01  0.24260994056E+02  0.10000000000E+01 0.  1.
    1000022    2    1    0    0    0 -0.39114410679E+02  0.41022638986E+02  0.24360953394E+02  0.62499999411E+02  0.99999922007E+01 0.  0.
    3000022    2    3    3    0    0 -0.26803210837E+02  0.21636596240E+02  0.16601344016E+02  0.38239005355E+02  0.24999879839E+00 0.  0.
    1000022    2    1    0    0    0  0.39114410679E+02 -0.41022638986E+02 -0.24360953394E+02  0.62500000589E+02  0.99999995632E+01 0.  0.
    3000022    2    5    5    0    0  0.27027463308E+02 -0.25168987873E+02 -0.20251375624E+02  0.42120570279E+02  0.25000496907E+00 0.  0.
        -13    1    4    4    0    0 -0.75312637653E+01  0.60589293609E+01  0.46181054418E+01  0.10713005263E+02  0.10500000000E+00 0. -1.
         13    1    4    4    0    0 -0.19271947071E+02  0.15577666879E+02  0.11983238574E+02  0.27526000092E+02  0.10500000000E+00 0.  1.
    3000001    1    5    5    0    0  0.12086947371E+02 -0.15853651112E+02 -0.41095777701E+01  0.20379430310E+02  0.10000000000E+01 0. -1.
        -13    1    6    6    0    0  0.10578609012E+02 -0.99069473654E+01 -0.80010157467E+01  0.16555417624E+02  0.10500000000E+00 0.  1.
         13    1    6    6    0    0  0.16448854296E+02 -0.15262040508E+02 -0.12250359877E+02  0.25565152655E+02  0.10500000000E+00 0. -1.
</event>
<event>
11    0  0.3485800E-009  0.9118800E+02  0.7816531E-02  0.1126479E+00
         25   -1    0    0    0    0  0.00000000000E+00  0.00000000000E+00  0.99999998245E-14  0.12500000000E+03  0.12500000000E+03 0.  0.
    3000001    1    3    3    0    0 -0.27770436252E+02 -0.14237145890E+02  0.19590515663E+01  0.31284682126E+02  0.10000000000E+01 0.  1.
    1000022    2    1    0    0    0 -0.54340998630E+02 -0.25951947698E+02  0.13409037434E+02  0.62499999490E+02  0.99999964960E+01 0.  0.
    3000022    2    3    3    0    0 -0.26570562378E+02 -0.11714801807E+02  0.11449985868E+02  0.31215317363E+02  0.24999049031E+00 0.  0.
    1000022    2    1    0    0    0  0.54340998630E+02  0.25951947698E+02 -0.13409037434E+02  0.62500000510E+02  0.10000002874E+02 0.  0.
    3000022    2    5    5    0    0  0.42989137774E+02  0.21991523367E+02 -0.68612740269E+01  0.48773277981E+02  0.24999430765E+00 0.  0.
        -13    1    4    4    0    0 -0.15416852962E+02 -0.67653086748E+01  0.65761929723E+01  0.18075013022E+02  0.10500000000E+00 0.  1.
         13    1    4    4    0    0 -0.11153709416E+02 -0.49494931327E+01  0.48737928954E+01  0.13140304342E+02  0.10500000000E+00 0. -1.
    3000001    1    5    5    0    0  0.11351860856E+02  0.39604243310E+01 -0.65477634071E+01  0.13726722530E+02  0.10000000000E+01 0.  1.
        -13    1    6    6    0    0  0.18293124846E+02  0.93448308634E+01 -0.29836108244E+01  0.20757582688E+02  0.10500000000E+00 0.  1.
         13    1    6    6    0    0  0.24696012928E+02  0.12646692504E+02 -0.38776632025E+01  0.28015695293E+02  0.10500000000E+00 0. -1.
</event>
<event>
11    0  0.3485800E-009  0.9118800E+02  0.7816531E-02  0.1126479E+00
         25   -1    0    0    0    0  0.00000000000E+00  0.00000000000E+00  0.99999998245E-14  0.12500000000E+03  0.12500000000E+03 0.  0.
    3000001    1    3    3    0    0  0.20109685267E+00 -0.29285642438E+01  0.13432102547E+01  0.33795180518E+01  0.10000000000E+01 0. -1.
    1000022    2    1    0    0    0 -0.31059077430E+02 -0.41921200818E+02  0.32927143125E+02  0.62500001138E+02  0.10000000952E+02 0.  0.
    3000022    2    3    3    0    0 -0.31260174283E+02 -0.38992636574E+02  0.31583932871E+02  0.59120483086E+02  0.25000316334E+00 0.  0.
    1000022    2    1    0    0    0  0.31059077430E+02  0.41921200818E+02 -0.32927143125E+02  0.62499998862E+02  0.99999867268E+01 0.  0.
    3000022    2    5    5    0    0  0.27987957403E+02  0.39280856161E+02 -0.32795949639E+02  0.58326222412E+02  0.24997548363E+00 0.  0.
        -13    1    4    4    0    0 -0.11072898360E+02 -0.13903612693E+02  0.11230253841E+02  0.21024964931E+02  0.10500000000E+00 0.  1.
         13    1    4    4    0    0 -0.20187275923E+02 -0.25089023881E+02  0.20353679029E+02  0.38095518155E+02  0.10500000000E+00 0. -1.
    3000001    1    5    5    0    0  0.30711200268E+01  0.26403446568E+01 -0.13119348623E+00  0.41737764503E+01  0.10000000000E+01 0. -1.
        -13    1    6    6    0    0  0.16609413204E+02  0.23352206990E+02 -0.19556648950E+02  0.34693972408E+02  0.10500000000E+00 0. -1.
         13    1    6    6    0    0  0.11378544200E+02  0.15928649171E+02 -0.13239300689E+02  0.23632250004E+02  0.10500000000E+00 0.  1.
</event>
<event>
11    0  0.3485800E-009  0.9118800E+02  0.7816531E-02  0.1126479E+00
         25   -1    0    0    0    0  0.00000000000E+00  0.00000000000E+00  0.99999998245E-14  0.12500000000E+03  0.12500000000E+03 0.  0.
    3000001    1    3    3    0    0  0.42769321643E+01  0.19344980060E+02 -0.13728008447E+02  0.24124233007E+02  0.10000000000E+01 0.  1.
    1000022    2    1    0    0    0 -0.24104918632E+00  0.47151135351E+02 -0.39786457144E+02  0.62500002406E+02  0.10000022959E+02 0.  0.
    3000022    2    3    3    0    0 -0.45179813506E+01  0.27806155290E+02 -0.26058448697E+02  0.38375769399E+02  0.25000193627E+00 0.  0.
    1000022    2    1    0    0    0  0.24104918632E+00 -0.47151135351E+02  0.39786457144E+02  0.62499997594E+02  0.99999928784E+01 0.  0.
    3000022    2    5    5    0    0 -0.13354169791E+00 -0.24238380865E+02  0.26820621833E+02  0.36151420369E+02  0.24999770614E+00 0.  0.
        -13    1    4    4    0    0 -0.25733088960E+01  0.15757398667E+02 -0.14856611751E+02  0.21809343620E+02  0.10500000000E+00 0.  1.
         13    1    4    4    0    0 -0.19446724546E+01  0.12048756623E+02 -0.11201836946E+02  0.16566425779E+02  0.10500000000E+00 0. -1.
    3000001    1    5    5    0    0  0.37459088422E+00 -0.22912754485E+02  0.12965835311E+02  0.26348577224E+02  0.10000000000E+01 0.  1.
        -13    1    6    6    0    0 -0.94343475684E-01 -0.10140532465E+02  0.11298863800E+02  0.15182708834E+02  0.10500000000E+00 0.  1.
         13    1    6    6    0    0 -0.39198222223E-01 -0.14097848401E+02  0.15521758033E+02  0.20968711535E+02  0.10500000000E+00 0. -1.
</event>
<event>
11    0  0.3485800E-009  0.9118800E+02  0.7816531E-02  0.1126479E+00
         25   -1    0    0    0    0  0.00000000000E+00  0.00000000000E+00  0.99999998245E-14  0.12500000000E+03  0.12500000000E+03 0.  0.
    3000001    1    3    3    0    0  0.31747824654E+01  0.18074924944E+02 -0.27326110857E+02  0.32931724674E+02  0.10000000000E+01 0. -1.
    1000022    2    1    0    0    0  0.11264196842E+02  0.26933401293E+02 -0.54350342896E+02  0.62499998914E+02  0.99999927783E+01 0.  0.
    3000022    2    3    3    0    0  0.80894143761E+01  0.88584763487E+01 -0.27024232039E+02  0.29568274239E+02  0.24999204021E+00 0.  0.
    1000022    2    1    0    0    0 -0.11264196842E+02 -0.26933401293E+02  0.54350342896E+02  0.62500001086E+02  0.10000006357E+02 0.  0.
    3000022    2    5    5    0    0 -0.29721439221E+01 -0.40164886976E+01  0.35100503091E+01  0.61113641558E+01  0.24999544215E+00 0.  0.
        -13    1    4    4    0    0  0.21599649956E+01  0.23511955503E+01 -0.71136023173E+01  0.77979441025E+01  0.10500000000E+00 0.  1.
         13    1    4    4    0    0  0.59294493805E+01  0.65072807985E+01 -0.19910629722E+02  0.21770330137E+02  0.10500000000E+00 0. -1.
    3000001    1    5    5    0    0 -0.82920529194E+01 -0.22916912595E+02  0.50840292587E+02  0.56388636930E+02  0.10000000000E+01 0. -1.
        -13    1    6    6    0    0 -0.12545980907E+01 -0.16410643160E+01  0.15195709306E+01  0.25665598126E+01  0.10500000000E+00 0.  1.
         13    1    6    6    0    0 -0.17175458314E+01 -0.23754243816E+01  0.19904793785E+01  0.35448043432E+01  0.10500000000E+00 0. -1.
</event>
<event>
11    0  0.3485800E-009  0.9118800E+02  0.7816531E-02  0.1126479E+00
         25   -1    0    0    0    0  0.00000000000E+00  0.00000000000E+00  0.99999998245E-14  0.12500000000E+03  0.12500000000E+03 0.  0.
    3000001    1    3    3    0    0  0.12424103124E+02 -0.92166771937E+01 -0.30665450756E+01  0.15802188951E+02  0.10000000000E+01 0.  1.
    1000022    2    1    0    0    0  0.39080150041E+02 -0.47534777499E+02 -0.44086655816E+01  0.62499998661E+02  0.10000015067E+02 0.  0.
    3000022    2    3    3    0    0  0.26656046917E+02 -0.38318100305E+02 -0.13421205060E+01  0.46697809711E+02  0.24999216048E+00 0.  0.
    1000022    2    1    0    0    0 -0.39080150041E+02  0.47534777499E+02  0.44086655816E+01  0.62500001339E+02  0.10000031801E+02 0.  0.
    3000022    2    5    5    0    0 -0.14991163738E+02  0.23820504159E+02 -0.14265774305E+01  0.28182424469E+02  0.25003440833E+00 0.  0.
        -13    1    4    4    0    0  0.93962323376E+01 -0.13606561538E+02 -0.48216173219E+00  0.16543010728E+02  0.10500000000E+00 0. -1.
         13    1    4    4    0    0  0.17259814580E+02 -0.24711538767E+02 -0.85995877378E+00  0.30154798982E+02  0.10500000000E+00 0.  1.
    3000001    1    5    5    0    0 -0.24088986304E+02  0.23714273340E+02  0.58352430121E+01  0.34317576869E+02  0.10000000000E+01 0. -1.
        -13    1    6    6    0    0 -0.42771325834E+01  0.68048262638E+01 -0.44880289682E+00  0.80505883422E+01  0.10500000000E+00 0.  1.
         13    1    6    6    0    0 -0.10714031154E+02  0.17015677895E+02 -0.97777453370E+00  0.20131836127E+02  0.10500000000E+00 0. -1.
</event>
<event>
11    0  0.3485800E-009  0.9118800E+02  0.7816531E-02  0.1126479E+00
         25   -1    0    0    0    0  0.00000000000E+00  0.00000000000E+00  0.99999998245E-14  0.12500000000E+03  0.12500000000E+03 0.  0.
    3000001    1    3    3    0    0 -0.13633188072E+02  0.42216910297E+01 -0.31775385817E+01  0.14655485103E+02  0.10000000000E+01 0. -1.
    1000022    2    1    0    0    0 -0.56307722113E+02  0.45052186755E+01 -0.24807130456E+02  0.62500004159E+02  0.10000011681E+02 0.  0.
    3000022    2    3    3    0    0 -0.42674534041E+02  0.28352764581E+00 -0.21629591874E+02  0.47844519056E+02  0.25003118032E+00 0.  0.
    1000022    2    1    0    0    0  0.56307722113E+02 -0.45052186755E+01  0.24807130456E+02  0.62499995841E+02  0.99999596898E+01 0.  0.
    3000022    2    5    5    0    0  0.22062284159E+02  0.24099861815E+01  0.12322328839E+02  0.25386112316E+02  0.24998962208E+00 0.  0.
        -13    1    4    4    0    0 -0.28200351084E+02  0.23265969104E+00 -0.14327666335E+02  0.31632372333E+02  0.10500000000E+00 0.  1.
         13    1    4    4    0    0 -0.14474182957E+02  0.50867954771E-01 -0.73019255387E+01  0.16212146723E+02  0.10500000000E+00 0. -1.
    3000001    1    5    5    0    0  0.34245437954E+02 -0.69152048570E+01  0.12484801617E+02  0.37113883524E+02  0.10000000000E+01 0.  1.
        -13    1    6    6    0    0  0.13446763379E+02  0.14913145342E+01  0.75777320469E+01  0.15507176158E+02  0.10500000000E+00 0.  1.
         13    1    6    6    0    0  0.86155207798E+01  0.91867164736E+00  0.47445967916E+01  0.98789361582E+01  0.10500000000E+00 0. -1.
</event>
<event>
11    0  0.3485800E-009  0.9118800E+02  0.7816531E-02  0.1126479E+00
         25   -1    0    0    0    0  0.00000000000E+00  0.00000000000E+00  0.99999998245E-14  0.12500000000E+03  0.12500000000E+03 0.  0.
    3000001    1    3    3    0    0 -0.94302462693E+01 -0.11886819077E+02  0.17919362762E+01  0.15311337240E+02  0.10000000000E+01 0.  1.
    1000022    2    1    0    0    0 -0.43056456934E+02 -0.43373356614E+02 -0.84346620902E+01  0.62500000123E+02  0.99999971524E+01 0.  0.
    3000022    2    3    3    0    0 -0.33626210665E+02 -0.31486537537E+02 -0.10226598366E+02  0.47188662882E+02  0.25000142600E+00 0.  0.
    1000022    2    1    0    0    0  0.43056456934E+02  0.43373356614E+02  0.84346620902E+01  0.62499999877E+02  0.99999956210E+01 0.  0.
    3000022    2    5    5    0    0  0.12219416451E+02  0.14174450523E+02  0.70443288854E+01  0.19997856295E+02  0.25000185457E+00 0.  0.
        -13    1    4    4    0    0 -0.21530949554E+02 -0.20138923099E+02 -0.66019372478E+01  0.30211829020E+02  0.10500000000E+00 0. -1.
         13    1    4    4    0    0 -0.12095261111E+02 -0.11347614438E+02 -0.36246611186E+01  0.16976833862E+02  0.10500000000E+00 0.  1.
    3000001    1    5    5    0    0  0.30837040483E+02  0.29198906091E+02  0.13903332048E+01  0.42502143582E+02  0.10000000000E+01 0. -1.
        -13    1    6    6    0    0  0.82591706207E+01  0.95252860127E+01  0.47854601976E+01  0.13485422769E+02  0.10500000000E+00 0.  1.
         13    1    6    6    0    0  0.39602458307E+01  0.46491645102E+01  0.22588686877E+01  0.65124335260E+01  0.10500000000E+00 0. -1.
</event>
<event>
11    0  0.3485800E-009  0.9118800E+02  0.7816531E-02  0.1126479E+00
         25   -1    0    0    0    0  0.00000000000E+00  0.00000000000E+00  0.99999998245E-14  0.12500000000E+03  0.12500000000E+03 0.  0.
    3000001    1    3    3    0    0  0.18095770082E+02 -0.85446300079E+01  0.32785703970E+02  0.38423560241E+02  0.10000000000E+01 0.  1.
    1000022    2    1    0    0    0  0.22788874967E+02 -0.17909823112E+02  0.54462424662E+02  0.62499996749E+02  0.99999653657E+01 0.  0.
    3000022    2    3    3    0    0  0.46931048857E+01 -0.93651931043E+01  0.21676720692E+02  0.24076436507E+02  0.24999914165E+00 0.  0.
    1000022    2    1    0    0    0 -0.22788874967E+02  0.17909823112E+02 -0.54462424662E+02  0.62500003251E+02  0.10000006008E+02 0.  0.
    3000022    2    5    5    0    0 -0.17201590286E+02  0.99080905283E+01 -0.28388427027E+02  0.34641452910E+02  0.25000870926E+00 0.  0.
        -13    1    4    4    0    0  0.17450282990E+01 -0.35725694627E+01  0.81244265082E+01  0.90457563209E+01  0.10500000000E+00 0.  1.
         13    1    4    4    0    0  0.29480765867E+01 -0.57926236416E+01  0.13552294184E+02  0.15030680187E+02  0.10500000000E+00 0. -1.
    3000001    1    5    5    0    0 -0.55872846815E+01  0.80017325839E+01 -0.26073997635E+02  0.27858550342E+02  0.10000000000E+01 0.  1.
        -13    1    6    6    0    0 -0.11961312358E+02  0.68669821807E+01 -0.19798007233E+02  0.24128832400E+02  0.10500000000E+00 0.  1.
         13    1    6    6    0    0 -0.52402779278E+01  0.30411083476E+01 -0.85904197937E+01  0.10512620509E+02  0.10500000000E+00 0. -1.
</event>
<event>
11    0  0.3485800E-009  0.9118800E+02  0.7816531E-02  0.1126479E+00
         25   -1    0    0    0    0  0.00000000000E+00  0.00000000000E+00  0.99999998245E-14  0.12500000000E+03  0.12500000000E+03 0.  0.
    3000001    1    3    3    0    0 -0.19187628938E+01  0.47124267817E+02 -0.16080045830E+02  0.49839202865E+02  0.10000000000E+01 0. -1.
    1000022    2    1    0    0    0 -0.69369865284E+01  0.57423748434E+02 -0.21462555955E+02  0.62499999923E+02  0.10000000798E+02 0.  0.
    3000022    2    3    3    0    0 -0.50182236346E+01  0.10299480617E+02 -0.53825101251E+01  0.12660797058E+02  0.24999494829E+00 0.  0.
    1000022    2    1    0    0    0  0.69369865284E+01 -0.57423748434E+02  0.21462555955E+02  0.62500000077E+02  0.10000001758E+02 0.  0.
    3000022    2    5    5    0    0  0.80593626818E+01 -0.26818797104E+02  0.11572821070E+02  0.30301713939E+02  0.24995030525E+00 0.  0.
        -13    1    4    4    0    0 -0.23622987430E+01  0.46974406044E+01 -0.24822648166E+01  0.58154163396E+01  0.10500000000E+00 0.  1.
         13    1    4    4    0    0 -0.26559248916E+01  0.56020400129E+01 -0.29002453084E+01  0.68453807188E+01  0.10500000000E+00 0. -1.
    3000001    1    5    5    0    0 -0.11223761534E+01 -0.30604951330E+02  0.98897348846E+01  0.32198286138E+02  0.10000000000E+01 0.  1.
        -13    1    6    6    0    0  0.32707840747E+01 -0.10710136720E+02  0.45865556620E+01  0.12101759164E+02  0.10500000000E+00 0.  1.
         13    1    6    6    0    0  0.47885786071E+01 -0.16108660384E+02  0.69862654081E+01  0.18199954775E+02  0.10500000000E+00 0. -1.
</event>
<event>
11    0  0.3485800E-009  0.9118800E+02  0.7816531E-02  0.1126479E+00
         25   -1    0    0    0    0  0.00000000000E+00  0.00000000000E+00  0.99999998245E-14  0.12500000000E+03  0.12500000000E+03 0.  0.
    3000001    1    3    3    0    0  0.22292732460E+02  0.13299922506E+02 -0.34586056774E+01  0.26207171011E+02  0.10000000000E+01 0.  1.
    1000022    2    1    0    0    0  0.48209715050E+02  0.33725091744E+02 -0.18565871106E+02  0.62500000572E+02  0.10000003159E+02 0.  0.
    3000022    2    3    3    0    0  0.25916982590E+02  0.20425169238E+02 -0.15107265428E+02  0.36292829560E+02  0.24996754600E+00 0.  0.
    1000022    2    1    0    0    0 -0.48209715050E+02 -0.33725091744E+02  0.18565871106E+02  0.62499999428E+02  0.99999960135E+01 0.  0.
    3000022    2    5    5    0    0 -0.18023333538E+02 -0.13849785927E+02  0.12165072551E+02  0.25781943485E+02  0.24999529218E+00 0.  0.
        -13    1    4    4    0    0  0.19361307653E+02  0.15249042107E+02 -0.11312702926E+02  0.27117923809E+02  0.10500000000E+00 0.  1.
         13    1    4    4    0    0  0.65556749373E+01  0.51761271319E+01 -0.37945625025E+01  0.91749057518E+01  0.10500000000E+00 0. -1.
    3000001    1    5    5    0    0 -0.30186381512E+02 -0.19875305818E+02  0.64007985545E+01  0.36718055944E+02  0.10000000000E+01 0. -1.
        -13    1    6    6    0    0 -0.10731269915E+02 -0.81784516933E+01  0.71823475313E+01  0.15285429897E+02  0.10500000000E+00 0. -1.
         13    1    6    6    0    0 -0.72920636229E+01 -0.56713342334E+01  0.49827250198E+01  0.10496513587E+02  0.10500000000E+00 0.  1.
</event>
<event>
11    0  0.3485800E-009  0.9118800E+02  0.7816531E-02  0.1126479E+00
         25   -1    0    0    0    0  0.00000000000E+00  0.00000000000E+00  0.99999998245E-14  0.12500000000E+03  0.12500000000E+03 0.  0.
    3000001    1    3    3    0    0 -0.68782590850E+01  0.97511130650E+01 -0.85621917834E+01  0.14720930072E+02  0.10000000000E+01 0. -1.
    1000022    2    1    0    0    0 -0.42853956047E+02  0.31470400007E+02 -0.31295403276E+02  0.62500000807E+02  0.10000010460E+02 0.  0.
    3000022    2    3    3    0    0 -0.35975696962E+02  0.21719286942E+02 -0.22733211493E+02  0.47779070735E+02  0.24999675145E+00 0.  0.
    1000022    2    1    0    0    0  0.42853956047E+02 -0.31470400007E+02  0.31295403276E+02  0.62499999193E+02  0.10000000373E+02 0.  0.
    3000022    2    5    5    0    0  0.15297481469E+00 -0.18356392524E+00 -0.59768078043E+00  0.69054424627E+00  0.25006405617E+00 0.  0.
        -13    1    4    4    0    0 -0.22848578889E+02  0.13784257765E+02 -0.14369059444E+02  0.30307494349E+02  0.10500000000E+00 0.  1.
         13    1    4    4    0    0 -0.13127118073E+02  0.79350291766E+01 -0.83641520484E+01  0.17471576386E+02  0.10500000000E+00 0. -1.
    3000001    1    5    5    0    0  0.42700981232E+02 -0.31286836082E+02  0.31893084057E+02  0.61809454947E+02  0.10000000000E+01 0.  1.
        -13    1    6    6    0    0  0.10089292187E+00 -0.16269130056E+00 -0.45532123061E+00  0.50496560676E+00  0.10500000000E+00 0. -1.
         13    1    6    6    0    0  0.52081892817E-01 -0.20872624684E-01 -0.14235954982E+00  0.18557863952E+00  0.10500000000E+00 0.  1.
</event>
<event>
11    0  0.3485800E-009  0.9118800E+02  0.7816531E-02  0.1126479E+00
         25   -1    0    0    0    0  0.00000000000E+00  0.00000000000E+00  0.99999998245E-14  0.12500000000E+03  0.12500000000E+03 0.  0.
    3000001    1    3    3    0    0  0.23391223519E+02  0.44074186822E+02  0.15860000150E+02  0.52366238040E+02  0.10000000000E+01 0. -1.
    1000022    2    1    0    0    0  0.30332417893E+02  0.51443643179E+02  0.15483732741E+02  0.62500000391E+02  0.10000003524E+02 0.  0.
    3000022    2    3    3    0    0  0.69411943735E+01  0.73694563576E+01 -0.37626740925E+00  0.10133762351E+02  0.24999175289E+00 0.  0.
    1000022    2    1    0    0    0 -0.30332417893E+02 -0.51443643179E+02 -0.15483732741E+02  0.62499999609E+02  0.99999986396E+01 0.  0.
    3000022    2    5    5    0    0 -0.23685967402E+01 -0.50678750995E+00 -0.61693590981E+00  0.25119990846E+01  0.24989074922E+00 0.  0.
        -13    1    4    4    0    0  0.35492853486E+01  0.38078029924E+01 -0.13136014374E+00  0.52081734420E+01  0.10500000000E+00 0. -1.
         13    1    4    4    0    0  0.33919090249E+01  0.35616533652E+01 -0.24490726551E+00  0.49255889085E+01  0.10500000000E+00 0.  1.
    3000001    1    5    5    0    0 -0.27963821153E+02 -0.50936855669E+02 -0.14866796831E+02  0.59988000525E+02  0.10000000000E+01 0. -1.
        -13    1    6    6    0    0 -0.13973503747E+01 -0.23852782007E+00 -0.38645815807E+00  0.14730439568E+01  0.10500000000E+00 0. -1.
         13    1    6    6    0    0 -0.97124636545E+00 -0.26825968988E+00 -0.23047775174E+00  0.10389551278E+01  0.10500000000E+00 0.  1.
</event>
<event>
11    0  0.3485800E-009  0.9118800E+02  0.7816531E-02  0.1126479E+00
         25   -1    0    0    0    0  0.00000000000E+00  0.00000000000E+00  0.99999998245E-14  0.12500000000E+03  0.12500000000E+03 0.  0.
    3000001    1    3    3    0    0 -0.45401986758E+02  0.17735016267E+01  0.49734498577E+01  0.45718933858E+02  0.10000000000E+01 0.  1.
    1000022    2    1    0    0    0 -0.60952470123E+02 -0.30371156757E+01  0.90455667588E+01  0.62500000191E+02  0.10000003009E+02 0.  0.
    3000022    2    3    3    0    0 -0.15550483365E+02 -0.48106173024E+01  0.40721169011E+01  0.16781066333E+02  0.24995902428E+00 0.  0.
    1000022    2    1    0    0    0  0.60952470123E+02  0.30371156757E+01 -0.90455667588E+01  0.62499999809E+02  0.10000000622E+02 0.  0.
    3000022    2    5    5    0    0  0.41652148297E+02  0.65798743833E+01 -0.53532878241E+01  0.42507839206E+02  0.24999758712E+00 0.  0.
        -13    1    4    4    0    0 -0.69253250660E+01 -0.21514659578E+01  0.17463571697E+01  0.74598740875E+01  0.10500000000E+00 0.  1.
         13    1    4    4    0    0 -0.86251582990E+01 -0.26591513446E+01  0.23257597314E+01  0.93211922458E+01  0.10500000000E+00 0. -1.
    3000001    1    5    5    0    0  0.19300321826E+02 -0.35427587076E+01 -0.36922789347E+01  0.19992160603E+02  0.10000000000E+01 0. -1.
        -13    1    6    6    0    0  0.12072909112E+02  0.18655139037E+01 -0.15628673306E+01  0.12316202980E+02  0.10500000000E+00 0. -1.
         13    1    6    6    0    0  0.29579239185E+02  0.47143604796E+01 -0.37904204934E+01  0.30191636226E+02  0.10500000000E+00 0.  1.
</event>
<event>
11    0  0.3485800E-009  0.9118800E+02  0.7816531E-02  0.1126479E+00
         25   -1    0    0    0    0  0.00000000000E+00  0.00000000000E+00  0.99999998245E-14  0.12500000000E+03  0.12500000000E+03 0.  0.
    3000001    1    3    3    0    0 -0.98220059462E-01  0.40816510076E+00 -0.45779054746E+01  0.47046216069E+01  0.10000000000E+01 0. -1.
    1000022    2    1    0    0    0 -0.27413179588E+02 -0.12826705995E+02 -0.53760979470E+02  0.62500002833E+02  0.10000031938E+02 0.  0.
    3000022    2    3    3    0    0 -0.27314959529E+02 -0.13234871096E+02 -0.49183073995E+02  0.57795381226E+02  0.24999295604E+00 0.  0.
    1000022    2    1    0    0    0  0.27413179588E+02  0.12826705995E+02  0.53760979470E+02  0.62499997167E+02  0.99999965281E+01 0.  0.
    3000022    2    5    5    0    0  0.25539665765E+02  0.12127536214E+02  0.42679749241E+02  0.51195460210E+02  0.24997772019E+00 0.  0.
        -13    1    4    4    0    0 -0.15579958555E+02 -0.75132445732E+01 -0.28136448236E+02  0.33028089514E+02  0.10500000000E+00 0.  1.
         13    1    4    4    0    0 -0.11735000974E+02 -0.57216265228E+01 -0.21046625759E+02  0.24767291712E+02  0.10500000000E+00 0. -1.
    3000001    1    5    5    0    0  0.18735138226E+01  0.69916978136E+00  0.11081230229E+02  0.11304536957E+02  0.10000000000E+01 0.  1.
        -13    1    6    6    0    0  0.11577938417E+02  0.54362307403E+01  0.19375217242E+02  0.23216617558E+02  0.10500000000E+00 0.  1.
         13    1    6    6    0    0  0.13961727349E+02  0.66913054735E+01  0.23304531998E+02  0.27978842652E+02  0.10500000000E+00 0. -1.
</event>
<event>
11    0  0.3485800E-009  0.9118800E+02  0.7816531E-02  0.1126479E+00
         25   -1    0    0    0    0  0.00000000000E+00  0.00000000000E+00  0.99999998245E-14  0.12500000000E+03  0.12500000000E+03 0.  0.
    3000001    1    3    3    0    0  0.34460581737E+02  0.10934061499E+02  0.26987634897E+02  0.45126686471E+02  0.10000000000E+01 0. -1.
    1000022    2    1    0    0    0  0.47942255038E+02  0.19825047824E+02  0.33387984628E+02  0.62500001708E+02  0.10000017837E+02 0.  0.
    3000022    2    3    3    0    0  0.13481673300E+02  0.88909863253E+01  0.64003497309E+01  0.17373315237E+02  0.24990567508E+00 0.  0.
    1000022    2    1    0    0    0 -0.47942255038E+02 -0.19825047824E+02 -0.33387984628E+02  0.62499998292E+02  0.99999964835E+01 0.  0.
    3000022    2    5    5    0    0 -0.40722856272E+02 -0.19303148175E+02 -0.25640683989E+02  0.51850455346E+02  0.24998337740E+00 0.  0.
        -13    1    4    4    0    0  0.85252518243E+01  0.55678938023E+01  0.39941097148E+01  0.10938249287E+02  0.10500000000E+00 0.  1.
         13    1    4    4    0    0  0.49564214757E+01  0.33230925231E+01  0.24062400161E+01  0.64350659497E+01  0.10500000000E+00 0. -1.
    3000001    1    5    5    0    0 -0.72193987651E+01 -0.52189964909E+00 -0.77473006389E+01  0.10649542946E+02  0.10000000000E+01 0.  1.
        -13    1    6    6    0    0 -0.17010075377E+02 -0.80522793070E+01 -0.10781144613E+02  0.21689305442E+02  0.10500000000E+00 0.  1.
         13    1    6    6    0    0 -0.23712780895E+02 -0.11250868868E+02 -0.14859539375E+02  0.30161149904E+02  0.10500000000E+00 0. -1.
</event>
<event>
11    0  0.3485800E-009  0.9118800E+02  0.7816531E-02  0.1126479E+00
         25   -1    0    0    0    0  0.00000000000E+00  0.00000000000E+00  0.99999998245E-14  0.12500000000E+03  0.12500000000E+03 0.  0.
    3000001    1    3    3    0    0 -0.21199087139E+02 -0.42539635036E+02  0.35573913942E+02  0.59376133233E+02  0.10000000000E+01 0.  1.
    1000022    2    1    0    0    0 -0.23773691070E+02 -0.44278426104E+02  0.35783832580E+02  0.62499999634E+02  0.99999937430E+01 0.  0.
    3000022    2    3    3    0    0 -0.25746039305E+01 -0.17387910678E+01  0.20991863762E+00  0.31238664012E+01  0.24999136304E+00 0.  0.
    1000022    2    1    0    0    0  0.23773691070E+02  0.44278426104E+02 -0.35783832580E+02  0.62500000366E+02  0.99999983145E+01 0.  0.
    3000022    2    5    5    0    0  0.17745293609E+02  0.37990302998E+02 -0.25890030382E+02  0.49279962920E+02  0.25001011794E+00 0.  0.
        -13    1    4    4    0    0 -0.10387213202E+01 -0.72957040525E+00  0.14549596534E+00  0.12819551604E+01  0.10500000000E+00 0. -1.
         13    1    4    4    0    0 -0.15358826103E+01 -0.10092206626E+01  0.64422672275E-01  0.18419112408E+01  0.10500000000E+00 0.  1.
    3000001    1    5    5    0    0  0.60283974611E+01  0.62881231062E+01 -0.98938021977E+01  0.13220037446E+02  0.10000000000E+01 0. -1.
        -13    1    6    6    0    0  0.10262337197E+02  0.21968345351E+02 -0.15047709774E+02  0.28537139952E+02  0.10500000000E+00 0. -1.
         13    1    6    6    0    0  0.74829564124E+01  0.16021957646E+02 -0.10842320608E+02  0.20742822968E+02  0.10500000000E+00 0.  1.
</event>
<event>
11    0  0.3485800E-009  0.9118800E+02  0.7816531E-02  0.1126479E+00
         25   -1    0    0    0    0  0.00000000000E+00  0.00000000000E+00  0.99999998245E-14  0.12500000000E+03  0.12500000000E+03 0.  0.
    3000001    1    3    3    0    0 -0.31882421163E+01  0.12684281315E+02 -0.17283858300E+01  0.13230389179E+02  0.10000000000E+01 0.  1.
    1000022    2    1    0    0    0 -0.25784646303E+02  0.51821352326E+02 -0.21352969782E+02  0.62499999944E+02  0.10000006635E+02 0.  0.
    3000022    2    3    3    0    0 -0.22596404186E+02  0.39137071011E+02 -0.19624583952E+02  0.49269610765E+02  0.24988028087E+00 0.  0.
    1000022    2    1    0    0    0  0.25784646303E+02 -0.51821352326E+02  0.21352969782E+02  0.62500000056E+02  0.10000007332E+02 0.  0.
    3000022    2    5    5    0    0  0.18851363917E+02 -0.29418637523E+02  0.95268811772E+01  0.36216765726E+02  0.24999879638E+00 0.  0.
        -13    1    4    4    0    0 -0.10577556799E+02  0.18383184377E+02 -0.91451984193E+01  0.23097009651E+02  0.10500000000E+00 0. -1.
         13    1    4    4    0    0 -0.12018847387E+02  0.20753886634E+02 -0.10479385533E+02  0.26172601114E+02  0.10500000000E+00 0.  1.
    3000001    1    5    5    0    0  0.69332823853E+01 -0.22402714802E+02  0.11826088605E+02  0.26283234330E+02  0.10000000000E+01 0. -1.
        -13    1    6    6    0    0  0.74477058476E+01 -0.11719290460E+02  0.37498975271E+01  0.14383422672E+02  0.10500000000E+00 0.  1.
         13    1    6    6    0    0  0.11403658070E+02 -0.17699347063E+02  0.57769836501E+01  0.21833343054E+02  0.10500000000E+00 0. -1.
</event>
<event>
11    0  0.3485800E-009  0.9118800E+02  0.7816531E-02  0.1126479E+00
         25   -1    0    0    0    0  0.00000000000E+00  0.00000000000E+00  0.99999998245E-14  0.12500000000E+03  0.12500000000E+03 0.  0.
    3000001    1    3    3    0    0 -0.43430004272E+01 -0.38915039303E+01  0.19306550750E+00  0.59196900122E+01  0.10000000000E+01 0.  1.
    1000022    2    1    0    0    0 -0.50669976032E+02 -0.26694311311E+02 -0.22939429183E+02  0.62500000186E+02  0.99999942272E+01 0.  0.
    3000022    2    3    3    0    0 -0.46326975605E+02 -0.22802807380E+02 -0.23132494691E+02  0.56580310174E+02  0.24999123187E+00 0.  0.
    1000022    2    1    0    0    0  0.50669976032E+02  0.26694311311E+02  0.22939429183E+02  0.62499999814E+02  0.99999919040E+01 0.  0.
    3000022    2    5    5    0    0  0.50145537443E+02  0.26409579243E+02  0.23304330611E+02  0.61279646900E+02  0.24999530299E+00 0.  0.
        -13    1    4    4    0    0 -0.11530561640E+02 -0.56478435978E+01 -0.57457584402E+01  0.14066867245E+02  0.10500000000E+00 0. -1.
         13    1    4    4    0    0 -0.34796413965E+02 -0.17154963783E+02 -0.17386736251E+02  0.42513442929E+02  0.10500000000E+00 0.  1.
    3000001    1    5    5    0    0  0.52443858900E+00  0.28473206736E+00 -0.36490142797E+00  0.12203529145E+01  0.10000000000E+01 0. -1.
        -13    1    6    6    0    0  0.24088223707E+02  0.12673428050E+02  0.11120067346E+02  0.29402809775E+02  0.10500000000E+00 0. -1.
         13    1    6    6    0    0  0.26057313736E+02  0.13736151193E+02  0.12184263266E+02  0.31876837125E+02  0.10500000000E+00 0.  1.
</event>
<event>
11    0  0.3485800E-009  0.9118800E+02  0.7816531E-02  0.1126479E+00
         25   -1    0    0    0    0  0.00000000000E+00  0.00000000000E+00  0.99999998245E-14  0.12500000000E+03  0.12500000000E+03 0.  0.
    3000001    1    3    3    0    0 -0.14065800802E+02  0.88581488209E+01  0.37692650494E+01  0.17073983476E+02  0.10000000000E+01 0.  1.
    1000022    2    1    0    0    0 -0.43458486014E+02  0.34042378141E+02  0.27544990121E+02  0.62499999657E+02  0.99999980102E+01 0.  0.
    3000022    2    3    3    0    0 -0.29392685212E+02  0.25184229321E+02  0.23775725072E+02  0.45426016181E+02  0.24998586272E+00 0.  0.
    1000022    2    1    0    0    0  0.43458486014E+02 -0.34042378141E+02 -0.27544990121E+02  0.62500000343E+02  0.10000002301E+02 0.  0.
    3000022    2    5    5    0    0  0.13574577117E+02 -0.16476331993E+02 -0.12069250842E+02  0.24524844064E+02  0.25000120473E+00 0.  0.
        -13    1    4    4    0    0 -0.18470825374E+02  0.15811959248E+02  0.15004218606E+02  0.28571437595E+02  0.10500000000E+00 0. -1.
         13    1    4    4    0    0 -0.10921859838E+02  0.93722700725E+01  0.87715064661E+01  0.16854578586E+02  0.10500000000E+00 0.  1.
    3000001    1    5    5    0    0  0.29883908897E+02 -0.17566046148E+02 -0.15475739279E+02  0.37975156280E+02  0.10000000000E+01 0.  1.
        -13    1    6    6    0    0  0.48081561674E+01 -0.59078475612E+01 -0.43468472188E+01  0.87708114950E+01  0.10500000000E+00 0.  1.
         13    1    6    6    0    0  0.87664209494E+01 -0.10568484432E+02 -0.77224036237E+01  0.15754032569E+02  0.10500000000E+00 0. -1.
</event>
<event>
11    0  0.3485800E-009  0.9118800E+02  0.7816531E-02  0.1126479E+00
         25   -1    0    0    0    0  0.00000000000E+00  0.00000000000E+00  0.99999998245E-14  0.12500000000E+03  0.12500000000E+03 0.  0.
    3000001    1    3    3    0    0 -0.32701806569E+02  0.11718230936E+02  0.36609302258E+02  0.50477382073E+02  0.10000000000E+01 0.  1.
    1000022    2    1    0    0    0 -0.36409382084E+02  0.13834977981E+02  0.47845587819E+02  0.62499999897E+02  0.99999996954E+01 0.  0.
    3000022    2    3    3    0    0 -0.37075755151E+01  0.21167470450E+01  0.11236285560E+02  0.12022617823E+02  0.24998376223E+00 0.  0.
    1000022    2    1    0    0    0  0.36409382084E+02 -0.13834977981E+02 -0.47845587819E+02  0.62500000103E+02  0.10000000988E+02 0.  0.
    3000022    2    5    5    0    0  0.15600023621E+02 -0.59857012247E+01 -0.13098548924E+02  0.21232612772E+02  0.25001015453E+00 0.  0.
        -13    1    4    4    0    0 -0.13305491658E+01  0.82379792127E+00  0.41761289173E+01  0.44609507766E+01  0.10500000000E+00 0.  1.
         13    1    4    4    0    0 -0.23770263493E+01  0.12929491238E+01  0.70601566430E+01  0.75616670467E+01  0.10500000000E+00 0. -1.
    3000001    1    5    5    0    0  0.20809358463E+02 -0.78492767562E+01 -0.34747038894E+02  0.41267387331E+02  0.10000000000E+01 0.  1.
        -13    1    6    6    0    0  0.93541858026E+01 -0.36283308088E+01 -0.77997153378E+01  0.12708743480E+02  0.10500000000E+00 0. -1.
         13    1    6    6    0    0  0.62458378186E+01 -0.23573704159E+01 -0.52988335864E+01  0.85238692922E+01  0.10500000000E+00 0.  1.
</event>
<event>
11    0  0.3485800E-009  0.9118800E+02  0.7816531E-02  0.1126479E+00
         25   -1    0    0    0    0  0.00000000000E+00  0.00000000000E+00  0.99999998245E-14  0.12500000000E+03  0.12500000000E+03 0.  0.
    3000001    1    3    3    0    0  0.41184828183E+00  0.23560004509E+02  0.36819179167E+02  0.43725225969E+02  0.10000000000E+01 0.  1.
    1000022    2    1    0    0    0 -0.51119601004E+01  0.35570158277E+02  0.50148597211E+02  0.62499999938E+02  0.99999947056E+01 0.  0.
    3000022    2    3    3    0    0 -0.55238083823E+01  0.12010153768E+02  0.13329418044E+02  0.18774773969E+02  0.24999928039E+00 0.  0.
    1000022    2    1    0    0    0  0.51119601004E+01 -0.35570158277E+02 -0.50148597211E+02  0.62500000062E+02  0.99999954843E+01 0.  0.
    3000022    2    5    5    0    0  0.73733683065E+01 -0.32588635165E+02 -0.44394993356E+02  0.55564049914E+02  0.25001135586E+00 0.  0.
        -13    1    4    4    0    0 -0.39260399210E+01  0.85790222651E+01  0.95657119503E+01  0.13436044158E+02  0.10500000000E+00 0. -1.
         13    1    4    4    0    0 -0.15977684613E+01  0.34311315024E+01  0.37637060933E+01  0.53387298114E+01  0.10500000000E+00 0.  1.
    3000001    1    5    5    0    0 -0.22614082061E+01 -0.29815231114E+01 -0.57536038549E+01  0.69359501482E+01  0.10000000000E+01 0. -1.
        -13    1    6    6    0    0  0.17447470528E+01 -0.76473708029E+01 -0.10419221159E+02  0.13042147715E+02  0.10500000000E+00 0. -1.
         13    1    6    6    0    0  0.56286212537E+01 -0.24941264362E+02 -0.33975772197E+02  0.42521902199E+02  0.10500000000E+00 0.  1.
</event>
<event>
11    0  0.3485800E-009  0.9118800E+02  0.7816531E-02  0.1126479E+00
         25   -1    0    0    0    0  0.00000000000E+00  0.00000000000E+00  0.99999998245E-14  0.12500000000E+03  0.12500000000E+03 0.  0.
    3000001    1    3    3    0    0  0.31319580061E+02  0.25000004608E+02  0.45339862949E+02  0.60519579458E+02  0.10000000000E+01 0.  1.
    1000022    2    1    0    0    0  0.30600546115E+02  0.26173209271E+02  0.46742054732E+02  0.62499999461E+02  0.99999972985E+01 0.  0.
    3000022    2    3    3    0    0 -0.71903394572E+00  0.11732046631E+01  0.14021917829E+01  0.19804200026E+01  0.25000518794E+00 0.  0.
    1000022    2    1    0    0    0 -0.30600546115E+02 -0.26173209271E+02 -0.46742054732E+02  0.62500000539E+02  0.10000004036E+02 0.  0.
    3000022    2    5    5    0    0 -0.19517455800E+02 -0.10213418530E+02 -0.24383488766E+02  0.32861254218E+02  0.25001077389E+00 0.  0.
        -13    1    4    4    0    0 -0.29712975845E+00  0.37709068418E+00  0.48911450554E+00  0.69335523145E+00  0.10500000000E+00 0.  1.
         13    1    4    4    0    0 -0.42190418727E+00  0.79611397890E+00  0.91307727738E+00  0.12870647711E+01  0.10500000000E+00 0. -1.
    3000001    1    5    5    0    0 -0.11083090315E+02 -0.15959790742E+02 -0.22358565966E+02  0.29638746321E+02  0.10000000000E+01 0. -1.
        -13    1    6    6    0    0 -0.89064973653E+01 -0.45912457953E+01 -0.11052534995E+02  0.14918940582E+02  0.10500000000E+00 0.  1.
         13    1    6    6    0    0 -0.10610958435E+02 -0.56221727342E+01 -0.13330953771E+02  0.17942313636E+02  0.10500000000E+00 0. -1.
</event>
<event>
11    0  0.3485800E-009  0.9118800E+02  0.7816531E-02  0.1126479E+00
         25   -1    0    0    0    0  0.00000000000E+00  0.00000000000E+00  0.99999998245E-14  0.12500000000E+03  0.12500000000E+03 0.  0.
    3000001    1    3    3    0    0 -0.22665548274E+02  0.24916953939E+02  0.38614050899E+00  0.33700604989E+02  0.10000000000E+01 0.  1.
    1000022    2    1    0    0    0 -0.34386816838E+02  0.51207616428E+02  0.12554870808E+01  0.62500003158E+02  0.10000049724E+02 0.  0.
    3000022    2    3    3    0    0 -0.11721268564E+02  0.26290662489E+02  0.86934657183E+00  0.28799398169E+02  0.25000112674E+00 0.  0.
    1000022    2    1    0    0    0  0.34386816838E+02 -0.51207616428E+02 -0.12554870808E+01  0.62499996842E+02  0.10000010245E+02 0.  0.
    3000022    2    5    5    0    0  0.29275023650E+02 -0.36878820845E+02  0.94444752985E+00  0.47095954361E+02  0.24999882666E+00 0.  0.
        -13    1    4    4    0    0 -0.42493119188E+01  0.94040811107E+01  0.33759040067E+00  0.10325617928E+02  0.10500000000E+00 0.  1.
         13    1    4    4    0    0 -0.74719566452E+01  0.16886581378E+02  0.53175617115E+00  0.18473780241E+02  0.10500000000E+00 0. -1.
    3000001    1    5    5    0    0  0.51117931885E+01 -0.14328795583E+02 -0.21999346107E+01  0.15404042481E+02  0.10000000000E+01 0.  1.
        -13    1    6    6    0    0  0.12363828523E+02 -0.15476185808E+02  0.41780267854E+00  0.19813181647E+02  0.10500000000E+00 0.  1.
         13    1    6    6    0    0  0.16911195127E+02 -0.21402635037E+02  0.52664485131E+00  0.27282772713E+02  0.10500000000E+00 0. -1.
</event>
<event>
11    0  0.3485800E-009  0.9118800E+02  0.7816531E-02  0.1126479E+00
         25   -1    0    0    0    0  0.00000000000E+00  0.00000000000E+00  0.99999998245E-14  0.12500000000E+03  0.12500000000E+03 0.  0.
    3000001    1    3    3    0    0 -0.10479986749E+02  0.10910675850E+02  0.51255690150E+02  0.53451087383E+02  0.10000000000E+01 0. -1.
    1000022    2    1    0    0    0 -0.91982156750E+01  0.15315548091E+02  0.59051481082E+02  0.62499993424E+02  0.99999287560E+01 0.  0.
    3000022    2    3    3    0    0  0.12817710740E+01  0.44048722417E+01  0.77957909321E+01  0.90489060407E+01  0.25001544767E+00 0.  0.
    1000022    2    1    0    0    0  0.91982156750E+01 -0.15315548091E+02 -0.59051481082E+02  0.62500006576E+02  0.10000010955E+02 0.  0.
    3000022    2    5    5    0    0  0.10697123909E+01  0.65030716750E+00 -0.70858038625E+00  0.14600593172E+01  0.25000606927E+00 0.  0.
        -13    1    4    4    0    0  0.69904529269E+00  0.24033431023E+01  0.41205521139E+01  0.48223124238E+01  0.10500000000E+00 0.  1.
         13    1    4    4    0    0  0.58272578132E+00  0.20015291394E+01  0.36752388181E+01  0.42265936169E+01  0.10500000000E+00 0. -1.
    3000001    1    5    5    0    0  0.81285032841E+01 -0.15965855259E+02 -0.58342900695E+02  0.61039947259E+02  0.10000000000E+01 0. -1.
        -13    1    6    6    0    0  0.67003539951E+00  0.36486216703E+00 -0.37037631616E+00  0.85456155606E+00  0.10500000000E+00 0.  1.
         13    1    6    6    0    0  0.39967699138E+00  0.28544500047E+00 -0.33820407008E+00  0.60549776115E+00  0.10500000000E+00 0. -1.
</event>
<event>
11    0  0.3485800E-009  0.9118800E+02  0.7816531E-02  0.1126479E+00
         25   -1    0    0    0    0  0.00000000000E+00  0.00000000000E+00  0.99999998245E-14  0.12500000000E+03  0.12500000000E+03 0.  0.
    3000001    1    3    3    0    0 -0.14948162258E+02 -0.13946808641E+02 -0.47099121649E+01  0.21003435403E+02  0.10000000000E+01 0.  1.
    1000022    2    1    0    0    0 -0.43235815281E+02 -0.44007954944E+02 -0.46272359519E+00  0.62500000794E+02  0.10000008239E+02 0.  0.
    3000022    2    3    3    0    0 -0.28287653023E+02 -0.30061146303E+02  0.42471885697E+01  0.41496565391E+02  0.24999571313E+00 0.  0.
    1000022    2    1    0    0    0  0.43235815281E+02  0.44007954944E+02  0.46272359519E+00  0.62499999206E+02  0.99999983148E+01 0.  0.
    3000022    2    5    5    0    0  0.50082725155E+01  0.81299789078E+01  0.29716549390E+01  0.10003628600E+02  0.25000292066E+00 0.  0.
        -13    1    4    4    0    0 -0.75569163270E+01 -0.79902871415E+01  0.11523058428E+01  0.11058503820E+02  0.10500000000E+00 0.  1.
         13    1    4    4    0    0 -0.20730736696E+02 -0.22070859162E+02  0.30948827269E+01  0.30438061571E+02  0.10500000000E+00 0. -1.
    3000001    1    5    5    0    0  0.38227542765E+02  0.35877976036E+02 -0.25089313438E+01  0.52496370606E+02  0.10000000000E+01 0. -1.
        -13    1    6    6    0    0  0.20370754004E+01  0.34023663230E+01  0.12765983869E+01  0.41673134300E+01  0.10500000000E+00 0. -1.
         13    1    6    6    0    0  0.29711971151E+01  0.47276125848E+01  0.16950565521E+01  0.58363151700E+01  0.10500000000E+00 0.  1.
</event>
<event>
11    0  0.3485800E-009  0.9118800E+02  0.7816531E-02  0.1126479E+00
         25   -1    0    0    0    0  0.00000000000E+00  0.00000000000E+00  0.99999998245E-14  0.12500000000E+03  0.12500000000E+03 0.  0.
    3000001    1    3    3    0    0  0.11043577194E+01 -0.11961935096E+01 -0.16160435148E+01  0.25024151387E+01  0.10000000000E+01 0. -1.
    1000022    2    1    0    0    0  0.16564431355E+02 -0.58402413199E+02 -0.11001263748E+02  0.62500001022E+02  0.10000003503E+02 0.  0.
    3000022    2    3    3    0    0  0.15460073635E+02 -0.57206219689E+02 -0.93852202328E+01  0.59997585883E+02  0.25000995927E+00 0.  0.
    1000022    2    1    0    0    0 -0.16564431355E+02  0.58402413199E+02  0.11001263748E+02  0.62499998978E+02  0.99999907344E+01 0.  0.
    3000022    2    5    5    0    0 -0.81674832351E+01  0.22040269779E+02 -0.25444063001E+00  0.23507626739E+02  0.25000108151E+00 0.  0.
        -13    1    4    4    0    0  0.52290525389E+01 -0.19155715249E+02 -0.31641486304E+01  0.20107393633E+02  0.10500000000E+00 0. -1.
         13    1    4    4    0    0  0.10231021096E+02 -0.38050504440E+02 -0.62210716024E+01  0.39890192250E+02  0.10500000000E+00 0.  1.
    3000001    1    5    5    0    0 -0.83969481197E+01  0.36362143420E+02  0.11255704378E+02  0.38992372239E+02  0.10000000000E+01 0.  1.
        -13    1    6    6    0    0 -0.59407012930E+01  0.15947865613E+02 -0.20921336835E+00  0.17020021877E+02  0.10500000000E+00 0. -1.
         13    1    6    6    0    0 -0.22267819421E+01  0.60924041665E+01 -0.45227261659E-01  0.64876048624E+01  0.10500000000E+00 0.  1.
</event>
<event>
11    0  0.3485800E-009  0.9118800E+02  0.7816531E-02  0.1126479E+00
         25   -1    0    0    0    0  0.00000000000E+00  0.00000000000E+00  0.99999998245E-14  0.12500000000E+03  0.12500000000E+03 0.  0.
    3000001    1    3    3    0    0 -0.18264086892E+02 -0.21353433567E+02 -0.32273424635E+02  0.42803270118E+02  0.10000000000E+01 0. -1.
    1000022    2    1    0    0    0 -0.20202356972E+02 -0.31745320209E+02 -0.48891199476E+02  0.62499999366E+02  0.99999976079E+01 0.  0.
    3000022    2    3    3    0    0 -0.19382700800E+01 -0.10391886642E+02 -0.16617774841E+02  0.19696729248E+02  0.25000707252E+00 0.  0.
    1000022    2    1    0    0    0  0.20202356972E+02  0.31745320209E+02  0.48891199476E+02  0.62500000634E+02  0.10000005535E+02 0.  0.
    3000022    2    5    5    0    0  0.14263659161E+02  0.28857572617E+02  0.41795536065E+02  0.52755481299E+02  0.25000419778E+00 0.  0.
        -13    1    4    4    0    0 -0.80716044387E+00 -0.41119268132E+01 -0.66786128294E+01  0.78850709841E+01  0.10500000000E+00 0.  1.
         13    1    4    4    0    0 -0.11311096361E+01 -0.62799598290E+01 -0.99391620111E+01  0.11811658264E+02  0.10500000000E+00 0. -1.
    3000001    1    5    5    0    0  0.59386978103E+01  0.28877475921E+01  0.70956634105E+01  0.97445193351E+01  0.10000000000E+01 0.  1.
        -13    1    6    6    0    0  0.82157817307E+01  0.16767850732E+02  0.24238330385E+02  0.30596855598E+02  0.10500000000E+00 0. -1.
         13    1    6    6    0    0  0.60478774305E+01  0.12089721884E+02  0.17557205680E+02  0.22158625701E+02  0.10500000000E+00 0.  1.
</event>
<event>
11    0  0.3485800E-009  0.9118800E+02  0.7816531E-02  0.1126479E+00
         25   -1    0    0    0    0  0.00000000000E+00  0.00000000000E+00  0.99999998245E-14  0.12500000000E+03  0.12500000000E+03 0.  0.
    3000001    1    3    3    0    0  0.88064716650E+01 -0.57760862238E+01  0.26511287827E+01  0.10906218367E+02  0.10000000000E+01 0.  1.
    1000022    2    1    0    0    0  0.43667150618E+02 -0.43543338652E+02 -0.18459367550E+01  0.62500000893E+02  0.10000012252E+02 0.  0.
    3000022    2    3    3    0    0  0.34860678953E+02 -0.37767252428E+02 -0.44970655377E+01  0.51593782526E+02  0.25000760174E+00 0.  0.
    1000022    2    1    0    0    0 -0.43667150618E+02  0.43543338652E+02  0.18459367550E+01  0.62499999107E+02  0.10000001089E+02 0.  0.
    3000022    2    5    5    0    0 -0.19844738441E+01  0.26762214299E+01 -0.21621289986E+01  0.39796487646E+01  0.25000980695E+00 0.  0.
        -13    1    4    4    0    0  0.12759853467E+02 -0.13786604614E+02 -0.15902039683E+01  0.18852694793E+02  0.10500000000E+00 0. -1.
         13    1    4    4    0    0  0.22100825486E+02 -0.23980647814E+02 -0.29068615694E+01  0.32741087733E+02  0.10500000000E+00 0.  1.
    3000001    1    5    5    0    0 -0.41682676774E+02  0.40867117222E+02  0.40080657536E+01  0.58520350342E+02  0.10000000000E+01 0.  1.
        -13    1    6    6    0    0 -0.12998569815E+01  0.18365428842E+01 -0.14401787226E+01  0.26735103685E+01  0.10500000000E+00 0.  1.
         13    1    6    6    0    0 -0.68461686259E+00  0.83967854570E+00 -0.72195027602E+00  0.13061383961E+01  0.10500000000E+00 0. -1.
</event>
<event>
11    0  0.3485800E-009  0.9118800E+02  0.7816531E-02  0.1126479E+00
         25   -1    0    0    0    0  0.00000000000E+00  0.00000000000E+00  0.99999998245E-14  0.12500000000E+03  0.12500000000E+03 0.  0.
    3000001    1    3    3    0    0  0.33568062144E+02  0.12222715010E+02  0.44462977911E+02  0.57045297466E+02  0.10000000000E+01 0. -1.
    1000022    2    1    0    0    0  0.35349159574E+02  0.10769783652E+02  0.49403423304E+02  0.62500003652E+02  0.10000044992E+02 0.  0.
    3000022    2    3    3    0    0  0.17810974299E+01 -0.14529313570E+01  0.49404453940E+01  0.54547061864E+01  0.25000261358E+00 0.  0.
    1000022    2    1    0    0    0 -0.35349159574E+02 -0.10769783652E+02 -0.49403423304E+02  0.62499996348E+02  0.99999993383E+01 0.  0.
    3000022    2    5    5    0    0  0.60766063777E+00  0.14182615953E-01 -0.42645443665E+00  0.78346430250E+00  0.25000065891E+00 0.  0.
        -13    1    4    4    0    0  0.11519104497E+01 -0.90948757220E+00  0.30198131068E+01  0.33592203751E+01  0.10500000000E+00 0. -1.
         13    1    4    4    0    0  0.62918698012E+00 -0.54344378481E+00  0.19206322871E+01  0.20954858114E+01  0.10500000000E+00 0.  1.
    3000001    1    5    5    0    0 -0.35956820212E+02 -0.10783966268E+02 -0.48976968868E+02  0.61716532045E+02  0.10000000000E+01 0. -1.
        -13    1    6    6    0    0  0.30600656372E+00 -0.43751528036E-01 -0.26728071827E+00  0.42192202550E+00  0.10500000000E+00 0. -1.
         13    1    6    6    0    0  0.30165407406E+00  0.57934143988E-01 -0.15917371839E+00  0.36154227700E+00  0.10500000000E+00 0. -1.
</event>
<event>
11    0  0.3485800E-009  0.9118800E+02  0.7816531E-02  0.1126479E+00
         25   -1    0    0    0    0  0.00000000000E+00  0.00000000000E+00  0.99999998245E-14  0.12500000000E+03  0.12500000000E+03 0.  0.
    3000001    1    3    3    0    0  0.22807786527E+02 -0.76170557061E+01 -0.11851101030E+02  0.26826540208E+02  0.10000000000E+01 0.  1.
    1000022    2    1    0    0    0  0.55875831934E+02 -0.69527090691E+01 -0.25215096309E+02  0.62500001692E+02  0.10000018591E+02 0.  0.
    3000022    2    3    3    0    0  0.33068045407E+02  0.66434663701E+00 -0.13363995279E+02  0.35673461484E+02  0.25000181977E+00 0.  0.
    1000022    2    1    0    0    0 -0.55875831934E+02  0.69527090691E+01  0.25215096309E+02  0.62499998308E+02  0.99999974468E+01 0.  0.
    3000022    2    5    5    0    0 -0.28526096730E+02 -0.80297857918E+00  0.15262728031E+02  0.32363503141E+02  0.24999870914E+00 0.  0.
        -13    1    4    4    0    0  0.10428133115E+02  0.25439298106E+00 -0.42379197616E+01  0.11259736451E+02  0.10500000000E+00 0. -1.
         13    1    4    4    0    0  0.22639912293E+02  0.40995365595E+00 -0.91260755170E+01  0.24413725033E+02  0.10500000000E+00 0.  1.
    3000001    1    5    5    0    0 -0.27349735204E+02  0.77556876483E+01  0.99523682778E+01  0.30136495167E+02  0.10000000000E+01 0. -1.
        -13    1    6    6    0    0 -0.12573806411E+02 -0.41999511756E+00  0.67338306660E+01  0.14269986124E+02  0.10500000000E+00 0.  1.
         13    1    6    6    0    0 -0.15952290320E+02 -0.38298346162E+00  0.85288973650E+01  0.18093517017E+02  0.10500000000E+00 0. -1.
</event>
<event>
11    0  0.3485800E-009  0.9118800E+02  0.7816531E-02  0.1126479E+00
         25   -1    0    0    0    0  0.00000000000E+00  0.00000000000E+00  0.99999998245E-14  0.12500000000E+03  0.12500000000E+03 0.  0.
    3000001    1    3    3    0    0  0.22003144655E+02 -0.26754815722E+02 -0.70125473251E+01  0.35357239131E+02  0.10000000000E+01 0.  1.
    1000022    2    1    0    0    0  0.44018584718E+02 -0.40666273058E+02 -0.14658384381E+02  0.62500002096E+02  0.10000023222E+02 0.  0.
    3000022    2    3    3    0    0  0.22015440063E+02 -0.13911457336E+02 -0.76458370559E+01  0.27142762965E+02  0.25002143965E+00 0.  0.
    1000022    2    1    0    0    0 -0.44018584718E+02  0.40666273058E+02  0.14658384381E+02  0.62499997904E+02  0.99999970166E+01 0.  0.
    3000022    2    5    5    0    0 -0.28195537263E+02  0.19380444506E+02  0.81473849657E+01  0.35171469929E+02  0.24992871749E+00 0.  0.
        -13    1    4    4    0    0  0.10634338635E+02 -0.67480332097E+01 -0.37637315813E+01  0.13145410257E+02  0.10500000000E+00 0. -1.
         13    1    4    4    0    0  0.11381101428E+02 -0.71634241263E+01 -0.38821054746E+01  0.13997352708E+02  0.10500000000E+00 0.  1.
    3000001    1    5    5    0    0 -0.15823047454E+02  0.21285828551E+02  0.65109994153E+01  0.27328527974E+02  0.10000000000E+01 0. -1.
        -13    1    6    6    0    0 -0.16085840429E+02  0.11110889664E+02  0.47045373491E+01  0.20108451658E+02  0.10500000000E+00 0. -1.
         13    1    6    6    0    0 -0.12109696835E+02  0.82695548425E+01  0.34428476166E+01  0.15063018271E+02  0.10500000000E+00 0.  1.
</event>
<event>
11    0  0.3485800E-009  0.9118800E+02  0.7816531E-02  0.1126479E+00
         25   -1    0    0    0    0  0.00000000000E+00  0.00000000000E+00  0.99999998245E-14  0.12500000000E+03  0.12500000000E+03 0.  0.
    3000001    1    3    3    0    0 -0.28143320561E+01 -0.13557454717E+02 -0.49050904394E+02  0.50977605527E+02  0.10000000000E+01 0. -1.
    1000022    2    1    0    0    0 -0.77392896835E+01 -0.17795141293E+02 -0.58563522727E+02  0.62500001138E+02  0.10000014481E+02 0.  0.
    3000022    2    3    3    0    0 -0.49249576275E+01 -0.42376865763E+01 -0.95126183326E+01  0.11522395611E+02  0.24999586743E+00 0.  0.
    1000022    2    1    0    0    0  0.77392896835E+01  0.17795141293E+02  0.58563522727E+02  0.62499998862E+02  0.10000000255E+02 0.  0.
    3000022    2    5    5    0    0  0.23364376805E+01  0.14799186048E+02  0.34071149717E+02  0.37220701141E+02  0.25000335935E+00 0.  0.
        -13    1    4    4    0    0 -0.34690637659E+01 -0.29252529044E+01 -0.66234733096E+01  0.80295038234E+01  0.10500000000E+00 0.  1.
         13    1    4    4    0    0 -0.14558938616E+01 -0.13124336719E+01 -0.28891450230E+01  0.34928917881E+01  0.10500000000E+00 0. -1.
    3000001    1    5    5    0    0  0.54028520030E+01  0.29959552450E+01  0.24492373010E+02  0.25279297721E+02  0.10000000000E+01 0. -1.
        -13    1    6    6    0    0  0.14799716561E+01  0.97273299195E+01  0.22387888972E+02  0.24454853528E+02  0.10500000000E+00 0. -1.
         13    1    6    6    0    0  0.85646602436E+00  0.50718561287E+01  0.11683260745E+02  0.12765847613E+02  0.10500000000E+00 0.  1.
</event>
<event>
11    0  0.3485800E-009  0.9118800E+02  0.7816531E-02  0.1126479E+00
         25   -1    0    0    0    0  0.00000000000E+00  0.00000000000E+00  0.99999998245E-14  0.12500000000E+03  0.12500000000E+03 0.  0.
    3000001    1    3    3    0    0  0.19687137164E+02 -0.35737189666E+02 -0.63041202903E+01  0.41297361024E+02  0.10000000000E+01 0. -1.
    1000022    2    1    0    0    0  0.34821662286E+02 -0.50579981763E+02 -0.59471283433E+01  0.62500009030E+02  0.10000003689E+02 0.  0.
    3000022    2    3    3    0    0  0.15134525122E+02 -0.14842792096E+02  0.35699194698E+00  0.21202648006E+02  0.25002263292E+00 0.  0.
    1000022    2    1    0    0    0 -0.34821662286E+02  0.50579981763E+02  0.59471283433E+01  0.62499990970E+02  0.99998908087E+01 0.  0.
    3000022    2    5    5    0    0 -0.33039547979E+01  0.33278058631E+01 -0.20647595539E+01  0.51299259510E+01  0.24999815760E+00 0.  0.
        -13    1    4    4    0    0  0.67987005337E+01 -0.67138236022E+01  0.21892562405E+00  0.95580703982E+01  0.10500000000E+00 0. -1.
         13    1    4    4    0    0  0.83358245887E+01 -0.81289684942E+01  0.13806632293E+00  0.11644577608E+02  0.10500000000E+00 0.  1.
    3000001    1    5    5    0    0 -0.31517707488E+02  0.47252175899E+02  0.80118878972E+01  0.57370065019E+02  0.10000000000E+01 0.  1.
        -13    1    6    6    0    0 -0.12626065274E+01  0.12023216402E+01 -0.73055414804E+00  0.18932741304E+01  0.10500000000E+00 0. -1.
         13    1    6    6    0    0 -0.20413482705E+01  0.21254842229E+01 -0.13342054058E+01  0.32366518207E+01  0.10500000000E+00 0. -1.
</event>
<event>
11    0  0.3485800E-009  0.9118800E+02  0.7816531E-02  0.1126479E+00
         25   -1    0    0    0    0  0.00000000000E+00  0.00000000000E+00  0.99999998245E-14  0.12500000000E+03  0.12500000000E+03 0.  0.
    3000001    1    3    3    0    0 -0.54434191894E+01 -0.91564580277E+01 -0.30746285597E+02  0.32554655798E+02  0.10000000000E+01 0. -1.
    1000022    2    1    0    0    0 -0.16023420379E+02 -0.23854169308E+02 -0.54593760224E+02  0.62500000880E+02  0.10000003033E+02 0.  0.
    3000022    2    3    3    0    0 -0.10580001190E+02 -0.14697711281E+02 -0.23847474627E+02  0.29945345083E+02  0.25000799031E+00 0.  0.
    1000022    2    1    0    0    0  0.16023420379E+02  0.23854169308E+02  0.54593760224E+02  0.62499999120E+02  0.99999920275E+01 0.  0.
    3000022    2    5    5    0    0  0.15964346003E+02  0.22391317557E+02  0.54052511664E+02  0.60646252904E+02  0.25005761772E+00 0.  0.
        -13    1    4    4    0    0 -0.59928023648E+01 -0.82348626628E+01 -0.13476628560E+02  0.16892518628E+02  0.10500000000E+00 0.  1.
         13    1    4    4    0    0 -0.45871988253E+01 -0.64628486178E+01 -0.10370846067E+02  0.13052826455E+02  0.10500000000E+00 0. -1.
    3000001    1    5    5    0    0  0.59074376161E-01  0.14628517517E+01  0.54124855912E+00  0.18537462157E+01  0.10000000000E+01 0. -1.
        -13    1    6    6    0    0  0.65347489145E+01  0.91622743163E+01  0.21979720572E+02  0.24693508366E+02  0.10500000000E+00 0.  1.
         13    1    6    6    0    0  0.94295970888E+01  0.13229043240E+02  0.32072791093E+02  0.35952744538E+02  0.10500000000E+00 0. -1.
</event>
<event>
11    0  0.3485800E-009  0.9118800E+02  0.7816531E-02  0.1126479E+00
         25   -1    0    0    0    0  0.00000000000E+00  0.00000000000E+00  0.99999998245E-14  0.12500000000E+03  0.12500000000E+03 0.  0.
    3000001    1    3    3    0    0 -0.26953440101E+02  0.32482273857E+01  0.36994045646E+01  0.27417594872E+02  0.10000000000E+01 0.  1.
    1000022    2    1    0    0    0 -0.58300999968E+02  0.64641333631E+01  0.19116962669E+02  0.62500000119E+02  0.10000006788E+02 0.  0.
    3000022    2    3    3    0    0 -0.31347559867E+02  0.32159059775E+01  0.15417558104E+02  0.35082405247E+02  0.24999826900E+00 0.  0.
    1000022    2    1    0    0    0  0.58300999968E+02 -0.64641333631E+01 -0.19116962669E+02  0.62499999881E+02  0.10000005304E+02 0.  0.
    3000022    2    5    5    0    0  0.17261620298E+02 -0.49397134781E+01 -0.94791918881E+01  0.20304725675E+02  0.25000269796E+00 0.  0.
        -13    1    4    4    0    0 -0.15276505541E+02  0.16295902529E+01  0.74862793499E+01  0.17090423910E+02  0.10500000000E+00 0. -1.
         13    1    4    4    0    0 -0.16071054326E+02  0.15863157245E+01  0.79312787543E+01  0.17991981337E+02  0.10500000000E+00 0.  1.
    3000001    1    5    5    0    0  0.41039379670E+02 -0.15244198851E+01 -0.96377707807E+01  0.42195274206E+02  0.10000000000E+01 0. -1.
        -13    1    6    6    0    0  0.79315952125E+01 -0.23353141395E+01 -0.43391532092E+01  0.93382637743E+01  0.10500000000E+00 0.  1.
         13    1    6    6    0    0  0.93300250853E+01 -0.26043993385E+01 -0.51400386789E+01  0.10966461901E+02  0.10500000000E+00 0. -1.
</event>
<event>
11    0  0.3485800E-009  0.9118800E+02  0.7816531E-02  0.1126479E+00
         25   -1    0    0    0    0  0.00000000000E+00  0.00000000000E+00  0.99999998245E-14  0.12500000000E+03  0.12500000000E+03 0.  0.
    3000001    1    3    3    0    0 -0.33631253517E+02 -0.11045816505E+00 -0.20936356382E+02  0.39628328663E+02  0.10000000000E+01 0.  1.
    1000022    2    1    0    0    0 -0.53364913118E+02 -0.71199737324E+01 -0.30128758065E+02  0.62500000598E+02  0.10000001703E+02 0.  0.
    3000022    2    3    3    0    0 -0.19733659602E+02 -0.70095155673E+01 -0.91924016837E+01  0.22871671934E+02  0.24999717530E+00 0.  0.
    1000022    2    1    0    0    0  0.53364913118E+02  0.71199737324E+01  0.30128758065E+02  0.62499999402E+02  0.99999942330E+01 0.  0.
    3000022    2    5    5    0    0  0.43247862269E+02  0.49848745361E+01  0.19715249661E+02  0.47791004748E+02  0.25000120047E+00 0.  0.
        -13    1    4    4    0    0 -0.88417333384E+01 -0.31404039830E+01 -0.41914157796E+01  0.10277031519E+02  0.10500000000E+00 0.  1.
         13    1    4    4    0    0 -0.10891926263E+02 -0.38691115843E+01 -0.50009859040E+01  0.12594640415E+02  0.10500000000E+00 0. -1.
    3000001    1    5    5    0    0  0.10117050849E+02  0.21350991963E+01  0.10413508405E+02  0.14708994655E+02  0.10000000000E+01 0. -1.
        -13    1    6    6    0    0  0.17951299476E+02  0.20335369605E+01  0.81224996421E+01  0.19808342962E+02  0.10500000000E+00 0.  1.
         13    1    6    6    0    0  0.25296562793E+02  0.29513375756E+01  0.11592750019E+02  0.27982661786E+02  0.10500000000E+00 0. -1.
</event>
<event>
11    0  0.3485800E-009  0.9118800E+02  0.7816531E-02  0.1126479E+00
         25   -1    0    0    0    0  0.00000000000E+00  0.00000000000E+00  0.99999998245E-14  0.12500000000E+03  0.12500000000E+03 0.  0.
    3000001    1    3    3    0    0 -0.12224065194E+01  0.18283010617E+02 -0.51607800997E+02  0.54773423105E+02  0.10000000000E+01 0. -1.
    1000022    2    1    0    0    0 -0.49703609761E+01  0.20197433633E+02 -0.58082777409E+02  0.62500000439E+02  0.10000010490E+02 0.  0.
    3000022    2    3    3    0    0 -0.37479544567E+01  0.19144230160E+01 -0.64749764115E+01  0.77265773338E+01  0.24999934363E+00 0.  0.
    1000022    2    1    0    0    0  0.49703609761E+01 -0.20197433633E+02  0.58082777409E+02  0.62499999561E+02  0.10000005001E+02 0.  0.
    3000022    2    5    5    0    0 -0.44165980905E+00  0.35703763157E+00 -0.22671475683E-01  0.62092839790E+00  0.24999764444E+00 0.  0.
        -13    1    4    4    0    0 -0.18075895194E+01  0.97492653260E+00 -0.30679902630E+01  0.36934334796E+01  0.10500000000E+00 0.  1.
         13    1    4    4    0    0 -0.19403649374E+01  0.93949648341E+00 -0.34069861485E+01  0.40331438542E+01  0.10500000000E+00 0. -1.
    3000001    1    5    5    0    0  0.54120207852E+01 -0.20554471264E+02  0.58105448884E+02  0.61879071163E+02  0.10000000000E+01 0. -1.
        -13    1    6    6    0    0 -0.25883128263E+00  0.26431257073E+00 -0.54576824880E-01  0.38840494040E+00  0.10500000000E+00 0. -1.
         13    1    6    6    0    0 -0.18282852642E+00  0.92725060840E-01  0.31905349197E-01  0.23252345750E+00  0.10500000000E+00 0.  1.
</event>
<event>
11    0  0.3485800E-009  0.9118800E+02  0.7816531E-02  0.1126479E+00
         25   -1    0    0    0    0  0.00000000000E+00  0.00000000000E+00  0.99999998245E-14  0.12500000000E+03  0.12500000000E+03 0.  0.
    3000001    1    3    3    0    0  0.23869918989E+01 -0.28583813497E+02  0.29830746573E+01  0.28855343678E+02  0.10000000000E+01 0.  1.
    1000022    2    1    0    0    0  0.14645344907E+02 -0.59898694541E+02  0.19774088569E+01  0.62499999392E+02  0.10000002153E+02 0.  0.
    3000022    2    3    3    0    0  0.12258353008E+02 -0.31314881044E+02 -0.10056658005E+01  0.33644655715E+02  0.25000230354E+00 0.  0.
    1000022    2    1    0    0    0 -0.14645344907E+02  0.59898694541E+02 -0.19774088569E+01  0.62500000608E+02  0.10000009748E+02 0.  0.
    3000022    2    5    5    0    0 -0.38665557770E+01  0.44307884530E+01  0.66814313756E+00  0.59237702075E+01  0.24999665302E+00 0.  0.
        -13    1    4    4    0    0  0.62512349362E+01 -0.16122889995E+02 -0.47901485202E+00  0.17299306351E+02  0.10500000000E+00 0.  1.
         13    1    4    4    0    0  0.60071180722E+01 -0.15191991050E+02 -0.52665094844E+00  0.16345349363E+02  0.10500000000E+00 0. -1.
    3000001    1    5    5    0    0 -0.10778789130E+02  0.55467906088E+02 -0.26455519944E+01  0.56576230400E+02  0.10000000000E+01 0. -1.
        -13    1    6    6    0    0 -0.16816858577E+01  0.18314295864E+01  0.29905830543E+00  0.25065239923E+01  0.10500000000E+00 0. -1.
         13    1    6    6    0    0 -0.21848699193E+01  0.25993588667E+01  0.36908483213E+00  0.34172462152E+01  0.10500000000E+00 0.  1.
</event>
<event>
11    0  0.3485800E-009  0.9118800E+02  0.7816531E-02  0.1126479E+00
         25   -1    0    0    0    0  0.00000000000E+00  0.00000000000E+00  0.99999998245E-14  0.12500000000E+03  0.12500000000E+03 0.  0.
    3000001    1    3    3    0    0  0.32752540634E+02  0.24084768438E+01  0.31744382364E+02  0.45686272450E+02  0.10000000000E+01 0.  1.
    1000022    2    1    0    0    0  0.45952146569E+02 -0.21395988869E+01  0.41110498706E+02  0.62499993757E+02  0.99999229052E+01 0.  0.
    3000022    2    3    3    0    0  0.13199605935E+02 -0.45480757307E+01  0.93661163419E+01  0.16813721307E+02  0.24999836273E+00 0.  0.
    1000022    2    1    0    0    0 -0.45952146569E+02  0.21395988869E+01 -0.41110498706E+02  0.62500006243E+02  0.10000000938E+02 0.  0.
    3000022    2    5    5    0    0 -0.20799220261E+02  0.50772056006E+01 -0.22481950532E+02  0.31046516101E+02  0.24996410554E+00 0.  0.
        -13    1    4    4    0    0  0.61667267025E+01 -0.20685465641E+01  0.44131628859E+01  0.78609436309E+01  0.10500000000E+00 0.  1.
         13    1    4    4    0    0  0.70328792326E+01 -0.24795291667E+01  0.49529534560E+01  0.89527776766E+01  0.10500000000E+00 0. -1.
    3000001    1    5    5    0    0 -0.25152926308E+02 -0.29376067138E+01 -0.18628548173E+02  0.31453490142E+02  0.10000000000E+01 0. -1.
        -13    1    6    6    0    0 -0.75427358789E+01  0.17831541085E+01 -0.81172627973E+01  0.11223790956E+02  0.10500000000E+00 0.  1.
         13    1    6    6    0    0 -0.13256484382E+02  0.32940514922E+01 -0.14364687735E+02  0.19822725144E+02  0.10500000000E+00 0. -1.
</event>
<event>
11    0  0.3485800E-009  0.9118800E+02  0.7816531E-02  0.1126479E+00
         25   -1    0    0    0    0  0.00000000000E+00  0.00000000000E+00  0.99999998245E-14  0.12500000000E+03  0.12500000000E+03 0.  0.
    3000001    1    3    3    0    0  0.53646679469E+01 -0.17370905692E+02 -0.18965037527E+02  0.26290695601E+02  0.10000000000E+01 0. -1.
    1000022    2    1    0    0    0  0.13464266168E+02 -0.31533099863E+02 -0.51289641030E+02  0.62500000041E+02  0.99999938870E+01 0.  0.
    3000022    2    3    3    0    0  0.80995982214E+01 -0.14162194170E+02 -0.32324603502E+02  0.36209304440E+02  0.25000276909E+00 0.  0.
    1000022    2    1    0    0    0 -0.13464266168E+02  0.31533099863E+02  0.51289641030E+02  0.62499999959E+02  0.99999933756E+01 0.  0.
    3000022    2    5    5    0    0  0.23153319913E+00  0.52233277422E+01  0.13294538306E+02  0.14287897118E+02  0.24998992785E+00 0.  0.
        -13    1    4    4    0    0  0.59254706659E+01 -0.10318419903E+02 -0.23638983451E+02  0.26464949566E+02  0.10500000000E+00 0.  1.
         13    1    4    4    0    0  0.21741275555E+01 -0.38437742669E+01 -0.86856200511E+01  0.97443548742E+01  0.10500000000E+00 0. -1.
    3000001    1    5    5    0    0 -0.13695799367E+02  0.26309772121E+02  0.37995102724E+02  0.48212102841E+02  0.10000000000E+01 0. -1.
        -13    1    6    6    0    0  0.82911367734E-01  0.30097101359E+01  0.75400062036E+01  0.81196026964E+01  0.10500000000E+00 0.  1.
         13    1    6    6    0    0  0.14862183140E+00  0.22136176063E+01  0.57545321026E+01  0.61682944219E+01  0.10500000000E+00 0. -1.
</event>
<event>
11    0  0.3485800E-009  0.9118800E+02  0.7816531E-02  0.1126479E+00
         25   -1    0    0    0    0  0.00000000000E+00  0.00000000000E+00  0.99999998245E-14  0.12500000000E+03  0.12500000000E+03 0.  0.
    3000001    1    3    3    0    0 -0.22908039916E+02  0.10667381904E+02 -0.54948384009E+02  0.60488810822E+02  0.10000000000E+01 0. -1.
    1000022    2    1    0    0    0 -0.21887531594E+02  0.10834174064E+02 -0.56655162770E+02  0.62499994134E+02  0.99999215656E+01 0.  0.
    3000022    2    3    3    0    0  0.10205083227E+01  0.16679215982E+00 -0.17067787614E+01  0.20111833119E+01  0.25001542359E+00 0.  0.
    1000022    2    1    0    0    0  0.21887531594E+02 -0.10834174064E+02  0.56655162770E+02  0.62500005866E+02  0.99999948938E+01 0.  0.
    3000022    2    5    5    0    0  0.39529397291E+01 -0.64889091435E+01  0.12453630791E+02  0.14590650393E+02  0.24996926941E+00 0.  0.
        -13    1    4    4    0    0  0.24542089999E+00  0.43207576046E-01 -0.38824338928E+00  0.47313448627E+00  0.10500000000E+00 0.  1.
         13    1    4    4    0    0  0.77508742275E+00  0.12358458378E+00 -0.13185353722E+01  0.15380488256E+01  0.10500000000E+00 0. -1.
    3000001    1    5    5    0    0  0.17934591864E+02 -0.43452649202E+01  0.44201531979E+02  0.47909355473E+02  0.10000000000E+01 0. -1.
        -13    1    6    6    0    0  0.10812152296E+01 -0.17094191791E+01  0.33273446547E+01  0.38953032942E+01  0.10500000000E+00 0. -1.
         13    1    6    6    0    0  0.28717244996E+01 -0.47794899644E+01  0.91262861361E+01  0.10695347099E+02  0.10500000000E+00 0.  1.
</event>
<event>
11    0  0.3485800E-009  0.9118800E+02  0.7816531E-02  0.1126479E+00
         25   -1    0    0    0    0  0.00000000000E+00  0.00000000000E+00  0.99999998245E-14  0.12500000000E+03  0.12500000000E+03 0.  0.
    3000001    1    3    3    0    0 -0.42945459256E+01  0.13301928303E+02  0.22456719676E+02  0.26470524737E+02  0.10000000000E+01 0. -1.
    1000022    2    1    0    0    0 -0.40053192542E+01  0.22622010414E+02  0.57257769797E+02  0.62500001091E+02  0.99999998375E+01 0.  0.
    3000022    2    3    3    0    0  0.28922667134E+00  0.93200821111E+01  0.34801050122E+02  0.36029476354E+02  0.24998828746E+00 0.  0.
    1000022    2    1    0    0    0  0.40053192542E+01 -0.22622010414E+02 -0.57257769797E+02  0.62499998909E+02  0.99999861959E+01 0.  0.
    3000022    2    5    5    0    0  0.35178054854E+01 -0.99751874703E+01 -0.37910364713E+02  0.39359085276E+02  0.25004123617E+00 0.  0.
        -13    1    4    4    0    0  0.11801789893E+00  0.47993428400E+01  0.18149433832E+02  0.18773933880E+02  0.10500000000E+00 0. -1.
         13    1    4    4    0    0  0.17120877241E+00  0.45207392711E+01  0.16651616290E+02  0.17255542474E+02  0.10500000000E+00 0.  1.
    3000001    1    5    5    0    0  0.48751376880E+00 -0.12646822943E+02 -0.19347405085E+02  0.23140913633E+02  0.10000000000E+01 0.  1.
        -13    1    6    6    0    0  0.20002823770E+01 -0.58481125101E+01 -0.22049077344E+02  0.22899222394E+02  0.10500000000E+00 0. -1.
         13    1    6    6    0    0  0.15175231084E+01 -0.41270749602E+01 -0.15861287369E+02  0.16459862882E+02  0.10500000000E+00 0.  1.
</event>
<event>
11    0  0.3485800E-009  0.9118800E+02  0.7816531E-02  0.1126479E+00
         25   -1    0    0    0    0  0.00000000000E+00  0.00000000000E+00  0.99999998245E-14  0.12500000000E+03  0.12500000000E+03 0.  0.
    3000001    1    3    3    0    0 -0.20391092368E+02  0.49700054362E+01  0.13070441950E+02  0.24745384515E+02  0.10000000000E+01 0. -1.
    1000022    2    1    0    0    0 -0.46816599251E+02  0.23787129197E+02  0.32382534429E+02  0.62499999760E+02  0.99999976529E+01 0.  0.
    3000022    2    3    3    0    0 -0.26425506883E+02  0.18817123761E+02  0.19312092479E+02  0.37754615245E+02  0.24999150510E+00 0.  0.
    1000022    2    1    0    0    0  0.46816599251E+02 -0.23787129197E+02 -0.32382534429E+02  0.62500000240E+02  0.10000000654E+02 0.  0.
    3000022    2    5    5    0    0  0.41682522963E+02 -0.18146483424E+02 -0.29914535263E+02  0.54421222860E+02  0.24999277452E+00 0.  0.
        -13    1    4    4    0    0 -0.90507253893E+01  0.65110636595E+01  0.66225460233E+01  0.12968373872E+02  0.10500000000E+00 0. -1.
         13    1    4    4    0    0 -0.17374781494E+02  0.12306060101E+02  0.12689546456E+02  0.24786241373E+02  0.10500000000E+00 0.  1.
    3000001    1    5    5    0    0  0.51340762883E+01 -0.56406457730E+01 -0.24679991662E+01  0.80787773799E+01  0.10000000000E+01 0. -1.
        -13    1    6    6    0    0  0.23036665913E+02 -0.10083702002E+02 -0.16494884038E+02  0.30074262200E+02  0.10500000000E+00 0. -1.
         13    1    6    6    0    0  0.18645857050E+02 -0.80627814221E+01 -0.13419651225E+02  0.24346960660E+02  0.10500000000E+00 0.  1.
</event>
<event>
11    0  0.3485800E-009  0.9118800E+02  0.7816531E-02  0.1126479E+00
         25   -1    0    0    0    0  0.00000000000E+00  0.00000000000E+00  0.99999998245E-14  0.12500000000E+03  0.12500000000E+03 0.  0.
    3000001    1    3    3    0    0  0.72226408784E+01 -0.79797076382E+01 -0.11756594178E+02  0.15970591157E+02  0.10000000000E+01 0. -1.
    1000022    2    1    0    0    0  0.35507790417E+02 -0.38385402689E+02 -0.32741528111E+02  0.62500000465E+02  0.10000003762E+02 0.  0.
    3000022    2    3    3    0    0  0.28285149539E+02 -0.30405695051E+02 -0.20984933933E+02  0.46529409308E+02  0.25000490743E+00 0.  0.
    1000022    2    1    0    0    0 -0.35507790417E+02  0.38385402689E+02  0.32741528111E+02  0.62499999535E+02  0.99999979448E+01 0.  0.
    3000022    2    5    5    0    0 -0.17267392770E+02  0.25800560834E+02  0.19624924993E+02  0.36729170518E+02  0.24998710132E+00 0.  0.
        -13    1    4    4    0    0  0.16087948892E+02 -0.17214510727E+02 -0.11864634384E+02  0.26380713660E+02  0.10500000000E+00 0. -1.
         13    1    4    4    0    0  0.12197200647E+02 -0.13191184324E+02 -0.91202995487E+01  0.20148695649E+02  0.10500000000E+00 0.  1.
    3000001    1    5    5    0    0 -0.18240397648E+02  0.12584841855E+02  0.13116603118E+02  0.25770829017E+02  0.10000000000E+01 0. -1.
        -13    1    6    6    0    0 -0.12550313036E+02  0.18718632332E+02  0.14207342203E+02  0.26641267822E+02  0.10500000000E+00 0. -1.
         13    1    6    6    0    0 -0.47170797339E+01  0.70819285015E+01  0.54175827898E+01  0.10087902696E+02  0.10500000000E+00 0.  1.
</event>
<event>
11    0  0.3485800E-009  0.9118800E+02  0.7816531E-02  0.1126479E+00
         25   -1    0    0    0    0  0.00000000000E+00  0.00000000000E+00  0.99999998245E-14  0.12500000000E+03  0.12500000000E+03 0.  0.
    3000001    1    3    3    0    0 -0.52959325361E+02 -0.99067584792E+01 -0.26248113413E+01  0.53951122702E+02  0.10000000000E+01 0.  1.
    1000022    2    1    0    0    0 -0.60966622974E+02 -0.80461784549E+01 -0.49577235153E+01  0.62500012473E+02  0.10000121604E+02 0.  0.
    3000022    2    3    3    0    0 -0.80072976133E+01  0.18605800243E+01 -0.23329121741E+01  0.85488897712E+01  0.24992801372E+00 0.  0.
    1000022    2    1    0    0    0  0.60966622974E+02  0.80461784549E+01  0.49577235153E+01  0.62499987527E+02  0.99999656918E+01 0.  0.
    3000022    2    5    5    0    0  0.20360185205E+02  0.83401324126E-01  0.55469065906E+01  0.21103903840E+02  0.24997440074E+00 0.  0.
        -13    1    4    4    0    0 -0.28598888381E+01  0.62645920664E+00 -0.87668445925E+00  0.30579430905E+01  0.10500000000E+00 0. -1.
         13    1    4    4    0    0 -0.51474087753E+01  0.12341208176E+01 -0.14562277148E+01  0.54909466807E+01  0.10500000000E+00 0.  1.
    3000001    1    5    5    0    0  0.40606437769E+02  0.79627771308E+01 -0.58918307530E+00  0.41396083687E+02  0.10000000000E+01 0.  1.
        -13    1    6    6    0    0  0.13241462959E+02  0.99142632120E-02  0.35711186941E+01  0.13714968221E+02  0.10500000000E+00 0.  1.
         13    1    6    6    0    0  0.71187222463E+01  0.73487060914E-01  0.19757878966E+01  0.73889356189E+01  0.10500000000E+00 0. -1.
</event>
<event>
11    0  0.3485800E-009  0.9118800E+02  0.7816531E-02  0.1126479E+00
         25   -1    0    0    0    0  0.00000000000E+00  0.00000000000E+00  0.99999998245E-14  0.12500000000E+03  0.12500000000E+03 0.  0.
    3000001    1    3    3    0    0 -0.93915343083E+01 -0.59452489860E+01 -0.30012323251E+02  0.32020094458E+02  0.10000000000E+01 0.  1.
    1000022    2    1    0    0    0 -0.25519606976E+02 -0.57556785670E+01 -0.55873713001E+02  0.62500000071E+02  0.10000001420E+02 0.  0.
    3000022    2    3    3    0    0 -0.16128072667E+02  0.18957041898E+00 -0.25861389750E+02  0.30479905613E+02  0.25000295520E+00 0.  0.
    1000022    2    1    0    0    0  0.25519606976E+02  0.57556785670E+01  0.55873713001E+02  0.62499999929E+02  0.10000000531E+02 0.  0.
    3000022    2    5    5    0    0  0.50297820139E+01  0.10728866714E+00  0.21430702169E+02  0.22014715805E+02  0.24999709395E+00 0.  0.
        -13    1    4    4    0    0 -0.73642541038E+01  0.14866489748E+00 -0.11762738892E+02  0.13879027019E+02  0.10500000000E+00 0. -1.
         13    1    4    4    0    0 -0.87638185635E+01  0.40905521498E-01 -0.14098650858E+02  0.16600878594E+02  0.10500000000E+00 0.  1.
    3000001    1    5    5    0    0  0.20489824962E+02  0.56483898999E+01  0.34443010832E+02  0.40485284124E+02  0.10000000000E+01 0.  1.
        -13    1    6    6    0    0  0.38326838682E+01  0.91670818786E-01  0.16382110420E+02  0.16825053819E+02  0.10500000000E+00 0. -1.
         13    1    6    6    0    0  0.11970981456E+01  0.15617848355E-01  0.50485917485E+01  0.51896619861E+01  0.10500000000E+00 0.  1.
</event>
<event>
11    0  0.3485800E-009  0.9118800E+02  0.7816531E-02  0.1126479E+00
         25   -1    0    0    0    0  0.00000000000E+00  0.00000000000E+00  0.99999998245E-14  0.12500000000E+03  0.12500000000E+03 0.  0.
    3000001    1    3    3    0    0 -0.17722361562E+01  0.51045038116E+00 -0.95912270531E+00  0.23067936511E+01  0.10000000000E+01 0. -1.
    1000022    2    1    0    0    0 -0.17263525159E+02  0.37515438649E+02 -0.45834621721E+02  0.62500000099E+02  0.10000001306E+02 0.  0.
    3000022    2    3    3    0    0 -0.15491289003E+02  0.37004988268E+02 -0.44875499016E+02  0.60193206448E+02  0.24999778292E+00 0.  0.
    1000022    2    1    0    0    0  0.17263525159E+02 -0.37515438649E+02  0.45834621721E+02  0.62499999901E+02  0.10000000067E+02 0.  0.
    3000022    2    5    5    0    0  0.98845263403E+01 -0.23575651874E+02  0.21102228543E+02  0.33149385747E+02  0.25000731453E+00 0.  0.
        -13    1    4    4    0    0 -0.89369600571E+01  0.21180556392E+02 -0.25702842329E+02  0.34483798412E+02  0.10500000000E+00 0.  1.
         13    1    4    4    0    0 -0.65543289459E+01  0.15824431875E+02 -0.19172656687E+02  0.25709408036E+02  0.10500000000E+00 0. -1.
    3000001    1    5    5    0    0  0.73789988189E+01 -0.13939786775E+02  0.24732393178E+02  0.29350614154E+02  0.10000000000E+01 0.  1.
        -13    1    6    6    0    0  0.55006574825E+01 -0.12955390640E+02  0.11591905536E+02  0.18234107555E+02  0.10500000000E+00 0. -1.
         13    1    6    6    0    0  0.43838688579E+01 -0.10620261234E+02  0.95103230074E+01  0.14915278192E+02  0.10500000000E+00 0.  1.
</event>
<event>
11    0  0.3485800E-009  0.9118800E+02  0.7816531E-02  0.1126479E+00
         25   -1    0    0    0    0  0.00000000000E+00  0.00000000000E+00  0.99999998245E-14  0.12500000000E+03  0.12500000000E+03 0.  0.
    3000001    1    3    3    0    0  0.47829318478E+02 -0.15927538520E+02  0.33725303089E+02  0.60660747257E+02  0.10000000000E+01 0.  1.
    1000022    2    1    0    0    0  0.49529437479E+02 -0.15340721938E+02  0.33432724031E+02  0.62500000161E+02  0.10000002870E+02 0.  0.
    3000022    2    3    3    0    0  0.17001190012E+01  0.58681658173E+00 -0.29257905731E+00  0.18392529041E+01  0.24998084236E+00 0.  0.
    1000022    2    1    0    0    0 -0.49529437479E+02  0.15340721938E+02 -0.33432724031E+02  0.62499999839E+02  0.10000000857E+02 0.  0.
    3000022    2    5    5    0    0 -0.43361424980E+02  0.16410263130E+02 -0.30636473398E+02  0.55571268775E+02  0.24999751676E+00 0.  0.
        -13    1    4    4    0    0  0.41282834862E+00  0.15540667390E+00 -0.95040492688E-01  0.46328843603E+00  0.10500000000E+00 0.  1.
         13    1    4    4    0    0  0.12872906526E+01  0.43140990783E+00 -0.19753856462E+00  0.13759644680E+01  0.10500000000E+00 0. -1.
    3000001    1    5    5    0    0 -0.61680124987E+01 -0.10695411914E+01 -0.27962506336E+01  0.69287310634E+01  0.10000000000E+01 0. -1.
        -13    1    6    6    0    0 -0.30001828502E+02  0.11363135871E+02 -0.21255892791E+02  0.38484471851E+02  0.10500000000E+00 0.  1.
         13    1    6    6    0    0 -0.13359596479E+02  0.50471272586E+01 -0.93805806062E+01  0.17086796925E+02  0.10500000000E+00 0. -1.
</event>
<event>
11    0  0.3485800E-009  0.9118800E+02  0.7816531E-02  0.1126479E+00
         25   -1    0    0    0    0  0.00000000000E+00  0.00000000000E+00  0.99999998245E-14  0.12500000000E+03  0.12500000000E+03 0.  0.
    3000001    1    3    3    0    0  0.64717086771E+01  0.28559409558E+02  0.48258153687E+02  0.56456817877E+02  0.10000000000E+01 0.  1.
    1000022    2    1    0    0    0  0.54457537024E+01  0.28976426408E+02  0.54193731068E+02  0.62500001156E+02  0.10000006830E+02 0.  0.
    3000022    2    3    3    0    0 -0.10259549747E+01  0.41701685041E+00  0.59355773817E+01  0.60431832794E+01  0.24999726059E+00 0.  0.
    1000022    2    1    0    0    0 -0.54457537024E+01 -0.28976426408E+02 -0.54193731068E+02  0.62499998844E+02  0.99999923813E+01 0.  0.
    3000022    2    5    5    0    0 -0.36560555416E+01 -0.19344801646E+02 -0.44596917068E+02  0.48749724155E+02  0.25000077487E+00 0.  0.
        -13    1    4    4    0    0 -0.72716735668E+00  0.24415187004E+00  0.41143530400E+01  0.41865628429E+01  0.10500000000E+00 0. -1.
         13    1    4    4    0    0 -0.29878761805E+00  0.17286498036E+00  0.18212243417E+01  0.18566204364E+01  0.10500000000E+00 0.  1.
    3000001    1    5    5    0    0 -0.17896981608E+01 -0.96316247619E+01 -0.95968140003E+01  0.13750274689E+02  0.10000000000E+01 0. -1.
        -13    1    6    6    0    0 -0.12138800605E+01 -0.67107219040E+01 -0.15489401496E+02  0.16924534764E+02  0.10500000000E+00 0. -1.
         13    1    6    6    0    0 -0.24421754811E+01 -0.12634079742E+02 -0.29107515572E+02  0.31825189391E+02  0.10500000000E+00 0.  1.
</event>
<event>
11    0  0.3485800E-009  0.9118800E+02  0.7816531E-02  0.1126479E+00
         25   -1    0    0    0    0  0.00000000000E+00  0.00000000000E+00  0.99999998245E-14  0.12500000000E+03  0.12500000000E+03 0.  0.
    3000001    1    3    3    0    0  0.37375931477E+02  0.40484720512E+02 -0.90945265573E+01  0.55854124843E+02  0.10000000000E+01 0. -1.
    1000022    2    1    0    0    0  0.40491446495E+02  0.46002215730E+02 -0.71055689614E+01  0.62499998819E+02  0.99999825438E+01 0.  0.
    3000022    2    3    3    0    0  0.31155150180E+01  0.55174952172E+01  0.19889575959E+01  0.66458739759E+01  0.25000257203E+00 0.  0.
    1000022    2    1    0    0    0 -0.40491446495E+02 -0.46002215730E+02  0.71055689614E+01  0.62500001181E+02  0.99999973036E+01 0.  0.
    3000022    2    5    5    0    0 -0.12371815235E+02 -0.16433296676E+02  0.68510419990E+01  0.21682120048E+02  0.25000292145E+00 0.  0.
        -13    1    4    4    0    0  0.84273742323E+00  0.15636900269E+01  0.57807683722E+00  0.18709705221E+01  0.10500000000E+00 0. -1.
         13    1    4    4    0    0  0.22727775947E+01  0.39538051903E+01  0.14108807586E+01  0.47749034538E+01  0.10500000000E+00 0.  1.
    3000001    1    5    5    0    0 -0.28119631260E+02 -0.29568919054E+02  0.25452696235E+00  0.40817881133E+02  0.10000000000E+01 0.  1.
        -13    1    6    6    0    0 -0.61483752058E+01 -0.80573389555E+01  0.33585237216E+01  0.10677730812E+02  0.10500000000E+00 0.  1.
         13    1    6    6    0    0 -0.62234400289E+01 -0.83759577206E+01  0.34925182774E+01  0.11004389236E+02  0.10500000000E+00 0. -1.
</event>
<event>
11    0  0.3485800E-009  0.9118800E+02  0.7816531E-02  0.1126479E+00
         25   -1    0    0    0    0  0.00000000000E+00  0.00000000000E+00  0.99999998245E-14  0.12500000000E+03  0.12500000000E+03 0.  0.
    3000001    1    3    3    0    0 -0.60934496607E-01  0.32211197906E+01 -0.71460020441E+00  0.34481849095E+01  0.10000000000E+01 0. -1.
    1000022    2    1    0    0    0  0.23233682777E+02  0.55069424183E+02  0.15290668293E+02  0.62500000920E+02  0.10000004145E+02 0.  0.
    3000022    2    3    3    0    0  0.23294617273E+02  0.51848304393E+02  0.16005268498E+02  0.59051816010E+02  0.24998427735E+00 0.  0.
    1000022    2    1    0    0    0 -0.23233682777E+02 -0.55069424183E+02 -0.15290668293E+02  0.62499999080E+02  0.99999926457E+01 0.  0.
    3000022    2    5    5    0    0 -0.19710089203E+02 -0.47581655095E+02 -0.95555254829E+01  0.52381982444E+02  0.24999907051E+00 0.  0.
        -13    1    4    4    0    0  0.96680083333E+01  0.21590991943E+02  0.67208011579E+01  0.24593119189E+02  0.10500000000E+00 0. -1.
         13    1    4    4    0    0  0.13626608940E+02  0.30257312449E+02  0.92844673399E+01  0.34458696822E+02  0.10500000000E+00 0.  1.
    3000001    1    5    5    0    0 -0.35235935735E+01 -0.74877690879E+01 -0.57351428105E+01  0.10118016636E+02  0.10000000000E+01 0. -1.
        -13    1    6    6    0    0 -0.14462633382E+02 -0.34986665076E+02 -0.70435426878E+01  0.38507882519E+02  0.10500000000E+00 0.  1.
         13    1    6    6    0    0 -0.52474558215E+01 -0.12594990019E+02 -0.25119827951E+01  0.13874099926E+02  0.10500000000E+00 0. -1.
</event>
<event>
11    0  0.3485800E-009  0.9118800E+02  0.7816531E-02  0.1126479E+00
         25   -1    0    0    0    0  0.00000000000E+00  0.00000000000E+00  0.99999998245E-14  0.12500000000E+03  0.12500000000E+03 0.  0.
    3000001    1    3    3    0    0 -0.75218650668E+01  0.23272219536E+02 -0.37512683435E+02  0.44792589506E+02  0.10000000000E+01 0. -1.
    1000022    2    1    0    0    0 -0.15119829122E+02  0.28302713079E+02 -0.52693426166E+02  0.62499999615E+02  0.99999995217E+01 0.  0.
    3000022    2    3    3    0    0 -0.75979640549E+01  0.50304935434E+01 -0.15180742731E+02  0.17707410108E+02  0.24999962139E+00 0.  0.
    1000022    2    1    0    0    0  0.15119829122E+02 -0.28302713079E+02  0.52693426166E+02  0.62500000385E+02  0.10000004340E+02 0.  0.
    3000022    2    5    5    0    0  0.46479790219E+01 -0.14174531780E+02  0.16480501505E+02  0.22230395672E+02  0.25000338481E+00 0.  0.
        -13    1    4    4    0    0 -0.40559021547E+01  0.27325385910E+01 -0.80408561633E+01  0.94118809108E+01  0.10500000000E+00 0.  1.
         13    1    4    4    0    0 -0.35420619002E+01  0.22979549524E+01 -0.71398865678E+01  0.82955291976E+01  0.10500000000E+00 0. -1.
    3000001    1    5    5    0    0  0.10471850100E+02 -0.14128181299E+02  0.36212924660E+02  0.40269604714E+02  0.10000000000E+01 0. -1.
        -13    1    6    6    0    0  0.23265566741E+01 -0.70668421718E+01  0.83199081510E+01  0.11161766029E+02  0.10500000000E+00 0.  1.
         13    1    6    6    0    0  0.23214223478E+01 -0.71076896079E+01  0.81605933544E+01  0.11068629643E+02  0.10500000000E+00 0. -1.
</event>
<event>
11    0  0.3485800E-009  0.9118800E+02  0.7816531E-02  0.1126479E+00
         25   -1    0    0    0    0  0.00000000000E+00  0.00000000000E+00  0.99999998245E-14  0.12500000000E+03  0.12500000000E+03 0.  0.
    3000001    1    3    3    0    0  0.32868529891E+02  0.12143199314E+02 -0.23604006885E+02  0.42260462465E+02  0.10000000000E+01 0. -1.
    1000022    2    1    0    0    0  0.45391977041E+02  0.23980217229E+02 -0.34216481818E+02  0.62499999172E+02  0.99999935271E+01 0.  0.
    3000022    2    3    3    0    0  0.12523447150E+02  0.11837017914E+02 -0.10612474933E+02  0.20239536707E+02  0.25000056765E+00 0.  0.
    1000022    2    1    0    0    0 -0.45391977041E+02 -0.23980217229E+02  0.34216481818E+02  0.62500000828E+02  0.10000003876E+02 0.  0.
    3000022    2    5    5    0    0 -0.17534990286E+02 -0.14181607260E+02  0.17544877854E+02  0.28574098525E+02  0.24999757555E+00 0.  0.
        -13    1    4    4    0    0  0.61579284705E+01  0.57954181735E+01 -0.51310362939E+01  0.98916891026E+01  0.10500000000E+00 0.  1.
         13    1    4    4    0    0  0.63655186794E+01  0.60415997408E+01 -0.54814386390E+01  0.10347847604E+02  0.10500000000E+00 0. -1.
    3000001    1    5    5    0    0 -0.27856986754E+02 -0.97986099692E+01  0.16671603964E+02  0.33925902303E+02  0.10000000000E+01 0.  1.
        -13    1    6    6    0    0 -0.58773184251E+01 -0.47230705084E+01  0.58050166257E+01  0.95162760533E+01  0.10500000000E+00 0. -1.
         13    1    6    6    0    0 -0.11657671861E+02 -0.94585367511E+01  0.11739861228E+02  0.19057822472E+02  0.10500000000E+00 0.  1.
</event>
<event>
11    0  0.3485800E-009  0.9118800E+02  0.7816531E-02  0.1126479E+00
         25   -1    0    0    0    0  0.00000000000E+00  0.00000000000E+00  0.99999998245E-14  0.12500000000E+03  0.12500000000E+03 0.  0.
    3000001    1    3    3    0    0 -0.56769705923E+01  0.70879317440E+01  0.14654573950E+02  0.17269143267E+02  0.10000000000E+01 0. -1.
    1000022    2    1    0    0    0 -0.15258975335E+02  0.38651189363E+02  0.45601526637E+02  0.62500000273E+02  0.10000001754E+02 0.  0.
    3000022    2    3    3    0    0 -0.95820047426E+01  0.31563257619E+02  0.30946952687E+02  0.45230857006E+02  0.24999700758E+00 0.  0.
    1000022    2    1    0    0    0  0.15258975335E+02 -0.38651189363E+02 -0.45601526637E+02  0.62499999727E+02  0.99999983398E+01 0.  0.
    3000022    2    5    5    0    0  0.11377533018E+02 -0.33363433310E+02 -0.42379189992E+02  0.55123726143E+02  0.24999930373E+00 0.  0.
        -13    1    4    4    0    0 -0.51941864592E+01  0.17287208627E+02  0.16876682191E+02  0.24711547541E+02  0.10500000000E+00 0.  1.
         13    1    4    4    0    0 -0.43878182834E+01  0.14276048992E+02  0.14070270495E+02  0.20519309465E+02  0.10500000000E+00 0. -1.
    3000001    1    5    5    0    0  0.38814423166E+01 -0.52877560535E+01 -0.32223366443E+01  0.73762735841E+01  0.10000000000E+01 0. -1.
        -13    1    6    6    0    0  0.79080255923E+01 -0.23041092323E+02 -0.29294482506E+02  0.38099954521E+02  0.10500000000E+00 0. -1.
         13    1    6    6    0    0  0.34695074260E+01 -0.10322340987E+02 -0.13084707486E+02  0.17023771622E+02  0.10500000000E+00 0.  1.
</event>
<event>
11    0  0.3485800E-009  0.9118800E+02  0.7816531E-02  0.1126479E+00
         25   -1    0    0    0    0  0.00000000000E+00  0.00000000000E+00  0.99999998245E-14  0.12500000000E+03  0.12500000000E+03 0.  0.
    3000001    1    3    3    0    0  0.12195007779E+02  0.17082599123E+02 -0.81609712549E+01  0.22541846849E+02  0.10000000000E+01 0.  1.
    1000022    2    1    0    0    0  0.23271191403E+02  0.48396056379E+02 -0.30373066666E+02  0.62500001586E+02  0.10000019856E+02 0.  0.
    3000022    2    3    3    0    0  0.11076183624E+02  0.31313457256E+02 -0.22212095411E+02  0.39958154737E+02  0.24999684892E+00 0.  0.
    1000022    2    1    0    0    0 -0.23271191403E+02 -0.48396056379E+02  0.30373066666E+02  0.62499998414E+02  0.10000000035E+02 0.  0.
    3000022    2    5    5    0    0 -0.22902638490E+02 -0.45215801689E+02  0.25931346230E+02  0.56934144340E+02  0.25000450153E+00 0.  0.
        -13    1    4    4    0    0  0.66273460175E+01  0.18642148194E+02 -0.13164659691E+02  0.23764904677E+02  0.10500000000E+00 0. -1.
         13    1    4    4    0    0  0.44488376070E+01  0.12671309062E+02 -0.90474357201E+01  0.16193250060E+02  0.10500000000E+00 0.  1.
    3000001    1    5    5    0    0 -0.36855291305E+00 -0.31802546905E+01  0.44417204360E+01  0.55658540744E+01  0.10000000000E+01 0.  1.
        -13    1    6    6    0    0 -0.67495672513E+01 -0.13238094017E+02  0.76240370901E+01  0.16701519627E+02  0.10500000000E+00 0.  1.
         13    1    6    6    0    0 -0.16153071239E+02 -0.31977707671E+02  0.18307309140E+02  0.40232624713E+02  0.10500000000E+00 0. -1.
</event>
<event>
11    0  0.3485800E-009  0.9118800E+02  0.7816531E-02  0.1126479E+00
         25   -1    0    0    0    0  0.00000000000E+00  0.00000000000E+00  0.99999998245E-14  0.12500000000E+03  0.12500000000E+03 0.  0.
    3000001    1    3    3    0    0 -0.14619044188E+02  0.69505117705E+01  0.13548498979E+02  0.21132626231E+02  0.10000000000E+01 0. -1.
    1000022    2    1    0    0    0 -0.51412783004E+02  0.14122405491E+02  0.31040833952E+02  0.62499999326E+02  0.99999975162E+01 0.  0.
    3000022    2    3    3    0    0 -0.36793738816E+02  0.71718937206E+01  0.17492334973E+02  0.41367373095E+02  0.24999681087E+00 0.  0.
    1000022    2    1    0    0    0  0.51412783004E+02 -0.14122405491E+02 -0.31040833952E+02  0.62500000674E+02  0.10000005936E+02 0.  0.
    3000022    2    5    5    0    0  0.48434767097E+02 -0.12999560582E+02 -0.31361907423E+02  0.59148516285E+02  0.25000488614E+00 0.  0.
        -13    1    4    4    0    0 -0.19615717173E+02  0.37621438213E+01  0.93532708884E+01  0.22055039960E+02  0.10500000000E+00 0.  1.
         13    1    4    4    0    0 -0.17178021643E+02  0.34097498993E+01  0.81390640842E+01  0.19312333135E+02  0.10500000000E+00 0. -1.
    3000001    1    5    5    0    0  0.29780159065E+01 -0.11228449092E+01  0.32107347155E+00  0.33514843881E+01  0.10000000000E+01 0. -1.
        -13    1    6    6    0    0  0.22988360753E+02 -0.62184304135E+01 -0.14950404227E+02  0.28118663170E+02  0.10500000000E+00 0. -1.
         13    1    6    6    0    0  0.25446406345E+02 -0.67811301685E+01 -0.16411503196E+02  0.31029853116E+02  0.10500000000E+00 0.  1.
</event>
<event>
11    0  0.3485800E-009  0.9118800E+02  0.7816531E-02  0.1126479E+00
         25   -1    0    0    0    0  0.00000000000E+00  0.00000000000E+00  0.99999998245E-14  0.12500000000E+03  0.12500000000E+03 0.  0.
    3000001    1    3    3    0    0  0.18235616677E+02 -0.32619049401E+02 -0.62671984606E+00  0.37388940573E+02  0.10000000000E+01 0. -1.
    1000022    2    1    0    0    0  0.28130139945E+02 -0.54196757364E+02 -0.88122993299E+01  0.62499999486E+02  0.10000001709E+02 0.  0.
    3000022    2    3    3    0    0  0.98945232679E+01 -0.21577707963E+02 -0.81855794839E+01  0.25111058913E+02  0.24999321075E+00 0.  0.
    1000022    2    1    0    0    0 -0.28130139945E+02  0.54196757364E+02  0.88122993299E+01  0.62500000514E+02  0.10000008132E+02 0.  0.
    3000022    2    5    5    0    0 -0.23270386026E+02  0.35037488856E+02  0.67776722318E+01  0.42604410918E+02  0.24999535536E+00 0.  0.
        -13    1    4    4    0    0  0.66737012716E+01 -0.14675364793E+02 -0.55534371645E+01  0.17051577927E+02  0.10500000000E+00 0.  1.
         13    1    4    4    0    0  0.32208219963E+01 -0.69023431703E+01 -0.26321423194E+01  0.80594809859E+01  0.10500000000E+00 0.  1.
    3000001    1    5    5    0    0 -0.48597539185E+01  0.19159268508E+02  0.20346270982E+01  0.19895589596E+02  0.10000000000E+01 0.  1.
        -13    1    6    6    0    0 -0.65149192906E+01  0.97397765238E+01  0.18806687879E+01  0.11868250089E+02  0.10500000000E+00 0.  1.
         13    1    6    6    0    0 -0.16755466735E+02  0.25297712332E+02  0.48970034439E+01  0.30736160829E+02  0.10500000000E+00 0. -1.
</event>
<event>
11    0  0.3485800E-009  0.9118800E+02  0.7816531E-02  0.1126479E+00
         25   -1    0    0    0    0  0.00000000000E+00  0.00000000000E+00  0.99999998245E-14  0.12500000000E+03  0.12500000000E+03 0.  0.
    3000001    1    3    3    0    0 -0.20377110566E+02 -0.18968555076E+02 -0.37624804269E+02  0.46815153668E+02  0.10000000000E+01 0.  1.
    1000022    2    1    0    0    0 -0.22022786765E+02 -0.27785264636E+02 -0.50489852257E+02  0.62500005490E+02  0.10000071870E+02 0.  0.
    3000022    2    3    3    0    0 -0.16456761997E+01 -0.88167095605E+01 -0.12865047988E+02  0.15684851821E+02  0.24999859548E+00 0.  0.
    1000022    2    1    0    0    0  0.22022786765E+02  0.27785264636E+02  0.50489852257E+02  0.62499994510E+02  0.10000003251E+02 0.  0.
    3000022    2    5    5    0    0  0.17334394980E+02  0.14202428694E+02  0.31802679045E+02  0.38905823781E+02  0.24999895930E+00 0.  0.
        -13    1    4    4    0    0 -0.48148566953E+00 -0.25553541837E+01 -0.36573157467E+01  0.44887244208E+01  0.10500000000E+00 0. -1.
         13    1    4    4    0    0 -0.11641905302E+01 -0.62613553768E+01 -0.92077322411E+01  0.11196127401E+02  0.10500000000E+00 0.  1.
    3000001    1    5    5    0    0  0.46883917859E+01  0.13582835942E+02  0.18687173212E+02  0.23594170730E+02  0.10000000000E+01 0.  1.
        -13    1    6    6    0    0  0.11150372020E+02  0.91805009980E+01  0.20417342348E+02  0.25009823836E+02  0.10500000000E+00 0. -1.
         13    1    6    6    0    0  0.61840229598E+01  0.50219276961E+01  0.11385336697E+02  0.13895999945E+02  0.10500000000E+00 0.  1.
</event>
<event>
11    0  0.3485800E-009  0.9118800E+02  0.7816531E-02  0.1126479E+00
         25   -1    0    0    0    0  0.00000000000E+00  0.00000000000E+00  0.99999998245E-14  0.12500000000E+03  0.12500000000E+03 0.  0.
    3000001    1    3    3    0    0  0.30577235769E+02  0.15433610289E+02  0.45046045450E+02  0.56597790456E+02  0.10000000000E+01 0. -1.
    1000022    2    1    0    0    0  0.31181021759E+02  0.18930471732E+02  0.49755709151E+02  0.62499996213E+02  0.10000002780E+02 0.  0.
    3000022    2    3    3    0    0  0.60378598938E+00  0.34968614435E+01  0.47096637005E+01  0.59022057566E+01  0.25000629080E+00 0.  0.
    1000022    2    1    0    0    0 -0.31181021759E+02 -0.18930471732E+02 -0.49755709151E+02  0.62500003787E+02  0.10000050121E+02 0.  0.
    3000022    2    5    5    0    0 -0.22033072758E+02 -0.16715388850E+02 -0.31371145241E+02  0.41821905393E+02  0.24999469590E+00 0.  0.
        -13    1    4    4    0    0  0.16607252069E+00  0.85155331430E+00  0.11344757075E+01  0.14320556065E+01  0.10500000000E+00 0.  1.
         13    1    4    4    0    0  0.43771346868E+00  0.26453081291E+01  0.35751879930E+01  0.44701501501E+01  0.10500000000E+00 0. -1.
    3000001    1    5    5    0    0 -0.91479490006E+01 -0.22150828822E+01 -0.18384563909E+02  0.20678098395E+02  0.10000000000E+01 0.  1.
        -13    1    6    6    0    0 -0.11789579419E+02 -0.88912397966E+01 -0.16670583476E+02  0.22270332427E+02  0.10500000000E+00 0. -1.
         13    1    6    6    0    0 -0.10243493339E+02 -0.78241490532E+01 -0.14700561766E+02  0.19551572965E+02  0.10500000000E+00 0.  1.
</event>
<event>
11    0  0.3485800E-009  0.9118800E+02  0.7816531E-02  0.1126479E+00
         25   -1    0    0    0    0  0.00000000000E+00  0.00000000000E+00  0.99999998245E-14  0.12500000000E+03  0.12500000000E+03 0.  0.
    3000001    1    3    3    0    0 -0.22436788170E+02  0.32304714635E+02 -0.45919432447E+02  0.60469813356E+02  0.10000000000E+01 0. -1.
    1000022    2    1    0    0    0 -0.22946340035E+02  0.31623624382E+02 -0.47745804527E+02  0.62499999978E+02  0.10000000359E+02 0.  0.
    3000022    2    3    3    0    0 -0.50955186549E+00 -0.68109025217E+00 -0.18263720797E+01  0.20301866219E+01  0.24999142164E+00 0.  0.
    1000022    2    1    0    0    0  0.22946340035E+02 -0.31623624382E+02  0.47745804527E+02  0.62500000022E+02  0.10000000637E+02 0.  0.
    3000022    2    5    5    0    0  0.92754843233E+01 -0.21052786145E+02  0.26425074974E+02  0.35037144643E+02  0.25000681234E+00 0.  0.
        -13    1    4    4    0    0 -0.29926444031E+00 -0.43746991198E+00 -0.12494131093E+01  0.13612484148E+01  0.10500000000E+00 0.  1.
         13    1    4    4    0    0 -0.21028742518E+00 -0.24362034019E+00 -0.57695897034E+00  0.66893820701E+00  0.10500000000E+00 0. -1.
    3000001    1    5    5    0    0  0.13670855712E+02 -0.10570838237E+02  0.21320729553E+02  0.27462855380E+02  0.10000000000E+01 0. -1.
        -13    1    6    6    0    0  0.36608837031E+01 -0.83325031923E+01  0.10360110367E+02  0.13790416627E+02  0.10500000000E+00 0.  1.
         13    1    6    6    0    0  0.56146006202E+01 -0.12720282953E+02  0.16064964607E+02  0.21246728015E+02  0.10500000000E+00 0. -1.
</event>
<event>
11    0  0.3485800E-009  0.9118800E+02  0.7816531E-02  0.1126479E+00
         25   -1    0    0    0    0  0.00000000000E+00  0.00000000000E+00  0.99999998245E-14  0.12500000000E+03  0.12500000000E+03 0.  0.
    3000001    1    3    3    0    0  0.14729505566E+01  0.61697252228E+01  0.11175106320E+02  0.12888680845E+02  0.10000000000E+01 0. -1.
    1000022    2    1    0    0    0  0.89492452383E+00  0.12909004955E+02  0.60322522146E+02  0.62499999993E+02  0.10000001108E+02 0.  0.
    3000022    2    3    3    0    0 -0.57802603278E+00  0.67392797324E+01  0.49147415827E+02  0.49611319148E+02  0.24999947733E+00 0.  0.
    1000022    2    1    0    0    0 -0.89492452383E+00 -0.12909004955E+02 -0.60322522146E+02  0.62500000007E+02  0.10000001199E+02 0.  0.
    3000022    2    5    5    0    0  0.68521276028E+00  0.15809000388E+01 -0.67726007429E+01  0.69928089156E+01  0.24998849528E+00 0.  0.
        -13    1    4    4    0    0 -0.29573953412E+00  0.30802277817E+01  0.22919113995E+02  0.23127301537E+02  0.10500000000E+00 0. -1.
         13    1    4    4    0    0 -0.28228649866E+00  0.36590519507E+01  0.26228301831E+02  0.26484017611E+02  0.10500000000E+00 0.  1.
    3000001    1    5    5    0    0 -0.15801372841E+01 -0.14489904994E+02 -0.53549921403E+02  0.55507191092E+02  0.10000000000E+01 0.  1.
        -13    1    6    6    0    0  0.35870269202E+00  0.81657761842E+00 -0.32319973139E+01  0.33544445539E+01  0.10500000000E+00 0. -1.
         13    1    6    6    0    0  0.32651006826E+00  0.76432242036E+00 -0.35406034290E+01  0.36383643617E+01  0.10500000000E+00 0.  1.
</event>
<event>
11    0  0.3485800E-009  0.9118800E+02  0.7816531E-02  0.1126479E+00
         25   -1    0    0    0    0  0.00000000000E+00  0.00000000000E+00  0.99999998245E-14  0.12500000000E+03  0.12500000000E+03 0.  0.
    3000001    1    3    3    0    0 -0.10762668178E+01 -0.14636667069E+01 -0.22820713240E+02  0.22914746851E+02  0.10000000000E+01 0. -1.
    1000022    2    1    0    0    0 -0.12953799221E+02  0.39628303937E+01 -0.60189244707E+02  0.62500000344E+02  0.99999962790E+01 0.  0.
    3000022    2    3    3    0    0 -0.11877532403E+02  0.54264971006E+01 -0.37368531468E+02  0.39585253493E+02  0.25000652385E+00 0.  0.
    1000022    2    1    0    0    0  0.12953799221E+02 -0.39628303937E+01  0.60189244707E+02  0.62499999656E+02  0.99999919811E+01 0.  0.
    3000022    2    5    5    0    0  0.10085642947E+02 -0.56338272735E+01  0.55372869329E+02  0.56565690702E+02  0.25000686660E+00 0.  0.
        -13    1    4    4    0    0 -0.64402014464E+01  0.29816674113E+01 -0.20479564908E+02  0.21674642766E+02  0.10500000000E+00 0. -1.
         13    1    4    4    0    0 -0.54373309570E+01  0.24448296893E+01 -0.16888966560E+02  0.17910610727E+02  0.10500000000E+00 0.  1.
    3000001    1    5    5    0    0  0.28681562739E+01  0.16709968798E+01  0.48163753780E+01  0.59343089543E+01  0.10000000000E+01 0. -1.
        -13    1    6    6    0    0  0.36598849662E+01 -0.21034628115E+01  0.20095919295E+02  0.20534758608E+02  0.10500000000E+00 0.  1.
         13    1    6    6    0    0  0.64257579812E+01 -0.35303644621E+01  0.35276950034E+02  0.36030932094E+02  0.10500000000E+00 0. -1.
</event>
<event>
11    0  0.3485800E-009  0.9118800E+02  0.7816531E-02  0.1126479E+00
         25   -1    0    0    0    0  0.00000000000E+00  0.00000000000E+00  0.99999998245E-14  0.12500000000E+03  0.12500000000E+03 0.  0.
    3000001    1    3    3    0    0  0.29731072170E+01 -0.18687473951E+02  0.23400178741E+02  0.30110287516E+02  0.10000000000E+01 0.  1.
    1000022    2    1    0    0    0  0.10197462887E+02 -0.44733158129E+02  0.41245675124E+02  0.62499996069E+02  0.10000005332E+02 0.  0.
    3000022    2    3    3    0    0  0.72243556702E+01 -0.26045684178E+02  0.17845496383E+02  0.32389708553E+02  0.24999965768E+00 0.  0.
    1000022    2    1    0    0    0 -0.10197462887E+02  0.44733158129E+02 -0.41245675124E+02  0.62500003931E+02  0.10000054473E+02 0.  0.
    3000022    2    5    5    0    0  0.13873087339E+01  0.11843131548E+02 -0.12721025519E+02  0.17437642507E+02  0.24999115940E+00 0.  0.
        -13    1    4    4    0    0  0.22023703406E+01 -0.77889412384E+01  0.53188543336E+01  0.96860351617E+01  0.10500000000E+00 0.  1.
         13    1    4    4    0    0  0.50219853297E+01 -0.18256742940E+02  0.12526642049E+02  0.22703673391E+02  0.10500000000E+00 0. -1.
    3000001    1    5    5    0    0 -0.11584771621E+02  0.32890026582E+02 -0.28524649605E+02  0.45062361424E+02  0.10000000000E+01 0.  1.
        -13    1    6    6    0    0  0.85196969578E+00  0.68157605025E+01 -0.72723727201E+01  0.10003942901E+02  0.10500000000E+00 0.  1.
         13    1    6    6    0    0  0.53533903812E+00  0.50273710451E+01 -0.54486527985E+01  0.74336996057E+01  0.10500000000E+00 0. -1.
</event>
<event>
11    0  0.3485800E-009  0.9118800E+02  0.7816531E-02  0.1126479E+00
         25   -1    0    0    0    0  0.00000000000E+00  0.00000000000E+00  0.99999998245E-14  0.12500000000E+03  0.12500000000E+03 0.  0.
    3000001    1    3    3    0    0 -0.12081807589E+02  0.29667082603E+02  0.39687765078E+01  0.32293297320E+02  0.10000000000E+01 0.  1.
    1000022    2    1    0    0    0 -0.29651134919E+02  0.54087638853E+02  0.12599785754E+01  0.62500000053E+02  0.99999990979E+01 0.  0.
    3000022    2    3    3    0    0 -0.17569327330E+02  0.24420556249E+02 -0.27087979324E+01  0.30206702733E+02  0.24994682882E+00 0.  0.
    1000022    2    1    0    0    0  0.29651134919E+02 -0.54087638853E+02 -0.12599785754E+01  0.62499999947E+02  0.99999984356E+01 0.  0.
    3000022    2    5    5    0    0  0.48113336688E+00  0.34660808567E+00 -0.33963898885E+00  0.72764969820E+00  0.24998591714E+00 0.  0.
        -13    1    4    4    0    0 -0.82595638559E+01  0.11565719220E+02 -0.12340671015E+01  0.14266050707E+02  0.10500000000E+00 0. -1.
         13    1    4    4    0    0 -0.93097634741E+01  0.12854837030E+02 -0.14747308309E+01  0.15940652026E+02  0.10500000000E+00 0.  1.
    3000001    1    5    5    0    0  0.29170001552E+02 -0.54434246938E+02 -0.92033958656E+00  0.61772350249E+02  0.10000000000E+01 0.  1.
        -13    1    6    6    0    0  0.12342309973E+00  0.13933449425E+00 -0.79414727443E-01  0.22798917029E+00  0.10500000000E+00 0. -1.
         13    1    6    6    0    0  0.35771026715E+00  0.20727359141E+00 -0.26022426141E+00  0.49966052791E+00  0.10500000000E+00 0.  1.
</event>
<event>
11    0  0.3485800E-009  0.9118800E+02  0.7816531E-02  0.1126479E+00
         25   -1    0    0    0    0  0.00000000000E+00  0.00000000000E+00  0.99999998245E-14  0.12500000000E+03  0.12500000000E+03 0.  0.
    3000001    1    3    3    0    0  0.57120519320E+01  0.88069518234E+01 -0.56175908405E-01  0.10544813580E+02  0.10000000000E+01 0.  1.
    1000022    2    1    0    0    0  0.16330152550E+02  0.58439850463E+02 -0.11151676038E+02  0.62499999177E+02  0.10000000710E+02 0.  0.
    3000022    2    3    3    0    0  0.10618100618E+02  0.49632898639E+02 -0.11095500130E+02  0.51955185597E+02  0.24999844265E+00 0.  0.
    1000022    2    1    0    0    0 -0.16330152550E+02 -0.58439850463E+02  0.11151676038E+02  0.62500000823E+02  0.10000011003E+02 0.  0.
    3000022    2    5    5    0    0 -0.72989354374E+01 -0.28609824480E+02  0.10407994496E+02  0.31307912164E+02  0.24999877221E+00 0.  0.
        -13    1    4    4    0    0  0.38885230452E+01  0.18447906877E+02 -0.41403197799E+01  0.19302827578E+02  0.10500000000E+00 0. -1.
         13    1    4    4    0    0  0.67295775732E+01  0.31184991762E+02 -0.69551803500E+01  0.32652358019E+02  0.10500000000E+00 0.  1.
    3000001    1    5    5    0    0 -0.90312171130E+01 -0.29830025983E+02  0.74368154265E+00  0.31192088659E+02  0.10000000000E+01 0. -1.
        -13    1    6    6    0    0 -0.32289533069E+01 -0.12921628952E+02  0.46815730365E+01  0.14118172167E+02  0.10500000000E+00 0. -1.
         13    1    6    6    0    0 -0.40699821305E+01 -0.15688195527E+02  0.57264214591E+01  0.17189739997E+02  0.10500000000E+00 0.  1.
</event>
<event>
11    0  0.3485800E-009  0.9118800E+02  0.7816531E-02  0.1126479E+00
         25   -1    0    0    0    0  0.00000000000E+00  0.00000000000E+00  0.99999998245E-14  0.12500000000E+03  0.12500000000E+03 0.  0.
    3000001    1    3    3    0    0  0.29562554372E+02  0.13201096215E+02  0.30105467002E+02  0.44221631648E+02  0.10000000000E+01 0. -1.
    1000022    2    1    0    0    0  0.45384622250E+02  0.14651594002E+02  0.39138431906E+02  0.62499999371E+02  0.99999962880E+01 0.  0.
    3000022    2    3    3    0    0  0.15822067878E+02  0.14504977878E+01  0.90329649041E+01  0.18278367723E+02  0.24999175265E+00 0.  0.
    1000022    2    1    0    0    0 -0.45384622250E+02 -0.14651594002E+02 -0.39138431906E+02  0.62500000629E+02  0.10000004152E+02 0.  0.
    3000022    2    5    5    0    0 -0.35930313155E+02 -0.88087875804E+01 -0.33877674887E+02  0.50163148853E+02  0.25001002719E+00 0.  0.
        -13    1    4    4    0    0  0.83294524803E+01  0.80542043703E+00  0.48185640096E+01  0.96570215292E+01  0.10500000000E+00 0.  1.
         13    1    4    4    0    0  0.74926153977E+01  0.64507735076E+00  0.42144008946E+01  0.86213461934E+01  0.10500000000E+00 0. -1.
    3000001    1    5    5    0    0 -0.94543090951E+01 -0.58428064219E+01 -0.52607570185E+01  0.12336851777E+02  0.10000000000E+01 0. -1.
        -13    1    6    6    0    0 -0.18261595482E+02 -0.45463644598E+01 -0.17244536991E+02  0.25525289036E+02  0.10500000000E+00 0. -1.
         13    1    6    6    0    0 -0.17668717673E+02 -0.42624231206E+01 -0.16633137897E+02  0.24637859817E+02  0.10500000000E+00 0.  1.
</event>
<event>
11    0  0.3485800E-009  0.9118800E+02  0.7816531E-02  0.1126479E+00
         25   -1    0    0    0    0  0.00000000000E+00  0.00000000000E+00  0.99999998245E-14  0.12500000000E+03  0.12500000000E+03 0.  0.
    3000001    1    3    3    0    0 -0.35233417557E+01  0.25348814410E+01 -0.14421971990E+02  0.15094132539E+02  0.10000000000E+01 0. -1.
    1000022    2    1    0    0    0 -0.26344351771E+02  0.20545354562E+02 -0.51866302834E+02  0.62499997705E+02  0.99999939576E+01 0.  0.
    3000022    2    3    3    0    0 -0.22821010015E+02  0.18010473121E+02 -0.37444330845E+02  0.47405865166E+02  0.24999912150E+00 0.  0.
    1000022    2    1    0    0    0  0.26344351771E+02 -0.20545354562E+02  0.51866302834E+02  0.62500002295E+02  0.10000022639E+02 0.  0.
    3000022    2    5    5    0    0  0.23700752602E+02 -0.15020195010E+02  0.37380486900E+02  0.46740723506E+02  0.25000193741E+00 0.  0.
        -13    1    4    4    0    0 -0.86629299132E+01  0.68135245716E+01 -0.14101324700E+02  0.17897733238E+02  0.10500000000E+00 0.  1.
         13    1    4    4    0    0 -0.14158080102E+02  0.11196948550E+02 -0.23343006145E+02  0.29508131928E+02  0.10500000000E+00 0. -1.
    3000001    1    5    5    0    0  0.26435991696E+01 -0.55251595522E+01  0.14485815935E+02  0.15759278789E+02  0.10000000000E+01 0.  1.
        -13    1    6    6    0    0  0.16071267622E+02 -0.10217935843E+02  0.25298972997E+02  0.31666084626E+02  0.10500000000E+00 0. -1.
         13    1    6    6    0    0  0.76294849794E+01 -0.48022591669E+01  0.12081513903E+02  0.15074638879E+02  0.10500000000E+00 0.  1.
</event>
<event>
11    0  0.3485800E-009  0.9118800E+02  0.7816531E-02  0.1126479E+00
         25   -1    0    0    0    0  0.00000000000E+00  0.00000000000E+00  0.99999998245E-14  0.12500000000E+03  0.12500000000E+03 0.  0.
    3000001    1    3    3    0    0  0.44103689147E+02  0.23391407447E+02 -0.30074221033E+01  0.50023373800E+02  0.10000000000E+01 0.  1.
    1000022    2    1    0    0    0  0.54195097956E+02  0.29460383894E+02  0.11077540420E+01  0.62499999632E+02  0.99999986705E+01 0.  0.
    3000022    2    3    3    0    0  0.10091408809E+02  0.60689764471E+01  0.41151761453E+01  0.12476625832E+02  0.25002113868E+00 0.  0.
    1000022    2    1    0    0    0 -0.54195097956E+02 -0.29460383894E+02 -0.11077540420E+01  0.62500000368E+02  0.10000003270E+02 0.  0.
    3000022    2    5    5    0    0 -0.31184769364E+02 -0.18301940679E+02  0.40729184915E+01  0.36388212900E+02  0.25000023523E+00 0.  0.
        -13    1    4    4    0    0  0.75900734014E+01  0.45344181732E+01  0.30891829883E+01  0.93661218732E+01  0.10500000000E+00 0.  1.
         13    1    4    4    0    0  0.25013354077E+01  0.15345582738E+01  0.10259931570E+01  0.31105039585E+01  0.10500000000E+00 0. -1.
    3000001    1    5    5    0    0 -0.23010328591E+02 -0.11158443214E+02 -0.51806725335E+01  0.26111787467E+02  0.10000000000E+01 0.  1.
        -13    1    6    6    0    0 -0.93246248206E+01 -0.54241576301E+01  0.12331341897E+01  0.10858257640E+02  0.10500000000E+00 0. -1.
         13    1    6    6    0    0 -0.21860144544E+02 -0.12877783049E+02  0.28397843017E+01  0.25529955261E+02  0.10500000000E+00 0.  1.
</event>
<event>
11    0  0.3485800E-009  0.9118800E+02  0.7816531E-02  0.1126479E+00
         25   -1    0    0    0    0  0.00000000000E+00  0.00000000000E+00  0.99999998245E-14  0.12500000000E+03  0.12500000000E+03 0.  0.
    3000001    1    3    3    0    0 -0.17520485927E+02  0.15215161679E+02 -0.26389575904E+02  0.35155060637E+02  0.10000000000E+01 0. -1.
    1000022    2    1    0    0    0 -0.31812857307E+02  0.18713644881E+02 -0.49436743742E+02  0.62500000092E+02  0.99999992443E+01 0.  0.
    3000022    2    3    3    0    0 -0.14292371381E+02  0.34984832024E+01 -0.23047167839E+02  0.27344939455E+02  0.25000804681E+00 0.  0.
    1000022    2    1    0    0    0  0.31812857307E+02 -0.18713644881E+02  0.49436743742E+02  0.62499999908E+02  0.99999980925E+01 0.  0.
    3000022    2    5    5    0    0  0.21533795501E+02 -0.10445836306E+02  0.24380014629E+02  0.34165296025E+02  0.24998873142E+00 0.  0.
        -13    1    4    4    0    0 -0.68518048417E+01  0.16075868951E+01 -0.11020684955E+02  0.13076623688E+02  0.10500000000E+00 0. -1.
         13    1    4    4    0    0 -0.74405665388E+01  0.18908963073E+01 -0.12026482884E+02  0.14268315767E+02  0.10500000000E+00 0.  1.
    3000001    1    5    5    0    0  0.10279061806E+02 -0.82678085753E+01  0.25056729114E+02  0.28334703883E+02  0.10000000000E+01 0. -1.
        -13    1    6    6    0    0  0.83679475132E+01 -0.41118913891E+01  0.94407779465E+01  0.13269118645E+02  0.10500000000E+00 0.  1.
         13    1    6    6    0    0  0.13165847988E+02 -0.63339449169E+01  0.14939236682E+02  0.20896177380E+02  0.10500000000E+00 0. -1.
</event>
<event>
11    0  0.3485800E-009  0.9118800E+02  0.7816531E-02  0.1126479E+00
         25   -1    0    0    0    0  0.00000000000E+00  0.00000000000E+00  0.99999998245E-14  0.12500000000E+03  0.12500000000E+03 0.  0.
    3000001    1    3    3    0    0  0.12975112927E+02  0.44512384148E+01 -0.26496857195E+02  0.29853819188E+02  0.10000000000E+01 0.  1.
    1000022    2    1    0    0    0  0.35136613129E+02  0.11717989823E+02 -0.49339205303E+02  0.62500000158E+02  0.99999986034E+01 0.  0.
    3000022    2    3    3    0    0  0.22161500202E+02  0.72667514084E+01 -0.22842348108E+02  0.32646180970E+02  0.24999512969E+00 0.  0.
    1000022    2    1    0    0    0 -0.35136613129E+02 -0.11717989823E+02  0.49339205303E+02  0.62499999842E+02  0.99999966290E+01 0.  0.
    3000022    2    5    5    0    0 -0.16303783683E+02 -0.47064406177E+01  0.30669123708E+02  0.35051698728E+02  0.24997818311E+00 0.  0.
        -13    1    4    4    0    0  0.13886726547E+02  0.45584701933E+01 -0.14398229659E+02  0.20516843495E+02  0.10500000000E+00 0.  1.
         13    1    4    4    0    0  0.82747736551E+01  0.27082812151E+01 -0.84441184490E+01  0.12129337474E+02  0.10500000000E+00 0. -1.
    3000001    1    5    5    0    0 -0.18832829447E+02 -0.70115492056E+01  0.18670081596E+02  0.27448301114E+02  0.10000000000E+01 0.  1.
        -13    1    6    6    0    0 -0.93882205189E+01 -0.26636761310E+01  0.17734517988E+02  0.20242480290E+02  0.10500000000E+00 0.  1.
         13    1    6    6    0    0 -0.69155631637E+01 -0.20427644867E+01  0.12934605720E+02  0.14809218438E+02  0.10500000000E+00 0. -1.
</event>
<event>
11    0  0.3485800E-009  0.9118800E+02  0.7816531E-02  0.1126479E+00
         25   -1    0    0    0    0  0.00000000000E+00  0.00000000000E+00  0.99999998245E-14  0.12500000000E+03  0.12500000000E+03 0.  0.
    3000001    1    3    3    0    0 -0.43327983306E+02 -0.27981198516E+02 -0.60448294275E+01  0.51940365522E+02  0.10000000000E+01 0. -1.
    1000022    2    1    0    0    0 -0.51828248664E+02 -0.31539663660E+02 -0.11195186650E+02  0.62499998986E+02  0.99999962877E+01 0.  0.
    3000022    2    3    3    0    0 -0.85002653581E+01 -0.35584651441E+01 -0.51503572227E+01  0.10559633464E+02  0.24998806815E+00 0.  0.
    1000022    2    1    0    0    0  0.51828248664E+02  0.31539663660E+02  0.11195186650E+02  0.62500001014E+02  0.10000008961E+02 0.  0.
    3000022    2    5    5    0    0  0.26123232832E+02  0.18439613449E+02  0.10384806746E+02  0.33620668091E+02  0.24994804641E+00 0.  0.
        -13    1    4    4    0    0 -0.41306826658E+01 -0.17715560685E+01 -0.24485729993E+01  0.51193246549E+01  0.10500000000E+00 0.  1.
         13    1    4    4    0    0 -0.43695826923E+01 -0.17869090756E+01 -0.27017842235E+01  0.54403088092E+01  0.10500000000E+00 0. -1.
    3000001    1    5    5    0    0  0.25705015832E+02  0.13100050211E+02  0.81037990461E+00  0.28879332923E+02  0.10000000000E+01 0.  1.
        -13    1    6    6    0    0  0.17587210397E+02  0.12351840315E+02  0.69921054268E+01  0.22600409112E+02  0.10500000000E+00 0.  1.
         13    1    6    6    0    0  0.85360224348E+01  0.60877731335E+01  0.33927013188E+01  0.11020258979E+02  0.10500000000E+00 0. -1.
</event>
<event>
11    0  0.3485800E-009  0.9118800E+02  0.7816531E-02  0.1126479E+00
         25   -1    0    0    0    0  0.00000000000E+00  0.00000000000E+00  0.99999998245E-14  0.12500000000E+03  0.12500000000E+03 0.  0.
    3000001    1    3    3    0    0  0.10114735032E+02  0.27232915335E+02  0.30603835413E+00  0.29069454791E+02  0.10000000000E+01 0.  1.
    1000022    2    1    0    0    0  0.22341636346E+02  0.56673295919E+02 -0.97590365504E+01  0.62500000043E+02  0.10000001300E+02 0.  0.
    3000022    2    3    3    0    0  0.12226901313E+02  0.29440380585E+02 -0.10065074905E+02  0.33430545251E+02  0.24999655160E+00 0.  0.
    1000022    2    1    0    0    0 -0.22341636346E+02 -0.56673295919E+02  0.97590365504E+01  0.62499999957E+02  0.10000000766E+02 0.  0.
    3000022    2    5    5    0    0 -0.31331790093E+01 -0.20523558321E+02  0.40761777326E+01  0.21159181799E+02  0.24998526527E+00 0.  0.
        -13    1    4    4    0    0  0.68633583947E+01  0.16537261781E+02 -0.57222515454E+01  0.18797390867E+02  0.10500000000E+00 0.  1.
         13    1    4    4    0    0  0.53635429187E+01  0.12903118804E+02 -0.43428233591E+01  0.14633154384E+02  0.10500000000E+00 0. -1.
    3000001    1    5    5    0    0 -0.19208457336E+02 -0.36149737599E+02  0.56828588178E+01  0.41340818159E+02  0.10000000000E+01 0.  1.
        -13    1    6    6    0    0 -0.15528541187E+01 -0.10566960465E+02  0.21295937108E+01  0.10891198454E+02  0.10500000000E+00 0. -1.
         13    1    6    6    0    0 -0.15803248906E+01 -0.99565978552E+01  0.19465840218E+01  0.10267983345E+02  0.10500000000E+00 0.  1.
</event>
<event>
11    0  0.3485800E-009  0.9118800E+02  0.7816531E-02  0.1126479E+00
         25   -1    0    0    0    0  0.00000000000E+00  0.00000000000E+00  0.99999998245E-14  0.12500000000E+03  0.12500000000E+03 0.  0.
    3000001    1    3    3    0    0 -0.24350162155E+01  0.86651174081E+01 -0.21078315671E+02  0.22941424437E+02  0.10000000000E+01 0. -1.
    1000022    2    1    0    0    0  0.62523101056E+01  0.24257452380E+02 -0.56380267207E+02  0.62499999117E+02  0.99999990884E+01 0.  0.
    3000022    2    3    3    0    0  0.86873263211E+01  0.15592334972E+02 -0.35301951535E+02  0.39558574680E+02  0.25000010268E+00 0.  0.
    1000022    2    1    0    0    0 -0.62523101056E+01 -0.24257452380E+02  0.56380267207E+02  0.62500000883E+02  0.10000010121E+02 0.  0.
    3000022    2    5    5    0    0 -0.31231498210E+01 -0.17197127475E+02  0.27476080945E+02  0.32565208161E+02  0.25000054592E+00 0.  0.
        -13    1    4    4    0    0  0.62730518336E+01  0.11233427827E+02 -0.25528185803E+02  0.28587416382E+02  0.10500000000E+00 0. -1.
         13    1    4    4    0    0  0.24142744874E+01  0.43589071453E+01 -0.97737657325E+01  0.10971158298E+02  0.10500000000E+00 0.  1.
    3000001    1    5    5    0    0 -0.31291602846E+01 -0.70603249051E+01  0.28904186262E+02  0.29934792722E+02  0.10000000000E+01 0.  1.
        -13    1    6    6    0    0 -0.21341050133E+01 -0.11791183613E+02  0.18927051982E+02  0.22401578893E+02  0.10500000000E+00 0. -1.
         13    1    6    6    0    0 -0.98904480767E+00 -0.54059438618E+01  0.85490289634E+01  0.10163629267E+02  0.10500000000E+00 0.  1.
</event>
<event>
11    0  0.3485800E-009  0.9118800E+02  0.7816531E-02  0.1126479E+00
         25   -1    0    0    0    0  0.00000000000E+00  0.00000000000E+00  0.99999998245E-14  0.12500000000E+03  0.12500000000E+03 0.  0.
    3000001    1    3    3    0    0 -0.21401589608E+01 -0.38897209001E+01  0.56153491788E+00  0.45853604572E+01  0.10000000000E+01 0. -1.
    1000022    2    1    0    0    0 -0.38281254793E+02 -0.34785462550E+02  0.33626882028E+02  0.62499998938E+02  0.99999899507E+01 0.  0.
    3000022    2    3    3    0    0 -0.36141095832E+02 -0.30895741650E+02  0.33065347110E+02  0.57914638481E+02  0.25002166912E+00 0.  0.
    1000022    2    1    0    0    0  0.38281254793E+02  0.34785462550E+02 -0.33626882028E+02  0.62500001062E+02  0.10000003221E+02 0.  0.
    3000022    2    5    5    0    0  0.33497222939E+02  0.27731337667E+02 -0.31385694341E+02  0.53630358403E+02  0.24999941798E+00 0.  0.
        -13    1    4    4    0    0 -0.86991530149E+01 -0.74336403163E+01  0.79818820344E+01  0.13951908018E+02  0.10500000000E+00 0.  1.
         13    1    4    4    0    0 -0.27441942818E+02 -0.23462101334E+02  0.25083465076E+02  0.43962730463E+02  0.10500000000E+00 0. -1.
    3000001    1    5    5    0    0  0.47840318540E+01  0.70541248832E+01 -0.22411876870E+01  0.88696426589E+01  0.10000000000E+01 0.  1.
        -13    1    6    6    0    0  0.13860742775E+02  0.11488419126E+02 -0.13071612569E+02  0.22248191936E+02  0.10500000000E+00 0.  1.
         13    1    6    6    0    0  0.19636480164E+02  0.16242918541E+02 -0.18314081772E+02  0.31382166466E+02  0.10500000000E+00 0. -1.
</event>
<event>
11    0  0.3485800E-009  0.9118800E+02  0.7816531E-02  0.1126479E+00
         25   -1    0    0    0    0  0.00000000000E+00  0.00000000000E+00  0.99999998245E-14  0.12500000000E+03  0.12500000000E+03 0.  0.
    3000001    1    3    3    0    0  0.49742487851E+01 -0.27090957967E+02  0.10551398722E+02  0.29512627290E+02  0.10000000000E+01 0.  1.
    1000022    2    1    0    0    0  0.53479129027E+01 -0.53366763645E+02  0.30489973941E+02  0.62500001281E+02  0.10000000747E+02 0.  0.
    3000022    2    3    3    0    0  0.37366411759E+00 -0.26275805677E+02  0.19938575219E+02  0.32987373991E+02  0.24994444671E+00 0.  0.
    1000022    2    1    0    0    0 -0.53479129027E+01  0.53366763645E+02 -0.30489973941E+02  0.62499998719E+02  0.99999847321E+01 0.  0.
    3000022    2    5    5    0    0 -0.30772916409E+01  0.50779221301E+02 -0.29379716915E+02  0.58747164196E+02  0.24999053643E+00 0.  0.
        -13    1    4    4    0    0  0.21219060140E+00 -0.10793268752E+02  0.82229540494E+01  0.13570839086E+02  0.10500000000E+00 0. -1.
         13    1    4    4    0    0  0.16147351619E+00 -0.15482536925E+02  0.11715621169E+02  0.19416534905E+02  0.10500000000E+00 0.  1.
    3000001    1    5    5    0    0 -0.22706212617E+01  0.25875423440E+01 -0.11102570254E+01  0.37528345232E+01  0.10000000000E+01 0. -1.
        -13    1    6    6    0    0 -0.13268843807E+01  0.22996988090E+02 -0.13298298163E+02  0.26598455640E+02  0.10500000000E+00 0. -1.
         13    1    6    6    0    0 -0.17504072602E+01  0.27782233210E+02 -0.16081418752E+02  0.32148708556E+02  0.10500000000E+00 0.  1.
</event>
<event>
11    0  0.3485800E-009  0.9118800E+02  0.7816531E-02  0.1126479E+00
         25   -1    0    0    0    0  0.00000000000E+00  0.00000000000E+00  0.99999998245E-14  0.12500000000E+03  0.12500000000E+03 0.  0.
    3000001    1    3    3    0    0  0.30294702461E+01 -0.20918092107E+01  0.48124981787E+01  0.61411313669E+01  0.10000000000E+01 0. -1.
    1000022    2    1    0    0    0  0.41630249277E+02 -0.36525725518E+02  0.27185358101E+02  0.62500000184E+02  0.10000002420E+02 0.  0.
    3000022    2    3    3    0    0  0.38600779031E+02 -0.34433916307E+02  0.22372859923E+02  0.56358868817E+02  0.24999831681E+00 0.  0.
    1000022    2    1    0    0    0 -0.41630249277E+02  0.36525725518E+02 -0.27185358101E+02  0.62499999816E+02  0.10000000119E+02 0.  0.
    3000022    2    5    5    0    0 -0.29309064324E+02  0.20386457060E+02 -0.20095203542E+02  0.40969605563E+02  0.24998317057E+00 0.  0.
        -13    1    4    4    0    0  0.21531387326E+02 -0.19291304450E+02  0.12526490944E+02  0.31506809867E+02  0.10500000000E+00 0.  1.
         13    1    4    4    0    0  0.17069391705E+02 -0.15142611857E+02  0.98463689782E+01  0.24852058951E+02  0.10500000000E+00 0. -1.
    3000001    1    5    5    0    0 -0.12321184953E+02  0.16139268458E+02 -0.70901545592E+01  0.21530394253E+02  0.10000000000E+01 0. -1.
        -13    1    6    6    0    0 -0.17484139337E+02  0.12118825376E+02 -0.12034620587E+02  0.24441852928E+02  0.10500000000E+00 0.  1.
         13    1    6    6    0    0 -0.11824924987E+02  0.82676316838E+01 -0.80605829550E+01  0.16527752635E+02  0.10500000000E+00 0. -1.
</event>
<event>
11    0  0.3485800E-009  0.9118800E+02  0.7816531E-02  0.1126479E+00
         25   -1    0    0    0    0  0.00000000000E+00  0.00000000000E+00  0.99999998245E-14  0.12500000000E+03  0.12500000000E+03 0.  0.
    3000001    1    3    3    0    0  0.24330300873E+02  0.14978926447E+02 -0.18267897437E+02  0.33927096175E+02  0.10000000000E+01 0. -1.
    1000022    2    1    0    0    0  0.48635846314E+02  0.19413069666E+02 -0.32618053077E+02  0.62499996474E+02  0.99999676065E+01 0.  0.
    3000022    2    3    3    0    0  0.24305545441E+02  0.44341432188E+01 -0.14350155639E+02  0.28572900299E+02  0.24999865171E+00 0.  0.
    1000022    2    1    0    0    0 -0.48635846314E+02 -0.19413069666E+02  0.32618053077E+02  0.62500003526E+02  0.10000011688E+02 0.  0.
    3000022    2    5    5    0    0 -0.14057033890E+02 -0.11474448533E+01  0.70853436088E+01  0.15785481467E+02  0.24999924100E+00 0.  0.
        -13    1    4    4    0    0  0.11266293386E+02  0.20849170029E+01 -0.67249014122E+01  0.13285765675E+02  0.10500000000E+00 0.  1.
         13    1    4    4    0    0  0.13039252056E+02  0.23492262159E+01 -0.76252542271E+01  0.15287134624E+02  0.10500000000E+00 0. -1.
    3000001    1    5    5    0    0 -0.34578812424E+02 -0.18265624812E+02  0.25532709468E+02  0.46714522059E+02  0.10000000000E+01 0. -1.
        -13    1    6    6    0    0 -0.41928306895E+01 -0.36155765230E+00  0.20686001286E+01  0.46904887399E+01  0.10500000000E+00 0.  1.
         13    1    6    6    0    0 -0.98642032004E+01 -0.78588720104E+00  0.50167434802E+01  0.11094992727E+02  0.10500000000E+00 0. -1.
</event>
<event>
11    0  0.3485800E-009  0.9118800E+02  0.7816531E-02  0.1126479E+00
         25   -1    0    0    0    0  0.00000000000E+00  0.00000000000E+00  0.99999998245E-14  0.12500000000E+03  0.12500000000E+03 0.  0.
    3000001    1    3    3    0    0 -0.97736023834E+00 -0.91078953883E+00 -0.75958548676E+00  0.18335050399E+01  0.10000000000E+01 0.  1.
    1000022    2    1    0    0    0 -0.60721888162E+02  0.34019508038E+01 -0.10369621215E+02  0.62500000185E+02  0.10000000393E+02 0.  0.
    3000022    2    3    3    0    0 -0.59744527923E+02  0.43127403426E+01 -0.96100357281E+01  0.60666495146E+02  0.25000104557E+00 0.  0.
    1000022    2    1    0    0    0  0.60721888162E+02 -0.34019508038E+01  0.10369621215E+02  0.62499999815E+02  0.99999980753E+01 0.  0.
    3000022    2    5    5    0    0  0.36630111014E+02  0.15412762228E+01  0.94835522400E+01  0.37870051829E+02  0.24999423804E+00 0.  0.
        -13    1    4    4    0    0 -0.26352660421E+02  0.18441810555E+01 -0.42058416264E+01  0.26750025118E+02  0.10500000000E+00 0.  1.
         13    1    4    4    0    0 -0.33391867503E+02  0.24685592872E+01 -0.54041941017E+01  0.33916470028E+02  0.10500000000E+00 0. -1.
    3000001    1    5    5    0    0  0.24091777148E+02 -0.49432270266E+01  0.88606897491E+00  0.24629947986E+02  0.10000000000E+01 0.  1.
        -13    1    6    6    0    0  0.20410699976E+02  0.92205258006E+00  0.52642812409E+01  0.21099064824E+02  0.10500000000E+00 0. -1.
         13    1    6    6    0    0  0.16219411038E+02  0.61922364273E+00  0.42192709991E+01  0.16770987004E+02  0.10500000000E+00 0.  1.
</event>
<event>
11    0  0.3485800E-009  0.9118800E+02  0.7816531E-02  0.1126479E+00
         25   -1    0    0    0    0  0.00000000000E+00  0.00000000000E+00  0.99999998245E-14  0.12500000000E+03  0.12500000000E+03 0.  0.
    3000001    1    3    3    0    0  0.54128077976E+01  0.20108904747E+02  0.16661397866E+02  0.26688362955E+02  0.10000000000E+01 0. -1.
    1000022    2    1    0    0    0  0.89323738125E+01  0.39406349375E+02  0.46621908607E+02  0.62500000899E+02  0.10000003865E+02 0.  0.
    3000022    2    3    3    0    0  0.35195660149E+01  0.19297444628E+02  0.29960510741E+02  0.35811637945E+02  0.24998860795E+00 0.  0.
    1000022    2    1    0    0    0 -0.89323738125E+01 -0.39406349375E+02 -0.46621908607E+02  0.62499999101E+02  0.99999926218E+01 0.  0.
    3000022    2    5    5    0    0  0.19721933982E+01 -0.10731753806E+02 -0.11465810897E+02  0.15829952783E+02  0.24999806779E+00 0.  0.
        -13    1    4    4    0    0  0.26475994367E+01  0.14533274727E+02  0.22517532626E+02  0.26930951666E+02  0.10500000000E+00 0. -1.
         13    1    4    4    0    0  0.87196657822E+00  0.47641699012E+01  0.74429781152E+01  0.88806862789E+01  0.10500000000E+00 0.  1.
    3000001    1    5    5    0    0 -0.10904567211E+02 -0.28674595569E+02 -0.35156097710E+02  0.46670046318E+02  0.10000000000E+01 0.  1.
        -13    1    6    6    0    0  0.59042422431E+00 -0.32405322059E+01 -0.33955891527E+01  0.47318812787E+01  0.10500000000E+00 0.  1.
         13    1    6    6    0    0  0.13817691739E+01 -0.74912216004E+01 -0.80702217440E+01  0.11098071504E+02  0.10500000000E+00 0. -1.
</event>
<event>
11    0  0.3485800E-009  0.9118800E+02  0.7816531E-02  0.1126479E+00
         25   -1    0    0    0    0  0.00000000000E+00  0.00000000000E+00  0.99999998245E-14  0.12500000000E+03  0.12500000000E+03 0.  0.
    3000001    1    3    3    0    0  0.15465742156E+02  0.16076987824E+01 -0.23044820328E+01  0.15750698818E+02  0.10000000000E+01 0.  1.
    1000022    2    1    0    0    0  0.61389324971E+02 -0.94507150050E+00  0.60586879833E+01  0.62500000455E+02  0.99999988098E+01 0.  0.
    3000022    2    3    3    0    0  0.45923582815E+02 -0.25527702829E+01  0.83631700161E+01  0.46749301637E+02  0.24999222699E+00 0.  0.
    1000022    2    1    0    0    0 -0.61389324971E+02  0.94507150050E+00 -0.60586879833E+01  0.62499999545E+02  0.99999931226E+01 0.  0.
    3000022    2    5    5    0    0 -0.13246779143E+02 -0.36046685906E+01 -0.28709343349E+01  0.14027671077E+02  0.24999718079E+00 0.  0.
        -13    1    4    4    0    0  0.32427323626E+02 -0.18450292823E+01  0.58935510849E+01  0.33010307784E+02  0.10500000000E+00 0.  1.
         13    1    4    4    0    0  0.13496259189E+02 -0.70774100060E+00  0.24696189311E+01  0.13738993853E+02  0.10500000000E+00 0. -1.
    3000001    1    5    5    0    0 -0.48142545829E+02  0.45497400911E+01 -0.31877536484E+01  0.48472328468E+02  0.10000000000E+01 0.  1.
        -13    1    6    6    0    0 -0.77208327779E+01 -0.20650032924E+01 -0.17269708481E+01  0.81773437431E+01  0.10500000000E+00 0. -1.
         13    1    6    6    0    0 -0.55259463647E+01 -0.15396652982E+01 -0.11439634868E+01  0.58503273340E+01  0.10500000000E+00 0.  1.
</event>
<event>
11    0  0.3485800E-009  0.9118800E+02  0.7816531E-02  0.1126479E+00
         25   -1    0    0    0    0  0.00000000000E+00  0.00000000000E+00  0.99999998245E-14  0.12500000000E+03  0.12500000000E+03 0.  0.
    3000001    1    3    3    0    0 -0.28110957090E+02 -0.29107835473E+02  0.13122844620E+02  0.42552333019E+02  0.10000000000E+01 0.  1.
    1000022    2    1    0    0    0 -0.44723257809E+02 -0.40108801992E+02  0.14048640551E+02  0.62499999518E+02  0.99999926062E+01 0.  0.
    3000022    2    3    3    0    0 -0.16612300719E+02 -0.11000966519E+02  0.92579593021E+00  0.19947666499E+02  0.25000221900E+00 0.  0.
    1000022    2    1    0    0    0  0.44723257809E+02  0.40108801992E+02 -0.14048640551E+02  0.62500000482E+02  0.99999986316E+01 0.  0.
    3000022    2    5    5    0    0  0.42252399833E+02  0.38702521190E+02 -0.15188000594E+02  0.59278059120E+02  0.24998573592E+00 0.  0.
        -13    1    4    4    0    0 -0.85252875113E+01 -0.57192612022E+01  0.50555732424E+00  0.10278963423E+02  0.10500000000E+00 0. -1.
         13    1    4    4    0    0 -0.80870132079E+01 -0.52817053172E+01  0.42023860597E+00  0.96687030758E+01  0.10500000000E+00 0.  1.
    3000001    1    5    5    0    0  0.24708579759E+01  0.14062808019E+01  0.11393600434E+01  0.32219413619E+01  0.10000000000E+01 0.  1.
        -13    1    6    6    0    0  0.17204821512E+02  0.15716736418E+02 -0.61195311665E+01  0.24093181060E+02  0.10500000000E+00 0.  1.
         13    1    6    6    0    0  0.25047578321E+02  0.22985784773E+02 -0.90684694275E+01  0.35184878060E+02  0.10500000000E+00 0. -1.
</event>
<event>
11    0  0.3485800E-009  0.9118800E+02  0.7816531E-02  0.1126479E+00
         25   -1    0    0    0    0  0.00000000000E+00  0.00000000000E+00  0.99999998245E-14  0.12500000000E+03  0.12500000000E+03 0.  0.
    3000001    1    3    3    0    0  0.59594624857E+01 -0.27459826673E+02 -0.24941481022E+02  0.37585033585E+02  0.10000000000E+01 0.  1.
    1000022    2    1    0    0    0  0.19745978030E+01 -0.46609506270E+02 -0.40372084770E+02  0.62499997063E+02  0.99999646521E+01 0.  0.
    3000022    2    3    3    0    0 -0.39848646827E+01 -0.19149679597E+02 -0.15430603747E+02  0.24914963478E+02  0.24999577616E+00 0.  0.
    1000022    2    1    0    0    0 -0.19745978030E+01  0.46609506270E+02  0.40372084770E+02  0.62500002937E+02  0.10000001360E+02 0.  0.
    3000022    2    5    5    0    0  0.38697955508E+01  0.15165504066E+02  0.11814155388E+02  0.19611338481E+02  0.24999654570E+00 0.  0.
        -13    1    4    4    0    0 -0.14449510845E+01 -0.66675715735E+01 -0.53841896848E+01  0.86916579481E+01  0.10500000000E+00 0.  1.
         13    1    4    4    0    0 -0.25399135982E+01 -0.12482108024E+02 -0.10046414063E+02  0.16223305530E+02  0.10500000000E+00 0. -1.
    3000001    1    5    5    0    0 -0.58443933538E+01  0.31444002204E+02  0.28557929381E+02  0.42888664456E+02  0.10000000000E+01 0. -1.
        -13    1    6    6    0    0  0.15766882144E+01  0.62928534785E+01  0.49695691734E+01  0.81727347563E+01  0.10500000000E+00 0. -1.
         13    1    6    6    0    0  0.22931073365E+01  0.88726505879E+01  0.68445862149E+01  0.11438603724E+02  0.10500000000E+00 0.  1.
</event>
<event>
11    0  0.3485800E-009  0.9118800E+02  0.7816531E-02  0.1126479E+00
         25   -1    0    0    0    0  0.00000000000E+00  0.00000000000E+00  0.99999998245E-14  0.12500000000E+03  0.12500000000E+03 0.  0.
    3000001    1    3    3    0    0 -0.42779308478E+01  0.38664583585E+02 -0.21815820147E+02  0.44611441636E+02  0.10000000000E+01 0. -1.
    1000022    2    1    0    0    0 -0.44428078474E+01  0.50382228497E+02 -0.35329061081E+02  0.62500000998E+02  0.10000003898E+02 0.  0.
    3000022    2    3    3    0    0 -0.16487699954E+00  0.11717644912E+02 -0.13513240934E+02  0.17888559362E+02  0.24997759429E+00 0.  0.
    1000022    2    1    0    0    0  0.44428078474E+01 -0.50382228497E+02  0.35329061081E+02  0.62499999002E+02  0.99999914284E+01 0.  0.
    3000022    2    5    5    0    0 -0.19595685771E+01 -0.26970050260E+01  0.32645518523E+01  0.46726377155E+01  0.24999860921E+00 0.  0.
        -13    1    4    4    0    0 -0.13011373615E+00  0.77222711943E+01 -0.89821611746E+01  0.11846545756E+02  0.10500000000E+00 0.  1.
         13    1    4    4    0    0 -0.34763263394E-01  0.39953737179E+01 -0.45310797592E+01  0.60420136059E+01  0.10500000000E+00 0. -1.
    3000001    1    5    5    0    0  0.64023764245E+01 -0.47685223471E+02  0.32064509229E+02  0.57827361287E+02  0.10000000000E+01 0.  1.
        -13    1    6    6    0    0 -0.66569002787E+00 -0.98635074916E+00  0.11108647015E+01  0.16312806008E+01  0.10500000000E+00 0.  1.
         13    1    6    6    0    0 -0.12938785493E+01 -0.17106542769E+01  0.21536871508E+01  0.30413571146E+01  0.10500000000E+00 0. -1.
</event>
<event>
11    0  0.3485800E-009  0.9118800E+02  0.7816531E-02  0.1126479E+00
         25   -1    0    0    0    0  0.00000000000E+00  0.00000000000E+00  0.99999998245E-14  0.12500000000E+03  0.12500000000E+03 0.  0.
    3000001    1    3    3    0    0  0.28714909536E+02  0.31918332212E+02  0.25348529423E+02  0.49868566299E+02  0.10000000000E+01 0.  1.
    1000022    2    1    0    0    0  0.38695640357E+02  0.39312034300E+02  0.27630801482E+02  0.62499998531E+02  0.10000000123E+02 0.  0.
    3000022    2    3    3    0    0  0.99807308211E+01  0.73937020878E+01  0.22822720592E+01  0.12631432232E+02  0.24999238418E+00 0.  0.
    1000022    2    1    0    0    0 -0.38695640357E+02 -0.39312034300E+02 -0.27630801482E+02  0.62500001469E+02  0.10000018482E+02 0.  0.
    3000022    2    5    5    0    0 -0.21086458428E+02 -0.24445824704E+02 -0.20944758663E+02  0.38483535356E+02  0.25000716755E+00 0.  0.
        -13    1    4    4    0    0  0.51787217332E+01  0.37803481675E+01  0.12294579948E+01  0.65293784557E+01  0.10500000000E+00 0.  1.
         13    1    4    4    0    0  0.48020090879E+01  0.36133539203E+01  0.10528140644E+01  0.61020537762E+01  0.10500000000E+00 0. -1.
    3000001    1    5    5    0    0 -0.17609181929E+02 -0.14866209596E+02 -0.66860428197E+01  0.24016466113E+02  0.10000000000E+01 0.  1.
        -13    1    6    6    0    0 -0.59387805067E+01 -0.69471452998E+01 -0.59331280288E+01  0.10897016790E+02  0.10500000000E+00 0.  1.
         13    1    6    6    0    0 -0.15147677921E+02 -0.17498679404E+02 -0.15011630634E+02  0.27586518566E+02  0.10500000000E+00 0. -1.
</event>
<event>
11    0  0.3485800E-009  0.9118800E+02  0.7816531E-02  0.1126479E+00
         25   -1    0    0    0    0  0.00000000000E+00  0.00000000000E+00  0.99999998245E-14  0.12500000000E+03  0.12500000000E+03 0.  0.
    3000001    1    3    3    0    0  0.15319501966E+01 -0.51519592666E+01  0.27358904843E+01  0.61134812040E+01  0.10000000000E+01 0. -1.
    1000022    2    1    0    0    0  0.27776532407E+02 -0.55052284267E+02  0.19899759435E+01  0.62499999273E+02  0.10000007469E+02 0.  0.
    3000022    2    3    3    0    0  0.26244582210E+02 -0.49900325000E+02 -0.74591454078E+00  0.56386518070E+02  0.25000193682E+00 0.  0.
    1000022    2    1    0    0    0 -0.27776532407E+02  0.55052284267E+02 -0.19899759435E+01  0.62500000727E+02  0.10000016550E+02 0.  0.
    3000022    2    5    5    0    0 -0.73538221335E+01  0.21539698725E+02 -0.43399487989E+01  0.23171857406E+02  0.24999786410E+00 0.  0.
        -13    1    4    4    0    0  0.93871369210E+01 -0.17725367964E+02 -0.26033739639E+00  0.20059556565E+02  0.10500000000E+00 0. -1.
         13    1    4    4    0    0  0.16857445289E+02 -0.32174957036E+02 -0.48557714439E+00  0.36326961504E+02  0.10500000000E+00 0.  1.
    3000001    1    5    5    0    0 -0.20422710274E+02  0.33512585541E+02  0.23499728553E+01  0.39328143320E+02  0.10000000000E+01 0. -1.
        -13    1    6    6    0    0 -0.54320322551E+01  0.15956153564E+02 -0.32420652160E+01  0.17164726122E+02  0.10500000000E+00 0. -1.
         13    1    6    6    0    0 -0.19217898784E+01  0.55835451614E+01 -0.10978835828E+01  0.60071312843E+01  0.10500000000E+00 0.  1.
</event>
<event>
11    0  0.3485800E-009  0.9118800E+02  0.7816531E-02  0.1126479E+00
         25   -1    0    0    0    0  0.00000000000E+00  0.00000000000E+00  0.99999998245E-14  0.12500000000E+03  0.12500000000E+03 0.  0.
    3000001    1    3    3    0    0 -0.26615928165E+02 -0.66193059292E+01 -0.27145862539E+02  0.38602081499E+02  0.10000000000E+01 0. -1.
    1000022    2    1    0    0    0 -0.38064767211E+02 -0.16416861324E+02 -0.45692562188E+02  0.62500001424E+02  0.10000005010E+02 0.  0.
    3000022    2    3    3    0    0 -0.11448839046E+02 -0.97975553952E+01 -0.18546699648E+02  0.23897919925E+02  0.25000334978E+00 0.  0.
    1000022    2    1    0    0    0  0.38064767211E+02  0.16416861324E+02  0.45692562188E+02  0.62499998576E+02  0.99999872086E+01 0.  0.
    3000022    2    5    5    0    0  0.37155342335E+02  0.14994694975E+02  0.40597265033E+02  0.57039992731E+02  0.25000237676E+00 0.  0.
        -13    1    4    4    0    0 -0.65544722468E+01 -0.56317960458E+01 -0.10735645251E+02  0.13781993219E+02  0.10500000000E+00 0.  1.
         13    1    4    4    0    0 -0.48943667987E+01 -0.41657593493E+01 -0.78110543974E+01  0.10115926706E+02  0.10500000000E+00 0. -1.
    3000001    1    5    5    0    0  0.90942487560E+00  0.14221663491E+01  0.50952971548E+01  0.54600058447E+01  0.10000000000E+01 0. -1.
        -13    1    6    6    0    0  0.27121973445E+02  0.10961623298E+02  0.29593635211E+02  0.41611932169E+02  0.10500000000E+00 0. -1.
         13    1    6    6    0    0  0.10033368890E+02  0.40330716774E+01  0.11003629822E+02  0.15428060562E+02  0.10500000000E+00 0.  1.
</event>
<event>
11    0  0.3485800E-009  0.9118800E+02  0.7816531E-02  0.1126479E+00
         25   -1    0    0    0    0  0.00000000000E+00  0.00000000000E+00  0.99999998245E-14  0.12500000000E+03  0.12500000000E+03 0.  0.
    3000001    1    3    3    0    0 -0.14564314543E+02 -0.13389216152E+02 -0.50600774140E+01  0.20444919924E+02  0.10000000000E+01 0.  1.
    1000022    2    1    0    0    0 -0.34056260112E+02 -0.45678862623E+02 -0.23661423588E+02  0.62500000330E+02  0.99999865838E+01 0.  0.
    3000022    2    3    3    0    0 -0.19491945569E+02 -0.32289646471E+02 -0.18601346174E+02  0.42055080406E+02  0.24999431073E+00 0.  0.
    1000022    2    1    0    0    0  0.34056260112E+02  0.45678862623E+02  0.23661423588E+02  0.62499999670E+02  0.99999824623E+01 0.  0.
    3000022    2    5    5    0    0  0.33943469698E+02  0.43344191738E+02  0.21301851412E+02  0.59031427821E+02  0.25000885013E+00 0.  0.
        -13    1    4    4    0    0 -0.89896577939E+01 -0.14823353411E+02 -0.84865112486E+01  0.19302270638E+02  0.10500000000E+00 0.  1.
         13    1    4    4    0    0 -0.10502287775E+02 -0.17466293060E+02 -0.10114834926E+02  0.22752809768E+02  0.10500000000E+00 0. -1.
    3000001    1    5    5    0    0  0.11279041334E+00  0.23346708847E+01  0.23595721764E+01  0.34685718492E+01  0.10000000000E+01 0.  1.
        -13    1    6    6    0    0  0.22225889094E+02  0.28437744379E+02  0.14011867894E+02  0.38717423962E+02  0.10500000000E+00 0. -1.
         13    1    6    6    0    0  0.11717580604E+02  0.14906447359E+02  0.72899835176E+01  0.20314003859E+02  0.10500000000E+00 0.  1.
</event>
<event>
11    0  0.3485800E-009  0.9118800E+02  0.7816531E-02  0.1126479E+00
         25   -1    0    0    0    0  0.00000000000E+00  0.00000000000E+00  0.99999998245E-14  0.12500000000E+03  0.12500000000E+03 0.  0.
    3000001    1    3    3    0    0 -0.11953061928E+02  0.15449252455E+02  0.48664130174E+02  0.52447618216E+02  0.10000000000E+01 0.  1.
    1000022    2    1    0    0    0 -0.15933208802E+02  0.14412207842E+02  0.57833139779E+02  0.62499994324E+02  0.99999178062E+01 0.  0.
    3000022    2    3    3    0    0 -0.39801468736E+01 -0.10370446124E+01  0.91690096048E+01  0.10052376108E+02  0.24999524165E+00 0.  0.
    1000022    2    1    0    0    0  0.15933208802E+02 -0.14412207842E+02 -0.57833139779E+02  0.62500005676E+02  0.99999887620E+01 0.  0.
    3000022    2    5    5    0    0  0.10338481253E+02 -0.29126801483E+01 -0.23175995598E+02  0.25545198731E+02  0.25001203923E+00 0.  0.
        -13    1    4    4    0    0 -0.26276664954E+01 -0.73490840531E+00  0.61345106296E+01  0.67147574223E+01  0.10500000000E+00 0. -1.
         13    1    4    4    0    0 -0.13524803782E+01 -0.30213620706E+00  0.30344989752E+01  0.33376186857E+01  0.10500000000E+00 0.  1.
    3000001    1    5    5    0    0  0.55947275485E+01 -0.11499527694E+02 -0.34657144182E+02  0.36954806945E+02  0.10000000000E+01 0. -1.
        -13    1    6    6    0    0  0.69861285823E+01 -0.19665532199E+01 -0.15780645390E+02  0.17369891136E+02  0.10500000000E+00 0.  1.
         13    1    6    6    0    0  0.33523526708E+01 -0.94612692839E+00 -0.73953502071E+01  0.81753075955E+01  0.10500000000E+00 0. -1.
</event>
<event>
11    0  0.3485800E-009  0.9118800E+02  0.7816531E-02  0.1126479E+00
         25   -1    0    0    0    0  0.00000000000E+00  0.00000000000E+00  0.99999998245E-14  0.12500000000E+03  0.12500000000E+03 0.  0.
    3000001    1    3    3    0    0  0.49663055999E+01  0.19593620777E+01  0.15619369380E+02  0.16536867626E+02  0.10000000000E+01 0.  1.
    1000022    2    1    0    0    0  0.23792696217E+02  0.21598196136E+02  0.52665686385E+02  0.62499992995E+02  0.10000006613E+02 0.  0.
    3000022    2    3    3    0    0  0.18826390617E+02  0.19638834058E+02  0.37046317006E+02  0.45963125369E+02  0.25000621229E+00 0.  0.
    1000022    2    1    0    0    0 -0.23792696217E+02 -0.21598196136E+02 -0.52665686385E+02  0.62500007005E+02  0.10000094179E+02 0.  0.
    3000022    2    5    5    0    0 -0.47296659439E+01 -0.10441860492E+02 -0.16009570060E+02  0.19691902489E+02  0.24999931447E+00 0.  0.
        -13    1    4    4    0    0  0.10161667312E+02  0.10507134507E+02  0.19936771528E+02  0.24721351947E+02  0.10500000000E+00 0. -1.
         13    1    4    4    0    0  0.86647233059E+01  0.91316995514E+01  0.17109545478E+02  0.21241773422E+02  0.10500000000E+00 0.  1.
    3000001    1    5    5    0    0 -0.19063030273E+02 -0.11156335644E+02 -0.36656116326E+02  0.42808104517E+02  0.10000000000E+01 0. -1.
        -13    1    6    6    0    0 -0.36427708982E+01 -0.80179980767E+01 -0.12294247027E+02  0.15123412575E+02  0.10500000000E+00 0.  1.
         13    1    6    6    0    0 -0.10868950457E+01 -0.24238624153E+01 -0.37153230328E+01  0.45684899132E+01  0.10500000000E+00 0. -1.
</event>
<event>
11    0  0.3485800E-009  0.9118800E+02  0.7816531E-02  0.1126479E+00
         25   -1    0    0    0    0  0.00000000000E+00  0.00000000000E+00  0.99999998245E-14  0.12500000000E+03  0.12500000000E+03 0.  0.
    3000001    1    3    3    0    0 -0.65233715053E+00  0.43345895458E+02 -0.28078978203E+02  0.51659667186E+02  0.10000000000E+01 0. -1.
    1000022    2    1    0    0    0 -0.20360054652E+01  0.53944830191E+02 -0.29867373667E+02  0.62499999781E+02  0.99999970152E+01 0.  0.
    3000022    2    3    3    0    0 -0.13836683146E+01  0.10598934733E+02 -0.17883954644E+01  0.10840332596E+02  0.24999394091E+00 0.  0.
    1000022    2    1    0    0    0  0.20360054652E+01 -0.53944830191E+02  0.29867373667E+02  0.62500000219E+02  0.99999997517E+01 0.  0.
    3000022    2    5    5    0    0 -0.32737492015E+01 -0.10894563354E+02  0.44683561646E+01  0.12224468800E+02  0.24997225225E+00 0.  0.
        -13    1    4    4    0    0 -0.62667696893E+00  0.51470428152E+01 -0.91892556584E+00  0.52668987991E+01  0.10500000000E+00 0.  1.
         13    1    4    4    0    0 -0.75699134571E+00  0.54518919176E+01 -0.86946989857E+00  0.55734337964E+01  0.10500000000E+00 0. -1.
    3000001    1    5    5    0    0  0.53097546666E+01 -0.43050266837E+02  0.25399017503E+02  0.50275531419E+02  0.10000000000E+01 0. -1.
        -13    1    6    6    0    0 -0.20696128993E+01 -0.69325672721E+01  0.27800754944E+01  0.77513631891E+01  0.10500000000E+00 0. -1.
         13    1    6    6    0    0 -0.12041363022E+01 -0.39619960818E+01  0.16882806702E+01  0.44731056111E+01  0.10500000000E+00 0.  1.
</event>
<event>
11    0  0.3485800E-009  0.9118800E+02  0.7816531E-02  0.1126479E+00
         25   -1    0    0    0    0  0.00000000000E+00  0.00000000000E+00  0.99999998245E-14  0.12500000000E+03  0.12500000000E+03 0.  0.
    3000001    1    3    3    0    0 -0.52481888138E+01  0.50537451881E+01  0.12077594987E+01  0.74526847014E+01  0.10000000000E+01 0. -1.
    1000022    2    1    0    0    0 -0.57207178447E+02  0.23066839601E+02 -0.12286861636E+01  0.62500000190E+02  0.99999999538E+01 0.  0.
    3000022    2    3    3    0    0 -0.51958989633E+02  0.18013094413E+02 -0.24364456623E+01  0.55047315489E+02  0.25000212934E+00 0.  0.
    1000022    2    1    0    0    0  0.57207178447E+02 -0.23066839601E+02  0.12286861636E+01  0.62499999810E+02  0.99999975731E+01 0.  0.
    3000022    2    5    5    0    0  0.56822740001E+01 -0.48457469898E+01 -0.20269932607E+01  0.77421378834E+01  0.24999125231E+00 0.  0.
        -13    1    4    4    0    0 -0.38650468074E+02  0.13428127903E+02 -0.18010882203E+01  0.40956418851E+02  0.10500000000E+00 0. -1.
         13    1    4    4    0    0 -0.13308521559E+02  0.45849665103E+01 -0.63535744194E+00  0.14090896638E+02  0.10500000000E+00 0.  1.
    3000001    1    5    5    0    0  0.51524904447E+02 -0.18221092612E+02  0.32556794243E+01  0.54757861926E+02  0.10000000000E+01 0.  1.
        -13    1    6    6    0    0  0.23780176540E+01 -0.19685041708E+01 -0.88533652306E+00  0.32132261657E+01  0.10500000000E+00 0. -1.
         13    1    6    6    0    0  0.33042563461E+01 -0.28772428190E+01 -0.11416567376E+01  0.45289117177E+01  0.10500000000E+00 0.  1.
</event>
<event>
11    0  0.3485800E-009  0.9118800E+02  0.7816531E-02  0.1126479E+00
         25   -1    0    0    0    0  0.00000000000E+00  0.00000000000E+00  0.99999998245E-14  0.12500000000E+03  0.12500000000E+03 0.  0.
    3000001    1    3    3    0    0  0.19638498149E+01  0.42391004135E+02  0.98990767189E+01  0.43587218970E+02  0.10000000000E+01 0. -1.
    1000022    2    1    0    0    0  0.27878572137E+01  0.58225689458E+02  0.20205121176E+02  0.62500000345E+02  0.10000003038E+02 0.  0.
    3000022    2    3    3    0    0  0.82400739874E+00  0.15834685323E+02  0.10306044457E+02  0.18912781375E+02  0.24999907186E+00 0.  0.
    1000022    2    1    0    0    0 -0.27878572137E+01 -0.58225689458E+02 -0.20205121176E+02  0.62499999655E+02  0.99999987220E+01 0.  0.
    3000022    2    5    5    0    0 -0.49054836076E+01 -0.53901410835E+02 -0.17478197709E+02  0.56876847626E+02  0.25008242887E+00 0.  0.
        -13    1    4    4    0    0  0.47569303713E+00  0.82385162482E+01  0.53054963208E+01  0.98111543688E+01  0.10500000000E+00 0.  1.
         13    1    4    4    0    0  0.34831436161E+00  0.75961690749E+01  0.50005481358E+01  0.91016270066E+01  0.10500000000E+00 0. -1.
    3000001    1    5    5    0    0  0.21176263940E+01 -0.43242786226E+01 -0.27269234664E+01  0.56231520291E+01  0.10000000000E+01 0. -1.
        -13    1    6    6    0    0 -0.29733730970E+01 -0.31969104344E+02 -0.10372340128E+02  0.33741088377E+02  0.10500000000E+00 0. -1.
         13    1    6    6    0    0 -0.19321105107E+01 -0.21932306491E+02 -0.71058575812E+01  0.23135759249E+02  0.10500000000E+00 0.  1.
</event>
<event>
11    0  0.3485800E-009  0.9118800E+02  0.7816531E-02  0.1126479E+00
         25   -1    0    0    0    0  0.00000000000E+00  0.00000000000E+00  0.99999998245E-14  0.12500000000E+03  0.12500000000E+03 0.  0.
    3000001    1    3    3    0    0  0.11306094853E+01  0.49558973461E+02  0.11462327385E+02  0.50889636248E+02  0.10000000000E+01 0.  1.
    1000022    2    1    0    0    0 -0.22313937752E+01  0.60660526340E+02  0.11025925835E+02  0.62499997511E+02  0.10000003715E+02 0.  0.
    3000022    2    3    3    0    0 -0.33620032605E+01  0.11101552879E+02 -0.43640155045E+00  0.11610361264E+02  0.25000020000E+00 0.  0.
    1000022    2    1    0    0    0  0.22313937752E+01 -0.60660526340E+02 -0.11025925835E+02  0.62500002489E+02  0.10000034826E+02 0.  0.
    3000022    2    5    5    0    0 -0.27166261391E+01 -0.41161403679E+02 -0.55225910528E+01  0.41619739575E+02  0.24999986055E+00 0.  0.
        -13    1    4    4    0    0 -0.16621211990E+01  0.56742226067E+01 -0.18124655705E+00  0.59163607383E+01  0.10500000000E+00 0. -1.
         13    1    4    4    0    0 -0.16998820615E+01  0.54273302727E+01 -0.25515499340E+00  0.56940005254E+01  0.10500000000E+00 0.  1.
    3000001    1    5    5    0    0  0.49480199143E+01 -0.19499122661E+02 -0.55033347820E+01  0.20880262914E+02  0.10000000000E+01 0.  1.
        -13    1    6    6    0    0 -0.85587972703E+00 -0.13784614373E+02 -0.18505585876E+01  0.13934981723E+02  0.10500000000E+00 0.  1.
         13    1    6    6    0    0 -0.18607464121E+01 -0.27376789306E+02 -0.36720324652E+01  0.27684757852E+02  0.10500000000E+00 0. -1.
</event>
<event>
11    0  0.3485800E-009  0.9118800E+02  0.7816531E-02  0.1126479E+00
         25   -1    0    0    0    0  0.00000000000E+00  0.00000000000E+00  0.99999998245E-14  0.12500000000E+03  0.12500000000E+03 0.  0.
    3000001    1    3    3    0    0  0.11391194472E+01  0.79035918886E+01  0.63454652419E+01  0.10248379725E+02  0.10000000000E+01 0. -1.
    1000022    2    1    0    0    0 -0.10702257277E+02  0.38385928783E+02  0.47098112652E+02  0.62500000173E+02  0.99999983470E+01 0.  0.
    3000022    2    3    3    0    0 -0.11841376724E+02  0.30482336895E+02  0.40752647410E+02  0.52251620448E+02  0.25000653287E+00 0.  0.
    1000022    2    1    0    0    0  0.10702257277E+02 -0.38385928783E+02 -0.47098112652E+02  0.62499999827E+02  0.99999961783E+01 0.  0.
    3000022    2    5    5    0    0  0.10757931852E+02 -0.22082697637E+02 -0.25331672538E+02  0.35286467151E+02  0.24999546720E+00 0.  0.
        -13    1    4    4    0    0 -0.75965768537E+01  0.19668471066E+02  0.26210980137E+02  0.33639013641E+02  0.10500000000E+00 0.  1.
         13    1    4    4    0    0 -0.42447998700E+01  0.10813865828E+02  0.14541667273E+02  0.18612606808E+02  0.10500000000E+00 0. -1.
    3000001    1    5    5    0    0 -0.55674575650E-01 -0.16303231146E+02 -0.21766440114E+02  0.27213532676E+02  0.10000000000E+01 0. -1.
        -13    1    6    6    0    0  0.31980797834E+01 -0.64644013092E+01 -0.74424469293E+01  0.10364228861E+02  0.10500000000E+00 0.  1.
         13    1    6    6    0    0  0.75598520688E+01 -0.15618296328E+02 -0.17889225609E+02  0.24922238290E+02  0.10500000000E+00 0. -1.
</event>
<event>
11    0  0.3485800E-009  0.9118800E+02  0.7816531E-02  0.1126479E+00
         25   -1    0    0    0    0  0.00000000000E+00  0.00000000000E+00  0.99999998245E-14  0.12500000000E+03  0.12500000000E+03 0.  0.
    3000001    1    3    3    0    0 -0.47528610578E+02  0.14931768383E+02  0.82791283785E+01  0.50512082685E+02  0.10000000000E+01 0. -1.
    1000022    2    1    0    0    0 -0.56350083840E+02  0.21318602976E+02  0.13282889785E+02  0.62500000739E+02  0.10000007482E+02 0.  0.
    3000022    2    3    3    0    0 -0.88214732627E+01  0.63868345933E+01  0.50037614068E+01  0.11987918054E+02  0.25000879684E+00 0.  0.
    1000022    2    1    0    0    0  0.56350083840E+02 -0.21318602976E+02 -0.13282889785E+02  0.62499999261E+02  0.99999982485E+01 0.  0.
    3000022    2    5    5    0    0  0.21473057575E+02 -0.12981116865E+02 -0.72776727285E+01  0.26127162314E+02  0.24998702547E+00 0.  0.
        -13    1    4    4    0    0 -0.43399408669E+01  0.32073314410E+01  0.24324354815E+01  0.59202896105E+01  0.10500000000E+00 0.  1.
         13    1    4    4    0    0 -0.44815323958E+01  0.31795031522E+01  0.25713259253E+01  0.60676284431E+01  0.10500000000E+00 0. -1.
    3000001    1    5    5    0    0  0.34877026265E+02 -0.83374861105E+01 -0.60052170569E+01  0.36372836948E+02  0.10000000000E+01 0.  1.
        -13    1    6    6    0    0  0.12164103819E+02 -0.72874887252E+01 -0.41477916305E+01  0.14774576611E+02  0.10500000000E+00 0. -1.
         13    1    6    6    0    0  0.93089537567E+01 -0.56936281401E+01 -0.31298810980E+01  0.11352585702E+02  0.10500000000E+00 0.  1.
</event>
<event>
11    0  0.3485800E-009  0.9118800E+02  0.7816531E-02  0.1126479E+00
         25   -1    0    0    0    0  0.00000000000E+00  0.00000000000E+00  0.99999998245E-14  0.12500000000E+03  0.12500000000E+03 0.  0.
    3000001    1    3    3    0    0  0.78631358648E+00  0.99121382071E+00 -0.16781664157E+01  0.23274527736E+01  0.10000000000E+01 0. -1.
    1000022    2    1    0    0    0 -0.19405636768E+02  0.15723466456E+02 -0.56413153809E+02  0.62500000259E+02  0.99999986904E+01 0.  0.
    3000022    2    3    3    0    0 -0.20191950355E+02  0.14732252635E+02 -0.54734987394E+02  0.60172547485E+02  0.24999797074E+00 0.  0.
    1000022    2    1    0    0    0  0.19405636768E+02 -0.15723466456E+02  0.56413153809E+02  0.62499999741E+02  0.99999954592E+01 0.  0.
    3000022    2    5    5    0    0  0.16994724744E+01 -0.40804849038E+01  0.40412556655E+01  0.59943983499E+01  0.25000096365E+00 0.  0.
        -13    1    4    4    0    0 -0.14366754695E+02  0.10533755603E+02 -0.38996177496E+02  0.42872794776E+02  0.10500000000E+00 0. -1.
         13    1    4    4    0    0 -0.58251956600E+01  0.41984970317E+01 -0.15738809897E+02  0.17299752709E+02  0.10500000000E+00 0.  1.
    3000001    1    5    5    0    0  0.17706164294E+02 -0.11642981552E+02  0.52371898144E+02  0.56505601392E+02  0.10000000000E+01 0.  1.
        -13    1    6    6    0    0  0.52062957075E+00 -0.13840312978E+01  0.13324222371E+01  0.19932314972E+01  0.10500000000E+00 0. -1.
         13    1    6    6    0    0  0.11788429037E+01 -0.26964536060E+01  0.27088334284E+01  0.40011668527E+01  0.10500000000E+00 0.  1.
</event>
<event>
11    0  0.3485800E-009  0.9118800E+02  0.7816531E-02  0.1126479E+00
         25   -1    0    0    0    0  0.00000000000E+00  0.00000000000E+00  0.99999998245E-14  0.12500000000E+03  0.12500000000E+03 0.  0.
    3000001    1    3    3    0    0  0.10789859244E+02  0.19922843006E+02 -0.21287306296E+02  0.31104503618E+02  0.10000000000E+01 0.  1.
    1000022    2    1    0    0    0  0.15278810135E+02  0.46041916947E+02 -0.38117580938E+02  0.62500002484E+02  0.10000008932E+02 0.  0.
    3000022    2    3    3    0    0  0.44889508906E+01  0.26119073941E+02 -0.16830274641E+02  0.31395498866E+02  0.25000180373E+00 0.  0.
    1000022    2    1    0    0    0 -0.15278810135E+02 -0.46041916947E+02  0.38117580938E+02  0.62499997516E+02  0.99999778841E+01 0.  0.
    3000022    2    5    5    0    0 -0.43021540402E+00 -0.51241361074E+01  0.81633323908E+01  0.96511322461E+01  0.25000353599E+00 0.  0.
        -13    1    4    4    0    0  0.17355691482E+01  0.97565920880E+01 -0.63122081021E+01  0.11749820661E+02  0.10500000000E+00 0.  1.
         13    1    4    4    0    0  0.27533817424E+01  0.16362481853E+02 -0.10518066539E+02  0.19645678205E+02  0.10500000000E+00 0. -1.
    3000001    1    5    5    0    0 -0.14848594731E+02 -0.40917780840E+02  0.29954248547E+02  0.52848865270E+02  0.10000000000E+01 0.  1.
        -13    1    6    6    0    0 -0.32096996072E+00 -0.37924807355E+01  0.60967765310E+01  0.71880206534E+01  0.10500000000E+00 0.  1.
         13    1    6    6    0    0 -0.10924544330E+00 -0.13316553719E+01  0.20665558598E+01  0.24631115927E+01  0.10500000000E+00 0. -1.
</event>
<event>
11    0  0.3485800E-009  0.9118800E+02  0.7816531E-02  0.1126479E+00
         25   -1    0    0    0    0  0.00000000000E+00  0.00000000000E+00  0.99999998245E-14  0.12500000000E+03  0.12500000000E+03 0.  0.
    3000001    1    3    3    0    0 -0.22781464075E+01 -0.99467089248E+00 -0.48752947430E+00  0.27234181146E+01  0.10000000000E+01 0. -1.
    1000022    2    1    0    0    0 -0.46856511170E+02  0.63546142917E+01 -0.39627467710E+02  0.62500001070E+02  0.10000008740E+02 0.  0.
    3000022    2    3    3    0    0 -0.44578364762E+02  0.73492851842E+01 -0.39139938235E+02  0.59776582955E+02  0.25001420733E+00 0.  0.
    1000022    2    1    0    0    0  0.46856511170E+02 -0.63546142917E+01  0.39627467710E+02  0.62499998930E+02  0.99999953707E+01 0.  0.
    3000022    2    5    5    0    0  0.25780831187E+01 -0.16058702630E+01  0.26957208840E+00  0.30594933112E+01  0.24999668432E+00 0.  0.
        -13    1    4    4    0    0 -0.24505881205E+02  0.40426266893E+01 -0.21428366430E+02  0.32803459529E+02  0.10500000000E+00 0.  1.
         13    1    4    4    0    0 -0.20072483557E+02  0.33066584949E+01 -0.17711571805E+02  0.26973123426E+02  0.10500000000E+00 0. -1.
    3000001    1    5    5    0    0  0.44278428051E+02 -0.47487440287E+01  0.39357895621E+02  0.59440505619E+02  0.10000000000E+01 0.  1.
        -13    1    6    6    0    0  0.63482724627E+00 -0.37016551013E+00  0.67260635589E-01  0.74537046534E+00  0.10500000000E+00 0. -1.
         13    1    6    6    0    0  0.19432558724E+01 -0.12357047528E+01  0.20231145281E+00  0.23141228459E+01  0.10500000000E+00 0.  1.
</event>
<event>
11    0  0.3485800E-009  0.9118800E+02  0.7816531E-02  0.1126479E+00
         25   -1    0    0    0    0  0.00000000000E+00  0.00000000000E+00  0.99999998245E-14  0.12500000000E+03  0.12500000000E+03 0.  0.
    3000001    1    3    3    0    0  0.17016541837E+02 -0.33340751316E+01 -0.11819737873E+02  0.21009163631E+02  0.10000000000E+01 0.  1.
    1000022    2    1    0    0    0  0.55838465169E+02 -0.73421552070E+00 -0.26225500188E+02  0.62499999779E+02  0.99999923664E+01 0.  0.
    3000022    2    3    3    0    0  0.38821923332E+02  0.25998596109E+01 -0.14405762316E+02  0.41490836148E+02  0.24999036267E+00 0.  0.
    1000022    2    1    0    0    0 -0.55838465169E+02  0.73421552070E+00  0.26225500188E+02  0.62500000221E+02  0.99999951327E+01 0.  0.
    3000022    2    5    5    0    0 -0.13337462895E+02 -0.25256960140E+01  0.10072805459E+02  0.16905353995E+02  0.25005406346E+00 0.  0.
        -13    1    4    4    0    0  0.21165693431E+02  0.14474844920E+01 -0.79184646033E+01  0.22644975082E+02  0.10500000000E+00 0. -1.
         13    1    4    4    0    0  0.17656229901E+02  0.11523751190E+01 -0.64872977125E+01  0.18845861066E+02  0.10500000000E+00 0.  1.
    3000001    1    5    5    0    0 -0.42501002274E+02  0.32599115347E+01  0.16152694729E+02  0.45594646227E+02  0.10000000000E+01 0. -1.
        -13    1    6    6    0    0 -0.97587875211E+01 -0.18838016187E+01  0.73751717705E+01  0.12376866569E+02  0.10500000000E+00 0. -1.
         13    1    6    6    0    0 -0.35786753739E+01 -0.64189439533E+00  0.26976336886E+01  0.45284874257E+01  0.10500000000E+00 0.  1.
</event>
<event>
11    0  0.3485800E-009  0.9118800E+02  0.7816531E-02  0.1126479E+00
         25   -1    0    0    0    0  0.00000000000E+00  0.00000000000E+00  0.99999998245E-14  0.12500000000E+03  0.12500000000E+03 0.  0.
    3000001    1    3    3    0    0  0.20808155167E+01 -0.60262871410E+01 -0.40342902658E+01  0.76106128445E+01  0.10000000000E+01 0.  1.
    1000022    2    1    0    0    0  0.12564042420E+02 -0.59583221528E+02 -0.99112919047E+01  0.62500000913E+02  0.10000047864E+02 0.  0.
    3000022    2    3    3    0    0  0.10483226903E+02 -0.53556934387E+02 -0.58770016389E+01  0.54889388068E+02  0.25001399841E+00 0.  0.
    1000022    2    1    0    0    0 -0.12564042420E+02  0.59583221528E+02  0.99112919047E+01  0.62499999087E+02  0.10000036454E+02 0.  0.
    3000022    2    5    5    0    0 -0.16485188905E+01  0.28546024646E+02  0.71084103255E+01  0.29464981464E+02  0.24999538213E+00 0.  0.
        -13    1    4    4    0    0  0.53217039812E+01 -0.26834661307E+02 -0.29440322255E+01  0.27515412617E+02  0.10500000000E+00 0.  1.
         13    1    4    4    0    0  0.51615229218E+01 -0.26722273080E+02 -0.29329694134E+01  0.27373975451E+02  0.10500000000E+00 0. -1.
    3000001    1    5    5    0    0 -0.10915523529E+02  0.31037196882E+02  0.28028815792E+01  0.33035017623E+02  0.10000000000E+01 0.  1.
        -13    1    6    6    0    0 -0.66985456830E+00  0.10572987625E+02  0.26264573828E+01  0.10915405437E+02  0.10500000000E+00 0. -1.
         13    1    6    6    0    0 -0.97866432216E+00  0.17973037021E+02  0.44819529427E+01  0.18549576027E+02  0.10500000000E+00 0.  1.
</event>
<event>
11    0  0.3485800E-009  0.9118800E+02  0.7816531E-02  0.1126479E+00
         25   -1    0    0    0    0  0.00000000000E+00  0.00000000000E+00  0.99999998245E-14  0.12500000000E+03  0.12500000000E+03 0.  0.
    3000001    1    3    3    0    0  0.18111817357E+01  0.10950553837E+02  0.60932326119E+01  0.12701279160E+02  0.10000000000E+01 0. -1.
    1000022    2    1    0    0    0  0.14149874852E+01  0.60213466824E+02  0.13363616447E+02  0.62499999487E+02  0.99999957374E+01 0.  0.
    3000022    2    3    3    0    0 -0.39619425044E+00  0.49262912987E+02  0.72703838352E+01  0.49798720327E+02  0.24999861629E+00 0.  0.
    1000022    2    1    0    0    0 -0.14149874852E+01 -0.60213466824E+02 -0.13363616447E+02  0.62500000513E+02  0.10000002153E+02 0.  0.
    3000022    2    5    5    0    0  0.29017901960E+01 -0.45541113259E+02 -0.11495022820E+02  0.47059658198E+02  0.24999364825E+00 0.  0.
        -13    1    4    4    0    0 -0.13535503286E+00  0.24550691043E+02  0.36507785183E+01  0.24821240107E+02  0.10500000000E+00 0.  1.
         13    1    4    4    0    0 -0.26083921758E+00  0.24712221944E+02  0.36196053169E+01  0.24977480220E+02  0.10500000000E+00 0. -1.
    3000001    1    5    5    0    0 -0.43167776812E+01 -0.14672353565E+02 -0.18685936273E+01  0.15440342316E+02  0.10000000000E+01 0.  1.
        -13    1    6    6    0    0  0.14921667911E+01 -0.22713506907E+02 -0.57863196293E+01  0.23486644664E+02  0.10500000000E+00 0. -1.
         13    1    6    6    0    0  0.14096234049E+01 -0.22827606353E+02 -0.57087031905E+01  0.23573013533E+02  0.10500000000E+00 0.  1.
</event>
<event>
11    0  0.3485800E-009  0.9118800E+02  0.7816531E-02  0.1126479E+00
         25   -1    0    0    0    0  0.00000000000E+00  0.00000000000E+00  0.99999998245E-14  0.12500000000E+03  0.12500000000E+03 0.  0.
    3000001    1    3    3    0    0  0.23998933350E+02  0.18832608866E+02 -0.10525157625E+02  0.32286141015E+02  0.10000000000E+01 0. -1.
    1000022    2    1    0    0    0  0.39623890454E+02  0.43098411130E+02 -0.19460830118E+02  0.62499998612E+02  0.10000009050E+02 0.  0.
    3000022    2    3    3    0    0  0.15624957104E+02  0.24265802264E+02 -0.89356724937E+01  0.30213857597E+02  0.25000792384E+00 0.  0.
    1000022    2    1    0    0    0 -0.39623890454E+02 -0.43098411130E+02  0.19460830118E+02  0.62500001388E+02  0.10000026396E+02 0.  0.
    3000022    2    5    5    0    0 -0.30659749967E+02 -0.35010428301E+02  0.11292982705E+02  0.47888875069E+02  0.25007841589E+00 0.  0.
        -13    1    4    4    0    0  0.49379185233E+01  0.76736079874E+01 -0.27731791411E+01  0.95377589839E+01  0.10500000000E+00 0.  1.
         13    1    4    4    0    0  0.10687038581E+02  0.16592194276E+02 -0.61624933526E+01  0.20676098613E+02  0.10500000000E+00 0. -1.
    3000001    1    5    5    0    0 -0.89641404873E+01 -0.80879828294E+01  0.81678474133E+01  0.14611126318E+02  0.10000000000E+01 0. -1.
        -13    1    6    6    0    0 -0.22033028057E+02 -0.25160205600E+02  0.80741090461E+01  0.34404832990E+02  0.10500000000E+00 0. -1.
         13    1    6    6    0    0 -0.86267219096E+01 -0.98502227005E+01  0.32188736590E+01  0.13484042079E+02  0.10500000000E+00 0.  1.
</event>
<event>
11    0  0.3485800E-009  0.9118800E+02  0.7816531E-02  0.1126479E+00
         25   -1    0    0    0    0  0.00000000000E+00  0.00000000000E+00  0.99999998245E-14  0.12500000000E+03  0.12500000000E+03 0.  0.
    3000001    1    3    3    0    0  0.21775586633E+01  0.14419421838E+01 -0.92637961871E+00  0.29460377105E+01  0.10000000000E+01 0. -1.
    1000022    2    1    0    0    0  0.15556021589E+02  0.41843092851E+02 -0.42584219792E+02  0.62499999587E+02  0.99999973039E+01 0.  0.
    3000022    2    3    3    0    0  0.13378462926E+02  0.40401150667E+02 -0.41657840173E+02  0.59553961876E+02  0.24996362216E+00 0.  0.
    1000022    2    1    0    0    0 -0.15556021589E+02 -0.41843092851E+02  0.42584219792E+02  0.62500000413E+02  0.10000002469E+02 0.  0.
    3000022    2    5    5    0    0 -0.80309730173E+01 -0.25466757402E+02  0.18873479546E+02  0.32700505086E+02  0.25008507534E+00 0.  0.
        -13    1    4    4    0    0  0.35954482419E+01  0.10922893576E+02 -0.11214909382E+02  0.16063065386E+02  0.10500000000E+00 0. -1.
         13    1    4    4    0    0  0.97830146838E+01  0.29478257091E+02 -0.30442930791E+02  0.43490896490E+02  0.10500000000E+00 0.  1.
    3000001    1    5    5    0    0 -0.75250485718E+01 -0.16376335449E+02  0.23710740246E+02  0.29799495327E+02  0.10000000000E+01 0.  1.
        -13    1    6    6    0    0 -0.49513749757E+01 -0.15556761272E+02  0.11484585715E+02  0.19960853425E+02  0.10500000000E+00 0.  1.
         13    1    6    6    0    0 -0.30795980416E+01 -0.99099961303E+01  0.73888938310E+01  0.12739651661E+02  0.10500000000E+00 0. -1.
</event>
<event>
11    0  0.3485800E-009  0.9118800E+02  0.7816531E-02  0.1126479E+00
         25   -1    0    0    0    0  0.00000000000E+00  0.00000000000E+00  0.99999998245E-14  0.12500000000E+03  0.12500000000E+03 0.  0.
    3000001    1    3    3    0    0  0.38114668167E+02  0.48157824780E+00  0.43395441886E+02  0.57767847663E+02  0.10000000000E+01 0. -1.
    1000022    2    1    0    0    0  0.42545873702E+02 -0.54781052371E+00  0.44674353705E+02  0.62500007560E+02  0.10000080026E+02 0.  0.
    3000022    2    3    3    0    0  0.44312055352E+01 -0.10293887715E+01  0.12789118189E+01  0.47321598969E+01  0.24999622220E+00 0.  0.
    1000022    2    1    0    0    0 -0.42545873702E+02  0.54781052371E+00 -0.44674353705E+02  0.62499992440E+02  0.99999855272E+01 0.  0.
    3000022    2    5    5    0    0 -0.30274445996E+02  0.44929275027E+01 -0.33875754292E+02  0.45654766552E+02  0.25000429244E+00 0.  0.
        -13    1    4    4    0    0  0.18137692956E+01 -0.36849948140E+00  0.55944040879E+00  0.19363753501E+01  0.10500000000E+00 0.  1.
         13    1    4    4    0    0  0.26174362396E+01 -0.66088929012E+00  0.71947141011E+00  0.27957845468E+01  0.10500000000E+00 0. -1.
    3000001    1    5    5    0    0 -0.12271427707E+02 -0.39451169790E+01 -0.10798599413E+02  0.16845225888E+02  0.10000000000E+01 0. -1.
        -13    1    6    6    0    0 -0.88922563346E+01  0.12968294231E+01 -0.98904270462E+01  0.13363590888E+02  0.10500000000E+00 0. -1.
         13    1    6    6    0    0 -0.21382189661E+02  0.31960980796E+01 -0.23985327246E+02  0.32291175664E+02  0.10500000000E+00 0.  1.
</event>
<event>
11    0  0.3485800E-009  0.9118800E+02  0.7816531E-02  0.1126479E+00
         25   -1    0    0    0    0  0.00000000000E+00  0.00000000000E+00  0.99999998245E-14  0.12500000000E+03  0.12500000000E+03 0.  0.
    3000001    1    3    3    0    0  0.22185147266E+02 -0.38777685536E+02  0.15237315952E+02  0.47212979700E+02  0.10000000000E+01 0. -1.
    1000022    2    1    0    0    0  0.24544104710E+02 -0.53570538355E+02  0.18276601244E+02  0.62499998138E+02  0.99999979247E+01 0.  0.
    3000022    2    3    3    0    0  0.23589574440E+01 -0.14792852819E+02  0.30392852923E+01  0.15287018437E+02  0.25000574480E+00 0.  0.
    1000022    2    1    0    0    0 -0.24544104710E+02  0.53570538355E+02 -0.18276601244E+02  0.62500001862E+02  0.10000021206E+02 0.  0.
    3000022    2    5    5    0    0 -0.52008045505E+01  0.70507511403E+01  0.36209407720E+00  0.87724034903E+01  0.24998252236E+00 0.  0.
        -13    1    4    4    0    0  0.54045379041E+00 -0.34778856025E+01  0.71024763495E+00  0.35921101412E+01  0.10500000000E+00 0.  1.
         13    1    4    4    0    0  0.18185036536E+01 -0.11314967216E+02  0.23290376574E+01  0.11694908296E+02  0.10500000000E+00 0. -1.
    3000001    1    5    5    0    0 -0.19343300160E+02  0.46519787215E+02 -0.18638695322E+02  0.53727598372E+02  0.10000000000E+01 0.  1.
        -13    1    6    6    0    0 -0.27132941024E+01  0.36054630076E+01  0.23855882250E+00  0.45198743011E+01  0.10500000000E+00 0.  1.
         13    1    6    6    0    0 -0.24875104481E+01  0.34452881326E+01  0.12353525469E+00  0.42525291892E+01  0.10500000000E+00 0. -1.
</event>
<event>
11    0  0.3485800E-009  0.9118800E+02  0.7816531E-02  0.1126479E+00
         25   -1    0    0    0    0  0.00000000000E+00  0.00000000000E+00  0.99999998245E-14  0.12500000000E+03  0.12500000000E+03 0.  0.
    3000001    1    3    3    0    0 -0.65906348701E+01  0.12795730919E+02 -0.31905070662E+02  0.35015721208E+02  0.10000000000E+01 0.  1.
    1000022    2    1    0    0    0 -0.19046861436E+02  0.25507585665E+02 -0.52847234730E+02  0.62499999979E+02  0.99999960890E+01 0.  0.
    3000022    2    3    3    0    0 -0.12456226566E+02  0.12711854746E+02 -0.20942164068E+02  0.27484278771E+02  0.25002480043E+00 0.  0.
    1000022    2    1    0    0    0  0.19046861436E+02 -0.25507585665E+02  0.52847234730E+02  0.62500000021E+02  0.99999963470E+01 0.  0.
    3000022    2    5    5    0    0  0.16831381049E+02 -0.15625646868E+02  0.33148646490E+02  0.40328048226E+02  0.24996307272E+00 0.  0.
        -13    1    4    4    0    0 -0.50394746381E+01  0.50583367713E+01 -0.83678192761E+01  0.11000659069E+02  0.10500000000E+00 0.  1.
         13    1    4    4    0    0 -0.74167519277E+01  0.76535179746E+01 -0.12574344792E+02  0.16483619702E+02  0.10500000000E+00 0. -1.
    3000001    1    5    5    0    0  0.22154803871E+01 -0.98819387967E+01  0.19698588240E+02  0.22171951795E+02  0.10000000000E+01 0. -1.
        -13    1    6    6    0    0  0.88259823729E+01 -0.81225635223E+01  0.17236993649E+02  0.20999975668E+02  0.10500000000E+00 0. -1.
         13    1    6    6    0    0  0.80053986759E+01 -0.75030833460E+01  0.15911652841E+02  0.19328072558E+02  0.10500000000E+00 0.  1.
</event>
<event>
11    0  0.3485800E-009  0.9118800E+02  0.7816531E-02  0.1126479E+00
         25   -1    0    0    0    0  0.00000000000E+00  0.00000000000E+00  0.99999998245E-14  0.12500000000E+03  0.12500000000E+03 0.  0.
    3000001    1    3    3    0    0 -0.50084126927E+01 -0.75898517994E+01  0.24353623484E+01  0.94668388496E+01  0.10000000000E+01 0.  1.
    1000022    2    1    0    0    0 -0.39602656823E+02 -0.46972805070E+02 -0.56067189566E+01  0.62500000988E+02  0.99999991197E+01 0.  0.
    3000022    2    3    3    0    0 -0.34594244130E+02 -0.39382953271E+02 -0.80420813050E+01  0.53033162138E+02  0.24995871951E+00 0.  0.
    1000022    2    1    0    0    0  0.39602656823E+02  0.46972805070E+02  0.56067189566E+01  0.62499999012E+02  0.99999867725E+01 0.  0.
    3000022    2    5    5    0    0  0.35451722146E+02  0.45597637744E+02  0.53841451967E+01  0.58008798399E+02  0.25000252425E+00 0.  0.
        -13    1    4    4    0    0 -0.21122779137E+02 -0.23956895642E+02 -0.48814734178E+01  0.32310129294E+02  0.10500000000E+00 0.  1.
         13    1    4    4    0    0 -0.13471464994E+02 -0.15426057629E+02 -0.31606078872E+01  0.20723032845E+02  0.10500000000E+00 0. -1.
    3000001    1    5    5    0    0  0.41509346773E+01  0.13751673266E+01  0.22257375992E+00  0.44912006134E+01  0.10000000000E+01 0.  1.
        -13    1    6    6    0    0  0.15682232561E+02  0.20254798350E+02  0.24294852963E+01  0.25731356321E+02  0.10500000000E+00 0.  1.
         13    1    6    6    0    0  0.19769489585E+02  0.25342839394E+02  0.29546599004E+01  0.32277442078E+02  0.10500000000E+00 0. -1.
</event>
<event>
11    0  0.3485800E-009  0.9118800E+02  0.7816531E-02  0.1126479E+00
         25   -1    0    0    0    0  0.00000000000E+00  0.00000000000E+00  0.99999998245E-14  0.12500000000E+03  0.12500000000E+03 0.  0.
    3000001    1    3    3    0    0  0.48912600962E+02 -0.16476759471E+02  0.82605972178E+01  0.52279667194E+02  0.10000000000E+01 0. -1.
    1000022    2    1    0    0    0  0.56458956261E+02 -0.23358990778E+02  0.85436365088E+01  0.62499999709E+02  0.10000002330E+02 0.  0.
    3000022    2    3    3    0    0  0.75463552998E+01 -0.68822313067E+01  0.28303929101E+00  0.10220332516E+02  0.24999883914E+00 0.  0.
    1000022    2    1    0    0    0 -0.56458956261E+02  0.23358990778E+02 -0.85436365088E+01  0.62500000291E+02  0.10000005961E+02 0.  0.
    3000022    2    5    5    0    0 -0.30389507461E+02  0.16744710135E+02 -0.78595769972E+01  0.35577281137E+02  0.25000263462E+00 0.  0.
        -13    1    4    4    0    0  0.33326731704E+01 -0.29761312702E+01  0.17044650529E+00  0.44725993347E+01  0.10500000000E+00 0.  1.
         13    1    4    4    0    0  0.42136821294E+01 -0.39061000365E+01  0.11259278572E+00  0.57477331809E+01  0.10500000000E+00 0. -1.
    3000001    1    5    5    0    0 -0.26069448801E+02  0.66142806429E+01 -0.68405951159E+00  0.26922719153E+02  0.10000000000E+01 0.  1.
        -13    1    6    6    0    0 -0.12806403358E+02  0.70674831749E+01 -0.32475199683E+01  0.14983681001E+02  0.10500000000E+00 0. -1.
         13    1    6    6    0    0 -0.17583104103E+02  0.96772269604E+01 -0.46120570289E+01  0.20593600136E+02  0.10500000000E+00 0.  1.
</event>
<event>
11    0  0.3485800E-009  0.9118800E+02  0.7816531E-02  0.1126479E+00
         25   -1    0    0    0    0  0.00000000000E+00  0.00000000000E+00  0.99999998245E-14  0.12500000000E+03  0.12500000000E+03 0.  0.
    3000001    1    3    3    0    0  0.55662364192E+01  0.12089069783E+02  0.84087252504E+01  0.15774512875E+02  0.10000000000E+01 0. -1.
    1000022    2    1    0    0    0  0.35833772832E+02  0.43846306896E+02  0.24488612413E+02  0.62499999796E+02  0.99999966356E+01 0.  0.
    3000022    2    3    3    0    0  0.30267536413E+02  0.31757237113E+02  0.16079887162E+02  0.46725486921E+02  0.24997453081E+00 0.  0.
    1000022    2    1    0    0    0 -0.35833772832E+02 -0.43846306896E+02 -0.24488612413E+02  0.62500000204E+02  0.99999991907E+01 0.  0.
    3000022    2    5    5    0    0 -0.21350950549E+02 -0.32143564684E+02 -0.13652479090E+02  0.40933171463E+02  0.25000152439E+00 0.  0.
        -13    1    4    4    0    0  0.14694081477E+02  0.15491110849E+02  0.77784150976E+01  0.22724553070E+02  0.10500000000E+00 0. -1.
         13    1    4    4    0    0  0.15573454936E+02  0.16266126264E+02  0.83014720649E+01  0.24000933851E+02  0.10500000000E+00 0.  1.
    3000001    1    5    5    0    0 -0.14482822283E+02 -0.11702742212E+02 -0.10836133323E+02  0.21566828742E+02  0.10000000000E+01 0.  1.
        -13    1    6    6    0    0 -0.71221368137E+01 -0.10635902561E+02 -0.45039752336E+01  0.13569969564E+02  0.10500000000E+00 0.  1.
         13    1    6    6    0    0 -0.14228813735E+02 -0.21507662123E+02 -0.91485038559E+01  0.27363201898E+02  0.10500000000E+00 0. -1.
</event>
<event>
11    0  0.3485800E-009  0.9118800E+02  0.7816531E-02  0.1126479E+00
         25   -1    0    0    0    0  0.00000000000E+00  0.00000000000E+00  0.99999998245E-14  0.12500000000E+03  0.12500000000E+03 0.  0.
    3000001    1    3    3    0    0  0.93395231861E+00 -0.17798357960E+02  0.31034166738E+02  0.35801861936E+02  0.10000000000E+01 0.  1.
    1000022    2    1    0    0    0  0.51341819968E+01 -0.36998144049E+02  0.49102216921E+02  0.62500001490E+02  0.99999995924E+01 0.  0.
    3000022    2    3    3    0    0  0.42002296782E+01 -0.19199786089E+02  0.18068050183E+02  0.26698139554E+02  0.25000597342E+00 0.  0.
    1000022    2    1    0    0    0 -0.51341819968E+01  0.36998144049E+02 -0.49102216921E+02  0.62499998510E+02  0.99999809695E+01 0.  0.
    3000022    2    5    5    0    0 -0.69420704885E+01  0.34032402632E+02 -0.41766592063E+02  0.54322255850E+02  0.24999311513E+00 0.  0.
        -13    1    4    4    0    0  0.31580226903E+01 -0.14480331527E+02  0.13653739371E+02  0.20151643414E+02  0.10500000000E+00 0. -1.
         13    1    4    4    0    0  0.10422069878E+01 -0.47194545619E+01  0.44143108121E+01  0.65464961401E+01  0.10500000000E+00 0.  1.
    3000001    1    5    5    0    0  0.18078884917E+01  0.29657414166E+01 -0.73356248582E+01  0.81777426598E+01  0.10000000000E+01 0. -1.
        -13    1    6    6    0    0 -0.39535936008E+01  0.19704677558E+02 -0.24155687756E+02  0.31423136317E+02  0.10500000000E+00 0.  1.
         13    1    6    6    0    0 -0.29884768877E+01  0.14327725075E+02 -0.17610904306E+02  0.22899119534E+02  0.10500000000E+00 0. -1.
</event>
<event>
11    0  0.3485800E-009  0.9118800E+02  0.7816531E-02  0.1126479E+00
         25   -1    0    0    0    0  0.00000000000E+00  0.00000000000E+00  0.99999998245E-14  0.12500000000E+03  0.12500000000E+03 0.  0.
    3000001    1    3    3    0    0  0.47602321119E+01  0.19087408564E+01  0.26855598131E+01  0.58749751425E+01  0.10000000000E+01 0.  1.
    1000022    2    1    0    0    0  0.60790723501E+02 -0.46808076479E+00  0.10512797662E+02  0.62499999694E+02  0.99999941858E+01 0.  0.
    3000022    2    3    3    0    0  0.56030491389E+02 -0.23768216212E+01  0.78272378492E+01  0.56625024552E+02  0.25001361379E+00 0.  0.
    1000022    2    1    0    0    0 -0.60790723501E+02  0.46808076479E+00 -0.10512797662E+02  0.62500000306E+02  0.99999980084E+01 0.  0.
    3000022    2    5    5    0    0 -0.53092290051E+02  0.36051866464E+01 -0.96450776287E+01  0.54082147316E+02  0.25000453360E+00 0.  0.
        -13    1    4    4    0    0  0.16239918726E+02 -0.66809620641E+00  0.23064571228E+01  0.16416823147E+02  0.10500000000E+00 0.  1.
         13    1    4    4    0    0  0.39790572663E+02 -0.17087254148E+01  0.55207807264E+01  0.40208201405E+02  0.10500000000E+00 0. -1.
    3000001    1    5    5    0    0 -0.76984334499E+01 -0.31371058816E+01 -0.86772003362E+00  0.84178529894E+01  0.10000000000E+01 0.  1.
        -13    1    6    6    0    0 -0.21223295454E+02  0.14121413503E+01 -0.37983252314E+01  0.21606959821E+02  0.10500000000E+00 0. -1.
         13    1    6    6    0    0 -0.31868994597E+02  0.21930452961E+01 -0.58467523973E+01  0.32475187496E+02  0.10500000000E+00 0.  1.
</event>
<event>
11    0  0.3485800E-009  0.9118800E+02  0.7816531E-02  0.1126479E+00
         25   -1    0    0    0    0  0.00000000000E+00  0.00000000000E+00  0.99999998245E-14  0.12500000000E+03  0.12500000000E+03 0.  0.
    3000001    1    3    3    0    0 -0.11025405105E+02 -0.39524745983E+02  0.29741801593E+02  0.50688656174E+02  0.10000000000E+01 0.  1.
    1000022    2    1    0    0    0 -0.15689230139E+02 -0.45130480899E+02  0.39029960518E+02  0.62500003357E+02  0.10000017654E+02 0.  0.
    3000022    2    3    3    0    0 -0.46638250340E+01 -0.56057349161E+01  0.92881589249E+01  0.11811347183E+02  0.24999632802E+00 0.  0.
    1000022    2    1    0    0    0  0.15689230139E+02  0.45130480899E+02 -0.39029960518E+02  0.62499996643E+02  0.99999756944E+01 0.  0.
    3000022    2    5    5    0    0  0.16765682686E+02  0.42840599524E+02 -0.37660702554E+02  0.59454151248E+02  0.25000057682E+00 0.  0.
        -13    1    4    4    0    0 -0.34146430542E+01 -0.40928949188E+01  0.67302503696E+01  0.85859694294E+01  0.10500000000E+00 0. -1.
         13    1    4    4    0    0 -0.12491819798E+01 -0.15128399973E+01  0.25579085553E+01  0.32253777536E+01  0.10500000000E+00 0.  1.
    3000001    1    5    5    0    0 -0.10764525477E+01  0.22898813748E+01 -0.13692579637E+01  0.30458453948E+01  0.10000000000E+01 0.  1.
        -13    1    6    6    0    0  0.95391912382E+01  0.24524066129E+02 -0.21588451904E+02  0.34036719431E+02  0.10500000000E+00 0.  1.
         13    1    6    6    0    0  0.72264914481E+01  0.18316533395E+02 -0.16072250650E+02  0.25417431818E+02  0.10500000000E+00 0. -1.
</event>
<event>
11    0  0.3485800E-009  0.9118800E+02  0.7816531E-02  0.1126479E+00
         25   -1    0    0    0    0  0.00000000000E+00  0.00000000000E+00  0.99999998245E-14  0.12500000000E+03  0.12500000000E+03 0.  0.
    3000001    1    3    3    0    0 -0.35263096190E+00  0.15732881140E+02 -0.42272012537E+01  0.16325352309E+02  0.10000000000E+01 0. -1.
    1000022    2    1    0    0    0  0.62955088752E+01  0.61351357529E+02 -0.16209811588E+01  0.62499999425E+02  0.99999922815E+01 0.  0.
    3000022    2    3    3    0    0  0.66481398371E+01  0.45618476388E+02  0.26062200949E+01  0.46174647116E+02  0.25000369066E+00 0.  0.
    1000022    2    1    0    0    0 -0.62955088752E+01 -0.61351357529E+02  0.16209811588E+01  0.62500000575E+02  0.99999994679E+01 0.  0.
    3000022    2    5    5    0    0  0.19578488817E+01 -0.28621095894E+02 -0.48812580155E-01  0.28689112505E+02  0.24998251107E+00 0.  0.
        -13    1    4    4    0    0  0.36083111444E+01  0.24503279828E+02  0.13440078791E+01  0.24804193472E+02  0.10500000000E+00 0.  1.
         13    1    4    4    0    0  0.30398286927E+01  0.21115196561E+02  0.12622122158E+01  0.21370453644E+02  0.10500000000E+00 0. -1.
    3000001    1    5    5    0    0 -0.82533577568E+01 -0.32730261634E+02  0.16697937390E+01  0.33810888070E+02  0.10000000000E+01 0. -1.
        -13    1    6    6    0    0  0.13914086365E+01 -0.20167337807E+02  0.85096627970E-02  0.20215554151E+02  0.10500000000E+00 0. -1.
         13    1    6    6    0    0  0.56644024516E+00 -0.84537580873E+01 -0.57322242952E-01  0.84735583547E+01  0.10500000000E+00 0.  1.
</event>
<event>
11    0  0.3485800E-009  0.9118800E+02  0.7816531E-02  0.1126479E+00
         25   -1    0    0    0    0  0.00000000000E+00  0.00000000000E+00  0.99999998245E-14  0.12500000000E+03  0.12500000000E+03 0.  0.
    3000001    1    3    3    0    0 -0.41366964726E+02 -0.24280148484E+02 -0.26976944711E+02  0.55040956814E+02  0.10000000000E+01 0.  1.
    1000022    2    1    0    0    0 -0.46545748401E+02 -0.24371329349E+02 -0.32338527222E+02  0.62499990349E+02  0.10000003116E+02 0.  0.
    3000022    2    3    3    0    0 -0.51787836750E+01 -0.91180865030E-01 -0.53615825110E+01  0.74590335353E+01  0.24999991126E+00 0.  0.
    1000022    2    1    0    0    0  0.46545748401E+02  0.24371329349E+02  0.32338527222E+02  0.62500009651E+02  0.10000123750E+02 0.  0.
    3000022    2    5    5    0    0  0.16180589704E+02  0.51779687187E+01  0.14704660916E+02  0.22470255768E+02  0.24999684457E+00 0.  0.
        -13    1    4    4    0    0 -0.35595388615E+01 -0.11051823657E+00 -0.36994333733E+01  0.51360844493E+01  0.10500000000E+00 0. -1.
         13    1    4    4    0    0 -0.16192448135E+01  0.19337371545E-01 -0.16621491377E+01  0.23229490860E+01  0.10500000000E+00 0.  1.
    3000001    1    5    5    0    0  0.30365158697E+02  0.19193360631E+02  0.17633866306E+02  0.40029753882E+02  0.10000000000E+01 0.  1.
        -13    1    6    6    0    0  0.88814030950E+01  0.28682128919E+01  0.79961387684E+01  0.12290452650E+02  0.10500000000E+00 0.  1.
         13    1    6    6    0    0  0.72991866089E+01  0.23097558268E+01  0.67085221476E+01  0.10179803119E+02  0.10500000000E+00 0. -1.
</event>
<event>
11    0  0.3485800E-009  0.9118800E+02  0.7816531E-02  0.1126479E+00
         25   -1    0    0    0    0  0.00000000000E+00  0.00000000000E+00  0.99999998245E-14  0.12500000000E+03  0.12500000000E+03 0.  0.
    3000001    1    3    3    0    0  0.15827386490E+02  0.18570496246E+02  0.41159916363E+01  0.24765114195E+02  0.10000000000E+01 0. -1.
    1000022    2    1    0    0    0  0.33994636415E+02  0.51477735466E+02  0.81089062613E+00  0.62499999419E+02  0.99999915027E+01 0.  0.
    3000022    2    3    3    0    0  0.18167249925E+02  0.32907239220E+02 -0.33051010101E+01  0.37734885224E+02  0.25001455254E+00 0.  0.
    1000022    2    1    0    0    0 -0.33994636415E+02 -0.51477735466E+02 -0.81089062613E+00  0.62500000581E+02  0.99999987692E+01 0.  0.
    3000022    2    5    5    0    0 -0.32035528072E+02 -0.43754617183E+02 -0.25286260690E+01  0.54288102107E+02  0.24999370021E+00 0.  0.
        -13    1    4    4    0    0  0.57127479420E+01  0.10308462961E+02 -0.99065469854E+00  0.11827608355E+02  0.10500000000E+00 0. -1.
         13    1    4    4    0    0  0.12454501983E+02  0.22598776259E+02 -0.23144463116E+01  0.25907276869E+02  0.10500000000E+00 0.  1.
    3000001    1    5    5    0    0 -0.19591083430E+01 -0.77231182823E+01  0.17177354429E+01  0.82118984744E+01  0.10000000000E+01 0. -1.
        -13    1    6    6    0    0 -0.74616372694E+01 -0.10194974157E+02 -0.60088405444E+00  0.12648542028E+02  0.10500000000E+00 0. -1.
         13    1    6    6    0    0 -0.24573890803E+02 -0.33559643027E+02 -0.19277420146E+01  0.41639560078E+02  0.10500000000E+00 0.  1.
</event>
<event>
11    0  0.3485800E-009  0.9118800E+02  0.7816531E-02  0.1126479E+00
         25   -1    0    0    0    0  0.00000000000E+00  0.00000000000E+00  0.99999998245E-14  0.12500000000E+03  0.12500000000E+03 0.  0.
    3000001    1    3    3    0    0  0.42723050678E+02  0.22859573581E+02  0.30750611230E+02  0.57397031757E+02  0.10000000000E+01 0. -1.
    1000022    2    1    0    0    0  0.47627967376E+02  0.22530845785E+02  0.32096537058E+02  0.62500000374E+02  0.10000003375E+02 0.  0.
    3000022    2    3    3    0    0  0.49049166982E+01 -0.32872779585E+00  0.13459258275E+01  0.51029686168E+01  0.25000518036E+00 0.  0.
    1000022    2    1    0    0    0 -0.47627967376E+02 -0.22530845785E+02 -0.32096537058E+02  0.62499999626E+02  0.99999986971E+01 0.  0.
    3000022    2    5    5    0    0 -0.21484769665E+02 -0.10384764868E+02 -0.20323438305E+02  0.31345546935E+02  0.24999840874E+00 0.  0.
        -13    1    4    4    0    0  0.31803019649E+01 -0.17715609433E+00  0.82576150231E+00  0.32922047215E+01  0.10500000000E+00 0. -1.
         13    1    4    4    0    0  0.17246147334E+01 -0.15157170151E+00  0.52016432517E+00  0.18107638953E+01  0.10500000000E+00 0.  1.
    3000001    1    5    5    0    0 -0.26143197711E+02 -0.12146080917E+02 -0.11773098753E+02  0.31154452690E+02  0.10000000000E+01 0. -1.
        -13    1    6    6    0    0 -0.10164404265E+02 -0.49778552203E+01 -0.95945241334E+01  0.14837792121E+02  0.10500000000E+00 0. -1.
         13    1    6    6    0    0 -0.11320365400E+02 -0.54069096478E+01 -0.10728914172E+02  0.16507754815E+02  0.10500000000E+00 0.  1.
</event>
<event>
11    0  0.3485800E-009  0.9118800E+02  0.7816531E-02  0.1126479E+00
         25   -1    0    0    0    0  0.00000000000E+00  0.00000000000E+00  0.99999998245E-14  0.12500000000E+03  0.12500000000E+03 0.  0.
    3000001    1    3    3    0    0 -0.56629487332E+01 -0.33762436746E+01  0.17395884386E+02  0.18630212110E+02  0.10000000000E+01 0.  1.
    1000022    2    1    0    0    0 -0.22933169206E+02  0.31822321681E+01  0.57185603539E+02  0.62500000887E+02  0.10000000367E+02 0.  0.
    3000022    2    3    3    0    0 -0.17270220473E+02  0.65584758428E+01  0.39789719153E+02  0.43869788777E+02  0.24999294407E+00 0.  0.
    1000022    2    1    0    0    0  0.22933169206E+02 -0.31822321681E+01 -0.57185603539E+02  0.62499999113E+02  0.99999892771E+01 0.  0.
    3000022    2    5    5    0    0  0.34233535569E+01 -0.18013260720E+01 -0.20998987647E+02  0.21353784487E+02  0.25000903740E+00 0.  0.
        -13    1    4    4    0    0 -0.66243662015E+01  0.25039841510E+01  0.15111076684E+02  0.16688553794E+02  0.10500000000E+00 0. -1.
         13    1    4    4    0    0 -0.10645854271E+02  0.40544916918E+01  0.24678642470E+02  0.27181234983E+02  0.10500000000E+00 0.  1.
    3000001    1    5    5    0    0  0.19509815649E+02 -0.13809060961E+01 -0.36186615892E+02  0.41146214626E+02  0.10000000000E+01 0. -1.
        -13    1    6    6    0    0  0.10681683577E+01 -0.56804773941E+00 -0.63143573022E+01  0.64300695964E+01  0.10500000000E+00 0.  1.
         13    1    6    6    0    0  0.23551851992E+01 -0.12332783326E+01 -0.14684630345E+02  0.14923714890E+02  0.10500000000E+00 0. -1.
</event>
<event>
11    0  0.3485800E-009  0.9118800E+02  0.7816531E-02  0.1126479E+00
         25   -1    0    0    0    0  0.00000000000E+00  0.00000000000E+00  0.99999998245E-14  0.12500000000E+03  0.12500000000E+03 0.  0.
    3000001    1    3    3    0    0  0.15444804374E+02 -0.16045266262E+01 -0.28471599901E+01  0.15818432535E+02  0.10000000000E+01 0.  1.
    1000022    2    1    0    0    0  0.61332310015E+02  0.66546085128E+01 -0.56025835401E+00  0.62500001790E+02  0.10000013403E+02 0.  0.
    3000022    2    3    3    0    0  0.45887505641E+02  0.82591351390E+01  0.22869016361E+01  0.46681569255E+02  0.25000364249E+00 0.  0.
    1000022    2    1    0    0    0 -0.61332310015E+02 -0.66546085128E+01  0.56025835401E+00  0.62499998210E+02  0.99999910287E+01 0.  0.
    3000022    2    5    5    0    0 -0.77056326186E+01  0.21279891421E+01  0.15204914972E+01  0.81412215695E+01  0.24996481491E+00 0.  0.
        -13    1    4    4    0    0  0.15427628873E+02  0.27220807105E+01  0.77317972372E+00  0.15685352655E+02  0.10500000000E+00 0.  1.
         13    1    4    4    0    0  0.30459876769E+02  0.55370544285E+01  0.15137219124E+01  0.30996216600E+02  0.10500000000E+00 0. -1.
    3000001    1    5    5    0    0 -0.53626677397E+02 -0.87825976549E+01 -0.96023314324E+00  0.54358776641E+02  0.10000000000E+01 0.  1.
        -13    1    6    6    0    0 -0.31519069717E+01  0.80437967857E+00  0.61828760005E+00  0.33128309317E+01  0.10500000000E+00 0.  1.
         13    1    6    6    0    0 -0.45537256468E+01  0.13236094636E+01  0.90220389719E+00  0.48283906378E+01  0.10500000000E+00 0. -1.
</event>
<event>
11    0  0.3485800E-009  0.9118800E+02  0.7816531E-02  0.1126479E+00
         25   -1    0    0    0    0  0.00000000000E+00  0.00000000000E+00  0.99999998245E-14  0.12500000000E+03  0.12500000000E+03 0.  0.
    3000001    1    3    3    0    0  0.54752336313E+02 -0.15698019164E+00 -0.16447521678E+02  0.57178352056E+02  0.10000000000E+01 0. -1.
    1000022    2    1    0    0    0  0.58695080528E+02 -0.28454531681E+01 -0.18789382513E+02  0.62499999585E+02  0.99999985476E+01 0.  0.
    3000022    2    3    3    0    0  0.39427442155E+01 -0.26884729765E+01 -0.23418608349E+01  0.53216475290E+01  0.25000271786E+00 0.  0.
    1000022    2    1    0    0    0 -0.58695080528E+02  0.28454531681E+01  0.18789382513E+02  0.62500000415E+02  0.10000003735E+02 0.  0.
    3000022    2    5    5    0    0 -0.45969923571E+02  0.44140940658E+01  0.11033126727E+02  0.47481686339E+02  0.25010545150E+00 0.  0.
        -13    1    4    4    0    0  0.27846189484E+01 -0.18528103478E+01 -0.16117135612E+01  0.37142501903E+01  0.10500000000E+00 0. -1.
         13    1    4    4    0    0  0.11581252671E+01 -0.83566262865E+00 -0.73014727362E+00  0.16073973387E+01  0.10500000000E+00 0.  1.
    3000001    1    5    5    0    0 -0.12725156958E+02 -0.15686408977E+01  0.77562557857E+01  0.15018314076E+02  0.10000000000E+01 0.  1.
        -13    1    6    6    0    0 -0.16514335330E+02  0.15849845663E+01  0.39038783810E+01  0.17043671520E+02  0.10500000000E+00 0. -1.
         13    1    6    6    0    0 -0.29455588241E+02  0.28291094994E+01  0.71292483462E+01  0.30438014820E+02  0.10500000000E+00 0.  1.
</event>
<event>
11    0  0.3485800E-009  0.9118800E+02  0.7816531E-02  0.1126479E+00
         25   -1    0    0    0    0  0.00000000000E+00  0.00000000000E+00  0.99999998245E-14  0.12500000000E+03  0.12500000000E+03 0.  0.
    3000001    1    3    3    0    0 -0.55079481350E+00 -0.28467334428E+01 -0.71498555901E+00  0.31493603431E+01  0.10000000000E+01 0.  1.
    1000022    2    1    0    0    0 -0.31232762973E+02 -0.49964641776E+02  0.18283848086E+02  0.62500001782E+02  0.10000010561E+02 0.  0.
    3000022    2    3    3    0    0 -0.30681968159E+02 -0.47117908333E+02  0.18998833645E+02  0.59350641439E+02  0.25000706085E+00 0.  0.
    1000022    2    1    0    0    0  0.31232762973E+02  0.49964641776E+02 -0.18283848086E+02  0.62499998218E+02  0.99999882853E+01 0.  0.
    3000022    2    5    5    0    0  0.50051523334E+01  0.12438520386E+02 -0.64271734091E+00  0.13425495262E+02  0.24999634892E+00 0.  0.
        -13    1    4    4    0    0 -0.87353238168E+01 -0.13368083332E+02  0.53619504500E+01  0.16845565344E+02  0.10500000000E+00 0.  1.
         13    1    4    4    0    0 -0.21946644343E+02 -0.33749825002E+02  0.13636883195E+02  0.42505076095E+02  0.10500000000E+00 0. -1.
    3000001    1    5    5    0    0  0.26227610639E+02  0.37526121390E+02 -0.17641130745E+02  0.49074502956E+02  0.10000000000E+01 0.  1.
        -13    1    6    6    0    0  0.34743230433E+01  0.86216658290E+01 -0.39811982454E+00  0.93044917471E+01  0.10500000000E+00 0.  1.
         13    1    6    6    0    0  0.15308292901E+01  0.38168545568E+01 -0.24459751637E+00  0.41210035147E+01  0.10500000000E+00 0. -1.
</event>
<event>
11    0  0.3485800E-009  0.9118800E+02  0.7816531E-02  0.1126479E+00
         25   -1    0    0    0    0  0.00000000000E+00  0.00000000000E+00  0.99999998245E-14  0.12500000000E+03  0.12500000000E+03 0.  0.
    3000001    1    3    3    0    0  0.12244228267E+02  0.60096034251E+02 -0.84544309394E+01  0.61918752095E+02  0.10000000000E+01 0. -1.
    1000022    2    1    0    0    0  0.12264135792E+02  0.59806218832E+02 -0.88914179946E+01  0.62499998754E+02  0.99999846292E+01 0.  0.
    3000022    2    3    3    0    0  0.19907525224E-01 -0.28981541825E+00 -0.43698705517E+00  0.58124665925E+00  0.25000141258E+00 0.  0.
    1000022    2    1    0    0    0 -0.12264135792E+02 -0.59806218832E+02  0.88914179946E+01  0.62500001246E+02  0.10000000200E+02 0.  0.
    3000022    2    5    5    0    0 -0.30150288421E+01 -0.37114746575E+02  0.71133573676E+01  0.37911174674E+02  0.24999976409E+00 0.  0.
        -13    1    4    4    0    0  0.21036413901E-01 -0.16078407546E+00 -0.13242778468E+00  0.23421393594E+00  0.10500000000E+00 0. -1.
         13    1    4    4    0    0 -0.11288886777E-02 -0.12903134279E+00 -0.30455927049E+00  0.34703272332E+00  0.10500000000E+00 0.  1.
    3000001    1    5    5    0    0 -0.92491069500E+01 -0.22691472258E+02  0.17780606269E+01  0.24588826572E+02  0.10000000000E+01 0. -1.
        -13    1    6    6    0    0 -0.18558088047E+01 -0.22282495794E+02  0.42269751540E+01  0.22755922066E+02  0.10500000000E+00 0.  1.
         13    1    6    6    0    0 -0.11592200374E+01 -0.14832250781E+02  0.28863822137E+01  0.15155252608E+02  0.10500000000E+00 0. -1.
</event>
<event>
11    0  0.3485800E-009  0.9118800E+02  0.7816531E-02  0.1126479E+00
         25   -1    0    0    0    0  0.00000000000E+00  0.00000000000E+00  0.99999998245E-14  0.12500000000E+03  0.12500000000E+03 0.  0.
    3000001    1    3    3    0    0  0.14379050561E+02  0.41583601092E+02 -0.22229761642E+02  0.49306341149E+02  0.10000000000E+01 0.  1.
    1000022    2    1    0    0    0  0.14391039998E+02  0.54428600156E+02 -0.25232424412E+02  0.62499999781E+02  0.10000009182E+02 0.  0.
    3000022    2    3    3    0    0  0.11989437398E-01  0.12844999064E+02 -0.30026627704E+01  0.13193658632E+02  0.24999934489E+00 0.  0.
    1000022    2    1    0    0    0 -0.14391039998E+02 -0.54428600156E+02  0.25232424412E+02  0.62500000219E+02  0.10000011924E+02 0.  0.
    3000022    2    5    5    0    0 -0.37675960459E+01 -0.60389103135E+01  0.55708565627E+00  0.71439527881E+01  0.24999853986E+00 0.  0.
        -13    1    4    4    0    0  0.52908131724E-01  0.55582676282E+01 -0.13457770695E+01  0.57200768542E+01  0.10500000000E+00 0. -1.
         13    1    4    4    0    0 -0.40918694326E-01  0.72867314362E+01 -0.16568857009E+01  0.74735817777E+01  0.10500000000E+00 0.  1.
    3000001    1    5    5    0    0 -0.10623443953E+02 -0.48389689843E+02  0.24675338756E+02  0.55356047431E+02  0.10000000000E+01 0.  1.
        -13    1    6    6    0    0 -0.26959007576E+01 -0.43926101439E+01  0.40911238557E+00  0.51711993498E+01  0.10500000000E+00 0. -1.
         13    1    6    6    0    0 -0.10716952882E+01 -0.16463001696E+01  0.14797327070E+00  0.19727534383E+01  0.10500000000E+00 0.  1.
</event>
<event>
11    0  0.3485800E-009  0.9118800E+02  0.7816531E-02  0.1126479E+00
         25   -1    0    0    0    0  0.00000000000E+00  0.00000000000E+00  0.99999998245E-14  0.12500000000E+03  0.12500000000E+03 0.  0.
    3000001    1    3    3    0    0 -0.27425721436E+01 -0.11592159945E+02 -0.33489852214E+02  0.35559388008E+02  0.10000000000E+01 0. -1.
    1000022    2    1    0    0    0  0.20543463094E+01 -0.24949818262E+02 -0.56387379874E+02  0.62500002965E+02  0.99999995729E+01 0.  0.
    3000022    2    3    3    0    0  0.47969184530E+01 -0.13357658317E+02 -0.22897527660E+02  0.26940614957E+02  0.24999793344E+00 0.  0.
    1000022    2    1    0    0    0 -0.20543463094E+01  0.24949818262E+02  0.56387379874E+02  0.62499997035E+02  0.99999625099E+01 0.  0.
    3000022    2    5    5    0    0 -0.39140093258E+01  0.61384713170E+01  0.22925177317E+02  0.24054657650E+02  0.25000107403E+00 0.  0.
        -13    1    4    4    0    0  0.35352998649E+01 -0.99264651719E+01 -0.17022097783E+02  0.20019887459E+02  0.10500000000E+00 0. -1.
         13    1    4    4    0    0  0.12616185880E+01 -0.34311931452E+01 -0.58754298767E+01  0.69207274977E+01  0.10500000000E+00 0.  1.
    3000001    1    5    5    0    0  0.18596630163E+01  0.18811346945E+02  0.33462202558E+02  0.38445339385E+02  0.10000000000E+01 0.  1.
        -13    1    6    6    0    0 -0.29367666196E+01  0.45771042043E+01  0.17195989703E+02  0.18035730313E+02  0.10500000000E+00 0.  1.
         13    1    6    6    0    0 -0.97724270617E+00  0.15613671126E+01  0.57291876144E+01  0.60189273370E+01  0.10500000000E+00 0. -1.
</event>
<event>
11    0  0.3485800E-009  0.9118800E+02  0.7816531E-02  0.1126479E+00
         25   -1    0    0    0    0  0.00000000000E+00  0.00000000000E+00  0.99999998245E-14  0.12500000000E+03  0.12500000000E+03 0.  0.
    3000001    1    3    3    0    0  0.50410464736E+01  0.20087996890E+02  0.45123321803E+02  0.49659379166E+02  0.10000000000E+01 0.  1.
    1000022    2    1    0    0    0  0.26016473701E+01  0.28071517176E+02  0.54876874478E+02  0.62500000280E+02  0.10000001844E+02 0.  0.
    3000022    2    3    3    0    0 -0.24393991035E+01  0.79835202866E+01  0.97535526752E+01  0.12840621114E+02  0.24999331359E+00 0.  0.
    1000022    2    1    0    0    0 -0.26016473701E+01 -0.28071517176E+02 -0.54876874478E+02  0.62499999720E+02  0.99999983433E+01 0.  0.
    3000022    2    5    5    0    0 -0.39860148792E+01 -0.16112225583E+02 -0.40188679891E+02  0.43482003268E+02  0.24997792920E+00 0.  0.
        -13    1    4    4    0    0 -0.96437933243E+00  0.33366736735E+01  0.41153927339E+01  0.53861768495E+01  0.10500000000E+00 0. -1.
         13    1    4    4    0    0 -0.14750197711E+01  0.46468466131E+01  0.56381599414E+01  0.74544442647E+01  0.10500000000E+00 0.  1.
    3000001    1    5    5    0    0  0.13843675091E+01 -0.11959291593E+02 -0.14688194587E+02  0.19017996452E+02  0.10000000000E+01 0. -1.
        -13    1    6    6    0    0 -0.25424512781E+01 -0.10137923082E+02 -0.25434941311E+02  0.27498887385E+02  0.10500000000E+00 0. -1.
         13    1    6    6    0    0 -0.14435636011E+01 -0.59743025012E+01 -0.14753738580E+02  0.15983115883E+02  0.10500000000E+00 0.  1.
</event>
<event>
11    0  0.3485800E-009  0.9118800E+02  0.7816531E-02  0.1126479E+00
         25   -1    0    0    0    0  0.00000000000E+00  0.00000000000E+00  0.99999998245E-14  0.12500000000E+03  0.12500000000E+03 0.  0.
    3000001    1    3    3    0    0 -0.19959760348E+02 -0.10614795235E+02  0.37252052101E+02  0.43586480665E+02  0.10000000000E+01 0.  1.
    1000022    2    1    0    0    0 -0.31733777283E+02 -0.19219359480E+02  0.49293338068E+02  0.62499996347E+02  0.99999983012E+01 0.  0.
    3000022    2    3    3    0    0 -0.11774016934E+02 -0.86045642444E+01  0.12041285968E+02  0.18913515682E+02  0.25001418511E+00 0.  0.
    1000022    2    1    0    0    0  0.31733777283E+02  0.19219359480E+02 -0.49293338068E+02  0.62500003653E+02  0.10000043964E+02 0.  0.
    3000022    2    5    5    0    0  0.60986859043E+01  0.14396830064E+01 -0.14263585583E+02  0.15581368074E+02  0.25000086957E+00 0.  0.
        -13    1    4    4    0    0 -0.45861346539E+01 -0.33271137415E+01  0.46027107447E+01  0.73005676568E+01  0.10500000000E+00 0.  1.
         13    1    4    4    0    0 -0.71878822806E+01 -0.52774505029E+01  0.74385752231E+01  0.11612948025E+02  0.10500000000E+00 0. -1.
    3000001    1    5    5    0    0  0.25635091378E+02  0.17779676473E+02 -0.35029752485E+02  0.46918635579E+02  0.10000000000E+01 0.  1.
        -13    1    6    6    0    0  0.17766212441E+01  0.44907952184E+00 -0.40938759127E+01  0.44865243174E+01  0.10500000000E+00 0. -1.
         13    1    6    6    0    0  0.43220646602E+01  0.99060348460E+00 -0.10169709671E+02  0.11094843756E+02  0.10500000000E+00 0.  1.
</event>
<event>
11    0  0.3485800E-009  0.9118800E+02  0.7816531E-02  0.1126479E+00
         25   -1    0    0    0    0  0.00000000000E+00  0.00000000000E+00  0.99999998245E-14  0.12500000000E+03  0.12500000000E+03 0.  0.
    3000001    1    3    3    0    0  0.14251986869E+01  0.24018185093E+02 -0.25992831792E+02  0.35433482908E+02  0.10000000000E+01 0.  1.
    1000022    2    1    0    0    0 -0.39366228278E+01  0.45766728688E+02 -0.41184458762E+02  0.62499999340E+02  0.99999909894E+01 0.  0.
    3000022    2    3    3    0    0 -0.53618215147E+01  0.21748543595E+02 -0.15191626971E+02  0.27066516432E+02  0.25000648707E+00 0.  0.
    1000022    2    1    0    0    0  0.39366228278E+01 -0.45766728688E+02  0.41184458762E+02  0.62500000660E+02  0.99999992426E+01 0.  0.
    3000022    2    5    5    0    0  0.30270388361E+01 -0.29272762824E+02  0.32374284809E+02  0.43751736258E+02  0.25000262428E+00 0.  0.
        -13    1    4    4    0    0 -0.25777742654E+01  0.10336693356E+02 -0.71511462436E+01  0.12831292503E+02  0.10500000000E+00 0. -1.
         13    1    4    4    0    0 -0.27840472493E+01  0.11411850240E+02 -0.80404807273E+01  0.14235223929E+02  0.10500000000E+00 0.  1.
    3000001    1    5    5    0    0  0.90958399172E+00 -0.16493965865E+02  0.88101739538E+01  0.18748264402E+02  0.10000000000E+01 0. -1.
        -13    1    6    6    0    0  0.19409056644E+01 -0.19276308341E+02  0.21285993017E+02  0.28782767445E+02  0.10500000000E+00 0. -1.
         13    1    6    6    0    0  0.10861331717E+01 -0.99964544823E+01  0.11088291792E+02  0.14968968814E+02  0.10500000000E+00 0.  1.
</event>
<event>
11    0  0.3485800E-009  0.9118800E+02  0.7816531E-02  0.1126479E+00
         25   -1    0    0    0    0  0.00000000000E+00  0.00000000000E+00  0.99999998245E-14  0.12500000000E+03  0.12500000000E+03 0.  0.
    3000001    1    3    3    0    0  0.11707785363E+02  0.16451375449E+02 -0.10737777129E+02  0.22891479855E+02  0.10000000000E+01 0. -1.
    1000022    2    1    0    0    0  0.40113217265E+02  0.35002719876E+02 -0.31176744612E+02  0.62499999726E+02  0.99999981568E+01 0.  0.
    3000022    2    3    3    0    0  0.28405431902E+02  0.18551344427E+02 -0.20438967483E+02  0.39608519871E+02  0.25002610007E+00 0.  0.
    1000022    2    1    0    0    0 -0.40113217265E+02 -0.35002719876E+02  0.31176744612E+02  0.62500000274E+02  0.10000001582E+02 0.  0.
    3000022    2    5    5    0    0 -0.28686155215E+02 -0.22225818846E+02  0.25732098251E+02  0.44486918333E+02  0.24999597338E+00 0.  0.
        -13    1    4    4    0    0  0.13739059438E+02  0.90114119383E+01 -0.98290587259E+01  0.19146506726E+02  0.10500000000E+00 0. -1.
         13    1    4    4    0    0  0.14666372465E+02  0.95399324882E+01 -0.10609908757E+02  0.20462013146E+02  0.10500000000E+00 0.  1.
    3000001    1    5    5    0    0 -0.11427062050E+02 -0.12776901030E+02  0.54446463603E+01  0.18013081941E+02  0.10000000000E+01 0.  1.
        -13    1    6    6    0    0 -0.20462219680E+02 -0.15855377254E+02  0.18406739800E+02  0.31763414759E+02  0.10500000000E+00 0.  1.
         13    1    6    6    0    0 -0.82239355348E+01 -0.63704415923E+01  0.73253584509E+01  0.12723503574E+02  0.10500000000E+00 0. -1.
</event>
<event>
11    0  0.3485800E-009  0.9118800E+02  0.7816531E-02  0.1126479E+00
         25   -1    0    0    0    0  0.00000000000E+00  0.00000000000E+00  0.99999998245E-14  0.12500000000E+03  0.12500000000E+03 0.  0.
    3000001    1    3    3    0    0 -0.54264024007E+02 -0.96614859407E+01 -0.23762609278E+02  0.60029910976E+02  0.10000000000E+01 0. -1.
    1000022    2    1    0    0    0 -0.55320599383E+02 -0.11677842964E+02 -0.24688240878E+02  0.62500000126E+02  0.10000002289E+02 0.  0.
    3000022    2    3    3    0    0 -0.10565753758E+01 -0.20163570236E+01 -0.92563160009E+00  0.24700891509E+01  0.24999876680E+00 0.  0.
    1000022    2    1    0    0    0  0.55320599383E+02  0.11677842964E+02  0.24688240878E+02  0.62499999874E+02  0.10000000708E+02 0.  0.
    3000022    2    5    5    0    0  0.72289398685E+01  0.24664479713E+00  0.67737320393E+01  0.99128376253E+01  0.24999753330E+00 0.  0.
        -13    1    4    4    0    0 -0.48466545554E+00 -0.81585436319E+00 -0.34304185487E+00  0.10145056234E+01  0.10500000000E+00 0. -1.
         13    1    4    4    0    0 -0.57190992022E+00 -0.12005026604E+01 -0.58258974522E+00  0.14555835275E+01  0.10500000000E+00 0.  1.
    3000001    1    5    5    0    0  0.48091659514E+02  0.11431198167E+02  0.17914508839E+02  0.52587162248E+02  0.10000000000E+01 0. -1.
        -13    1    6    6    0    0  0.45718786756E+01  0.20837964375E+00  0.43223206950E+01  0.62959493240E+01  0.10500000000E+00 0. -1.
         13    1    6    6    0    0  0.26570611929E+01  0.38265153376E-01  0.24514113443E+01  0.36168883013E+01  0.10500000000E+00 0.  1.
</event>
<event>
11    0  0.3485800E-009  0.9118800E+02  0.7816531E-02  0.1126479E+00
         25   -1    0    0    0    0  0.00000000000E+00  0.00000000000E+00  0.99999998245E-14  0.12500000000E+03  0.12500000000E+03 0.  0.
    3000001    1    3    3    0    0  0.13964853523E+02 -0.34255408517E+01 -0.14916319776E+01  0.14490563481E+02  0.10000000000E+01 0. -1.
    1000022    2    1    0    0    0  0.53812823518E+02 -0.30172437912E+02 -0.23213216094E+00  0.62500000657E+02  0.10000010613E+02 0.  0.
    3000022    2    3    3    0    0  0.39847969995E+02 -0.26746897060E+02  0.12594998167E+01  0.48009437176E+02  0.25000617829E+00 0.  0.
    1000022    2    1    0    0    0 -0.53812823518E+02  0.30172437912E+02  0.23213216094E+00  0.62499999343E+02  0.10000002406E+02 0.  0.
    3000022    2    5    5    0    0 -0.17827260423E+02  0.12997816161E+02 -0.38787618552E+01  0.22402270815E+02  0.25001000813E+00 0.  0.
        -13    1    4    4    0    0  0.25161161357E+02 -0.16827131755E+02  0.82462334707E+00  0.30280809643E+02  0.10500000000E+00 0.  1.
         13    1    4    4    0    0  0.14686808638E+02 -0.99197653047E+01  0.43487646962E+00  0.17728627533E+02  0.10500000000E+00 0. -1.
    3000001    1    5    5    0    0 -0.35985563095E+02  0.17174621751E+02  0.41108940161E+01  0.40097728529E+02  0.10000000000E+01 0.  1.
        -13    1    6    6    0    0 -0.99830678246E+01  0.72099491960E+01 -0.21281746785E+01  0.12497406253E+02  0.10500000000E+00 0. -1.
         13    1    6    6    0    0 -0.78441925982E+01  0.57878669645E+01 -0.17505871767E+01  0.99048645614E+01  0.10500000000E+00 0.  1.
</event>
<event>
11    0  0.3485800E-009  0.9118800E+02  0.7816531E-02  0.1126479E+00
         25   -1    0    0    0    0  0.00000000000E+00  0.00000000000E+00  0.99999998245E-14  0.12500000000E+03  0.12500000000E+03 0.  0.
    3000001    1    3    3    0    0 -0.26094522892E+02 -0.35689730849E+02 -0.10464743937E+02  0.45444382257E+02  0.10000000000E+01 0. -1.
    1000022    2    1    0    0    0 -0.39813807580E+02 -0.45798432082E+02 -0.11118200501E+02  0.62500000630E+02  0.10000002059E+02 0.  0.
    3000022    2    3    3    0    0 -0.13719284688E+02 -0.10108701233E+02 -0.65345656382E+00  0.17055618373E+02  0.24999927620E+00 0.  0.
    1000022    2    1    0    0    0  0.39813807580E+02  0.45798432082E+02  0.11118200501E+02  0.62499999370E+02  0.99999941890E+01 0.  0.
    3000022    2    5    5    0    0  0.11224407472E+02  0.69038564315E+01  0.14492589556E+01  0.13259464806E+02  0.24999742628E+00 0.  0.
        -13    1    4    4    0    0 -0.92309247858E+01 -0.68654294227E+01 -0.43464194844E+00  0.11512776910E+02  0.10500000000E+00 0.  1.
         13    1    4    4    0    0 -0.44883599023E+01 -0.32432718100E+01 -0.21881461538E+00  0.55428414628E+01  0.10500000000E+00 0. -1.
    3000001    1    5    5    0    0  0.28589400108E+02  0.38894575650E+02  0.96689415452E+01  0.49240534564E+02  0.10000000000E+01 0.  1.
        -13    1    6    6    0    0  0.42312916821E+01  0.25935161152E+01  0.48560322991E+00  0.49876838949E+01  0.10500000000E+00 0.  1.
         13    1    6    6    0    0  0.69931157896E+01  0.43103403163E+01  0.96365572567E+00  0.82717809114E+01  0.10500000000E+00 0. -1.
</event>
<event>
11    0  0.3485800E-009  0.9118800E+02  0.7816531E-02  0.1126479E+00
         25   -1    0    0    0    0  0.00000000000E+00  0.00000000000E+00  0.99999998245E-14  0.12500000000E+03  0.12500000000E+03 0.  0.
    3000001    1    3    3    0    0  0.26618248164E+02 -0.13685356511E+02  0.93938118556E+01  0.31385726362E+02  0.10000000000E+01 0.  1.
    1000022    2    1    0    0    0  0.49690225890E+02 -0.34299726072E+02  0.12675169360E+02  0.62500002816E+02  0.10000033808E+02 0.  0.
    3000022    2    3    3    0    0  0.23071977726E+02 -0.20614369561E+02  0.32813575042E+01  0.31114276454E+02  0.25000715438E+00 0.  0.
    1000022    2    1    0    0    0 -0.49690225890E+02  0.34299726072E+02 -0.12675169360E+02  0.62499997184E+02  0.99999986035E+01 0.  0.
    3000022    2    5    5    0    0 -0.48732269196E+02  0.32195832478E+02 -0.10893866688E+02  0.59415019308E+02  0.24999617935E+00 0.  0.
        -13    1    4    4    0    0  0.12142599559E+02 -0.10785632313E+02  0.16740571382E+01  0.16327464002E+02  0.10500000000E+00 0.  1.
         13    1    4    4    0    0  0.10929378167E+02 -0.98287372485E+01  0.16073003660E+01  0.14786812452E+02  0.10500000000E+00 0. -1.
    3000001    1    5    5    0    0 -0.95795669415E+00  0.21038935940E+01 -0.17813026718E+01  0.30849778753E+01  0.10000000000E+01 0. -1.
        -13    1    6    6    0    0 -0.13172746306E+02  0.87371989583E+01 -0.29258100578E+01  0.16075797970E+02  0.10500000000E+00 0. -1.
         13    1    6    6    0    0 -0.35559522890E+02  0.23458633520E+02 -0.79680566301E+01  0.43339221338E+02  0.10500000000E+00 0.  1.
</event>
<event>
11    0  0.3485800E-009  0.9118800E+02  0.7816531E-02  0.1126479E+00
         25   -1    0    0    0    0  0.00000000000E+00  0.00000000000E+00  0.99999998245E-14  0.12500000000E+03  0.12500000000E+03 0.  0.
    3000001    1    3    3    0    0 -0.25680361621E+01  0.72119512684E+01  0.17172822175E+02  0.18828512216E+02  0.10000000000E+01 0.  1.
    1000022    2    1    0    0    0 -0.18785396418E+02  0.31776911703E+02  0.49432646897E+02  0.62500000082E+02  0.10000009754E+02 0.  0.
    3000022    2    3    3    0    0 -0.16217360256E+02  0.24564960434E+02  0.32259824722E+02  0.43671487866E+02  0.25001301123E+00 0.  0.
    1000022    2    1    0    0    0  0.18785396418E+02 -0.31776911703E+02 -0.49432646897E+02  0.62499999918E+02  0.10000008725E+02 0.  0.
    3000022    2    5    5    0    0 -0.69750932760E+00  0.11106299180E+00 -0.42116275545E+00  0.85949274753E+00  0.24999093233E+00 0.  0.
        -13    1    4    4    0    0 -0.57569295275E+01  0.88034239809E+01  0.11476235302E+02  0.15567835851E+02  0.10500000000E+00 0.  1.
         13    1    4    4    0    0 -0.10460430729E+02  0.15761536453E+02  0.20783589420E+02  0.28103652015E+02  0.10500000000E+00 0. -1.
    3000001    1    5    5    0    0  0.19482905746E+02 -0.31887974695E+02 -0.49011484142E+02  0.61640507170E+02  0.10000000000E+01 0.  1.
        -13    1    6    6    0    0 -0.30678563135E+00  0.55517025143E-01 -0.26440129997E+00  0.42205759218E+00  0.10500000000E+00 0.  1.
         13    1    6    6    0    0 -0.39072369624E+00  0.55545966655E-01 -0.15676145547E+00  0.43743515535E+00  0.10500000000E+00 0. -1.
</event>
<event>
11    0  0.3485800E-009  0.9118800E+02  0.7816531E-02  0.1126479E+00
         25   -1    0    0    0    0  0.00000000000E+00  0.00000000000E+00  0.99999998245E-14  0.12500000000E+03  0.12500000000E+03 0.  0.
    3000001    1    3    3    0    0  0.10218297438E+01  0.74588031183E-01 -0.13545494078E+01  0.19709143812E+01  0.10000000000E+01 0. -1.
    1000022    2    1    0    0    0  0.17794527680E+02  0.45432702340E+02 -0.37755453530E+02  0.62500000385E+02  0.10000005975E+02 0.  0.
    3000022    2    3    3    0    0  0.16772697937E+02  0.45358114309E+02 -0.36400904122E+02  0.60529086003E+02  0.25000347986E+00 0.  0.
    1000022    2    1    0    0    0 -0.17794527680E+02 -0.45432702340E+02  0.37755453530E+02  0.62499999615E+02  0.10000001168E+02 0.  0.
    3000022    2    5    5    0    0 -0.23293364375E+01 -0.19061406980E+02  0.13825788747E+02  0.23663853877E+02  0.25000310789E+00 0.  0.
        -13    1    4    4    0    0  0.10850589449E+02  0.29181388800E+02 -0.23450224733E+02  0.38977080556E+02  0.10500000000E+00 0. -1.
         13    1    4    4    0    0  0.59221084874E+01  0.16176725509E+02 -0.12950679390E+02  0.21552005447E+02  0.10500000000E+00 0.  1.
    3000001    1    5    5    0    0 -0.15465191243E+02 -0.26371295360E+02  0.23929664783E+02  0.38836145738E+02  0.10000000000E+01 0.  1.
        -13    1    6    6    0    0 -0.11086791659E+01 -0.93790490659E+01  0.67297897527E+01  0.11597276663E+02  0.10500000000E+00 0.  1.
         13    1    6    6    0    0 -0.12206572716E+01 -0.96823579139E+01  0.70959989941E+01  0.12066577214E+02  0.10500000000E+00 0. -1.
</event>
<event>
11    0  0.3485800E-009  0.9118800E+02  0.7816531E-02  0.1126479E+00
         25   -1    0    0    0    0  0.00000000000E+00  0.00000000000E+00  0.99999998245E-14  0.12500000000E+03  0.12500000000E+03 0.  0.
    3000001    1    3    3    0    0 -0.57226010029E+01 -0.15945346156E+01  0.42965554447E+01  0.73993980544E+01  0.10000000000E+01 0.  1.
    1000022    2    1    0    0    0 -0.35535615864E+02  0.45051709651E+01  0.50231199512E+02  0.62499999582E+02  0.99999991532E+01 0.  0.
    3000022    2    3    3    0    0 -0.29813014861E+02  0.60997055808E+01  0.45934644067E+02  0.55100601528E+02  0.24999963888E+00 0.  0.
    1000022    2    1    0    0    0  0.35535615864E+02 -0.45051709651E+01 -0.50231199512E+02  0.62500000418E+02  0.10000004378E+02 0.  0.
    3000022    2    5    5    0    0  0.16633845770E+02  0.22592339976E+01 -0.26847027162E+02  0.31664086232E+02  0.25005220772E+00 0.  0.
        -13    1    4    4    0    0 -0.10984017033E+02  0.22561685944E+01  0.17033055446E+02  0.20393011786E+02  0.10500000000E+00 0. -1.
         13    1    4    4    0    0 -0.18828997828E+02  0.38435369863E+01  0.28901588622E+02  0.34707589741E+02  0.10500000000E+00 0.  1.
    3000001    1    5    5    0    0  0.18901770094E+02 -0.67644049628E+01 -0.23384172350E+02  0.30835914186E+02  0.10000000000E+01 0.  1.
        -13    1    6    6    0    0  0.66110046500E+01  0.89445233714E+00 -0.10788367293E+02  0.12684846129E+02  0.10500000000E+00 0.  1.
         13    1    6    6    0    0  0.10022841120E+02  0.13647816605E+01 -0.16058659869E+02  0.18979240103E+02  0.10500000000E+00 0. -1.
</event>
<event>
11    0  0.3485800E-009  0.9118800E+02  0.7816531E-02  0.1126479E+00
         25   -1    0    0    0    0  0.00000000000E+00  0.00000000000E+00  0.99999998245E-14  0.12500000000E+03  0.12500000000E+03 0.  0.
    3000001    1    3    3    0    0 -0.52030425184E+01  0.59783267032E+00  0.15111831245E+02  0.16024871261E+02  0.10000000000E+01 0. -1.
    1000022    2    1    0    0    0 -0.32292243431E+02 -0.70308372158E+01  0.52096337192E+02  0.62500000065E+02  0.10000000078E+02 0.  0.
    3000022    2    3    3    0    0 -0.27089200913E+02 -0.76286698861E+01  0.36984505947E+02  0.46475128805E+02  0.25001382878E+00 0.  0.
    1000022    2    1    0    0    0  0.32292243431E+02  0.70308372158E+01 -0.52096337192E+02  0.62499999935E+02  0.99999992593E+01 0.  0.
    3000022    2    5    5    0    0  0.24578241978E+02  0.15669535490E+01 -0.41555858827E+02  0.48306285575E+02  0.25000213817E+00 0.  0.
        -13    1    4    4    0    0 -0.96215169082E+01 -0.27276655103E+01  0.13233292533E+02  0.16587489352E+02  0.10500000000E+00 0. -1.
         13    1    4    4    0    0 -0.17467684005E+02 -0.49010043758E+01  0.23751213415E+02  0.29887639453E+02  0.10500000000E+00 0.  1.
    3000001    1    5    5    0    0  0.77140014530E+01  0.54638836668E+01 -0.10540478365E+02  0.14193714359E+02  0.10000000000E+01 0.  1.
        -13    1    6    6    0    0  0.12550526545E+02  0.77743773670E+00 -0.21092142867E+02  0.24556254635E+02  0.10500000000E+00 0.  1.
         13    1    6    6    0    0  0.12027715433E+02  0.78951581227E+00 -0.20463715960E+02  0.23750030940E+02  0.10500000000E+00 0. -1.
</event>
<event>
11    0  0.3485800E-009  0.9118800E+02  0.7816531E-02  0.1126479E+00
         25   -1    0    0    0    0  0.00000000000E+00  0.00000000000E+00  0.99999998245E-14  0.12500000000E+03  0.12500000000E+03 0.  0.
    3000001    1    3    3    0    0  0.10650184368E+02  0.13605433847E+02 -0.18042743595E+02  0.25001497028E+02  0.10000000000E+01 0. -1.
    1000022    2    1    0    0    0  0.27110891793E+02  0.42052983489E+02 -0.36094264080E+02  0.62500001778E+02  0.10000022430E+02 0.  0.
    3000022    2    3    3    0    0  0.16460707425E+02  0.28447549642E+02 -0.18051520486E+02  0.37498504749E+02  0.24999409727E+00 0.  0.
    1000022    2    1    0    0    0 -0.27110891793E+02 -0.42052983489E+02  0.36094264080E+02  0.62499998222E+02  0.10000000209E+02 0.  0.
    3000022    2    5    5    0    0 -0.27064751768E+02 -0.38196456856E+02  0.34725311210E+02  0.58287046937E+02  0.24999475920E+00 0.  0.
        -13    1    4    4    0    0  0.77026197811E+01  0.13437545698E+02 -0.84794399278E+01  0.17658140116E+02  0.10500000000E+00 0. -1.
         13    1    4    4    0    0  0.87580876437E+01  0.15010003943E+02 -0.95720805578E+01  0.19840364633E+02  0.10500000000E+00 0.  1.
    3000001    1    5    5    0    0 -0.46140024918E-01 -0.38565266326E+01  0.13689528698E+01  0.42129512850E+01  0.10000000000E+01 0. -1.
        -13    1    6    6    0    0 -0.95586212427E+01 -0.13397273069E+02  0.12185041860E+02  0.20477803493E+02  0.10500000000E+00 0. -1.
         13    1    6    6    0    0 -0.17506130525E+02 -0.24799183787E+02  0.22540269351E+02  0.37809243445E+02  0.10500000000E+00 0.  1.
</event>
<event>
11    0  0.3485800E-009  0.9118800E+02  0.7816531E-02  0.1126479E+00
         25   -1    0    0    0    0  0.00000000000E+00  0.00000000000E+00  0.99999998245E-14  0.12500000000E+03  0.12500000000E+03 0.  0.
    3000001    1    3    3    0    0  0.20065968430E+02 -0.52164751249E+02 -0.26665031752E+02  0.61934063973E+02  0.10000000000E+01 0.  1.
    1000022    2    1    0    0    0  0.19563901350E+02 -0.52092113209E+02 -0.26644237919E+02  0.62499999988E+02  0.10000004480E+02 0.  0.
    3000022    2    3    3    0    0 -0.50206707964E+00  0.72638040036E-01  0.20793832767E-01  0.56593601486E+00  0.25000710412E+00 0.  0.
    1000022    2    1    0    0    0 -0.19563901350E+02  0.52092113209E+02  0.26644237919E+02  0.62500000012E+02  0.10000004635E+02 0.  0.
    3000022    2    5    5    0    0 -0.24788461511E+01  0.10596597135E+01  0.14144836968E+01  0.30546392263E+01  0.24999945062E+00 0.  0.
        -13    1    4    4    0    0 -0.15788926432E+00  0.70954218330E-02  0.57682673360E-01  0.19832210065E+00  0.10500000000E+00 0. -1.
         13    1    4    4    0    0 -0.34417781532E+00  0.65542618203E-01 -0.36888840593E-01  0.36761391421E+00  0.10500000000E+00 0.  1.
    3000001    1    5    5    0    0 -0.17085055199E+02  0.51032453495E+02  0.25229754222E+02  0.59445360786E+02  0.10000000000E+01 0.  1.
        -13    1    6    6    0    0 -0.16713356554E+01  0.65694065969E+00  0.95098872441E+00  0.20347821646E+01  0.10500000000E+00 0. -1.
         13    1    6    6    0    0 -0.80751049569E+00  0.40271905378E+00  0.46349497234E+00  0.10198570617E+01  0.10500000000E+00 0.  1.
</event>
<event>
11    0  0.3485800E-009  0.9118800E+02  0.7816531E-02  0.1126479E+00
         25   -1    0    0    0    0  0.00000000000E+00  0.00000000000E+00  0.99999998245E-14  0.12500000000E+03  0.12500000000E+03 0.  0.
    3000001    1    3    3    0    0  0.40497448641E+02  0.23517455964E+02  0.37256514360E+02  0.59851164932E+02  0.10000000000E+01 0. -1.
    1000022    2    1    0    0    0  0.41536831346E+02  0.22732769152E+02  0.39549498411E+02  0.62499999520E+02  0.99999981914E+01 0.  0.
    3000022    2    3    3    0    0  0.10393827045E+01 -0.78468681206E+00  0.22929840519E+01  0.26488345881E+01  0.24999802673E+00 0.  0.
    1000022    2    1    0    0    0 -0.41536831346E+02 -0.22732769152E+02 -0.39549498411E+02  0.62500000480E+02  0.10000004190E+02 0.  0.
    3000022    2    5    5    0    0 -0.30415012263E+02 -0.19654538632E+02 -0.33930937563E+02  0.49626050470E+02  0.25000307329E+00 0.  0.
        -13    1    4    4    0    0  0.62952576973E+00 -0.51382235813E+00  0.13152116943E+01  0.15495557141E+01  0.10500000000E+00 0.  1.
         13    1    4    4    0    0  0.40985693477E+00 -0.27086445393E+00  0.97777235759E+00  0.10992788739E+01  0.10500000000E+00 0. -1.
    3000001    1    5    5    0    0 -0.11121819083E+02 -0.30782305199E+01 -0.56185608481E+01  0.12873950010E+02  0.10000000000E+01 0. -1.
        -13    1    6    6    0    0 -0.16639206984E+02 -0.10808315070E+02 -0.18525922805E+02  0.27145970686E+02  0.10500000000E+00 0. -1.
         13    1    6    6    0    0 -0.13775805279E+02 -0.88462235628E+01 -0.15405014758E+02  0.22480079784E+02  0.10500000000E+00 0.  1.
</event>
<event>
11    0  0.3485800E-009  0.9118800E+02  0.7816531E-02  0.1126479E+00
         25   -1    0    0    0    0  0.00000000000E+00  0.00000000000E+00  0.99999998245E-14  0.12500000000E+03  0.12500000000E+03 0.  0.
    3000001    1    3    3    0    0 -0.47433535914E+01  0.12500426178E+02  0.38161752129E+00  0.13412892673E+02  0.10000000000E+01 0. -1.
    1000022    2    1    0    0    0 -0.10060192456E+02  0.59586822180E+02 -0.12427915788E+02  0.62500000025E+02  0.10000003125E+02 0.  0.
    3000022    2    3    3    0    0 -0.53168388651E+01  0.47086396002E+02 -0.12809533309E+02  0.49087107352E+02  0.25000119871E+00 0.  0.
    1000022    2    1    0    0    0  0.10060192456E+02 -0.59586822180E+02  0.12427915788E+02  0.62499999975E+02  0.10000002818E+02 0.  0.
    3000022    2    5    5    0    0  0.99280090033E+01 -0.43669477743E+02  0.12693061653E+02  0.46548522655E+02  0.24999620223E+00 0.  0.
        -13    1    4    4    0    0 -0.25547041142E+01  0.23105230641E+02 -0.63265298843E+01  0.24091787013E+02  0.10500000000E+00 0.  1.
         13    1    4    4    0    0 -0.27621347510E+01  0.23981165361E+02 -0.64830034250E+01  0.24995320339E+02  0.10500000000E+00 0. -1.
    3000001    1    5    5    0    0  0.13218345319E+00 -0.15917344436E+02 -0.26514586527E+00  0.15951477320E+02  0.10000000000E+01 0. -1.
        -13    1    6    6    0    0  0.33376380427E+01 -0.14820871854E+02  0.42591879532E+01  0.15778142389E+02  0.10500000000E+00 0.  1.
         13    1    6    6    0    0  0.65903709606E+01 -0.28848605889E+02  0.84338737000E+01  0.30770380267E+02  0.10500000000E+00 0. -1.
</event>
<event>
11    0  0.3485800E-009  0.9118800E+02  0.7816531E-02  0.1126479E+00
         25   -1    0    0    0    0  0.00000000000E+00  0.00000000000E+00  0.99999998245E-14  0.12500000000E+03  0.12500000000E+03 0.  0.
    3000001    1    3    3    0    0 -0.10588514516E+02  0.13694195496E+02  0.81008684618E+00  0.17358106770E+02  0.10000000000E+01 0. -1.
    1000022    2    1    0    0    0 -0.48488030893E+02  0.37701293580E+02  0.58114643054E+01  0.62499998408E+02  0.10000000307E+02 0.  0.
    3000022    2    3    3    0    0 -0.37899516377E+02  0.24007098084E+02  0.50013774592E+01  0.45141891638E+02  0.25000832570E+00 0.  0.
    1000022    2    1    0    0    0  0.48488030893E+02 -0.37701293580E+02 -0.58114643054E+01  0.62500001592E+02  0.10000020208E+02 0.  0.
    3000022    2    5    5    0    0  0.68291243512E+01 -0.77620966589E+01  0.21841185396E+01  0.10569766164E+02  0.24999806240E+00 0.  0.
        -13    1    4    4    0    0 -0.12072944088E+02  0.75888809422E+01  0.15984734839E+01  0.14349677188E+02  0.10500000000E+00 0. -1.
         13    1    4    4    0    0 -0.25826572289E+02  0.16418217142E+02  0.34029039753E+01  0.30792214450E+02  0.10500000000E+00 0.  1.
    3000001    1    5    5    0    0  0.41658906542E+02 -0.29939196921E+02 -0.79955828450E+01  0.51930235428E+02  0.10000000000E+01 0.  1.
        -13    1    6    6    0    0  0.29789765903E+01 -0.34781223487E+01  0.99428105475E+00  0.46873506818E+01  0.10500000000E+00 0.  1.
         13    1    6    6    0    0  0.38501477609E+01 -0.42839743101E+01  0.11898374849E+01  0.58824154827E+01  0.10500000000E+00 0. -1.
</event>
<event>
11    0  0.3485800E-009  0.9118800E+02  0.7816531E-02  0.1126479E+00
         25   -1    0    0    0    0  0.00000000000E+00  0.00000000000E+00  0.99999998245E-14  0.12500000000E+03  0.12500000000E+03 0.  0.
    3000001    1    3    3    0    0  0.44839896032E+01 -0.41829024296E+00  0.72744316130E+00  0.46701502162E+01  0.10000000000E+01 0. -1.
    1000022    2    1    0    0    0  0.49687523379E+02  0.14142976271E+02  0.33725008776E+02  0.62500002251E+02  0.10000015352E+02 0.  0.
    3000022    2    3    3    0    0  0.45203533775E+02  0.14561266514E+02  0.32997565615E+02  0.57829852034E+02  0.25000301846E+00 0.  0.
    1000022    2    1    0    0    0 -0.49687523379E+02 -0.14142976271E+02 -0.33725008776E+02  0.62499997749E+02  0.99999872197E+01 0.  0.
    3000022    2    5    5    0    0 -0.38935508925E+02 -0.98629846735E+01 -0.30532938327E+02  0.50453693061E+02  0.24999744383E+00 0.  0.
        -13    1    4    4    0    0  0.23268457025E+02  0.75566250899E+01  0.16956494039E+02  0.29766716147E+02  0.10500000000E+00 0. -1.
         13    1    4    4    0    0  0.21935076750E+02  0.70046414239E+01  0.16041071576E+02  0.28063135887E+02  0.10500000000E+00 0.  1.
    3000001    1    5    5    0    0 -0.10752014454E+02 -0.42799915974E+01 -0.31920704496E+01  0.12046304688E+02  0.10000000000E+01 0.  1.
        -13    1    6    6    0    0 -0.20380313363E+02 -0.51635240261E+01 -0.16067091507E+02  0.26460944950E+02  0.10500000000E+00 0.  1.
         13    1    6    6    0    0 -0.18555195562E+02 -0.46994606474E+01 -0.14465846819E+02  0.23992748111E+02  0.10500000000E+00 0. -1.
</event>
<event>
11    0  0.3485800E-009  0.9118800E+02  0.7816531E-02  0.1126479E+00
         25   -1    0    0    0    0  0.00000000000E+00  0.00000000000E+00  0.99999998245E-14  0.12500000000E+03  0.12500000000E+03 0.  0.
    3000001    1    3    3    0    0 -0.28839802354E+02  0.22327141712E+01 -0.26441330078E+01  0.29063906340E+02  0.10000000000E+01 0.  1.
    1000022    2    1    0    0    0 -0.60144832150E+02 -0.20090315871E+01 -0.13594594851E+02  0.62500000655E+02  0.10000001526E+02 0.  0.
    3000022    2    3    3    0    0 -0.31305029796E+02 -0.42417457582E+01 -0.10950461843E+02  0.33436094315E+02  0.24998177356E+00 0.  0.
    1000022    2    1    0    0    0  0.60144832150E+02  0.20090315871E+01  0.13594594851E+02  0.62499999345E+02  0.99999933326E+01 0.  0.
    3000022    2    5    5    0    0  0.30361043781E+02 -0.39325534458E+01  0.66646513439E+01  0.31332699184E+02  0.25000905109E+00 0.  0.
        -13    1    4    4    0    0 -0.21906874351E+02 -0.29719030294E+01 -0.76146364919E+01  0.23382409314E+02  0.10500000000E+00 0. -1.
         13    1    4    4    0    0 -0.93981554453E+01 -0.12698427288E+01 -0.33358253514E+01  0.10053685001E+02  0.10500000000E+00 0.  1.
    3000001    1    5    5    0    0  0.29783788369E+02  0.59415850328E+01  0.69299435072E+01  0.31167300161E+02  0.10000000000E+01 0.  1.
        -13    1    6    6    0    0  0.11614372123E+02 -0.15536707137E+01  0.25885575035E+01  0.12000799451E+02  0.10500000000E+00 0.  1.
         13    1    6    6    0    0  0.18746671658E+02 -0.23788827320E+01  0.40760938404E+01  0.19331899733E+02  0.10500000000E+00 0. -1.
</event>
<event>
11    0  0.3485800E-009  0.9118800E+02  0.7816531E-02  0.1126479E+00
         25   -1    0    0    0    0  0.00000000000E+00  0.00000000000E+00  0.99999998245E-14  0.12500000000E+03  0.12500000000E+03 0.  0.
    3000001    1    3    3    0    0 -0.41842008837E+01  0.11280296077E+02 -0.52878148258E+01  0.13180045609E+02  0.10000000000E+01 0.  1.
    1000022    2    1    0    0    0 -0.35709605669E+02  0.47394189601E+02 -0.16877941110E+02  0.62500000812E+02  0.10000003024E+02 0.  0.
    3000022    2    3    3    0    0 -0.31525404785E+02  0.36113893524E+02 -0.11590126284E+02  0.49319955203E+02  0.25000332346E+00 0.  0.
    1000022    2    1    0    0    0  0.35709605669E+02 -0.47394189601E+02  0.16877941110E+02  0.62499999188E+02  0.99999928715E+01 0.  0.
    3000022    2    5    5    0    0  0.32483883818E+02 -0.45726317957E+02  0.17328982773E+02  0.58706515847E+02  0.24999415488E+00 0.  0.
        -13    1    4    4    0    0 -0.14617958094E+02  0.16845829575E+02 -0.53787019446E+01  0.22943585869E+02  0.10500000000E+00 0. -1.
         13    1    4    4    0    0 -0.16907446691E+02  0.19268063948E+02 -0.62114243395E+01  0.26376369334E+02  0.10500000000E+00 0.  1.
    3000001    1    5    5    0    0  0.32257218507E+01 -0.16678716435E+01 -0.45104166303E+00  0.37934833411E+01  0.10000000000E+01 0.  1.
        -13    1    6    6    0    0  0.24430820705E+02 -0.34383374218E+02  0.13057073035E+02  0.44154044030E+02  0.10500000000E+00 0.  1.
         13    1    6    6    0    0  0.80530631131E+01 -0.11342943739E+02  0.42719097383E+01  0.14552471817E+02  0.10500000000E+00 0. -1.
</event>
<event>
11    0  0.3485800E-009  0.9118800E+02  0.7816531E-02  0.1126479E+00
         25   -1    0    0    0    0  0.00000000000E+00  0.00000000000E+00  0.99999998245E-14  0.12500000000E+03  0.12500000000E+03 0.  0.
    3000001    1    3    3    0    0  0.23545022246E+02 -0.23826649849E+00  0.21877734496E+02  0.32156805037E+02  0.10000000000E+01 0.  1.
    1000022    2    1    0    0    0  0.40977665621E+02 -0.82998804874E+01  0.45367312012E+02  0.62499999090E+02  0.99999895616E+01 0.  0.
    3000022    2    3    3    0    0  0.17432643375E+02 -0.80616139889E+01  0.23489577516E+02  0.30343194054E+02  0.24999669534E+00 0.  0.
    1000022    2    1    0    0    0 -0.40977665621E+02  0.82998804874E+01 -0.45367312012E+02  0.62500000910E+02  0.10000000934E+02 0.  0.
    3000022    2    5    5    0    0 -0.23206519860E+02  0.50735916015E+01 -0.32692259959E+02  0.40412006293E+02  0.24999134912E+00 0.  0.
        -13    1    4    4    0    0  0.10024845596E+02 -0.47076040590E+01  0.13544244440E+02  0.17496189518E+02  0.10500000000E+00 0. -1.
         13    1    4    4    0    0  0.74077977788E+01 -0.33540099299E+01  0.99453330764E+01  0.12847004536E+02  0.10500000000E+00 0.  1.
    3000001    1    5    5    0    0 -0.17771145761E+02  0.32262888859E+01 -0.12675052053E+02  0.22087994617E+02  0.10000000000E+01 0. -1.
        -13    1    6    6    0    0 -0.14751733236E+02  0.32045611001E+01 -0.20681100419E+02  0.25604721925E+02  0.10500000000E+00 0. -1.
         13    1    6    6    0    0 -0.84547866232E+01  0.18690305014E+01 -0.12011159540E+02  0.14807284368E+02  0.10500000000E+00 0.  1.
</event>
<event>
11    0  0.3485800E-009  0.9118800E+02  0.7816531E-02  0.1126479E+00
         25   -1    0    0    0    0  0.00000000000E+00  0.00000000000E+00  0.99999998245E-14  0.12500000000E+03  0.12500000000E+03 0.  0.
    3000001    1    3    3    0    0  0.88179641380E+01  0.65731119329E+00  0.41263742889E+01  0.98089507246E+01  0.10000000000E+01 0. -1.
    1000022    2    1    0    0    0  0.52617348230E+02  0.25364015228E+02  0.19857775647E+02  0.62500000806E+02  0.10000012193E+02 0.  0.
    3000022    2    3    3    0    0  0.43799384092E+02  0.24706704035E+02  0.15731401358E+02  0.52691050082E+02  0.24999780917E+00 0.  0.
    1000022    2    1    0    0    0 -0.52617348230E+02 -0.25364015228E+02 -0.19857775647E+02  0.62499999194E+02  0.10000002116E+02 0.  0.
    3000022    2    5    5    0    0 -0.39754775596E+02 -0.19716076433E+02 -0.19339206823E+02  0.48406954774E+02  0.24999464229E+00 0.  0.
        -13    1    4    4    0    0  0.29255623454E+02  0.16521567334E+02  0.10457495603E+02  0.35188406190E+02  0.10500000000E+00 0. -1.
         13    1    4    4    0    0  0.14543760638E+02  0.81851367009E+01  0.52739057551E+01  0.17502643892E+02  0.10500000000E+00 0.  1.
    3000001    1    5    5    0    0 -0.12862572634E+02 -0.56479387951E+01 -0.51856882376E+00  0.14093044420E+02  0.10000000000E+01 0. -1.
        -13    1    6    6    0    0 -0.23448950214E+02 -0.11559889695E+02 -0.11376886235E+02  0.28511907711E+02  0.10500000000E+00 0. -1.
         13    1    6    6    0    0 -0.16305825381E+02 -0.81561867380E+01 -0.79623205884E+01  0.19895047063E+02  0.10500000000E+00 0.  1.
</event>
<event>
11    0  0.3485800E-009  0.9118800E+02  0.7816531E-02  0.1126479E+00
         25   -1    0    0    0    0  0.00000000000E+00  0.00000000000E+00  0.99999998245E-14  0.12500000000E+03  0.12500000000E+03 0.  0.
    3000001    1    3    3    0    0 -0.85471081827E+01 -0.23642620545E+02  0.22395472895E+02  0.33683583103E+02  0.10000000000E+01 0. -1.
    1000022    2    1    0    0    0 -0.18802451300E+02 -0.47980273220E+02  0.33920658267E+02  0.62499998161E+02  0.99999959851E+01 0.  0.
    3000022    2    3    3    0    0 -0.10255343117E+02 -0.24337652676E+02  0.11525185372E+02  0.28816415058E+02  0.24995741257E+00 0.  0.
    1000022    2    1    0    0    0  0.18802451300E+02  0.47980273220E+02 -0.33920658267E+02  0.62500001839E+02  0.10000018971E+02 0.  0.
    3000022    2    5    5    0    0  0.49852842611E+01  0.10990751950E+02 -0.13233403899E+02  0.17911872454E+02  0.25001689224E+00 0.  0.
        -13    1    4    4    0    0 -0.57565229259E+01 -0.13524862266E+02  0.64579605584E+01  0.16055395824E+02  0.10500000000E+00 0. -1.
         13    1    4    4    0    0 -0.44988201911E+01 -0.10812790410E+02  0.50672248140E+01  0.12761019233E+02  0.10500000000E+00 0.  1.
    3000001    1    5    5    0    0  0.13817167039E+02  0.36989521271E+02 -0.20687254367E+02  0.44588129385E+02  0.10000000000E+01 0.  1.
        -13    1    6    6    0    0  0.19606529318E+01  0.41754040307E+01 -0.50678088040E+01  0.68536026885E+01  0.10500000000E+00 0.  1.
         13    1    6    6    0    0  0.30246313294E+01  0.68153479189E+01 -0.81655950955E+01  0.11058269765E+02  0.10500000000E+00 0. -1.
</event>
<event>
11    0  0.3485800E-009  0.9118800E+02  0.7816531E-02  0.1126479E+00
         25   -1    0    0    0    0  0.00000000000E+00  0.00000000000E+00  0.99999998245E-14  0.12500000000E+03  0.12500000000E+03 0.  0.
    3000001    1    3    3    0    0 -0.48366881024E+00 -0.14005896173E+01 -0.52244409520E+01  0.55218085855E+01  0.10000000000E+01 0.  1.
    1000022    2    1    0    0    0 -0.10496605845E+02 -0.41690530032E+02 -0.44248966041E+02  0.62499999623E+02  0.99999964294E+01 0.  0.
    3000022    2    3    3    0    0 -0.10012937035E+02 -0.40289940414E+02 -0.39024525089E+02  0.56978191037E+02  0.24997764835E+00 0.  0.
    1000022    2    1    0    0    0  0.10496605845E+02  0.41690530032E+02  0.44248966041E+02  0.62500000377E+02  0.10000001145E+02 0.  0.
    3000022    2    5    5    0    0  0.37403522947E+01  0.49516546038E+01  0.10221114397E+02  0.11960049673E+02  0.24998010561E+00 0.  0.
        -13    1    4    4    0    0 -0.63424209481E+01 -0.25276998475E+02 -0.24481184165E+02  0.35756011502E+02  0.10500000000E+00 0. -1.
         13    1    4    4    0    0 -0.36705160870E+01 -0.15012941939E+02 -0.14543340924E+02  0.21222179536E+02  0.10500000000E+00 0.  1.
    3000001    1    5    5    0    0  0.67562535507E+01  0.36738875428E+02  0.34027851644E+02  0.50539950705E+02  0.10000000000E+01 0.  1.
        -13    1    6    6    0    0  0.26784285721E+01  0.35590352284E+01  0.74094106753E+01  0.86458720166E+01  0.10500000000E+00 0. -1.
         13    1    6    6    0    0  0.10619237226E+01  0.13926193753E+01  0.28117037218E+01  0.33141776561E+01  0.10500000000E+00 0.  1.
</event>
<event>
11    0  0.3485800E-009  0.9118800E+02  0.7816531E-02  0.1126479E+00
         25   -1    0    0    0    0  0.00000000000E+00  0.00000000000E+00  0.99999998245E-14  0.12500000000E+03  0.12500000000E+03 0.  0.
    3000001    1    3    3    0    0  0.27013003974E+02  0.20580300631E+02  0.16129594941E+02  0.37608708975E+02  0.10000000000E+01 0.  1.
    1000022    2    1    0    0    0  0.40447603561E+02  0.32552569503E+02  0.33325232107E+02  0.62499995038E+02  0.99999934835E+01 0.  0.
    3000022    2    3    3    0    0  0.13434599587E+02  0.11972268871E+02  0.17195637166E+02  0.24891286063E+02  0.24999266596E+00 0.  0.
    1000022    2    1    0    0    0 -0.40447603561E+02 -0.32552569503E+02 -0.33325232107E+02  0.62500004962E+02  0.10000055507E+02 0.  0.
    3000022    2    5    5    0    0 -0.12843639113E+02 -0.15443024270E+02 -0.95715175185E+01  0.22251348486E+02  0.24999515098E+00 0.  0.
        -13    1    4    4    0    0  0.54034262205E+01  0.48856032498E+01  0.69117477277E+01  0.10042380977E+02  0.10500000000E+00 0. -1.
         13    1    4    4    0    0  0.80311733666E+01  0.70866656214E+01  0.10283889439E+02  0.14848905086E+02  0.10500000000E+00 0.  1.
    3000001    1    5    5    0    0 -0.27603964448E+02 -0.17109545233E+02 -0.23753714589E+02  0.40248656476E+02  0.10000000000E+01 0. -1.
        -13    1    6    6    0    0 -0.55617211220E+01 -0.67871715310E+01 -0.41630729389E+01  0.97129110222E+01  0.10500000000E+00 0. -1.
         13    1    6    6    0    0 -0.72819179912E+01 -0.86558527392E+01 -0.54084445796E+01  0.12538437464E+02  0.10500000000E+00 0.  1.
</event>
<event>
11    0  0.3485800E-009  0.9118800E+02  0.7816531E-02  0.1126479E+00
         25   -1    0    0    0    0  0.00000000000E+00  0.00000000000E+00  0.99999998245E-14  0.12500000000E+03  0.12500000000E+03 0.  0.
    3000001    1    3    3    0    0 -0.14333474544E+02 -0.35645134772E+01  0.20148159620E+02  0.25002051614E+02  0.10000000000E+01 0. -1.
    1000022    2    1    0    0    0 -0.24958093876E+02 -0.10077789026E+02  0.55513797019E+02  0.62499999467E+02  0.99999996157E+01 0.  0.
    3000022    2    3    3    0    0 -0.10624619332E+02 -0.65132755491E+01  0.35365637400E+02  0.37497947854E+02  0.24998042639E+00 0.  0.
    1000022    2    1    0    0    0  0.24958093876E+02  0.10077789026E+02 -0.55513797019E+02  0.62500000533E+02  0.10000006274E+02 0.  0.
    3000022    2    5    5    0    0  0.20892274014E+01  0.47331861708E+01 -0.90076639959E+01  0.10390785970E+02  0.24999990132E+00 0.  0.
        -13    1    4    4    0    0 -0.49723220809E+01 -0.31270226370E+01  0.16685364871E+02  0.17689394657E+02  0.10500000000E+00 0.  1.
         13    1    4    4    0    0 -0.56522972513E+01 -0.33862529121E+01  0.18680272529E+02  0.19808553197E+02  0.10500000000E+00 0. -1.
    3000001    1    5    5    0    0  0.22868866475E+02  0.53446028555E+01 -0.46506133024E+02  0.52109214563E+02  0.10000000000E+01 0. -1.
        -13    1    6    6    0    0  0.69236408118E+00  0.14490357827E+01 -0.27885882357E+01  0.32196773237E+01  0.10500000000E+00 0.  1.
         13    1    6    6    0    0  0.13968633203E+01  0.32841503881E+01 -0.62190757602E+01  0.71711086464E+01  0.10500000000E+00 0. -1.
</event>
<event>
11    0  0.3485800E-009  0.9118800E+02  0.7816531E-02  0.1126479E+00
         25   -1    0    0    0    0  0.00000000000E+00  0.00000000000E+00  0.99999998245E-14  0.12500000000E+03  0.12500000000E+03 0.  0.
    3000001    1    3    3    0    0  0.24979682787E+02  0.11694265082E+00  0.29677540517E+02  0.38804054413E+02  0.10000000000E+01 0.  1.
    1000022    2    1    0    0    0  0.39091798522E+02 -0.74437005893E+01  0.47145229796E+02  0.62499999308E+02  0.99999915390E+01 0.  0.
    3000022    2    3    3    0    0  0.14112115735E+02 -0.75606432401E+01  0.17467689279E+02  0.23695944895E+02  0.24999798507E+00 0.  0.
    1000022    2    1    0    0    0 -0.39091798522E+02  0.74437005893E+01 -0.47145229796E+02  0.62500000692E+02  0.10000000191E+02 0.  0.
    3000022    2    5    5    0    0 -0.17874821955E+02  0.53411771715E+01 -0.15125862252E+02  0.24018568841E+02  0.25001362610E+00 0.  0.
        -13    1    4    4    0    0  0.86330314430E+01 -0.45996711219E+01  0.10586846400E+02  0.14414525591E+02  0.10500000000E+00 0.  1.
         13    1    4    4    0    0  0.54790842923E+01 -0.29609721182E+01  0.68808428788E+01  0.92814193036E+01  0.10500000000E+00 0. -1.
    3000001    1    5    5    0    0 -0.21216976567E+02  0.21025234177E+01 -0.32019367544E+02  0.38481431851E+02  0.10000000000E+01 0. -1.
        -13    1    6    6    0    0 -0.10403251016E+02  0.30509141498E+01 -0.88331185423E+01  0.13984660061E+02  0.10500000000E+00 0. -1.
         13    1    6    6    0    0 -0.74715709394E+01  0.22902630218E+01 -0.62927437101E+01  0.10033908780E+02  0.10500000000E+00 0.  1.
</event>
<event>
11    0  0.3485800E-009  0.9118800E+02  0.7816531E-02  0.1126479E+00
         25   -1    0    0    0    0  0.00000000000E+00  0.00000000000E+00  0.99999998245E-14  0.12500000000E+03  0.12500000000E+03 0.  0.
    3000001    1    3    3    0    0  0.29055031307E+01 -0.18720347048E+02 -0.89729374986E+01  0.20985874997E+02  0.10000000000E+01 0. -1.
    1000022    2    1    0    0    0  0.16452761392E+02 -0.47980844914E+02 -0.35119730302E+02  0.62499995688E+02  0.99999584235E+01 0.  0.
    3000022    2    3    3    0    0  0.13547258261E+02 -0.29260497866E+02 -0.26146792803E+02  0.41514120691E+02  0.25000219883E+00 0.  0.
    1000022    2    1    0    0    0 -0.16452761392E+02  0.47980844914E+02  0.35119730302E+02  0.62500004312E+02  0.10000012325E+02 0.  0.
    3000022    2    5    5    0    0 -0.11785343408E+01  0.75009391012E+01  0.16098551967E+01  0.77657689914E+01  0.25000736237E+00 0.  0.
        -13    1    4    4    0    0  0.98815543962E+01 -0.21278333505E+02 -0.19056058468E+02  0.30225105184E+02  0.10500000000E+00 0.  1.
         13    1    4    4    0    0  0.36657038650E+01 -0.79821643609E+01 -0.70907343355E+01  0.11289015507E+02  0.10500000000E+00 0. -1.
    3000001    1    5    5    0    0 -0.15274227051E+02  0.40479905812E+02  0.33509875105E+02  0.54734235321E+02  0.10000000000E+01 0.  1.
        -13    1    6    6    0    0 -0.36347357976E+00  0.25558422804E+01  0.58826243345E+00  0.26498151815E+01  0.10500000000E+00 0.  1.
         13    1    6    6    0    0 -0.81506076102E+00  0.49450968208E+01  0.10215927632E+01  0.51159538099E+01  0.10500000000E+00 0. -1.
</event>
<event>
11    0  0.3485800E-009  0.9118800E+02  0.7816531E-02  0.1126479E+00
         25   -1    0    0    0    0  0.00000000000E+00  0.00000000000E+00  0.99999998245E-14  0.12500000000E+03  0.12500000000E+03 0.  0.
    3000001    1    3    3    0    0 -0.18147172752E+02  0.34098565509E+01  0.22987525590E+01  0.18634142425E+02  0.10000000000E+01 0.  1.
    1000022    2    1    0    0    0 -0.60628066864E+02 -0.32877179975E+01  0.10939763611E+02  0.62499999788E+02  0.99999982145E+01 0.  0.
    3000022    2    3    3    0    0 -0.42480894112E+02 -0.66975745484E+01  0.86410110520E+01  0.43865857363E+02  0.25000153291E+00 0.  0.
    1000022    2    1    0    0    0  0.60628066864E+02  0.32877179975E+01 -0.10939763611E+02  0.62500000212E+02  0.10000000864E+02 0.  0.
    3000022    2    5    5    0    0  0.41996481040E+02  0.53583470297E+01 -0.10935100468E+02  0.43727053808E+02  0.25001977205E+00 0.  0.
        -13    1    4    4    0    0 -0.21586330775E+02 -0.34214185806E+01  0.43247247003E+01  0.22279812615E+02  0.10500000000E+00 0.  1.
         13    1    4    4    0    0 -0.20894563338E+02 -0.32761559678E+01  0.43162863517E+01  0.21586044748E+02  0.10500000000E+00 0. -1.
    3000001    1    5    5    0    0  0.18631585825E+02 -0.20706290323E+01 -0.46631427172E-02  0.18772946404E+02  0.10000000000E+01 0. -1.
        -13    1    6    6    0    0  0.29137722879E+02  0.37303447799E+01 -0.76345442413E+01  0.30351600576E+02  0.10500000000E+00 0. -1.
         13    1    6    6    0    0  0.12858758160E+02  0.16280022498E+01 -0.33005562270E+01  0.13375453232E+02  0.10500000000E+00 0.  1.
</event>
<event>
11    0  0.3485800E-009  0.9118800E+02  0.7816531E-02  0.1126479E+00
         25   -1    0    0    0    0  0.00000000000E+00  0.00000000000E+00  0.99999998245E-14  0.12500000000E+03  0.12500000000E+03 0.  0.
    3000001    1    3    3    0    0 -0.34590088873E+01  0.37386506731E+01  0.10617158040E+02  0.11818049593E+02  0.10000000000E+01 0.  1.
    1000022    2    1    0    0    0 -0.10744081618E+02  0.16645798391E+01  0.60729267587E+02  0.62499999820E+02  0.99999959995E+01 0.  0.
    3000022    2    3    3    0    0 -0.72850727302E+01 -0.20740708340E+01  0.50112109547E+02  0.50681950226E+02  0.25000208072E+00 0.  0.
    1000022    2    1    0    0    0  0.10744081618E+02 -0.16645798391E+01 -0.60729267587E+02  0.62500000180E+02  0.99999982519E+01 0.  0.
    3000022    2    5    5    0    0  0.61697094464E+01  0.14970326914E+01 -0.13347546404E+02  0.14782622038E+02  0.24999553566E+00 0.  0.
        -13    1    4    4    0    0 -0.44953869252E+01 -0.13423454401E+01  0.30963227743E+02  0.31316814847E+02  0.10500000000E+00 0.  1.
         13    1    4    4    0    0 -0.27896858051E+01 -0.73172539383E+00  0.19148881804E+02  0.19365135380E+02  0.10500000000E+00 0. -1.
    3000001    1    5    5    0    0  0.45743721712E+01 -0.31616125304E+01 -0.47381721182E+02  0.47717378142E+02  0.10000000000E+01 0. -1.
        -13    1    6    6    0    0  0.32467977996E+01  0.84797236623E+00 -0.69751245572E+01  0.77410684452E+01  0.10500000000E+00 0.  1.
         13    1    6    6    0    0  0.29229116468E+01  0.64906032513E+00 -0.63724218473E+01  0.70415535928E+01  0.10500000000E+00 0. -1.
</event>
<event>
11    0  0.3485800E-009  0.9118800E+02  0.7816531E-02  0.1126479E+00
         25   -1    0    0    0    0  0.00000000000E+00  0.00000000000E+00  0.99999998245E-14  0.12500000000E+03  0.12500000000E+03 0.  0.
    3000001    1    3    3    0    0 -0.12816079950E+02  0.23047623610E+02 -0.15835110791E+02  0.30776542904E+02  0.10000000000E+01 0.  1.
    1000022    2    1    0    0    0 -0.23315369288E+02  0.51869629514E+02 -0.23920399731E+02  0.62499996250E+02  0.99999548482E+01 0.  0.
    3000022    2    3    3    0    0 -0.10499289339E+02  0.28822005904E+02 -0.80852889393E+01  0.31723453346E+02  0.24998800145E+00 0.  0.
    1000022    2    1    0    0    0  0.23315369288E+02 -0.51869629514E+02  0.23920399731E+02  0.62500003750E+02  0.10000001722E+02 0.  0.
    3000022    2    5    5    0    0  0.55623670496E+01 -0.11298629178E+02  0.99526250918E+01  0.16053541181E+02  0.24997947907E+00 0.  0.
        -13    1    4    4    0    0 -0.67146705715E+01  0.18271757112E+02 -0.51523832329E+01  0.20137079898E+02  0.10500000000E+00 0.  1.
         13    1    4    4    0    0 -0.37846187674E+01  0.10550248792E+02 -0.29329057064E+01  0.11586373448E+02  0.10500000000E+00 0. -1.
    3000001    1    5    5    0    0  0.17753002239E+02 -0.40571000337E+02  0.13967774639E+02  0.46446462569E+02  0.10000000000E+01 0.  1.
        -13    1    6    6    0    0  0.22812558635E+01 -0.47146854202E+01  0.40710638154E+01  0.66345288089E+01  0.10500000000E+00 0.  1.
         13    1    6    6    0    0  0.32811111861E+01 -0.65839437575E+01  0.58815612764E+01  0.94190123721E+01  0.10500000000E+00 0. -1.
</event>
<event>
11    0  0.3485800E-009  0.9118800E+02  0.7816531E-02  0.1126479E+00
         25   -1    0    0    0    0  0.00000000000E+00  0.00000000000E+00  0.99999998245E-14  0.12500000000E+03  0.12500000000E+03 0.  0.
    3000001    1    3    3    0    0  0.18877758943E+01  0.53371798434E+02 -0.17072360988E+02  0.56076537657E+02  0.10000000000E+01 0.  1.
    1000022    2    1    0    0    0 -0.10926752046E+01  0.58546797228E+02 -0.19424952076E+02  0.62500001287E+02  0.99999996499E+01 0.  0.
    3000022    2    3    3    0    0 -0.29804510989E+01  0.51749987935E+01 -0.23525910880E+01  0.64234636297E+01  0.24999781851E+00 0.  0.
    1000022    2    1    0    0    0  0.10926752046E+01 -0.58546797228E+02  0.19424952076E+02  0.62499998713E+02  0.99999835631E+01 0.  0.
    3000022    2    5    5    0    0  0.27847961127E+01 -0.55801025405E+02  0.19335027341E+02  0.59122037416E+02  0.25000052133E+00 0.  0.
        -13    1    4    4    0    0 -0.19936748055E+01  0.33672193031E+01 -0.15090115547E+01  0.41953600486E+01  0.10500000000E+00 0. -1.
         13    1    4    4    0    0 -0.98677629341E+00  0.18077794904E+01 -0.84357953330E+00  0.22281035811E+01  0.10500000000E+00 0. -1.
    3000001    1    5    5    0    0 -0.16921209081E+01 -0.27457718226E+01  0.89924735434E-01  0.33779612975E+01  0.10000000000E+01 0. -1.
        -13    1    6    6    0    0  0.15539102370E+01 -0.30263240470E+02  0.10540804489E+02  0.32084232031E+02  0.10500000000E+00 0. -1.
         13    1    6    6    0    0  0.12308858757E+01 -0.25537784935E+02  0.87942228523E+01  0.27037805385E+02  0.10500000000E+00 0.  1.
</event>
<event>
11    0  0.3485800E-009  0.9118800E+02  0.7816531E-02  0.1126479E+00
         25   -1    0    0    0    0  0.00000000000E+00  0.00000000000E+00  0.99999998245E-14  0.12500000000E+03  0.12500000000E+03 0.  0.
    3000001    1    3    3    0    0 -0.84994526930E+00  0.14980920005E+02  0.36382786656E+02  0.39368230034E+02  0.10000000000E+01 0.  1.
    1000022    2    1    0    0    0  0.40992993843E+01  0.18570603967E+02  0.58690530759E+02  0.62500000398E+02  0.10000003093E+02 0.  0.
    3000022    2    3    3    0    0  0.49492446536E+01  0.35896839620E+01  0.22307744103E+02  0.23131770365E+02  0.24999924792E+00 0.  0.
    1000022    2    1    0    0    0 -0.40992993843E+01 -0.18570603967E+02 -0.58690530759E+02  0.62499999602E+02  0.99999981159E+01 0.  0.
    3000022    2    5    5    0    0 -0.50536503701E+01 -0.17118495282E+02 -0.41277767784E+02  0.44972201113E+02  0.24999389528E+00 0.  0.
        -13    1    4    4    0    0  0.25099159568E+01  0.17555578978E+01  0.11011713792E+02  0.11430246160E+02  0.10500000000E+00 0. -1.
         13    1    4    4    0    0  0.24393286967E+01  0.18341260642E+01  0.11296030312E+02  0.11701524205E+02  0.10500000000E+00 0.  1.
    3000001    1    5    5    0    0  0.95435098580E+00 -0.14521086849E+01 -0.17412762975E+02  0.17527798489E+02  0.10000000000E+01 0.  1.
        -13    1    6    6    0    0 -0.33142361640E+01 -0.11196642921E+02 -0.26863993145E+02  0.29292219560E+02  0.10500000000E+00 0. -1.
         13    1    6    6    0    0 -0.17394142060E+01 -0.59218523612E+01 -0.14413774639E+02  0.15679981553E+02  0.10500000000E+00 0.  1.
</event>
<event>
11    0  0.3485800E-009  0.9118800E+02  0.7816531E-02  0.1126479E+00
         25   -1    0    0    0    0  0.00000000000E+00  0.00000000000E+00  0.99999998245E-14  0.12500000000E+03  0.12500000000E+03 0.  0.
    3000001    1    3    3    0    0 -0.31470047325E+01  0.18028666363E+02  0.48366127152E+01  0.18955982491E+02  0.10000000000E+01 0. -1.
    1000022    2    1    0    0    0 -0.47906137758E+01  0.61466069410E+02  0.22852521007E+01  0.62499999029E+02  0.99999916244E+01 0.  0.
    3000022    2    3    3    0    0 -0.16436090433E+01  0.43437403046E+02 -0.25513606145E+01  0.43544016539E+02  0.25000249830E+00 0.  0.
    1000022    2    1    0    0    0  0.47906137758E+01 -0.61466069410E+02 -0.22852521007E+01  0.62500000971E+02  0.10000003759E+02 0.  0.
    3000022    2    5    5    0    0 -0.81507961550E+00 -0.14636189322E+02  0.32036871985E+01  0.15006949668E+02  0.25006803944E+00 0.  0.
        -13    1    4    4    0    0 -0.10498528224E+01  0.26662496160E+02 -0.16121900635E+01  0.26732023384E+02  0.10500000000E+00 0. -1.
         13    1    4    4    0    0 -0.59375622093E+00  0.16774906886E+02 -0.93917055102E+00  0.16811993154E+02  0.10500000000E+00 0.  1.
    3000001    1    5    5    0    0  0.56056933913E+01 -0.46829880087E+02 -0.54889392993E+01  0.47493051303E+02  0.10000000000E+01 0.  1.
        -13    1    6    6    0    0 -0.39765546423E+00 -0.65232245709E+01  0.14866475627E+01  0.67031138023E+01  0.10500000000E+00 0.  1.
         13    1    6    6    0    0 -0.41742415127E+00 -0.81129647511E+01  0.17170396358E+01  0.83038358658E+01  0.10500000000E+00 0. -1.
</event>
<event>
11    0  0.3485800E-009  0.9118800E+02  0.7816531E-02  0.1126479E+00
         25   -1    0    0    0    0  0.00000000000E+00  0.00000000000E+00  0.99999998245E-14  0.12500000000E+03  0.12500000000E+03 0.  0.
    3000001    1    3    3    0    0  0.36934584569E+02  0.11824948263E+02  0.46160818229E+02  0.60297712048E+02  0.10000000000E+01 0.  1.
    1000022    2    1    0    0    0  0.37803947395E+02  0.10448649716E+02  0.47622867692E+02  0.62500001810E+02  0.99999989713E+01 0.  0.
    3000022    2    3    3    0    0  0.86936282654E+00 -0.13762985464E+01  0.14620494632E+01  0.22022897615E+01  0.25000429562E+00 0.  0.
    1000022    2    1    0    0    0 -0.37803947395E+02 -0.10448649716E+02 -0.47622867692E+02  0.62499998190E+02  0.99999763485E+01 0.  0.
    3000022    2    5    5    0    0 -0.13353634323E+02 -0.62889507522E+01 -0.11705319320E+02  0.18840048741E+02  0.24996998616E+00 0.  0.
        -13    1    4    4    0    0  0.34309501112E+00 -0.63424581788E+00  0.70834541309E+00  0.10162480841E+01  0.10500000000E+00 0. -1.
         13    1    4    4    0    0  0.52626781542E+00 -0.74205272848E+00  0.75370405010E+00  0.11860416774E+01  0.10500000000E+00 0.  1.
    3000001    1    5    5    0    0 -0.24450313073E+02 -0.41596989640E+01 -0.35917548372E+02  0.43659949449E+02  0.10000000000E+01 0.  1.
        -13    1    6    6    0    0 -0.57746416749E+01 -0.27436046016E+01 -0.51493177883E+01  0.82097717001E+01  0.10500000000E+00 0. -1.
         13    1    6    6    0    0 -0.75789926479E+01 -0.35453461506E+01 -0.65560015317E+01  0.10630277041E+02  0.10500000000E+00 0.  1.
</event>
<event>
11    0  0.3485800E-009  0.9118800E+02  0.7816531E-02  0.1126479E+00
         25   -1    0    0    0    0  0.00000000000E+00  0.00000000000E+00  0.99999998245E-14  0.12500000000E+03  0.12500000000E+03 0.  0.
    3000001    1    3    3    0    0  0.24780281637E+02  0.52980423845E+02 -0.38399852699E+01  0.58623656963E+02  0.10000000000E+01 0. -1.
    1000022    2    1    0    0    0  0.23950095888E+02  0.56663055757E+02 -0.46841104633E+01  0.62499999462E+02  0.10000003055E+02 0.  0.
    3000022    2    3    3    0    0 -0.83018574859E+00  0.36826319124E+01 -0.84412519349E+00  0.38763424994E+01  0.24999530181E+00 0.  0.
    1000022    2    1    0    0    0 -0.23950095888E+02 -0.56663055757E+02  0.46841104633E+01  0.62500000538E+02  0.10000009781E+02 0.  0.
    3000022    2    5    5    0    0 -0.77908869837E+01 -0.29693270035E+02  0.46113762210E+01  0.31043766425E+02  0.24987559277E+00 0.  0.
        -13    1    4    4    0    0 -0.49350103208E+00  0.24332952076E+01 -0.54103891382E+00  0.25432689480E+01  0.10500000000E+00 0.  1.
         13    1    4    4    0    0 -0.33668471650E+00  0.12493367048E+01 -0.30308627967E+00  0.13330735513E+01  0.10500000000E+00 0. -1.
    3000001    1    5    5    0    0 -0.16159208904E+02 -0.26969785722E+02  0.72734242349E-01  0.31456234113E+02  0.10000000000E+01 0.  1.
        -13    1    6    6    0    0 -0.45218878097E+01 -0.17466347505E+02  0.26847475380E+01  0.18241152893E+02  0.10500000000E+00 0.  1.
         13    1    6    6    0    0 -0.32689991740E+01 -0.12226922530E+02  0.19266286830E+01  0.12802613531E+02  0.10500000000E+00 0. -1.
</event>
<event>
11    0  0.3485800E-009  0.9118800E+02  0.7816531E-02  0.1126479E+00
         25   -1    0    0    0    0  0.00000000000E+00  0.00000000000E+00  0.99999998245E-14  0.12500000000E+03  0.12500000000E+03 0.  0.
    3000001    1    3    3    0    0  0.13537671028E+02 -0.22060058218E+01 -0.26519570295E+02  0.29873443176E+02  0.10000000000E+01 0.  1.
    1000022    2    1    0    0    0  0.18608378674E+02 -0.32468618774E+01 -0.58731901363E+02  0.62500000323E+02  0.99999966838E+01 0.  0.
    3000022    2    3    3    0    0  0.50707076465E+01 -0.10408560557E+01 -0.32212331068E+02  0.32626557147E+02  0.25000212069E+00 0.  0.
    1000022    2    1    0    0    0 -0.18608378674E+02  0.32468618774E+01  0.58731901363E+02  0.62499999677E+02  0.99999926496E+01 0.  0.
    3000022    2    5    5    0    0 -0.16442439115E+02  0.10975443364E+01  0.55687666210E+02  0.58075270563E+02  0.24995087039E+00 0.  0.
        -13    1    4    4    0    0  0.19585240046E+01 -0.43190066037E+00 -0.12145485465E+02  0.12310410092E+02  0.10500000000E+00 0. -1.
         13    1    4    4    0    0  0.31121836419E+01 -0.60895539529E+00 -0.20066845603E+02  0.20316147055E+02  0.10500000000E+00 0.  1.
    3000001    1    5    5    0    0 -0.21659395594E+01  0.21493175411E+01  0.30442351534E+01  0.44247291145E+01  0.10000000000E+01 0. -1.
        -13    1    6    6    0    0 -0.98638371406E+01  0.59644036015E+00  0.33348793186E+02  0.34782237654E+02  0.10500000000E+00 0. -1.
         13    1    6    6    0    0 -0.65786019743E+01  0.50110397620E+00  0.22338873024E+02  0.23293032909E+02  0.10500000000E+00 0.  1.
</event>
<event>
11    0  0.3485800E-009  0.9118800E+02  0.7816531E-02  0.1126479E+00
         25   -1    0    0    0    0  0.00000000000E+00  0.00000000000E+00  0.99999998245E-14  0.12500000000E+03  0.12500000000E+03 0.  0.
    3000001    1    3    3    0    0 -0.49117623297E+02  0.22193009804E+01  0.57536111060E+01  0.49513334123E+02  0.10000000000E+01 0. -1.
    1000022    2    1    0    0    0 -0.60396090822E+02  0.49544760216E+01  0.11576495316E+02  0.62500000154E+02  0.10000007817E+02 0.  0.
    3000022    2    3    3    0    0 -0.11278467525E+02  0.27351750412E+01  0.58228842098E+01  0.12986666032E+02  0.25000378662E+00 0.  0.
    1000022    2    1    0    0    0  0.60396090822E+02 -0.49544760216E+01 -0.11576495316E+02  0.62499999846E+02  0.10000005886E+02 0.  0.
    3000022    2    5    5    0    0  0.16131926862E+02 -0.34122549942E+01 -0.71601134279E+01  0.17978105392E+02  0.25000153564E+00 0.  0.
        -13    1    4    4    0    0 -0.37133623384E+01  0.91898666944E+00  0.19753388658E+01  0.43065746238E+01  0.10500000000E+00 0.  1.
         13    1    4    4    0    0 -0.75651051861E+01  0.18161883718E+01  0.38475453440E+01  0.86800914081E+01  0.10500000000E+00 0. -1.
    3000001    1    5    5    0    0  0.44264163959E+02 -0.15422210274E+01 -0.44163818878E+01  0.44521894453E+02  0.10000000000E+01 0.  1.
        -13    1    6    6    0    0  0.11708824588E+02 -0.24911850657E+01 -0.51599869968E+01  0.13036067930E+02  0.10500000000E+00 0. -1.
         13    1    6    6    0    0  0.44231022737E+01 -0.92106992847E+00 -0.20001264310E+01  0.49420374621E+01  0.10500000000E+00 0.  1.
</event>
<event>
11    0  0.3485800E-009  0.9118800E+02  0.7816531E-02  0.1126479E+00
         25   -1    0    0    0    0  0.00000000000E+00  0.00000000000E+00  0.99999998245E-14  0.12500000000E+03  0.12500000000E+03 0.  0.
    3000001    1    3    3    0    0 -0.58153758913E+01 -0.26888868052E+01 -0.54741040539E+02  0.55123771898E+02  0.10000000000E+01 0. -1.
    1000022    2    1    0    0    0 -0.31251669793E+01 -0.39411429889E+01 -0.61489434905E+02  0.62499996864E+02  0.99999863176E+01 0.  0.
    3000022    2    3    3    0    0  0.26902089120E+01 -0.12522561837E+01 -0.67483943657E+01  0.73762249653E+01  0.24999736911E+00 0.  0.
    1000022    2    1    0    0    0  0.31251669793E+01  0.39411429889E+01  0.61489434905E+02  0.62500003136E+02  0.10000025521E+02 0.  0.
    3000022    2    5    5    0    0  0.37423184086E+01 -0.25359842276E+01  0.28882975083E+02  0.29235678779E+02  0.25000185802E+00 0.  0.
        -13    1    4    4    0    0  0.79116364597E+00 -0.40629437998E+00 -0.19556564749E+01  0.21509607820E+01  0.10500000000E+00 0.  1.
         13    1    4    4    0    0  0.18990452660E+01 -0.84596180368E+00 -0.47927378908E+01  0.52252641833E+01  0.10500000000E+00 0. -1.
    3000001    1    5    5    0    0 -0.61715142923E+00  0.64771272165E+01  0.32606459821E+02  0.33264324357E+02  0.10000000000E+01 0. -1.
        -13    1    6    6    0    0  0.27509370645E+01 -0.19026209632E+01  0.21358141962E+02  0.21618715834E+02  0.10500000000E+00 0.  1.
         13    1    6    6    0    0  0.99138134410E+00 -0.63336326446E+00  0.75248331213E+01  0.76169629445E+01  0.10500000000E+00 0. -1.
</event>
<event>
11    0  0.3485800E-009  0.9118800E+02  0.7816531E-02  0.1126479E+00
         25   -1    0    0    0    0  0.00000000000E+00  0.00000000000E+00  0.99999998245E-14  0.12500000000E+03  0.12500000000E+03 0.  0.
    3000001    1    3    3    0    0  0.37193799914E+02  0.83418618023E+01  0.17482573809E+02  0.41947655446E+02  0.10000000000E+01 0. -1.
    1000022    2    1    0    0    0  0.51857594220E+02  0.18000325957E+02  0.28160755073E+02  0.62499999176E+02  0.99999978909E+01 0.  0.
    3000022    2    3    3    0    0  0.14663794306E+02  0.96584641543E+01  0.10678181264E+02  0.20552343730E+02  0.24996884535E+00 0.  0.
    1000022    2    1    0    0    0 -0.51857594220E+02 -0.18000325957E+02 -0.28160755073E+02  0.62500000824E+02  0.10000008195E+02 0.  0.
    3000022    2    5    5    0    0 -0.15637555895E+02 -0.21247548493E+01 -0.45305646930E+01  0.16420603783E+02  0.24994926035E+00 0.  0.
        -13    1    4    4    0    0  0.98782061388E+01  0.64440814558E+01  0.71640587334E+01  0.13799996553E+02  0.10500000000E+00 0.  1.
         13    1    4    4    0    0  0.47855881670E+01  0.32143826985E+01  0.35141225308E+01  0.67523471770E+01  0.10500000000E+00 0. -1.
    3000001    1    5    5    0    0 -0.36220038326E+02 -0.15875571107E+02 -0.23630190380E+02  0.46079397041E+02  0.10000000000E+01 0. -1.
        -13    1    6    6    0    0 -0.68552061378E+01 -0.93647287627E+00 -0.20548536923E+01  0.72183295392E+01  0.10500000000E+00 0.  1.
         13    1    6    6    0    0 -0.87823497568E+01 -0.11882819731E+01 -0.24757110008E+01  0.92022742437E+01  0.10500000000E+00 0. -1.
</event>
<event>
11    0  0.3485800E-009  0.9118800E+02  0.7816531E-02  0.1126479E+00
         25   -1    0    0    0    0  0.00000000000E+00  0.00000000000E+00  0.99999998245E-14  0.12500000000E+03  0.12500000000E+03 0.  0.
    3000001    1    3    3    0    0 -0.50850676425E+02 -0.10534784344E+02  0.27039056406E+02  0.58556669520E+02  0.10000000000E+01 0. -1.
    1000022    2    1    0    0    0 -0.54130982729E+02 -0.12688436404E+02  0.26741169462E+02  0.62500000140E+02  0.10000008188E+02 0.  0.
    3000022    2    3    3    0    0 -0.32803063043E+01 -0.21536520596E+01 -0.29788694351E+00  0.39433306197E+01  0.24998620353E+00 0.  0.
    1000022    2    1    0    0    0  0.54130982729E+02  0.12688436404E+02 -0.26741169462E+02  0.62499999860E+02  0.10000006436E+02 0.  0.
    3000022    2    5    5    0    0  0.52621968135E+02  0.10738614882E+02 -0.26307901648E+02  0.59804327400E+02  0.25001340386E+00 0.  0.
        -13    1    4    4    0    0 -0.22371452414E+01 -0.14938963346E+01 -0.24900221423E+00  0.27036220506E+01  0.10500000000E+00 0.  1.
         13    1    4    4    0    0 -0.10431610628E+01 -0.65975572501E+00 -0.48884729282E-01  0.12397085692E+01  0.10500000000E+00 0. -1.
    3000001    1    5    5    0    0  0.15090145938E+01  0.19498215216E+01 -0.43326781432E+00  0.26956724596E+01  0.10000000000E+01 0.  1.
        -13    1    6    6    0    0  0.28438062761E+02  0.58565741268E+01 -0.14175542118E+02  0.32310677700E+02  0.10500000000E+00 0. -1.
         13    1    6    6    0    0  0.24183905374E+02  0.48820407551E+01 -0.12132359530E+02  0.27493649700E+02  0.10500000000E+00 0.  1.
</event>
<event>
11    0  0.3485800E-009  0.9118800E+02  0.7816531E-02  0.1126479E+00
         25   -1    0    0    0    0  0.00000000000E+00  0.00000000000E+00  0.99999998245E-14  0.12500000000E+03  0.12500000000E+03 0.  0.
    3000001    1    3    3    0    0  0.30182588606E+01 -0.20617811953E+02  0.19563682512E+02  0.28599680587E+02  0.10000000000E+01 0. -1.
    1000022    2    1    0    0    0  0.51826361206E+01 -0.36668155031E+02  0.49344063646E+02  0.62499999828E+02  0.10000002547E+02 0.  0.
    3000022    2    3    3    0    0  0.21643772600E+01 -0.16050343077E+02  0.29780381134E+02  0.33900319241E+02  0.25000461303E+00 0.  0.
    1000022    2    1    0    0    0 -0.51826361206E+01  0.36668155031E+02 -0.49344063646E+02  0.62500000172E+02  0.10000004696E+02 0.  0.
    3000022    2    5    5    0    0 -0.35999553653E+01  0.31850223103E+01 -0.66858573474E+01  0.82381570433E+01  0.24999450253E+00 0.  0.
        -13    1    4    4    0    0  0.60957675392E+00 -0.47762849752E+01  0.89165670099E+01  0.10134134113E+02  0.10500000000E+00 0.  1.
         13    1    4    4    0    0  0.15548005061E+01 -0.11274058102E+02  0.20863814124E+02  0.23766185127E+02  0.10500000000E+00 0. -1.
    3000001    1    5    5    0    0 -0.15826807553E+01  0.33483132720E+02 -0.42658206298E+02  0.54261843129E+02  0.10000000000E+01 0. -1.
        -13    1    6    6    0    0 -0.18447181748E+01  0.16975162398E+01 -0.35656614690E+01  0.43599900505E+01  0.10500000000E+00 0.  1.
         13    1    6    6    0    0 -0.17552371905E+01  0.14875060705E+01 -0.31201958784E+01  0.38781669928E+01  0.10500000000E+00 0. -1.
</event>
<event>
11    0  0.3485800E-009  0.9118800E+02  0.7816531E-02  0.1126479E+00
         25   -1    0    0    0    0  0.00000000000E+00  0.00000000000E+00  0.99999998245E-14  0.12500000000E+03  0.12500000000E+03 0.  0.
    3000001    1    3    3    0    0  0.10940421813E+01  0.63611476477E+01  0.22659629936E+02  0.23582195753E+02  0.10000000000E+01 0. -1.
    1000022    2    1    0    0    0  0.66662166388E+01  0.48125714143E+01  0.61144506028E+02  0.62499998929E+02  0.99999980433E+01 0.  0.
    3000022    2    3    3    0    0  0.55721744576E+01 -0.15485762334E+01  0.38484876092E+02  0.38917803176E+02  0.24999945852E+00 0.  0.
    1000022    2    1    0    0    0 -0.66662166388E+01 -0.48125714143E+01 -0.61144506028E+02  0.62500001071E+02  0.10000011427E+02 0.  0.
    3000022    2    5    5    0    0 -0.79016843651E+01 -0.11149406585E+01 -0.50360126828E+02  0.50989063297E+02  0.24998654281E+00 0.  0.
        -13    1    4    4    0    0  0.29015903240E+01 -0.82066221932E+00  0.20509125104E+02  0.20729880617E+02  0.10500000000E+00 0. -1.
         13    1    4    4    0    0  0.26705841335E+01 -0.72791401411E+00  0.17975750988E+02  0.18187922559E+02  0.10500000000E+00 0.  1.
    3000001    1    5    5    0    0  0.12354677263E+01 -0.36976307557E+01 -0.10784379200E+02  0.11510937774E+02  0.10000000000E+01 0.  1.
        -13    1    6    6    0    0 -0.50299102395E+01 -0.76875655632E+00 -0.32103936834E+02  0.32504842238E+02  0.10500000000E+00 0. -1.
         13    1    6    6    0    0 -0.28717741256E+01 -0.34618410222E+00 -0.18256189994E+02  0.18484221059E+02  0.10500000000E+00 0.  1.
</event>
<event>
11    0  0.3485800E-009  0.9118800E+02  0.7816531E-02  0.1126479E+00
         25   -1    0    0    0    0  0.00000000000E+00  0.00000000000E+00  0.99999998245E-14  0.12500000000E+03  0.12500000000E+03 0.  0.
    3000001    1    3    3    0    0  0.66476126263E+01 -0.28990826208E+02  0.17731838970E+02  0.34642125672E+02  0.10000000000E+01 0. -1.
    1000022    2    1    0    0    0  0.12826058900E+02 -0.46406350450E+02  0.38577100255E+02  0.62499998932E+02  0.10000002671E+02 0.  0.
    3000022    2    3    3    0    0  0.61784462741E+01 -0.17415524242E+02  0.20845261284E+02  0.27857873259E+02  0.25000305923E+00 0.  0.
    1000022    2    1    0    0    0 -0.12826058900E+02  0.46406350450E+02 -0.38577100255E+02  0.62500001068E+02  0.10000016024E+02 0.  0.
    3000022    2    5    5    0    0 -0.79019408788E+01  0.11799741673E+02 -0.10976265137E+02  0.17950361244E+02  0.24999842564E+00 0.  0.
        -13    1    4    4    0    0  0.46149267899E+01 -0.13073666596E+02  0.15660450313E+02  0.20915999535E+02  0.10500000000E+00 0. -1.
         13    1    4    4    0    0  0.15635194843E+01 -0.43418576456E+01  0.51848109715E+01  0.69418737242E+01  0.10500000000E+00 0.  1.
    3000001    1    5    5    0    0 -0.49241180216E+01  0.34606608777E+02 -0.27600835118E+02  0.44549639825E+02  0.10000000000E+01 0. -1.
        -13    1    6    6    0    0 -0.45579848662E+01  0.68746545548E+01 -0.63087098049E+01  0.10384938406E+02  0.10500000000E+00 0. -1.
         13    1    6    6    0    0 -0.33439560125E+01  0.49250871183E+01 -0.46675553321E+01  0.75654228378E+01  0.10500000000E+00 0.  1.
</event>
<event>
11    0  0.3485800E-009  0.9118800E+02  0.7816531E-02  0.1126479E+00
         25   -1    0    0    0    0  0.00000000000E+00  0.00000000000E+00  0.99999998245E-14  0.12500000000E+03  0.12500000000E+03 0.  0.
    3000001    1    3    3    0    0 -0.78913855483E+01 -0.46470993148E+02 -0.26063718179E+02  0.53871556274E+02  0.10000000000E+01 0. -1.
    1000022    2    1    0    0    0 -0.52307935061E+01 -0.53852542956E+02 -0.29644435481E+02  0.62500001559E+02  0.10000002822E+02 0.  0.
    3000022    2    3    3    0    0  0.26605920422E+01 -0.73815498072E+01 -0.35807173017E+01  0.86284452852E+01  0.25000814731E+00 0.  0.
    1000022    2    1    0    0    0  0.52307935061E+01  0.53852542956E+02  0.29644435481E+02  0.62499998441E+02  0.99999833304E+01 0.  0.
    3000022    2    5    5    0    0 -0.64873434247E+00  0.97468082182E+01  0.95624799872E+01  0.13672039023E+02  0.25000169793E+00 0.  0.
        -13    1    4    4    0    0  0.13466926704E+01 -0.35429140741E+01 -0.17109403903E+01  0.41598273166E+01  0.10500000000E+00 0. -1.
         13    1    4    4    0    0  0.13138993719E+01 -0.38386357331E+01 -0.18697769114E+01  0.44686179686E+01  0.10500000000E+00 0.  1.
    3000001    1    5    5    0    0  0.58795278485E+01  0.44105734737E+02  0.20081955494E+02  0.48827959418E+02  0.10000000000E+01 0.  1.
        -13    1    6    6    0    0 -0.27941515842E+00  0.43075442766E+01  0.43181085739E+01  0.61065618135E+01  0.10500000000E+00 0. -1.
         13    1    6    6    0    0 -0.36931918406E+00  0.54392639416E+01  0.52443714133E+01  0.75654772095E+01  0.10500000000E+00 0.  1.
</event>
<event>
11    0  0.3485800E-009  0.9118800E+02  0.7816531E-02  0.1126479E+00
         25   -1    0    0    0    0  0.00000000000E+00  0.00000000000E+00  0.99999998245E-14  0.12500000000E+03  0.12500000000E+03 0.  0.
    3000001    1    3    3    0    0  0.71072237122E+00 -0.22236461198E+01  0.50689276453E+01  0.56695463511E+01  0.10000000000E+01 0.  1.
    1000022    2    1    0    0    0  0.31124416995E+01 -0.48219049588E+02  0.38359955572E+02  0.62499999781E+02  0.99999872348E+01 0.  0.
    3000022    2    3    3    0    0  0.24017193283E+01 -0.45995403468E+02  0.33291027926E+02  0.56830453430E+02  0.25000148041E+00 0.  0.
    1000022    2    1    0    0    0 -0.31124416995E+01  0.48219049588E+02 -0.38359955572E+02  0.62500000219E+02  0.99999899713E+01 0.  0.
    3000022    2    5    5    0    0 -0.19442602865E+01  0.47623674051E+02 -0.36659566224E+02  0.60131362683E+02  0.25000843513E+00 0.  0.
        -13    1    4    4    0    0  0.13249895838E+01 -0.25230377867E+02  0.18343549162E+02  0.31222177784E+02  0.10500000000E+00 0.  1.
         13    1    4    4    0    0  0.10767297444E+01 -0.20765025602E+02  0.14947478764E+02  0.25608275646E+02  0.10500000000E+00 0. -1.
    3000001    1    5    5    0    0 -0.11681814130E+01  0.59537553714E+00 -0.17003893475E+01  0.23686375361E+01  0.10000000000E+01 0. -1.
        -13    1    6    6    0    0 -0.14228391001E+01  0.35160969587E+02 -0.27027745108E+02  0.44371480525E+02  0.10500000000E+00 0.  1.
         13    1    6    6    0    0 -0.52142118634E+00  0.12462704464E+02 -0.96318211162E+01  0.15759882158E+02  0.10500000000E+00 0. -1.
</event>
<event>
11    0  0.3485800E-009  0.9118800E+02  0.7816531E-02  0.1126479E+00
         25   -1    0    0    0    0  0.00000000000E+00  0.00000000000E+00  0.99999998245E-14  0.12500000000E+03  0.12500000000E+03 0.  0.
    3000001    1    3    3    0    0  0.14324810228E+02 -0.12562059879E+02 -0.10905450256E+01  0.19110071296E+02  0.10000000000E+01 0.  1.
    1000022    2    1    0    0    0  0.35417675259E+02 -0.50450706365E+02 -0.25620379177E+01  0.62500004221E+02  0.10000049791E+02 0.  0.
    3000022    2    3    3    0    0  0.21092865031E+02 -0.37888646486E+02 -0.14714928921E+01  0.43389932925E+02  0.25000028718E+00 0.  0.
    1000022    2    1    0    0    0 -0.35417675259E+02  0.50450706365E+02  0.25620379177E+01  0.62499995779E+02  0.99999970348E+01 0.  0.
    3000022    2    5    5    0    0 -0.17703922398E+02  0.16811817603E+02  0.84893359227E+00  0.24430498751E+02  0.25000320426E+00 0.  0.
        -13    1    4    4    0    0  0.93717406448E+01 -0.16700370048E+02 -0.66193028037E+00  0.19161969083E+02  0.10500000000E+00 0. -1.
         13    1    4    4    0    0  0.11721124386E+02 -0.21188276438E+02 -0.80956261176E+00  0.24227963842E+02  0.10500000000E+00 0.  1.
    3000001    1    5    5    0    0 -0.17713752861E+02  0.33638888762E+02  0.17131043255E+01  0.38069497028E+02  0.10000000000E+01 0.  1.
        -13    1    6    6    0    0 -0.76753037589E+01  0.72558524099E+01  0.42857969704E+00  0.10571300182E+02  0.10500000000E+00 0.  1.
         13    1    6    6    0    0 -0.10028618639E+02  0.95559651928E+01  0.42035389523E+00  0.13859198569E+02  0.10500000000E+00 0. -1.
</event>
<event>
11    0  0.3485800E-009  0.9118800E+02  0.7816531E-02  0.1126479E+00
         25   -1    0    0    0    0  0.00000000000E+00  0.00000000000E+00  0.99999998245E-14  0.12500000000E+03  0.12500000000E+03 0.  0.
    3000001    1    3    3    0    0 -0.35070490621E+02  0.70447126676E+00  0.79415023316E+01  0.35979203041E+02  0.10000000000E+01 0.  1.
    1000022    2    1    0    0    0 -0.57788337490E+02  0.38124255951E+01  0.21265546556E+02  0.62500000050E+02  0.99999998559E+01 0.  0.
    3000022    2    3    3    0    0 -0.22717846869E+02  0.31079543283E+01  0.13324044225E+02  0.26520797009E+02  0.25014601048E+00 0.  0.
    1000022    2    1    0    0    0  0.57788337490E+02 -0.38124255951E+01 -0.21265546556E+02  0.62499999950E+02  0.99999992313E+01 0.  0.
    3000022    2    5    5    0    0  0.24823157783E+02  0.32526320429E+01 -0.86271965314E+01  0.26481310303E+02  0.24999567233E+00 0.  0.
        -13    1    4    4    0    0 -0.16061759056E+02  0.22374018776E+01  0.94012192558E+01  0.18745133225E+02  0.10500000000E+00 0.  1.
         13    1    4    4    0    0 -0.66560878130E+01  0.87055245071E+00  0.39228249689E+01  0.77756637839E+01  0.10500000000E+00 0. -1.
    3000001    1    5    5    0    0  0.32965179707E+02 -0.70650576380E+01 -0.12638350025E+02  0.36018689647E+02  0.10000000000E+01 0.  1.
        -13    1    6    6    0    0  0.65745201017E+01  0.82806200627E+00 -0.22768435705E+01  0.70074990473E+01  0.10500000000E+00 0. -1.
         13    1    6    6    0    0  0.18248637681E+02  0.24245700366E+01 -0.63503529609E+01  0.19473811256E+02  0.10500000000E+00 0.  1.
</event>
<event>
11    0  0.3485800E-009  0.9118800E+02  0.7816531E-02  0.1126479E+00
         25   -1    0    0    0    0  0.00000000000E+00  0.00000000000E+00  0.99999998245E-14  0.12500000000E+03  0.12500000000E+03 0.  0.
    3000001    1    3    3    0    0 -0.24249634844E+01  0.79611050160E+00 -0.32640217732E+01  0.42624028396E+01  0.10000000000E+01 0.  1.
    1000022    2    1    0    0    0 -0.37505686379E+01  0.15988419895E+02 -0.59468929694E+02  0.62499999521E+02  0.10000000263E+02 0.  0.
    3000022    2    3    3    0    0 -0.13256051536E+01  0.15192309393E+02 -0.56204907921E+02  0.58237596681E+02  0.24999810545E+00 0.  0.
    1000022    2    1    0    0    0  0.37505686379E+01 -0.15988419895E+02  0.59468929694E+02  0.62500000479E+02  0.10000006252E+02 0.  0.
    3000022    2    5    5    0    0  0.61544919284E+00  0.13575632055E+01  0.61955485203E+01  0.63772310768E+01  0.24999834701E+00 0.  0.
        -13    1    4    4    0    0 -0.84142481964E+00  0.89802004031E+01 -0.33344908367E+02  0.34543392045E+02  0.10500000000E+00 0.  1.
         13    1    4    4    0    0 -0.48418033392E+00  0.62121089902E+01 -0.22859999554E+02  0.23694204636E+02  0.10500000000E+00 0. -1.
    3000001    1    5    5    0    0  0.31351194451E+01 -0.17345983100E+02  0.53273381174E+02  0.56122769402E+02  0.10000000000E+01 0. -1.
        -13    1    6    6    0    0  0.37431955601E+00  0.79954665897E+00  0.33878744530E+01  0.35025859446E+01  0.10500000000E+00 0.  1.
         13    1    6    6    0    0  0.24112963683E+00  0.55801654657E+00  0.28076740673E+01  0.28746451323E+01  0.10500000000E+00 0. -1.
</event>
<event>
11    0  0.3485800E-009  0.9118800E+02  0.7816531E-02  0.1126479E+00
         25   -1    0    0    0    0  0.00000000000E+00  0.00000000000E+00  0.99999998245E-14  0.12500000000E+03  0.12500000000E+03 0.  0.
    3000001    1    3    3    0    0 -0.72096700505E+01  0.15819596385E+02 -0.35261538837E+02  0.39327027515E+02  0.10000000000E+01 0. -1.
    1000022    2    1    0    0    0 -0.14894559219E+02  0.30305136483E+02 -0.51633333379E+02  0.62499997729E+02  0.99999704350E+01 0.  0.
    3000022    2    3    3    0    0 -0.76848891681E+01  0.14485540098E+02 -0.16371794543E+02  0.23172970214E+02  0.24999709660E+00 0.  0.
    1000022    2    1    0    0    0  0.14894559219E+02 -0.30305136483E+02  0.51633333379E+02  0.62500002271E+02  0.99999988250E+01 0.  0.
    3000022    2    5    5    0    0 -0.12169046803E+00 -0.12433184592E+01 -0.10639636115E+00  0.12784647612E+01  0.25000519773E+00 0.  0.
        -13    1    4    4    0    0 -0.41834320529E+01  0.78042549351E+01 -0.89185454595E+01  0.12568173175E+02  0.10500000000E+00 0. -1.
         13    1    4    4    0    0 -0.35014571152E+01  0.66812851626E+01 -0.74532490832E+01  0.10604797040E+02  0.10500000000E+00 0.  1.
    3000001    1    5    5    0    0  0.15016249687E+02 -0.29061818023E+02  0.51739729740E+02  0.61221537510E+02  0.10000000000E+01 0.  1.
        -13    1    6    6    0    0 -0.10402846771E-01 -0.74819951358E+00 -0.51809498723E-01  0.75737702335E+00  0.10500000000E+00 0. -1.
         13    1    6    6    0    0 -0.11128762126E+00 -0.49511894566E+00 -0.54586862428E-01  0.52108773786E+00  0.10500000000E+00 0.  1.
</event>
<event>
11    0  0.3485800E-009  0.9118800E+02  0.7816531E-02  0.1126479E+00
         25   -1    0    0    0    0  0.00000000000E+00  0.00000000000E+00  0.99999998245E-14  0.12500000000E+03  0.12500000000E+03 0.  0.
    3000001    1    3    3    0    0 -0.80942542833E+01  0.44128321601E+01  0.12926910457E+02  0.15908961438E+02  0.10000000000E+01 0. -1.
    1000022    2    1    0    0    0 -0.30194968652E+02  0.92012075225E+00  0.53792815168E+02  0.62500004269E+02  0.10000040793E+02 0.  0.
    3000022    2    3    3    0    0 -0.22100714368E+02 -0.34927114079E+01  0.40865904711E+02  0.46591042831E+02  0.24999130211E+00 0.  0.
    1000022    2    1    0    0    0  0.30194968652E+02 -0.92012075225E+00 -0.53792815168E+02  0.62499995731E+02  0.99999874321E+01 0.  0.
    3000022    2    5    5    0    0  0.92146871378E+01  0.41763131865E+01 -0.15048368946E+02  0.18134716916E+02  0.24999763273E+00 0.  0.
        -13    1    4    4    0    0 -0.14737194812E+02 -0.23803719188E+01  0.27298742444E+02  0.31114039363E+02  0.10500000000E+00 0.  1.
         13    1    4    4    0    0 -0.73635195561E+01 -0.11123394891E+01  0.13567162267E+02  0.15477003468E+02  0.10500000000E+00 0. -1.
    3000001    1    5    5    0    0  0.20980281514E+02 -0.50964339388E+01 -0.38744446222E+02  0.44365278815E+02  0.10000000000E+01 0.  1.
        -13    1    6    6    0    0  0.37757148418E+01  0.16413047467E+01 -0.61251820746E+01  0.73809744807E+01  0.10500000000E+00 0.  1.
         13    1    6    6    0    0  0.54389722960E+01  0.25350084398E+01 -0.89231868712E+01  0.10753742435E+02  0.10500000000E+00 0. -1.
</event>
<event>
11    0  0.3485800E-009  0.9118800E+02  0.7816531E-02  0.1126479E+00
         25   -1    0    0    0    0  0.00000000000E+00  0.00000000000E+00  0.99999998245E-14  0.12500000000E+03  0.12500000000E+03 0.  0.
    3000001    1    3    3    0    0  0.22408175847E+02  0.50333101264E+02  0.16669888344E+02  0.57571109118E+02  0.10000000000E+01 0. -1.
    1000022    2    1    0    0    0  0.23456803526E+02  0.53256161513E+02  0.20489254972E+02  0.62499999807E+02  0.10000001788E+02 0.  0.
    3000022    2    3    3    0    0  0.10486276788E+01  0.29230602496E+01  0.38193666274E+01  0.49288906892E+01  0.25000151892E+00 0.  0.
    1000022    2    1    0    0    0 -0.23456803526E+02 -0.53256161513E+02 -0.20489254972E+02  0.62500000193E+02  0.10000004204E+02 0.  0.
    3000022    2    5    5    0    0 -0.58172317809E+01 -0.22053260601E+02 -0.11444651913E+02  0.25519189478E+02  0.24997092224E+00 0.  0.
        -13    1    4    4    0    0  0.58209527719E+00  0.14287796104E+01  0.18677274352E+01  0.24248044991E+01  0.10500000000E+00 0. -1.
         13    1    4    4    0    0  0.46653240156E+00  0.14942806393E+01  0.19516391922E+01  0.25040861901E+01  0.10500000000E+00 0.  1.
    3000001    1    5    5    0    0 -0.17639571745E+02 -0.31202900912E+02 -0.90446030583E+01  0.36980810715E+02  0.10000000000E+01 0. -1.
        -13    1    6    6    0    0 -0.18925125839E+01 -0.70017976399E+01 -0.36126331788E+01  0.81036360700E+01  0.10500000000E+00 0.  1.
         13    1    6    6    0    0 -0.39247191969E+01 -0.15051462961E+02 -0.78320187346E+01  0.17415553408E+02  0.10500000000E+00 0. -1.
</event>
<event>
11    0  0.3485800E-009  0.9118800E+02  0.7816531E-02  0.1126479E+00
         25   -1    0    0    0    0  0.00000000000E+00  0.00000000000E+00  0.99999998245E-14  0.12500000000E+03  0.12500000000E+03 0.  0.
    3000001    1    3    3    0    0  0.18466658220E+02 -0.15613432417E+01  0.12598557634E+02  0.22431649805E+02  0.10000000000E+01 0.  1.
    1000022    2    1    0    0    0  0.55217603932E+02  0.53253214400E+01  0.26998281083E+02  0.62500000094E+02  0.99999998989E+01 0.  0.
    3000022    2    3    3    0    0  0.36750945712E+02  0.68866646817E+01  0.14399723449E+02  0.40068350289E+02  0.24999668551E+00 0.  0.
    1000022    2    1    0    0    0 -0.55217603932E+02 -0.53253214400E+01 -0.26998281083E+02  0.62499999906E+02  0.99999987214E+01 0.  0.
    3000022    2    5    5    0    0 -0.46349024108E+02 -0.79936492485E+01 -0.23129430450E+02  0.52413390634E+02  0.25000151438E+00 0.  0.
        -13    1    4    4    0    0  0.11112718315E+02  0.20493584075E+01  0.43875204517E+01  0.12122447729E+02  0.10500000000E+00 0.  1.
         13    1    4    4    0    0  0.25638227397E+02  0.48373062742E+01  0.10012202997E+02  0.27945902560E+02  0.10500000000E+00 0. -1.
    3000001    1    5    5    0    0 -0.88685798239E+01  0.26683278085E+01 -0.38688506321E+01  0.10086609272E+02  0.10000000000E+01 0. -1.
        -13    1    6    6    0    0 -0.21618825341E+02 -0.37757627157E+01 -0.10738182809E+02  0.24432551816E+02  0.10500000000E+00 0.  1.
         13    1    6    6    0    0 -0.24730198766E+02 -0.42178865329E+01 -0.12391247642E+02  0.27980838818E+02  0.10500000000E+00 0. -1.
</event>
<event>
11    0  0.3485800E-009  0.9118800E+02  0.7816531E-02  0.1126479E+00
         25   -1    0    0    0    0  0.00000000000E+00  0.00000000000E+00  0.99999998245E-14  0.12500000000E+03  0.12500000000E+03 0.  0.
    3000001    1    3    3    0    0  0.13736819101E+02  0.37495236409E+02  0.33774230797E+02  0.52309574824E+02  0.10000000000E+01 0. -1.
    1000022    2    1    0    0    0  0.17977400148E+02  0.41186525974E+02  0.42269766417E+02  0.62500000472E+02  0.10000003408E+02 0.  0.
    3000022    2    3    3    0    0  0.42405810467E+01  0.36912895649E+01  0.84955356204E+01  0.10190425648E+02  0.25000627666E+00 0.  0.
    1000022    2    1    0    0    0 -0.17977400148E+02 -0.41186525974E+02 -0.42269766417E+02  0.62499999528E+02  0.99999975108E+01 0.  0.
    3000022    2    5    5    0    0 -0.98474830507E+00 -0.19876915408E+01  0.21185522003E+00  0.22423276975E+01  0.25000796541E+00 0.  0.
        -13    1    4    4    0    0  0.21201017145E+01  0.18905822373E+01  0.41858166569E+01  0.50597646744E+01  0.10500000000E+00 0.  1.
         13    1    4    4    0    0  0.21204793323E+01  0.18007073276E+01  0.43097189635E+01  0.51306609733E+01  0.10500000000E+00 0. -1.
    3000001    1    5    5    0    0 -0.16992651843E+02 -0.39198834433E+02 -0.42481621637E+02  0.60257671831E+02  0.10000000000E+01 0. -1.
        -13    1    6    6    0    0 -0.51691901878E+00 -0.10254806822E+01  0.42106869944E-01  0.11539557574E+01  0.10500000000E+00 0.  1.
         13    1    6    6    0    0 -0.46782928629E+00 -0.96221085856E+00  0.16974835008E+00  0.10883719400E+01  0.10500000000E+00 0. -1.
</event>
<event>
11    0  0.3485800E-009  0.9118800E+02  0.7816531E-02  0.1126479E+00
         25   -1    0    0    0    0  0.00000000000E+00  0.00000000000E+00  0.99999998245E-14  0.12500000000E+03  0.12500000000E+03 0.  0.
    3000001    1    3    3    0    0 -0.11040636161E+02 -0.23024423864E+02 -0.31877776886E+02  0.40855995891E+02  0.10000000000E+01 0.  1.
    1000022    2    1    0    0    0 -0.19305459469E+02 -0.39383191265E+02 -0.43387933118E+02  0.62499996785E+02  0.10000016918E+02 0.  0.
    3000022    2    3    3    0    0 -0.82648233078E+01 -0.16358767401E+02 -0.11510156232E+02  0.21644000894E+02  0.25000598893E+00 0.  0.
    1000022    2    1    0    0    0  0.19305459469E+02  0.39383191265E+02  0.43387933118E+02  0.62500003215E+02  0.10000057102E+02 0.  0.
    3000022    2    5    5    0    0  0.73171175535E+01  0.24235594659E+02  0.28271331674E+02  0.37950427576E+02  0.25000164232E+00 0.  0.
        -13    1    4    4    0    0 -0.20592793757E+01 -0.41348808883E+01 -0.28928584172E+01  0.54513783880E+01  0.10500000000E+00 0. -1.
         13    1    4    4    0    0 -0.62055439321E+01 -0.12223886513E+02 -0.86172978152E+01  0.16192622506E+02  0.10500000000E+00 0.  1.
    3000001    1    5    5    0    0  0.11988341915E+02  0.15147596606E+02  0.15116601444E+02  0.24549575639E+02  0.10000000000E+01 0.  1.
        -13    1    6    6    0    0  0.52152762001E+01  0.17163760588E+02  0.20076196962E+02  0.26923196185E+02  0.10500000000E+00 0. -1.
         13    1    6    6    0    0  0.21018413534E+01  0.70718340707E+01  0.81951347125E+01  0.11027231391E+02  0.10500000000E+00 0.  1.
</event>
<event>
11    0  0.3485800E-009  0.9118800E+02  0.7816531E-02  0.1126479E+00
         25   -1    0    0    0    0  0.00000000000E+00  0.00000000000E+00  0.99999998245E-14  0.12500000000E+03  0.12500000000E+03 0.  0.
    3000001    1    3    3    0    0 -0.13425306143E+02  0.21598687553E+01 -0.48370617918E+01  0.14467240402E+02  0.10000000000E+01 0.  1.
    1000022    2    1    0    0    0 -0.49796852902E+02  0.23580580520E+02 -0.27757514288E+02  0.62499999486E+02  0.99999999839E+01 0.  0.
    3000022    2    3    3    0    0 -0.36371546759E+02  0.21420711764E+02 -0.22920452496E+02  0.48032759083E+02  0.24999284749E+00 0.  0.
    1000022    2    1    0    0    0  0.49796852902E+02 -0.23580580520E+02  0.27757514288E+02  0.62500000514E+02  0.10000006415E+02 0.  0.
    3000022    2    5    5    0    0  0.27457373231E+01 -0.38111153690E+01  0.40956118344E+01  0.62370032848E+01  0.24999974634E+00 0.  0.
        -13    1    4    4    0    0 -0.24983189303E+02  0.14661057211E+02 -0.15707013392E+02  0.32951898897E+02  0.10500000000E+00 0.  1.
         13    1    4    4    0    0 -0.11388357456E+02  0.67596545536E+01 -0.72134391039E+01  0.15080860186E+02  0.10500000000E+00 0. -1.
    3000001    1    5    5    0    0  0.47051115579E+02 -0.19769465150E+02  0.23661902453E+02  0.56262997230E+02  0.10000000000E+01 0. -1.
        -13    1    6    6    0    0  0.13664804973E+01 -0.20033889974E+01  0.20786495645E+01  0.31957229911E+01  0.10500000000E+00 0. -1.
         13    1    6    6    0    0  0.13792568258E+01 -0.18077263717E+01  0.20169622699E+01  0.30412802936E+01  0.10500000000E+00 0.  1.
</event>
<event>
11    0  0.3485800E-009  0.9118800E+02  0.7816531E-02  0.1126479E+00
         25   -1    0    0    0    0  0.00000000000E+00  0.00000000000E+00  0.99999998245E-14  0.12500000000E+03  0.12500000000E+03 0.  0.
    3000001    1    3    3    0    0 -0.96662040542E+01  0.92238703280E-01  0.24793241668E+02  0.26629848689E+02  0.10000000000E+01 0. -1.
    1000022    2    1    0    0    0 -0.32228635151E+02  0.30746418323E+01  0.52517727804E+02  0.62499998618E+02  0.99999873772E+01 0.  0.
    3000022    2    3    3    0    0 -0.22562431097E+02  0.29824031290E+01  0.27724486136E+02  0.35870149929E+02  0.24999808078E+00 0.  0.
    1000022    2    1    0    0    0  0.32228635151E+02 -0.30746418323E+01 -0.52517727804E+02  0.62500001382E+02  0.10000004649E+02 0.  0.
    3000022    2    5    5    0    0  0.25912896733E+02 -0.26596823424E+01 -0.48149822446E+02  0.54745045524E+02  0.24996114739E+00 0.  0.
        -13    1    4    4    0    0 -0.11279324269E+02  0.14434687291E+01  0.13929288557E+02  0.17981736920E+02  0.10500000000E+00 0. -1.
         13    1    4    4    0    0 -0.11283106827E+02  0.15389344000E+01  0.13795197578E+02  0.17888413009E+02  0.10500000000E+00 0.  1.
    3000001    1    5    5    0    0  0.63157384182E+01 -0.41495948996E+00 -0.43679053576E+01  0.77549558580E+01  0.10000000000E+01 0. -1.
        -13    1    6    6    0    0  0.15372939505E+02 -0.15243727747E+01 -0.28481110785E+02  0.32401167848E+02  0.10500000000E+00 0.  1.
         13    1    6    6    0    0  0.10539957228E+02 -0.11353095677E+01 -0.19668711661E+02  0.22343877675E+02  0.10500000000E+00 0. -1.
</event>
<event>
11    0  0.3485800E-009  0.9118800E+02  0.7816531E-02  0.1126479E+00
         25   -1    0    0    0    0  0.00000000000E+00  0.00000000000E+00  0.99999998245E-14  0.12500000000E+03  0.12500000000E+03 0.  0.
    3000001    1    3    3    0    0  0.19623589467E+01 -0.61813402295E+01 -0.24272974501E-01  0.65620430390E+01  0.10000000000E+01 0.  1.
    1000022    2    1    0    0    0  0.42543366385E+02 -0.44679491923E+02  0.23448398598E+00  0.62500002516E+02  0.10000015495E+02 0.  0.
    3000022    2    3    3    0    0  0.40581007439E+02 -0.38498151693E+02  0.25875696048E+00  0.55937959477E+02  0.25001354410E+00 0.  0.
    1000022    2    1    0    0    0 -0.42543366385E+02  0.44679491923E+02 -0.23448398598E+00  0.62499997484E+02  0.99999840463E+01 0.  0.
    3000022    2    5    5    0    0 -0.25321843027E+02  0.25575113965E+02  0.46829732442E+01  0.36294282277E+02  0.24999792862E+00 0.  0.
        -13    1    4    4    0    0  0.13521807793E+02 -0.12868868923E+02  0.41795983683E-01  0.18667079184E+02  0.10500000000E+00 0.  1.
         13    1    4    4    0    0  0.27059199646E+02 -0.25629282770E+02  0.21696097680E+00  0.37270880293E+02  0.10500000000E+00 0. -1.
    3000001    1    5    5    0    0 -0.17221523359E+02  0.19104377957E+02 -0.49174572302E+01  0.26205715208E+02  0.10000000000E+01 0.  1.
        -13    1    6    6    0    0 -0.17166902666E+02  0.17336572924E+02  0.31229722719E+01  0.24597221158E+02  0.10500000000E+00 0. -1.
         13    1    6    6    0    0 -0.81549403602E+01  0.82385410411E+01  0.15600009723E+01  0.11697061118E+02  0.10500000000E+00 0.  1.
</event>
<event>
11    0  0.3485800E-009  0.9118800E+02  0.7816531E-02  0.1126479E+00
         25   -1    0    0    0    0  0.00000000000E+00  0.00000000000E+00  0.99999998245E-14  0.12500000000E+03  0.12500000000E+03 0.  0.
    3000001    1    3    3    0    0 -0.11178109711E+02 -0.23288544927E+02  0.62620345840E+01  0.26599239437E+02  0.10000000000E+01 0. -1.
    1000022    2    1    0    0    0 -0.33854217749E+02 -0.51112773907E+02  0.69011747117E+01  0.62499999964E+02  0.10000003362E+02 0.  0.
    3000022    2    3    3    0    0 -0.22676108038E+02 -0.27824228980E+02  0.63914012767E+00  0.35900760526E+02  0.25002437909E+00 0.  0.
    1000022    2    1    0    0    0  0.33854217749E+02  0.51112773907E+02 -0.69011747117E+01  0.62500000036E+02  0.10000003814E+02 0.  0.
    3000022    2    5    5    0    0  0.87629052895E+01  0.80735297104E+01 -0.40581910724E+01  0.12589750008E+02  0.24999875419E+00 0.  0.
        -13    1    4    4    0    0 -0.13038314330E+02 -0.16046866718E+02  0.42564533653E+00  0.20680710117E+02  0.10500000000E+00 0.  1.
         13    1    4    4    0    0 -0.96377937088E+01 -0.11777362262E+02  0.21349479114E+00  0.15220050409E+02  0.10500000000E+00 0. -1.
    3000001    1    5    5    0    0  0.25091312460E+02  0.43039244196E+02 -0.28429836393E+01  0.49910250028E+02  0.10000000000E+01 0. -1.
        -13    1    6    6    0    0  0.29772178181E+01  0.26712762981E+01 -0.13745846489E+01  0.42308451820E+01  0.10500000000E+00 0. -1.
         13    1    6    6    0    0  0.57856874714E+01  0.54022534123E+01 -0.26836064235E+01  0.83589048256E+01  0.10500000000E+00 0.  1.
</event>
<event>
11    0  0.3485800E-009  0.9118800E+02  0.7816531E-02  0.1126479E+00
         25   -1    0    0    0    0  0.00000000000E+00  0.00000000000E+00  0.99999998245E-14  0.12500000000E+03  0.12500000000E+03 0.  0.
    3000001    1    3    3    0    0  0.78176741073E+01 -0.32983095722E+01 -0.14075463214E+01  0.86588718162E+01  0.10000000000E+01 0.  1.
    1000022    2    1    0    0    0  0.61391054726E+02 -0.48538952569E+01  0.37186078098E+01  0.62499998459E+02  0.99999931914E+01 0.  0.
    3000022    2    3    3    0    0  0.53573380619E+02 -0.15555856847E+01  0.51261541313E+01  0.53841126643E+02  0.25000856362E+00 0.  0.
    1000022    2    1    0    0    0 -0.61391054726E+02  0.48538952569E+01 -0.37186078098E+01  0.62500001541E+02  0.10000012448E+02 0.  0.
    3000022    2    5    5    0    0 -0.18791854138E+02  0.25778002497E+01 -0.56245490144E+01  0.19785775443E+02  0.25004438384E+00 0.  0.
        -13    1    4    4    0    0  0.29786868167E+02 -0.80772316978E+00  0.28838708893E+01  0.29937228800E+02  0.10500000000E+00 0. -1.
         13    1    4    4    0    0  0.23786512452E+02 -0.74786251495E+00  0.22422832420E+01  0.23903897843E+02  0.10500000000E+00 0.  1.
    3000001    1    5    5    0    0 -0.42599200588E+02  0.22760950072E+01  0.19059412046E+01  0.42714226098E+02  0.10000000000E+01 0. -1.
        -13    1    6    6    0    0 -0.64402713933E+01  0.89867675063E+00 -0.19839150188E+01  0.67993866873E+01  0.10500000000E+00 0. -1.
         13    1    6    6    0    0 -0.12351582744E+02  0.16791234991E+01 -0.36406339956E+01  0.12986388755E+02  0.10500000000E+00 0.  1.
</event>
<event>
11    0  0.3485800E-009  0.9118800E+02  0.7816531E-02  0.1126479E+00
         25   -1    0    0    0    0  0.00000000000E+00  0.00000000000E+00  0.99999998245E-14  0.12500000000E+03  0.12500000000E+03 0.  0.
    3000001    1    3    3    0    0  0.11957825620E+02 -0.20455116134E+01  0.11319732850E+01  0.12225181996E+02  0.10000000000E+01 0. -1.
    1000022    2    1    0    0    0  0.61158405074E+02  0.80397388152E+01 -0.11232271443E+01  0.62500003957E+02  0.10000047198E+02 0.  0.
    3000022    2    3    3    0    0  0.49200579454E+02  0.10085250429E+02 -0.22552004293E+01  0.50274821960E+02  0.24999878070E+00 0.  0.
    1000022    2    1    0    0    0 -0.61158405074E+02 -0.80397388152E+01  0.11232271443E+01  0.62499996043E+02  0.99999977406E+01 0.  0.
    3000022    2    5    5    0    0 -0.33892847689E+02 -0.63718218161E+01 -0.39004741011E+01  0.34707368589E+02  0.24999684912E+00 0.  0.
        -13    1    4    4    0    0  0.16220072372E+02  0.33325390001E+01 -0.79586121297E+00  0.16578328746E+02  0.10500000000E+00 0. -1.
         13    1    4    4    0    0  0.32980507081E+02  0.67527114286E+01 -0.14593392163E+01  0.33696493214E+02  0.10500000000E+00 0.  1.
    3000001    1    5    5    0    0 -0.27265557385E+02 -0.16679169992E+01  0.50237012454E+01  0.27792627455E+02  0.10000000000E+01 0. -1.
        -13    1    6    6    0    0 -0.21873451271E+02 -0.41234132735E+01 -0.25739938927E+01  0.22407295176E+02  0.10500000000E+00 0.  1.
         13    1    6    6    0    0 -0.12019396417E+02 -0.22484085425E+01 -0.13264802084E+01  0.12300073413E+02  0.10500000000E+00 0. -1.
</event>
<event>
11    0  0.3485800E-009  0.9118800E+02  0.7816531E-02  0.1126479E+00
         25   -1    0    0    0    0  0.00000000000E+00  0.00000000000E+00  0.99999998245E-14  0.12500000000E+03  0.12500000000E+03 0.  0.
    3000001    1    3    3    0    0 -0.12009392057E+01  0.60160529983E-02  0.25569451572E+01  0.29967081449E+01  0.10000000000E+01 0. -1.
    1000022    2    1    0    0    0 -0.66075737277E+01  0.35070550266E+02  0.50325405273E+02  0.62499998286E+02  0.99999921661E+01 0.  0.
    3000022    2    3    3    0    0 -0.54066345220E+01  0.35064534213E+02  0.47768460116E+02  0.59503290141E+02  0.24999869165E+00 0.  0.
    1000022    2    1    0    0    0  0.66075737277E+01 -0.35070550266E+02 -0.50325405273E+02  0.62500001714E+02  0.10000013589E+02 0.  0.
    3000022    2    5    5    0    0  0.19242039455E+01 -0.29273807493E+02 -0.42547962767E+02  0.51682201973E+02  0.24999840817E+00 0.  0.
        -13    1    4    4    0    0 -0.29781661617E+01  0.18936940578E+02  0.25867354840E+02  0.32196401407E+02  0.10500000000E+00 0.  1.
         13    1    4    4    0    0 -0.24284683604E+01  0.16127593635E+02  0.21901105276E+02  0.27306888735E+02  0.10500000000E+00 0. -1.
    3000001    1    5    5    0    0  0.46833697823E+01 -0.57967427730E+01 -0.77774425063E+01  0.10817799741E+02  0.10000000000E+01 0.  1.
        -13    1    6    6    0    0  0.56791487296E+00 -0.91437819303E+01 -0.13223792648E+02  0.16087603684E+02  0.10500000000E+00 0. -1.
         13    1    6    6    0    0  0.13562890725E+01 -0.20130025563E+02 -0.29324170119E+02  0.35594598289E+02  0.10500000000E+00 0.  1.
</event>
<event>
11    0  0.3485800E-009  0.9118800E+02  0.7816531E-02  0.1126479E+00
         25   -1    0    0    0    0  0.00000000000E+00  0.00000000000E+00  0.99999998245E-14  0.12500000000E+03  0.12500000000E+03 0.  0.
    3000001    1    3    3    0    0 -0.32614799131E+01 -0.10089563541E+02  0.82947488323E+01  0.13499607471E+02  0.10000000000E+01 0. -1.
    1000022    2    1    0    0    0 -0.63265956438E+01 -0.56073819498E+02  0.24938944800E+02  0.62500000211E+02  0.10000000655E+02 0.  0.
    3000022    2    3    3    0    0 -0.30651157308E+01 -0.45984255957E+02  0.16644195968E+02  0.49000392740E+02  0.24999785470E+00 0.  0.
    1000022    2    1    0    0    0  0.63265956438E+01  0.56073819498E+02 -0.24938944800E+02  0.62499999789E+02  0.99999980201E+01 0.  0.
    3000022    2    5    5    0    0 -0.13740947784E+01  0.43237234857E+01 -0.28116385410E-01  0.45437883659E+01  0.25000188475E+00 0.  0.
        -13    1    4    4    0    0 -0.20733996463E+01 -0.31741557877E+02  0.11512868256E+02  0.33828725117E+02  0.10500000000E+00 0.  1.
         13    1    4    4    0    0 -0.99171608441E+00 -0.14242698080E+02  0.51313277117E+01  0.15171667623E+02  0.10500000000E+00 0. -1.
    3000001    1    5    5    0    0  0.77006904222E+01  0.51750096012E+02 -0.24910828415E+02  0.57956211423E+02  0.10000000000E+01 0. -1.
        -13    1    6    6    0    0 -0.56114906807E+00  0.19579218219E+01  0.19743405896E-01  0.20395492001E+01  0.10500000000E+00 0. -1.
         13    1    6    6    0    0 -0.81294571032E+00  0.23658016638E+01 -0.47859791306E-01  0.25042391659E+01  0.10500000000E+00 0. -1.
</event>
<event>
11    0  0.3485800E-009  0.9118800E+02  0.7816531E-02  0.1126479E+00
         25   -1    0    0    0    0  0.00000000000E+00  0.00000000000E+00  0.99999998245E-14  0.12500000000E+03  0.12500000000E+03 0.  0.
    3000001    1    3    3    0    0 -0.14646455079E+02  0.12711306282E+02 -0.33496232215E+01  0.19705733417E+02  0.10000000000E+01 0.  1.
    1000022    2    1    0    0    0 -0.52830705868E+02  0.28078755023E+02 -0.15058220892E+02  0.62500000042E+02  0.10000001135E+02 0.  0.
    3000022    2    3    3    0    0 -0.38184250789E+02  0.15367448740E+02 -0.11708597671E+02  0.42794266625E+02  0.25001491479E+00 0.  0.
    1000022    2    1    0    0    0  0.52830705868E+02 -0.28078755023E+02  0.15058220892E+02  0.62499999958E+02  0.10000000606E+02 0.  0.
    3000022    2    5    5    0    0  0.26822358785E+02 -0.94290512768E+01  0.45110553394E+01  0.28788158285E+02  0.24999671651E+00 0.  0.
        -13    1    4    4    0    0 -0.17108564287E+02  0.68164320078E+01 -0.52198223533E+01  0.19142212194E+02  0.10500000000E+00 0.  1.
         13    1    4    4    0    0 -0.21075686502E+02  0.85510167326E+01 -0.64887753176E+01  0.23652054431E+02  0.10500000000E+00 0. -1.
    3000001    1    5    5    0    0  0.26008347083E+02 -0.18649703746E+02  0.10547165553E+02  0.33711841673E+02  0.10000000000E+01 0. -1.
        -13    1    6    6    0    0  0.10269741110E+02 -0.36215255027E+01  0.16668261689E+01  0.11016912631E+02  0.10500000000E+00 0.  1.
         13    1    6    6    0    0  0.16552617675E+02 -0.58075257741E+01  0.28442291705E+01  0.17771245654E+02  0.10500000000E+00 0. -1.
</event>
<event>
11    0  0.3485800E-009  0.9118800E+02  0.7816531E-02  0.1126479E+00
         25   -1    0    0    0    0  0.00000000000E+00  0.00000000000E+00  0.99999998245E-14  0.12500000000E+03  0.12500000000E+03 0.  0.
    3000001    1    3    3    0    0  0.13112884837E+02 -0.18601247877E+02  0.24604428410E+02  0.33531061253E+02  0.10000000000E+01 0.  1.
    1000022    2    1    0    0    0  0.20876952937E+02 -0.41401887358E+02  0.40697500839E+02  0.62499999657E+02  0.99999970914E+01 0.  0.
    3000022    2    3    3    0    0  0.77640680997E+01 -0.22800639481E+02  0.16093072429E+02  0.28968938404E+02  0.24999573729E+00 0.  0.
    1000022    2    1    0    0    0 -0.20876952937E+02  0.41401887358E+02 -0.40697500839E+02  0.62500000343E+02  0.10000001375E+02 0.  0.
    3000022    2    5    5    0    0 -0.12219484394E+02  0.14107416504E+02 -0.18213221639E+02  0.26079089975E+02  0.24998444358E+00 0.  0.
        -13    1    4    4    0    0  0.53444962350E+01 -0.15819848147E+02  0.11125799316E+02  0.20065534401E+02  0.10500000000E+00 0. -1.
         13    1    4    4    0    0  0.24195718647E+01 -0.69807913345E+01  0.49672731126E+01  0.89034040029E+01  0.10500000000E+00 0.  1.
    3000001    1    5    5    0    0 -0.86574685433E+01  0.27294470855E+02 -0.22484279201E+02  0.36420910367E+02  0.10000000000E+01 0.  1.
        -13    1    6    6    0    0 -0.73933315416E+01  0.84395387735E+01 -0.10950600042E+02  0.15678451208E+02  0.10500000000E+00 0. -1.
         13    1    6    6    0    0 -0.48261528523E+01  0.56678777302E+01 -0.72626215969E+01  0.10400638768E+02  0.10500000000E+00 0.  1.
</event>
<event>
11    0  0.3485800E-009  0.9118800E+02  0.7816531E-02  0.1126479E+00
         25   -1    0    0    0    0  0.00000000000E+00  0.00000000000E+00  0.99999998245E-14  0.12500000000E+03  0.12500000000E+03 0.  0.
    3000001    1    3    3    0    0 -0.47405565193E+02  0.11796700501E+01  0.26340022641E+02  0.54253811160E+02  0.10000000000E+01 0. -1.
    1000022    2    1    0    0    0 -0.52852512329E+02 -0.17728246538E+01  0.31776075805E+02  0.62500000094E+02  0.10000002574E+02 0.  0.
    3000022    2    3    3    0    0 -0.54469471360E+01 -0.29524947039E+01  0.54360531643E+01  0.82461889341E+01  0.24999970612E+00 0.  0.
    1000022    2    1    0    0    0  0.52852512329E+02  0.17728246538E+01 -0.31776075805E+02  0.62499999906E+02  0.10000001393E+02 0.  0.
    3000022    2    5    5    0    0  0.54462426083E+01  0.32998395947E+01 -0.40460933765E+01  0.75487659889E+01  0.24999288945E+00 0.  0.
        -13    1    4    4    0    0 -0.29553435756E+01 -0.15323411661E+01  0.29569214086E+01  0.44538224387E+01  0.10500000000E+00 0.  1.
         13    1    4    4    0    0 -0.24916035604E+01 -0.14201535378E+01  0.24791317557E+01  0.37923664954E+01  0.10500000000E+00 0. -1.
    3000001    1    5    5    0    0  0.47406269721E+02 -0.15270149408E+01 -0.27729982429E+02  0.54951233917E+02  0.10000000000E+01 0. -1.
        -13    1    6    6    0    0  0.33155270856E+01  0.19700169301E+01 -0.23870319835E+01  0.45368087077E+01  0.10500000000E+00 0.  1.
         13    1    6    6    0    0  0.21307155227E+01  0.13298226645E+01 -0.16590613930E+01  0.30119572812E+01  0.10500000000E+00 0.  1.
</event>
<event>
11    0  0.3485800E-009  0.9118800E+02  0.7816531E-02  0.1126479E+00
         25   -1    0    0    0    0  0.00000000000E+00  0.00000000000E+00  0.99999998245E-14  0.12500000000E+03  0.12500000000E+03 0.  0.
    3000001    1    3    3    0    0  0.56061957648E+01 -0.33036711178E+01  0.10356593360E+02  0.12272029165E+02  0.10000000000E+01 0. -1.
    1000022    2    1    0    0    0  0.16737211206E+02 -0.25004119355E+01  0.59328439730E+02  0.62499999184E+02  0.99999919198E+01 0.  0.
    3000022    2    3    3    0    0  0.11131015441E+02  0.80325918233E+00  0.48971846371E+02  0.50227970019E+02  0.25001047635E+00 0.  0.
    1000022    2    1    0    0    0 -0.16737211206E+02  0.25004119355E+01 -0.59328439730E+02  0.62500000816E+02  0.10000002117E+02 0.  0.
    3000022    2    5    5    0    0 -0.16172747750E+02  0.37515096084E+01 -0.43177563803E+02  0.46260091407E+02  0.24989379960E+00 0.  0.
        -13    1    4    4    0    0  0.54295318275E+01  0.32393004916E+00  0.23855046369E+02  0.24467509248E+02  0.10500000000E+00 0.  1.
         13    1    4    4    0    0  0.57014836134E+01  0.47932913317E+00  0.25116800002E+02  0.25760460771E+02  0.10500000000E+00 0. -1.
    3000001    1    5    5    0    0 -0.56446345578E+00 -0.12510976729E+01 -0.16150875927E+02  0.16239909409E+02  0.10000000000E+01 0. -1.
        -13    1    6    6    0    0 -0.12065611735E+02  0.28160220496E+01 -0.32283592354E+02  0.34579623003E+02  0.10500000000E+00 0. -1.
         13    1    6    6    0    0 -0.41071360145E+01  0.93548755881E+00 -0.10893971448E+02  0.11680468404E+02  0.10500000000E+00 0.  1.
</event>
<event>
11    0  0.3485800E-009  0.9118800E+02  0.7816531E-02  0.1126479E+00
         25   -1    0    0    0    0  0.00000000000E+00  0.00000000000E+00  0.99999998245E-14  0.12500000000E+03  0.12500000000E+03 0.  0.
    3000001    1    3    3    0    0  0.38385428663E+02 -0.21279190785E+01 -0.11566417934E+02  0.40159073658E+02  0.10000000000E+01 0.  1.
    1000022    2    1    0    0    0  0.60281575924E+02 -0.65525586983E+01 -0.11377407134E+02  0.62499998153E+02  0.99999977344E+01 0.  0.
    3000022    2    3    3    0    0  0.21896147260E+02 -0.44246396198E+01  0.18901079971E+00  0.22340924495E+02  0.24996315907E+00 0.  0.
    1000022    2    1    0    0    0 -0.60281575924E+02  0.65525586983E+01  0.11377407134E+02  0.62500001847E+02  0.10000020821E+02 0.  0.
    3000022    2    5    5    0    0 -0.93857058148E+01  0.12976394939E+01  0.55740230243E+01  0.10995797775E+02  0.24998825748E+00 0.  0.
        -13    1    4    4    0    0  0.14043807536E+02 -0.28521462997E+01  0.17736687147E+00  0.14331983555E+02  0.10500000000E+00 0.  1.
         13    1    4    4    0    0  0.78523397244E+01 -0.15724933201E+01  0.11643928235E-01  0.80089409393E+01  0.10500000000E+00 0. -1.
    3000001    1    5    5    0    0 -0.50895870109E+02  0.52549192044E+01  0.58033841101E+01  0.51504204072E+02  0.10000000000E+01 0.  1.
        -13    1    6    6    0    0 -0.61876553007E+01  0.81308013101E+00  0.36295060100E+01  0.72202850565E+01  0.10500000000E+00 0.  1.
         13    1    6    6    0    0 -0.31980505140E+01  0.48455936285E+00  0.19445170142E+01  0.37755127182E+01  0.10500000000E+00 0. -1.
</event>
<event>
11    0  0.3485800E-009  0.9118800E+02  0.7816531E-02  0.1126479E+00
         25   -1    0    0    0    0  0.00000000000E+00  0.00000000000E+00  0.99999998245E-14  0.12500000000E+03  0.12500000000E+03 0.  0.
    3000001    1    3    3    0    0  0.23546430990E+02  0.25873856331E+02 -0.37475350109E+02  0.51276629370E+02  0.10000000000E+01 0.  1.
    1000022    2    1    0    0    0  0.24338393747E+02  0.31324904217E+02 -0.47250851318E+02  0.62499999976E+02  0.10000000618E+02 0.  0.
    3000022    2    3    3    0    0  0.79196275757E+00  0.54510478865E+01 -0.97755012086E+01  0.11223370606E+02  0.24999161463E+00 0.  0.
    1000022    2    1    0    0    0 -0.24338393747E+02 -0.31324904217E+02  0.47250851318E+02  0.62500000024E+02  0.10000000914E+02 0.  0.
    3000022    2    5    5    0    0 -0.53183329488E+01 -0.10665983230E+02  0.20439430467E+02  0.23661796960E+02  0.24990791514E+00 0.  0.
        -13    1    4    4    0    0  0.46320548853E+00  0.29710033904E+01 -0.52148181916E+01  0.60205293988E+01  0.10500000000E+00 0. -1.
         13    1    4    4    0    0  0.32875726903E+00  0.24800444961E+01 -0.45606830170E+01  0.52028412071E+01  0.10500000000E+00 0.  1.
    3000001    1    5    5    0    0 -0.19020060798E+02 -0.20658920987E+02  0.26811420851E+02  0.38838203063E+02  0.10000000000E+01 0. -1.
        -13    1    6    6    0    0 -0.39366934209E+01 -0.79403635343E+01  0.15153525061E+02  0.17555263453E+02  0.10500000000E+00 0.  1.
         13    1    6    6    0    0 -0.13816395279E+01 -0.27256196954E+01  0.52859054064E+01  0.61065335072E+01  0.10500000000E+00 0. -1.
</event>
<event>
11    0  0.3485800E-009  0.9118800E+02  0.7816531E-02  0.1126479E+00
         25   -1    0    0    0    0  0.00000000000E+00  0.00000000000E+00  0.99999998245E-14  0.12500000000E+03  0.12500000000E+03 0.  0.
    3000001    1    3    3    0    0  0.26744882137E+01  0.20886177099E+02  0.41703143817E+01  0.21488992602E+02  0.10000000000E+01 0. -1.
    1000022    2    1    0    0    0  0.51223624150E+01  0.56297847101E+02  0.24709587311E+02  0.62499999511E+02  0.10000002444E+02 0.  0.
    3000022    2    3    3    0    0  0.24478742013E+01  0.35411670002E+02  0.20539272930E+02  0.41011006909E+02  0.24998953197E+00 0.  0.
    1000022    2    1    0    0    0 -0.51223624150E+01 -0.56297847101E+02 -0.24709587311E+02  0.62500000489E+02  0.10000008556E+02 0.  0.
    3000022    2    5    5    0    0 -0.62652549483E+01 -0.27950237720E+02 -0.15975117523E+02  0.32798415961E+02  0.25000307805E+00 0.  0.
        -13    1    4    4    0    0  0.17500020038E+01  0.25740504890E+02  0.14901950593E+02  0.29794550768E+02  0.10500000000E+00 0.  1.
         13    1    4    4    0    0  0.69787219752E+00  0.96711651122E+01  0.56373223364E+01  0.11216456141E+02  0.10500000000E+00 0. -1.
    3000001    1    5    5    0    0  0.11428925333E+01 -0.28347609381E+02 -0.87344697883E+01  0.29701584528E+02  0.10000000000E+01 0.  1.
        -13    1    6    6    0    0 -0.21683232970E+01 -0.97585128488E+01 -0.55145040430E+01  0.11417135314E+02  0.10500000000E+00 0.  1.
         13    1    6    6    0    0 -0.40969316513E+01 -0.18191724871E+02 -0.10460613480E+02  0.21381280647E+02  0.10500000000E+00 0. -1.
</event>
<event>
11    0  0.3485800E-009  0.9118800E+02  0.7816531E-02  0.1126479E+00
         25   -1    0    0    0    0  0.00000000000E+00  0.00000000000E+00  0.99999998245E-14  0.12500000000E+03  0.12500000000E+03 0.  0.
    3000001    1    3    3    0    0  0.75028573946E+01 -0.59475009581E+01  0.33217303536E+01  0.10183296582E+02  0.10000000000E+01 0. -1.
    1000022    2    1    0    0    0  0.46821686959E+02 -0.40155100004E+02 -0.12438961138E+01  0.62500001727E+02  0.10000025617E+02 0.  0.
    3000022    2    3    3    0    0  0.39318829564E+02 -0.34207599046E+02 -0.45656264674E+01  0.52316705145E+02  0.25000285930E+00 0.  0.
    1000022    2    1    0    0    0 -0.46821686959E+02  0.40155100004E+02  0.12438961138E+01  0.62499998273E+02  0.10000004030E+02 0.  0.
    3000022    2    5    5    0    0 -0.18193439523E+02  0.10449845106E+02  0.29981643453E+01  0.21195565377E+02  0.24999563955E+00 0.  0.
        -13    1    4    4    0    0  0.25322507057E+02 -0.22092523610E+02 -0.29104082607E+01  0.33731149763E+02  0.10500000000E+00 0.  1.
         13    1    4    4    0    0  0.13996322507E+02 -0.12115075436E+02 -0.16552182067E+01  0.18585555382E+02  0.10500000000E+00 0. -1.
    3000001    1    5    5    0    0 -0.28628247436E+02  0.29705254898E+02 -0.17542682315E+01  0.41304432896E+02  0.10000000000E+01 0.  1.
        -13    1    6    6    0    0 -0.64823303363E+01  0.37874864224E+01  0.10573289594E+01  0.75825213166E+01  0.10500000000E+00 0.  1.
         13    1    6    6    0    0 -0.11711109186E+02  0.66623586837E+01  0.19408353859E+01  0.13613044061E+02  0.10500000000E+00 0. -1.
</event>
<event>
11    0  0.3485800E-009  0.9118800E+02  0.7816531E-02  0.1126479E+00
         25   -1    0    0    0    0  0.00000000000E+00  0.00000000000E+00  0.99999998245E-14  0.12500000000E+03  0.12500000000E+03 0.  0.
    3000001    1    3    3    0    0 -0.92068190985E+01 -0.35874031124E+02 -0.13777160149E+01  0.37075729641E+02  0.10000000000E+01 0. -1.
    1000022    2    1    0    0    0 -0.83822178204E+01 -0.60791487024E+02 -0.63548099484E+01  0.62500000278E+02  0.99999977551E+01 0.  0.
    3000022    2    3    3    0    0  0.82460127801E+00 -0.24917455900E+02 -0.49770939335E+01  0.25424270637E+02  0.24999521370E+00 0.  0.
    1000022    2    1    0    0    0  0.83822178204E+01  0.60791487024E+02  0.63548099484E+01  0.62499999722E+02  0.99999942792E+01 0.  0.
    3000022    2    5    5    0    0  0.10040763121E+00  0.52993625195E+01  0.34093883380E+01  0.63071196526E+01  0.25000933296E+00 0.  0.
        -13    1    4    4    0    0  0.27550515100E+00 -0.70818566489E+01 -0.14152867907E+01  0.72279082993E+01  0.10500000000E+00 0.  1.
         13    1    4    4    0    0  0.54909612702E+00 -0.17835599251E+02 -0.35618071428E+01  0.18196362338E+02  0.10500000000E+00 0. -1.
    3000001    1    5    5    0    0  0.82818101892E+01  0.55492124504E+02  0.29454216104E+01  0.56192880069E+02  0.10000000000E+01 0.  1.
        -13    1    6    6    0    0  0.77186614757E-01  0.31739332631E+01  0.19691381082E+01  0.37374242496E+01  0.10500000000E+00 0.  1.
         13    1    6    6    0    0  0.23221016453E-01  0.21254292564E+01  0.14402502298E+01  0.25696954030E+01  0.10500000000E+00 0. -1.
</event>
<event>
11    0  0.3485800E-009  0.9118800E+02  0.7816531E-02  0.1126479E+00
         25   -1    0    0    0    0  0.00000000000E+00  0.00000000000E+00  0.99999998245E-14  0.12500000000E+03  0.12500000000E+03 0.  0.
    3000001    1    3    3    0    0 -0.13604973703E+00 -0.15992925109E+02 -0.52432560382E+02  0.54826686488E+02  0.10000000000E+01 0. -1.
    1000022    2    1    0    0    0 -0.17035271088E+00 -0.14525997028E+02 -0.59960122825E+02  0.62500000779E+02  0.10000007928E+02 0.  0.
    3000022    2    3    3    0    0 -0.34302973850E-01  0.14669280809E+01 -0.75275624427E+01  0.76733142911E+01  0.25000238537E+00 0.  0.
    1000022    2    1    0    0    0  0.17035271088E+00  0.14525997028E+02  0.59960122825E+02  0.62499999221E+02  0.99999981851E+01 0.  0.
    3000022    2    5    5    0    0 -0.31510342858E+01  0.89101999468E+01  0.47158604622E+02  0.48096955905E+02  0.24999464437E+00 0.  0.
        -13    1    4    4    0    0 -0.57378544085E-01  0.78511383406E+00 -0.37435037477E+01  0.38268186968E+01  0.10500000000E+00 0. -1.
         13    1    4    4    0    0  0.23075570235E-01  0.68181424686E+00 -0.37840586950E+01  0.38464955942E+01  0.10500000000E+00 0.  1.
    3000001    1    5    5    0    0  0.33213869967E+01  0.56157970812E+01  0.12801518203E+02  0.14403043315E+02  0.10000000000E+01 0.  1.
        -13    1    6    6    0    0 -0.15306481653E+01  0.41300848845E+01  0.22041760252E+02  0.22477782474E+02  0.10500000000E+00 0. -1.
         13    1    6    6    0    0 -0.16203861205E+01  0.47801150623E+01  0.25116844370E+02  0.25619173431E+02  0.10500000000E+00 0.  1.
</event>
<event>
11    0  0.3485800E-009  0.9118800E+02  0.7816531E-02  0.1126479E+00
         25   -1    0    0    0    0  0.00000000000E+00  0.00000000000E+00  0.99999998245E-14  0.12500000000E+03  0.12500000000E+03 0.  0.
    3000001    1    3    3    0    0  0.46437800732E+02 -0.30111701956E+02  0.20219698878E+02  0.58932335388E+02  0.10000000000E+01 0.  1.
    1000022    2    1    0    0    0  0.49316419147E+02 -0.29642435931E+02  0.22259083097E+02  0.62500000459E+02  0.10000003581E+02 0.  0.
    3000022    2    3    3    0    0  0.28786184153E+01  0.46926602585E+00  0.20393842188E+01  0.35676650710E+01  0.24998296552E+00 0.  0.
    1000022    2    1    0    0    0 -0.49316419147E+02  0.29642435931E+02 -0.22259083097E+02  0.62499999541E+02  0.99999978495E+01 0.  0.
    3000022    2    5    5    0    0 -0.18129748206E+02  0.55273696381E+01 -0.78036375741E+01  0.20498752275E+02  0.25000063442E+00 0.  0.
        -13    1    4    4    0    0  0.75250148116E+00  0.10151545203E+00  0.50455180835E+00  0.91769351826E+00  0.10500000000E+00 0.  1.
         13    1    4    4    0    0  0.21261169342E+01  0.36775057383E+00  0.15348324105E+01  0.26499715528E+01  0.10500000000E+00 0. -1.
    3000001    1    5    5    0    0 -0.31186670941E+02  0.24115066293E+02 -0.14455445523E+02  0.42001247267E+02  0.10000000000E+01 0. -1.
        -13    1    6    6    0    0 -0.11153960114E+02  0.34646738707E+01 -0.48083625326E+01  0.12631158558E+02  0.10500000000E+00 0. -1.
         13    1    6    6    0    0 -0.69757880916E+01  0.20626957673E+01 -0.29952750414E+01  0.78675937173E+01  0.10500000000E+00 0.  1.
</event>
<event>
11    0  0.3485800E-009  0.9118800E+02  0.7816531E-02  0.1126479E+00
         25   -1    0    0    0    0  0.00000000000E+00  0.00000000000E+00  0.99999998245E-14  0.12500000000E+03  0.12500000000E+03 0.  0.
    3000001    1    3    3    0    0  0.25042173020E+00  0.18164863401E+01 -0.41899099511E+00  0.21302317058E+01  0.10000000000E+01 0.  1.
    1000022    2    1    0    0    0  0.30600372360E+02  0.47156104802E+02  0.25419856026E+02  0.62500000827E+02  0.10000000716E+02 0.  0.
    3000022    2    3    3    0    0  0.30349950629E+02  0.45339618462E+02  0.25838847021E+02  0.60369769121E+02  0.25000568964E+00 0.  0.
    1000022    2    1    0    0    0 -0.30600372360E+02 -0.47156104802E+02 -0.25419856026E+02  0.62499999173E+02  0.99999903830E+01 0.  0.
    3000022    2    5    5    0    0 -0.30489202101E+02 -0.46291971529E+02 -0.23594518129E+02  0.60243687232E+02  0.24998549888E+00 0.  0.
        -13    1    4    4    0    0  0.20934887190E+02  0.31337095825E+02  0.17810787898E+02  0.41683549116E+02  0.10500000000E+00 0.  1.
         13    1    4    4    0    0  0.94150634395E+01  0.14002522637E+02  0.80280591236E+01  0.18686220005E+02  0.10500000000E+00 0.  1.
    3000001    1    5    5    0    0 -0.11117025889E+00 -0.86413327268E+00 -0.18253378970E+01  0.22563119416E+01  0.10000000000E+01 0. -1.
        -13    1    6    6    0    0 -0.21505400105E+02 -0.32584033760E+02 -0.16591464188E+02  0.42420386593E+02  0.10500000000E+00 0.  1.
         13    1    6    6    0    0 -0.89838019953E+01 -0.13707937769E+02 -0.70030539412E+01  0.17823300639E+02  0.10500000000E+00 0. -1.
</event>
<event>
11    0  0.3485800E-009  0.9118800E+02  0.7816531E-02  0.1126479E+00
         25   -1    0    0    0    0  0.00000000000E+00  0.00000000000E+00  0.99999998245E-14  0.12500000000E+03  0.12500000000E+03 0.  0.
    3000001    1    3    3    0    0  0.47912368663E+01 -0.52810129255E+01 -0.58593448148E+02  0.59034203765E+02  0.10000000000E+01 0. -1.
    1000022    2    1    0    0    0  0.33731469125E+01 -0.39972297307E+01 -0.61472710377E+02  0.62499998847E+02  0.99999884598E+01 0.  0.
    3000022    2    3    3    0    0 -0.14180899538E+01  0.12837831948E+01 -0.28792622291E+01  0.34657950829E+01  0.25001232799E+00 0.  0.
    1000022    2    1    0    0    0 -0.33731469125E+01  0.39972297307E+01  0.61472710377E+02  0.62500001153E+02  0.10000002867E+02 0.  0.
    3000022    2    5    5    0    0 -0.30686081704E+01  0.71493436768E+01  0.37589368192E+02  0.38386880240E+02  0.25000485807E+00 0.  0.
        -13    1    4    4    0    0 -0.39963883052E+00  0.36952300220E+00 -0.90405915497E+00  0.10604746106E+01  0.10500000000E+00 0. -1.
         13    1    4    4    0    0 -0.10184511233E+01  0.91426019264E+00 -0.19752030741E+01  0.24053204723E+01  0.10500000000E+00 0.  1.
    3000001    1    5    5    0    0 -0.30453874207E+00 -0.31521139461E+01  0.23883342185E+02  0.24113120912E+02  0.10000000000E+01 0. -1.
        -13    1    6    6    0    0 -0.15870067408E+01  0.38613156533E+01  0.20257349013E+02  0.20683316054E+02  0.10500000000E+00 0.  1.
         13    1    6    6    0    0 -0.14816014297E+01  0.32880280235E+01  0.17332019179E+02  0.17703564186E+02  0.10500000000E+00 0. -1.
</event>
<event>
11    0  0.3485800E-009  0.9118800E+02  0.7816531E-02  0.1126479E+00
         25   -1    0    0    0    0  0.00000000000E+00  0.00000000000E+00  0.99999998245E-14  0.12500000000E+03  0.12500000000E+03 0.  0.
    3000001    1    3    3    0    0  0.49396368098E+02  0.59006392158E+01  0.23071846522E+02  0.54846411244E+02  0.10000000000E+01 0. -1.
    1000022    2    1    0    0    0  0.54384206766E+02  0.96710596982E+01  0.27478693762E+02  0.62499999093E+02  0.99999967220E+01 0.  0.
    3000022    2    3    3    0    0  0.49878386680E+01  0.37704204823E+01  0.44068472400E+01  0.76535878483E+01  0.24999832731E+00 0.  0.
    1000022    2    1    0    0    0 -0.54384206766E+02 -0.96710596982E+01 -0.27478693762E+02  0.62500000907E+02  0.10000008062E+02 0.  0.
    3000022    2    5    5    0    0 -0.19479826238E+01  0.13386994578E+01 -0.22367816768E+01  0.32638082144E+01  0.24999850006E+00 0.  0.
        -13    1    4    4    0    0  0.25138452022E+01  0.19116358057E+01  0.21436287436E+01  0.38183685449E+01  0.10500000000E+00 0.  1.
         13    1    4    4    0    0  0.24739934659E+01  0.18587846766E+01  0.22632184964E+01  0.38352193035E+01  0.10500000000E+00 0. -1.
    3000001    1    5    5    0    0 -0.52436224142E+02 -0.11009759156E+02 -0.25241912086E+02  0.59236192693E+02  0.10000000000E+01 0. -1.
        -13    1    6    6    0    0 -0.14603381690E+01  0.96865410296E+00 -0.16701915942E+01  0.24231061265E+01  0.10500000000E+00 0. -1.
         13    1    6    6    0    0 -0.48764445476E+00  0.37004535488E+00 -0.56659008263E+00  0.84070208793E+00  0.10500000000E+00 0.  1.
</event>
<event>
11    0  0.3485800E-009  0.9118800E+02  0.7816531E-02  0.1126479E+00
         25   -1    0    0    0    0  0.00000000000E+00  0.00000000000E+00  0.99999998245E-14  0.12500000000E+03  0.12500000000E+03 0.  0.
    3000001    1    3    3    0    0  0.21092300638E+01 -0.15040646735E+01 -0.15219514670E+01  0.31666067441E+01  0.10000000000E+01 0.  1.
    1000022    2    1    0    0    0  0.50319678830E+02  0.77863959630E+01 -0.34836060537E+02  0.62500007046E+02  0.10000086367E+02 0.  0.
    3000022    2    3    3    0    0  0.48210448767E+02  0.92904606365E+01 -0.33314109070E+02  0.59333400302E+02  0.24999831892E+00 0.  0.
    1000022    2    1    0    0    0 -0.50319678830E+02 -0.77863959630E+01  0.34836060537E+02  0.62499992954E+02  0.99999982927E+01 0.  0.
    3000022    2    5    5    0    0 -0.37092985239E+02 -0.45600605720E+01  0.30306891040E+02  0.48117085051E+02  0.25004584059E+00 0.  0.
        -13    1    4    4    0    0  0.14550464028E+02  0.27600244262E+01 -0.10028924358E+02  0.17886421863E+02  0.10500000000E+00 0. -1.
         13    1    4    4    0    0  0.33659984739E+02  0.65304362103E+01 -0.23285184711E+02  0.41446978439E+02  0.10500000000E+00 0.  1.
    3000001    1    5    5    0    0 -0.13226693592E+02 -0.32263353910E+01  0.45291694963E+01  0.14382907903E+02  0.10000000000E+01 0. -1.
        -13    1    6    6    0    0 -0.28086018736E+02 -0.34637459318E+01  0.22972589607E+02  0.36449593723E+02  0.10500000000E+00 0.  1.
         13    1    6    6    0    0 -0.90069665027E+01 -0.10963146402E+01  0.73343014337E+01  0.11667491328E+02  0.10500000000E+00 0. -1.
</event>
<event>
11    0  0.3485800E-009  0.9118800E+02  0.7816531E-02  0.1126479E+00
         25   -1    0    0    0    0  0.00000000000E+00  0.00000000000E+00  0.99999998245E-14  0.12500000000E+03  0.12500000000E+03 0.  0.
    3000001    1    3    3    0    0 -0.16393404254E+02 -0.67689017830E+01  0.49137979342E+02  0.52250385148E+02  0.10000000000E+01 0. -1.
    1000022    2    1    0    0    0 -0.18574791722E+02 -0.12188796800E+02  0.57555717787E+02  0.62499999252E+02  0.99999800792E+01 0.  0.
    3000022    2    3    3    0    0 -0.21813874681E+01 -0.54198950173E+01  0.84177384451E+01  0.10249614103E+02  0.25011088537E+00 0.  0.
    1000022    2    1    0    0    0  0.18574791722E+02  0.12188796800E+02 -0.57555717787E+02  0.62500000748E+02  0.99999894299E+01 0.  0.
    3000022    2    5    5    0    0  0.13660930821E+02  0.61384879627E+01 -0.47074087709E+02  0.49399739870E+02  0.25000044404E+00 0.  0.
        -13    1    4    4    0    0 -0.12238951172E+01 -0.28602718468E+01  0.44808201272E+01  0.54559919637E+01  0.10500000000E+00 0. -1.
         13    1    4    4    0    0 -0.95749235088E+00 -0.25596231705E+01  0.39369183179E+01  0.47936221398E+01  0.10500000000E+00 0.  1.
    3000001    1    5    5    0    0  0.49138609017E+01  0.60503088376E+01 -0.10481630078E+02  0.13100260878E+02  0.10000000000E+01 0.  1.
        -13    1    6    6    0    0  0.86531844241E+01  0.39287580109E+01 -0.29716988101E+02  0.31199729918E+02  0.10500000000E+00 0.  1.
         13    1    6    6    0    0  0.50077463965E+01  0.22097299517E+01 -0.17357099608E+02  0.18200009951E+02  0.10500000000E+00 0. -1.
</event>
<event>
11    0  0.3485800E-009  0.9118800E+02  0.7816531E-02  0.1126479E+00
         25   -1    0    0    0    0  0.00000000000E+00  0.00000000000E+00  0.99999998245E-14  0.12500000000E+03  0.12500000000E+03 0.  0.
    3000001    1    3    3    0    0 -0.56758394738E+01  0.65670338665E+01 -0.22879287233E+02  0.24490873236E+02  0.10000000000E+01 0.  1.
    1000022    2    1    0    0    0 -0.25734104384E+02  0.16976310015E+02 -0.53439787499E+02  0.62499999748E+02  0.99999925170E+01 0.  0.
    3000022    2    3    3    0    0 -0.20058264910E+02  0.10409276148E+02 -0.30560500266E+02  0.38009126512E+02  0.25000114421E+00 0.  0.
    1000022    2    1    0    0    0  0.25734104384E+02 -0.16976310015E+02  0.53439787499E+02  0.62500000252E+02  0.99999956729E+01 0.  0.
    3000022    2    5    5    0    0  0.16155008348E+02 -0.10740953630E+02  0.42162756070E+02  0.46412421567E+02  0.24999337631E+00 0.  0.
        -13    1    4    4    0    0 -0.11893604707E+02  0.62428305960E+01 -0.18182543746E+02  0.22606341783E+02  0.10500000000E+00 0.  1.
         13    1    4    4    0    0 -0.81646602036E+01  0.41664455522E+01 -0.12377956520E+02  0.15402784728E+02  0.10500000000E+00 0. -1.
    3000001    1    5    5    0    0  0.95790960360E+01 -0.62353563850E+01  0.11277031429E+02  0.16087578686E+02  0.10000000000E+01 0.  1.
        -13    1    6    6    0    0  0.10465143166E+02 -0.70255875627E+01  0.27381191056E+02  0.30143303580E+02  0.10500000000E+00 0.  1.
         13    1    6    6    0    0  0.56898651819E+01 -0.37153660670E+01  0.14781565014E+02  0.16269117986E+02  0.10500000000E+00 0. -1.
</event>
<event>
11    0  0.3485800E-009  0.9118800E+02  0.7816531E-02  0.1126479E+00
         25   -1    0    0    0    0  0.00000000000E+00  0.00000000000E+00  0.99999998245E-14  0.12500000000E+03  0.12500000000E+03 0.  0.
    3000001    1    3    3    0    0  0.90053979267E+01 -0.15071884586E+02 -0.22672319368E+02  0.28693082134E+02  0.10000000000E+01 0.  1.
    1000022    2    1    0    0    0  0.96213173791E+01 -0.30689009987E+02 -0.52648499857E+02  0.62500002708E+02  0.10000035959E+02 0.  0.
    3000022    2    3    3    0    0  0.61591945234E+00 -0.15617125401E+02 -0.29976180489E+02  0.33806920574E+02  0.25003889070E+00 0.  0.
    1000022    2    1    0    0    0 -0.96213173791E+01  0.30689009987E+02  0.52648499857E+02  0.62499997292E+02  0.10000002110E+02 0.  0.
    3000022    2    5    5    0    0 -0.72133107232E+01  0.27584628861E+02  0.50287163740E+02  0.57808346571E+02  0.24999049654E+00 0.  0.
        -13    1    4    4    0    0  0.45913103323E+00 -0.10327421553E+02 -0.19862660159E+02  0.22392023822E+02  0.10500000000E+00 0. -1.
         13    1    4    4    0    0  0.15678841911E+00 -0.52897038482E+01 -0.10113520330E+02  0.11414896752E+02  0.10500000000E+00 0.  1.
    3000001    1    5    5    0    0 -0.24080066559E+01  0.31043811265E+01  0.23613361172E+01  0.46916507214E+01  0.10000000000E+01 0. -1.
        -13    1    6    6    0    0 -0.21856721791E+01  0.82731162985E+01  0.15010670127E+02  0.17278682208E+02  0.10500000000E+00 0. -1.
         13    1    6    6    0    0 -0.50276385440E+01  0.19311512562E+02  0.35276493613E+02  0.40529664363E+02  0.10500000000E+00 0.  1.
</event>
<event>
11    0  0.3485800E-009  0.9118800E+02  0.7816531E-02  0.1126479E+00
         25   -1    0    0    0    0  0.00000000000E+00  0.00000000000E+00  0.99999998245E-14  0.12500000000E+03  0.12500000000E+03 0.  0.
    3000001    1    3    3    0    0 -0.49085006841E+01 -0.95493211579E+01 -0.84030299719E+01  0.13670911683E+02  0.10000000000E+01 0.  1.
    1000022    2    1    0    0    0 -0.18052569240E+02 -0.53993165375E+02 -0.23771677779E+02  0.62499997802E+02  0.99999948706E+01 0.  0.
    3000022    2    3    3    0    0 -0.13144068555E+02 -0.44443844218E+02 -0.15368647807E+02  0.48829086119E+02  0.24997749654E+00 0.  0.
    1000022    2    1    0    0    0  0.18052569240E+02  0.53993165375E+02  0.23771677779E+02  0.62500002198E+02  0.10000022347E+02 0.  0.
    3000022    2    5    5    0    0  0.38125527259E+01  0.17661855030E+02  0.31173624429E+01  0.18337315190E+02  0.24999683043E+00 0.  0.
        -13    1    4    4    0    0 -0.43338354008E+01 -0.14706590822E+02 -0.50305695856E+01  0.16136405989E+02  0.10500000000E+00 0. -1.
         13    1    4    4    0    0 -0.88102331546E+01 -0.29737253395E+02 -0.10338078221E+02  0.32692680129E+02  0.10500000000E+00 0.  1.
    3000001    1    5    5    0    0  0.14240016514E+02  0.36331310346E+02  0.20654315336E+02  0.44162687008E+02  0.10000000000E+01 0.  1.
        -13    1    6    6    0    0  0.10286394756E+01  0.49531725446E+01  0.87154967716E+00  0.51344562777E+01  0.10500000000E+00 0. -1.
         13    1    6    6    0    0  0.27839132502E+01  0.12708682485E+02  0.22458127657E+01  0.13202858913E+02  0.10500000000E+00 0.  1.
</event>
<event>
11    0  0.3485800E-009  0.9118800E+02  0.7816531E-02  0.1126479E+00
         25   -1    0    0    0    0  0.00000000000E+00  0.00000000000E+00  0.99999998245E-14  0.12500000000E+03  0.12500000000E+03 0.  0.
    3000001    1    3    3    0    0  0.24662423553E+02  0.11881563447E+02 -0.53844519067E+02  0.60412241466E+02  0.10000000000E+01 0.  1.
    1000022    2    1    0    0    0  0.26317796011E+02  0.13061322695E+02 -0.54249661154E+02  0.62499998894E+02  0.99999794467E+01 0.  0.
    3000022    2    3    3    0    0  0.16553724581E+01  0.11797592489E+01 -0.40514208725E+00  0.20877574274E+01  0.25000220813E+00 0.  0.
    1000022    2    1    0    0    0 -0.26317796011E+02 -0.13061322695E+02  0.54249661154E+02  0.62500001106E+02  0.99999932751E+01 0.  0.
    3000022    2    5    5    0    0 -0.10267041192E+02 -0.97488402541E+00  0.24537810955E+02  0.26618212240E+02  0.25004536773E+00 0.  0.
        -13    1    4    4    0    0  0.54413945430E+00  0.45145825908E+00 -0.11937571044E+00  0.72469156588E+00  0.10500000000E+00 0. -1.
         13    1    4    4    0    0  0.11112330038E+01  0.72830098986E+00 -0.28576637681E+00  0.13630658615E+01  0.10500000000E+00 0.  1.
    3000001    1    5    5    0    0 -0.16050754819E+02 -0.12086438670E+02  0.29711850199E+02  0.35881788866E+02  0.10000000000E+01 0.  1.
        -13    1    6    6    0    0 -0.40004021486E+01 -0.37671702393E+00  0.97214602700E+01  0.10519645804E+02  0.10500000000E+00 0. -1.
         13    1    6    6    0    0 -0.62666390438E+01 -0.59816700148E+00  0.14816350685E+02  0.16098566436E+02  0.10500000000E+00 0.  1.
</event>
<event>
11    0  0.3485800E-009  0.9118800E+02  0.7816531E-02  0.1126479E+00
         25   -1    0    0    0    0  0.00000000000E+00  0.00000000000E+00  0.99999998245E-14  0.12500000000E+03  0.12500000000E+03 0.  0.
    3000001    1    3    3    0    0  0.38557610731E+02  0.24997814301E+02 -0.23793981431E+02  0.51756483820E+02  0.10000000000E+01 0. -1.
    1000022    2    1    0    0    0  0.44405127559E+02  0.33551882503E+02 -0.26621532962E+02  0.62499998119E+02  0.99999787293E+01 0.  0.
    3000022    2    3    3    0    0  0.58475168286E+01  0.85540682022E+01 -0.28275515305E+01  0.10743514299E+02  0.25003192238E+00 0.  0.
    1000022    2    1    0    0    0 -0.44405127559E+02 -0.33551882503E+02  0.26621532962E+02  0.62500001881E+02  0.10000002242E+02 0.  0.
    3000022    2    5    5    0    0 -0.43349074729E+01 -0.15151223386E+00  0.25752668866E+01  0.50506312661E+01  0.24999578775E+00 0.  0.
        -13    1    4    4    0    0  0.36322682571E+01  0.52041340760E+01 -0.17290281582E+01  0.65785216838E+01  0.10500000000E+00 0. -1.
         13    1    4    4    0    0  0.22152485715E+01  0.33499341262E+01 -0.10985233724E+01  0.41649926150E+01  0.10500000000E+00 0.  1.
    3000001    1    5    5    0    0 -0.40070220086E+02 -0.33400370269E+02  0.24046266075E+02  0.57449370615E+02  0.10000000000E+01 0. -1.
        -13    1    6    6    0    0 -0.27175219446E+01 -0.11052694474E+00  0.15463412448E+01  0.31303894279E+01  0.10500000000E+00 0. -1.
         13    1    6    6    0    0 -0.16173855282E+01 -0.40985289113E-01  0.10289256418E+01  0.19202418382E+01  0.10500000000E+00 0.  1.
</event>
<event>
11    0  0.3485800E-009  0.9118800E+02  0.7816531E-02  0.1126479E+00
         25   -1    0    0    0    0  0.00000000000E+00  0.00000000000E+00  0.99999998245E-14  0.12500000000E+03  0.12500000000E+03 0.  0.
    3000001    1    3    3    0    0 -0.58310123902E+01  0.21794900347E+01 -0.13300777541E+02  0.14719428165E+02  0.10000000000E+01 0. -1.
    1000022    2    1    0    0    0 -0.11961699163E+02 -0.21789983505E+01 -0.60484872025E+02  0.62499999764E+02  0.99999972945E+01 0.  0.
    3000022    2    3    3    0    0 -0.61306867727E+01 -0.43584883852E+01 -0.47184094485E+02  0.47780571599E+02  0.25001741630E+00 0.  0.
    1000022    2    1    0    0    0  0.11961699163E+02  0.21789983505E+01  0.60484872025E+02  0.62500000236E+02  0.10000000245E+02 0.  0.
    3000022    2    5    5    0    0  0.58891392659E+01  0.14951010057E+01  0.49645756218E+02  0.50016806303E+02  0.25002798940E+00 0.  0.
        -13    1    4    4    0    0 -0.34718093349E+01 -0.24699101872E+01 -0.27140568994E+02  0.27473176494E+02  0.10500000000E+00 0. -1.
         13    1    4    4    0    0 -0.26588774378E+01 -0.18885781980E+01 -0.20043525491E+02  0.20307395105E+02  0.10500000000E+00 0.  1.
    3000001    1    5    5    0    0  0.60725598971E+01  0.68389734482E+00  0.10839115807E+02  0.12483193933E+02  0.10000000000E+01 0. -1.
        -13    1    6    6    0    0  0.34665741294E+01  0.83425281523E+00  0.28741640075E+02  0.28962147937E+02  0.10500000000E+00 0. -1.
         13    1    6    6    0    0  0.24225651364E+01  0.66084819044E+00  0.20904116144E+02  0.21054658366E+02  0.10500000000E+00 0.  1.
</event>
<event>
11    0  0.3485800E-009  0.9118800E+02  0.7816531E-02  0.1126479E+00
         25   -1    0    0    0    0  0.00000000000E+00  0.00000000000E+00  0.99999998245E-14  0.12500000000E+03  0.12500000000E+03 0.  0.
    3000001    1    3    3    0    0  0.81281164053E+00  0.17372973335E+02 -0.89787263457E+01  0.19598428306E+02  0.10000000000E+01 0.  1.
    1000022    2    1    0    0    0 -0.97259727994E+01  0.50263274926E+02 -0.34427583218E+02  0.62499998660E+02  0.99999996533E+01 0.  0.
    3000022    2    3    3    0    0 -0.10538784440E+02  0.32890301591E+02 -0.25448856873E+02  0.42901570355E+02  0.25001304981E+00 0.  0.
    1000022    2    1    0    0    0  0.97259727994E+01 -0.50263274926E+02  0.34427583218E+02  0.62500001340E+02  0.10000016399E+02 0.  0.
    3000022    2    5    5    0    0  0.42688085184E+00 -0.16680706144E+02  0.15770376267E+02  0.22960737205E+02  0.25000135341E+00 0.  0.
        -13    1    4    4    0    0 -0.52951972970E+01  0.16725291770E+02 -0.12963809098E+02  0.21813891688E+02  0.10500000000E+00 0. -1.
         13    1    4    4    0    0 -0.52435871430E+01  0.16165009821E+02 -0.12485047774E+02  0.21087678667E+02  0.10500000000E+00 0.  1.
    3000001    1    5    5    0    0  0.92990919475E+01 -0.33582568782E+02  0.18657206952E+02  0.39539264135E+02  0.10000000000E+01 0.  1.
        -13    1    6    6    0    0  0.18607821522E+00 -0.57430045069E+01  0.54853901665E+01  0.79446369425E+01  0.10500000000E+00 0. -1.
         13    1    6    6    0    0  0.24080263662E+00 -0.10937701637E+02  0.10284986100E+02  0.15016100263E+02  0.10500000000E+00 0.  1.
</event>
<event>
11    0  0.3485800E-009  0.9118800E+02  0.7816531E-02  0.1126479E+00
         25   -1    0    0    0    0  0.00000000000E+00  0.00000000000E+00  0.99999998245E-14  0.12500000000E+03  0.12500000000E+03 0.  0.
    3000001    1    3    3    0    0 -0.29842915355E+01 -0.17184963061E+01  0.38115050611E+02  0.38283368564E+02  0.10000000000E+01 0.  1.
    1000022    2    1    0    0    0 -0.75032986328E+01 -0.10010701657E+02  0.60413048016E+02  0.62500000921E+02  0.10000005324E+02 0.  0.
    3000022    2    3    3    0    0 -0.45190070973E+01 -0.82922053514E+01  0.22297997405E+02  0.24216632357E+02  0.24999940797E+00 0.  0.
    1000022    2    1    0    0    0  0.75032986328E+01  0.10010701657E+02 -0.60413048016E+02  0.62499999079E+02  0.99999938150E+01 0.  0.
    3000022    2    5    5    0    0  0.51225774352E+01 -0.52163068882E+00 -0.18156167631E+02  0.18873839520E+02  0.24999402062E+00 0.  0.
        -13    1    4    4    0    0 -0.15746718795E+01 -0.29785333600E+01  0.78574330654E+01  0.85499433847E+01  0.10500000000E+00 0.  1.
         13    1    4    4    0    0 -0.29443352178E+01 -0.53136719913E+01  0.14440564340E+02  0.15666688972E+02  0.10500000000E+00 0. -1.
    3000001    1    5    5    0    0  0.23807211977E+01  0.10532332346E+02 -0.42256880384E+02  0.43626159559E+02  0.10000000000E+01 0.  1.
        -13    1    6    6    0    0  0.23300025635E+01 -0.17292172103E+00 -0.81671350065E+01  0.84954065872E+01  0.10500000000E+00 0. -1.
         13    1    6    6    0    0  0.27925748717E+01 -0.34870896779E+00 -0.99890326249E+01  0.10378432933E+02  0.10500000000E+00 0.  1.
</event>
<event>
11    0  0.3485800E-009  0.9118800E+02  0.7816531E-02  0.1126479E+00
         25   -1    0    0    0    0  0.00000000000E+00  0.00000000000E+00  0.99999998245E-14  0.12500000000E+03  0.12500000000E+03 0.  0.
    3000001    1    3    3    0    0  0.11703209934E+02  0.20675899944E+02 -0.26583635892E+02  0.35667179009E+02  0.10000000000E+01 0. -1.
    1000022    2    1    0    0    0  0.28062718546E+02  0.33431694961E+02 -0.43601096751E+02  0.62500000431E+02  0.10000000791E+02 0.  0.
    3000022    2    3    3    0    0  0.16359508613E+02  0.12755795017E+02 -0.17017460859E+02  0.26832821422E+02  0.25000560858E+00 0.  0.
    1000022    2    1    0    0    0 -0.28062718546E+02 -0.33431694961E+02  0.43601096751E+02  0.62499999569E+02  0.99999954037E+01 0.  0.
    3000022    2    5    5    0    0 -0.86246749365E+01 -0.17904396451E+02  0.19860510253E+02  0.28097238261E+02  0.25000063199E+00 0.  0.
        -13    1    4    4    0    0  0.11481059553E+02  0.88948731021E+01 -0.11924325995E+02  0.18791861840E+02  0.10500000000E+00 0. -1.
         13    1    4    4    0    0  0.48784490593E+01  0.38609219153E+01 -0.50931348641E+01  0.80409595823E+01  0.10500000000E+00 0.  1.
    3000001    1    5    5    0    0 -0.19438043610E+02 -0.15527298510E+02  0.23740586498E+02  0.34402761308E+02  0.10000000000E+01 0. -1.
        -13    1    6    6    0    0 -0.47666939553E+01 -0.98979933928E+01  0.10884641612E+02  0.15465383684E+02  0.10500000000E+00 0. -1.
         13    1    6    6    0    0 -0.38579809812E+01 -0.80064030585E+01  0.89758686415E+01  0.12631854577E+02  0.10500000000E+00 0.  1.
</event>
<event>
11    0  0.3485800E-009  0.9118800E+02  0.7816531E-02  0.1126479E+00
         25   -1    0    0    0    0  0.00000000000E+00  0.00000000000E+00  0.99999998245E-14  0.12500000000E+03  0.12500000000E+03 0.  0.
    3000001    1    3    3    0    0  0.23292520416E+02  0.28045071715E+02  0.15750120223E+02  0.39725732742E+02  0.10000000000E+01 0.  1.
    1000022    2    1    0    0    0  0.40298379520E+02  0.42970735031E+02  0.18325023401E+02  0.62500000998E+02  0.10000009057E+02 0.  0.
    3000022    2    3    3    0    0  0.17005859104E+02  0.14925663315E+02  0.25749031779E+01  0.22774268256E+02  0.24999794397E+00 0.  0.
    1000022    2    1    0    0    0 -0.40298379520E+02 -0.42970735031E+02 -0.18325023401E+02  0.62499999002E+02  0.99999965781E+01 0.  0.
    3000022    2    5    5    0    0 -0.70363367019E+01 -0.32452152106E+01 -0.79342846819E+00  0.77931690964E+01  0.24999977039E+00 0.  0.
        -13    1    4    4    0    0  0.10654002953E+02  0.93018272518E+01  0.15614996587E+01  0.14229584510E+02  0.10500000000E+00 0.  1.
         13    1    4    4    0    0  0.63518561506E+01  0.56238360636E+01  0.10134035193E+01  0.85446837461E+01  0.10500000000E+00 0. -1.
    3000001    1    5    5    0    0 -0.33262042818E+02 -0.39725519820E+02 -0.17531594933E+02  0.54706829905E+02  0.10000000000E+01 0.  1.
        -13    1    6    6    0    0 -0.27859619970E+01 -0.12266836104E+01 -0.34488156535E+00  0.30653393325E+01  0.10500000000E+00 0.  1.
         13    1    6    6    0    0 -0.42503747049E+01 -0.20185316002E+01 -0.44854690284E+00  0.47278297640E+01  0.10500000000E+00 0. -1.
</event>
<event>
11    0  0.3485800E-009  0.9118800E+02  0.7816531E-02  0.1126479E+00
         25   -1    0    0    0    0  0.00000000000E+00  0.00000000000E+00  0.99999998245E-14  0.12500000000E+03  0.12500000000E+03 0.  0.
    3000001    1    3    3    0    0  0.39716807297E+02  0.45207727888E+02  0.99170343894E+00  0.60192581921E+02  0.10000000000E+01 0.  1.
    1000022    2    1    0    0    0  0.40509347125E+02  0.46526766243E+02 -0.70937743571E+00  0.62499995152E+02  0.99999498063E+01 0.  0.
    3000022    2    3    3    0    0  0.79253982768E+00  0.13190383557E+01 -0.17010808746E+01  0.23074132309E+01  0.24999622701E+00 0.  0.
    1000022    2    1    0    0    0 -0.40509347125E+02 -0.46526766243E+02  0.70937743571E+00  0.62500004848E+02  0.10000010403E+02 0.  0.
    3000022    2    5    5    0    0 -0.25166642355E+01 -0.36098004132E+01  0.26462412034E+01  0.51409484532E+01  0.25000118849E+00 0.  0.
        -13    1    4    4    0    0  0.51284769486E+00  0.90408104843E+00 -0.10739373823E+01  0.14982462419E+01  0.10500000000E+00 0. -1.
         13    1    4    4    0    0  0.27969213282E+00  0.41495730731E+00 -0.62714349232E+00  0.80916698895E+00  0.10500000000E+00 0. -1.
    3000001    1    5    5    0    0 -0.37992682890E+02 -0.42916965830E+02 -0.19368637677E+01  0.57359056395E+02  0.10000000000E+01 0.  1.
        -13    1    6    6    0    0 -0.14559039923E+01 -0.19899303243E+01  0.15224101403E+01  0.28996959781E+01  0.10500000000E+00 0. -1.
         13    1    6    6    0    0 -0.10607602433E+01 -0.16198700889E+01  0.11238310631E+01  0.22412524751E+01  0.10500000000E+00 0.  1.
</event>
<event>
11    0  0.3485800E-009  0.9118800E+02  0.7816531E-02  0.1126479E+00
         25   -1    0    0    0    0  0.00000000000E+00  0.00000000000E+00  0.99999998245E-14  0.12500000000E+03  0.12500000000E+03 0.  0.
    3000001    1    3    3    0    0  0.18378645178E+01 -0.53101843632E+01  0.83115451283E+01  0.10082538687E+02  0.10000000000E+01 0.  1.
    1000022    2    1    0    0    0  0.20166233695E+02 -0.45890955030E+02  0.35966555548E+02  0.62499998987E+02  0.10000001018E+02 0.  0.
    3000022    2    3    3    0    0  0.18328369177E+02 -0.40580770667E+02  0.27655010420E+02  0.52417460300E+02  0.24995670869E+00 0.  0.
    1000022    2    1    0    0    0 -0.20166233695E+02  0.45890955030E+02 -0.35966555548E+02  0.62500001013E+02  0.10000013680E+02 0.  0.
    3000022    2    5    5    0    0 -0.10744594802E+02  0.27786711015E+02 -0.15517886009E+02  0.33591887676E+02  0.25000988891E+00 0.  0.
        -13    1    4    4    0    0  0.13075757508E+02 -0.28855084053E+02  0.19693417617E+02  0.37301917277E+02  0.10500000000E+00 0.  1.
         13    1    4    4    0    0  0.52526116691E+01 -0.11725686614E+02  0.79615928032E+01  0.15115543023E+02  0.10500000000E+00 0. -1.
    3000001    1    5    5    0    0 -0.94216388924E+01  0.18104244015E+02 -0.20448669540E+02  0.28908113337E+02  0.10000000000E+01 0. -1.
        -13    1    6    6    0    0 -0.53848381826E+01  0.13810723124E+02 -0.76606613288E+01  0.16686201259E+02  0.10500000000E+00 0. -1.
         13    1    6    6    0    0 -0.53597566195E+01  0.13975987891E+02 -0.78572246800E+01  0.16905686417E+02  0.10500000000E+00 0.  1.
</event>
<event>
11    0  0.3485800E-009  0.9118800E+02  0.7816531E-02  0.1126479E+00
         25   -1    0    0    0    0  0.00000000000E+00  0.00000000000E+00  0.99999998245E-14  0.12500000000E+03  0.12500000000E+03 0.  0.
    3000001    1    3    3    0    0 -0.51565666984E+02  0.64713283216E+01  0.62530712747E+01  0.52354531820E+02  0.10000000000E+01 0. -1.
    1000022    2    1    0    0    0 -0.60089957379E+02  0.78382213211E+01  0.11576237883E+02  0.62500000119E+02  0.10000002002E+02 0.  0.
    3000022    2    3    3    0    0 -0.85242903953E+01  0.13668929995E+01  0.53231666083E+01  0.10145468299E+02  0.25000209288E+00 0.  0.
    1000022    2    1    0    0    0  0.60089957379E+02 -0.78382213211E+01 -0.11576237883E+02  0.62499999881E+02  0.10000000513E+02 0.  0.
    3000022    2    5    5    0    0  0.11211953738E+02 -0.27457301813E+01  0.14860601094E+01  0.11641211704E+02  0.24998888098E+00 0.  0.
        -13    1    4    4    0    0 -0.44021097715E+01  0.70887050706E+00  0.28286552604E+01  0.52814186937E+01  0.10500000000E+00 0. -1.
         13    1    4    4    0    0 -0.41221806238E+01  0.65802249248E+00  0.24945113479E+01  0.48640496051E+01  0.10500000000E+00 0.  1.
    3000001    1    5    5    0    0  0.48878003641E+02 -0.50924911399E+01 -0.13062297992E+02  0.50858788177E+02  0.10000000000E+01 0. -1.
        -13    1    6    6    0    0  0.48534798795E+01 -0.11573354200E+01  0.58367337760E+00  0.50246782809E+01  0.10500000000E+00 0.  1.
         13    1    6    6    0    0  0.63584738586E+01 -0.15883947613E+01  0.90238673178E+00  0.66165334234E+01  0.10500000000E+00 0. -1.
</event>
<event>
11    0  0.3485800E-009  0.9118800E+02  0.7816531E-02  0.1126479E+00
         25   -1    0    0    0    0  0.00000000000E+00  0.00000000000E+00  0.99999998245E-14  0.12500000000E+03  0.12500000000E+03 0.  0.
    3000001    1    3    3    0    0  0.14948661538E+02  0.10568802007E+02 -0.12480879961E+02  0.22179594727E+02  0.10000000000E+01 0. -1.
    1000022    2    1    0    0    0  0.35414671077E+02  0.23463411378E+02 -0.44738345646E+02  0.62500000312E+02  0.99999933417E+01 0.  0.
    3000022    2    3    3    0    0  0.20466009539E+02  0.12894609371E+02 -0.32257465685E+02  0.40320405585E+02  0.25003368529E+00 0.  0.
    1000022    2    1    0    0    0 -0.35414671077E+02 -0.23463411378E+02  0.44738345646E+02  0.62499999688E+02  0.99999894410E+01 0.  0.
    3000022    2    5    5    0    0 -0.80600660191E+01 -0.78909642344E+01  0.17714034774E+02  0.21001940624E+02  0.25000245722E+00 0.  0.
        -13    1    4    4    0    0  0.51814259306E+01  0.32316963135E+01 -0.81453270121E+01  0.10180786456E+02  0.10500000000E+00 0. -1.
         13    1    4    4    0    0  0.15284583608E+02  0.96629130578E+01 -0.24112138673E+02  0.30139619129E+02  0.10500000000E+00 0.  1.
    3000001    1    5    5    0    0 -0.27354605058E+02 -0.15572447144E+02  0.27024310872E+02  0.41498059063E+02  0.10000000000E+01 0.  1.
        -13    1    6    6    0    0 -0.61879055637E+01 -0.60454949948E+01  0.13568006142E+02  0.16091612743E+02  0.10500000000E+00 0. -1.
         13    1    6    6    0    0 -0.18721604555E+01 -0.18454692396E+01  0.41460286321E+01  0.49103278815E+01  0.10500000000E+00 0.  1.
</event>
<event>
11    0  0.3485800E-009  0.9118800E+02  0.7816531E-02  0.1126479E+00
         25   -1    0    0    0    0  0.00000000000E+00  0.00000000000E+00  0.99999998245E-14  0.12500000000E+03  0.12500000000E+03 0.  0.
    3000001    1    3    3    0    0 -0.17873911149E+02 -0.15970286971E+02  0.47513195510E+02  0.53226220167E+02  0.10000000000E+01 0.  1.
    1000022    2    1    0    0    0 -0.17405161058E+02 -0.16899150788E+02  0.56725032014E+02  0.62499997728E+02  0.99999765065E+01 0.  0.
    3000022    2    3    3    0    0  0.46875009110E+00 -0.92886381704E+00  0.92118365047E+01  0.92737775610E+01  0.25000764640E+00 0.  0.
    1000022    2    1    0    0    0  0.17405161058E+02  0.16899150788E+02 -0.56725032014E+02  0.62500002272E+02  0.10000004907E+02 0.  0.
    3000022    2    5    5    0    0  0.36575402012E+01  0.66741625178E-02 -0.39004208965E+01  0.53528904855E+01  0.25001702496E+00 0.  0.
        -13    1    4    4    0    0  0.24865419892E+00 -0.46789479491E+00  0.52651334590E+01  0.52927695766E+01  0.10500000000E+00 0.  1.
         13    1    4    4    0    0  0.22009589218E+00 -0.46096902213E+00  0.39467030457E+01  0.39810079845E+01  0.10500000000E+00 0. -1.
    3000001    1    5    5    0    0  0.13747620857E+02  0.16892476626E+02 -0.52824611118E+02  0.57147111787E+02  0.10000000000E+01 0.  1.
        -13    1    6    6    0    0  0.24273040585E+01  0.55504227415E-01 -0.25592246826E+01  0.35292409506E+01  0.10500000000E+00 0. -1.
         13    1    6    6    0    0  0.12302361427E+01 -0.48830064897E-01 -0.13411962139E+01  0.18236495350E+01  0.10500000000E+00 0.  1.
</event>
<event>
11    0  0.3485800E-009  0.9118800E+02  0.7816531E-02  0.1126479E+00
         25   -1    0    0    0    0  0.00000000000E+00  0.00000000000E+00  0.99999998245E-14  0.12500000000E+03  0.12500000000E+03 0.  0.
    3000001    1    3    3    0    0 -0.65635310323E+01 -0.49431743042E+00  0.73937640846E+00  0.66985794619E+01  0.10000000000E+01 0.  1.
    1000022    2    1    0    0    0 -0.51508152898E+02 -0.16700637005E+02  0.29567699862E+02  0.62500000265E+02  0.10000003329E+02 0.  0.
    3000022    2    3    3    0    0 -0.44944621866E+02 -0.16206319575E+02  0.28828323454E+02  0.55801420803E+02  0.25000325969E+00 0.  0.
    1000022    2    1    0    0    0  0.51508152898E+02  0.16700637005E+02 -0.29567699862E+02  0.62499999735E+02  0.10000000018E+02 0.  0.
    3000022    2    5    5    0    0  0.28049942822E+02  0.54734703339E+01 -0.19481096479E+02  0.34588058577E+02  0.25001245543E+00 0.  0.
        -13    1    4    4    0    0 -0.29559907150E+02 -0.10717388684E+02  0.18969835501E+02  0.36722148833E+02  0.10500000000E+00 0.  1.
         13    1    4    4    0    0 -0.15384714716E+02 -0.54889308907E+01  0.98584879527E+01  0.19079271970E+02  0.10500000000E+00 0. -1.
    3000001    1    5    5    0    0  0.23458210076E+02  0.11227166671E+02 -0.10086603383E+02  0.27911941159E+02  0.10000000000E+01 0. -1.
        -13    1    6    6    0    0  0.19961945860E+02  0.38573521285E+01 -0.13833630207E+02  0.24591437487E+02  0.10500000000E+00 0.  1.
         13    1    6    6    0    0  0.80879969621E+01  0.16161182054E+01 -0.56474662718E+01  0.99966210893E+01  0.10500000000E+00 0. -1.
</event>
<event>
11    0  0.3485800E-009  0.9118800E+02  0.7816531E-02  0.1126479E+00
         25   -1    0    0    0    0  0.00000000000E+00  0.00000000000E+00  0.99999998245E-14  0.12500000000E+03  0.12500000000E+03 0.  0.
    3000001    1    3    3    0    0 -0.39510969889E+02 -0.33344164688E+02  0.29714056301E+02  0.59639543947E+02  0.10000000000E+01 0. -1.
    1000022    2    1    0    0    0 -0.42131452646E+02 -0.34335226873E+02  0.29193884497E+02  0.62500000364E+02  0.10000002347E+02 0.  0.
    3000022    2    3    3    0    0 -0.26204827563E+01 -0.99106218462E+00 -0.52017180407E+00  0.28604564162E+01  0.24999614674E+00 0.  0.
    1000022    2    1    0    0    0  0.42131452646E+02  0.34335226873E+02 -0.29193884497E+02  0.62499999636E+02  0.99999978031E+01 0.  0.
    3000022    2    5    5    0    0  0.29228312071E+02  0.23600915518E+02 -0.25140861769E+02  0.45204235120E+02  0.25000503638E+00 0.  0.
        -13    1    4    4    0    0 -0.10725955872E+01 -0.45650418998E+00 -0.26089228592E+00  0.11991443425E+01  0.10500000000E+00 0. -1.
         13    1    4    4    0    0 -0.15478871691E+01 -0.53455799465E+00 -0.25927951815E+00  0.16613120738E+01  0.10500000000E+00 0.  1.
    3000001    1    5    5    0    0  0.12903140575E+02  0.10734311355E+02 -0.40530227278E+01  0.17295764516E+02  0.10000000000E+01 0.  1.
        -13    1    6    6    0    0  0.14537797739E+02  0.11707412674E+02 -0.12567693541E+02  0.22502644746E+02  0.10500000000E+00 0. -1.
         13    1    6    6    0    0  0.14690514332E+02  0.11893502843E+02 -0.12573168228E+02  0.22701590374E+02  0.10500000000E+00 0.  1.
</event>
<event>
11    0  0.3485800E-009  0.9118800E+02  0.7816531E-02  0.1126479E+00
         25   -1    0    0    0    0  0.00000000000E+00  0.00000000000E+00  0.99999998245E-14  0.12500000000E+03  0.12500000000E+03 0.  0.
    3000001    1    3    3    0    0 -0.41279825890E+01 -0.45815497514E+02  0.30634297362E+02  0.55277122099E+02  0.10000000000E+01 0.  1.
    1000022    2    1    0    0    0 -0.13542307880E+01 -0.50594222560E+02  0.35279462979E+02  0.62500001048E+02  0.10000016273E+02 0.  0.
    3000022    2    3    3    0    0  0.27737518010E+01 -0.47787250457E+01  0.46451656168E+01  0.72228789486E+01  0.25000916358E+00 0.  0.
    1000022    2    1    0    0    0  0.13542307880E+01  0.50594222560E+02 -0.35279462979E+02  0.62499998952E+02  0.10000003174E+02 0.  0.
    3000022    2    5    5    0    0  0.88315690838E+00  0.35308591982E+02 -0.29838831592E+02  0.46237376696E+02  0.24999813885E+00 0.  0.
        -13    1    4    4    0    0  0.72905006100E+00 -0.12000596877E+01  0.11743972360E+01  0.18335460489E+01  0.10500000000E+00 0. -1.
         13    1    4    4    0    0  0.20447017400E+01 -0.35786653580E+01  0.34707683808E+01  0.53893328997E+01  0.10500000000E+00 0.  1.
    3000001    1    5    5    0    0  0.47107387960E+00  0.15285630577E+02 -0.54406313866E+01  0.16262622256E+02  0.10000000000E+01 0. -1.
        -13    1    6    6    0    0  0.67345715906E+00  0.26975371917E+02 -0.22816514551E+02  0.35337354115E+02  0.10500000000E+00 0.  1.
         13    1    6    6    0    0  0.20969974932E+00  0.83332200652E+01 -0.70223170418E+01  0.10900022581E+02  0.10500000000E+00 0. -1.
</event>
<event>
11    0  0.3485800E-009  0.9118800E+02  0.7816531E-02  0.1126479E+00
         25   -1    0    0    0    0  0.00000000000E+00  0.00000000000E+00  0.99999998245E-14  0.12500000000E+03  0.12500000000E+03 0.  0.
    3000001    1    3    3    0    0  0.98311667861E+01  0.30038480858E+02 -0.28367348785E+01  0.31749161207E+02  0.10000000000E+01 0.  1.
    1000022    2    1    0    0    0  0.27374959532E+02  0.54595376930E+02 -0.87296073763E+01  0.62500002731E+02  0.10000035248E+02 0.  0.
    3000022    2    3    3    0    0  0.17543792746E+02  0.24556896072E+02 -0.58928724978E+01  0.30750841524E+02  0.24999905725E+00 0.  0.
    1000022    2    1    0    0    0 -0.27374959532E+02 -0.54595376930E+02  0.87296073763E+01  0.62499997269E+02  0.10000001107E+02 0.  0.
    3000022    2    5    5    0    0 -0.12710577649E+02 -0.29234241641E+02 -0.12518109262E+00  0.31879112924E+02  0.25000416760E+00 0.  0.
        -13    1    4    4    0    0  0.62459909635E+01  0.87497297516E+01 -0.21576095856E+01  0.10965239531E+02  0.10500000000E+00 0. -1.
         13    1    4    4    0    0  0.11297801783E+02  0.15807166321E+02 -0.37352629122E+01  0.19785601993E+02  0.10500000000E+00 0.  1.
    3000001    1    5    5    0    0 -0.14664381884E+02 -0.25361135289E+02  0.88547884689E+01  0.30620884344E+02  0.10000000000E+01 0. -1.
        -13    1    6    6    0    0 -0.57507768373E+01 -0.13124444674E+02 -0.10896870140E+00  0.14329877230E+02  0.10500000000E+00 0. -1.
         13    1    6    6    0    0 -0.69598008112E+01 -0.16109796966E+02 -0.16212391220E-01  0.17549235695E+02  0.10500000000E+00 0.  1.
</event>
<event>
11    0  0.3485800E-009  0.9118800E+02  0.7816531E-02  0.1126479E+00
         25   -1    0    0    0    0  0.00000000000E+00  0.00000000000E+00  0.99999998245E-14  0.12500000000E+03  0.12500000000E+03 0.  0.
    3000001    1    3    3    0    0 -0.15658608985E+02 -0.10741986129E+02 -0.24096003776E+01  0.19167380502E+02  0.10000000000E+01 0. -1.
    1000022    2    1    0    0    0 -0.52858163097E+02 -0.31185541829E+02  0.63029005214E+01  0.62500000562E+02  0.10000004507E+02 0.  0.
    3000022    2    3    3    0    0 -0.37199554112E+02 -0.20443555700E+02  0.87125008990E+01  0.43332620060E+02  0.24998710088E+00 0.  0.
    1000022    2    1    0    0    0  0.52858163097E+02  0.31185541829E+02 -0.63029005214E+01  0.62499999438E+02  0.99999974771E+01 0.  0.
    3000022    2    5    5    0    0  0.24264235505E+02  0.96347841065E+01 -0.54449918397E+01  0.26670069757E+02  0.24999065951E+00 0.  0.
        -13    1    4    4    0    0 -0.10187170156E+02 -0.56209000426E+01  0.23555428338E+01  0.11871502016E+02  0.10500000000E+00 0.  1.
         13    1    4    4    0    0 -0.27012383956E+02 -0.14822655657E+02  0.63569580652E+01  0.31461118044E+02  0.10500000000E+00 0. -1.
    3000001    1    5    5    0    0  0.28593927593E+02  0.21550757722E+02 -0.85790868169E+00  0.35829929680E+02  0.10000000000E+01 0.  1.
        -13    1    6    6    0    0  0.17130361451E+02  0.67545101645E+01 -0.38435232371E+01  0.18811070859E+02  0.10500000000E+00 0. -1.
         13    1    6    6    0    0  0.71338740536E+01  0.28802739420E+01 -0.16014686026E+01  0.78589988980E+01  0.10500000000E+00 0.  1.
</event>
<event>
11    0  0.3485800E-009  0.9118800E+02  0.7816531E-02  0.1126479E+00
         25   -1    0    0    0    0  0.00000000000E+00  0.00000000000E+00  0.99999998245E-14  0.12500000000E+03  0.12500000000E+03 0.  0.
    3000001    1    3    3    0    0 -0.16367003883E+01  0.43842129781E+01  0.22110761439E+01  0.52715243823E+01  0.10000000000E+01 0.  1.
    1000022    2    1    0    0    0 -0.21308031724E+02  0.57752725886E+02 -0.41037084675E+01  0.62500000122E+02  0.10000001438E+02 0.  0.
    3000022    2    3    3    0    0 -0.19671331336E+02  0.53368512908E+02 -0.63147846114E+01  0.57228475740E+02  0.24996841148E+00 0.  0.
    1000022    2    1    0    0    0  0.21308031724E+02 -0.57752725886E+02  0.41037084675E+01  0.62499999878E+02  0.99999999149E+01 0.  0.
    3000022    2    5    5    0    0  0.85167348283E+01 -0.14031219628E+02 -0.19635448201E+01  0.16532631580E+02  0.25000463681E+00 0.  0.
        -13    1    4    4    0    0 -0.66497636941E+01  0.17943218596E+02 -0.21670116163E+01  0.19258385579E+02  0.10500000000E+00 0.  1.
         13    1    4    4    0    0 -0.13021567642E+02  0.35425294312E+02 -0.41477729951E+01  0.37970090160E+02  0.10500000000E+00 0. -1.
    3000001    1    5    5    0    0  0.12791296896E+02 -0.43721506258E+02  0.60672532876E+01  0.45967368298E+02  0.10000000000E+01 0. -1.
        -13    1    6    6    0    0  0.24087471937E+01 -0.39833905145E+01 -0.59743279994E+00  0.46944024097E+01  0.10500000000E+00 0. -1.
         13    1    6    6    0    0  0.61079876346E+01 -0.10047829114E+02 -0.13661120201E+01  0.11838229170E+02  0.10500000000E+00 0.  1.
</event>
<event>
11    0  0.3485800E-009  0.9118800E+02  0.7816531E-02  0.1126479E+00
         25   -1    0    0    0    0  0.00000000000E+00  0.00000000000E+00  0.99999998245E-14  0.12500000000E+03  0.12500000000E+03 0.  0.
    3000001    1    3    3    0    0  0.43437924242E+02 -0.20690431658E+02  0.16160387924E+02  0.50765198340E+02  0.10000000000E+01 0.  1.
    1000022    2    1    0    0    0  0.52709794730E+02 -0.22124105022E+02  0.23204546733E+02  0.62500004752E+02  0.10000056066E+02 0.  0.
    3000022    2    3    3    0    0  0.92718704886E+01 -0.14336733643E+01  0.70441588095E+01  0.11734806412E+02  0.25001304423E+00 0.  0.
    1000022    2    1    0    0    0 -0.52709794730E+02  0.22124105022E+02 -0.23204546733E+02  0.62499995248E+02  0.99999966671E+01 0.  0.
    3000022    2    5    5    0    0 -0.15273861152E+02  0.10828245996E+02 -0.99201323952E+01  0.21189933298E+02  0.25000117478E+00 0.  0.
        -13    1    4    4    0    0  0.32360785355E+01 -0.44439274787E+00  0.24404580434E+01  0.40787926723E+01  0.10500000000E+00 0.  1.
         13    1    4    4    0    0  0.60357919531E+01 -0.98928061647E+00  0.46037007661E+01  0.76560137397E+01  0.10500000000E+00 0. -1.
    3000001    1    5    5    0    0 -0.37435933578E+02  0.11295859027E+02 -0.13284414338E+02  0.41310061950E+02  0.10000000000E+01 0.  1.
        -13    1    6    6    0    0 -0.52825347578E+01  0.38069129400E+01 -0.34224270026E+01  0.73567514018E+01  0.10500000000E+00 0. -1.
         13    1    6    6    0    0 -0.99913263944E+01  0.70213330557E+01 -0.64977053926E+01  0.13833181896E+02  0.10500000000E+00 0.  1.
</event>
<event>
11    0  0.3485800E-009  0.9118800E+02  0.7816531E-02  0.1126479E+00
         25   -1    0    0    0    0  0.00000000000E+00  0.00000000000E+00  0.99999998245E-14  0.12500000000E+03  0.12500000000E+03 0.  0.
    3000001    1    3    3    0    0  0.11490517200E+02 -0.13438085263E+02  0.20126410359E+02  0.26808329209E+02  0.10000000000E+01 0.  1.
    1000022    2    1    0    0    0  0.23085112204E+02 -0.40162784948E+02  0.40746513303E+02  0.62499999753E+02  0.99999961242E+01 0.  0.
    3000022    2    3    3    0    0  0.11594595005E+02 -0.26724699685E+02  0.20620102945E+02  0.35691670544E+02  0.24998841231E+00 0.  0.
    1000022    2    1    0    0    0 -0.23085112204E+02  0.40162784948E+02 -0.40746513303E+02  0.62500000247E+02  0.99999992122E+01 0.  0.
    3000022    2    5    5    0    0 -0.17466930937E+02  0.36634900297E+02 -0.36298639424E+02  0.54450558471E+02  0.24999522131E+00 0.  0.
        -13    1    4    4    0    0  0.48882172679E+01 -0.11299159623E+02  0.86362642756E+01  0.15038675536E+02  0.10500000000E+00 0. -1.
         13    1    4    4    0    0  0.67063777370E+01 -0.15425540062E+02  0.11983838669E+02  0.20652995008E+02  0.10500000000E+00 0.  1.
    3000001    1    5    5    0    0 -0.56181812674E+01  0.35278846508E+01 -0.44478738789E+01  0.80494417760E+01  0.10000000000E+01 0. -1.
        -13    1    6    6    0    0 -0.11044825305E+02  0.23113235540E+02 -0.22984213475E+02  0.34416491937E+02  0.10500000000E+00 0.  1.
         13    1    6    6    0    0 -0.64221056323E+01  0.13521664757E+02 -0.13314425949E+02  0.20034066534E+02  0.10500000000E+00 0. -1.
</event>
<event>
11    0  0.3485800E-009  0.9118800E+02  0.7816531E-02  0.1126479E+00
         25   -1    0    0    0    0  0.00000000000E+00  0.00000000000E+00  0.99999998245E-14  0.12500000000E+03  0.12500000000E+03 0.  0.
    3000001    1    3    3    0    0 -0.16779955391E+02  0.61285140397E+01  0.53509676063E+01  0.18675075410E+02  0.10000000000E+01 0. -1.
    1000022    2    1    0    0    0 -0.56013058163E+02  0.25589337268E+02  0.37380504771E+01  0.62499999850E+02  0.10000004665E+02 0.  0.
    3000022    2    3    3    0    0 -0.39233102772E+02  0.19460823229E+02 -0.16129171292E+01  0.43824924440E+02  0.25001326746E+00 0.  0.
    1000022    2    1    0    0    0  0.56013058163E+02 -0.25589337268E+02 -0.37380504771E+01  0.62500000150E+02  0.10000006538E+02 0.  0.
    3000022    2    5    5    0    0  0.16064919422E+02 -0.10164205364E+02 -0.49593404327E+01  0.19648162006E+02  0.25001196021E+00 0.  0.
        -13    1    4    4    0    0 -0.98725785904E+01  0.49141781747E+01 -0.38340049373E+00  0.11035169962E+02  0.10500000000E+00 0. -1.
         13    1    4    4    0    0 -0.29360524181E+02  0.14546645054E+02 -0.12295166355E+01  0.32789754477E+02  0.10500000000E+00 0.  1.
    3000001    1    5    5    0    0  0.39948138741E+02 -0.15425131905E+02  0.12212899556E+01  0.42851838144E+02  0.10000000000E+01 0. -1.
        -13    1    6    6    0    0  0.11477905730E+02 -0.72155005604E+01 -0.35214291768E+01  0.14007757020E+02  0.10500000000E+00 0.  1.
         13    1    6    6    0    0  0.45870136915E+01 -0.29487048033E+01 -0.14379112559E+01  0.56404049857E+01  0.10500000000E+00 0. -1.
</event>
<event>
11    0  0.3485800E-009  0.9118800E+02  0.7816531E-02  0.1126479E+00
         25   -1    0    0    0    0  0.00000000000E+00  0.00000000000E+00  0.99999998245E-14  0.12500000000E+03  0.12500000000E+03 0.  0.
    3000001    1    3    3    0    0  0.50883364305E+01 -0.14445602763E+01 -0.33894873523E+01  0.63613321351E+01  0.10000000000E+01 0.  1.
    1000022    2    1    0    0    0  0.29475644868E+02 -0.13020201418E+02 -0.52610937705E+02  0.62499999334E+02  0.99999932607E+01 0.  0.
    3000022    2    3    3    0    0  0.24387308437E+02 -0.11575641142E+02 -0.49221450352E+02  0.56138667199E+02  0.24999878356E+00 0.  0.
    1000022    2    1    0    0    0 -0.29475644868E+02  0.13020201418E+02  0.52610937705E+02  0.62500000666E+02  0.10000001588E+02 0.  0.
    3000022    2    5    5    0    0 -0.14243674874E+02  0.36197316868E+01  0.31797331661E+02  0.35030236605E+02  0.24988878042E+00 0.  0.
        -13    1    4    4    0    0  0.16297106463E+02 -0.77652673885E+01 -0.33010630853E+02  0.37624564196E+02  0.10500000000E+00 0.  1.
         13    1    4    4    0    0  0.80902019747E+01 -0.38103737535E+01 -0.16210819499E+02  0.18514103002E+02  0.10500000000E+00 0. -1.
    3000001    1    5    5    0    0 -0.15231969994E+02  0.94004697314E+01  0.20813606044E+02  0.27469764062E+02  0.10000000000E+01 0. -1.
        -13    1    6    6    0    0 -0.10718863528E+02  0.27277887992E+01  0.23986167136E+02  0.26413672708E+02  0.10500000000E+00 0.  1.
         13    1    6    6    0    0 -0.35248113462E+01  0.89194288762E+00  0.78111645249E+01  0.86165638961E+01  0.10500000000E+00 0. -1.
</event>
<event>
11    0  0.3485800E-009  0.9118800E+02  0.7816531E-02  0.1126479E+00
         25   -1    0    0    0    0  0.00000000000E+00  0.00000000000E+00  0.99999998245E-14  0.12500000000E+03  0.12500000000E+03 0.  0.
    3000001    1    3    3    0    0 -0.29067342811E+01  0.13271190546E+01 -0.42726677503E+00  0.33753379184E+01  0.10000000000E+01 0. -1.
    1000022    2    1    0    0    0 -0.29684365564E+02  0.47719388237E+02 -0.25454830638E+02  0.62499999622E+02  0.99999988603E+01 0.  0.
    3000022    2    3    3    0    0 -0.26777631283E+02  0.46392269182E+02 -0.25027563863E+02  0.59124661703E+02  0.24998312640E+00 0.  0.
    1000022    2    1    0    0    0  0.29684365564E+02 -0.47719388237E+02  0.25454830638E+02  0.62500000378E+02  0.10000003591E+02 0.  0.
    3000022    2    5    5    0    0  0.29571049676E+01 -0.82616484077E+01  0.75547339900E+01  0.11581701591E+02  0.25000374512E+00 0.  0.
        -13    1    4    4    0    0 -0.19154497038E+02  0.33185661858E+02 -0.17857204509E+02  0.42273794337E+02  0.10500000000E+00 0. -1.
         13    1    4    4    0    0 -0.76231342455E+01  0.13206607324E+02 -0.71703593540E+01  0.16850867367E+02  0.10500000000E+00 0.  1.
    3000001    1    5    5    0    0  0.26727260597E+02 -0.39457739829E+02  0.17900096648E+02  0.50918298788E+02  0.10000000000E+01 0.  1.
        -13    1    6    6    0    0  0.12857557820E+01 -0.35416344271E+01  0.31608444632E+01  0.49191772754E+01  0.10500000000E+00 0. -1.
         13    1    6    6    0    0  0.16713491856E+01 -0.47200139806E+01  0.43938895268E+01  0.66625243153E+01  0.10500000000E+00 0.  1.
</event>
<event>
11    0  0.3485800E-009  0.9118800E+02  0.7816531E-02  0.1126479E+00
         25   -1    0    0    0    0  0.00000000000E+00  0.00000000000E+00  0.99999998245E-14  0.12500000000E+03  0.12500000000E+03 0.  0.
    3000001    1    3    3    0    0  0.76300912582E+01 -0.14252727361E+01 -0.37452425565E+02  0.38261388836E+02  0.10000000000E+01 0.  1.
    1000022    2    1    0    0    0  0.12233221682E+02 -0.10058258834E+02 -0.59627424201E+02  0.62500001001E+02  0.10000006240E+02 0.  0.
    3000022    2    3    3    0    0  0.46031304234E+01 -0.86329860984E+01 -0.22174998636E+02  0.24238612165E+02  0.24999299265E+00 0.  0.
    1000022    2    1    0    0    0 -0.12233221682E+02  0.10058258834E+02  0.59627424201E+02  0.62499998999E+02  0.99999937268E+01 0.  0.
    3000022    2    5    5    0    0 -0.30493293684E+01 -0.87557274786E+00  0.42915481203E+01  0.53427445801E+01  0.24999429012E+00 0.  0.
        -13    1    4    4    0    0  0.31199350459E+01 -0.58975362352E+01 -0.15007341460E+02  0.16423953575E+02  0.10500000000E+00 0. -1.
         13    1    4    4    0    0  0.14831953775E+01 -0.27354498632E+01 -0.71676571757E+01  0.78146585895E+01  0.10500000000E+00 0.  1.
    3000001    1    5    5    0    0 -0.91838923132E+01  0.10933831582E+02  0.55335876081E+02  0.57157254419E+02  0.10000000000E+01 0.  1.
        -13    1    6    6    0    0 -0.17401152667E+01 -0.52005476976E+00  0.23499995143E+01  0.29718648728E+01  0.10500000000E+00 0. -1.
         13    1    6    6    0    0 -0.13092141018E+01 -0.35551797810E+00  0.19415486060E+01  0.23708797073E+01  0.10500000000E+00 0.  1.
</event>
<event>
11    0  0.3485800E-009  0.9118800E+02  0.7816531E-02  0.1126479E+00
         25   -1    0    0    0    0  0.00000000000E+00  0.00000000000E+00  0.99999998245E-14  0.12500000000E+03  0.12500000000E+03 0.  0.
    3000001    1    3    3    0    0 -0.21436414409E+02  0.14015354404E+02 -0.40968857596E+02  0.48325948667E+02  0.10000000000E+01 0. -1.
    1000022    2    1    0    0    0 -0.23606132032E+02  0.21570632739E+02 -0.52760860682E+02  0.62500000421E+02  0.99999983174E+01 0.  0.
    3000022    2    3    3    0    0 -0.21697176232E+01  0.75552783351E+01 -0.11792003086E+02  0.14174051754E+02  0.25000211654E+00 0.  0.
    1000022    2    1    0    0    0  0.23606132032E+02 -0.21570632739E+02  0.52760860682E+02  0.62499999579E+02  0.99999930581E+01 0.  0.
    3000022    2    5    5    0    0  0.12052926978E+02 -0.51654402538E+01  0.16864630304E+02  0.21364294372E+02  0.24999393923E+00 0.  0.
        -13    1    4    4    0    0 -0.54039396341E+00  0.18134075211E+01 -0.28538362478E+01  0.34257668927E+01  0.10500000000E+00 0. -1.
         13    1    4    4    0    0 -0.16293236598E+01  0.57418708140E+01 -0.89381668382E+01  0.10748284861E+02  0.10500000000E+00 0.  1.
    3000001    1    5    5    0    0  0.11553205054E+02 -0.16405192486E+02  0.35896230379E+02  0.41135705207E+02  0.10000000000E+01 0. -1.
        -13    1    6    6    0    0  0.69411075459E+01 -0.29970665988E+01  0.96224056510E+01  0.12237773395E+02  0.10500000000E+00 0. -1.
         13    1    6    6    0    0  0.51118194324E+01 -0.21683736550E+01  0.72422246525E+01  0.91265209765E+01  0.10500000000E+00 0.  1.
</event>
<event>
11    0  0.3485800E-009  0.9118800E+02  0.7816531E-02  0.1126479E+00
         25   -1    0    0    0    0  0.00000000000E+00  0.00000000000E+00  0.99999998245E-14  0.12500000000E+03  0.12500000000E+03 0.  0.
    3000001    1    3    3    0    0  0.35741818841E+02 -0.68267841532E+01  0.26545570814E+02  0.45052746040E+02  0.10000000000E+01 0. -1.
    1000022    2    1    0    0    0  0.50176584422E+02 -0.14239298669E+02  0.32951522577E+02  0.62499996466E+02  0.99999733630E+01 0.  0.
    3000022    2    3    3    0    0  0.14434765582E+02 -0.74125145153E+01  0.64059517623E+01  0.17447250426E+02  0.25000119284E+00 0.  0.
    1000022    2    1    0    0    0 -0.50176584422E+02  0.14239298669E+02 -0.32951522577E+02  0.62500003534E+02  0.10000017539E+02 0.  0.
    3000022    2    5    5    0    0 -0.33627198980E+02  0.54381680273E+01 -0.18170721974E+02  0.38608286862E+02  0.24998926181E+00 0.  0.
        -13    1    4    4    0    0  0.71858009909E+01 -0.36748883529E+01  0.32576914550E+01  0.87042586647E+01  0.10500000000E+00 0.  1.
         13    1    4    4    0    0  0.72489645907E+01 -0.37376261624E+01  0.31482603073E+01  0.87429917608E+01  0.10500000000E+00 0. -1.
    3000001    1    5    5    0    0 -0.16549385443E+02  0.88011306412E+01 -0.14780800603E+02  0.23891716672E+02  0.10000000000E+01 0. -1.
        -13    1    6    6    0    0 -0.83584586338E+01  0.13260151025E+01 -0.45145670204E+01  0.95924182126E+01  0.10500000000E+00 0.  1.
         13    1    6    6    0    0 -0.25268740346E+02  0.41121529248E+01 -0.13656154953E+02  0.29015868649E+02  0.10500000000E+00 0. -1.
</event>
<event>
11    0  0.3485800E-009  0.9118800E+02  0.7816531E-02  0.1126479E+00
         25   -1    0    0    0    0  0.00000000000E+00  0.00000000000E+00  0.99999998245E-14  0.12500000000E+03  0.12500000000E+03 0.  0.
    3000001    1    3    3    0    0  0.41380187020E+02 -0.10766551515E+02 -0.46466213012E+01  0.43021269145E+02  0.10000000000E+01 0. -1.
    1000022    2    1    0    0    0  0.57577508877E+02 -0.18479716468E+02 -0.12230310627E+02  0.62500000709E+02  0.10000007068E+02 0.  0.
    3000022    2    3    3    0    0  0.16197321857E+02 -0.77131649533E+01 -0.75836893263E+01  0.19478731564E+02  0.24998121419E+00 0.  0.
    1000022    2    1    0    0    0 -0.57577508877E+02  0.18479716468E+02  0.12230310627E+02  0.62499999291E+02  0.99999982083E+01 0.  0.
    3000022    2    5    5    0    0 -0.56178815755E+02  0.17574514371E+02  0.13203549603E+02  0.60326769578E+02  0.25002103580E+00 0.  0.
        -13    1    4    4    0    0  0.61442723478E+01 -0.29139064597E+01 -0.28099505423E+01  0.73586534495E+01  0.10500000000E+00 0. -1.
         13    1    4    4    0    0  0.10053049509E+02 -0.47992584936E+01 -0.47737387840E+01  0.12120078114E+02  0.10500000000E+00 0.  1.
    3000001    1    5    5    0    0 -0.13986931214E+01  0.90520209638E+00 -0.97323897551E+00  0.21732297132E+01  0.10000000000E+01 0.  1.
        -13    1    6    6    0    0 -0.16743694624E+02  0.52101181151E+01  0.39709721147E+01  0.17979885566E+02  0.10500000000E+00 0. -1.
         13    1    6    6    0    0 -0.39435121132E+02  0.12364396256E+02  0.92325774883E+01  0.42346884012E+02  0.10500000000E+00 0.  1.
</event>
<event>
11    0  0.3485800E-009  0.9118800E+02  0.7816531E-02  0.1126479E+00
         25   -1    0    0    0    0  0.00000000000E+00  0.00000000000E+00  0.99999998245E-14  0.12500000000E+03  0.12500000000E+03 0.  0.
    3000001    1    3    3    0    0 -0.53185278181E+01 -0.12678068095E+02 -0.39086547743E+02  0.41446089842E+02  0.10000000000E+01 0. -1.
    1000022    2    1    0    0    0 -0.12599984984E+02 -0.13738068138E+02 -0.58811187418E+02  0.62499999909E+02  0.10000004266E+02 0.  0.
    3000022    2    3    3    0    0 -0.72814571661E+01 -0.10600000432E+01 -0.19724639675E+02  0.21053910066E+02  0.25000043091E+00 0.  0.
    1000022    2    1    0    0    0  0.12599984984E+02  0.13738068138E+02  0.58811187418E+02  0.62500000091E+02  0.10000005407E+02 0.  0.
    3000022    2    5    5    0    0  0.71558111569E+01  0.77658881665E+01  0.46877744967E+02  0.48053096928E+02  0.24999775177E+00 0.  0.
        -13    1    4    4    0    0 -0.17103227721E+01 -0.25156982663E+00 -0.46812831916E+01  0.49913854472E+01  0.10500000000E+00 0.  1.
         13    1    4    4    0    0 -0.55711343939E+01 -0.80843021652E+00 -0.15043356484E+02  0.16062524619E+02  0.10500000000E+00 0. -1.
    3000001    1    5    5    0    0  0.54441738273E+01  0.59721799716E+01  0.11933442451E+02  0.14446903163E+02  0.10000000000E+01 0.  1.
        -13    1    6    6    0    0  0.21045523245E+01  0.22225764308E+01  0.13544430066E+02  0.13886381721E+02  0.10500000000E+00 0. -1.
         13    1    6    6    0    0  0.50512588323E+01  0.55433117358E+01  0.33333314901E+02  0.34166715208E+02  0.10500000000E+00 0.  1.
</event>
<event>
11    0  0.3485800E-009  0.9118800E+02  0.7816531E-02  0.1126479E+00
         25   -1    0    0    0    0  0.00000000000E+00  0.00000000000E+00  0.99999998245E-14  0.12500000000E+03  0.12500000000E+03 0.  0.
    3000001    1    3    3    0    0 -0.51941400365E+02 -0.24547831389E+02 -0.79364905065E+01  0.58004249666E+02  0.10000000000E+01 0. -1.
    1000022    2    1    0    0    0 -0.56141218910E+02 -0.24776120150E+02 -0.63684700656E+01  0.62500000431E+02  0.10000002625E+02 0.  0.
    3000022    2    3    3    0    0 -0.41998185453E+01 -0.22828876081E+00  0.15680204409E+01  0.44957507650E+01  0.24999053087E+00 0.  0.
    1000022    2    1    0    0    0  0.56141218910E+02  0.24776120150E+02  0.63684700656E+01  0.62499999569E+02  0.99999972385E+01 0.  0.
    3000022    2    5    5    0    0  0.15254140127E+02  0.10958577609E+02  0.43573450258E+01  0.19282846525E+02  0.25000044216E+00 0.  0.
        -13    1    4    4    0    0 -0.30021199031E+01 -0.18650719679E+00  0.10835705470E+01  0.31988527595E+01  0.10500000000E+00 0. -1.
         13    1    4    4    0    0 -0.11976986423E+01 -0.41781564014E-01  0.48444989394E+00  0.12968980054E+01  0.10500000000E+00 0.  1.
    3000001    1    5    5    0    0  0.40887078783E+02  0.13817542541E+02  0.20111250398E+01  0.43217153044E+02  0.10000000000E+01 0. -1.
        -13    1    6    6    0    0  0.84910973767E+01  0.61072414643E+01  0.23586069887E+01  0.10722461699E+02  0.10500000000E+00 0.  1.
         13    1    6    6    0    0  0.67630427501E+01  0.48513361443E+01  0.19987380371E+01  0.85603848257E+01  0.10500000000E+00 0. -1.
</event>
<event>
11    0  0.3485800E-009  0.9118800E+02  0.7816531E-02  0.1126479E+00
         25   -1    0    0    0    0  0.00000000000E+00  0.00000000000E+00  0.99999998245E-14  0.12500000000E+03  0.12500000000E+03 0.  0.
    3000001    1    3    3    0    0  0.22985396699E+02  0.14928135305E+02  0.12345317522E+02  0.30076312104E+02  0.10000000000E+01 0.  1.
    1000022    2    1    0    0    0  0.49558940016E+02  0.21726958447E+02  0.29632764059E+02  0.62499999508E+02  0.99999986913E+01 0.  0.
    3000022    2    3    3    0    0  0.26573543317E+02  0.67988231423E+01  0.17287446537E+02  0.32423687404E+02  0.24999302701E+00 0.  0.
    1000022    2    1    0    0    0 -0.49558940016E+02 -0.21726958447E+02 -0.29632764059E+02  0.62500000492E+02  0.10000004846E+02 0.  0.
    3000022    2    5    5    0    0 -0.13273763546E+02 -0.10550235301E+02 -0.10818591477E+02  0.20114787721E+02  0.24999986640E+00 0.  0.
        -13    1    4    4    0    0  0.88963960319E+01  0.22253017388E+01  0.58051637128E+01  0.10853975351E+02  0.10500000000E+00 0.  1.
         13    1    4    4    0    0  0.17677147285E+02  0.45735214035E+01  0.11482282824E+02  0.21569712053E+02  0.10500000000E+00 0. -1.
    3000001    1    5    5    0    0 -0.36285176470E+02 -0.11176723146E+02 -0.18814172582E+02  0.42385212771E+02  0.10000000000E+01 0.  1.
        -13    1    6    6    0    0 -0.73384198807E+01 -0.58651778980E+01 -0.60666826760E+01  0.11183397597E+02  0.10500000000E+00 0.  1.
         13    1    6    6    0    0 -0.59353436655E+01 -0.46850574029E+01 -0.47519088010E+01  0.89313901241E+01  0.10500000000E+00 0. -1.
</event>
<event>
11    0  0.3485800E-009  0.9118800E+02  0.7816531E-02  0.1126479E+00
         25   -1    0    0    0    0  0.00000000000E+00  0.00000000000E+00  0.99999998245E-14  0.12500000000E+03  0.12500000000E+03 0.  0.
    3000001    1    3    3    0    0  0.37633751457E+02  0.25640241648E+00 -0.11740415285E+02  0.39436053833E+02  0.10000000000E+01 0.  1.
    1000022    2    1    0    0    0  0.57231260196E+02 -0.57517614236E+01 -0.22310318796E+02  0.62500002335E+02  0.10000003199E+02 0.  0.
    3000022    2    3    3    0    0  0.19597508739E+02 -0.60081638401E+01 -0.10569903511E+02  0.23063948501E+02  0.24995743000E+00 0.  0.
    1000022    2    1    0    0    0 -0.57231260196E+02  0.57517614236E+01  0.22310318796E+02  0.62499997665E+02  0.99999740152E+01 0.  0.
    3000022    2    5    5    0    0 -0.25356231952E+02  0.64681649569E+01  0.68442984713E+01  0.27049631739E+02  0.24999796317E+00 0.  0.
        -13    1    4    4    0    0  0.62627496455E+01 -0.19189434140E+01 -0.34348520444E+01  0.73968649112E+01  0.10500000000E+00 0. -1.
         13    1    4    4    0    0  0.13334759094E+02 -0.40892204260E+01 -0.71350514671E+01  0.15667083590E+02  0.10500000000E+00 0.  1.
    3000001    1    5    5    0    0 -0.31875028244E+02 -0.71640353333E+00  0.15466020325E+02  0.35450365926E+02  0.10000000000E+01 0. -1.
        -13    1    6    6    0    0 -0.73586547609E+01  0.19143418916E+01  0.20132548601E+01  0.78663031278E+01  0.10500000000E+00 0. -1.
         13    1    6    6    0    0 -0.17997577191E+02  0.45538230653E+01  0.48310436112E+01  0.19183328612E+02  0.10500000000E+00 0.  1.
</event>
<event>
11    0  0.3485800E-009  0.9118800E+02  0.7816531E-02  0.1126479E+00
         25   -1    0    0    0    0  0.00000000000E+00  0.00000000000E+00  0.99999998245E-14  0.12500000000E+03  0.12500000000E+03 0.  0.
    3000001    1    3    3    0    0  0.46857506642E+01  0.12977476370E+02  0.13117697682E+02  0.19064237322E+02  0.10000000000E+01 0.  1.
    1000022    2    1    0    0    0  0.34539572057E+01  0.49157842136E+02  0.37119088419E+02  0.62499999527E+02  0.99999975998E+01 0.  0.
    3000022    2    3    3    0    0 -0.12317934585E+01  0.36180365766E+02  0.24001390737E+02  0.43435762204E+02  0.24999776767E+00 0.  0.
    1000022    2    1    0    0    0 -0.34539572057E+01 -0.49157842136E+02 -0.37119088419E+02  0.62500000473E+02  0.10000003515E+02 0.  0.
    3000022    2    5    5    0    0 -0.31259616645E+01 -0.49034387998E+02 -0.35726997213E+02  0.60750503424E+02  0.24998761890E+00 0.  0.
        -13    1    4    4    0    0 -0.52836570821E+00  0.15347264487E+02  0.10259127783E+02  0.18468308678E+02  0.10500000000E+00 0. -1.
         13    1    4    4    0    0 -0.70342775031E+00  0.20833101279E+02  0.13742262954E+02  0.24967453527E+02  0.10500000000E+00 0.  1.
    3000001    1    5    5    0    0 -0.32799554112E+00 -0.12345413811E+00 -0.13920912060E+01  0.17494970491E+01  0.10000000000E+01 0. -1.
        -13    1    6    6    0    0 -0.22730661802E+01 -0.35023801825E+02 -0.25507331671E+02  0.43387423501E+02  0.10500000000E+00 0.  1.
         13    1    6    6    0    0 -0.85289548437E+00 -0.14010586173E+02 -0.10219665542E+02  0.17363079923E+02  0.10500000000E+00 0. -1.
</event>
<event>
11    0  0.3485800E-009  0.9118800E+02  0.7816531E-02  0.1126479E+00
         25   -1    0    0    0    0  0.00000000000E+00  0.00000000000E+00  0.99999998245E-14  0.12500000000E+03  0.12500000000E+03 0.  0.
    3000001    1    3    3    0    0 -0.28671274943E+02 -0.97905092276E+01  0.14784879845E+02  0.33726677124E+02  0.10000000000E+01 0. -1.
    1000022    2    1    0    0    0 -0.55216952153E+02 -0.93711100606E+01  0.25875092651E+02  0.62500001557E+02  0.10000013307E+02 0.  0.
    3000022    2    3    3    0    0 -0.26545677210E+02  0.41939916700E+00  0.11090212806E+02  0.28773324433E+02  0.25000933949E+00 0.  0.
    1000022    2    1    0    0    0  0.55216952153E+02  0.93711100606E+01 -0.25875092651E+02  0.62499998443E+02  0.99999938434E+01 0.  0.
    3000022    2    5    5    0    0  0.50239491421E+02  0.90653059674E+01 -0.26241085117E+02  0.57400725754E+02  0.24999679134E+00 0.  0.
        -13    1    4    4    0    0 -0.15110358420E+02  0.27871250217E+00  0.62566308906E+01  0.16357171741E+02  0.10500000000E+00 0.  1.
         13    1    4    4    0    0 -0.11435318789E+02  0.14068666483E+00  0.48335819152E+01  0.12416152693E+02  0.10500000000E+00 0. -1.
    3000001    1    5    5    0    0  0.49774607311E+01  0.30580409325E+00  0.36599246541E+00  0.50992726891E+01  0.10000000000E+01 0. -1.
        -13    1    6    6    0    0  0.27831243960E+02  0.50637576161E+01 -0.14599252100E+02  0.31833456747E+02  0.10500000000E+00 0. -1.
         13    1    6    6    0    0  0.22408247461E+02  0.40015483512E+01 -0.11641833017E+02  0.25567269007E+02  0.10500000000E+00 0.  1.
</event>
<event>
11    0  0.3485800E-009  0.9118800E+02  0.7816531E-02  0.1126479E+00
         25   -1    0    0    0    0  0.00000000000E+00  0.00000000000E+00  0.99999998245E-14  0.12500000000E+03  0.12500000000E+03 0.  0.
    3000001    1    3    3    0    0 -0.24095501328E+02  0.52296348566E+01  0.20824599520E+02  0.32289413282E+02  0.10000000000E+01 0.  1.
    1000022    2    1    0    0    0 -0.45628474805E+02  0.68107033881E+00  0.41519011819E+02  0.62500000580E+02  0.10000008010E+02 0.  0.
    3000022    2    3    3    0    0 -0.21532973477E+02 -0.45485645178E+01  0.20694412300E+02  0.30210587297E+02  0.24999697425E+00 0.  0.
    1000022    2    1    0    0    0  0.45628474805E+02 -0.68107033881E+00 -0.41519011819E+02  0.62499999420E+02  0.10000000764E+02 0.  0.
    3000022    2    5    5    0    0  0.13944244707E+02  0.17944442219E+01 -0.75065921082E+01  0.15939680437E+02  0.24999368696E+00 0.  0.
        -13    1    4    4    0    0 -0.12685757046E+02 -0.26440316803E+01  0.12258338708E+02  0.17838083648E+02  0.10500000000E+00 0. -1.
         13    1    4    4    0    0 -0.88472164311E+01 -0.19045328375E+01  0.84360735911E+01  0.12372503649E+02  0.10500000000E+00 0.  1.
    3000001    1    5    5    0    0  0.31684230098E+02 -0.24755145607E+01 -0.34012419711E+02  0.46560318983E+02  0.10000000000E+01 0.  1.
        -13    1    6    6    0    0  0.41504387670E+01  0.57219486452E+00 -0.22656633504E+01  0.47642212730E+01  0.10500000000E+00 0.  1.
         13    1    6    6    0    0  0.97938059398E+01  0.12222493573E+01 -0.52409287579E+01  0.11175459164E+02  0.10500000000E+00 0. -1.
</event>
<event>
11    0  0.3485800E-009  0.9118800E+02  0.7816531E-02  0.1126479E+00
         25   -1    0    0    0    0  0.00000000000E+00  0.00000000000E+00  0.99999998245E-14  0.12500000000E+03  0.12500000000E+03 0.  0.
    3000001    1    3    3    0    0  0.63970963754E+01 -0.63635266136E+01 -0.27552704912E+02  0.29009806290E+02  0.10000000000E+01 0.  1.
    1000022    2    1    0    0    0  0.10248655813E+02 -0.37857866016E+01 -0.60719716765E+02  0.62499990652E+02  0.99998850616E+01 0.  0.
    3000022    2    3    3    0    0  0.38515594377E+01  0.25777400120E+01 -0.33167011853E+02  0.33490184361E+02  0.25003931402E+00 0.  0.
    1000022    2    1    0    0    0 -0.10248655813E+02  0.37857866016E+01  0.60719716765E+02  0.62500009348E+02  0.10000001918E+02 0.  0.
    3000022    2    5    5    0    0 -0.10679735299E+02  0.44237119680E+01  0.37407729978E+02  0.39153885339E+02  0.25000281514E+00 0.  0.
        -13    1    4    4    0    0  0.18145530512E+01  0.12356661908E+01 -0.15242347921E+02  0.15399989249E+02  0.10500000000E+00 0.  1.
         13    1    4    4    0    0  0.20370063866E+01  0.13420738213E+01 -0.17924663931E+02  0.18090195113E+02  0.10500000000E+00 0. -1.
    3000001    1    5    5    0    0  0.43107948622E+00 -0.63792536644E+00  0.23311986787E+02  0.23346124010E+02  0.10000000000E+01 0.  1.
        -13    1    6    6    0    0 -0.80922167195E+01  0.33624922723E+01  0.28290203948E+02  0.29616498614E+02  0.10500000000E+00 0.  1.
         13    1    6    6    0    0 -0.25875185798E+01  0.10612196957E+01  0.91175260292E+01  0.95373867247E+01  0.10500000000E+00 0. -1.
</event>
<event>
11    0  0.3485800E-009  0.9118800E+02  0.7816531E-02  0.1126479E+00
         25   -1    0    0    0    0  0.00000000000E+00  0.00000000000E+00  0.99999998245E-14  0.12500000000E+03  0.12500000000E+03 0.  0.
    3000001    1    3    3    0    0  0.16295857401E+02 -0.17649947615E+02 -0.21349526131E+02  0.32153971531E+02  0.10000000000E+01 0. -1.
    1000022    2    1    0    0    0  0.31558545084E+02 -0.40529584764E+02 -0.34171054401E+02  0.62500001338E+02  0.10000009968E+02 0.  0.
    3000022    2    3    3    0    0  0.15262687683E+02 -0.22879637149E+02 -0.12821528270E+02  0.30346029806E+02  0.25001283935E+00 0.  0.
    1000022    2    1    0    0    0 -0.31558545084E+02  0.40529584764E+02  0.34171054401E+02  0.62499998662E+02  0.99999932473E+01 0.  0.
    3000022    2    5    5    0    0 -0.40095877701E+01  0.97562704099E+01  0.37669735175E+01  0.11203312027E+02  0.25000897637E+00 0.  0.
        -13    1    4    4    0    0  0.68885212667E+01 -0.10377492190E+02 -0.58733650508E+01  0.13771401941E+02  0.10500000000E+00 0. -1.
         13    1    4    4    0    0  0.83741664163E+01 -0.12502144959E+02 -0.69481632195E+01  0.16574627865E+02  0.10500000000E+00 0.  1.
    3000001    1    5    5    0    0 -0.27548957314E+02  0.30773314354E+02  0.30404080884E+02  0.51296686636E+02  0.10000000000E+01 0.  1.
        -13    1    6    6    0    0 -0.13487992376E+01  0.31708255287E+01  0.12633967790E+01  0.36715923436E+01  0.10500000000E+00 0. -1.
         13    1    6    6    0    0 -0.26607885325E+01  0.65854448812E+01  0.25035767385E+01  0.75317196830E+01  0.10500000000E+00 0.  1.
</event>
<event>
11    0  0.3485800E-009  0.9118800E+02  0.7816531E-02  0.1126479E+00
         25   -1    0    0    0    0  0.00000000000E+00  0.00000000000E+00  0.99999998245E-14  0.12500000000E+03  0.12500000000E+03 0.  0.
    3000001    1    3    3    0    0 -0.34189347503E+02 -0.18387944635E+01 -0.94927436953E+01  0.35544406461E+02  0.10000000000E+01 0.  1.
    1000022    2    1    0    0    0 -0.60588619264E+02  0.33490155585E+01 -0.11137921918E+02  0.62500000176E+02  0.10000001388E+02 0.  0.
    3000022    2    3    3    0    0 -0.26399271761E+02  0.51878100220E+01 -0.16451782231E+01  0.26955593715E+02  0.24999763768E+00 0.  0.
    1000022    2    1    0    0    0  0.60588619264E+02 -0.33490155585E+01  0.11137921918E+02  0.62499999824E+02  0.99999991940E+01 0.  0.
    3000022    2    5    5    0    0  0.49784268776E+02 -0.26571345606E+01  0.12870503428E+02  0.51490252894E+02  0.25000594364E+00 0.  0.
        -13    1    4    4    0    0 -0.11118026692E+02  0.22475446265E+01 -0.71439101989E+00  0.11365885531E+02  0.10500000000E+00 0.  1.
         13    1    4    4    0    0 -0.15281245068E+02  0.29402653955E+01 -0.93078720324E+00  0.15589708184E+02  0.10500000000E+00 0. -1.
    3000001    1    5    5    0    0  0.10804350488E+02 -0.69188099791E+00 -0.17325815099E+01  0.11009746930E+02  0.10000000000E+01 0.  1.
        -13    1    6    6    0    0  0.29805082092E+02 -0.15953155286E+01  0.76403181355E+01  0.30810281342E+02  0.10500000000E+00 0.  1.
         13    1    6    6    0    0  0.19979186684E+02 -0.10618190320E+01  0.52301852929E+01  0.20679971552E+02  0.10500000000E+00 0. -1.
</event>
<event>
11    0  0.3485800E-009  0.9118800E+02  0.7816531E-02  0.1126479E+00
         25   -1    0    0    0    0  0.00000000000E+00  0.00000000000E+00  0.99999998245E-14  0.12500000000E+03  0.12500000000E+03 0.  0.
    3000001    1    3    3    0    0  0.17297972144E+02 -0.15246304501E+02 -0.24300614110E+02  0.33514019266E+02  0.10000000000E+01 0. -1.
    1000022    2    1    0    0    0  0.26769502777E+02 -0.35400686562E+02 -0.42853652892E+02  0.62499994345E+02  0.99999419453E+01 0.  0.
    3000022    2    3    3    0    0  0.94715306331E+01 -0.20154382061E+02 -0.18553038782E+02  0.28985975079E+02  0.24998884934E+00 0.  0.
    1000022    2    1    0    0    0 -0.26769502777E+02  0.35400686562E+02  0.42853652892E+02  0.62500005655E+02  0.10000012638E+02 0.  0.
    3000022    2    5    5    0    0 -0.36317871219E+01  0.15987364772E+01  0.14049503087E+01  0.42168978016E+01  0.25001135290E+00 0.  0.
        -13    1    4    4    0    0  0.33599004254E+01 -0.72858087110E+01 -0.66900136628E+01  0.10446973114E+02  0.10500000000E+00 0. -1.
         13    1    4    4    0    0  0.61116302076E+01 -0.12868573350E+02 -0.11863025119E+02  0.18539001965E+02  0.10500000000E+00 0.  1.
    3000001    1    5    5    0    0 -0.23137715655E+02  0.33801950084E+02  0.41448702583E+02  0.58283107854E+02  0.10000000000E+01 0. -1.
        -13    1    6    6    0    0 -0.17420696515E+01  0.70343048225E+00  0.70153262171E+00  0.20081817979E+01  0.10500000000E+00 0.  1.
         13    1    6    6    0    0 -0.18897174704E+01  0.89530599494E+00  0.70341768699E+00  0.22087160037E+01  0.10500000000E+00 0. -1.
</event>
<event>
11    0  0.3485800E-009  0.9118800E+02  0.7816531E-02  0.1126479E+00
         25   -1    0    0    0    0  0.00000000000E+00  0.00000000000E+00  0.99999998245E-14  0.12500000000E+03  0.12500000000E+03 0.  0.
    3000001    1    3    3    0    0 -0.44915322289E+02 -0.20950432954E+02  0.70911833443E+01  0.50075859439E+02  0.10000000000E+01 0.  1.
    1000022    2    1    0    0    0 -0.53180408030E+02 -0.29019743400E+02  0.11659693525E+02  0.62499997113E+02  0.99999940391E+01 0.  0.
    3000022    2    3    3    0    0 -0.82650857412E+01 -0.80693104461E+01  0.45685101808E+01  0.12424137675E+02  0.24999660387E+00 0.  0.
    1000022    2    1    0    0    0  0.53180408030E+02  0.29019743400E+02 -0.11659693525E+02  0.62500002887E+02  0.10000030121E+02 0.  0.
    3000022    2    5    5    0    0  0.26672595877E+02  0.18012343326E+02 -0.10118111622E+02  0.33738858328E+02  0.24999113786E+00 0.  0.
        -13    1    4    4    0    0 -0.62054084134E+01 -0.60919018602E+01  0.34325909127E+01  0.93494420810E+01  0.10500000000E+00 0.  1.
         13    1    4    4    0    0 -0.20596773278E+01 -0.19774085859E+01  0.11359192681E+01  0.30746955937E+01  0.10500000000E+00 0. -1.
    3000001    1    5    5    0    0  0.26507812154E+02  0.11007400074E+02 -0.15415819033E+01  0.28761144559E+02  0.10000000000E+01 0. -1.
        -13    1    6    6    0    0  0.89516661706E+01  0.60413257334E+01 -0.33387551888E+01  0.11304346733E+02  0.10500000000E+00 0.  1.
         13    1    6    6    0    0  0.17720929706E+02  0.11971017593E+02 -0.67793564330E+01  0.22434511595E+02  0.10500000000E+00 0. -1.
</event>
<event>
11    0  0.3485800E-009  0.9118800E+02  0.7816531E-02  0.1126479E+00
         25   -1    0    0    0    0  0.00000000000E+00  0.00000000000E+00  0.99999998245E-14  0.12500000000E+03  0.12500000000E+03 0.  0.
    3000001    1    3    3    0    0 -0.22904717513E+02  0.29001514961E+02  0.16228357895E+02  0.40374169395E+02  0.10000000000E+01 0.  1.
    1000022    2    1    0    0    0 -0.36709343708E+02  0.39515191913E+02  0.29953692325E+02  0.62500000858E+02  0.10000005799E+02 0.  0.
    3000022    2    3    3    0    0 -0.13804626195E+02  0.10513676952E+02  0.13725334430E+02  0.22125831463E+02  0.25001054959E+00 0.  0.
    1000022    2    1    0    0    0  0.36709343708E+02 -0.39515191913E+02 -0.29953692325E+02  0.62499999142E+02  0.99999950752E+01 0.  0.
    3000022    2    5    5    0    0  0.34693039997E+02 -0.35341777367E+02 -0.24437284279E+02  0.55225823769E+02  0.24999277405E+00 0.  0.
        -13    1    4    4    0    0 -0.99348385354E+01  0.75323198087E+01  0.98229415185E+01  0.15872556930E+02  0.10500000000E+00 0.  1.
         13    1    4    4    0    0 -0.38697876597E+01  0.29813571429E+01  0.39023929117E+01  0.62532745328E+01  0.10500000000E+00 0. -1.
    3000001    1    5    5    0    0  0.20163037112E+01 -0.41734145460E+01 -0.55164080460E+01  0.72741753731E+01  0.10000000000E+01 0. -1.
        -13    1    6    6    0    0  0.17853640073E+02 -0.18099137345E+02 -0.12514047995E+02  0.28336260493E+02  0.10500000000E+00 0.  1.
         13    1    6    6    0    0  0.16839399924E+02 -0.17242640021E+02 -0.11923236284E+02  0.26889563276E+02  0.10500000000E+00 0. -1.
</event>
<event>
11    0  0.3485800E-009  0.9118800E+02  0.7816531E-02  0.1126479E+00
         25   -1    0    0    0    0  0.00000000000E+00  0.00000000000E+00  0.99999998245E-14  0.12500000000E+03  0.12500000000E+03 0.  0.
    3000001    1    3    3    0    0 -0.26752853507E+02  0.37494359714E+02  0.43012528546E+01  0.46271405395E+02  0.10000000000E+01 0. -1.
    1000022    2    1    0    0    0 -0.36294838886E+02  0.48589985453E+02  0.11311414983E+02  0.62499999527E+02  0.99999907944E+01 0.  0.
    3000022    2    3    3    0    0 -0.95419853791E+01  0.11095625739E+02  0.70101621288E+01  0.16228594132E+02  0.24999782587E+00 0.  0.
    1000022    2    1    0    0    0  0.36294838886E+02 -0.48589985453E+02 -0.11311414983E+02  0.62500000473E+02  0.99999967067E+01 0.  0.
    3000022    2    5    5    0    0  0.34288122409E+02 -0.48191967192E+02 -0.10429863760E+02  0.60058185142E+02  0.25000846042E+00 0.  0.
        -13    1    4    4    0    0 -0.67519639997E+01  0.78664082191E+01  0.50123901891E+01  0.11515401709E+02  0.10500000000E+00 0.  1.
         13    1    4    4    0    0 -0.27900213794E+01  0.32292175195E+01  0.19977719397E+01  0.47131924222E+01  0.10500000000E+00 0.  1.
    3000001    1    5    5    0    0  0.20067164766E+01 -0.39801826061E+00 -0.88155122352E+00  0.24418153314E+01  0.10000000000E+01 0.  1.
        -13    1    6    6    0    0  0.25099679940E+02 -0.35227339641E+02 -0.76481158608E+01  0.43925665532E+02  0.10500000000E+00 0. -1.
         13    1    6    6    0    0  0.91884424694E+01 -0.12964627552E+02 -0.27817478991E+01  0.16132519609E+02  0.10500000000E+00 0.  1.
</event>
<event>
11    0  0.3485800E-009  0.9118800E+02  0.7816531E-02  0.1126479E+00
         25   -1    0    0    0    0  0.00000000000E+00  0.00000000000E+00  0.99999998245E-14  0.12500000000E+03  0.12500000000E+03 0.  0.
    3000001    1    3    3    0    0  0.16190141975E+02 -0.82500416115E+00  0.21810701096E+02  0.27193896582E+02  0.10000000000E+01 0. -1.
    1000022    2    1    0    0    0  0.37674430011E+02 -0.12745254401E+02  0.47164032511E+02  0.62499999638E+02  0.99999902833E+01 0.  0.
    3000022    2    3    3    0    0  0.21484288036E+02 -0.11920250239E+02  0.25353331415E+02  0.35306103056E+02  0.25000190276E+00 0.  0.
    1000022    2    1    0    0    0 -0.37674430011E+02  0.12745254401E+02 -0.47164032511E+02  0.62500000362E+02  0.99999948048E+01 0.  0.
    3000022    2    5    5    0    0 -0.12652560340E+02  0.78521529533E+01 -0.22712911065E+02  0.27160309593E+02  0.24999802821E+00 0.  0.
        -13    1    4    4    0    0  0.14944768226E+02 -0.82401125748E+01  0.17590210599E+02  0.24508612497E+02  0.10500000000E+00 0.  1.
         13    1    4    4    0    0  0.65395198100E+01 -0.36801376647E+01  0.77631208162E+01  0.10797490560E+02  0.10500000000E+00 0. -1.
    3000001    1    5    5    0    0 -0.25021869671E+02  0.48931014472E+01 -0.24451121447E+02  0.35339690768E+02  0.10000000000E+01 0.  1.
        -13    1    6    6    0    0 -0.62707105597E+01  0.38506922867E+01 -0.11117662698E+02  0.13332782563E+02  0.10500000000E+00 0. -1.
         13    1    6    6    0    0 -0.63818497804E+01  0.40014606666E+01 -0.11595248367E+02  0.13827527030E+02  0.10500000000E+00 0.  1.
</event>
<event>
11    0  0.3485800E-009  0.9118800E+02  0.7816531E-02  0.1126479E+00
         25   -1    0    0    0    0  0.00000000000E+00  0.00000000000E+00  0.99999998245E-14  0.12500000000E+03  0.12500000000E+03 0.  0.
    3000001    1    3    3    0    0 -0.62928865063E+01 -0.95654104259E+01  0.30438955180E+02  0.32536556204E+02  0.10000000000E+01 0.  1.
    1000022    2    1    0    0    0 -0.19140013985E+02 -0.22897149880E+02  0.53996577352E+02  0.62500000946E+02  0.10000007226E+02 0.  0.
    3000022    2    3    3    0    0 -0.12847127479E+02 -0.13331739454E+02  0.23557622172E+02  0.29963444741E+02  0.24999407617E+00 0.  0.
    1000022    2    1    0    0    0  0.19140013985E+02  0.22897149880E+02 -0.53996577352E+02  0.62499999054E+02  0.99999954037E+01 0.  0.
    3000022    2    5    5    0    0  0.19342727487E+02  0.17839378502E+02 -0.45101296720E+02  0.52216606540E+02  0.25000155576E+00 0.  0.
        -13    1    4    4    0    0 -0.71588759320E+01 -0.75047522647E+01  0.13131555193E+02  0.16733785524E+02  0.10500000000E+00 0. -1.
         13    1    4    4    0    0 -0.56882515471E+01 -0.58269871893E+01  0.10426066978E+02  0.13229659217E+02  0.10500000000E+00 0.  1.
    3000001    1    5    5    0    0 -0.20271350188E+00  0.50577713777E+01 -0.88952806322E+01  0.10283392514E+02  0.10000000000E+01 0.  1.
        -13    1    6    6    0    0  0.47188981180E+01  0.43233637195E+01 -0.10959375385E+02  0.12691666838E+02  0.10500000000E+00 0. -1.
         13    1    6    6    0    0  0.14623829369E+02  0.13516014783E+02 -0.34141921335E+02  0.39524939702E+02  0.10500000000E+00 0.  1.
</event>
<event>
11    0  0.3485800E-009  0.9118800E+02  0.7816531E-02  0.1126479E+00
         25   -1    0    0    0    0  0.00000000000E+00  0.00000000000E+00  0.99999998245E-14  0.12500000000E+03  0.12500000000E+03 0.  0.
    3000001    1    3    3    0    0 -0.84808166772E+00  0.10664175772E+02  0.16840076960E+02  0.19975787330E+02  0.10000000000E+01 0.  1.
    1000022    2    1    0    0    0 -0.15544094731E+02  0.36529301219E+02  0.47225425224E+02  0.62500008562E+02  0.10000077701E+02 0.  0.
    3000022    2    3    3    0    0 -0.14696013064E+02  0.25865125448E+02  0.30385348264E+02  0.42524221232E+02  0.24997582074E+00 0.  0.
    1000022    2    1    0    0    0  0.15544094731E+02 -0.36529301219E+02 -0.47225425224E+02  0.62499991438E+02  0.99999706768E+01 0.  0.
    3000022    2    5    5    0    0  0.15620528742E+02 -0.27029784061E+02 -0.38451585215E+02  0.49529758714E+02  0.24989633320E+00 0.  0.
        -13    1    4    4    0    0 -0.91999425108E+01  0.16306522130E+02  0.19096417934E+02  0.26743705972E+02  0.10500000000E+00 0. -1.
         13    1    4    4    0    0 -0.54960705528E+01  0.95586033173E+01  0.11288930330E+02  0.15780515261E+02  0.10500000000E+00 0.  1.
    3000001    1    5    5    0    0 -0.76434010370E-01 -0.94995171586E+01 -0.87738400091E+01  0.12970232724E+02  0.10000000000E+01 0.  1.
        -13    1    6    6    0    0  0.86108566889E+01 -0.14961609889E+02 -0.21168411802E+02  0.27315001494E+02  0.10500000000E+00 0. -1.
         13    1    6    6    0    0  0.70096720527E+01 -0.12068174172E+02 -0.17283173413E+02  0.22214757220E+02  0.10500000000E+00 0.  1.
</event>
<event>
11    0  0.3485800E-009  0.9118800E+02  0.7816531E-02  0.1126479E+00
         25   -1    0    0    0    0  0.00000000000E+00  0.00000000000E+00  0.99999998245E-14  0.12500000000E+03  0.12500000000E+03 0.  0.
    3000001    1    3    3    0    0 -0.10981956470E+01  0.28367612221E+00 -0.11474892650E+02  0.11574094658E+02  0.10000000000E+01 0.  1.
    1000022    2    1    0    0    0 -0.25469268470E+02  0.21204351492E+01 -0.56152206431E+02  0.62499999022E+02  0.99999854484E+01 0.  0.
    3000022    2    3    3    0    0 -0.24371072823E+02  0.18367590270E+01 -0.44677313782E+02  0.50925904364E+02  0.24998854724E+00 0.  0.
    1000022    2    1    0    0    0  0.25469268470E+02 -0.21204351492E+01  0.56152206431E+02  0.62500000978E+02  0.99999976778E+01 0.  0.
    3000022    2    5    5    0    0  0.20638451691E+02 -0.27177036029E+01  0.34581170605E+02  0.40363987178E+02  0.24999879491E+00 0.  0.
        -13    1    4    4    0    0 -0.88091920881E+01  0.71987950908E+00 -0.16192805054E+02  0.18448253366E+02  0.10500000000E+00 0. -1.
         13    1    4    4    0    0 -0.15561880735E+02  0.11168795179E+01 -0.28484508728E+02  0.32477650998E+02  0.10500000000E+00 0.  1.
    3000001    1    5    5    0    0  0.48308167791E+01  0.59726845372E+00  0.21571035826E+02  0.22136013800E+02  0.10000000000E+01 0. -1.
        -13    1    6    6    0    0  0.90772118441E+01 -0.11331141678E+01  0.15242578504E+02  0.17777146763E+02  0.10500000000E+00 0. -1.
         13    1    6    6    0    0  0.11561239847E+02 -0.15845894351E+01  0.19338592101E+02  0.22586840415E+02  0.10500000000E+00 0.  1.
</event>
<event>
11    0  0.3485800E-009  0.9118800E+02  0.7816531E-02  0.1126479E+00
         25   -1    0    0    0    0  0.00000000000E+00  0.00000000000E+00  0.99999998245E-14  0.12500000000E+03  0.12500000000E+03 0.  0.
    3000001    1    3    3    0    0 -0.14403523291E+02 -0.35915248675E+02 -0.22725700136E+02  0.44886791122E+02  0.10000000000E+01 0. -1.
    1000022    2    1    0    0    0 -0.16879315766E+02 -0.47086709423E+02 -0.36113438947E+02  0.62500000259E+02  0.10000002735E+02 0.  0.
    3000022    2    3    3    0    0 -0.24757924746E+01 -0.11171460748E+02 -0.13387738811E+02  0.17613209136E+02  0.25000394488E+00 0.  0.
    1000022    2    1    0    0    0  0.16879315766E+02  0.47086709423E+02  0.36113438947E+02  0.62499999741E+02  0.99999995025E+01 0.  0.
    3000022    2    5    5    0    0  0.20896278133E+01  0.15566740057E+02  0.74241832623E+01  0.17374433481E+02  0.25000253725E+00 0.  0.
        -13    1    4    4    0    0 -0.92875753593E+00 -0.39592015007E+01 -0.47155275750E+01  0.62277678501E+01  0.10500000000E+00 0. -1.
         13    1    4    4    0    0 -0.15470349387E+01 -0.72122592477E+01 -0.86722112364E+01  0.11385441286E+02  0.10500000000E+00 0.  1.
    3000001    1    5    5    0    0  0.14789687952E+02  0.31519969366E+02  0.28689255685E+02  0.45125566261E+02  0.10000000000E+01 0. -1.
        -13    1    6    6    0    0  0.13276046506E+01  0.99983129575E+01  0.48291533377E+01  0.11183047128E+02  0.10500000000E+00 0.  1.
         13    1    6    6    0    0  0.76202316274E+00  0.55684270995E+01  0.25950299245E+01  0.61913863530E+01  0.10500000000E+00 0. -1.
</event>
<event>
11    0  0.3485800E-009  0.9118800E+02  0.7816531E-02  0.1126479E+00
         25   -1    0    0    0    0  0.00000000000E+00  0.00000000000E+00  0.99999998245E-14  0.12500000000E+03  0.12500000000E+03 0.  0.
    3000001    1    3    3    0    0 -0.84756195223E+01 -0.71349792845E+01  0.16826847299E+02  0.20171436381E+02  0.10000000000E+01 0. -1.
    1000022    2    1    0    0    0 -0.32829825942E+02 -0.30331222790E+02  0.42526102398E+02  0.62500000005E+02  0.10000003406E+02 0.  0.
    3000022    2    3    3    0    0 -0.24354206420E+02 -0.23196243505E+02  0.25699255099E+02  0.42328563623E+02  0.25000532256E+00 0.  0.
    1000022    2    1    0    0    0  0.32829825942E+02  0.30331222790E+02 -0.42526102398E+02  0.62499999995E+02  0.10000003347E+02 0.  0.
    3000022    2    5    5    0    0  0.62138121507E+01  0.68853418044E+01 -0.14802218827E+02  0.17469618633E+02  0.24999959233E+00 0.  0.
        -13    1    4    4    0    0 -0.62742370932E+01 -0.59761785801E+01  0.65828731540E+01  0.10882371317E+02  0.10500000000E+00 0.  1.
         13    1    4    4    0    0 -0.18079969327E+02 -0.17220064925E+02  0.19116381945E+02  0.31446192306E+02  0.10500000000E+00 0. -1.
    3000001    1    5    5    0    0  0.26616013792E+02  0.23445880985E+02 -0.27723883571E+02  0.45030381362E+02  0.10000000000E+01 0. -1.
        -13    1    6    6    0    0  0.25322090249E+01  0.28920261258E+01 -0.61886965254E+01  0.72860748927E+01  0.10500000000E+00 0. -1.
         13    1    6    6    0    0  0.36816031259E+01  0.39933156786E+01 -0.86135223013E+01  0.10183543741E+02  0.10500000000E+00 0.  1.
</event>
<event>
11    0  0.3485800E-009  0.9118800E+02  0.7816531E-02  0.1126479E+00
         25   -1    0    0    0    0  0.00000000000E+00  0.00000000000E+00  0.99999998245E-14  0.12500000000E+03  0.12500000000E+03 0.  0.
    3000001    1    3    3    0    0  0.74043906290E+00 -0.99964243748E+01  0.27837882757E+01  0.10451135223E+02  0.10000000000E+01 0. -1.
    1000022    2    1    0    0    0 -0.17020935592E+02 -0.57002273327E+02  0.16348655922E+02  0.62500000719E+02  0.10000006325E+02 0.  0.
    3000022    2    3    3    0    0 -0.17761374655E+02 -0.47005848952E+02  0.13564867647E+02  0.52048865496E+02  0.24999953466E+00 0.  0.
    1000022    2    1    0    0    0  0.17020935592E+02  0.57002273327E+02 -0.16348655922E+02  0.62499999281E+02  0.99999973406E+01 0.  0.
    3000022    2    5    5    0    0  0.78365002026E+01  0.41623372221E+02 -0.12350572967E+02  0.44119326825E+02  0.24999267947E+00 0.  0.
        -13    1    4    4    0    0 -0.10748411269E+02 -0.28377743959E+02  0.82515306531E+01  0.31447153769E+02  0.10500000000E+00 0. -1.
         13    1    4    4    0    0 -0.70129633860E+01 -0.18628104993E+02  0.53133369936E+01  0.20601711727E+02  0.10500000000E+00 0.  1.
    3000001    1    5    5    0    0  0.91844353894E+01  0.15378901106E+02 -0.39980829552E+01  0.18380672457E+02  0.10000000000E+01 0. -1.
        -13    1    6    6    0    0  0.46674456169E+01  0.24959457274E+02 -0.74614068081E+01  0.26465886959E+02  0.10500000000E+00 0.  1.
         13    1    6    6    0    0  0.31690545858E+01  0.16663914948E+02 -0.48891661591E+01  0.17653439866E+02  0.10500000000E+00 0. -1.
</event>
<event>
11    0  0.3485800E-009  0.9118800E+02  0.7816531E-02  0.1126479E+00
         25   -1    0    0    0    0  0.00000000000E+00  0.00000000000E+00  0.99999998245E-14  0.12500000000E+03  0.12500000000E+03 0.  0.
    3000001    1    3    3    0    0 -0.86261433599E+01 -0.17240245338E+02  0.36750777891E+01  0.19650511579E+02  0.10000000000E+01 0. -1.
    1000022    2    1    0    0    0 -0.39147261692E+02 -0.46245090831E+02  0.11624704489E+02  0.62500001528E+02  0.99999956306E+01 0.  0.
    3000022    2    3    3    0    0 -0.30521118332E+02 -0.29004845493E+02  0.79496266996E+01  0.42849489949E+02  0.24999576388E+00 0.  0.
    1000022    2    1    0    0    0  0.39147261692E+02  0.46245090831E+02 -0.11624704489E+02  0.62499998472E+02  0.99999765312E+01 0.  0.
    3000022    2    5    5    0    0  0.32126705386E+02  0.40541581933E+02 -0.12895195951E+02  0.53311289469E+02  0.24988322481E+00 0.  0.
        -13    1    4    4    0    0 -0.13604856630E+02 -0.12846038442E+02  0.35614311236E+01  0.19047510185E+02  0.10500000000E+00 0.  1.
         13    1    4    4    0    0 -0.16916261702E+02 -0.16158807051E+02  0.43881955760E+01  0.23801979764E+02  0.10500000000E+00 0. -1.
    3000001    1    5    5    0    0  0.70205563056E+01  0.57035088985E+01  0.12704914622E+01  0.91887090035E+01  0.10000000000E+01 0. -1.
        -13    1    6    6    0    0  0.20759045831E+02  0.26109679244E+02 -0.82954774484E+01  0.34372653449E+02  0.10500000000E+00 0.  1.
         13    1    6    6    0    0  0.11367659555E+02  0.14431902689E+02 -0.45997185026E+01  0.18938636020E+02  0.10500000000E+00 0. -1.
</event>
<event>
11    0  0.3485800E-009  0.9118800E+02  0.7816531E-02  0.1126479E+00
         25   -1    0    0    0    0  0.00000000000E+00  0.00000000000E+00  0.99999998245E-14  0.12500000000E+03  0.12500000000E+03 0.  0.
    3000001    1    3    3    0    0 -0.88344347173E+01  0.36749039375E+02  0.18755692816E+02  0.42205629302E+02  0.10000000000E+01 0. -1.
    1000022    2    1    0    0    0 -0.18356504804E+02  0.50649388432E+02  0.30065398682E+02  0.62499999828E+02  0.99999981703E+01 0.  0.
    3000022    2    3    3    0    0 -0.95220700867E+01  0.13900349057E+02  0.11309705866E+02  0.20294370526E+02  0.25001125021E+00 0.  0.
    1000022    2    1    0    0    0  0.18356504804E+02 -0.50649388432E+02 -0.30065398682E+02  0.62500000172E+02  0.10000000321E+02 0.  0.
    3000022    2    5    5    0    0  0.10739174694E+01 -0.13310904968E+02 -0.47232415314E+01  0.14167039354E+02  0.25000738991E+00 0.  0.
        -13    1    4    4    0    0 -0.68918246985E+01  0.99915726700E+01  0.81544075208E+01  0.14623069415E+02  0.10500000000E+00 0. -1.
         13    1    4    4    0    0 -0.26302453882E+01  0.39087763872E+01  0.31552983449E+01  0.56713011110E+01  0.10500000000E+00 0.  1.
    3000001    1    5    5    0    0  0.17282587335E+02 -0.37338483464E+02 -0.25342157151E+02  0.48332960818E+02  0.10000000000E+01 0. -1.
        -13    1    6    6    0    0  0.50359676508E+00 -0.54466910831E+01 -0.19343078981E+01  0.58028118616E+01  0.10500000000E+00 0. -1.
         13    1    6    6    0    0  0.57032070430E+00 -0.78642138850E+01 -0.27889336333E+01  0.83642274925E+01  0.10500000000E+00 0.  1.
</event>
<event>
11    0  0.3485800E-009  0.9118800E+02  0.7816531E-02  0.1126479E+00
         25   -1    0    0    0    0  0.00000000000E+00  0.00000000000E+00  0.99999998245E-14  0.12500000000E+03  0.12500000000E+03 0.  0.
    3000001    1    3    3    0    0  0.12759383366E+02 -0.68401938245E+01 -0.40453347280E+01  0.15065020694E+02  0.10000000000E+01 0. -1.
    1000022    2    1    0    0    0  0.54919404706E+02 -0.28105009153E+02  0.46630157913E+00  0.62499998673E+02  0.99999922105E+01 0.  0.
    3000022    2    3    3    0    0  0.42160021340E+02 -0.21264815328E+02  0.45116363071E+01  0.47434977979E+02  0.25000678404E+00 0.  0.
    1000022    2    1    0    0    0 -0.54919404706E+02  0.28105009153E+02 -0.46630157913E+00  0.62500001327E+02  0.10000008797E+02 0.  0.
    3000022    2    5    5    0    0 -0.41540718761E+02  0.18131832748E+02  0.30083656375E+01  0.45425845491E+02  0.25000167343E+00 0.  0.
        -13    1    4    4    0    0  0.29680727586E+02 -0.14999589513E+02  0.31409779735E+01  0.33403742952E+02  0.10500000000E+00 0. -1.
         13    1    4    4    0    0  0.12479293754E+02 -0.62652258154E+01  0.13706583336E+01  0.14031235027E+02  0.10500000000E+00 0.  1.
    3000001    1    5    5    0    0 -0.13378685946E+02  0.99731764053E+01 -0.34746672166E+01  0.17074155836E+02  0.10000000000E+01 0. -1.
        -13    1    6    6    0    0 -0.14354389035E+02  0.62923244422E+01  0.10904511906E+01  0.15711204290E+02  0.10500000000E+00 0.  1.
         13    1    6    6    0    0 -0.27186329726E+02  0.11839508305E+02  0.19179144469E+01  0.29714641201E+02  0.10500000000E+00 0. -1.
</event>
<event>
11    0  0.3485800E-009  0.9118800E+02  0.7816531E-02  0.1126479E+00
         25   -1    0    0    0    0  0.00000000000E+00  0.00000000000E+00  0.99999998245E-14  0.12500000000E+03  0.12500000000E+03 0.  0.
    3000001    1    3    3    0    0 -0.28734842709E+02  0.39866382467E+01 -0.45497511682E+02  0.53968583818E+02  0.10000000000E+01 0. -1.
    1000022    2    1    0    0    0 -0.35964338538E+02  0.35669500675E+01 -0.50000935110E+02  0.62500000957E+02  0.99999914250E+01 0.  0.
    3000022    2    3    3    0    0 -0.72294958292E+01 -0.41968817918E+00 -0.45034234280E+01  0.85314171396E+01  0.25001545160E+00 0.  0.
    1000022    2    1    0    0    0  0.35964338538E+02 -0.35669500675E+01  0.50000935110E+02  0.62499999043E+02  0.99999794596E+01 0.  0.
    3000022    2    5    5    0    0  0.33915073589E+02 -0.10005391584E+01  0.46801262990E+02  0.57807041184E+02  0.24999570528E+00 0.  0.
        -13    1    4    4    0    0 -0.32381542856E+01 -0.12387792160E+00 -0.19935883483E+01  0.38061014725E+01  0.10500000000E+00 0.  1.
         13    1    4    4    0    0 -0.39913415436E+01 -0.29581025757E+00 -0.25098350797E+01  0.47253156671E+01  0.10500000000E+00 0. -1.
    3000001    1    5    5    0    0  0.20492649489E+01 -0.25664109091E+01  0.31996721199E+01  0.46929578583E+01  0.10000000000E+01 0.  1.
        -13    1    6    6    0    0  0.25723192671E+02 -0.75437423595E+00  0.35530273436E+02  0.43870982177E+02  0.10500000000E+00 0. -1.
         13    1    6    6    0    0  0.81918809178E+01 -0.24616492245E+00  0.11270989554E+02  0.13936059008E+02  0.10500000000E+00 0.  1.
</event>
<event>
11    0  0.3485800E-009  0.9118800E+02  0.7816531E-02  0.1126479E+00
         25   -1    0    0    0    0  0.00000000000E+00  0.00000000000E+00  0.99999998245E-14  0.12500000000E+03  0.12500000000E+03 0.  0.
    3000001    1    3    3    0    0  0.11282363983E+02  0.68864549768E+01 -0.31060210420E+02  0.33770574033E+02  0.10000000000E+01 0.  1.
    1000022    2    1    0    0    0  0.18334652248E+02  0.21149180362E+02 -0.54980020820E+02  0.62500000193E+02  0.10000001588E+02 0.  0.
    3000022    2    3    3    0    0  0.70522882652E+01  0.14262725385E+02 -0.23919810400E+02  0.28729426161E+02  0.24998548797E+00 0.  0.
    1000022    2    1    0    0    0 -0.18334652248E+02 -0.21149180362E+02  0.54980020820E+02  0.62499999807E+02  0.99999991710E+01 0.  0.
    3000022    2    5    5    0    0 -0.86753256919E+01 -0.15896493251E+02  0.27983502173E+02  0.33333146523E+02  0.24997943256E+00 0.  0.
        -13    1    4    4    0    0  0.51255541574E+01  0.10314444951E+02 -0.17258435878E+02  0.20749065377E+02  0.10500000000E+00 0. -1.
         13    1    4    4    0    0  0.19267341078E+01  0.39482804337E+01 -0.66613745228E+01  0.79803607837E+01  0.10500000000E+00 0.  1.
    3000001    1    5    5    0    0 -0.96593265566E+01 -0.52526871104E+01  0.26996518647E+02  0.29166853284E+02  0.10000000000E+01 0. -1.
        -13    1    6    6    0    0 -0.24622278995E+01 -0.45145581284E+01  0.80226698520E+01  0.95298508843E+01  0.10500000000E+00 0. -1.
         13    1    6    6    0    0 -0.62130977923E+01 -0.11381935123E+02  0.19960832321E+02  0.23803295639E+02  0.10500000000E+00 0.  1.
</event>
<event>
11    0  0.3485800E-009  0.9118800E+02  0.7816531E-02  0.1126479E+00
         25   -1    0    0    0    0  0.00000000000E+00  0.00000000000E+00  0.99999998245E-14  0.12500000000E+03  0.12500000000E+03 0.  0.
    3000001    1    3    3    0    0 -0.12803505132E+02 -0.24638775369E+02 -0.86540266851E+01  0.29101394696E+02  0.10000000000E+01 0. -1.
    1000022    2    1    0    0    0 -0.33243431320E+02 -0.51022071998E+02 -0.98930672508E+01  0.62499997150E+02  0.99999653622E+01 0.  0.
    3000022    2    3    3    0    0 -0.20439926188E+02 -0.26383296628E+02 -0.12390405657E+01  0.33398602454E+02  0.25000165140E+00 0.  0.
    1000022    2    1    0    0    0  0.33243431320E+02  0.51022071998E+02  0.98930672508E+01  0.62500002850E+02  0.10000000985E+02 0.  0.
    3000022    2    5    5    0    0  0.76467843556E+01  0.11025333488E+02  0.64202515576E+01  0.14876606540E+02  0.25000515548E+00 0.  0.
        -13    1    4    4    0    0 -0.11652202434E+02 -0.15066718738E+02 -0.64360801420E+00  0.19057940376E+02  0.10500000000E+00 0. -1.
         13    1    4    4    0    0 -0.87877237544E+01 -0.11316577890E+02 -0.59543255149E+00  0.14340662079E+02  0.10500000000E+00 0.  1.
    3000001    1    5    5    0    0  0.25596646965E+02  0.39996738510E+02  0.34728156932E+01  0.47623396310E+02  0.10000000000E+01 0. -1.
        -13    1    6    6    0    0  0.37993552716E+01  0.55726399359E+01  0.31815506160E+01  0.74580631304E+01  0.10500000000E+00 0. -1.
         13    1    6    6    0    0  0.38474290840E+01  0.54526935523E+01  0.32387009416E+01  0.74185434096E+01  0.10500000000E+00 0.  1.
</event>
<event>
11    0  0.3485800E-009  0.9118800E+02  0.7816531E-02  0.1126479E+00
         25   -1    0    0    0    0  0.00000000000E+00  0.00000000000E+00  0.99999998245E-14  0.12500000000E+03  0.12500000000E+03 0.  0.
    3000001    1    3    3    0    0 -0.21514089885E+02  0.38325605056E+02  0.28986237383E+02  0.52658427854E+02  0.10000000000E+01 0. -1.
    1000022    2    1    0    0    0 -0.21552776996E+02  0.46937443649E+02  0.33743210568E+02  0.62499999984E+02  0.99999962997E+01 0.  0.
    3000022    2    3    3    0    0 -0.38687111339E-01  0.86118385926E+01  0.47569731853E+01  0.98415721293E+01  0.24997490276E+00 0.  0.
    1000022    2    1    0    0    0  0.21552776996E+02 -0.46937443649E+02 -0.33743210568E+02  0.62500000016E+02  0.99999965036E+01 0.  0.
    3000022    2    5    5    0    0  0.17335845841E+02 -0.33189222320E+02 -0.28874603465E+02  0.47284894588E+02  0.25000338612E+00 0.  0.
        -13    1    4    4    0    0  0.37844908522E-01  0.44175255932E+01  0.23994187152E+01  0.50283396638E+01  0.10500000000E+00 0. -1.
         13    1    4    4    0    0 -0.76532019861E-01  0.41943129994E+01  0.23575544701E+01  0.48132324655E+01  0.10500000000E+00 0.  1.
    3000001    1    5    5    0    0  0.42169311551E+01 -0.13748221329E+02 -0.48686071026E+01  0.15215105428E+02  0.10000000000E+01 0. -1.
        -13    1    6    6    0    0  0.57474110850E+01 -0.10960080194E+02 -0.96054625525E+01  0.15666270389E+02  0.10500000000E+00 0.  1.
         13    1    6    6    0    0  0.11588434756E+02 -0.22229142126E+02 -0.19269140913E+02  0.31618624199E+02  0.10500000000E+00 0. -1.
</event>
<event>
11    0  0.3485800E-009  0.9118800E+02  0.7816531E-02  0.1126479E+00
         25   -1    0    0    0    0  0.00000000000E+00  0.00000000000E+00  0.99999998245E-14  0.12500000000E+03  0.12500000000E+03 0.  0.
    3000001    1    3    3    0    0 -0.29139841304E+00  0.38739564906E+02 -0.13634234472E+02  0.41082005207E+02  0.10000000000E+01 0. -1.
    1000022    2    1    0    0    0 -0.15700931991E+01  0.55491648840E+02 -0.26915825216E+02  0.62500000634E+02  0.10000007428E+02 0.  0.
    3000022    2    3    3    0    0 -0.12786947861E+01  0.16752083934E+02 -0.13281590744E+02  0.21417995427E+02  0.24999790584E+00 0.  0.
    1000022    2    1    0    0    0  0.15700931991E+01 -0.55491648840E+02  0.26915825216E+02  0.62499999366E+02  0.99999995018E+01 0.  0.
    3000022    2    5    5    0    0 -0.22670675896E+00 -0.41669336556E+00 -0.67830530471E+00  0.86465845013E+00  0.25001366666E+00 0.  0.
        -13    1    4    4    0    0 -0.51257743228E+00  0.73590168733E+01 -0.58882207559E+01  0.94392814152E+01  0.10500000000E+00 0. -1.
         13    1    4    4    0    0 -0.76611735378E+00  0.93930670605E+01 -0.73933699883E+01  0.11978714012E+02  0.10500000000E+00 0.  1.
    3000001    1    5    5    0    0  0.17967999581E+01 -0.55074955475E+02  0.27594130521E+02  0.61635340916E+02  0.10000000000E+01 0. -1.
        -13    1    6    6    0    0 -0.13570675680E+00 -0.24436269676E+00 -0.49109331790E+00  0.57474089666E+00  0.10500000000E+00 0.  1.
         13    1    6    6    0    0 -0.91000002163E-01 -0.17233066880E+00 -0.18721198681E+00  0.28991755347E+00  0.10500000000E+00 0.  1.
</event>
<event>
11    0  0.3485800E-009  0.9118800E+02  0.7816531E-02  0.1126479E+00
         25   -1    0    0    0    0  0.00000000000E+00  0.00000000000E+00  0.99999998245E-14  0.12500000000E+03  0.12500000000E+03 0.  0.
    3000001    1    3    3    0    0  0.84908099833E+01 -0.33798174267E+00 -0.43956789858E+02  0.44781775986E+02  0.10000000000E+01 0. -1.
    1000022    2    1    0    0    0  0.71969705708E+01 -0.46203221456E+01 -0.61099150745E+02  0.62500000726E+02  0.10000005341E+02 0.  0.
    3000022    2    3    3    0    0 -0.12938394125E+01 -0.42823404029E+01 -0.17142360888E+02  0.17718224740E+02  0.24998279328E+00 0.  0.
    1000022    2    1    0    0    0 -0.71969705708E+01  0.46203221456E+01  0.61099150745E+02  0.62499999274E+02  0.99999962667E+01 0.  0.
    3000022    2    5    5    0    0 -0.61207011051E+01 -0.19390579927E+01  0.28576304239E+02  0.29289769395E+02  0.24999864704E+00 0.  0.
        -13    1    4    4    0    0 -0.63359258924E+00 -0.22449299564E+01 -0.87288653434E+01  0.90357769595E+01  0.10500000000E+00 0.  1.
         13    1    4    4    0    0 -0.66024682322E+00 -0.20374104465E+01 -0.84134955441E+01  0.86824477808E+01  0.10500000000E+00 0. -1.
    3000001    1    5    5    0    0 -0.10762694657E+01  0.65593801382E+01  0.32522846506E+02  0.33210229879E+02  0.10000000000E+01 0. -1.
        -13    1    6    6    0    0 -0.44940106939E+01 -0.13912795269E+01  0.21002053596E+02  0.21522757051E+02  0.10500000000E+00 0. -1.
         13    1    6    6    0    0 -0.16266904112E+01 -0.54777846579E+00  0.75742506430E+01  0.77670123436E+01  0.10500000000E+00 0.  1.
</event>
<event>
11    0  0.3485800E-009  0.9118800E+02  0.7816531E-02  0.1126479E+00
         25   -1    0    0    0    0  0.00000000000E+00  0.00000000000E+00  0.99999998245E-14  0.12500000000E+03  0.12500000000E+03 0.  0.
    3000001    1    3    3    0    0  0.15998821582E+02  0.95161862138E+01 -0.17492701137E+02  0.25563933288E+02  0.10000000000E+01 0.  1.
    1000022    2    1    0    0    0  0.36383409402E+02  0.13020163749E+02 -0.48093376503E+02  0.62500000987E+02  0.10000005803E+02 0.  0.
    3000022    2    3    3    0    0  0.20384587820E+02  0.35039775354E+01 -0.30600675366E+02  0.36936067699E+02  0.24997005636E+00 0.  0.
    1000022    2    1    0    0    0 -0.36383409402E+02 -0.13020163749E+02  0.48093376503E+02  0.62499999013E+02  0.99999934665E+01 0.  0.
    3000022    2    5    5    0    0 -0.16680039759E+02 -0.79184059559E+01  0.15739302940E+02  0.24263409415E+02  0.25000038081E+00 0.  0.
        -13    1    4    4    0    0  0.11085997279E+02  0.18409891092E+01 -0.16662269800E+02  0.20098030661E+02  0.10500000000E+00 0.  1.
         13    1    4    4    0    0  0.92985905407E+01  0.16629884261E+01 -0.13938405566E+02  0.16838037038E+02  0.10500000000E+00 0. -1.
    3000001    1    5    5    0    0 -0.19703369643E+02 -0.51017577932E+01  0.32354073564E+02  0.38236589598E+02  0.10000000000E+01 0.  1.
        -13    1    6    6    0    0 -0.10268016087E+02 -0.48333706046E+01  0.97379342523E+01  0.14954330953E+02  0.10500000000E+00 0.  1.
         13    1    6    6    0    0 -0.64120236725E+01 -0.30850353514E+01  0.60013686874E+01  0.93090784623E+01  0.10500000000E+00 0. -1.
</event>
<event>
11    0  0.3485800E-009  0.9118800E+02  0.7816531E-02  0.1126479E+00
         25   -1    0    0    0    0  0.00000000000E+00  0.00000000000E+00  0.99999998245E-14  0.12500000000E+03  0.12500000000E+03 0.  0.
    3000001    1    3    3    0    0 -0.24470275866E+02  0.10919307657E+02  0.84404809251E+01  0.28111695056E+02  0.10000000000E+01 0.  1.
    1000022    2    1    0    0    0 -0.56790843343E+02  0.13666156423E+02  0.19856643119E+02  0.62499999963E+02  0.10000000020E+02 0.  0.
    3000022    2    3    3    0    0 -0.32320567477E+02  0.27468487666E+01  0.11416162193E+02  0.34388304907E+02  0.24998992425E+00 0.  0.
    1000022    2    1    0    0    0  0.56790843343E+02 -0.13666156423E+02 -0.19856643119E+02  0.62500000037E+02  0.10000000482E+02 0.  0.
    3000022    2    5    5    0    0  0.13752549854E+02 -0.12095712968E+01 -0.89202234963E+00  0.13836686747E+02  0.25001208209E+00 0.  0.
        -13    1    4    4    0    0 -0.13026303171E+02  0.11699821959E+01  0.46127753451E+01  0.13868747385E+02  0.10500000000E+00 0. -1.
         13    1    4    4    0    0 -0.19294264306E+02  0.15768665707E+01  0.68033868483E+01  0.20519557522E+02  0.10500000000E+00 0.  1.
    3000001    1    5    5    0    0  0.43038293489E+02 -0.12456585126E+02 -0.18964620769E+02  0.48663313290E+02  0.10000000000E+01 0.  1.
        -13    1    6    6    0    0  0.53219696141E+01 -0.49718397752E+00 -0.29082352375E+00  0.53540784271E+01  0.10500000000E+00 0. -1.
         13    1    6    6    0    0  0.84305802402E+01 -0.71238731932E+00 -0.60119882589E+00  0.84826083199E+01  0.10500000000E+00 0.  1.
</event>
<event>
11    0  0.3485800E-009  0.9118800E+02  0.7816531E-02  0.1126479E+00
         25   -1    0    0    0    0  0.00000000000E+00  0.00000000000E+00  0.99999998245E-14  0.12500000000E+03  0.12500000000E+03 0.  0.
    3000001    1    3    3    0    0  0.19316224514E+02  0.22069666115E+02  0.25391336734E+02  0.38806013362E+02  0.10000000000E+01 0. -1.
    1000022    2    1    0    0    0  0.31615983419E+02  0.40083884657E+02  0.34640466323E+02  0.62500000720E+02  0.99999983143E+01 0.  0.
    3000022    2    3    3    0    0  0.12299758904E+02  0.18014218542E+02  0.92491295888E+01  0.23693987358E+02  0.25000003312E+00 0.  0.
    1000022    2    1    0    0    0 -0.31615983419E+02 -0.40083884657E+02 -0.34640466323E+02  0.62499999280E+02  0.99999893086E+01 0.  0.
    3000022    2    5    5    0    0 -0.28297042223E+02 -0.38242708578E+02 -0.29301959508E+02  0.55873917856E+02  0.25001535331E+00 0.  0.
        -13    1    4    4    0    0  0.47681839874E+01  0.68761787125E+01  0.35585783846E+01  0.90935096273E+01  0.10500000000E+00 0. -1.
         13    1    4    4    0    0  0.75315749169E+01  0.11138039829E+02  0.56905512041E+01  0.14600477731E+02  0.10500000000E+00 0.  1.
    3000001    1    5    5    0    0 -0.33189411959E+01 -0.18411760789E+01 -0.53385068146E+01  0.66260814231E+01  0.10000000000E+01 0.  1.
        -13    1    6    6    0    0 -0.20247677325E+02 -0.27405121209E+02 -0.20948098500E+02  0.39998036968E+02  0.10500000000E+00 0. -1.
         13    1    6    6    0    0 -0.80493648980E+01 -0.10837587370E+02 -0.83538610077E+01  0.15875880889E+02  0.10500000000E+00 0.  1.
</event>
<event>
11    0  0.3485800E-009  0.9118800E+02  0.7816531E-02  0.1126479E+00
         25   -1    0    0    0    0  0.00000000000E+00  0.00000000000E+00  0.99999998245E-14  0.12500000000E+03  0.12500000000E+03 0.  0.
    3000001    1    3    3    0    0  0.25831078959E+02  0.33902790133E+02 -0.16623660542E+02  0.45760134493E+02  0.10000000000E+01 0. -1.
    1000022    2    1    0    0    0  0.38643806158E+02  0.41564625040E+02 -0.24192737226E+02  0.62500000362E+02  0.99999850815E+01 0.  0.
    3000022    2    3    3    0    0  0.12812727200E+02  0.76618349074E+01 -0.75690766840E+01  0.16739865870E+02  0.24999007887E+00 0.  0.
    1000022    2    1    0    0    0 -0.38643806158E+02 -0.41564625040E+02  0.24192737226E+02  0.62499999638E+02  0.99999805536E+01 0.  0.
    3000022    2    5    5    0    0 -0.29782802171E+02 -0.34337958691E+02  0.23049779029E+02  0.50965336590E+02  0.25001643183E+00 0.  0.
        -13    1    4    4    0    0  0.66414880596E+01  0.40324128706E+01 -0.39873478302E+01  0.87338241867E+01  0.10500000000E+00 0. -1.
         13    1    4    4    0    0  0.61712391400E+01  0.36294220368E+01 -0.35817288539E+01  0.80060416828E+01  0.10500000000E+00 0.  1.
    3000001    1    5    5    0    0 -0.88610039874E+01 -0.72266663488E+01  0.11429581976E+01  0.11534663048E+02  0.10000000000E+01 0. -1.
        -13    1    6    6    0    0 -0.15802402302E+02 -0.18119683127E+02  0.12172719906E+02  0.26948561558E+02  0.10500000000E+00 0.  1.
         13    1    6    6    0    0 -0.13980399869E+02 -0.16218275565E+02  0.10877059122E+02  0.24016775032E+02  0.10500000000E+00 0. -1.
</event>
<event>
11    0  0.3485800E-009  0.9118800E+02  0.7816531E-02  0.1126479E+00
         25   -1    0    0    0    0  0.00000000000E+00  0.00000000000E+00  0.99999998245E-14  0.12500000000E+03  0.12500000000E+03 0.  0.
    3000001    1    3    3    0    0 -0.17657498781E+01 -0.37840124261E+01  0.55633809376E+01  0.70276475530E+01  0.10000000000E+01 0. -1.
    1000022    2    1    0    0    0 -0.20908748573E+02 -0.85802835320E+01  0.57406035902E+02  0.62500000984E+02  0.10000006634E+02 0.  0.
    3000022    2    3    3    0    0 -0.19142998695E+02 -0.47962711059E+01  0.51842654965E+02  0.55472353431E+02  0.25001177566E+00 0.  0.
    1000022    2    1    0    0    0  0.20908748573E+02  0.85802835320E+01 -0.57406035902E+02  0.62499999016E+02  0.99999943287E+01 0.  0.
    3000022    2    5    5    0    0  0.11622023806E+02  0.81353443010E+01 -0.43389932282E+02  0.45650892555E+02  0.25000684185E+00 0.  0.
        -13    1    4    4    0    0 -0.12196777349E+02 -0.30896750332E+01  0.33187589744E+02  0.35492740208E+02  0.10500000000E+00 0.  1.
         13    1    4    4    0    0 -0.69462213462E+01 -0.17065960727E+01  0.18655065221E+02  0.19979613223E+02  0.10500000000E+00 0. -1.
    3000001    1    5    5    0    0  0.92867247671E+01  0.44493923108E+00 -0.14016103620E+02  0.16849106460E+02  0.10000000000E+01 0. -1.
        -13    1    6    6    0    0  0.48601027584E+01  0.34082992228E+01 -0.17949405035E+02  0.18905799865E+02  0.10500000000E+00 0.  1.
         13    1    6    6    0    0  0.67619210476E+01  0.47270450781E+01 -0.25440527247E+02  0.26745092691E+02  0.10500000000E+00 0. -1.
</event>
<event>
11    0  0.3485800E-009  0.9118800E+02  0.7816531E-02  0.1126479E+00
         25   -1    0    0    0    0  0.00000000000E+00  0.00000000000E+00  0.99999998245E-14  0.12500000000E+03  0.12500000000E+03 0.  0.
    3000001    1    3    3    0    0 -0.72247311442E+01  0.15142760207E+01 -0.20047105385E+02  0.21386355610E+02  0.10000000000E+01 0.  1.
    1000022    2    1    0    0    0 -0.77265756639E+01  0.57219459738E+01 -0.60941029723E+02  0.62500001586E+02  0.10000022864E+02 0.  0.
    3000022    2    3    3    0    0 -0.50184451970E+00  0.42076699531E+01 -0.40893924338E+02  0.41113645975E+02  0.25000652591E+00 0.  0.
    1000022    2    1    0    0    0  0.77265756639E+01 -0.57219459738E+01  0.60941029723E+02  0.62499998414E+02  0.10000003041E+02 0.  0.
    3000022    2    5    5    0    0  0.51728307075E+01  0.73391771405E+00  0.41576871155E+02  0.41904600232E+02  0.24998551132E+00 0.  0.
        -13    1    4    4    0    0 -0.22545562931E+00  0.14988016491E+01 -0.14973889966E+02  0.15050768829E+02  0.10500000000E+00 0. -1.
         13    1    4    4    0    0 -0.27638889039E+00  0.27088683041E+01 -0.25920034372E+02  0.26062877146E+02  0.10500000000E+00 0.  1.
    3000001    1    5    5    0    0  0.25537449563E+01 -0.64558636879E+01  0.19364158568E+02  0.20595398183E+02  0.10000000000E+01 0. -1.
        -13    1    6    6    0    0  0.19830833550E+01  0.33141076836E+00  0.15715656244E+02  0.15844094448E+02  0.10500000000E+00 0.  1.
         13    1    6    6    0    0  0.31897473526E+01  0.40250694569E+00  0.25861214911E+02  0.26060505784E+02  0.10500000000E+00 0. -1.
</event>
<event>
11    0  0.3485800E-009  0.9118800E+02  0.7816531E-02  0.1126479E+00
         25   -1    0    0    0    0  0.00000000000E+00  0.00000000000E+00  0.99999998245E-14  0.12500000000E+03  0.12500000000E+03 0.  0.
    3000001    1    3    3    0    0  0.34914865861E+01  0.46325147816E+02 -0.50064008787E+01  0.46736215599E+02  0.10000000000E+01 0.  1.
    1000022    2    1    0    0    0  0.10149399228E+02  0.60601912809E+02 -0.55360559369E+01  0.62499998498E+02  0.99999878083E+01 0.  0.
    3000022    2    3    3    0    0  0.66579126423E+01  0.14276764993E+02 -0.52965505815E+00  0.15763782899E+02  0.24999480727E+00 0.  0.
    1000022    2    1    0    0    0 -0.10149399228E+02 -0.60601912809E+02  0.55360559369E+01  0.62500001502E+02  0.10000006578E+02 0.  0.
    3000022    2    5    5    0    0 -0.73777883728E+01 -0.24376161365E+02 -0.13619907695E+01  0.25505813542E+02  0.25000284837E+00 0.  0.
        -13    1    4    4    0    0  0.50956906086E+01  0.10913833224E+02 -0.41888911513E+00  0.12052564520E+02  0.10500000000E+00 0.  1.
         13    1    4    4    0    0  0.15622220337E+01  0.33629317688E+01 -0.11076594302E+00  0.37112183792E+01  0.10500000000E+00 0. -1.
    3000001    1    5    5    0    0 -0.27716108556E+01 -0.36225751444E+02  0.68980467063E+01  0.36994187959E+02  0.10000000000E+01 0. -1.
        -13    1    6    6    0    0 -0.35753578355E+01 -0.11605640975E+02 -0.68045491373E+00  0.12163393030E+02  0.10500000000E+00 0. -1.
         13    1    6    6    0    0 -0.38024305374E+01 -0.12770520390E+02 -0.68153585573E+00  0.13342420513E+02  0.10500000000E+00 0.  1.
</event>
<event>
11    0  0.3485800E-009  0.9118800E+02  0.7816531E-02  0.1126479E+00
         25   -1    0    0    0    0  0.00000000000E+00  0.00000000000E+00  0.99999998245E-14  0.12500000000E+03  0.12500000000E+03 0.  0.
    3000001    1    3    3    0    0  0.71589878010E+01 -0.10701299871E+02 -0.15721359731E+01  0.13009248125E+02  0.10000000000E+01 0. -1.
    1000022    2    1    0    0    0  0.25053520881E+02 -0.55743119950E+02  0.84424746543E+01  0.62500002771E+02  0.10000031887E+02 0.  0.
    3000022    2    3    3    0    0  0.17894533080E+02 -0.45041820079E+02  0.10014610627E+02  0.49490754645E+02  0.24999834685E+00 0.  0.
    1000022    2    1    0    0    0 -0.25053520881E+02  0.55743119950E+02 -0.84424746543E+01  0.62499997229E+02  0.99999972553E+01 0.  0.
    3000022    2    5    5    0    0  0.33834159219E+00 -0.19882314249E+00  0.68416944897E-01  0.47030310940E+00  0.24999692271E+00 0.  0.
        -13    1    4    4    0    0  0.10410110376E+02 -0.26065085993E+02  0.57584266633E+01  0.28651869197E+02  0.10500000000E+00 0.  1.
         13    1    4    4    0    0  0.74844227044E+01 -0.18976734085E+02  0.42561839642E+01  0.20838885448E+02  0.10500000000E+00 0. -1.
    3000001    1    5    5    0    0 -0.25391862474E+02  0.55941943092E+02 -0.85108915992E+01  0.62029694120E+02  0.10000000000E+01 0.  1.
        -13    1    6    6    0    0  0.12756946278E+00 -0.21772188312E-01  0.54590441266E-01  0.17536565312E+00  0.10500000000E+00 0.  1.
         13    1    6    6    0    0  0.21077212942E+00 -0.17705095418E+00  0.13826503631E-01  0.29493745628E+00  0.10500000000E+00 0. -1.
</event>
<event>
11    0  0.3485800E-009  0.9118800E+02  0.7816531E-02  0.1126479E+00
         25   -1    0    0    0    0  0.00000000000E+00  0.00000000000E+00  0.99999998245E-14  0.12500000000E+03  0.12500000000E+03 0.  0.
    3000001    1    3    3    0    0 -0.34816218195E+02  0.17164971415E+02  0.39322210495E+02  0.55263383278E+02  0.10000000000E+01 0. -1.
    1000022    2    1    0    0    0 -0.36384729802E+02  0.21314055383E+02  0.45034566799E+02  0.62500001358E+02  0.10000022165E+02 0.  0.
    3000022    2    3    3    0    0 -0.15685116078E+01  0.41490839679E+01  0.57123563037E+01  0.72366180802E+01  0.25000052339E+00 0.  0.
    1000022    2    1    0    0    0  0.36384729802E+02 -0.21314055383E+02 -0.45034566799E+02  0.62499998642E+02  0.10000005190E+02 0.  0.
    3000022    2    5    5    0    0  0.18049737470E+02 -0.16073865121E+02 -0.26930994960E+02  0.36187057888E+02  0.25001271487E+00 0.  0.
        -13    1    4    4    0    0 -0.96895147428E+00  0.24321262474E+01  0.32975034484E+01  0.42117287466E+01  0.10500000000E+00 0. -1.
         13    1    4    4    0    0 -0.59956013348E+00  0.17169577205E+01  0.24148528553E+01  0.30248893336E+01  0.10500000000E+00 0.  1.
    3000001    1    5    5    0    0  0.18334992332E+02 -0.52401902618E+01 -0.18103571839E+02  0.26312940754E+02  0.10000000000E+01 0.  1.
        -13    1    6    6    0    0  0.11285062398E+02 -0.10089831175E+02 -0.16945059601E+02  0.22722310541E+02  0.10500000000E+00 0. -1.
         13    1    6    6    0    0  0.67646750729E+01 -0.59840339464E+01 -0.99859353598E+01  0.13464747347E+02  0.10500000000E+00 0.  1.
</event>
<event>
11    0  0.3485800E-009  0.9118800E+02  0.7816531E-02  0.1126479E+00
         25   -1    0    0    0    0  0.00000000000E+00  0.00000000000E+00  0.99999998245E-14  0.12500000000E+03  0.12500000000E+03 0.  0.
    3000001    1    3    3    0    0  0.11071034483E+01  0.14542844625E+02  0.17780877729E+02  0.23019114245E+02  0.10000000000E+01 0. -1.
    1000022    2    1    0    0    0  0.15336384799E+02  0.35673358428E+02  0.47942225712E+02  0.62500001636E+02  0.99999999025E+01 0.  0.
    3000022    2    3    3    0    0  0.14229281351E+02  0.21130513803E+02  0.30161347983E+02  0.39480887390E+02  0.24999131623E+00 0.  0.
    1000022    2    1    0    0    0 -0.15336384799E+02 -0.35673358428E+02 -0.47942225712E+02  0.62499998364E+02  0.99999794547E+01 0.  0.
    3000022    2    5    5    0    0 -0.15828327926E+02 -0.27776005960E+02 -0.36088559209E+02  0.48212955507E+02  0.25000182701E+00 0.  0.
        -13    1    4    4    0    0  0.99502766157E+01  0.14802125252E+02  0.21048871120E+02  0.27589434883E+02  0.10500000000E+00 0.  1.
         13    1    4    4    0    0  0.42790047351E+01  0.63283885503E+01  0.91124768630E+01  0.11891452508E+02  0.10500000000E+00 0. -1.
    3000001    1    5    5    0    0  0.49194312716E+00 -0.78973524680E+01 -0.11853666503E+02  0.14287042857E+02  0.10000000000E+01 0.  1.
        -13    1    6    6    0    0 -0.81431760222E+01 -0.14425746157E+02 -0.18688502118E+02  0.24973678230E+02  0.10500000000E+00 0. -1.
         13    1    6    6    0    0 -0.76851519041E+01 -0.13350259802E+02 -0.17400057091E+02  0.23239277277E+02  0.10500000000E+00 0.  1.
</event>
<event>
11    0  0.3485800E-009  0.9118800E+02  0.7816531E-02  0.1126479E+00
         25   -1    0    0    0    0  0.00000000000E+00  0.00000000000E+00  0.99999998245E-14  0.12500000000E+03  0.12500000000E+03 0.  0.
    3000001    1    3    3    0    0 -0.15077436098E+02  0.26461550970E+02  0.38145631019E+01  0.30709829871E+02  0.10000000000E+01 0.  1.
    1000022    2    1    0    0    0 -0.22078855878E+02  0.57469566556E+02  0.40028846266E+01  0.62499999305E+02  0.99999935366E+01 0.  0.
    3000022    2    3    3    0    0 -0.70014197803E+01  0.31008015586E+02  0.18832152466E+00  0.31790169434E+02  0.24999627305E+00 0.  0.
    1000022    2    1    0    0    0  0.22078855878E+02 -0.57469566556E+02 -0.40028846266E+01  0.62500000695E+02  0.10000002229E+02 0.  0.
    3000022    2    5    5    0    0  0.22293250685E+02 -0.51280011517E+02 -0.21480709804E+01  0.55958067466E+02  0.24999659820E+00 0.  0.
        -13    1    4    4    0    0 -0.28867102071E+01  0.12927991136E+02  0.22170093638E-01  0.13246794599E+02  0.10500000000E+00 0.  1.
         13    1    4    4    0    0 -0.41147095731E+01  0.18080024450E+02  0.16615143103E+00  0.18543374835E+02  0.10500000000E+00 0. -1.
    3000001    1    5    5    0    0 -0.21439480766E+00 -0.61895550389E+01 -0.18548136462E+01  0.65419332292E+01  0.10000000000E+01 0. -1.
        -13    1    6    6    0    0  0.89448212949E+01 -0.20473142489E+02 -0.81018826421E+00  0.22356807049E+02  0.10500000000E+00 0.  1.
         13    1    6    6    0    0  0.13348429391E+02 -0.30806869028E+02 -0.13378827162E+01  0.33601260417E+02  0.10500000000E+00 0. -1.
</event>
<event>
11    0  0.3485800E-009  0.9118800E+02  0.7816531E-02  0.1126479E+00
         25   -1    0    0    0    0  0.00000000000E+00  0.00000000000E+00  0.99999998245E-14  0.12500000000E+03  0.12500000000E+03 0.  0.
    3000001    1    3    3    0    0  0.53999193740E+02 -0.18886587817E+02 -0.21130897413E+02  0.60992876219E+02  0.10000000000E+01 0.  1.
    1000022    2    1    0    0    0  0.54241990215E+02 -0.20350675702E+02 -0.21211000955E+02  0.62499999623E+02  0.99999943717E+01 0.  0.
    3000022    2    3    3    0    0  0.24279647466E+00 -0.14640878848E+01 -0.80103541433E-01  0.15071234045E+01  0.25000183327E+00 0.  0.
    1000022    2    1    0    0    0 -0.54241990215E+02  0.20350675702E+02  0.21211000955E+02  0.62500000377E+02  0.99999990797E+01 0.  0.
    3000022    2    5    5    0    0 -0.27623879763E+02  0.56325082147E+01  0.12537893193E+02  0.30855552894E+02  0.24999350635E+00 0.  0.
        -13    1    4    4    0    0  0.98192783627E-01 -0.78591266278E+00  0.16837443577E-01  0.79913017449E+00  0.10500000000E+00 0. -1.
         13    1    4    4    0    0  0.14460369103E+00 -0.67817522198E+00 -0.96940985010E-01  0.70799323002E+00  0.10500000000E+00 0.  1.
    3000001    1    5    5    0    0 -0.26618110452E+02  0.14718167488E+02  0.86731077616E+01  0.31644447482E+02  0.10000000000E+01 0. -1.
        -13    1    6    6    0    0 -0.11598726982E+02  0.24295894709E+01  0.52855128871E+01  0.12976172166E+02  0.10500000000E+00 0.  1.
         13    1    6    6    0    0 -0.16025152781E+02  0.32029187439E+01  0.72523803060E+01  0.17879380728E+02  0.10500000000E+00 0. -1.
</event>
<event>
11    0  0.3485800E-009  0.9118800E+02  0.7816531E-02  0.1126479E+00
         25   -1    0    0    0    0  0.00000000000E+00  0.00000000000E+00  0.99999998245E-14  0.12500000000E+03  0.12500000000E+03 0.  0.
    3000001    1    3    3    0    0  0.37210798041E+02 -0.19363662220E+01  0.12746272325E+02  0.39393660190E+02  0.10000000000E+01 0. -1.
    1000022    2    1    0    0    0  0.56730547713E+02 -0.10067810824E+02  0.22057519157E+02  0.62499997777E+02  0.99999856107E+01 0.  0.
    3000022    2    3    3    0    0  0.19519749672E+02 -0.81314446017E+01  0.93112468315E+01  0.23106337587E+02  0.25000112499E+00 0.  0.
    1000022    2    1    0    0    0 -0.56730547713E+02  0.10067810824E+02 -0.22057519157E+02  0.62500002223E+02  0.10000013395E+02 0.  0.
    3000022    2    5    5    0    0 -0.82189800214E+01  0.26666239174E+01  0.10574828613E+00  0.86450099633E+01  0.24999771353E+00 0.  0.
        -13    1    4    4    0    0  0.97048867909E+01 -0.39755150493E+01  0.45882889468E+01  0.11447836826E+02  0.10500000000E+00 0.  1.
         13    1    4    4    0    0  0.98148628811E+01 -0.41559295524E+01  0.47229578847E+01  0.11658500761E+02  0.10500000000E+00 0. -1.
    3000001    1    5    5    0    0 -0.48511567692E+02  0.74011869063E+01 -0.22163267443E+02  0.53854992259E+02  0.10000000000E+01 0. -1.
        -13    1    6    6    0    0 -0.41905246920E+01  0.13348947719E+01 -0.97612746333E-02  0.43992682947E+01  0.10500000000E+00 0.  1.
         13    1    6    6    0    0 -0.40284553294E+01  0.13317291455E+01  0.11550956076E+00  0.42457416686E+01  0.10500000000E+00 0. -1.
</event>
<event>
11    0  0.3485800E-009  0.9118800E+02  0.7816531E-02  0.1126479E+00
         25   -1    0    0    0    0  0.00000000000E+00  0.00000000000E+00  0.99999998245E-14  0.12500000000E+03  0.12500000000E+03 0.  0.
    3000001    1    3    3    0    0 -0.41336056599E+02  0.14187036676E+02 -0.39052579039E+02  0.58617791790E+02  0.10000000000E+01 0.  1.
    1000022    2    1    0    0    0 -0.43223960964E+02  0.17242537345E+02 -0.40504743423E+02  0.62500000244E+02  0.99999947569E+01 0.  0.
    3000022    2    3    3    0    0 -0.18879043655E+01  0.30555006699E+01 -0.14521643838E+01  0.38822084532E+01  0.24998767926E+00 0.  0.
    1000022    2    1    0    0    0  0.43223960964E+02 -0.17242537345E+02  0.40504743423E+02  0.62499999756E+02  0.99999917119E+01 0.  0.
    3000022    2    5    5    0    0  0.26406305937E+02 -0.13751392997E+02  0.30378459036E+02  0.42535950945E+02  0.25009348387E+00 0.  0.
        -13    1    4    4    0    0 -0.66615030605E+00  0.98048035776E+00 -0.49364833191E+00  0.12883367719E+01  0.10500000000E+00 0.  1.
         13    1    4    4    0    0 -0.12217540595E+01  0.20750203121E+01 -0.95851605188E+00  0.25938716813E+01  0.10500000000E+00 0. -1.
    3000001    1    5    5    0    0  0.16817655027E+02 -0.34911443481E+01  0.10126284387E+02  0.19964048812E+02  0.10000000000E+01 0. -1.
        -13    1    6    6    0    0  0.17627150683E+02 -0.92387209781E+01  0.20293277664E+02  0.28423556249E+02  0.10500000000E+00 0. -1.
         13    1    6    6    0    0  0.87791552539E+01 -0.45126720193E+01  0.10085181372E+02  0.14112394695E+02  0.10500000000E+00 0.  1.
</event>
<event>
11    0  0.3485800E-009  0.9118800E+02  0.7816531E-02  0.1126479E+00
         25   -1    0    0    0    0  0.00000000000E+00  0.00000000000E+00  0.99999998245E-14  0.12500000000E+03  0.12500000000E+03 0.  0.
    3000001    1    3    3    0    0  0.11829008861E+02 -0.31099328890E+02  0.41227395837E+02  0.52988601374E+02  0.10000000000E+01 0. -1.
    1000022    2    1    0    0    0  0.15250917404E+02 -0.32897107312E+02  0.49914324477E+02  0.62499999537E+02  0.10000000150E+02 0.  0.
    3000022    2    3    3    0    0  0.34219085431E+01 -0.17977784216E+01  0.86869286399E+01  0.95113981633E+01  0.25000098973E+00 0.  0.
    1000022    2    1    0    0    0 -0.15250917404E+02  0.32897107312E+02 -0.49914324477E+02  0.62500000463E+02  0.10000005933E+02 0.  0.
    3000022    2    5    5    0    0 -0.14411208973E+02  0.20849454972E+02 -0.36302845959E+02  0.44275747814E+02  0.25000615147E+00 0.  0.
        -13    1    4    4    0    0  0.23696865424E+01 -0.12972199565E+01  0.60607574473E+01  0.66364146766E+01  0.10500000000E+00 0.  1.
         13    1    4    4    0    0  0.10522220006E+01 -0.50055846507E+00  0.26261711926E+01  0.28749834866E+01  0.10500000000E+00 0. -1.
    3000001    1    5    5    0    0 -0.83970843143E+00  0.12047652340E+02 -0.13611478518E+02  0.18224252648E+02  0.10000000000E+01 0. -1.
        -13    1    6    6    0    0 -0.33789417028E+01  0.48950577745E+01 -0.84965532655E+01  0.10372139608E+02  0.10500000000E+00 0. -1.
         13    1    6    6    0    0 -0.11032267270E+02  0.15954397198E+02 -0.27806292694E+02  0.33903608207E+02  0.10500000000E+00 0.  1.
</event>
<event>
11    0  0.3485800E-009  0.9118800E+02  0.7816531E-02  0.1126479E+00
         25   -1    0    0    0    0  0.00000000000E+00  0.00000000000E+00  0.99999998245E-14  0.12500000000E+03  0.12500000000E+03 0.  0.
    3000001    1    3    3    0    0  0.56680755045E+01  0.13973349340E+02 -0.13922884770E+02  0.20548194374E+02  0.10000000000E+01 0.  1.
    1000022    2    1    0    0    0  0.66271612500E+01  0.49455151038E+02 -0.36283863986E+02  0.62499999894E+02  0.99999985272E+01 0.  0.
    3000022    2    3    3    0    0  0.95908574556E+00  0.35481801698E+02 -0.22360979217E+02  0.41951805520E+02  0.24999538344E+00 0.  0.
    1000022    2    1    0    0    0 -0.66271612500E+01 -0.49455151038E+02  0.36283863986E+02  0.62500000106E+02  0.99999998547E+01 0.  0.
    3000022    2    5    5    0    0 -0.71002412097E+01 -0.32682395865E+02  0.19349773018E+02  0.38639728573E+02  0.24996720418E+00 0.  0.
        -13    1    4    4    0    0  0.74447939434E+00  0.27180748514E+02 -0.17140033892E+02  0.32142481643E+02  0.10500000000E+00 0. -1.
         13    1    4    4    0    0  0.21460635122E+00  0.83010531837E+01 -0.52209453244E+01  0.98093238771E+01  0.10500000000E+00 0.  1.
    3000001    1    5    5    0    0  0.47307995965E+00 -0.16772755172E+02  0.16934090968E+02  0.23860271533E+02  0.10000000000E+01 0. -1.
        -13    1    6    6    0    0 -0.31279398411E+01 -0.14610953647E+02  0.85885804696E+01  0.17234811098E+02  0.10500000000E+00 0. -1.
         13    1    6    6    0    0 -0.39723013685E+01 -0.18071442219E+02  0.10761192549E+02  0.21404917475E+02  0.10500000000E+00 0.  1.
</event>
<event>
11    0  0.3485800E-009  0.9118800E+02  0.7816531E-02  0.1126479E+00
         25   -1    0    0    0    0  0.00000000000E+00  0.00000000000E+00  0.99999998245E-14  0.12500000000E+03  0.12500000000E+03 0.  0.
    3000001    1    3    3    0    0  0.48753622901E+02 -0.27040608516E+02  0.51349383783E+01  0.55995337726E+02  0.10000000000E+01 0. -1.
    1000022    2    1    0    0    0  0.52054778717E+02 -0.32466834857E+02  0.65157256562E+01  0.62500000066E+02  0.99999987287E+01 0.  0.
    3000022    2    3    3    0    0  0.33011558156E+01 -0.54262263407E+01  0.13807872780E+01  0.65046623401E+01  0.24999326375E+00 0.  0.
    1000022    2    1    0    0    0 -0.52054778717E+02  0.32466834857E+02 -0.65157256562E+01  0.62499999934E+02  0.99999979017E+01 0.  0.
    3000022    2    5    5    0    0 -0.38073699934E+02  0.26767537195E+02 -0.15253290757E+01  0.46567121480E+02  0.25000014873E+00 0.  0.
        -13    1    4    4    0    0  0.19721202322E+01 -0.31422325487E+01  0.76675733785E+00  0.37896999110E+01  0.10500000000E+00 0.  1.
         13    1    4    4    0    0  0.13290355834E+01 -0.22839937920E+01  0.61402994011E+00  0.27149624291E+01  0.10500000000E+00 0.  1.
    3000001    1    5    5    0    0 -0.13981078783E+02  0.56992976620E+01 -0.49903965806E+01  0.15932878453E+02  0.10000000000E+01 0. -1.
        -13    1    6    6    0    0 -0.11567623128E+02  0.80862374217E+01 -0.48986288050E+00  0.14122610634E+02  0.10500000000E+00 0.  1.
         13    1    6    6    0    0 -0.26506076806E+02  0.18681299773E+02 -0.10354661952E+01  0.32444510847E+02  0.10500000000E+00 0. -1.
</event>
<event>
11    0  0.3485800E-009  0.9118800E+02  0.7816531E-02  0.1126479E+00
         25   -1    0    0    0    0  0.00000000000E+00  0.00000000000E+00  0.99999998245E-14  0.12500000000E+03  0.12500000000E+03 0.  0.
    3000001    1    3    3    0    0  0.20734222473E+02 -0.31428931982E+02  0.23677731577E+02  0.44489557423E+02  0.10000000000E+01 0.  1.
    1000022    2    1    0    0    0  0.30475311917E+02 -0.39071229727E+02  0.36755193841E+02  0.62500000540E+02  0.10000008220E+02 0.  0.
    3000022    2    3    3    0    0  0.97410894431E+01 -0.76422977451E+01  0.13077462264E+02  0.18010443116E+02  0.25000724794E+00 0.  0.
    1000022    2    1    0    0    0 -0.30475311917E+02  0.39071229727E+02 -0.36755193841E+02  0.62499999460E+02  0.10000001476E+02 0.  0.
    3000022    2    5    5    0    0 -0.30012760780E+02  0.37458218621E+02 -0.36896195685E+02  0.60541520485E+02  0.24998919629E+00 0.  0.
        -13    1    4    4    0    0  0.33910239340E+01 -0.27304305415E+01  0.46189361284E+01  0.63482194528E+01  0.10500000000E+00 0. -1.
         13    1    4    4    0    0  0.63500655091E+01 -0.49118672036E+01  0.84585261352E+01  0.11662223663E+02  0.10500000000E+00 0.  1.
    3000001    1    5    5    0    0 -0.46255113618E+00  0.16130111052E+01  0.14100184426E+00  0.19584789759E+01  0.10000000000E+01 0. -1.
        -13    1    6    6    0    0 -0.20659645097E+02  0.25756683511E+02 -0.25438437771E+02  0.41681564537E+02  0.10500000000E+00 0. -1.
         13    1    6    6    0    0 -0.93531156832E+01  0.11701535110E+02 -0.11457757914E+02  0.18859955947E+02  0.10500000000E+00 0.  1.
</event>
<event>
11    0  0.3485800E-009  0.9118800E+02  0.7816531E-02  0.1126479E+00
         25   -1    0    0    0    0  0.00000000000E+00  0.00000000000E+00  0.99999998245E-14  0.12500000000E+03  0.12500000000E+03 0.  0.
    3000001    1    3    3    0    0 -0.11426406420E+02  0.18180352413E+02 -0.10969050368E+02  0.24133131656E+02  0.10000000000E+01 0.  1.
    1000022    2    1    0    0    0 -0.37469871841E+02  0.45192854892E+02 -0.18970095012E+02  0.62500000147E+02  0.10000004229E+02 0.  0.
    3000022    2    3    3    0    0 -0.26043465421E+02  0.27012502479E+02 -0.80010446438E+01  0.38366868492E+02  0.25000229694E+00 0.  0.
    1000022    2    1    0    0    0  0.37469871841E+02 -0.45192854892E+02  0.18970095012E+02  0.62499999853E+02  0.10000002387E+02 0.  0.
    3000022    2    5    5    0    0  0.24785321811E+02 -0.36550185820E+02  0.13624461861E+02  0.46215979098E+02  0.25000442401E+00 0.  0.
        -13    1    4    4    0    0 -0.10748366704E+02  0.11240932695E+02 -0.33132443234E+01  0.15902030299E+02  0.10500000000E+00 0.  1.
         13    1    4    4    0    0 -0.15295098716E+02  0.15771569784E+02 -0.46878003203E+01  0.22464838193E+02  0.10500000000E+00 0. -1.
    3000001    1    5    5    0    0  0.12684550031E+02 -0.86426690717E+01  0.53456331509E+01  0.16284020755E+02  0.10000000000E+01 0.  1.
        -13    1    6    6    0    0  0.10655661857E+02 -0.15671916941E+02  0.59107908966E+01  0.19851966760E+02  0.10500000000E+00 0. -1.
         13    1    6    6    0    0  0.14129659953E+02 -0.20878268879E+02  0.77136709643E+01  0.26364012338E+02  0.10500000000E+00 0.  1.
</event>
<event>
11    0  0.3485800E-009  0.9118800E+02  0.7816531E-02  0.1126479E+00
         25   -1    0    0    0    0  0.00000000000E+00  0.00000000000E+00  0.99999998245E-14  0.12500000000E+03  0.12500000000E+03 0.  0.
    3000001    1    3    3    0    0 -0.24755015117E+02  0.57385527897E+01 -0.42221735941E+02  0.49289113884E+02  0.10000000000E+01 0. -1.
    1000022    2    1    0    0    0 -0.33320407496E+02  0.11112521827E+02 -0.50719941540E+02  0.62499998855E+02  0.99999845016E+01 0.  0.
    3000022    2    3    3    0    0 -0.85653923786E+01  0.53739690369E+01 -0.84982055996E+01  0.13210884972E+02  0.24998703384E+00 0.  0.
    1000022    2    1    0    0    0  0.33320407496E+02 -0.11112521827E+02  0.50719941540E+02  0.62500001145E+02  0.99999988083E+01 0.  0.
    3000022    2    5    5    0    0  0.80928848283E+01 -0.37928952495E+01  0.64902957246E+01  0.11048408340E+02  0.25009803715E+00 0.  0.
        -13    1    4    4    0    0 -0.26525048098E+01  0.16083204713E+01 -0.26143535950E+01  0.40581210214E+01  0.10500000000E+00 0.  1.
         13    1    4    4    0    0 -0.59128875688E+01  0.37656485656E+01 -0.58838520046E+01  0.91527639505E+01  0.10500000000E+00 0. -1.
    3000001    1    5    5    0    0  0.25227522667E+02 -0.73196265772E+01  0.44229645816E+02  0.51451592805E+02  0.10000000000E+01 0.  1.
        -13    1    6    6    0    0  0.29712647030E+01 -0.13490985200E+01  0.23159341392E+01  0.40028810486E+01  0.10500000000E+00 0. -1.
         13    1    6    6    0    0  0.51216201253E+01 -0.24437967294E+01  0.41743615854E+01  0.70455272910E+01  0.10500000000E+00 0.  1.
</event>
<event>
11    0  0.3485800E-009  0.9118800E+02  0.7816531E-02  0.1126479E+00
         25   -1    0    0    0    0  0.00000000000E+00  0.00000000000E+00  0.99999998245E-14  0.12500000000E+03  0.12500000000E+03 0.  0.
    3000001    1    3    3    0    0  0.30062539344E+02 -0.62693115029E+01  0.21024863700E+02  0.37230436905E+02  0.10000000000E+01 0. -1.
    1000022    2    1    0    0    0  0.48753315464E+02 -0.18207082140E+02  0.33134068045E+02  0.62500000154E+02  0.99999972628E+01 0.  0.
    3000022    2    3    3    0    0  0.18690776120E+02 -0.11937770637E+02  0.12109204345E+02  0.25269563249E+02  0.25003434857E+00 0.  0.
    1000022    2    1    0    0    0 -0.48753315464E+02  0.18207082140E+02 -0.33134068045E+02  0.62499999846E+02  0.99999953355E+01 0.  0.
    3000022    2    5    5    0    0 -0.10457636309E+02  0.23102629553E+01 -0.26766356969E+01  0.11042025853E+02  0.24996840432E+00 0.  0.
        -13    1    4    4    0    0  0.13995398750E+02 -0.89655048972E+01  0.90911767588E+01  0.18944972528E+02  0.10500000000E+00 0.  1.
         13    1    4    4    0    0  0.46953773700E+01 -0.29722657400E+01  0.30180275860E+01  0.63245907209E+01  0.10500000000E+00 0. -1.
    3000001    1    5    5    0    0 -0.38295679155E+02  0.15896819185E+02 -0.30457432348E+02  0.51457973993E+02  0.10000000000E+01 0.  1.
        -13    1    6    6    0    0 -0.37968386336E+01  0.83566152169E+00 -0.10320655566E+01  0.40237418036E+01  0.10500000000E+00 0. -1.
         13    1    6    6    0    0 -0.66607976751E+01  0.14746014336E+01 -0.16445701402E+01  0.70182840497E+01  0.10500000000E+00 0.  1.
</event>
<event>
11    0  0.3485800E-009  0.9118800E+02  0.7816531E-02  0.1126479E+00
         25   -1    0    0    0    0  0.00000000000E+00  0.00000000000E+00  0.99999998245E-14  0.12500000000E+03  0.12500000000E+03 0.  0.
    3000001    1    3    3    0    0  0.33823664258E+02  0.35178368576E+02  0.24033582704E+01  0.48870584307E+02  0.10000000000E+01 0. -1.
    1000022    2    1    0    0    0  0.43078529730E+02  0.44114915144E+02 -0.20893279903E+01  0.62500005810E+02  0.99999986462E+01 0.  0.
    3000022    2    3    3    0    0  0.92548654714E+01  0.89365465684E+01 -0.44926862607E+01  0.13629421503E+02  0.25000241420E+00 0.  0.
    1000022    2    1    0    0    0 -0.43078529730E+02 -0.44114915144E+02  0.20893279903E+01  0.62499994190E+02  0.99999260223E+01 0.  0.
    3000022    2    5    5    0    0 -0.19935660114E+02 -0.15733562755E+02 -0.27546194332E+01  0.25546545040E+02  0.24998816896E+00 0.  0.
        -13    1    4    4    0    0  0.40294564177E+01  0.39826876654E+01 -0.19824973786E+01  0.60033025010E+01  0.10500000000E+00 0.  1.
         13    1    4    4    0    0  0.52254090537E+01  0.49538589030E+01 -0.25101888821E+01  0.76261190020E+01  0.10500000000E+00 0. -1.
    3000001    1    5    5    0    0 -0.23142869616E+02 -0.28381352389E+02  0.48439474235E+01  0.36953449150E+02  0.10000000000E+01 0. -1.
        -13    1    6    6    0    0 -0.13103750033E+02 -0.10406995091E+02 -0.18349269833E+01  0.16834244675E+02  0.10500000000E+00 0.  1.
         13    1    6    6    0    0 -0.68319100811E+01 -0.53265676641E+01 -0.91969244995E+00  0.87123003644E+01  0.10500000000E+00 0. -1.
</event>
<event>
11    0  0.3485800E-009  0.9118800E+02  0.7816531E-02  0.1126479E+00
         25   -1    0    0    0    0  0.00000000000E+00  0.00000000000E+00  0.99999998245E-14  0.12500000000E+03  0.12500000000E+03 0.  0.
    3000001    1    3    3    0    0 -0.85474519511E+01  0.77227604604E+01  0.15038169373E+02  0.18969620504E+02  0.10000000000E+01 0.  1.
    1000022    2    1    0    0    0 -0.32440017291E+02  0.35078458673E+02  0.39030707980E+02  0.62499992806E+02  0.99999975296E+01 0.  0.
    3000022    2    3    3    0    0 -0.23892565340E+02  0.27355698213E+02  0.23992538607E+02  0.43530372302E+02  0.25000136399E+00 0.  0.
    1000022    2    1    0    0    0  0.32440017291E+02 -0.35078458673E+02 -0.39030707980E+02  0.62500007194E+02  0.10000087458E+02 0.  0.
    3000022    2    5    5    0    0  0.18431168047E+02 -0.24627439784E+02 -0.20267624194E+02  0.36838265902E+02  0.24999673592E+00 0.  0.
        -13    1    4    4    0    0 -0.59376525291E+01  0.68374239731E+01  0.59784010433E+01  0.10851653707E+02  0.10500000000E+00 0.  1.
         13    1    4    4    0    0 -0.17954912811E+02  0.20518274240E+02  0.18014137564E+02  0.32678718595E+02  0.10500000000E+00 0. -1.
    3000001    1    5    5    0    0  0.14008849244E+02 -0.10451018890E+02 -0.18763083786E+02  0.25661741292E+02  0.10000000000E+01 0. -1.
        -13    1    6    6    0    0  0.13681758521E+02 -0.18250108852E+02 -0.14998748662E+02  0.27298909791E+02  0.10500000000E+00 0.  1.
         13    1    6    6    0    0  0.47494095258E+01 -0.63773309313E+01 -0.52688755317E+01  0.95393561114E+01  0.10500000000E+00 0. -1.
</event>
<event>
11    0  0.3485800E-009  0.9118800E+02  0.7816531E-02  0.1126479E+00
         25   -1    0    0    0    0  0.00000000000E+00  0.00000000000E+00  0.99999998245E-14  0.12500000000E+03  0.12500000000E+03 0.  0.
    3000001    1    3    3    0    0  0.21691078459E+02 -0.47146472020E+02 -0.10963835029E+02  0.53051846219E+02  0.10000000000E+01 0. -1.
    1000022    2    1    0    0    0  0.28762309012E+02 -0.53399050907E+02 -0.11292525571E+02  0.62499999144E+02  0.99999850855E+01 0.  0.
    3000022    2    3    3    0    0  0.70712305528E+01 -0.62525788872E+01 -0.32869054175E+00  0.94481529251E+01  0.25002390554E+00 0.  0.
    1000022    2    1    0    0    0 -0.28762309012E+02  0.53399050907E+02  0.11292525571E+02  0.62500000856E+02  0.99999957871E+01 0.  0.
    3000022    2    5    5    0    0 -0.23026904473E+02  0.36920950118E+02  0.44842368912E+01  0.43744322633E+02  0.24998984149E+00 0.  0.
        -13    1    4    4    0    0  0.40379125043E+01 -0.34835751279E+01 -0.17539944395E+00  0.53368364252E+01  0.10500000000E+00 0.  1.
         13    1    4    4    0    0  0.30333180485E+01 -0.27690037592E+01 -0.15329109780E+00  0.41113165000E+01  0.10500000000E+00 0. -1.
    3000001    1    5    5    0    0 -0.57354045386E+01  0.16478100789E+02  0.68082886798E+01  0.18755678223E+02  0.10000000000E+01 0. -1.
        -13    1    6    6    0    0 -0.14739995272E+02  0.23742303565E+02  0.28734702849E+01  0.28093278478E+02  0.10500000000E+00 0. -1.
         13    1    6    6    0    0 -0.82869092015E+01  0.13178646553E+02  0.16107666062E+01  0.15651044155E+02  0.10500000000E+00 0.  1.
</event>
<event>
11    0  0.3485800E-009  0.9118800E+02  0.7816531E-02  0.1126479E+00
         25   -1    0    0    0    0  0.00000000000E+00  0.00000000000E+00  0.99999998245E-14  0.12500000000E+03  0.12500000000E+03 0.  0.
    3000001    1    3    3    0    0  0.31743906401E+02  0.79698989304E+01  0.32896626426E+02  0.46415330579E+02  0.10000000000E+01 0.  1.
    1000022    2    1    0    0    0  0.38099725352E+02  0.13382009925E+02  0.46643142644E+02  0.62500000032E+02  0.99999993377E+01 0.  0.
    3000022    2    3    3    0    0  0.63558189510E+01  0.54121109946E+01  0.13746516218E+02  0.16084669453E+02  0.25000664066E+00 0.  0.
    1000022    2    1    0    0    0 -0.38099725352E+02 -0.13382009925E+02 -0.46643142644E+02  0.62499999968E+02  0.99999989400E+01 0.  0.
    3000022    2    5    5    0    0 -0.12691753735E+02  0.67621423032E-02 -0.16967943285E+02  0.21190900533E+02  0.25001495554E+00 0.  0.
        -13    1    4    4    0    0  0.48866128381E+01  0.41610023926E+01  0.10583539162E+02  0.12378014870E+02  0.10500000000E+00 0. -1.
         13    1    4    4    0    0  0.14692061129E+01  0.12511086020E+01  0.31629770562E+01  0.37066545825E+01  0.10500000000E+00 0.  1.
    3000001    1    5    5    0    0 -0.25407971617E+02 -0.13388772067E+02 -0.29675199359E+02  0.41309099435E+02  0.10000000000E+01 0.  1.
        -13    1    6    6    0    0 -0.53581964530E+01  0.16920974774E-02 -0.72724965116E+01  0.90338531427E+01  0.10500000000E+00 0.  1.
         13    1    6    6    0    0 -0.73335572816E+01  0.50700448258E-02 -0.96954467738E+01  0.12157047390E+02  0.10500000000E+00 0. -1.
</event>
<event>
11    0  0.3485800E-009  0.9118800E+02  0.7816531E-02  0.1126479E+00
         25   -1    0    0    0    0  0.00000000000E+00  0.00000000000E+00  0.99999998245E-14  0.12500000000E+03  0.12500000000E+03 0.  0.
    3000001    1    3    3    0    0  0.19324089602E+02 -0.22288258358E+00 -0.67359876660E+01  0.20490086516E+02  0.10000000000E+01 0. -1.
    1000022    2    1    0    0    0  0.61227858582E+02  0.27326927628E+01 -0.70662377876E+01  0.62500000190E+02  0.10000001552E+02 0.  0.
    3000022    2    3    3    0    0  0.41903768980E+02  0.29555753464E+01 -0.33025012157E+00  0.42009913674E+02  0.25000286361E+00 0.  0.
    1000022    2    1    0    0    0 -0.61227858582E+02 -0.27326927628E+01  0.70662377876E+01  0.62499999810E+02  0.99999991744E+01 0.  0.
    3000022    2    5    5    0    0 -0.26431879101E+02 -0.27634722726E+01 -0.16061610100E+01  0.26625612897E+02  0.24999435223E+00 0.  0.
        -13    1    4    4    0    0  0.10076771703E+02  0.69458490113E+00 -0.90823889945E-01  0.10101636012E+02  0.10500000000E+00 0.  1.
         13    1    4    4    0    0  0.31826997277E+02  0.22609904452E+01 -0.23942623163E+00  0.31908277662E+02  0.10500000000E+00 0. -1.
    3000001    1    5    5    0    0 -0.34795979481E+02  0.30779509832E-01  0.86723987976E+01  0.35874386912E+02  0.10000000000E+01 0.  1.
        -13    1    6    6    0    0 -0.95878463947E+01 -0.10148515962E+01 -0.63999946387E+00  0.96631954635E+01  0.10500000000E+00 0.  1.
         13    1    6    6    0    0 -0.16844032706E+02 -0.17486206764E+01 -0.96616154614E+00  0.16962417434E+02  0.10500000000E+00 0. -1.
</event>
<event>
11    0  0.3485800E-009  0.9118800E+02  0.7816531E-02  0.1126479E+00
         25   -1    0    0    0    0  0.00000000000E+00  0.00000000000E+00  0.99999998245E-14  0.12500000000E+03  0.12500000000E+03 0.  0.
    3000001    1    3    3    0    0 -0.20132004635E+02  0.31128357624E+01  0.12589910300E+02  0.23968587745E+02  0.10000000000E+01 0. -1.
    1000022    2    1    0    0    0 -0.55839121817E+02 -0.19229783578E+01  0.26163786673E+02  0.62500006876E+02  0.10000087767E+02 0.  0.
    3000022    2    3    3    0    0 -0.35707117181E+02 -0.50358141202E+01  0.13573876373E+02  0.38531419130E+02  0.24999835017E+00 0.  0.
    1000022    2    1    0    0    0  0.55839121817E+02  0.19229783578E+01 -0.26163786673E+02  0.62499993124E+02  0.10000001823E+02 0.  0.
    3000022    2    5    5    0    0  0.60329424695E+01  0.25394314700E+01 -0.81195152491E+00  0.66005203095E+01  0.24999209245E+00 0.  0.
        -13    1    4    4    0    0 -0.16551481018E+02 -0.23519876243E+01  0.62235916048E+01  0.17838931783E+02  0.10500000000E+00 0. -1.
         13    1    4    4    0    0 -0.19155636163E+02 -0.26838264959E+01  0.73502847682E+01  0.20692487348E+02  0.10500000000E+00 0.  1.
    3000001    1    5    5    0    0  0.49806179347E+02 -0.61645311212E+00 -0.25351835149E+02  0.55899472815E+02  0.10000000000E+01 0.  1.
        -13    1    6    6    0    0  0.17013826636E+01  0.75354549232E+00 -0.25371030370E+00  0.18809379828E+01  0.10500000000E+00 0. -1.
         13    1    6    6    0    0  0.43315598058E+01  0.17858859776E+01 -0.55824122121E+00  0.47195823266E+01  0.10500000000E+00 0.  1.
</event>
<event>
11    0  0.3485800E-009  0.9118800E+02  0.7816531E-02  0.1126479E+00
         25   -1    0    0    0    0  0.00000000000E+00  0.00000000000E+00  0.99999998245E-14  0.12500000000E+03  0.12500000000E+03 0.  0.
    3000001    1    3    3    0    0  0.27668011333E-01 -0.79353582699E+01 -0.51489925646E+01  0.95122447835E+01  0.10000000000E+01 0.  1.
    1000022    2    1    0    0    0 -0.17713013213E+02 -0.55567675809E+02 -0.20117965877E+02  0.62499999098E+02  0.99999952173E+01 0.  0.
    3000022    2    3    3    0    0 -0.17740681224E+02 -0.47632317539E+02 -0.14968973313E+02  0.52987754315E+02  0.25000168518E+00 0.  0.
    1000022    2    1    0    0    0  0.17713013213E+02  0.55567675809E+02  0.20117965877E+02  0.62500000902E+02  0.10000006487E+02 0.  0.
    3000022    2    5    5    0    0 -0.90644885587E+00  0.57239800469E+00  0.45214629629E+00  0.11900554742E+01  0.25001350831E+00 0.  0.
        -13    1    4    4    0    0 -0.12061860901E+02 -0.32238519374E+02 -0.10132296658E+02  0.35881542336E+02  0.10500000000E+00 0.  1.
         13    1    4    4    0    0 -0.56788203229E+01 -0.15393798165E+02 -0.48366766547E+01  0.17106211979E+02  0.10500000000E+00 0. -1.
    3000001    1    5    5    0    0  0.18619462068E+02  0.54995277804E+02  0.19665819581E+02  0.61309945427E+02  0.10000000000E+01 0. -1.
        -13    1    6    6    0    0 -0.39596350545E+00  0.26342495903E+00  0.13108165831E+00  0.50436812730E+00  0.10500000000E+00 0.  1.
         13    1    6    6    0    0 -0.51048535041E+00  0.30897304566E+00  0.32106463798E+00  0.68568734690E+00  0.10500000000E+00 0. -1.
</event>
<event>
11    0  0.3485800E-009  0.9118800E+02  0.7816531E-02  0.1126479E+00
         25   -1    0    0    0    0  0.00000000000E+00  0.00000000000E+00  0.99999998245E-14  0.12500000000E+03  0.12500000000E+03 0.  0.
    3000001    1    3    3    0    0 -0.27213580960E+02 -0.47144355259E+02 -0.14963637345E+02  0.56463082311E+02  0.10000000000E+01 0. -1.
    1000022    2    1    0    0    0 -0.27904458190E+02 -0.51685716556E+02 -0.18872680129E+02  0.62500001297E+02  0.10000001204E+02 0.  0.
    3000022    2    3    3    0    0 -0.69087723007E+00 -0.45413612974E+01 -0.39090427839E+01  0.60369189865E+01  0.25000316383E+00 0.  0.
    1000022    2    1    0    0    0  0.27904458190E+02  0.51685716556E+02  0.18872680129E+02  0.62499998703E+02  0.99999849878E+01 0.  0.
    3000022    2    5    5    0    0  0.22018490466E+02  0.36360752592E+02  0.94542074636E+01  0.43547247876E+02  0.25001465977E+00 0.  0.
        -13    1    4    4    0    0 -0.25423794220E+00 -0.15441373858E+01 -0.14010411368E+01  0.21030783306E+01  0.10500000000E+00 0. -1.
         13    1    4    4    0    0 -0.43663928787E+00 -0.29972239116E+01 -0.25080016471E+01  0.39338406559E+01  0.10500000000E+00 0.  1.
    3000001    1    5    5    0    0  0.58859677242E+01  0.15324963964E+02  0.94184726654E+01  0.18952750827E+02  0.10000000000E+01 0. -1.
        -13    1    6    6    0    0  0.90479786388E+01  0.14920980176E+02  0.39457789061E+01  0.17890829020E+02  0.10500000000E+00 0.  1.
         13    1    6    6    0    0  0.12970511827E+02  0.21439772417E+02  0.55084285575E+01  0.25656418856E+02  0.10500000000E+00 0. -1.
</event>
<event>
11    0  0.3485800E-009  0.9118800E+02  0.7816531E-02  0.1126479E+00
         25   -1    0    0    0    0  0.00000000000E+00  0.00000000000E+00  0.99999998245E-14  0.12500000000E+03  0.12500000000E+03 0.  0.
    3000001    1    3    3    0    0  0.44090133188E+02  0.91416931001E+01 -0.89316113002E+01  0.45916054683E+02  0.10000000000E+01 0. -1.
    1000022    2    1    0    0    0  0.59107560529E+02  0.78458307250E+01 -0.15842642825E+02  0.62500000010E+02  0.99999949031E+01 0.  0.
    3000022    2    3    3    0    0  0.15017427341E+02 -0.12958623750E+01 -0.69110315250E+01  0.16583945327E+02  0.25000521399E+00 0.  0.
    1000022    2    1    0    0    0 -0.59107560529E+02 -0.78458307250E+01  0.15842642825E+02  0.62499999990E+02  0.99999947783E+01 0.  0.
    3000022    2    5    5    0    0 -0.47055632177E+01  0.20732486038E+01  0.15149323849E+01  0.53663957567E+01  0.24999663470E+00 0.  0.
        -13    1    4    4    0    0  0.41411685947E+01 -0.36300022705E+00 -0.19479847914E+01  0.45920274653E+01  0.10500000000E+00 0.  1.
         13    1    4    4    0    0  0.10876258747E+02 -0.93286214798E+00 -0.49630467336E+01  0.11991917861E+02  0.10500000000E+00 0. -1.
    3000001    1    5    5    0    0 -0.54401997312E+02 -0.99190793289E+01  0.14327710440E+02  0.57133604233E+02  0.10000000000E+01 0. -1.
        -13    1    6    6    0    0 -0.29792183408E+01  0.13673786103E+01  0.93367832376E+00  0.34100214659E+01  0.10500000000E+00 0. -1.
         13    1    6    6    0    0 -0.17263448770E+01  0.70586999357E+00  0.58125406114E+00  0.19563742908E+01  0.10500000000E+00 0.  1.
</event>
<event>
11    0  0.3485800E-009  0.9118800E+02  0.7816531E-02  0.1126479E+00
         25   -1    0    0    0    0  0.00000000000E+00  0.00000000000E+00  0.99999998245E-14  0.12500000000E+03  0.12500000000E+03 0.  0.
    3000001    1    3    3    0    0 -0.34697700325E+01  0.34736020658E+01  0.60710500104E+02  0.60916910939E+02  0.10000000000E+01 0. -1.
    1000022    2    1    0    0    0 -0.37619500174E+01  0.48514514539E+01  0.61388608077E+02  0.62499999192E+02  0.99999924068E+01 0.  0.
    3000022    2    3    3    0    0 -0.29217998496E+00  0.13778493881E+01  0.67810797303E+00  0.15830882530E+01  0.24999982732E+00 0.  0.
    1000022    2    1    0    0    0  0.37619500174E+01 -0.48514514539E+01 -0.61388608077E+02  0.62500000808E+02  0.10000002512E+02 0.  0.
    3000022    2    5    5    0    0  0.27707161241E+01  0.26500237346E+01 -0.14813518167E+02  0.15303669650E+02  0.24998129416E+00 0.  0.
        -13    1    4    4    0    0 -0.51059964061E-01  0.46197052107E+00  0.19674009000E+00  0.51551483517E+00  0.10500000000E+00 0. -1.
         13    1    4    4    0    0 -0.24112002090E+00  0.91587886707E+00  0.48136788303E+00  0.10675734178E+01  0.10500000000E+00 0.  1.
    3000001    1    5    5    0    0  0.99123389338E+00 -0.75014751885E+01 -0.46575089910E+02  0.47196331158E+02  0.10000000000E+01 0. -1.
        -13    1    6    6    0    0  0.20571319023E+01  0.19953957475E+01 -0.11135015377E+02  0.11498390683E+02  0.10500000000E+00 0. -1.
         13    1    6    6    0    0  0.71358422173E+00  0.65462798716E+00 -0.36785027901E+01  0.38052789674E+01  0.10500000000E+00 0.  1.
</event>
<event>
11    0  0.3485800E-009  0.9118800E+02  0.7816531E-02  0.1126479E+00
         25   -1    0    0    0    0  0.00000000000E+00  0.00000000000E+00  0.99999998245E-14  0.12500000000E+03  0.12500000000E+03 0.  0.
    3000001    1    3    3    0    0  0.17045483710E+02  0.54703840276E+00  0.26838875541E+02  0.31814666526E+02  0.10000000000E+01 0.  1.
    1000022    2    1    0    0    0  0.25316202470E+02  0.51750448876E+01  0.56022842810E+02  0.62499999861E+02  0.99999934517E+01 0.  0.
    3000022    2    3    3    0    0  0.82707187606E+01  0.46280064848E+01  0.29183967270E+02  0.30685333335E+02  0.25000687814E+00 0.  0.
    1000022    2    1    0    0    0 -0.25316202470E+02 -0.51750448876E+01 -0.56022842810E+02  0.62500000139E+02  0.99999951850E+01 0.  0.
    3000022    2    5    5    0    0 -0.13212680334E+02 -0.11540552455E+01 -0.39078094436E+02  0.41268229057E+02  0.24999924516E+00 0.  0.
        -13    1    4    4    0    0  0.54673307077E+01  0.30117755718E+01  0.19334286216E+02  0.20317188429E+02  0.10500000000E+00 0.  1.
         13    1    4    4    0    0  0.28033880529E+01  0.16162309131E+01  0.98496810538E+01  0.10368144906E+02  0.10500000000E+00 0. -1.
    3000001    1    5    5    0    0 -0.12103522137E+02 -0.40209896421E+01 -0.16944748374E+02  0.21231771082E+02  0.10000000000E+01 0. -1.
        -13    1    6    6    0    0 -0.87509753452E+01 -0.80496731327E+00 -0.26002868295E+02  0.27447909327E+02  0.10500000000E+00 0. -1.
         13    1    6    6    0    0 -0.44617049884E+01 -0.34908793226E+00 -0.13075226141E+02  0.13820319730E+02  0.10500000000E+00 0.  1.
</event>
<event>
11    0  0.3485800E-009  0.9118800E+02  0.7816531E-02  0.1126479E+00
         25   -1    0    0    0    0  0.00000000000E+00  0.00000000000E+00  0.99999998245E-14  0.12500000000E+03  0.12500000000E+03 0.  0.
    3000001    1    3    3    0    0 -0.27485406786E+02  0.16192184443E+02  0.55827989106E+01  0.32400649174E+02  0.10000000000E+01 0.  1.
    1000022    2    1    0    0    0 -0.53248933933E+02  0.25278086200E+02  0.18215908738E+02  0.62499999675E+02  0.10000001067E+02 0.  0.
    3000022    2    3    3    0    0 -0.25763527146E+02  0.90859017572E+01  0.12633109828E+02  0.30099350501E+02  0.24998979935E+00 0.  0.
    1000022    2    1    0    0    0  0.53248933933E+02 -0.25278086200E+02 -0.18215908738E+02  0.62500000325E+02  0.10000005127E+02 0.  0.
    3000022    2    5    5    0    0  0.25712456724E+02 -0.17209769337E+02 -0.73605813414E+01  0.31804830558E+02  0.24999556431E+00 0.  0.
        -13    1    4    4    0    0 -0.81550070340E+01  0.28860449511E+01  0.39464714420E+01  0.95088935753E+01  0.10500000000E+00 0.  1.
         13    1    4    4    0    0 -0.17608520112E+02  0.61998568061E+01  0.86866383858E+01  0.20590456926E+02  0.10500000000E+00 0. -1.
    3000001    1    5    5    0    0  0.27536477209E+02 -0.80683168633E+01 -0.10855327397E+02  0.30695169766E+02  0.10000000000E+01 0.  1.
        -13    1    6    6    0    0  0.17678100627E+02 -0.11820406913E+02 -0.51083715011E+01  0.21871070979E+02  0.10500000000E+00 0.  1.
         13    1    6    6    0    0  0.80343560967E+01 -0.53893624235E+01 -0.22522098403E+01  0.99337595796E+01  0.10500000000E+00 0. -1.
</event>
<event>
11    0  0.3485800E-009  0.9118800E+02  0.7816531E-02  0.1126479E+00
         25   -1    0    0    0    0  0.00000000000E+00  0.00000000000E+00  0.99999998245E-14  0.12500000000E+03  0.12500000000E+03 0.  0.
    3000001    1    3    3    0    0  0.22912651861E+02 -0.19878944630E+02 -0.92044356849E+00  0.30364605568E+02  0.10000000000E+01 0.  1.
    1000022    2    1    0    0    0  0.43537518173E+02 -0.43087559695E+02  0.73618371933E+01  0.62500000211E+02  0.10000004523E+02 0.  0.
    3000022    2    3    3    0    0  0.20624866312E+02 -0.23208615064E+02  0.82822807618E+01  0.32135394643E+02  0.24998138047E+00 0.  0.
    1000022    2    1    0    0    0 -0.43537518173E+02  0.43087559695E+02 -0.73618371933E+01  0.62499999789E+02  0.10000001879E+02 0.  0.
    3000022    2    5    5    0    0 -0.46118045560E+01  0.53640242724E+01  0.22751205270E+01  0.74350630368E+01  0.24998258243E+00 0.  0.
        -13    1    4    4    0    0  0.10201584113E+02 -0.11530486666E+02  0.40459668895E+01  0.15918709566E+02  0.10500000000E+00 0.  1.
         13    1    4    4    0    0  0.10423282199E+02 -0.11678128398E+02  0.42363138723E+01  0.16216685077E+02  0.10500000000E+00 0. -1.
    3000001    1    5    5    0    0 -0.38925713617E+02  0.37723535422E+02 -0.96369577204E+01  0.55064936752E+02  0.10000000000E+01 0.  1.
        -13    1    6    6    0    0 -0.33799742896E+01  0.38826519905E+01  0.16747851026E+01  0.54143460194E+01  0.10500000000E+00 0.  1.
         13    1    6    6    0    0 -0.12318302665E+01  0.14813722819E+01  0.60033542450E+00  0.20207170175E+01  0.10500000000E+00 0. -1.
</event>
<event>
11    0  0.3485800E-009  0.9118800E+02  0.7816531E-02  0.1126479E+00
         25   -1    0    0    0    0  0.00000000000E+00  0.00000000000E+00  0.99999998245E-14  0.12500000000E+03  0.12500000000E+03 0.  0.
    3000001    1    3    3    0    0 -0.12610249435E+02  0.27230299444E+02  0.71819035747E+01  0.30872112619E+02  0.10000000000E+01 0. -1.
    1000022    2    1    0    0    0 -0.33624799889E+02  0.49326885001E+02  0.15571785061E+02  0.62499996442E+02  0.10000015689E+02 0.  0.
    3000022    2    3    3    0    0 -0.21014550453E+02  0.22096585558E+02  0.83898814867E+01  0.31627883823E+02  0.24999939570E+00 0.  0.
    1000022    2    1    0    0    0  0.33624799889E+02 -0.49326885001E+02 -0.15571785061E+02  0.62500003558E+02  0.10000060163E+02 0.  0.
    3000022    2    5    5    0    0  0.19786903110E+02 -0.28037266375E+02 -0.39058390916E+01  0.34538788565E+02  0.24999211960E+00 0.  0.
        -13    1    4    4    0    0 -0.14112701592E+02  0.14844629048E+02  0.55809957836E+01  0.21229458230E+02  0.10500000000E+00 0. -1.
         13    1    4    4    0    0 -0.69018488609E+01  0.72519565097E+01  0.28088857031E+01  0.10398425593E+02  0.10500000000E+00 0.  1.
    3000001    1    5    5    0    0  0.13837896779E+02 -0.21289618626E+02 -0.11665945970E+02  0.27961214993E+02  0.10000000000E+01 0. -1.
        -13    1    6    6    0    0  0.15017310322E+02 -0.21308500695E+02 -0.29768577363E+01  0.26238226277E+02  0.10500000000E+00 0. -1.
         13    1    6    6    0    0  0.47695927885E+01 -0.67287656798E+01 -0.92898135532E+00  0.83005622882E+01  0.10500000000E+00 0.  1.
</event>
<event>
11    0  0.3485800E-009  0.9118800E+02  0.7816531E-02  0.1126479E+00
         25   -1    0    0    0    0  0.00000000000E+00  0.00000000000E+00  0.99999998245E-14  0.12500000000E+03  0.12500000000E+03 0.  0.
    3000001    1    3    3    0    0  0.25718850403E+02  0.21291462388E+02  0.10597815253E+02  0.35044248099E+02  0.10000000000E+01 0. -1.
    1000022    2    1    0    0    0  0.45986068023E+02  0.32242550644E+02  0.25533318020E+02  0.62499997754E+02  0.99999432934E+01 0.  0.
    3000022    2    3    3    0    0  0.20267217620E+02  0.10951088256E+02  0.14935502768E+02  0.27455749655E+02  0.25000432245E+00 0.  0.
    1000022    2    1    0    0    0 -0.45986068023E+02 -0.32242550644E+02 -0.25533318020E+02  0.62500002246E+02  0.99999713703E+01 0.  0.
    3000022    2    5    5    0    0 -0.95993676899E+01 -0.64637113098E+01 -0.10625089694E+01  0.11624064769E+02  0.25006500949E+00 0.  0.
        -13    1    4    4    0    0  0.87758964224E+01  0.47274327015E+01  0.65396856484E+01  0.11922394531E+02  0.10500000000E+00 0.  1.
         13    1    4    4    0    0  0.11491321198E+02  0.62236555541E+01  0.83958171194E+01  0.15533355125E+02  0.10500000000E+00 0. -1.
    3000001    1    5    5    0    0 -0.36386700333E+02 -0.25778839334E+02 -0.24470809051E+02  0.50875937477E+02  0.10000000000E+01 0. -1.
        -13    1    6    6    0    0 -0.69307468089E+01 -0.46881530456E+01 -0.73354207331E+00  0.84001868599E+01  0.10500000000E+00 0.  1.
         13    1    6    6    0    0 -0.26686208810E+01 -0.17755582642E+01 -0.32896689612E+00  0.32238779094E+01  0.10500000000E+00 0. -1.
</event>
<event>
11    0  0.3485800E-009  0.9118800E+02  0.7816531E-02  0.1126479E+00
         25   -1    0    0    0    0  0.00000000000E+00  0.00000000000E+00  0.99999998245E-14  0.12500000000E+03  0.12500000000E+03 0.  0.
    3000001    1    3    3    0    0  0.75340805144E+00  0.52365016898E+02 -0.16938133354E+02  0.55050549316E+02  0.10000000000E+01 0.  1.
    1000022    2    1    0    0    0 -0.17415442731E+01  0.59374640850E+02 -0.16669398736E+02  0.62500001153E+02  0.10000016872E+02 0.  0.
    3000022    2    3    3    0    0 -0.24949523246E+01  0.70096239515E+01  0.26873461789E+00  0.74494518374E+01  0.24999868154E+00 0.  0.
    1000022    2    1    0    0    0  0.17415442731E+01 -0.59374640850E+02  0.16669398736E+02  0.62499998847E+02  0.10000002456E+02 0.  0.
    3000022    2    5    5    0    0 -0.54031493775E+00 -0.35436152943E+02  0.14643188479E+02  0.38347077435E+02  0.25000666209E+00 0.  0.
        -13    1    4    4    0    0 -0.14685048382E+01  0.40880680730E+01  0.93568869405E-01  0.43461002246E+01  0.10500000000E+00 0. -1.
         13    1    4    4    0    0 -0.10264474863E+01  0.29215558785E+01  0.17516574849E+00  0.31033516128E+01  0.10500000000E+00 0.  1.
    3000001    1    5    5    0    0  0.22818592109E+01 -0.23938487907E+02  0.20262102573E+01  0.24152921412E+02  0.10000000000E+01 0. -1.
        -13    1    6    6    0    0 -0.34640652237E+00 -0.22730558960E+02  0.94554124356E+01  0.24621416642E+02  0.10500000000E+00 0.  1.
         13    1    6    6    0    0 -0.19390841538E+00 -0.12705593983E+02  0.51877760434E+01  0.13725660793E+02  0.10500000000E+00 0. -1.
</event>
<event>
11    0  0.3485800E-009  0.9118800E+02  0.7816531E-02  0.1126479E+00
         25   -1    0    0    0    0  0.00000000000E+00  0.00000000000E+00  0.99999998245E-14  0.12500000000E+03  0.12500000000E+03 0.  0.
    3000001    1    3    3    0    0  0.14605392495E+02 -0.47770427536E+01  0.52236039974E+01  0.16261109006E+02  0.10000000000E+01 0.  1.
    1000022    2    1    0    0    0  0.57585390961E+02 -0.20144950549E+01  0.22047998564E+02  0.62499996202E+02  0.99999921051E+01 0.  0.
    3000022    2    3    3    0    0  0.42979998466E+02  0.27625476987E+01  0.16824394567E+02  0.46238887195E+02  0.24999720372E+00 0.  0.
    1000022    2    1    0    0    0 -0.57585390961E+02  0.20144950549E+01 -0.22047998564E+02  0.62500003798E+02  0.10000039581E+02 0.  0.
    3000022    2    5    5    0    0 -0.97685566911E+01  0.18316149319E+01 -0.76738078940E+01  0.12559034222E+02  0.24999983887E+00 0.  0.
        -13    1    4    4    0    0  0.20445567070E+02  0.13815761991E+01  0.80113658988E+01  0.22002794690E+02  0.10500000000E+00 0.  1.
         13    1    4    4    0    0  0.22534431396E+02  0.13809714996E+01  0.88130286677E+01  0.24236092505E+02  0.10500000000E+00 0. -1.
    3000001    1    5    5    0    0 -0.47816834270E+02  0.18288012302E+00 -0.14374190670E+02  0.49940969576E+02  0.10000000000E+01 0.  1.
        -13    1    6    6    0    0 -0.66621851268E+01  0.12794979563E+01 -0.51859978268E+01  0.85397555084E+01  0.10500000000E+00 0.  1.
         13    1    6    6    0    0 -0.31063715643E+01  0.55211697561E+00 -0.24878100673E+01  0.40192787140E+01  0.10500000000E+00 0. -1.
</event>
<event>
11    0  0.3485800E-009  0.9118800E+02  0.7816531E-02  0.1126479E+00
         25   -1    0    0    0    0  0.00000000000E+00  0.00000000000E+00  0.99999998245E-14  0.12500000000E+03  0.12500000000E+03 0.  0.
    3000001    1    3    3    0    0 -0.12390478305E+02  0.11797148289E+02 -0.96854379397E+01  0.19685130644E+02  0.10000000000E+01 0. -1.
    1000022    2    1    0    0    0 -0.30806342443E+02  0.47449921178E+02 -0.24611464572E+02  0.62500000001E+02  0.10000002860E+02 0.  0.
    3000022    2    3    3    0    0 -0.18415864139E+02  0.35652772889E+02 -0.14926026632E+02  0.42814869357E+02  0.25000081619E+00 0.  0.
    1000022    2    1    0    0    0  0.30806342443E+02 -0.47449921178E+02  0.24611464572E+02  0.62499999999E+02  0.10000002844E+02 0.  0.
    3000022    2    5    5    0    0  0.31992343361E+01 -0.10811223026E+02  0.24413894917E+01  0.11538653378E+02  0.24999092829E+00 0.  0.
        -13    1    4    4    0    0 -0.74088663940E+01  0.14456182269E+02 -0.60814817107E+01  0.17345545591E+02  0.10500000000E+00 0. -1.
         13    1    4    4    0    0 -0.11006997745E+02  0.21196590620E+02 -0.88445449218E+01  0.25469323767E+02  0.10500000000E+00 0.  1.
    3000001    1    5    5    0    0  0.27607108107E+02 -0.36638698152E+02  0.22170075081E+02  0.50961346621E+02  0.10000000000E+01 0.  1.
        -13    1    6    6    0    0  0.22310826381E+01 -0.76408964608E+01  0.16891224887E+01  0.81378859813E+01  0.10500000000E+00 0. -1.
         13    1    6    6    0    0  0.96815169798E+00 -0.31703265657E+01  0.75226700300E+00  0.34007673968E+01  0.10500000000E+00 0.  1.
</event>
<event>
11    0  0.3485800E-009  0.9118800E+02  0.7816531E-02  0.1126479E+00
         25   -1    0    0    0    0  0.00000000000E+00  0.00000000000E+00  0.99999998245E-14  0.12500000000E+03  0.12500000000E+03 0.  0.
    3000001    1    3    3    0    0  0.96353929739E+01  0.32057049063E+01 -0.81454138099E+01  0.13056228699E+02  0.10000000000E+01 0. -1.
    1000022    2    1    0    0    0  0.41066105499E+02 -0.15467456137E+01 -0.46015567441E+02  0.62499999954E+02  0.10000005225E+02 0.  0.
    3000022    2    3    3    0    0  0.31430712525E+02 -0.47524505200E+01 -0.37870153631E+02  0.49443771255E+02  0.25000820823E+00 0.  0.
    1000022    2    1    0    0    0 -0.41066105499E+02  0.15467456137E+01  0.46015567441E+02  0.62500000046E+02  0.10000005797E+02 0.  0.
    3000022    2    5    5    0    0 -0.11389041698E+02 -0.47951675937E+00  0.68235396563E+01  0.13287716041E+02  0.24999405833E+00 0.  0.
        -13    1    4    4    0    0  0.24127552382E+02 -0.36379364470E+01 -0.29075738722E+02  0.37957647092E+02  0.10500000000E+00 0.  1.
         13    1    4    4    0    0  0.73031601431E+01 -0.11145140730E+01 -0.87944149098E+01  0.11486124164E+02  0.10500000000E+00 0. -1.
    3000001    1    5    5    0    0 -0.29677063801E+02  0.20262623730E+01  0.39192027785E+02  0.49212284004E+02  0.10000000000E+01 0. -1.
        -13    1    6    6    0    0 -0.68834354126E+01 -0.30010750507E+00  0.40520471720E+01  0.79938638266E+01  0.10500000000E+00 0.  1.
         13    1    6    6    0    0 -0.45056062856E+01 -0.17940925430E+00  0.27714924844E+01  0.52938522148E+01  0.10500000000E+00 0. -1.
</event>
<event>
11    0  0.3485800E-009  0.9118800E+02  0.7816531E-02  0.1126479E+00
         25   -1    0    0    0    0  0.00000000000E+00  0.00000000000E+00  0.99999998245E-14  0.12500000000E+03  0.12500000000E+03 0.  0.
    3000001    1    3    3    0    0 -0.59694196564E+01  0.78068896670E+00 -0.48215353697E+02  0.48600038873E+02  0.10000000000E+01 0.  1.
    1000022    2    1    0    0    0 -0.12152599811E+02  0.33533680300E+01 -0.60393038829E+02  0.62499999582E+02  0.10000002470E+02 0.  0.
    3000022    2    3    3    0    0 -0.61831801550E+01  0.25726790633E+01 -0.12177685132E+02  0.13899960709E+02  0.24999629678E+00 0.  0.
    1000022    2    1    0    0    0  0.12152599811E+02 -0.33533680300E+01  0.60393038829E+02  0.62500000418E+02  0.10000007699E+02 0.  0.
    3000022    2    5    5    0    0  0.54488951491E+01 -0.16731172501E+01  0.91480930376E+01  0.10781460531E+02  0.25001057583E+00 0.  0.
        -13    1    4    4    0    0 -0.28357479271E+01  0.12526143608E+01 -0.56409090673E+01  0.64374986717E+01  0.10500000000E+00 0.  1.
         13    1    4    4    0    0 -0.33474322279E+01  0.13200647025E+01 -0.65367760647E+01  0.74624620374E+01  0.10500000000E+00 0.  1.
    3000001    1    5    5    0    0  0.67037046623E+01 -0.16802507799E+01  0.51244945791E+02  0.51718539887E+02  0.10000000000E+01 0.  1.
        -13    1    6    6    0    0  0.37707525545E+01 -0.12053594459E+01  0.63244472191E+01  0.74619785478E+01  0.10500000000E+00 0.  1.
         13    1    6    6    0    0  0.16781425946E+01 -0.46775780416E+00  0.28236458185E+01  0.33194819836E+01  0.10500000000E+00 0. -1.
</event>
<event>
11    0  0.3485800E-009  0.9118800E+02  0.7816531E-02  0.1126479E+00
         25   -1    0    0    0    0  0.00000000000E+00  0.00000000000E+00  0.99999998245E-14  0.12500000000E+03  0.12500000000E+03 0.  0.
    3000001    1    3    3    0    0 -0.48253396426E+01  0.13912462028E+01  0.16618451699E+02  0.17389433732E+02  0.10000000000E+01 0.  1.
    1000022    2    1    0    0    0 -0.30395077990E+02  0.10439055393E+02  0.52663230136E+02  0.62499997094E+02  0.99999592404E+01 0.  0.
    3000022    2    3    3    0    0 -0.25569738347E+02  0.90478091907E+01  0.36044778438E+02  0.45110563362E+02  0.25000777085E+00 0.  0.
    1000022    2    1    0    0    0  0.30395077990E+02 -0.10439055393E+02 -0.52663230136E+02  0.62500002906E+02  0.99999955681E+01 0.  0.
    3000022    2    5    5    0    0  0.60288567678E+01  0.18357002479E+01 -0.11245712550E+02  0.12893621001E+02  0.25000487115E+00 0.  0.
        -13    1    4    4    0    0 -0.17451477362E+02  0.61863909554E+01  0.24686706397E+02  0.30858872191E+02  0.10500000000E+00 0.  1.
         13    1    4    4    0    0 -0.81182609849E+01  0.28614182352E+01  0.11358072041E+02  0.14251691171E+02  0.10500000000E+00 0. -1.
    3000001    1    5    5    0    0  0.24366221222E+02 -0.12274755641E+02 -0.41417517586E+02  0.49606381905E+02  0.10000000000E+01 0.  1.
        -13    1    6    6    0    0  0.19648418008E+01  0.58589202668E+00 -0.37650688254E+01  0.42884310685E+01  0.10500000000E+00 0.  1.
         13    1    6    6    0    0  0.40640149670E+01  0.12498082212E+01 -0.74806437247E+01  0.86051899327E+01  0.10500000000E+00 0. -1.
</event>
<event>
11    0  0.3485800E-009  0.9118800E+02  0.7816531E-02  0.1126479E+00
         25   -1    0    0    0    0  0.00000000000E+00  0.00000000000E+00  0.99999998245E-14  0.12500000000E+03  0.12500000000E+03 0.  0.
    3000001    1    3    3    0    0  0.41989108161E+01 -0.98456819781E+00 -0.26495184058E+01  0.51594742329E+01  0.10000000000E+01 0. -1.
    1000022    2    1    0    0    0  0.35609553265E+02 -0.39186342519E+02 -0.31664500037E+02  0.62499998123E+02  0.99999739507E+01 0.  0.
    3000022    2    3    3    0    0  0.31410642449E+02 -0.38201774321E+02 -0.29014981631E+02  0.57340523890E+02  0.25000114932E+00 0.  0.
    1000022    2    1    0    0    0 -0.35609553265E+02  0.39186342519E+02  0.31664500037E+02  0.62500001877E+02  0.99999974150E+01 0.  0.
    3000022    2    5    5    0    0 -0.77023988980E+01  0.14707928132E+02  0.11939294045E+02  0.20451389686E+02  0.24999815681E+00 0.  0.
        -13    1    4    4    0    0  0.15912615396E+02 -0.19385614272E+02 -0.14638900119E+02  0.29040003291E+02  0.10500000000E+00 0.  1.
         13    1    4    4    0    0  0.15498027053E+02 -0.18816160049E+02 -0.14376081513E+02  0.28300520599E+02  0.10500000000E+00 0. -1.
    3000001    1    5    5    0    0 -0.27907154367E+02  0.24478414386E+02  0.19725205993E+02  0.42048612191E+02  0.10000000000E+01 0.  1.
        -13    1    6    6    0    0 -0.45171142255E+01  0.85819367580E+01  0.68984499568E+01  0.11901831634E+02  0.10500000000E+00 0.  1.
         13    1    6    6    0    0 -0.31852846725E+01  0.61259913742E+01  0.50408440879E+01  0.85495580517E+01  0.10500000000E+00 0. -1.
</event>
<event>
11    0  0.3485800E-009  0.9118800E+02  0.7816531E-02  0.1126479E+00
         25   -1    0    0    0    0  0.00000000000E+00  0.00000000000E+00  0.99999998245E-14  0.12500000000E+03  0.12500000000E+03 0.  0.
    3000001    1    3    3    0    0  0.10811949103E+02 -0.26525030143E+02 -0.62987572643E+01  0.29345354157E+02  0.10000000000E+01 0. -1.
    1000022    2    1    0    0    0  0.13622251660E+02 -0.57412743726E+02 -0.18012812533E+02  0.62499995386E+02  0.99999562702E+01 0.  0.
    3000022    2    3    3    0    0  0.28103025571E+01 -0.30887713583E+02 -0.11714055269E+02  0.33154641229E+02  0.24998668070E+00 0.  0.
    1000022    2    1    0    0    0 -0.13622251660E+02  0.57412743726E+02  0.18012812533E+02  0.62500004614E+02  0.10000013946E+02 0.  0.
    3000022    2    5    5    0    0 -0.87014652662E+01  0.19094165661E+02  0.88984887734E+01  0.22793601336E+02  0.24999868971E+00 0.  0.
        -13    1    4    4    0    0  0.20800755891E+01 -0.22487617050E+02 -0.85442985934E+01  0.24146132164E+02  0.10500000000E+00 0.  1.
         13    1    4    4    0    0  0.73022696792E+00 -0.84000965334E+01 -0.31697566755E+01  0.90085090651E+01  0.10500000000E+00 0. -1.
    3000001    1    5    5    0    0 -0.49207863941E+01  0.38318578065E+02  0.91143237598E+01  0.39706403278E+02  0.10000000000E+01 0. -1.
        -13    1    6    6    0    0 -0.51927323412E+01  0.11451504695E+02  0.52684733318E+01  0.13633387884E+02  0.10500000000E+00 0.  1.
         13    1    6    6    0    0 -0.35087329250E+01  0.76426609663E+01  0.36300154416E+01  0.91602134523E+01  0.10500000000E+00 0. -1.
</event>
<event>
11    0  0.3485800E-009  0.9118800E+02  0.7816531E-02  0.1126479E+00
         25   -1    0    0    0    0  0.00000000000E+00  0.00000000000E+00  0.99999998245E-14  0.12500000000E+03  0.12500000000E+03 0.  0.
    3000001    1    3    3    0    0  0.26473426443E+02  0.55533025996E+01 -0.14313005679E+02  0.30619333908E+02  0.10000000000E+01 0. -1.
    1000022    2    1    0    0    0  0.56735776481E+02  0.31048627444E+01 -0.24034601921E+02  0.62499996088E+02  0.99999457969E+01 0.  0.
    3000022    2    3    3    0    0  0.30262350038E+02 -0.24484398552E+01 -0.97215962425E+01  0.31880662181E+02  0.25000002066E+00 0.  0.
    1000022    2    1    0    0    0 -0.56735776481E+02 -0.31048627444E+01  0.24034601921E+02  0.62500003912E+02  0.99999946957E+01 0.  0.
    3000022    2    5    5    0    0 -0.55451502783E+02 -0.42364549015E+01  0.22498743680E+02  0.59992271814E+02  0.24999824060E+00 0.  0.
        -13    1    4    4    0    0  0.19708410717E+02 -0.15401875902E+01 -0.63458637137E+01  0.20762337105E+02  0.10500000000E+00 0.  1.
         13    1    4    4    0    0  0.10553939321E+02 -0.90825226504E+00 -0.33757325288E+01  0.11118325075E+02  0.10500000000E+00 0. -1.
    3000001    1    5    5    0    0 -0.12842736978E+01  0.11315921571E+01  0.15358582407E+01  0.25077320982E+01  0.10000000000E+01 0.  1.
        -13    1    6    6    0    0 -0.26911536328E+02 -0.19942211658E+01  0.10886816447E+02  0.29098823051E+02  0.10500000000E+00 0. -1.
         13    1    6    6    0    0 -0.28539966455E+02 -0.22422337357E+01  0.11611927234E+02  0.30893448763E+02  0.10500000000E+00 0.  1.
</event>
<event>
11    0  0.3485800E-009  0.9118800E+02  0.7816531E-02  0.1126479E+00
         25   -1    0    0    0    0  0.00000000000E+00  0.00000000000E+00  0.99999998245E-14  0.12500000000E+03  0.12500000000E+03 0.  0.
    3000001    1    3    3    0    0  0.17267268460E+02 -0.16738126269E+02  0.29772446885E+02  0.38284749243E+02  0.10000000000E+01 0.  1.
    1000022    2    1    0    0    0  0.32122831522E+02 -0.20496221918E+02  0.48520908964E+02  0.62499999901E+02  0.99999981525E+01 0.  0.
    3000022    2    3    3    0    0  0.14855563062E+02 -0.37580956492E+01  0.18748462079E+02  0.24215250658E+02  0.24999464914E+00 0.  0.
    1000022    2    1    0    0    0 -0.32122831522E+02  0.20496221918E+02 -0.48520908964E+02  0.62500000099E+02  0.99999993870E+01 0.  0.
    3000022    2    5    5    0    0 -0.11731908209E+02  0.12690978046E+02 -0.24980316675E+02  0.30377250049E+02  0.25001071637E+00 0.  0.
        -13    1    4    4    0    0  0.79374911006E+01 -0.19646552250E+01  0.99212749051E+01  0.12857151935E+02  0.10500000000E+00 0.  1.
         13    1    4    4    0    0  0.69180719610E+01 -0.17934404242E+01  0.88271871737E+01  0.11358098724E+02  0.10500000000E+00 0. -1.
    3000001    1    5    5    0    0 -0.20390923312E+02  0.78052438723E+01 -0.23540592289E+02  0.32122750050E+02  0.10000000000E+01 0.  1.
        -13    1    6    6    0    0 -0.54819823361E+01  0.59108257918E+01 -0.11768307228E+02  0.14265134836E+02  0.10500000000E+00 0. -1.
         13    1    6    6    0    0 -0.62499258733E+01  0.67801522544E+01 -0.13212009446E+02  0.16112115213E+02  0.10500000000E+00 0.  1.
</event>
<event>
11    0  0.3485800E-009  0.9118800E+02  0.7816531E-02  0.1126479E+00
         25   -1    0    0    0    0  0.00000000000E+00  0.00000000000E+00  0.99999998245E-14  0.12500000000E+03  0.12500000000E+03 0.  0.
    3000001    1    3    3    0    0  0.13908450966E+02 -0.30273186688E+02  0.34930589041E+02  0.48281019990E+02  0.10000000000E+01 0. -1.
    1000022    2    1    0    0    0  0.21498069007E+02 -0.35152131421E+02  0.45917427449E+02  0.62500004684E+02  0.10000056375E+02 0.  0.
    3000022    2    3    3    0    0  0.75896180412E+01 -0.48789447337E+01  0.10986838408E+02  0.14218984694E+02  0.25000762574E+00 0.  0.
    1000022    2    1    0    0    0 -0.21498069007E+02  0.35152131421E+02 -0.45917427449E+02  0.62499995316E+02  0.99999978231E+01 0.  0.
    3000022    2    5    5    0    0 -0.19189768471E+02  0.24262078842E+02 -0.30359173608E+02  0.43343253444E+02  0.25002656205E+00 0.  0.
        -13    1    4    4    0    0  0.44444523014E+01 -0.27935167922E+01  0.63339947553E+01  0.82272356772E+01  0.10500000000E+00 0.  1.
         13    1    4    4    0    0  0.31451657398E+01 -0.20854279415E+01  0.46528436524E+01  0.59917490171E+01  0.10500000000E+00 0. -1.
    3000001    1    5    5    0    0 -0.23083005358E+01  0.10890052580E+02 -0.15558253841E+02  0.19156741872E+02  0.10000000000E+01 0.  1.
        -13    1    6    6    0    0 -0.66244587277E+01  0.83014932400E+01 -0.10380106383E+02  0.14851123761E+02  0.10500000000E+00 0.  1.
         13    1    6    6    0    0 -0.12565309744E+02  0.15960585602E+02 -0.19979067225E+02  0.28492129683E+02  0.10500000000E+00 0. -1.
</event>
<event>
11    0  0.3485800E-009  0.9118800E+02  0.7816531E-02  0.1126479E+00
         25   -1    0    0    0    0  0.00000000000E+00  0.00000000000E+00  0.99999998245E-14  0.12500000000E+03  0.12500000000E+03 0.  0.
    3000001    1    3    3    0    0  0.27243433408E+02 -0.11663668549E+02 -0.31931484700E+02  0.43575974378E+02  0.10000000000E+01 0. -1.
    1000022    2    1    0    0    0  0.40778530515E+02 -0.10458082165E+02 -0.45099778160E+02  0.62499999973E+02  0.99999986490E+01 0.  0.
    3000022    2    3    3    0    0  0.13535097107E+02  0.12055863840E+01 -0.13168293460E+02  0.18924025594E+02  0.24999964473E+00 0.  0.
    1000022    2    1    0    0    0 -0.40778530515E+02  0.10458082165E+02  0.45099778160E+02  0.62500000027E+02  0.99999989914E+01 0.  0.
    3000022    2    5    5    0    0 -0.99874836800E+01  0.71314293267E+01  0.12242001540E+02  0.17335980403E+02  0.25000060596E+00 0.  0.
        -13    1    4    4    0    0  0.77361047037E+01  0.75417090803E+00 -0.75200312373E+01  0.10815636114E+02  0.10500000000E+00 0. -1.
         13    1    4    4    0    0  0.57989924035E+01  0.45141547602E+00 -0.56482622226E+01  0.81083894802E+01  0.10500000000E+00 0.  1.
    3000001    1    5    5    0    0 -0.30791046835E+02  0.33266528382E+01  0.32857776619E+02  0.45164019625E+02  0.10000000000E+01 0. -1.
        -13    1    6    6    0    0 -0.40423422353E+01  0.29483245741E+01  0.50463882621E+01  0.71070534002E+01  0.10500000000E+00 0.  1.
         13    1    6    6    0    0 -0.59451414447E+01  0.41831047526E+01  0.71956132783E+01  0.10228927002E+02  0.10500000000E+00 0. -1.
</event>
<event>
11    0  0.3485800E-009  0.9118800E+02  0.7816531E-02  0.1126479E+00
         25   -1    0    0    0    0  0.00000000000E+00  0.00000000000E+00  0.99999998245E-14  0.12500000000E+03  0.12500000000E+03 0.  0.
    3000001    1    3    3    0    0  0.97740605354E+01 -0.13117755061E+02  0.93785177677E+01  0.18882911658E+02  0.10000000000E+01 0.  1.
    1000022    2    1    0    0    0  0.40877898848E+02 -0.31474839989E+02  0.33831668748E+02  0.62500000276E+02  0.10000002881E+02 0.  0.
    3000022    2    3    3    0    0  0.31103838313E+02 -0.18357084928E+02  0.24453150981E+02  0.43617088617E+02  0.25000346194E+00 0.  0.
    1000022    2    1    0    0    0 -0.40877898848E+02  0.31474839989E+02 -0.33831668748E+02  0.62499999724E+02  0.99999994331E+01 0.  0.
    3000022    2    5    5    0    0 -0.11971546952E+02  0.14966792005E+02 -0.14045578747E+02  0.23762651006E+02  0.25000230365E+00 0.  0.
        -13    1    4    4    0    0  0.17187919140E+02 -0.10159400135E+02  0.13439220971E+02  0.24067855342E+02  0.10500000000E+00 0. -1.
         13    1    4    4    0    0  0.13915919173E+02 -0.81976847933E+01  0.11013930010E+02  0.19549233275E+02  0.10500000000E+00 0.  1.
    3000001    1    5    5    0    0 -0.28906351896E+02  0.16508047984E+02 -0.19786090001E+02  0.38737348718E+02  0.10000000000E+01 0.  1.
        -13    1    6    6    0    0 -0.70687739999E+01  0.88018858241E+01 -0.83474322380E+01  0.14040349351E+02  0.10500000000E+00 0. -1.
         13    1    6    6    0    0 -0.49027729526E+01  0.61649061807E+01 -0.56981465093E+01  0.97223016556E+01  0.10500000000E+00 0.  1.
</event>
<event>
11    0  0.3485800E-009  0.9118800E+02  0.7816531E-02  0.1126479E+00
         25   -1    0    0    0    0  0.00000000000E+00  0.00000000000E+00  0.99999998245E-14  0.12500000000E+03  0.12500000000E+03 0.  0.
    3000001    1    3    3    0    0  0.26751634741E+01  0.55269278975E+01 -0.17523386492E+02  0.18594959149E+02  0.10000000000E+01 0. -1.
    1000022    2    1    0    0    0  0.23347033049E+02  0.16720620389E+02 -0.54603909648E+02  0.62500000456E+02  0.10000000488E+02 0.  0.
    3000022    2    3    3    0    0  0.20671869575E+02  0.11193692491E+02 -0.37080523156E+02  0.43905041307E+02  0.25002266604E+00 0.  0.
    1000022    2    1    0    0    0 -0.23347033049E+02 -0.16720620389E+02  0.54603909648E+02  0.62499999544E+02  0.99999947899E+01 0.  0.
    3000022    2    5    5    0    0 -0.14326256042E+02 -0.10618908365E+02  0.43014489079E+02  0.46565132850E+02  0.24999918936E+00 0.  0.
        -13    1    4    4    0    0  0.70066872810E+01  0.37677567272E+01 -0.12457115920E+02  0.14781083162E+02  0.10500000000E+00 0. -1.
         13    1    4    4    0    0  0.13665182294E+02  0.74259357639E+01 -0.24623407236E+02  0.29123958145E+02  0.10500000000E+00 0.  1.
    3000001    1    5    5    0    0 -0.90207770068E+01 -0.61017120237E+01  0.11589420570E+02  0.15934866694E+02  0.10000000000E+01 0. -1.
        -13    1    6    6    0    0 -0.45606564346E+01 -0.33960204177E+01  0.13844965470E+02  0.14967519355E+02  0.10500000000E+00 0. -1.
         13    1    6    6    0    0 -0.97655996075E+01 -0.72228879472E+01  0.29169523609E+02  0.31597613494E+02  0.10500000000E+00 0.  1.
</event>
<event>
11    0  0.3485800E-009  0.9118800E+02  0.7816531E-02  0.1126479E+00
         25   -1    0    0    0    0  0.00000000000E+00  0.00000000000E+00  0.99999998245E-14  0.12500000000E+03  0.12500000000E+03 0.  0.
    3000001    1    3    3    0    0 -0.25960999972E+02  0.16757289309E+02  0.34097235521E+02  0.46026098409E+02  0.10000000000E+01 0. -1.
    1000022    2    1    0    0    0 -0.36038267686E+02  0.16930590260E+02  0.47125878823E+02  0.62499999609E+02  0.99999935973E+01 0.  0.
    3000022    2    3    3    0    0 -0.10077267714E+02  0.17330095024E+00  0.13028643303E+02  0.16473901201E+02  0.25003334289E+00 0.  0.
    1000022    2    1    0    0    0  0.36038267686E+02 -0.16930590260E+02 -0.47125878823E+02  0.62500000391E+02  0.99999984798E+01 0.  0.
    3000022    2    5    5    0    0  0.29334390246E+02 -0.17604182463E+02 -0.38389078267E+02  0.51421761219E+02  0.25001071971E+00 0.  0.
        -13    1    4    4    0    0 -0.59923179228E+01  0.43411791572E-01  0.77090620043E+01  0.97647539989E+01  0.10500000000E+00 0.  1.
         13    1    4    4    0    0 -0.40849497911E+01  0.12988915867E+00  0.53195812982E+01  0.67091472019E+01  0.10500000000E+00 0. -1.
    3000001    1    5    5    0    0  0.67038774397E+01  0.67359220313E+00 -0.87368005562E+01  0.11078239172E+02  0.10000000000E+01 0.  1.
        -13    1    6    6    0    0  0.21726941170E+02 -0.13075016276E+02 -0.28453274357E+02  0.38113198106E+02  0.10500000000E+00 0.  1.
         13    1    6    6    0    0  0.76074490764E+01 -0.45291661868E+01 -0.99358039097E+01  0.13308563113E+02  0.10500000000E+00 0. -1.
</event>
<event>
11    0  0.3485800E-009  0.9118800E+02  0.7816531E-02  0.1126479E+00
         25   -1    0    0    0    0  0.00000000000E+00  0.00000000000E+00  0.99999998245E-14  0.12500000000E+03  0.12500000000E+03 0.  0.
    3000001    1    3    3    0    0  0.15749650780E+02  0.87179128470E+01  0.22139338450E+02  0.28551774219E+02  0.10000000000E+01 0.  1.
    1000022    2    1    0    0    0  0.41560691621E+02  0.12375260811E+02  0.43884073567E+02  0.62499999843E+02  0.99999949708E+01 0.  0.
    3000022    2    3    3    0    0  0.25811040841E+02  0.36573479642E+01  0.21744735118E+02  0.33948225624E+02  0.24998849331E+00 0.  0.
    1000022    2    1    0    0    0 -0.41560691621E+02 -0.12375260811E+02 -0.43884073567E+02  0.62500000157E+02  0.99999969306E+01 0.  0.
    3000022    2    5    5    0    0 -0.86554419190E+01  0.10551627280E+01 -0.62788838197E+01  0.10747879134E+02  0.24996133726E+00 0.  0.
        -13    1    4    4    0    0  0.13505510080E+02  0.18783344520E+01  0.11298394498E+02  0.17708520155E+02  0.10500000000E+00 0. -1.
         13    1    4    4    0    0  0.12305530761E+02  0.17790135122E+01  0.10446340620E+02  0.16239705469E+02  0.10500000000E+00 0.  1.
    3000001    1    5    5    0    0 -0.32905249702E+02 -0.13430423539E+02 -0.37605189747E+02  0.51752121022E+02  0.10000000000E+01 0. -1.
        -13    1    6    6    0    0 -0.27772109246E+01  0.36358841473E+00 -0.20726235351E+01  0.34859561634E+01  0.10500000000E+00 0. -1.
         13    1    6    6    0    0 -0.58782309944E+01  0.69157431329E+00 -0.42062602847E+01  0.72619229710E+01  0.10500000000E+00 0.  1.
</event>
<event>
11    0  0.3485800E-009  0.9118800E+02  0.7816531E-02  0.1126479E+00
         25   -1    0    0    0    0  0.00000000000E+00  0.00000000000E+00  0.99999998245E-14  0.12500000000E+03  0.12500000000E+03 0.  0.
    3000001    1    3    3    0    0 -0.53615894705E+01 -0.15206633944E+02 -0.28635867168E+01  0.16406964571E+02  0.10000000000E+01 0.  1.
    1000022    2    1    0    0    0 -0.33657947558E+02 -0.51585132241E+02 -0.35166388915E+01  0.62500001006E+02  0.10000003721E+02 0.  0.
    3000022    2    3    3    0    0 -0.28296358088E+02 -0.36378498297E+02 -0.65305217469E+00  0.46093036435E+02  0.25002240897E+00 0.  0.
    1000022    2    1    0    0    0  0.33657947558E+02  0.51585132241E+02  0.35166388915E+01  0.62499998994E+02  0.99999911504E+01 0.  0.
    3000022    2    5    5    0    0  0.33170641952E+02  0.46476155877E+02  0.23810490997E+01  0.57149422350E+02  0.25005512107E+00 0.  0.
        -13    1    4    4    0    0 -0.68820082719E+01 -0.88208270051E+01 -0.17247604508E+00  0.11189718490E+02  0.10500000000E+00 0.  1.
         13    1    4    4    0    0 -0.21414349816E+02 -0.27557671292E+02 -0.48057612962E+00  0.34903317944E+02  0.10500000000E+00 0. -1.
    3000001    1    5    5    0    0  0.48730560605E+00  0.51089763646E+01  0.11355897918E+01  0.53505766440E+01  0.10000000000E+01 0. -1.
        -13    1    6    6    0    0  0.77203414438E+01  0.10833985029E+02  0.54745438218E+00  0.13315015393E+02  0.10500000000E+00 0. -1.
         13    1    6    6    0    0  0.25450300509E+02  0.35642170848E+02  0.18335947175E+01  0.43834406957E+02  0.10500000000E+00 0.  1.
</event>
<event>
11    0  0.3485800E-009  0.9118800E+02  0.7816531E-02  0.1126479E+00
         25   -1    0    0    0    0  0.00000000000E+00  0.00000000000E+00  0.99999998245E-14  0.12500000000E+03  0.12500000000E+03 0.  0.
    3000001    1    3    3    0    0  0.30662046578E+02  0.25408967800E+02  0.50996454269E+01  0.40159471218E+02  0.10000000000E+01 0. -1.
    1000022    2    1    0    0    0  0.51102416628E+02  0.33194245578E+02  0.96402869440E+01  0.62499999390E+02  0.99999933354E+01 0.  0.
    3000022    2    3    3    0    0  0.20440370050E+02  0.77852777772E+01  0.45406415171E+01  0.22340528172E+02  0.24999154032E+00 0.  0.
    1000022    2    1    0    0    0 -0.51102416628E+02 -0.33194245578E+02 -0.96402869440E+01  0.62500000610E+02  0.10000000962E+02 0.  0.
    3000022    2    5    5    0    0 -0.40549056997E+02 -0.21387979118E+02 -0.81464317866E+01  0.46562844953E+02  0.25001033487E+00 0.  0.
        -13    1    4    4    0    0  0.10977839403E+02  0.42431483685E+01  0.24779396505E+01  0.12027820914E+02  0.10500000000E+00 0. -1.
         13    1    4    4    0    0  0.94625306470E+01  0.35421294088E+01  0.20627018666E+01  0.10312707258E+02  0.10500000000E+00 0.  1.
    3000001    1    5    5    0    0 -0.10553359631E+02 -0.11806266459E+02 -0.14938551574E+01  0.15937155657E+02  0.10000000000E+01 0.  1.
        -13    1    6    6    0    0 -0.24430133791E+02 -0.12953309979E+02 -0.48938224933E+01  0.28081670179E+02  0.10500000000E+00 0.  1.
         13    1    6    6    0    0 -0.16118923206E+02 -0.84346691395E+01 -0.32526092933E+01  0.18481174774E+02  0.10500000000E+00 0. -1.
</event>
<event>
11    0  0.3485800E-009  0.9118800E+02  0.7816531E-02  0.1126479E+00
         25   -1    0    0    0    0  0.00000000000E+00  0.00000000000E+00  0.99999998245E-14  0.12500000000E+03  0.12500000000E+03 0.  0.
    3000001    1    3    3    0    0  0.18228322366E+02  0.31805272896E+01  0.51147323353E+01  0.19223630692E+02  0.10000000000E+01 0.  1.
    1000022    2    1    0    0    0  0.58612250255E+02  0.18722468565E+02  0.45081593901E+01  0.62499998385E+02  0.99999793947E+01 0.  0.
    3000022    2    3    3    0    0  0.40383927889E+02  0.15541941275E+02 -0.60657294517E+00  0.43276367693E+02  0.24999919703E+00 0.  0.
    1000022    2    1    0    0    0 -0.58612250255E+02 -0.18722468565E+02 -0.45081593901E+01  0.62500001615E+02  0.99999995787E+01 0.  0.
    3000022    2    5    5    0    0 -0.14682069091E+02 -0.15208067501E+01  0.18764001253E+01  0.14881511650E+02  0.25001117314E+00 0.  0.
        -13    1    4    4    0    0  0.23789540281E+02  0.92186267830E+01 -0.33256104566E+00  0.25515621262E+02  0.10500000000E+00 0. -1.
         13    1    4    4    0    0  0.16594387608E+02  0.63233144924E+01 -0.27401189951E+00  0.17760746431E+02  0.10500000000E+00 0.  1.
    3000001    1    5    5    0    0 -0.43930181164E+02 -0.17201661815E+02 -0.63845595155E+01  0.47618489965E+02  0.10000000000E+01 0. -1.
        -13    1    6    6    0    0 -0.88360947446E+01 -0.91353520065E+00  0.11925543607E+01  0.89634997519E+01  0.10500000000E+00 0.  1.
         13    1    6    6    0    0 -0.58459743465E+01 -0.60727154945E+00  0.68384576464E+00  0.59180118979E+01  0.10500000000E+00 0. -1.
</event>
<event>
11    0  0.3485800E-009  0.9118800E+02  0.7816531E-02  0.1126479E+00
         25   -1    0    0    0    0  0.00000000000E+00  0.00000000000E+00  0.99999998245E-14  0.12500000000E+03  0.12500000000E+03 0.  0.
    3000001    1    3    3    0    0  0.49036624320E+01  0.24165232841E+01  0.15133505073E+02  0.16121676893E+02  0.10000000000E+01 0.  1.
    1000022    2    1    0    0    0  0.24071540612E+02  0.23575468786E+02  0.51681798950E+02  0.62499999563E+02  0.99999903375E+01 0.  0.
    3000022    2    3    3    0    0  0.19167878180E+02  0.21158945502E+02  0.36548293877E+02  0.46378322670E+02  0.24999946466E+00 0.  0.
    1000022    2    1    0    0    0 -0.24071540612E+02 -0.23575468786E+02 -0.51681798950E+02  0.62500000437E+02  0.99999958000E+01 0.  0.
    3000022    2    5    5    0    0 -0.99994055326E+00 -0.17040257894E+00 -0.67076373757E+01  0.67885019583E+01  0.24988302294E+00 0.  0.
        -13    1    4    4    0    0  0.13748161447E+02  0.15127519220E+02  0.26207673656E+02  0.33237132313E+02  0.10500000000E+00 0.  1.
         13    1    4    4    0    0  0.54197167329E+01  0.60314262817E+01  0.10340620221E+02  0.13141190357E+02  0.10500000000E+00 0. -1.
    3000001    1    5    5    0    0 -0.23071600059E+02 -0.23405066207E+02 -0.44974161574E+02  0.55711498479E+02  0.10000000000E+01 0.  1.
        -13    1    6    6    0    0 -0.58852453114E+00 -0.91753604790E-01 -0.34904839496E+01  0.35424967255E+01  0.10500000000E+00 0.  1.
         13    1    6    6    0    0 -0.41141602212E+00 -0.78648974154E-01 -0.32171534261E+01  0.32460052328E+01  0.10500000000E+00 0. -1.
</event>
<event>
11    0  0.3485800E-009  0.9118800E+02  0.7816531E-02  0.1126479E+00
         25   -1    0    0    0    0  0.00000000000E+00  0.00000000000E+00  0.99999998245E-14  0.12500000000E+03  0.12500000000E+03 0.  0.
    3000001    1    3    3    0    0  0.13879247985E+02 -0.11273622747E+02  0.53088348379E+01  0.18679181508E+02  0.10000000000E+01 0. -1.
    1000022    2    1    0    0    0  0.36479459925E+02 -0.40674869225E+02  0.28654041758E+02  0.62499999419E+02  0.99999917723E+01 0.  0.
    3000022    2    3    3    0    0  0.22600211940E+02 -0.29401246478E+02  0.23345206920E+02  0.43820817912E+02  0.25004415603E+00 0.  0.
    1000022    2    1    0    0    0 -0.36479459925E+02  0.40674869225E+02 -0.28654041758E+02  0.62500000581E+02  0.99999990299E+01 0.  0.
    3000022    2    5    5    0    0 -0.36341611535E+02  0.38262287180E+02 -0.26214206364E+02  0.58923360949E+02  0.25000212105E+00 0.  0.
        -13    1    4    4    0    0  0.17393778894E+02 -0.22628005053E+02  0.17957654122E+02  0.33720298389E+02  0.10500000000E+00 0.  1.
         13    1    4    4    0    0  0.52064330466E+01 -0.67732414257E+01  0.53875527980E+01  0.10100519523E+02  0.10500000000E+00 0. -1.
    3000001    1    5    5    0    0 -0.13784839034E+00  0.24125820448E+01 -0.24398353943E+01  0.35766396314E+01  0.10000000000E+01 0. -1.
        -13    1    6    6    0    0 -0.22603807556E+02  0.23749542495E+02 -0.16230718150E+02  0.36584424574E+02  0.10500000000E+00 0. -1.
         13    1    6    6    0    0 -0.13737803979E+02  0.14512744685E+02 -0.99834882143E+01  0.22338936375E+02  0.10500000000E+00 0.  1.
</event>
<event>
11    0  0.3485800E-009  0.9118800E+02  0.7816531E-02  0.1126479E+00
         25   -1    0    0    0    0  0.00000000000E+00  0.00000000000E+00  0.99999998245E-14  0.12500000000E+03  0.12500000000E+03 0.  0.
    3000001    1    3    3    0    0 -0.21899794857E+02  0.13275843589E+02  0.73462423119E+01  0.26661138645E+02  0.10000000000E+01 0. -1.
    1000022    2    1    0    0    0 -0.44138001562E+02  0.34917309017E+02  0.25275844865E+02  0.62500000455E+02  0.10000003620E+02 0.  0.
    3000022    2    3    3    0    0 -0.22238206705E+02  0.21641465427E+02  0.17929602553E+02  0.35838861810E+02  0.25000955067E+00 0.  0.
    1000022    2    1    0    0    0  0.44138001562E+02 -0.34917309017E+02 -0.25275844865E+02  0.62499999545E+02  0.99999979286E+01 0.  0.
    3000022    2    5    5    0    0  0.46988944700E+00  0.31116001486E+00  0.45524461445E+00  0.76639433800E+00  0.24999195002E+00 0.  0.
        -13    1    4    4    0    0 -0.12888442153E+02  0.12452487091E+02  0.10346329590E+02  0.20693813976E+02  0.10500000000E+00 0. -1.
         13    1    4    4    0    0 -0.93497645522E+01  0.91889783363E+01  0.75832729639E+01  0.15145047834E+02  0.10500000000E+00 0.  1.
    3000001    1    5    5    0    0  0.43668112115E+02 -0.35228469031E+02 -0.25731089480E+02  0.61733605207E+02  0.10000000000E+01 0. -1.
        -13    1    6    6    0    0  0.32482054775E+00  0.20952246837E+00  0.23282731882E+00  0.46329430536E+00  0.10500000000E+00 0. -1.
         13    1    6    6    0    0  0.14506889925E+00  0.10163754648E+00  0.22241729563E+00  0.30310003263E+00  0.10500000000E+00 0.  1.
</event>
<event>
11    0  0.3485800E-009  0.9118800E+02  0.7816531E-02  0.1126479E+00
         25   -1    0    0    0    0  0.00000000000E+00  0.00000000000E+00  0.99999998245E-14  0.12500000000E+03  0.12500000000E+03 0.  0.
    3000001    1    3    3    0    0 -0.47452608867E+01  0.69311395272E+01 -0.61259945876E+01  0.10444424623E+02  0.10000000000E+01 0. -1.
    1000022    2    1    0    0    0 -0.25396530679E+02  0.53051054992E+02 -0.18623953554E+02  0.62500000912E+02  0.10000013091E+02 0.  0.
    3000022    2    3    3    0    0 -0.20651269792E+02  0.46119915465E+02 -0.12497958966E+02  0.52055576289E+02  0.24999591564E+00 0.  0.
    1000022    2    1    0    0    0  0.25396530679E+02 -0.53051054992E+02  0.18623953554E+02  0.62499999088E+02  0.10000001685E+02 0.  0.
    3000022    2    5    5    0    0  0.38470580776E+01 -0.22389362446E+01  0.13169876067E+01  0.46486183671E+01  0.25001001363E+00 0.  0.
        -13    1    4    4    0    0 -0.57357676820E+01  0.12902473127E+02 -0.34811803784E+01  0.14543125026E+02  0.10500000000E+00 0. -1.
         13    1    4    4    0    0 -0.14915502110E+02  0.33217442338E+02 -0.90167785876E+01  0.37512451263E+02  0.10500000000E+00 0.  1.
    3000001    1    5    5    0    0  0.21549472602E+02 -0.50812118747E+02  0.17306965947E+02  0.57851380720E+02  0.10000000000E+01 0.  1.
        -13    1    6    6    0    0  0.27703070702E+01 -0.16454445818E+01  0.97911808436E+00  0.33692412140E+01  0.10500000000E+00 0. -1.
         13    1    6    6    0    0  0.10767510074E+01 -0.59349166281E+00  0.33786952231E+00  0.12793771531E+01  0.10500000000E+00 0.  1.
</event>
<event>
11    0  0.3485800E-009  0.9118800E+02  0.7816531E-02  0.1126479E+00
         25   -1    0    0    0    0  0.00000000000E+00  0.00000000000E+00  0.99999998245E-14  0.12500000000E+03  0.12500000000E+03 0.  0.
    3000001    1    3    3    0    0  0.11313586276E+02 -0.20942181844E+02 -0.23471815942E+02  0.33443958474E+02  0.10000000000E+01 0.  1.
    1000022    2    1    0    0    0  0.18325271846E+02 -0.45326907655E+02 -0.37628525103E+02  0.62499999206E+02  0.99999926709E+01 0.  0.
    3000022    2    3    3    0    0  0.70116855698E+01 -0.24384725812E+02 -0.14156709161E+02  0.29056040731E+02  0.25000254761E+00 0.  0.
    1000022    2    1    0    0    0 -0.18325271846E+02  0.45326907655E+02  0.37628525103E+02  0.62500000794E+02  0.10000002601E+02 0.  0.
    3000022    2    5    5    0    0 -0.80242689249E+01  0.28943207745E+02  0.27054472450E+02  0.40424066535E+02  0.25001858803E+00 0.  0.
        -13    1    4    4    0    0  0.46153731450E+01 -0.15859227984E+02 -0.91935314592E+01  0.18903672320E+02  0.10500000000E+00 0. -1.
         13    1    4    4    0    0  0.23963124248E+01 -0.85254978279E+01 -0.49631777022E+01  0.10152368411E+02  0.10500000000E+00 0.  1.
    3000001    1    5    5    0    0 -0.10301002921E+02  0.16383699910E+02  0.10574052654E+02  0.22075934260E+02  0.10000000000E+01 0.  1.
        -13    1    6    6    0    0 -0.40571528524E+01  0.14642169950E+02  0.13777349000E+02  0.20510485138E+02  0.10500000000E+00 0. -1.
         13    1    6    6    0    0 -0.39671160726E+01  0.14301037795E+02  0.13277123449E+02  0.19913581397E+02  0.10500000000E+00 0.  1.
</event>
<event>
11    0  0.3485800E-009  0.9118800E+02  0.7816531E-02  0.1126479E+00
         25   -1    0    0    0    0  0.00000000000E+00  0.00000000000E+00  0.99999998245E-14  0.12500000000E+03  0.12500000000E+03 0.  0.
    3000001    1    3    3    0    0  0.55671872165E+00 -0.67420839723E+01  0.39697463312E+01  0.79072446502E+01  0.10000000000E+01 0. -1.
    1000022    2    1    0    0    0  0.89143910652E+01 -0.36087521075E+02  0.49238950647E+02  0.62499998068E+02  0.99999976104E+01 0.  0.
    3000022    2    3    3    0    0  0.83576723436E+01 -0.29345437103E+02  0.45269204316E+02  0.54592753417E+02  0.25000106726E+00 0.  0.
    1000022    2    1    0    0    0 -0.89143910652E+01  0.36087521075E+02 -0.49238950647E+02  0.62500001932E+02  0.10000021765E+02 0.  0.
    3000022    2    5    5    0    0 -0.50154898406E+01  0.30627960007E+02 -0.35338790458E+02  0.47033176430E+02  0.25000319699E+00 0.  0.
        -13    1    4    4    0    0  0.34732661295E+01 -0.12282954911E+02  0.18830726359E+02  0.22749545911E+02  0.10500000000E+00 0.  1.
         13    1    4    4    0    0  0.48844062141E+01 -0.17062482191E+02  0.26438477957E+02  0.31843207506E+02  0.10500000000E+00 0. -1.
    3000001    1    5    5    0    0 -0.38989012246E+01  0.54595610685E+01 -0.13900160189E+02  0.15466825502E+02  0.10000000000E+01 0. -1.
        -13    1    6    6    0    0 -0.17661140503E+01  0.10448700120E+02 -0.12053258553E+02  0.16049503412E+02  0.10500000000E+00 0. -1.
         13    1    6    6    0    0 -0.32493757904E+01  0.20179259887E+02 -0.23285531905E+02  0.30983673018E+02  0.10500000000E+00 0.  1.
</event>
<event>
11    0  0.3485800E-009  0.9118800E+02  0.7816531E-02  0.1126479E+00
         25   -1    0    0    0    0  0.00000000000E+00  0.00000000000E+00  0.99999998245E-14  0.12500000000E+03  0.12500000000E+03 0.  0.
    3000001    1    3    3    0    0 -0.30432468155E+02  0.34247989004E+01 -0.44927491606E+02  0.54381466213E+02  0.10000000000E+01 0. -1.
    1000022    2    1    0    0    0 -0.31909357423E+02  0.60850537367E+01 -0.52450124382E+02  0.62500003984E+02  0.99999990057E+01 0.  0.
    3000022    2    3    3    0    0 -0.14768892686E+01  0.26602548363E+01 -0.75226327761E+01  0.81185377705E+01  0.24998788012E+00 0.  0.
    1000022    2    1    0    0    0  0.31909357423E+02 -0.60850537367E+01  0.52450124382E+02  0.62499996016E+02  0.99999492115E+01 0.  0.
    3000022    2    5    5    0    0  0.95719024206E+01 -0.28169664577E+01  0.25166634787E+02  0.27073577979E+02  0.25000427186E+00 0.  0.
        -13    1    4    4    0    0 -0.10065195190E+01  0.17092341797E+01 -0.48279070401E+01  0.52205626528E+01  0.10500000000E+00 0. -1.
         13    1    4    4    0    0 -0.47036974960E+00  0.95102065663E+00 -0.26947257360E+01  0.28979751177E+01  0.10500000000E+00 0.  1.
    3000001    1    5    5    0    0  0.22337455003E+02 -0.32680872790E+01  0.27283489595E+02  0.35426418037E+02  0.10000000000E+01 0.  1.
        -13    1    6    6    0    0  0.58656060110E+01 -0.16789131757E+01  0.15272561929E+02  0.16446466374E+02  0.10500000000E+00 0.  1.
         13    1    6    6    0    0  0.37062964097E+01 -0.11380532820E+01  0.98940728575E+01  0.10627111605E+02  0.10500000000E+00 0. -1.
</event>
<event>
11    0  0.3485800E-009  0.9118800E+02  0.7816531E-02  0.1126479E+00
         25   -1    0    0    0    0  0.00000000000E+00  0.00000000000E+00  0.99999998245E-14  0.12500000000E+03  0.12500000000E+03 0.  0.
    3000001    1    3    3    0    0 -0.45502013444E+02  0.22546674283E+02 -0.83327014059E+00  0.50798426036E+02  0.10000000000E+01 0. -1.
    1000022    2    1    0    0    0 -0.53160557263E+02  0.31305844435E+02  0.38654247332E+00  0.62499998296E+02  0.99999813820E+01 0.  0.
    3000022    2    3    3    0    0 -0.76585438190E+01  0.87591701519E+01  0.12198126139E+01  0.11701572259E+02  0.24999070465E+00 0.  0.
    1000022    2    1    0    0    0  0.53160557263E+02 -0.31305844435E+02 -0.38654247332E+00  0.62500001704E+02  0.10000002683E+02 0.  0.
    3000022    2    5    5    0    0  0.47633829683E+02 -0.30839472052E+02  0.74863396312E+00  0.56751015143E+02  0.25000040600E+00 0.  0.
        -13    1    4    4    0    0 -0.55403742967E+01  0.62767119804E+01  0.87170945932E+00  0.84180617136E+01  0.10500000000E+00 0.  1.
         13    1    4    4    0    0 -0.21181695223E+01  0.24824581716E+01  0.34810315459E+00  0.32835105459E+01  0.10500000000E+00 0. -1.
    3000001    1    5    5    0    0  0.55267275796E+01 -0.46637238287E+00 -0.11351764364E+01  0.57489865612E+01  0.10000000000E+01 0. -1.
        -13    1    6    6    0    0  0.33804269665E+02 -0.21888486919E+02  0.48831963115E+00  0.40275103826E+02  0.10500000000E+00 0. -1.
         13    1    6    6    0    0  0.13829560018E+02 -0.89509851332E+01  0.26031433198E+00  0.16475911316E+02  0.10500000000E+00 0.  1.
</event>
<event>
11    0  0.3485800E-009  0.9118800E+02  0.7816531E-02  0.1126479E+00
         25   -1    0    0    0    0  0.00000000000E+00  0.00000000000E+00  0.99999998245E-14  0.12500000000E+03  0.12500000000E+03 0.  0.
    3000001    1    3    3    0    0  0.15246836913E+02 -0.50427866653E+01 -0.23685321417E+02  0.28633724589E+02  0.10000000000E+01 0.  1.
    1000022    2    1    0    0    0  0.34892218002E+02 -0.20350245597E+02 -0.46633148792E+02  0.62499999506E+02  0.99999999494E+01 0.  0.
    3000022    2    3    3    0    0  0.19645381089E+02 -0.15307458932E+02 -0.22947827375E+02  0.33866274917E+02  0.24999684306E+00 0.  0.
    1000022    2    1    0    0    0 -0.34892218002E+02  0.20350245597E+02  0.46633148792E+02  0.62500000494E+02  0.10000006121E+02 0.  0.
    3000022    2    5    5    0    0 -0.22428801105E+02  0.82258759507E+01  0.30648064097E+02  0.38859779835E+02  0.25000348978E+00 0.  0.
        -13    1    4    4    0    0  0.94447040284E+01 -0.72905586704E+01 -0.11048622236E+02  0.16261542308E+02  0.10500000000E+00 0.  1.
         13    1    4    4    0    0  0.10200677061E+02 -0.80169002618E+01 -0.11899205139E+02  0.17604732609E+02  0.10500000000E+00 0. -1.
    3000001    1    5    5    0    0 -0.12463416898E+02  0.12124369647E+02  0.15985084695E+02  0.23640220659E+02  0.10000000000E+01 0.  1.
        -13    1    6    6    0    0 -0.11958353966E+02  0.43595172111E+01  0.16226998023E+02  0.20623629887E+02  0.10500000000E+00 0.  1.
         13    1    6    6    0    0 -0.10470447139E+02  0.38663587395E+01  0.14421066074E+02  0.18236149947E+02  0.10500000000E+00 0. -1.
</event>
<event>
11    0  0.3485800E-009  0.9118800E+02  0.7816531E-02  0.1126479E+00
         25   -1    0    0    0    0  0.00000000000E+00  0.00000000000E+00  0.99999998245E-14  0.12500000000E+03  0.12500000000E+03 0.  0.
    3000001    1    3    3    0    0  0.12269156322E+02  0.10763545475E+02 -0.13941822264E+02  0.21488613638E+02  0.10000000000E+01 0. -1.
    1000022    2    1    0    0    0  0.23500984967E+02  0.33431268432E+02 -0.46220168096E+02  0.62499999221E+02  0.99999980168E+01 0.  0.
    3000022    2    3    3    0    0  0.11231828645E+02  0.22667722958E+02 -0.32278345833E+02  0.41011385583E+02  0.24999792839E+00 0.  0.
    1000022    2    1    0    0    0 -0.23500984967E+02 -0.33431268432E+02  0.46220168096E+02  0.62500000779E+02  0.10000007758E+02 0.  0.
    3000022    2    5    5    0    0 -0.98927623789E+00 -0.75962698307E+01  0.10394132632E+02  0.12914428284E+02  0.24996380488E+00 0.  0.
        -13    1    4    4    0    0  0.83452497352E+01  0.16776983386E+02 -0.23926969547E+02  0.30391137876E+02  0.10500000000E+00 0.  1.
         13    1    4    4    0    0  0.28865789097E+01  0.58907395715E+01 -0.83513762854E+01  0.10620247707E+02  0.10500000000E+00 0. -1.
    3000001    1    5    5    0    0 -0.22511708729E+02 -0.25834998602E+02  0.35826035464E+02  0.49585572495E+02  0.10000000000E+01 0. -1.
        -13    1    6    6    0    0 -0.32132109560E+00 -0.28415408937E+01  0.38212622793E+01  0.47739577191E+01  0.10500000000E+00 0. -1.
         13    1    6    6    0    0 -0.66795514229E+00 -0.47547289370E+01  0.65728703531E+01  0.81404705647E+01  0.10500000000E+00 0.  1.
</event>
<event>
11    0  0.3485800E-009  0.9118800E+02  0.7816531E-02  0.1126479E+00
         25   -1    0    0    0    0  0.00000000000E+00  0.00000000000E+00  0.99999998245E-14  0.12500000000E+03  0.12500000000E+03 0.  0.
    3000001    1    3    3    0    0 -0.17939278558E+01 -0.58985902377E+00  0.43253946606E+01  0.48244325873E+01  0.10000000000E+01 0.  1.
    1000022    2    1    0    0    0 -0.47686798092E+02  0.45209773289E+01  0.38881617125E+02  0.62500001055E+02  0.10000001667E+02 0.  0.
    3000022    2    3    3    0    0 -0.45892870236E+02  0.51108363527E+01  0.34556222465E+02  0.57675568468E+02  0.25000064295E+00 0.  0.
    1000022    2    1    0    0    0  0.47686798092E+02 -0.45209773289E+01 -0.38881617125E+02  0.62499998945E+02  0.99999884745E+01 0.  0.
    3000022    2    5    5    0    0  0.31240374512E+02 -0.37500297499E+01 -0.31173412277E+02  0.44292977477E+02  0.24999597650E+00 0.  0.
        -13    1    4    4    0    0 -0.32826199977E+02  0.36557779968E+01  0.24665574286E+02  0.41222878327E+02  0.10500000000E+00 0. -1.
         13    1    4    4    0    0 -0.13066670260E+02  0.14550583559E+01  0.98906481789E+01  0.16452690142E+02  0.10500000000E+00 0.  1.
    3000001    1    5    5    0    0  0.16446423580E+02 -0.77094757900E+00 -0.77082048487E+01  0.18207021468E+02  0.10000000000E+01 0.  1.
        -13    1    6    6    0    0  0.11180543268E+02 -0.13927947495E+01 -0.11202814782E+02  0.15888942980E+02  0.10500000000E+00 0.  1.
         13    1    6    6    0    0  0.20059831244E+02 -0.23572350004E+01 -0.19970597494E+02  0.28404034497E+02  0.10500000000E+00 0. -1.
</event>
<event>
11    0  0.3485800E-009  0.9118800E+02  0.7816531E-02  0.1126479E+00
         25   -1    0    0    0    0  0.00000000000E+00  0.00000000000E+00  0.99999998245E-14  0.12500000000E+03  0.12500000000E+03 0.  0.
    3000001    1    3    3    0    0  0.34573286754E+02 -0.14456768740E+02  0.17816795865E+02  0.41506006003E+02  0.10000000000E+01 0. -1.
    1000022    2    1    0    0    0  0.53960995869E+02 -0.15050027278E+02  0.25844877057E+02  0.62500000528E+02  0.99999999835E+01 0.  0.
    3000022    2    3    3    0    0  0.19387709115E+02 -0.59325853793E+00  0.80280811914E+01  0.20993994525E+02  0.24999619039E+00 0.  0.
    1000022    2    1    0    0    0 -0.53960995869E+02  0.15050027278E+02 -0.25844877057E+02  0.62499999472E+02  0.99999933835E+01 0.  0.
    3000022    2    5    5    0    0 -0.93971442513E+01  0.64099109160E+01 -0.35635026553E+01  0.11922849226E+02  0.25000893482E+00 0.  0.
        -13    1    4    4    0    0  0.12532372348E+02 -0.40199614244E+00  0.52479103851E+01  0.13593143344E+02  0.10500000000E+00 0.  1.
         13    1    4    4    0    0  0.68553367670E+01 -0.19126239549E+00  0.27801708064E+01  0.74008511812E+01  0.10500000000E+00 0. -1.
    3000001    1    5    5    0    0 -0.44563851618E+02  0.86401163619E+01 -0.22281374401E+02  0.50577150246E+02  0.10000000000E+01 0. -1.
        -13    1    6    6    0    0 -0.53264068921E+01  0.37113857003E+01 -0.20221248612E+01  0.68003682364E+01  0.10500000000E+00 0. -1.
         13    1    6    6    0    0 -0.40707373593E+01  0.26985252158E+01 -0.15413777942E+01  0.51224809900E+01  0.10500000000E+00 0.  1.
</event>
<event>
11    0  0.3485800E-009  0.9118800E+02  0.7816531E-02  0.1126479E+00
         25   -1    0    0    0    0  0.00000000000E+00  0.00000000000E+00  0.99999998245E-14  0.12500000000E+03  0.12500000000E+03 0.  0.
    3000001    1    3    3    0    0  0.12482736531E+02 -0.60473910018E+01 -0.15022999640E+02  0.20471447614E+02  0.10000000000E+01 0. -1.
    1000022    2    1    0    0    0  0.25714046535E+02 -0.21979371700E+02 -0.51594041125E+02  0.62499999219E+02  0.99999926658E+01 0.  0.
    3000022    2    3    3    0    0  0.13231310004E+02 -0.15931980699E+02 -0.36571041485E+02  0.42028551606E+02  0.25000276866E+00 0.  0.
    1000022    2    1    0    0    0 -0.25714046535E+02  0.21979371700E+02  0.51594041125E+02  0.62500000781E+02  0.10000002424E+02 0.  0.
    3000022    2    5    5    0    0 -0.41850854244E-01  0.27755397010E+01  0.19740072467E+01  0.34153449337E+01  0.25000856030E+00 0.  0.
        -13    1    4    4    0    0  0.71564078043E+01 -0.86197198330E+01 -0.19647450075E+02  0.22617406175E+02  0.10500000000E+00 0. -1.
         13    1    4    4    0    0  0.60749021999E+01 -0.73122608655E+01 -0.16923591410E+02  0.19411145430E+02  0.10500000000E+00 0.  1.
    3000001    1    5    5    0    0 -0.25672195680E+02  0.19203831999E+02  0.49620033878E+02  0.59084655847E+02  0.10000000000E+01 0.  1.
        -13    1    6    6    0    0  0.25993491654E-01  0.16846776669E+01  0.12393235177E+01  0.20942211642E+01  0.10500000000E+00 0.  1.
         13    1    6    6    0    0 -0.67844345898E-01  0.10908620341E+01  0.73468372894E+00  0.13211237694E+01  0.10500000000E+00 0. -1.
</event>
<event>
11    0  0.3485800E-009  0.9118800E+02  0.7816531E-02  0.1126479E+00
         25   -1    0    0    0    0  0.00000000000E+00  0.00000000000E+00  0.99999998245E-14  0.12500000000E+03  0.12500000000E+03 0.  0.
    3000001    1    3    3    0    0 -0.17651810105E+01  0.13182776640E+02  0.40641358060E+01  0.13943409332E+02  0.10000000000E+01 0. -1.
    1000022    2    1    0    0    0 -0.20379657062E+01  0.61650420594E+02  0.11498809406E+01  0.62499997982E+02  0.99999928955E+01 0.  0.
    3000022    2    3    3    0    0 -0.27278469567E+00  0.48467643954E+02 -0.29142548653E+01  0.48556588650E+02  0.24999596160E+00 0.  0.
    1000022    2    1    0    0    0  0.20379657062E+01 -0.61650420594E+02 -0.11498809406E+01  0.62500002018E+02  0.10000018120E+02 0.  0.
    3000022    2    5    5    0    0  0.20284500368E+01 -0.71702290674E+01 -0.28555317622E+01  0.79839437959E+01  0.25000492001E+00 0.  0.
        -13    1    4    4    0    0 -0.12666022987E+00  0.15127770363E+02 -0.88370043457E+00  0.15154452495E+02  0.10500000000E+00 0.  1.
         13    1    4    4    0    0 -0.14612446581E+00  0.33339873591E+02 -0.20305544308E+01  0.33402136155E+02  0.10500000000E+00 0. -1.
    3000001    1    5    5    0    0  0.95156693214E-02 -0.54480191527E+02  0.17056508216E+01  0.54516058222E+02  0.10000000000E+01 0. -1.
        -13    1    6    6    0    0  0.93412101658E+00 -0.31423438570E+01 -0.13097408232E+01  0.35317634424E+01  0.10500000000E+00 0.  1.
         13    1    6    6    0    0  0.10943290203E+01 -0.40278852104E+01 -0.15457909391E+01  0.44521803535E+01  0.10500000000E+00 0. -1.
</event>
<event>
11    0  0.3485800E-009  0.9118800E+02  0.7816531E-02  0.1126479E+00
         25   -1    0    0    0    0  0.00000000000E+00  0.00000000000E+00  0.99999998245E-14  0.12500000000E+03  0.12500000000E+03 0.  0.
    3000001    1    3    3    0    0 -0.53089851049E+01  0.58473472368E+00 -0.16894745320E+01  0.56904799213E+01  0.10000000000E+01 0. -1.
    1000022    2    1    0    0    0 -0.48148569954E+02 -0.16277041634E+02 -0.34971746725E+02  0.62500000873E+02  0.10000008359E+02 0.  0.
    3000022    2    3    3    0    0 -0.42839584849E+02 -0.16861776358E+02 -0.33282272193E+02  0.56809520952E+02  0.24999293612E+00 0.  0.
    1000022    2    1    0    0    0  0.48148569954E+02  0.16277041634E+02  0.34971746725E+02  0.62499999127E+02  0.99999974473E+01 0.  0.
    3000022    2    5    5    0    0  0.41466973207E+02  0.10427194174E+02  0.30383169149E+02  0.52454129599E+02  0.24999843815E+00 0.  0.
        -13    1    4    4    0    0 -0.13459465820E+02 -0.52580135110E+01 -0.10486791485E+02  0.17854628165E+02  0.10500000000E+00 0. -1.
         13    1    4    4    0    0 -0.29380119028E+02 -0.11603762847E+02 -0.22795480708E+02  0.38954892787E+02  0.10500000000E+00 0.  1.
    3000001    1    5    5    0    0  0.66815967468E+01  0.58498474603E+01  0.45885775760E+01  0.10045869528E+02  0.10000000000E+01 0. -1.
        -13    1    6    6    0    0  0.11494587323E+02  0.28722081877E+01  0.83770543832E+01  0.14510726472E+02  0.10500000000E+00 0.  1.
         13    1    6    6    0    0  0.29972385884E+02  0.75549859863E+01  0.22006114766E+02  0.37943403128E+02  0.10500000000E+00 0. -1.
</event>
<event>
11    0  0.3485800E-009  0.9118800E+02  0.7816531E-02  0.1126479E+00
         25   -1    0    0    0    0  0.00000000000E+00  0.00000000000E+00  0.99999998245E-14  0.12500000000E+03  0.12500000000E+03 0.  0.
    3000001    1    3    3    0    0  0.57511580168E+01  0.88472892239E+01  0.26912909290E+01  0.10935876371E+02  0.10000000000E+01 0. -1.
    1000022    2    1    0    0    0  0.35126823698E+02  0.50411256111E+02 -0.55732823515E+01  0.62499999102E+02  0.99999962895E+01 0.  0.
    3000022    2    3    3    0    0  0.29375665682E+02  0.41563966887E+02 -0.82645732805E+01  0.51564122731E+02  0.25000773917E+00 0.  0.
    1000022    2    1    0    0    0 -0.35126823698E+02 -0.50411256111E+02  0.55732823515E+01  0.62500000898E+02  0.10000007513E+02 0.  0.
    3000022    2    5    5    0    0 -0.48671936792E+01 -0.12584021185E+02 -0.13259615840E+01  0.13559787597E+02  0.25000413004E+00 0.  0.
        -13    1    4    4    0    0  0.15522089730E+02  0.22047861508E+02 -0.44248805259E+01  0.27324605382E+02  0.10500000000E+00 0.  1.
         13    1    4    4    0    0  0.13853575952E+02  0.19516105379E+02 -0.38396927546E+01  0.24239517348E+02  0.10500000000E+00 0. -1.
    3000001    1    5    5    0    0 -0.30259630019E+02 -0.37827234926E+02  0.68992439355E+01  0.48940213301E+02  0.10000000000E+01 0. -1.
        -13    1    6    6    0    0 -0.13567982801E+01 -0.35819405142E+01 -0.40780517582E+00  0.38533789693E+01  0.10500000000E+00 0. -1.
         13    1    6    6    0    0 -0.35103953990E+01 -0.90020806707E+01 -0.91815640817E+00  0.97064086278E+01  0.10500000000E+00 0.  1.
</event>
<event>
11    0  0.3485800E-009  0.9118800E+02  0.7816531E-02  0.1126479E+00
         25   -1    0    0    0    0  0.00000000000E+00  0.00000000000E+00  0.99999998245E-14  0.12500000000E+03  0.12500000000E+03 0.  0.
    3000001    1    3    3    0    0  0.24652770946E+01 -0.20427676325E+01 -0.89777923249E+01  0.95839055599E+01  0.10000000000E+01 0.  1.
    1000022    2    1    0    0    0  0.35109128054E+02 -0.38288180540E+01 -0.50585958879E+02  0.62499999560E+02  0.99999994468E+01 0.  0.
    3000022    2    3    3    0    0  0.32643850959E+02 -0.17860504215E+01 -0.41608166554E+02  0.52916094000E+02  0.24999739368E+00 0.  0.
    1000022    2    1    0    0    0 -0.35109128054E+02  0.38288180540E+01  0.50585958879E+02  0.62500000440E+02  0.10000004947E+02 0.  0.
    3000022    2    5    5    0    0 -0.14679604523E+02  0.63480042465E+01  0.24431116971E+02  0.29201539725E+02  0.24999800721E+00 0.  0.
        -13    1    4    4    0    0  0.22294757038E+02 -0.12626571420E+01 -0.28461731322E+02  0.36176396577E+02  0.10500000000E+00 0. -1.
         13    1    4    4    0    0  0.10349093922E+02 -0.52339327944E+00 -0.13146435232E+02  0.16739697423E+02  0.10500000000E+00 0.  1.
    3000001    1    5    5    0    0 -0.20429523531E+02 -0.25191861925E+01  0.26154841908E+02  0.33298460715E+02  0.10000000000E+01 0.  1.
        -13    1    6    6    0    0 -0.87110080987E+01  0.38361613090E+01  0.14538182897E+02  0.17377214467E+02  0.10500000000E+00 0. -1.
         13    1    6    6    0    0 -0.59685964246E+01  0.25118429375E+01  0.98929340738E+01  0.11824325258E+02  0.10500000000E+00 0.  1.
</event>
<event>
11    0  0.3485800E-009  0.9118800E+02  0.7816531E-02  0.1126479E+00
         25   -1    0    0    0    0  0.00000000000E+00  0.00000000000E+00  0.99999998245E-14  0.12500000000E+03  0.12500000000E+03 0.  0.
    3000001    1    3    3    0    0  0.17280363773E+02  0.33952522549E+02  0.28909810809E+02  0.47834735503E+02  0.10000000000E+01 0.  1.
    1000022    2    1    0    0    0  0.17260062674E+02  0.44451235740E+02  0.39146226949E+02  0.62500004320E+02  0.10000066672E+02 0.  0.
    3000022    2    3    3    0    0 -0.20301099638E-01  0.10498713190E+02  0.10236416139E+02  0.14665268817E+02  0.25000665087E+00 0.  0.
    1000022    2    1    0    0    0 -0.17260062674E+02 -0.44451235740E+02 -0.39146226949E+02  0.62499995680E+02  0.10000012667E+02 0.  0.
    3000022    2    5    5    0    0 -0.15279454970E+02 -0.38059012621E+02 -0.37417057020E+02  0.55516203592E+02  0.25003877727E+00 0.  0.
        -13    1    4    4    0    0 -0.55762608038E-01  0.52775574326E+01  0.50756045359E+01  0.73231487987E+01  0.10500000000E+00 0. -1.
         13    1    4    4    0    0  0.35461508400E-01  0.52211557578E+01  0.51608116032E+01  0.73421200188E+01  0.10500000000E+00 0.  1.
    3000001    1    5    5    0    0 -0.19806077033E+01 -0.63922231189E+01 -0.17291699284E+01  0.69837920872E+01  0.10000000000E+01 0. -1.
        -13    1    6    6    0    0 -0.80578641182E+01 -0.19936782777E+02 -0.19680320529E+02  0.29150137611E+02  0.10500000000E+00 0.  1.
         13    1    6    6    0    0 -0.72215908522E+01 -0.18122229844E+02 -0.17736736492E+02  0.26366065981E+02  0.10500000000E+00 0. -1.
</event>
<event>
11    0  0.3485800E-009  0.9118800E+02  0.7816531E-02  0.1126479E+00
         25   -1    0    0    0    0  0.00000000000E+00  0.00000000000E+00  0.99999998245E-14  0.12500000000E+03  0.12500000000E+03 0.  0.
    3000001    1    3    3    0    0 -0.23064193715E+02  0.38315743540E+02 -0.25167983797E+02  0.51327192045E+02  0.10000000000E+01 0.  1.
    1000022    2    1    0    0    0 -0.24679052963E+02  0.45505471281E+02 -0.33562575845E+02  0.62499999759E+02  0.99999950447E+01 0.  0.
    3000022    2    3    3    0    0 -0.16148592479E+01  0.71897277411E+01 -0.83945920474E+01  0.11172807715E+02  0.25000240858E+00 0.  0.
    1000022    2    1    0    0    0  0.24679052963E+02 -0.45505471281E+02  0.33562575845E+02  0.62500000241E+02  0.99999980545E+01 0.  0.
    3000022    2    5    5    0    0  0.19064174056E+02 -0.40184447044E+02  0.31269829743E+02  0.54370003392E+02  0.25000001737E+00 0.  0.
        -13    1    4    4    0    0 -0.41951619523E+00  0.17713754689E+01 -0.20569936379E+01  0.27488202407E+01  0.10500000000E+00 0. -1.
         13    1    4    4    0    0 -0.11953430527E+01  0.54183522722E+01 -0.63375984095E+01  0.84239874739E+01  0.10500000000E+00 0.  1.
    3000001    1    5    5    0    0  0.56148789072E+01 -0.53210242372E+01  0.22927461014E+01  0.81299968488E+01  0.10000000000E+01 0. -1.
        -13    1    6    6    0    0  0.44618133922E+01 -0.93846153780E+01  0.72942369047E+01  0.12696286920E+02  0.10500000000E+00 0.  1.
         13    1    6    6    0    0  0.14602360664E+02 -0.30799831666E+02  0.23975592839E+02  0.41673716472E+02  0.10500000000E+00 0. -1.
</event>
<event>
11    0  0.3485800E-009  0.9118800E+02  0.7816531E-02  0.1126479E+00
         25   -1    0    0    0    0  0.00000000000E+00  0.00000000000E+00  0.99999998245E-14  0.12500000000E+03  0.12500000000E+03 0.  0.
    3000001    1    3    3    0    0  0.83437604259E+01 -0.27049474526E+02 -0.28510346379E+01  0.28467890836E+02  0.10000000000E+01 0.  1.
    1000022    2    1    0    0    0  0.11118560702E+02 -0.60660892470E+02  0.16981525893E+01  0.62500001240E+02  0.10000008270E+02 0.  0.
    3000022    2    3    3    0    0  0.27748002756E+01 -0.33611417944E+02  0.45491872272E+01  0.34032110403E+02  0.25000255564E+00 0.  0.
    1000022    2    1    0    0    0 -0.11118560702E+02  0.60660892470E+02 -0.16981525893E+01  0.62499998760E+02  0.99999927753E+01 0.  0.
    3000022    2    5    5    0    0  0.11858280717E+00  0.49111873272E+01  0.23992044317E+01  0.54728880822E+01  0.24999842151E+00 0.  0.
        -13    1    4    4    0    0  0.19386143495E+01 -0.22876359612E+02  0.31052347504E+01  0.23167640418E+02  0.10500000000E+00 0.  1.
         13    1    4    4    0    0  0.83618592606E+00 -0.10735058332E+02  0.14439524768E+01  0.10864469985E+02  0.10500000000E+00 0. -1.
    3000001    1    5    5    0    0 -0.11237143509E+02  0.55749705143E+02 -0.40973570209E+01  0.57027110678E+02  0.10000000000E+01 0. -1.
        -13    1    6    6    0    0  0.76575388356E-01  0.23288013535E+01  0.10664306110E+01  0.25646595840E+01  0.10500000000E+00 0. -1.
         13    1    6    6    0    0  0.42007418812E-01  0.25823859737E+01  0.13327738207E+01  0.29082284982E+01  0.10500000000E+00 0.  1.
</event>
<event>
11    0  0.3485800E-009  0.9118800E+02  0.7816531E-02  0.1126479E+00
         25   -1    0    0    0    0  0.00000000000E+00  0.00000000000E+00  0.99999998245E-14  0.12500000000E+03  0.12500000000E+03 0.  0.
    3000001    1    3    3    0    0 -0.29522532899E+02 -0.28544688509E+02  0.30697906521E+02  0.51280997022E+02  0.10000000000E+01 0.  1.
    1000022    2    1    0    0    0 -0.34085508126E+02 -0.31799088178E+02  0.40413442547E+02  0.62499998835E+02  0.99999821385E+01 0.  0.
    3000022    2    3    3    0    0 -0.45629752268E+01 -0.32543996692E+01  0.97155360264E+01  0.11219001813E+02  0.25000255373E+00 0.  0.
    1000022    2    1    0    0    0  0.34085508126E+02  0.31799088178E+02 -0.40413442547E+02  0.62500001165E+02  0.99999966982E+01 0.  0.
    3000022    2    5    5    0    0  0.93394827417E+01  0.10983691895E+02 -0.71377160725E+01  0.16089652457E+02  0.24999989865E+00 0.  0.
        -13    1    4    4    0    0 -0.34247651397E+01 -0.24562458234E+01  0.72554527813E+01  0.83913514924E+01  0.10500000000E+00 0. -1.
         13    1    4    4    0    0 -0.11382100871E+01 -0.79815384576E+00  0.24600832452E+01  0.28276503208E+01  0.10500000000E+00 0.  1.
    3000001    1    5    5    0    0  0.24746025384E+02  0.20815396283E+02 -0.33275726475E+02  0.46410348707E+02  0.10000000000E+01 0.  1.
        -13    1    6    6    0    0  0.54563613332E+01  0.65145557273E+01 -0.42179840005E+01  0.94875565533E+01  0.10500000000E+00 0. -1.
         13    1    6    6    0    0  0.38831214085E+01  0.44691361673E+01 -0.29197320720E+01  0.66020959041E+01  0.10500000000E+00 0.  1.
</event>
<event>
11    0  0.3485800E-009  0.9118800E+02  0.7816531E-02  0.1126479E+00
         25   -1    0    0    0    0  0.00000000000E+00  0.00000000000E+00  0.99999998245E-14  0.12500000000E+03  0.12500000000E+03 0.  0.
    3000001    1    3    3    0    0  0.35125813325E+02 -0.28795396713E+02 -0.38148535710E+02  0.59323759241E+02  0.10000000000E+01 0. -1.
    1000022    2    1    0    0    0  0.37102644939E+02 -0.28074878587E+02 -0.40514751874E+02  0.62499997577E+02  0.99999754277E+01 0.  0.
    3000022    2    3    3    0    0  0.19768316137E+01  0.72051812607E+00 -0.23662161641E+01  0.31762383363E+01  0.25000286951E+00 0.  0.
    1000022    2    1    0    0    0 -0.37102644939E+02  0.28074878587E+02  0.40514751874E+02  0.62500002423E+02  0.10000005716E+02 0.  0.
    3000022    2    5    5    0    0 -0.30945517581E+02  0.27358521999E+02  0.35480585752E+02  0.54452256614E+02  0.25000143905E+00 0.  0.
        -13    1    4    4    0    0  0.12517904830E+01  0.39853290482E+00 -0.15121125772E+01  0.20058208633E+01  0.10500000000E+00 0.  1.
         13    1    4    4    0    0  0.72504113078E+00  0.32198522125E+00 -0.85410358687E+00  0.11704174730E+01  0.10500000000E+00 0. -1.
    3000001    1    5    5    0    0 -0.61571273580E+01  0.71635658809E+00  0.50341661226E+01  0.80477458095E+01  0.10000000000E+01 0. -1.
        -13    1    6    6    0    0 -0.10319458420E+02  0.91886227144E+01  0.11898441092E+02  0.18234745265E+02  0.10500000000E+00 0. -1.
         13    1    6    6    0    0 -0.20626059160E+02  0.18169899284E+02  0.23582144660E+02  0.36217511348E+02  0.10500000000E+00 0.  1.
</event>
<event>
11    0  0.3485800E-009  0.9118800E+02  0.7816531E-02  0.1126479E+00
         25   -1    0    0    0    0  0.00000000000E+00  0.00000000000E+00  0.99999998245E-14  0.12500000000E+03  0.12500000000E+03 0.  0.
    3000001    1    3    3    0    0  0.37763364756E+01  0.30441194709E+01  0.47101675786E+01  0.68346952491E+01  0.10000000000E+01 0.  1.
    1000022    2    1    0    0    0  0.21286045156E+02  0.48580753009E+02  0.31512936997E+02  0.62499997082E+02  0.99999577821E+01 0.  0.
    3000022    2    3    3    0    0  0.17509708681E+02  0.45536633538E+02  0.26802769419E+02  0.55665301832E+02  0.24997496638E+00 0.  0.
    1000022    2    1    0    0    0 -0.21286045156E+02 -0.48580753009E+02 -0.31512936997E+02  0.62500002918E+02  0.99999942630E+01 0.  0.
    3000022    2    5    5    0    0 -0.14758000559E+02 -0.34280732186E+02 -0.27156148825E+02  0.46157189055E+02  0.25000542141E+00 0.  0.
        -13    1    4    4    0    0  0.92992877676E+01  0.24172467449E+02  0.14152027402E+02  0.29513993971E+02  0.10500000000E+00 0.  1.
         13    1    4    4    0    0  0.82104209133E+01  0.21364166089E+02  0.12650742017E+02  0.26151307861E+02  0.10500000000E+00 0. -1.
    3000001    1    5    5    0    0 -0.65280445972E+01 -0.14300020823E+02 -0.43567881726E+01  0.16342813864E+02  0.10000000000E+01 0. -1.
        -13    1    6    6    0    0 -0.69707180374E+01 -0.16089194980E+02 -0.12824639101E+02  0.21724076462E+02  0.10500000000E+00 0. -1.
         13    1    6    6    0    0 -0.77872825218E+01 -0.18191537206E+02 -0.14331509724E+02  0.24433112593E+02  0.10500000000E+00 0.  1.
</event>
<event>
11    0  0.3485800E-009  0.9118800E+02  0.7816531E-02  0.1126479E+00
         25   -1    0    0    0    0  0.00000000000E+00  0.00000000000E+00  0.99999998245E-14  0.12500000000E+03  0.12500000000E+03 0.  0.
    3000001    1    3    3    0    0 -0.16860631808E+02  0.34874621943E+02  0.25565641552E+02  0.46423293599E+02  0.10000000000E+01 0. -1.
    1000022    2    1    0    0    0 -0.27660822593E+02  0.44359262344E+02  0.32762548964E+02  0.62500000353E+02  0.10000008361E+02 0.  0.
    3000022    2    3    3    0    0 -0.10800190785E+02  0.94846404008E+01  0.71969074124E+01  0.16076706754E+02  0.24999841039E+00 0.  0.
    1000022    2    1    0    0    0  0.27660822593E+02 -0.44359262344E+02 -0.32762548964E+02  0.62499999647E+02  0.10000003952E+02 0.  0.
    3000022    2    5    5    0    0  0.11693894730E+02 -0.26560197316E+02 -0.21074035948E+02  0.35865983093E+02  0.24999338164E+00 0.  0.
        -13    1    4    4    0    0 -0.52914635120E+01  0.47157147866E+01  0.35978730120E+01  0.79494193032E+01  0.10500000000E+00 0.  1.
         13    1    4    4    0    0 -0.55087272733E+01  0.47689256142E+01  0.35990344004E+01  0.81272874503E+01  0.10500000000E+00 0. -1.
    3000001    1    5    5    0    0  0.15966927863E+02 -0.17799065028E+02 -0.11688513016E+02  0.26634016554E+02  0.10000000000E+01 0. -1.
        -13    1    6    6    0    0  0.65820682666E+01 -0.14848531834E+02 -0.11730067032E+02  0.20035169525E+02  0.10500000000E+00 0. -1.
         13    1    6    6    0    0  0.51118264632E+01 -0.11711665482E+02 -0.93439689158E+01  0.15830813569E+02  0.10500000000E+00 0.  1.
</event>
<event>
11    0  0.3485800E-009  0.9118800E+02  0.7816531E-02  0.1126479E+00
         25   -1    0    0    0    0  0.00000000000E+00  0.00000000000E+00  0.99999998245E-14  0.12500000000E+03  0.12500000000E+03 0.  0.
    3000001    1    3    3    0    0 -0.12351068591E+02 -0.28711025456E+02  0.33531891920E+01  0.31450210744E+02  0.10000000000E+01 0.  1.
    1000022    2    1    0    0    0 -0.24255086488E+02 -0.54388079469E+02  0.16120728771E+02  0.62499998377E+02  0.99999746082E+01 0.  0.
    3000022    2    3    3    0    0 -0.11904017898E+02 -0.25677054012E+02  0.12767539579E+02  0.31049787633E+02  0.25000058372E+00 0.  0.
    1000022    2    1    0    0    0  0.24255086488E+02  0.54388079469E+02 -0.16120728771E+02  0.62500001623E+02  0.99999948970E+01 0.  0.
    3000022    2    5    5    0    0  0.16594029709E+02  0.34899172470E+02 -0.15166422036E+02  0.41513815968E+02  0.24999563635E+00 0.  0.
        -13    1    4    4    0    0 -0.45822198163E+01 -0.98535673668E+01  0.49681097173E+01  0.11949170158E+02  0.10500000000E+00 0. -1.
         13    1    4    4    0    0 -0.73217980813E+01 -0.15823486646E+02  0.77994298615E+01  0.19100617475E+02  0.10500000000E+00 0.  1.
    3000001    1    5    5    0    0  0.76610567797E+01  0.19488906999E+02 -0.95430673427E+00  0.20986185655E+02  0.10000000000E+01 0. -1.
        -13    1    6    6    0    0  0.60716851682E+01  0.12906168361E+02 -0.55881281308E+01  0.15319032070E+02  0.10500000000E+00 0. -1.
         13    1    6    6    0    0  0.10522344541E+02  0.21993004109E+02 -0.95782939057E+01  0.26194783899E+02  0.10500000000E+00 0.  1.
</event>
<event>
11    0  0.3485800E-009  0.9118800E+02  0.7816531E-02  0.1126479E+00
         25   -1    0    0    0    0  0.00000000000E+00  0.00000000000E+00  0.99999998245E-14  0.12500000000E+03  0.12500000000E+03 0.  0.
    3000001    1    3    3    0    0 -0.55560180255E+02  0.97752536933E+00  0.27943592878E+01  0.55647979565E+02  0.10000000000E+01 0. -1.
    1000022    2    1    0    0    0 -0.61342199777E+02  0.13804668621E+01  0.64403954352E+01  0.62500000364E+02  0.10000009499E+02 0.  0.
    3000022    2    3    3    0    0 -0.57820195217E+01  0.40294149274E+00  0.36460361473E+01  0.68520207995E+01  0.24999570701E+00 0.  0.
    1000022    2    1    0    0    0  0.61342199777E+02 -0.13804668621E+01 -0.64403954352E+01  0.62499999636E+02  0.10000004945E+02 0.  0.
    3000022    2    5    5    0    0  0.45206811176E+02 -0.50167907431E+01 -0.63751423863E+01  0.45929608131E+02  0.24999308286E+00 0.  0.
        -13    1    4    4    0    0 -0.24218369659E+01  0.19694324034E+00  0.14600509572E+01  0.28366978561E+01  0.10500000000E+00 0.  1.
         13    1    4    4    0    0 -0.33601825559E+01  0.20599825240E+00  0.21859851902E+01  0.40153229435E+01  0.10500000000E+00 0. -1.
    3000001    1    5    5    0    0  0.16135388601E+02  0.36363238810E+01 -0.65253048898E-01  0.16570391505E+02  0.10000000000E+01 0.  1.
        -13    1    6    6    0    0  0.17693645728E+02 -0.19706582185E+01 -0.24329732809E+01  0.17968833489E+02  0.10500000000E+00 0. -1.
         13    1    6    6    0    0  0.27513165448E+02 -0.30461325245E+01 -0.39421691054E+01  0.27960774642E+02  0.10500000000E+00 0.  1.
</event>
<event>
11    0  0.3485800E-009  0.9118800E+02  0.7816531E-02  0.1126479E+00
         25   -1    0    0    0    0  0.00000000000E+00  0.00000000000E+00  0.99999998245E-14  0.12500000000E+03  0.12500000000E+03 0.  0.
    3000001    1    3    3    0    0 -0.38651349414E+02 -0.39646937510E+02  0.27841548811E+01  0.55448696864E+02  0.10000000000E+01 0. -1.
    1000022    2    1    0    0    0 -0.44339266527E+02 -0.42503421446E+02  0.58084637348E+01  0.62499997813E+02  0.10000004245E+02 0.  0.
    3000022    2    3    3    0    0 -0.56879171126E+01 -0.28564839360E+01  0.30243088537E+01  0.70513009493E+01  0.24999895652E+00 0.  0.
    1000022    2    1    0    0    0  0.44339266527E+02  0.42503421446E+02 -0.58084637348E+01  0.62500002187E+02  0.10000031578E+02 0.  0.
    3000022    2    5    5    0    0  0.23648029805E+02  0.27122433779E+02 -0.70494817609E+01  0.36668970762E+02  0.24999179094E+00 0.  0.
        -13    1    4    4    0    0 -0.42216217586E+01 -0.21292645055E+01  0.22131689175E+01  0.52215897258E+01  0.10500000000E+00 0. -1.
         13    1    4    4    0    0 -0.14662953540E+01 -0.72721943057E+00  0.81113993627E+00  0.18297112236E+01  0.10500000000E+00 0.  1.
    3000001    1    5    5    0    0  0.20691236723E+02  0.15380987667E+02  0.12410180261E+01  0.25831031425E+02  0.10000000000E+01 0. -1.
        -13    1    6    6    0    0  0.11012431037E+02  0.12724568906E+02 -0.33237469806E+01  0.17153617991E+02  0.10500000000E+00 0. -1.
         13    1    6    6    0    0  0.12635598768E+02  0.14397864873E+02 -0.37257347803E+01  0.19515352771E+02  0.10500000000E+00 0.  1.
</event>
<event>
11    0  0.3485800E-009  0.9118800E+02  0.7816531E-02  0.1126479E+00
         25   -1    0    0    0    0  0.00000000000E+00  0.00000000000E+00  0.99999998245E-14  0.12500000000E+03  0.12500000000E+03 0.  0.
    3000001    1    3    3    0    0 -0.16209276750E+02  0.18580113964E+02 -0.10092048094E+01  0.24697768766E+02  0.10000000000E+01 0. -1.
    1000022    2    1    0    0    0 -0.30840354525E+02  0.53168829913E+02 -0.53101950769E+01  0.62500000941E+02  0.10000000215E+02 0.  0.
    3000022    2    3    3    0    0 -0.14631077775E+02  0.34588715950E+02 -0.43009902675E+01  0.37802232176E+02  0.25006448784E+00 0.  0.
    1000022    2    1    0    0    0  0.30840354525E+02 -0.53168829913E+02  0.53101950769E+01  0.62499999059E+02  0.99999884492E+01 0.  0.
    3000022    2    5    5    0    0  0.64192743870E+01 -0.17564053677E+02  0.48089947601E+01  0.19310411799E+02  0.25001598900E+00 0.  0.
        -13    1    4    4    0    0 -0.10651835309E+02  0.25085970463E+02 -0.31150327548E+01  0.27431404695E+02  0.10500000000E+00 0.  1.
         13    1    4    4    0    0 -0.39792424666E+01  0.95027454871E+01 -0.11859575127E+01  0.10370827480E+02  0.10500000000E+00 0. -1.
    3000001    1    5    5    0    0  0.24421080138E+02 -0.35604776236E+02  0.50120031686E+00  0.43189587260E+02  0.10000000000E+01 0.  1.
        -13    1    6    6    0    0  0.48654611276E+01 -0.13320500835E+02  0.36253936891E+01  0.14637723829E+02  0.10500000000E+00 0. -1.
         13    1    6    6    0    0  0.15538132594E+01 -0.42435528421E+01  0.11836010710E+01  0.46726879699E+01  0.10500000000E+00 0.  1.
</event>
<event>
11    0  0.3485800E-009  0.9118800E+02  0.7816531E-02  0.1126479E+00
         25   -1    0    0    0    0  0.00000000000E+00  0.00000000000E+00  0.99999998245E-14  0.12500000000E+03  0.12500000000E+03 0.  0.
    3000001    1    3    3    0    0 -0.38455418292E+02  0.36062224409E+00 -0.14704035834E+02  0.41184437768E+02  0.10000000000E+01 0.  1.
    1000022    2    1    0    0    0 -0.57869189956E+02  0.73096355449E+01 -0.20099152026E+02  0.62499997716E+02  0.99999942236E+01 0.  0.
    3000022    2    3    3    0    0 -0.19413771664E+02  0.69490133009E+01 -0.53951161911E+01  0.21315559949E+02  0.25000229388E+00 0.  0.
    1000022    2    1    0    0    0  0.57869189956E+02 -0.73096355449E+01  0.20099152026E+02  0.62500002284E+02  0.10000022769E+02 0.  0.
    3000022    2    5    5    0    0  0.30034527279E+02  0.10078884817E+01  0.88155138768E+01  0.31318755642E+02  0.25000397204E+00 0.  0.
        -13    1    4    4    0    0 -0.10065221602E+02  0.35788077351E+01 -0.28609640086E+01  0.11059506804E+02  0.10500000000E+00 0.  1.
         13    1    4    4    0    0 -0.93485500617E+01  0.33702055658E+01 -0.25341521825E+01  0.10256053144E+02  0.10500000000E+00 0. -1.
    3000001    1    5    5    0    0  0.27834662677E+02 -0.83175240266E+01  0.11283638149E+02  0.31181246642E+02  0.10000000000E+01 0. -1.
        -13    1    6    6    0    0  0.84412206559E+01  0.26010143913E+00  0.24434590052E+01  0.87922338362E+01  0.10500000000E+00 0. -1.
         13    1    6    6    0    0  0.21593306623E+02  0.74778704254E+00  0.63720548716E+01  0.22526521806E+02  0.10500000000E+00 0.  1.
</event>
<event>
11    0  0.3485800E-009  0.9118800E+02  0.7816531E-02  0.1126479E+00
         25   -1    0    0    0    0  0.00000000000E+00  0.00000000000E+00  0.99999998245E-14  0.12500000000E+03  0.12500000000E+03 0.  0.
    3000001    1    3    3    0    0  0.56784735419E+00  0.70568652468E+00  0.47763538039E+00  0.14312860110E+01  0.10000000000E+01 0. -1.
    1000022    2    1    0    0    0  0.20537294919E+01  0.12763329120E+02  0.60325198711E+02  0.62500000798E+02  0.10000006258E+02 0.  0.
    3000022    2    3    3    0    0  0.14858821377E+01  0.12057642595E+02  0.59847563330E+02  0.61068714787E+02  0.24999685395E+00 0.  0.
    1000022    2    1    0    0    0 -0.20537294919E+01 -0.12763329120E+02 -0.60325198711E+02  0.62499999202E+02  0.99999962870E+01 0.  0.
    3000022    2    5    5    0    0  0.17456167015E+01  0.15913000705E+00 -0.21888466564E+01  0.28153243554E+01  0.25000302614E+00 0.  0.
        -13    1    4    4    0    0  0.69097223555E+00  0.51404901090E+01  0.25391459818E+02  0.25916005439E+02  0.10500000000E+00 0.  1.
         13    1    4    4    0    0  0.79490990214E+00  0.69171524862E+01  0.34456103512E+02  0.35152709348E+02  0.10500000000E+00 0. -1.
    3000001    1    5    5    0    0 -0.37993461934E+01 -0.12922459127E+02 -0.58136352054E+02  0.59684674847E+02  0.10000000000E+01 0.  1.
        -13    1    6    6    0    0  0.74340896072E+00  0.10699139740E+00 -0.10232382013E+01  0.12736347430E+01  0.10500000000E+00 0. -1.
         13    1    6    6    0    0  0.10022077408E+01  0.52138609651E-01 -0.11656084550E+01  0.15416896124E+01  0.10500000000E+00 0.  1.
</event>
<event>
11    0  0.3485800E-009  0.9118800E+02  0.7816531E-02  0.1126479E+00
         25   -1    0    0    0    0  0.00000000000E+00  0.00000000000E+00  0.99999998245E-14  0.12500000000E+03  0.12500000000E+03 0.  0.
    3000001    1    3    3    0    0  0.27772430381E+02  0.51050443600E-01 -0.43466196842E+02  0.51590898067E+02  0.10000000000E+01 0.  1.
    1000022    2    1    0    0    0  0.35906266167E+02  0.30678011932E+01 -0.50075729888E+02  0.62499999607E+02  0.99999936448E+01 0.  0.
    3000022    2    3    3    0    0  0.81338357859E+01  0.30167507496E+01 -0.66095330458E+01  0.10909101541E+02  0.24999932381E+00 0.  0.
    1000022    2    1    0    0    0 -0.35906266167E+02 -0.30678011932E+01  0.50075729888E+02  0.62500000393E+02  0.99999985543E+01 0.  0.
    3000022    2    5    5    0    0 -0.25312642062E+02 -0.33599087107E+01  0.41939336337E+02  0.49101825200E+02  0.24994172833E+00 0.  0.
        -13    1    4    4    0    0  0.20402156218E+01  0.75123443939E+00 -0.16247816176E+01  0.27162056754E+01  0.10500000000E+00 0. -1.
         13    1    4    4    0    0  0.60936201641E+01  0.22655163103E+01 -0.49847514283E+01  0.81928958652E+01  0.10500000000E+00 0.  1.
    3000001    1    5    5    0    0 -0.10593624106E+02  0.29210751742E+00  0.81363935502E+01  0.13398175193E+02  0.10000000000E+01 0.  1.
        -13    1    6    6    0    0 -0.18815148619E+02 -0.25270626089E+01  0.31189668147E+02  0.36513042698E+02  0.10500000000E+00 0.  1.
         13    1    6    6    0    0 -0.64974934423E+01 -0.83284610172E+00  0.10749668191E+02  0.12588782502E+02  0.10500000000E+00 0. -1.
</event>
<event>
11    0  0.3485800E-009  0.9118800E+02  0.7816531E-02  0.1126479E+00
         25   -1    0    0    0    0  0.00000000000E+00  0.00000000000E+00  0.99999998245E-14  0.12500000000E+03  0.12500000000E+03 0.  0.
    3000001    1    3    3    0    0  0.12094857479E+02 -0.15798577935E+02 -0.18132856626E+02  0.26938469363E+02  0.10000000000E+01 0. -1.
    1000022    2    1    0    0    0  0.23811585832E+02 -0.28809436684E+02 -0.49084364180E+02  0.62500000587E+02  0.10000000222E+02 0.  0.
    3000022    2    3    3    0    0  0.11716728353E+02 -0.13010858749E+02 -0.30951507555E+02  0.35561531224E+02  0.25002875607E+00 0.  0.
    1000022    2    1    0    0    0 -0.23811585832E+02  0.28809436684E+02  0.49084364180E+02  0.62499999413E+02  0.99999928890E+01 0.  0.
    3000022    2    5    5    0    0 -0.12628793176E+02  0.14341177780E+02  0.32959875848E+02  0.38099497548E+02  0.25000057556E+00 0.  0.
        -13    1    4    4    0    0  0.42521202090E+01 -0.47413531422E+01 -0.11375355496E+02  0.13037280911E+02  0.10500000000E+00 0. -1.
         13    1    4    4    0    0  0.74646081438E+01 -0.82695056073E+01 -0.19576152059E+02  0.22524250313E+02  0.10500000000E+00 0.  1.
    3000001    1    5    5    0    0 -0.11182792656E+02  0.14468258904E+02  0.16124488332E+02  0.24400501865E+02  0.10000000000E+01 0.  1.
        -13    1    6    6    0    0 -0.50293203768E+01  0.57810964997E+01  0.13131049036E+02  0.15203638182E+02  0.10500000000E+00 0. -1.
         13    1    6    6    0    0 -0.75994727995E+01  0.85600812806E+01  0.19828826812E+02  0.22895859366E+02  0.10500000000E+00 0.  1.
</event>
<event>
11    0  0.3485800E-009  0.9118800E+02  0.7816531E-02  0.1126479E+00
         25   -1    0    0    0    0  0.00000000000E+00  0.00000000000E+00  0.99999998245E-14  0.12500000000E+03  0.12500000000E+03 0.  0.
    3000001    1    3    3    0    0 -0.15626686813E+02 -0.22598862984E+02 -0.13733912106E+01  0.27527952200E+02  0.10000000000E+01 0. -1.
    1000022    2    1    0    0    0 -0.40561180904E+02 -0.45188390279E+02 -0.10910994091E+02  0.62499999695E+02  0.10000007871E+02 0.  0.
    3000022    2    3    3    0    0 -0.24934494092E+02 -0.22589527295E+02 -0.95376028807E+01  0.34972047495E+02  0.24999647352E+00 0.  0.
    1000022    2    1    0    0    0  0.40561180904E+02  0.45188390279E+02  0.10910994091E+02  0.62500000305E+02  0.10000011682E+02 0.  0.
    3000022    2    5    5    0    0  0.24196923626E+02  0.25228741662E+02  0.14359144372E+01  0.34987210122E+02  0.25000606281E+00 0.  0.
        -13    1    4    4    0    0 -0.16610395074E+02 -0.15050411466E+02 -0.64095921177E+01  0.23313386840E+02  0.10500000000E+00 0.  1.
         13    1    4    4    0    0 -0.83240990177E+01 -0.75391158292E+01 -0.31280107630E+01  0.11658660655E+02  0.10500000000E+00 0. -1.
    3000001    1    5    5    0    0  0.16364257279E+02  0.19959648617E+02  0.94750796540E+01  0.27512790183E+02  0.10000000000E+01 0. -1.
        -13    1    6    6    0    0  0.60377856072E+01  0.63021851120E+01  0.33278837483E+00  0.87346531315E+01  0.10500000000E+00 0. -1.
         13    1    6    6    0    0  0.18159138018E+02  0.18926556550E+02  0.11031260624E+01  0.26252556990E+02  0.10500000000E+00 0.  1.
</event>
<event>
11    0  0.3485800E-009  0.9118800E+02  0.7816531E-02  0.1126479E+00
         25   -1    0    0    0    0  0.00000000000E+00  0.00000000000E+00  0.99999998245E-14  0.12500000000E+03  0.12500000000E+03 0.  0.
    3000001    1    3    3    0    0  0.10998435222E+02 -0.43216527200E+02 -0.33973367900E+02  0.56069809408E+02  0.10000000000E+01 0. -1.
    1000022    2    1    0    0    0  0.94116248765E+01 -0.46835286742E+02 -0.39040067978E+02  0.62499998849E+02  0.10000009068E+02 0.  0.
    3000022    2    3    3    0    0 -0.15868103451E+01 -0.36187595422E+01 -0.50667000778E+01  0.64301894413E+01  0.24999775181E+00 0.  0.
    1000022    2    1    0    0    0 -0.94116248765E+01  0.46835286742E+02  0.39040067978E+02  0.62500001151E+02  0.10000023454E+02 0.  0.
    3000022    2    5    5    0    0 -0.61671960969E+01  0.42073891316E+02  0.36804235736E+02  0.56239318254E+02  0.25002294609E+00 0.  0.
        -13    1    4    4    0    0 -0.85989293338E+00 -0.19749102820E+01 -0.28693016966E+01  0.35893737204E+01  0.10500000000E+00 0.  1.
         13    1    4    4    0    0 -0.72691741173E+00 -0.16438492602E+01 -0.21973983812E+01  0.28408157208E+01  0.10500000000E+00 0. -1.
    3000001    1    5    5    0    0 -0.32444287797E+01  0.47613954268E+01  0.22358322419E+01  0.62606828965E+01  0.10000000000E+01 0.  1.
        -13    1    6    6    0    0 -0.14912657016E+01  0.10220502619E+02  0.89126178859E+01  0.13642885683E+02  0.10500000000E+00 0. -1.
         13    1    6    6    0    0 -0.46759303953E+01  0.31853388697E+02  0.27891617850E+02  0.42596432572E+02  0.10500000000E+00 0.  1.
</event>
<event>
11    0  0.3485800E-009  0.9118800E+02  0.7816531E-02  0.1126479E+00
         25   -1    0    0    0    0  0.00000000000E+00  0.00000000000E+00  0.99999998245E-14  0.12500000000E+03  0.12500000000E+03 0.  0.
    3000001    1    3    3    0    0  0.20259878722E+02  0.34184261648E+00  0.20073127099E+02  0.28539621121E+02  0.10000000000E+01 0.  1.
    1000022    2    1    0    0    0  0.37847009723E+02 -0.66820147360E+01  0.48261833459E+02  0.62500001110E+02  0.10000005204E+02 0.  0.
    3000022    2    3    3    0    0  0.17587131001E+02 -0.70238573525E+01  0.28188706360E+02  0.33960379989E+02  0.24998763713E+00 0.  0.
    1000022    2    1    0    0    0 -0.37847009723E+02  0.66820147360E+01 -0.48261833459E+02  0.62499998890E+02  0.99999913249E+01 0.  0.
    3000022    2    5    5    0    0 -0.28786379260E+02  0.34441029767E+01 -0.29336943605E+02  0.41246045071E+02  0.24999536425E+00 0.  0.
        -13    1    4    4    0    0  0.54313930528E+01 -0.21629183560E+01  0.86173573129E+01  0.10413842632E+02  0.10500000000E+00 0. -1.
         13    1    4    4    0    0  0.12155737948E+02 -0.48609389965E+01  0.19571349047E+02  0.23546537357E+02  0.10500000000E+00 0.  1.
    3000001    1    5    5    0    0 -0.90606304625E+01  0.32379117593E+01 -0.18924889854E+02  0.21253953819E+02  0.10000000000E+01 0.  1.
        -13    1    6    6    0    0 -0.13775618370E+02  0.17112939467E+01 -0.14082772996E+02  0.19774521706E+02  0.10500000000E+00 0. -1.
         13    1    6    6    0    0 -0.15010760890E+02  0.17328090300E+01 -0.15254170608E+02  0.21471523364E+02  0.10500000000E+00 0.  1.
</event>
<event>
11    0  0.3485800E-009  0.9118800E+02  0.7816531E-02  0.1126479E+00
         25   -1    0    0    0    0  0.00000000000E+00  0.00000000000E+00  0.99999998245E-14  0.12500000000E+03  0.12500000000E+03 0.  0.
    3000001    1    3    3    0    0 -0.37051858671E+02  0.31875366803E+02  0.33597077283E+02  0.59318149345E+02  0.10000000000E+01 0.  1.
    1000022    2    1    0    0    0 -0.39463265259E+02  0.33891467822E+02  0.33170307536E+02  0.62500001052E+02  0.99999966726E+01 0.  0.
    3000022    2    3    3    0    0 -0.24114065884E+01  0.20161010193E+01 -0.42676974694E+00  0.31818517072E+01  0.25000563019E+00 0.  0.
    1000022    2    1    0    0    0  0.39463265259E+02 -0.33891467822E+02 -0.33170307536E+02  0.62499998948E+02  0.99999835215E+01 0.  0.
    3000022    2    5    5    0    0  0.17279818534E+02 -0.86317607326E+01 -0.12960324375E+02  0.23262242511E+02  0.24999364230E+00 0.  0.
        -13    1    4    4    0    0 -0.14788581815E+01  0.13138481726E+01 -0.27433965242E+00  0.19998764428E+01  0.10500000000E+00 0. -1.
         13    1    4    4    0    0 -0.93254840689E+00  0.70225284667E+00 -0.15243009452E+00  0.11819752644E+01  0.10500000000E+00 0.  1.
    3000001    1    5    5    0    0  0.22183446725E+02 -0.25259707089E+02 -0.20209983161E+02  0.39237756437E+02  0.10000000000E+01 0.  1.
        -13    1    6    6    0    0  0.56682912235E+01 -0.28784687037E+01 -0.43040446805E+01  0.76779510994E+01  0.10500000000E+00 0. -1.
         13    1    6    6    0    0  0.11611527310E+02 -0.57532920289E+01 -0.86562796944E+01  0.15584291411E+02  0.10500000000E+00 0.  1.
</event>
<event>
11    0  0.3485800E-009  0.9118800E+02  0.7816531E-02  0.1126479E+00
         25   -1    0    0    0    0  0.00000000000E+00  0.00000000000E+00  0.99999998245E-14  0.12500000000E+03  0.12500000000E+03 0.  0.
    3000001    1    3    3    0    0  0.30579793905E+02 -0.21919984473E+02  0.47811393229E+01  0.37940332205E+02  0.10000000000E+01 0. -1.
    1000022    2    1    0    0    0  0.49057663086E+02 -0.34063546572E+02  0.15468374468E+02  0.62499999233E+02  0.99999891477E+01 0.  0.
    3000022    2    3    3    0    0  0.18477869181E+02 -0.12143562098E+02  0.10687235145E+02  0.24559667028E+02  0.24999918234E+00 0.  0.
    1000022    2    1    0    0    0 -0.49057663086E+02  0.34063546572E+02 -0.15468374468E+02  0.62500000767E+02  0.99999987313E+01 0.  0.
    3000022    2    5    5    0    0 -0.22157256294E+00  0.55912149491E+00  0.84031641230E+00  0.10631743874E+01  0.24999371703E+00 0.  0.
        -13    1    4    4    0    0  0.67257447735E+01 -0.44213714827E+01  0.38253807554E+01  0.89122798133E+01  0.10500000000E+00 0. -1.
         13    1    4    4    0    0  0.11752124407E+02 -0.77221906156E+01  0.68618543894E+01  0.15647387215E+02  0.10500000000E+00 0.  1.
    3000001    1    5    5    0    0 -0.48836090523E+02  0.33504425077E+02 -0.16308690880E+02  0.61436826379E+02  0.10000000000E+01 0.  1.
        -13    1    6    6    0    0 -0.16082176416E+00  0.44501344614E+00  0.61813840911E+00  0.78550665172E+00  0.10500000000E+00 0.  1.
         13    1    6    6    0    0 -0.60750798780E-01  0.11410804877E+00  0.22217800318E+00  0.27766773569E+00  0.10500000000E+00 0. -1.
</event>
<event>
11    0  0.3485800E-009  0.9118800E+02  0.7816531E-02  0.1126479E+00
         25   -1    0    0    0    0  0.00000000000E+00  0.00000000000E+00  0.99999998245E-14  0.12500000000E+03  0.12500000000E+03 0.  0.
    3000001    1    3    3    0    0 -0.36667992506E+02  0.36617309494E+02 -0.70203584290E+01  0.52303484220E+02  0.10000000000E+01 0. -1.
    1000022    2    1    0    0    0 -0.40210597290E+02  0.45731240444E+02 -0.99000596435E+01  0.62500001634E+02  0.10000026817E+02 0.  0.
    3000022    2    3    3    0    0 -0.35426047838E+01  0.91139309495E+01 -0.28797012145E+01  0.10196517414E+02  0.25000457470E+00 0.  0.
    1000022    2    1    0    0    0  0.40210597290E+02 -0.45731240444E+02  0.99000596435E+01  0.62499998366E+02  0.10000006394E+02 0.  0.
    3000022    2    5    5    0    0  0.38011255609E+02 -0.45174089419E+02  0.10458949964E+02  0.59958369069E+02  0.24995844849E+00 0.  0.
        -13    1    4    4    0    0 -0.23633464400E+01  0.60203057768E+01 -0.19565551147E+01  0.67578562399E+01  0.10500000000E+00 0. -1.
         13    1    4    4    0    0 -0.11792583438E+01  0.30936251727E+01 -0.92314609982E+00  0.34386611744E+01  0.10500000000E+00 0.  1.
    3000001    1    5    5    0    0  0.21993416814E+01 -0.55715102459E+00 -0.55889032055E+00  0.25416292975E+01  0.10000000000E+01 0.  1.
        -13    1    6    6    0    0  0.20186099581E+02 -0.23932854504E+02  0.54892214470E+01  0.31786832464E+02  0.10500000000E+00 0.  1.
         13    1    6    6    0    0  0.17825156028E+02 -0.21241234915E+02  0.49697285171E+01  0.28171536605E+02  0.10500000000E+00 0. -1.
</event>
<event>
11    0  0.3485800E-009  0.9118800E+02  0.7816531E-02  0.1126479E+00
         25   -1    0    0    0    0  0.00000000000E+00  0.00000000000E+00  0.99999998245E-14  0.12500000000E+03  0.12500000000E+03 0.  0.
    3000001    1    3    3    0    0  0.38238175481E+01 -0.10799781968E+01  0.82857048720E+01  0.92434213781E+01  0.10000000000E+01 0.  1.
    1000022    2    1    0    0    0  0.18039335438E+02 -0.28653636578E+02  0.51573265136E+02  0.62499998046E+02  0.99999783364E+01 0.  0.
    3000022    2    3    3    0    0  0.14215517890E+02 -0.27573658381E+02  0.43287560264E+02  0.53256576668E+02  0.24999867992E+00 0.  0.
    1000022    2    1    0    0    0 -0.18039335438E+02  0.28653636578E+02 -0.51573265136E+02  0.62500001954E+02  0.10000002765E+02 0.  0.
    3000022    2    5    5    0    0 -0.30572757803E+01  0.45742994138E+00 -0.70508031722E+01  0.77027593265E+01  0.24999703975E+00 0.  0.
        -13    1    4    4    0    0  0.90448822696E+01 -0.17640923093E+02  0.27597122284E+02  0.33979762303E+02  0.10500000000E+00 0. -1.
         13    1    4    4    0    0  0.51706356199E+01 -0.99327352882E+01  0.15690437981E+02  0.19276814365E+02  0.10500000000E+00 0.  1.
    3000001    1    5    5    0    0 -0.14982059657E+02  0.28196206636E+02 -0.44522461964E+02  0.54797242628E+02  0.10000000000E+01 0.  1.
        -13    1    6    6    0    0 -0.17212888459E+01  0.19097311975E+00 -0.39608417036E+01  0.43241875566E+01  0.10500000000E+00 0. -1.
         13    1    6    6    0    0 -0.13359869344E+01  0.26645682163E+00 -0.30899614686E+01  0.33785717698E+01  0.10500000000E+00 0.  1.
</event>
<event>
11    0  0.3485800E-009  0.9118800E+02  0.7816531E-02  0.1126479E+00
         25   -1    0    0    0    0  0.00000000000E+00  0.00000000000E+00  0.99999998245E-14  0.12500000000E+03  0.12500000000E+03 0.  0.
    3000001    1    3    3    0    0  0.74211992555E-01 -0.58870267390E+00  0.49826715788E+01  0.51165510180E+01  0.10000000000E+01 0. -1.
    1000022    2    1    0    0    0 -0.29364409502E+02 -0.23849877555E+01  0.54206026482E+02  0.62499999918E+02  0.99999985398E+01 0.  0.
    3000022    2    3    3    0    0 -0.29438621495E+02 -0.17962850816E+01  0.49223354903E+02  0.57383448900E+02  0.24992826845E+00 0.  0.
    1000022    2    1    0    0    0  0.29364409502E+02  0.23849877555E+01 -0.54206026482E+02  0.62500000082E+02  0.99999995618E+01 0.  0.
    3000022    2    5    5    0    0  0.15420299858E+02 -0.99727681941E+00 -0.36844542957E+02  0.39954512337E+02  0.25000333487E+00 0.  0.
        -13    1    4    4    0    0 -0.17963768319E+02 -0.11578595171E+01  0.30031492547E+02  0.35013414293E+02  0.10500000000E+00 0.  1.
         13    1    4    4    0    0 -0.11474853176E+02 -0.63842556448E+00  0.19191862356E+02  0.22370034607E+02  0.10500000000E+00 0. -1.
    3000001    1    5    5    0    0  0.13944109644E+02  0.33822645749E+01 -0.17361483525E+02  0.22545487744E+02  0.10000000000E+01 0. -1.
        -13    1    6    6    0    0  0.83478105038E+01 -0.60695930871E+00 -0.19947241197E+02  0.21632332195E+02  0.10500000000E+00 0.  1.
         13    1    6    6    0    0  0.70724893540E+01 -0.39031751070E+00 -0.16897301760E+02  0.18322180143E+02  0.10500000000E+00 0. -1.
</event>
<event>
11    0  0.3485800E-009  0.9118800E+02  0.7816531E-02  0.1126479E+00
         25   -1    0    0    0    0  0.00000000000E+00  0.00000000000E+00  0.99999998245E-14  0.12500000000E+03  0.12500000000E+03 0.  0.
    3000001    1    3    3    0    0 -0.22235375310E+02  0.40014240005E+02 -0.61376645730E+01  0.46197643282E+02  0.10000000000E+01 0.  1.
    1000022    2    1    0    0    0 -0.25653023566E+02  0.54780165928E+02 -0.12136952400E+02  0.62500000190E+02  0.10000010650E+02 0.  0.
    3000022    2    3    3    0    0 -0.34176482563E+01  0.14765925922E+02 -0.59992878266E+01  0.16302356908E+02  0.24999674989E+00 0.  0.
    1000022    2    1    0    0    0  0.25653023566E+02 -0.54780165928E+02  0.12136952400E+02  0.62499999810E+02  0.10000008278E+02 0.  0.
    3000022    2    5    5    0    0  0.15910748145E+01 -0.12230062528E+02  0.37515728872E+01  0.12893515691E+02  0.24999850339E+00 0.  0.
        -13    1    4    4    0    0 -0.20994124724E+01  0.89284038906E+01 -0.36880460922E+01  0.98861841850E+01  0.10500000000E+00 0. -1.
         13    1    4    4    0    0 -0.13182357840E+01  0.58375220319E+01 -0.23112417344E+01  0.64161727229E+01  0.10500000000E+00 0.  1.
    3000001    1    5    5    0    0  0.24061948752E+02 -0.42550103400E+02  0.83853795124E+01  0.49606484119E+02  0.10000000000E+01 0. -1.
        -13    1    6    6    0    0  0.82051138532E+00 -0.67451170273E+01  0.21036034985E+01  0.71137905033E+01  0.10500000000E+00 0.  1.
         13    1    6    6    0    0  0.77056342915E+00 -0.54849455006E+01  0.16479693887E+01  0.57797251880E+01  0.10500000000E+00 0. -1.
</event>
<event>
11    0  0.3485800E-009  0.9118800E+02  0.7816531E-02  0.1126479E+00
         25   -1    0    0    0    0  0.00000000000E+00  0.00000000000E+00  0.99999998245E-14  0.12500000000E+03  0.12500000000E+03 0.  0.
    3000001    1    3    3    0    0  0.23952977529E+01 -0.21168260627E+02  0.58927127863E+01  0.22125929885E+02  0.10000000000E+01 0. -1.
    1000022    2    1    0    0    0 -0.60536097876E+01 -0.59989125946E+02  0.13073215143E+02  0.62500002496E+02  0.99999967277E+01 0.  0.
    3000022    2    3    3    0    0 -0.84489075405E+01 -0.38820865319E+02  0.71805023569E+01  0.40374072611E+02  0.25000465002E+00 0.  0.
    1000022    2    1    0    0    0  0.60536097876E+01  0.59989125946E+02 -0.13073215143E+02  0.62499997504E+02  0.99999655306E+01 0.  0.
    3000022    2    5    5    0    0  0.82173648305E+01  0.36056880788E+02 -0.63119176102E+01  0.37517016527E+02  0.24997646364E+00 0.  0.
        -13    1    4    4    0    0 -0.36769583305E+01 -0.16778129261E+02  0.30425605740E+01  0.17444020291E+02  0.10500000000E+00 0.  1.
         13    1    4    4    0    0 -0.47719492100E+01 -0.22042736058E+02  0.41379417828E+01  0.22930052320E+02  0.10500000000E+00 0. -1.
    3000001    1    5    5    0    0 -0.21637550429E+01  0.23932245158E+02 -0.67612975330E+01  0.24982980977E+02  0.10000000000E+01 0.  1.
        -13    1    6    6    0    0  0.58166132159E+01  0.25377695096E+02 -0.44750823601E+01  0.26417755106E+02  0.10500000000E+00 0.  1.
         13    1    6    6    0    0  0.24007516146E+01  0.10679185692E+02 -0.18368352500E+01  0.11099261421E+02  0.10500000000E+00 0. -1.
</event>
<event>
11    0  0.3485800E-009  0.9118800E+02  0.7816531E-02  0.1126479E+00
         25   -1    0    0    0    0  0.00000000000E+00  0.00000000000E+00  0.99999998245E-14  0.12500000000E+03  0.12500000000E+03 0.  0.
    3000001    1    3    3    0    0 -0.43513474837E+01 -0.20166703434E+02  0.63256376930E+01  0.21601940759E+02  0.10000000000E+01 0.  1.
    1000022    2    1    0    0    0 -0.16230539145E+02 -0.51682088519E+02  0.29525941820E+02  0.62500000638E+02  0.10000008238E+02 0.  0.
    3000022    2    3    3    0    0 -0.11879191661E+02 -0.31515385085E+02  0.23200304127E+02  0.40898059879E+02  0.24999742871E+00 0.  0.
    1000022    2    1    0    0    0  0.16230539145E+02  0.51682088519E+02 -0.29525941820E+02  0.62499999362E+02  0.10000000264E+02 0.  0.
    3000022    2    5    5    0    0 -0.35640428127E+00  0.36975414808E+00 -0.17323613837E+01  0.18240942243E+01  0.25000326754E+00 0.  0.
        -13    1    4    4    0    0 -0.79407481293E+01 -0.20951334763E+02  0.15391152474E+02  0.27182945181E+02  0.10500000000E+00 0.  1.
         13    1    4    4    0    0 -0.39384435321E+01 -0.10564050321E+02  0.78091516527E+01  0.13715114698E+02  0.10500000000E+00 0. -1.
    3000001    1    5    5    0    0  0.16586943426E+02  0.51312334371E+02 -0.27793580436E+02  0.60675905138E+02  0.10000000000E+01 0. -1.
        -13    1    6    6    0    0 -0.29424737766E+00  0.26728712366E+00 -0.12877085061E+01  0.13517552006E+01  0.10500000000E+00 0. -1.
         13    1    6    6    0    0 -0.62156903607E-01  0.10246702442E+00 -0.44465287761E+00  0.47233902372E+00  0.10500000000E+00 0.  1.
</event>
<event>
11    0  0.3485800E-009  0.9118800E+02  0.7816531E-02  0.1126479E+00
         25   -1    0    0    0    0  0.00000000000E+00  0.00000000000E+00  0.99999998245E-14  0.12500000000E+03  0.12500000000E+03 0.  0.
    3000001    1    3    3    0    0  0.26833040219E+01 -0.45354821908E+02  0.33312129355E+02  0.56346765239E+02  0.10000000000E+01 0. -1.
    1000022    2    1    0    0    0  0.31887918959E+01 -0.51454933695E+02  0.33889105294E+02  0.62499999048E+02  0.99999914025E+01 0.  0.
    3000022    2    3    3    0    0  0.50548787403E+00 -0.61001117877E+01  0.57697593878E+00  0.61532338089E+01  0.25000652097E+00 0.  0.
    1000022    2    1    0    0    0 -0.31887918959E+01  0.51454933695E+02 -0.33889105294E+02  0.62500000952E+02  0.10000003298E+02 0.  0.
    3000022    2    5    5    0    0 -0.84933442989E+00  0.31346892406E+02 -0.14873086400E+02  0.34707639406E+02  0.25000308299E+00 0.  0.
        -13    1    4    4    0    0  0.31160552226E+00 -0.29619426536E+01  0.29629580824E+00  0.29948319637E+01  0.10500000000E+00 0.  1.
         13    1    4    4    0    0  0.19388235177E+00 -0.31381691341E+01  0.28068013054E+00  0.31584018452E+01  0.10500000000E+00 0. -1.
    3000001    1    5    5    0    0 -0.23394574660E+01  0.20108041289E+02 -0.19016018894E+02  0.27792361546E+02  0.10000000000E+01 0. -1.
        -13    1    6    6    0    0 -0.52101118902E+00  0.16794456908E+02 -0.79547551761E+01  0.18590707098E+02  0.10500000000E+00 0. -1.
         13    1    6    6    0    0 -0.32832324087E+00  0.14552435498E+02 -0.69183312236E+01  0.16116932307E+02  0.10500000000E+00 0.  1.
</event>
<event>
11    0  0.3485800E-009  0.9118800E+02  0.7816531E-02  0.1126479E+00
         25   -1    0    0    0    0  0.00000000000E+00  0.00000000000E+00  0.99999998245E-14  0.12500000000E+03  0.12500000000E+03 0.  0.
    3000001    1    3    3    0    0 -0.17229203075E+02 -0.13046274699E+01  0.85552024390E+01  0.19306449187E+02  0.10000000000E+01 0. -1.
    1000022    2    1    0    0    0 -0.53477282192E+02 -0.18423706685E+02  0.24637313573E+02  0.62500000924E+02  0.10000010837E+02 0.  0.
    3000022    2    3    3    0    0 -0.36248079117E+02 -0.17119079215E+02  0.16082111134E+02  0.43193551737E+02  0.25000057154E+00 0.  0.
    1000022    2    1    0    0    0  0.53477282192E+02  0.18423706685E+02 -0.24637313573E+02  0.62499999076E+02  0.99999992906E+01 0.  0.
    3000022    2    5    5    0    0  0.53240742010E+02  0.17547411128E+02 -0.24353957316E+02  0.61120094758E+02  0.24999826156E+00 0.  0.
        -13    1    4    4    0    0 -0.86212077843E+01 -0.40584969029E+01  0.38365071353E+01  0.10272605939E+02  0.10500000000E+00 0. -1.
         13    1    4    4    0    0 -0.27626871333E+02 -0.13060582312E+02  0.12245603999E+02  0.32920945798E+02  0.10500000000E+00 0.  1.
    3000001    1    5    5    0    0  0.23654018141E+00  0.87629555642E+00 -0.28335625684E+00  0.13799043184E+01  0.10000000000E+01 0. -1.
        -13    1    6    6    0    0  0.35900209017E+02  0.11804737069E+02 -0.16368996813E+02  0.41184122018E+02  0.10500000000E+00 0. -1.
         13    1    6    6    0    0  0.17340532993E+02  0.57426740590E+01 -0.79849605036E+01  0.19935972740E+02  0.10500000000E+00 0.  1.
</event>
<event>
11    0  0.3485800E-009  0.9118800E+02  0.7816531E-02  0.1126479E+00
         25   -1    0    0    0    0  0.00000000000E+00  0.00000000000E+00  0.99999998245E-14  0.12500000000E+03  0.12500000000E+03 0.  0.
    3000001    1    3    3    0    0 -0.30339527387E+00  0.10995941819E+02  0.23341817725E+02  0.25823308074E+02  0.10000000000E+01 0. -1.
    1000022    2    1    0    0    0 -0.74316621224E+01  0.17212672307E+02  0.58777072667E+02  0.62499999849E+02  0.10000001000E+02 0.  0.
    3000022    2    3    3    0    0 -0.71282668485E+01  0.62167304872E+01  0.35435254942E+02  0.36676691775E+02  0.25000106690E+00 0.  0.
    1000022    2    1    0    0    0  0.74316621224E+01 -0.17212672307E+02 -0.58777072667E+02  0.62500000151E+02  0.10000002889E+02 0.  0.
    3000022    2    5    5    0    0  0.56862437184E+01 -0.10684455193E+02 -0.49621312690E+02  0.51076688686E+02  0.25000719033E+00 0.  0.
        -13    1    4    4    0    0 -0.50343846956E+01  0.44047619999E+01  0.25220747198E+02  0.26092988939E+02  0.10500000000E+00 0. -1.
         13    1    4    4    0    0 -0.20938821530E+01  0.18119684873E+01  0.10214507744E+02  0.10583702836E+02  0.10500000000E+00 0.  1.
    3000001    1    5    5    0    0  0.17454184041E+01 -0.65282171139E+01 -0.91557599765E+01  0.11423311466E+02  0.10000000000E+01 0.  1.
        -13    1    6    6    0    0  0.19693917051E+01 -0.37407041234E+01 -0.17558976308E+02  0.18061008969E+02  0.10500000000E+00 0. -1.
         13    1    6    6    0    0  0.37168520133E+01 -0.69437510693E+01 -0.32062336383E+02  0.33015679716E+02  0.10500000000E+00 0.  1.
</event>
<event>
11    0  0.3485800E-009  0.9118800E+02  0.7816531E-02  0.1126479E+00
         25   -1    0    0    0    0  0.00000000000E+00  0.00000000000E+00  0.99999998245E-14  0.12500000000E+03  0.12500000000E+03 0.  0.
    3000001    1    3    3    0    0 -0.53129304721E+01 -0.15856634537E+01  0.12950096133E+02  0.14122554607E+02  0.10000000000E+01 0.  1.
    1000022    2    1    0    0    0 -0.19258495915E+02  0.10558322929E+02  0.57653114541E+02  0.62500003426E+02  0.10000048201E+02 0.  0.
    3000022    2    3    3    0    0 -0.13945565443E+02  0.12143986383E+02  0.44703018408E+02  0.48377448819E+02  0.24999725749E+00 0.  0.
    1000022    2    1    0    0    0  0.19258495915E+02 -0.10558322929E+02 -0.57653114541E+02  0.62499996574E+02  0.10000005376E+02 0.  0.
    3000022    2    5    5    0    0  0.33360417935E+01  0.98129191002E+00 -0.16692310423E+02  0.17052502365E+02  0.25000199145E+00 0.  0.
        -13    1    4    4    0    0 -0.68482219362E+01  0.59296847259E+01  0.22062825308E+02  0.23850337319E+02  0.10500000000E+00 0. -1.
         13    1    4    4    0    0 -0.70973435067E+01  0.62143016571E+01  0.22640193100E+02  0.24527111500E+02  0.10500000000E+00 0.  1.
    3000001    1    5    5    0    0  0.15922454121E+02 -0.11539614839E+02 -0.40960804118E+02  0.45447494209E+02  0.10000000000E+01 0. -1.
        -13    1    6    6    0    0  0.20371255732E+01  0.58040593792E+00 -0.98673887229E+01  0.10092726929E+02  0.10500000000E+00 0.  1.
         13    1    6    6    0    0  0.12989162203E+01  0.40088597210E+00 -0.68249217000E+01  0.69597754362E+01  0.10500000000E+00 0. -1.
</event>
<event>
11    0  0.3485800E-009  0.9118800E+02  0.7816531E-02  0.1126479E+00
         25   -1    0    0    0    0  0.00000000000E+00  0.00000000000E+00  0.99999998245E-14  0.12500000000E+03  0.12500000000E+03 0.  0.
    3000001    1    3    3    0    0  0.14131610723E+02 -0.36708602511E+02 -0.38409938845E+02  0.54986792250E+02  0.10000000000E+01 0.  1.
    1000022    2    1    0    0    0  0.16988211705E+02 -0.43332155283E+02 -0.40496603056E+02  0.62499999970E+02  0.10000005934E+02 0.  0.
    3000022    2    3    3    0    0  0.28566009828E+01 -0.66235527721E+01 -0.20866642115E+01  0.75132077192E+01  0.25000440129E+00 0.  0.
    1000022    2    1    0    0    0 -0.16988211705E+02  0.43332155283E+02  0.40496603056E+02  0.62500000030E+02  0.10000006314E+02 0.  0.
    3000022    2    5    5    0    0 -0.32228413545E+01  0.87775585528E+01  0.33853248273E+01  0.99476209418E+01  0.24999534357E+00 0.  0.
        -13    1    4    4    0    0  0.20917963969E+01 -0.49042973858E+01 -0.15666460383E+01  0.55581606511E+01  0.10500000000E+00 0.  1.
         13    1    4    4    0    0  0.76480458592E+00 -0.17192553863E+01 -0.52001817318E+00  0.19550470681E+01  0.10500000000E+00 0. -1.
    3000001    1    5    5    0    0 -0.13765370351E+02  0.34554596730E+02  0.37111278229E+02  0.52552379089E+02  0.10000000000E+01 0.  1.
        -13    1    6    6    0    0 -0.15557913424E+01  0.40435216362E+01  0.15764119262E+01  0.46115781989E+01  0.10500000000E+00 0. -1.
         13    1    6    6    0    0 -0.16670500121E+01  0.47340369165E+01  0.18089129011E+01  0.53360427429E+01  0.10500000000E+00 0.  1.
</event>
<event>
11    0  0.3485800E-009  0.9118800E+02  0.7816531E-02  0.1126479E+00
         25   -1    0    0    0    0  0.00000000000E+00  0.00000000000E+00  0.99999998245E-14  0.12500000000E+03  0.12500000000E+03 0.  0.
    3000001    1    3    3    0    0 -0.61775981508E+00 -0.22746829789E+02  0.22861630176E+01  0.22891623665E+02  0.10000000000E+01 0.  1.
    1000022    2    1    0    0    0  0.45342245248E+01 -0.59072867338E+02  0.17207187557E+02  0.62499999301E+02  0.99999880712E+01 0.  0.
    3000022    2    3    3    0    0  0.51519843399E+01 -0.36326037549E+02  0.14921024539E+02  0.39608375636E+02  0.25000125749E+00 0.  0.
    1000022    2    1    0    0    0 -0.45342245248E+01  0.59072867338E+02 -0.17207187557E+02  0.62500000699E+02  0.99999968106E+01 0.  0.
    3000022    2    5    5    0    0 -0.39172761410E+01  0.32908850948E+02 -0.46905942401E+01  0.33472401983E+02  0.24999423067E+00 0.  0.
        -13    1    4    4    0    0  0.30691144795E+01 -0.21807879147E+02  0.88931235667E+01  0.23750825846E+02  0.10500000000E+00 0.  1.
         13    1    4    4    0    0  0.20828698604E+01 -0.14518158401E+02  0.60279009726E+01  0.15857549790E+02  0.10500000000E+00 0. -1.
    3000001    1    5    5    0    0 -0.61694838382E+00  0.26164016390E+02 -0.12516593317E+02  0.29027598716E+02  0.10000000000E+01 0.  1.
        -13    1    6    6    0    0 -0.30179947831E+01  0.25337319327E+02 -0.36179018499E+01  0.25771850574E+02  0.10500000000E+00 0. -1.
         13    1    6    6    0    0 -0.89928135797E+00  0.75715316205E+01 -0.10726923902E+01  0.77005514091E+01  0.10500000000E+00 0.  1.
</event>
<event>
11    0  0.3485800E-009  0.9118800E+02  0.7816531E-02  0.1126479E+00
         25   -1    0    0    0    0  0.00000000000E+00  0.00000000000E+00  0.99999998245E-14  0.12500000000E+03  0.12500000000E+03 0.  0.
    3000001    1    3    3    0    0 -0.12948114323E+02 -0.10647306303E+02  0.19961913574E+02  0.26086333387E+02  0.10000000000E+01 0.  1.
    1000022    2    1    0    0    0 -0.27547383507E+02 -0.15620193439E+02  0.52947141385E+02  0.62500012384E+02  0.10000149299E+02 0.  0.
    3000022    2    3    3    0    0 -0.14599269183E+02 -0.49728871363E+01  0.32985227811E+02  0.36413678997E+02  0.24999440819E+00 0.  0.
    1000022    2    1    0    0    0  0.27547383507E+02  0.15620193439E+02 -0.52947141385E+02  0.62499987616E+02  0.99999944988E+01 0.  0.
    3000022    2    5    5    0    0  0.27670233037E+02  0.13432688003E+02 -0.48234085339E+02  0.57207240755E+02  0.25000599643E+00 0.  0.
        -13    1    4    4    0    0 -0.36043620214E+01 -0.12538266803E+01  0.81683722369E+01  0.90164758596E+01  0.10500000000E+00 0. -1.
         13    1    4    4    0    0 -0.10994907162E+02 -0.37190604560E+01  0.24816855574E+02  0.27397203137E+02  0.10500000000E+00 0.  1.
    3000001    1    5    5    0    0 -0.12284953027E+00  0.21875054354E+01 -0.47130560465E+01  0.52927468610E+01  0.10000000000E+01 0.  1.
        -13    1    6    6    0    0  0.17063387321E+02  0.83383342678E+01 -0.29714387515E+02  0.35265320864E+02  0.10500000000E+00 0. -1.
         13    1    6    6    0    0  0.10606845716E+02  0.50943537357E+01 -0.18519697823E+02  0.21941919891E+02  0.10500000000E+00 0.  1.
</event>
<event>
11    0  0.3485800E-009  0.9118800E+02  0.7816531E-02  0.1126479E+00
         25   -1    0    0    0    0  0.00000000000E+00  0.00000000000E+00  0.99999998245E-14  0.12500000000E+03  0.12500000000E+03 0.  0.
    3000001    1    3    3    0    0  0.59837412785E+01 -0.11926286118E+01 -0.11365070298E+00  0.61838854434E+01  0.10000000000E+01 0. -1.
    1000022    2    1    0    0    0  0.49522656177E+02 -0.34500619547E+02  0.12785299582E+02  0.62500000115E+02  0.99999952484E+01 0.  0.
    3000022    2    3    3    0    0  0.43538914898E+02 -0.33307990936E+02  0.12898950285E+02  0.56316114671E+02  0.24996505457E+00 0.  0.
    1000022    2    1    0    0    0 -0.49522656177E+02  0.34500619547E+02 -0.12785299582E+02  0.62499999885E+02  0.99999938161E+01 0.  0.
    3000022    2    5    5    0    0 -0.22323258495E+02  0.19866650005E+02 -0.27575896980E+01  0.30011305478E+02  0.25000651446E+00 0.  0.
        -13    1    4    4    0    0  0.23988743171E+02 -0.18328107578E+02  0.71691971832E+01  0.31028821111E+02  0.10500000000E+00 0.  1.
         13    1    4    4    0    0  0.19550171727E+02 -0.14979883358E+02  0.57297531021E+01  0.25287293560E+02  0.10500000000E+00 0. -1.
    3000001    1    5    5    0    0 -0.27199397681E+02  0.14633969542E+02 -0.10027709884E+02  0.32488694408E+02  0.10000000000E+01 0. -1.
        -13    1    6    6    0    0 -0.12841770434E+02  0.11513487174E+02 -0.16059162627E+01  0.17322281802E+02  0.10500000000E+00 0. -1.
         13    1    6    6    0    0 -0.94814880614E+01  0.83531628314E+01 -0.11516734353E+01  0.12689023676E+02  0.10500000000E+00 0.  1.
</event>
<event>
11    0  0.3485800E-009  0.9118800E+02  0.7816531E-02  0.1126479E+00
         25   -1    0    0    0    0  0.00000000000E+00  0.00000000000E+00  0.99999998245E-14  0.12500000000E+03  0.12500000000E+03 0.  0.
    3000001    1    3    3    0    0 -0.69979080238E+01  0.34377099825E+01  0.15124371087E+02  0.17045092180E+02  0.10000000000E+01 0. -1.
    1000022    2    1    0    0    0 -0.11131911040E+02  0.77787111605E+01  0.60181577516E+02  0.62499999800E+02  0.99999955991E+01 0.  0.
    3000022    2    3    3    0    0 -0.41340030162E+01  0.43410011779E+01  0.45057206429E+02  0.45454907621E+02  0.25000688224E+00 0.  0.
    1000022    2    1    0    0    0  0.11131911040E+02 -0.77787111605E+01 -0.60181577516E+02  0.62500000200E+02  0.99999980947E+01 0.  0.
    3000022    2    5    5    0    0  0.93745649873E+01 -0.32666460194E+01 -0.52005537428E+02  0.52945177935E+02  0.24999693107E+00 0.  0.
        -13    1    4    4    0    0 -0.15811832404E+01  0.15805568550E+01  0.16629343071E+02  0.16779284144E+02  0.10500000000E+00 0. -1.
         13    1    4    4    0    0 -0.25528197758E+01  0.27604443229E+01  0.28427863359E+02  0.28675623477E+02  0.10500000000E+00 0.  1.
    3000001    1    5    5    0    0  0.17573460527E+01 -0.45120651411E+01 -0.81760400881E+01  0.95548222646E+01  0.10000000000E+01 0. -1.
        -13    1    6    6    0    0  0.34102258494E+01 -0.11319256855E+01 -0.18953167047E+02  0.19291046167E+02  0.10500000000E+00 0. -1.
         13    1    6    6    0    0  0.59643391379E+01 -0.21347203338E+01 -0.33052370381E+02  0.33654131768E+02  0.10500000000E+00 0.  1.
</event>
<event>
11    0  0.3485800E-009  0.9118800E+02  0.7816531E-02  0.1126479E+00
         25   -1    0    0    0    0  0.00000000000E+00  0.00000000000E+00  0.99999998245E-14  0.12500000000E+03  0.12500000000E+03 0.  0.
    3000001    1    3    3    0    0  0.53603002446E+01 -0.20238950686E+02 -0.11630578357E+02  0.23971197227E+02  0.10000000000E+01 0. -1.
    1000022    2    1    0    0    0  0.22616312056E+02 -0.45240212432E+02 -0.35328112817E+02  0.62500000336E+02  0.10000004744E+02 0.  0.
    3000022    2    3    3    0    0  0.17256011812E+02 -0.25001261746E+02 -0.23697534460E+02  0.38528803109E+02  0.24999398758E+00 0.  0.
    1000022    2    1    0    0    0 -0.22616312056E+02  0.45240212432E+02  0.35328112817E+02  0.62499999664E+02  0.10000000547E+02 0.  0.
    3000022    2    5    5    0    0 -0.22550762535E+02  0.40700733899E+02  0.29706815183E+02  0.55205470949E+02  0.25004715018E+00 0.  0.
        -13    1    4    4    0    0  0.91989266787E+01 -0.13221823436E+02 -0.12526293364E+02  0.20404801334E+02  0.10500000000E+00 0.  1.
         13    1    4    4    0    0  0.80570851328E+01 -0.11779438310E+02 -0.11171241096E+02  0.18124001775E+02  0.10500000000E+00 0. -1.
    3000001    1    5    5    0    0 -0.65549521616E-01  0.45394785326E+01  0.56212976339E+01  0.72945287152E+01  0.10000000000E+01 0.  1.
        -13    1    6    6    0    0 -0.53013074673E+01  0.95948047590E+01  0.70084281910E+01  0.13011273187E+02  0.10500000000E+00 0. -1.
         13    1    6    6    0    0 -0.17249455067E+02  0.31105929140E+02  0.22698386992E+02  0.42194197763E+02  0.10500000000E+00 0.  1.
</event>
<event>
11    0  0.3485800E-009  0.9118800E+02  0.7816531E-02  0.1126479E+00
         25   -1    0    0    0    0  0.00000000000E+00  0.00000000000E+00  0.99999998245E-14  0.12500000000E+03  0.12500000000E+03 0.  0.
    3000001    1    3    3    0    0 -0.54420135294E+01  0.41681856718E+02  0.19230906034E+02  0.46236570348E+02  0.10000000000E+01 0. -1.
    1000022    2    1    0    0    0 -0.12882779878E+02  0.54338281668E+02  0.26222799028E+02  0.62500000551E+02  0.10000000396E+02 0.  0.
    3000022    2    3    3    0    0 -0.74407663483E+01  0.12656424950E+02  0.69918929943E+01  0.16263430202E+02  0.24999584549E+00 0.  0.
    1000022    2    1    0    0    0  0.12882779878E+02 -0.54338281668E+02 -0.26222799028E+02  0.62499999449E+02  0.99999935143E+01 0.  0.
    3000022    2    5    5    0    0  0.92071918722E+01 -0.32029984765E+02 -0.10498763471E+02  0.34942507689E+02  0.25000595999E+00 0.  0.
        -13    1    4    4    0    0 -0.36628253634E+01  0.61809416737E+01  0.34913699703E+01  0.79888058486E+01  0.10500000000E+00 0. -1.
         13    1    4    4    0    0 -0.37779409849E+01  0.64754832767E+01  0.35005230240E+01  0.82746243537E+01  0.10500000000E+00 0.  1.
    3000001    1    5    5    0    0  0.36755880055E+01 -0.22308296903E+02 -0.15724035557E+02  0.27557491760E+02  0.10000000000E+01 0.  1.
        -13    1    6    6    0    0  0.43019374274E+01 -0.15203986516E+02 -0.49620199754E+01  0.16562020977E+02  0.10500000000E+00 0.  1.
         13    1    6    6    0    0  0.49052544448E+01 -0.16825998249E+02 -0.55367434954E+01  0.18380486712E+02  0.10500000000E+00 0. -1.
</event>
<event>
11    0  0.3485800E-009  0.9118800E+02  0.7816531E-02  0.1126479E+00
         25   -1    0    0    0    0  0.00000000000E+00  0.00000000000E+00  0.99999998245E-14  0.12500000000E+03  0.12500000000E+03 0.  0.
    3000001    1    3    3    0    0  0.13992362020E+02  0.34075770137E+01 -0.35781566996E+01  0.14872826946E+02  0.10000000000E+01 0. -1.
    1000022    2    1    0    0    0  0.55611063782E+02  0.26553695721E+02 -0.29259221469E+01  0.62499994196E+02  0.99999541343E+01 0.  0.
    3000022    2    3    3    0    0  0.41618701763E+02  0.23146118707E+02  0.65223455272E+00  0.47627167250E+02  0.25000554835E+00 0.  0.
    1000022    2    1    0    0    0 -0.55611063782E+02 -0.26553695721E+02  0.29259221469E+01  0.62500005804E+02  0.10000026682E+02 0.  0.
    3000022    2    5    5    0    0 -0.29826407228E+02 -0.15435728595E+02  0.63986870259E+01  0.34188916059E+02  0.25000050483E+00 0.  0.
        -13    1    4    4    0    0  0.20384179816E+02  0.11389718611E+02  0.36920836499E+00  0.23353539702E+02  0.10500000000E+00 0. -1.
         13    1    4    4    0    0  0.21234521947E+02  0.11756400096E+02  0.28302618773E+00  0.24273627549E+02  0.10500000000E+00 0.  1.
    3000001    1    5    5    0    0 -0.25784656554E+02 -0.11117967126E+02 -0.34727648790E+01  0.28311089745E+02  0.10000000000E+01 0. -1.
        -13    1    6    6    0    0 -0.88520411723E+01 -0.45455471696E+01  0.18636448257E+01  0.10124466851E+02  0.10500000000E+00 0.  1.
         13    1    6    6    0    0 -0.20974366056E+02 -0.10890181425E+02  0.45350422002E+01  0.24064449208E+02  0.10500000000E+00 0. -1.
</event>
<event>
11    0  0.3485800E-009  0.9118800E+02  0.7816531E-02  0.1126479E+00
         25   -1    0    0    0    0  0.00000000000E+00  0.00000000000E+00  0.99999998245E-14  0.12500000000E+03  0.12500000000E+03 0.  0.
    3000001    1    3    3    0    0  0.27633693520E+00  0.29142462305E+01 -0.52166546138E+00  0.31370891042E+01  0.10000000000E+01 0. -1.
    1000022    2    1    0    0    0  0.89200674302E+01  0.54158094333E+02  0.28170610036E+02  0.62500000256E+02  0.99999988719E+01 0.  0.
    3000022    2    3    3    0    0  0.86437304950E+01  0.51243848103E+02  0.28692275497E+02  0.59362911152E+02  0.25000392703E+00 0.  0.
    1000022    2    1    0    0    0 -0.89200674302E+01 -0.54158094333E+02 -0.28170610036E+02  0.62499999744E+02  0.99999956692E+01 0.  0.
    3000022    2    5    5    0    0  0.71639692656E+00 -0.26012875888E+02 -0.12924642132E+02  0.29056699907E+02  0.24999745073E+00 0.  0.
        -13    1    4    4    0    0  0.28763636581E+01  0.17368494956E+02  0.97035355581E+01  0.20102430506E+02  0.10500000000E+00 0.  1.
         13    1    4    4    0    0  0.57673668369E+01  0.33875353147E+02  0.18988739939E+02  0.39260480646E+02  0.10500000000E+00 0. -1.
    3000001    1    5    5    0    0 -0.96364643568E+01 -0.28145218445E+02 -0.15245967904E+02  0.33443299836E+02  0.10000000000E+01 0. -1.
        -13    1    6    6    0    0  0.39547837249E+00 -0.11938282988E+02 -0.59247033263E+01  0.13333871844E+02  0.10500000000E+00 0.  1.
         13    1    6    6    0    0  0.32091855407E+00 -0.14074592901E+02 -0.69999388056E+01  0.15722828064E+02  0.10500000000E+00 0. -1.
</event>
<event>
11    0  0.3485800E-009  0.9118800E+02  0.7816531E-02  0.1126479E+00
         25   -1    0    0    0    0  0.00000000000E+00  0.00000000000E+00  0.99999998245E-14  0.12500000000E+03  0.12500000000E+03 0.  0.
    3000001    1    3    3    0    0 -0.18071114025E+02 -0.62232708154E+01 -0.28149535768E+01  0.19344720866E+02  0.10000000000E+01 0.  1.
    1000022    2    1    0    0    0 -0.57052501841E+02 -0.11154357321E+02 -0.20660162663E+02  0.62500000910E+02  0.10000006941E+02 0.  0.
    3000022    2    3    3    0    0 -0.38981387816E+02 -0.49310865061E+01 -0.17845209087E+02  0.43155280043E+02  0.24999615032E+00 0.  0.
    1000022    2    1    0    0    0  0.57052501841E+02  0.11154357321E+02  0.20660162663E+02  0.62499999090E+02  0.99999955719E+01 0.  0.
    3000022    2    5    5    0    0  0.18945771376E+02  0.94706535394E+00  0.27732029127E+01  0.19172697707E+02  0.24999430493E+00 0.  0.
        -13    1    4    4    0    0 -0.23696455901E+02 -0.29794062839E+01 -0.10781416188E+02  0.26203985271E+02  0.10500000000E+00 0. -1.
         13    1    4    4    0    0 -0.15284931915E+02 -0.19516802221E+01 -0.70637928988E+01  0.16951294772E+02  0.10500000000E+00 0.  1.
    3000001    1    5    5    0    0  0.38106730466E+02  0.10207291968E+02  0.17886959751E+02  0.43327301384E+02  0.10000000000E+01 0. -1.
        -13    1    6    6    0    0  0.11763372666E+02  0.53460901290E+00  0.17507407246E+01  0.11905413112E+02  0.10500000000E+00 0.  1.
         13    1    6    6    0    0  0.71823987092E+01  0.41245634104E+00  0.10224621882E+01  0.72672845945E+01  0.10500000000E+00 0. -1.
</event>
<event>
11    0  0.3485800E-009  0.9118800E+02  0.7816531E-02  0.1126479E+00
         25   -1    0    0    0    0  0.00000000000E+00  0.00000000000E+00  0.99999998245E-14  0.12500000000E+03  0.12500000000E+03 0.  0.
    3000001    1    3    3    0    0 -0.27750173408E+02 -0.12817758097E+02 -0.43159872087E+02  0.52897463128E+02  0.10000000000E+01 0.  1.
    1000022    2    1    0    0    0 -0.30915189493E+02 -0.11529486019E+02 -0.52130336645E+02  0.62499999603E+02  0.99999981164E+01 0.  0.
    3000022    2    3    3    0    0 -0.31650160850E+01  0.12882720780E+01 -0.89704645581E+01  0.96025364745E+01  0.25000118310E+00 0.  0.
    1000022    2    1    0    0    0  0.30915189493E+02  0.11529486019E+02  0.52130336645E+02  0.62500000397E+02  0.10000003082E+02 0.  0.
    3000022    2    5    5    0    0  0.15493020546E+02  0.77360999643E+01  0.18774234596E+02  0.25542421787E+02  0.24999558754E+00 0.  0.
        -13    1    4    4    0    0 -0.12633483469E+01  0.53804637137E+00 -0.37750463291E+01  0.40184005189E+01  0.10500000000E+00 0. -1.
         13    1    4    4    0    0 -0.19016677380E+01  0.75022570661E+00 -0.51954182290E+01  0.55841359556E+01  0.10500000000E+00 0.  1.
    3000001    1    5    5    0    0  0.15422168947E+02  0.37933860543E+01  0.33356102049E+02  0.36957578610E+02  0.10000000000E+01 0.  1.
        -13    1    6    6    0    0  0.92238880152E+01  0.46748774738E+01  0.11190455627E+02  0.15237188443E+02  0.10500000000E+00 0. -1.
         13    1    6    6    0    0  0.62691325309E+01  0.30612224905E+01  0.75837789686E+01  0.10305233344E+02  0.10500000000E+00 0.  1.
</event>
<event>
11    0  0.3485800E-009  0.9118800E+02  0.7816531E-02  0.1126479E+00
         25   -1    0    0    0    0  0.00000000000E+00  0.00000000000E+00  0.99999998245E-14  0.12500000000E+03  0.12500000000E+03 0.  0.
    3000001    1    3    3    0    0  0.85111530228E+01 -0.97296731167E+00  0.44554322483E+01  0.97075881498E+01  0.10000000000E+01 0. -1.
    1000022    2    1    0    0    0  0.42976503731E+02 -0.23228969326E+02  0.37678717524E+02  0.62500004345E+02  0.99999950003E+01 0.  0.
    3000022    2    3    3    0    0  0.34465350708E+02 -0.22256002014E+02  0.33223285276E+02  0.52792416196E+02  0.24999627468E+00 0.  0.
    1000022    2    1    0    0    0 -0.42976503731E+02  0.23228969326E+02 -0.37678717524E+02  0.62499995655E+02  0.99999406827E+01 0.  0.
    3000022    2    5    5    0    0 -0.29405116665E+01  0.23529828890E+00 -0.99964127471E-01  0.29621734303E+01  0.25000891749E+00 0.  0.
        -13    1    4    4    0    0  0.21282093406E+02 -0.13672011288E+02  0.20502163231E+02  0.32560729638E+02  0.10500000000E+00 0.  1.
         13    1    4    4    0    0  0.13183257302E+02 -0.85839907256E+01  0.12721122045E+02  0.20231686558E+02  0.10500000000E+00 0. -1.
    3000001    1    5    5    0    0 -0.40035992065E+02  0.22993671037E+02 -0.37578753397E+02  0.59537822224E+02  0.10000000000E+01 0.  1.
        -13    1    6    6    0    0 -0.16209947996E+01  0.71712122162E-01 -0.88180314628E-01  0.16283634535E+01  0.10500000000E+00 0.  1.
         13    1    6    6    0    0 -0.13195168669E+01  0.16358616674E+00 -0.11783812843E-01  0.13338099768E+01  0.10500000000E+00 0. -1.
</event>
<event>
11    0  0.3485800E-009  0.9118800E+02  0.7816531E-02  0.1126479E+00
         25   -1    0    0    0    0  0.00000000000E+00  0.00000000000E+00  0.99999998245E-14  0.12500000000E+03  0.12500000000E+03 0.  0.
    3000001    1    3    3    0    0 -0.24023994998E+00  0.23808644409E+02 -0.24814490538E+01  0.23959692261E+02  0.10000000000E+01 0. -1.
    1000022    2    1    0    0    0 -0.11871595188E+02  0.59480799503E+02 -0.11284941494E+02  0.62499996736E+02  0.99999702791E+01 0.  0.
    3000022    2    3    3    0    0 -0.11631355238E+02  0.35672155094E+02 -0.88034924402E+01  0.38540304475E+02  0.25003224250E+00 0.  0.
    1000022    2    1    0    0    0  0.11871595188E+02 -0.59480799503E+02  0.11284941494E+02  0.62500003264E+02  0.10000011082E+02 0.  0.
    3000022    2    5    5    0    0  0.50342414813E+01 -0.36153746794E+02  0.23386444548E+01  0.36578255165E+02  0.24999695299E+00 0.  0.
        -13    1    4    4    0    0 -0.53296487694E+01  0.16358700237E+02 -0.41055975301E+01  0.17688391265E+02  0.10500000000E+00 0. -1.
         13    1    4    4    0    0 -0.63017064691E+01  0.19313454857E+02 -0.46978949101E+01  0.20851913210E+02  0.10500000000E+00 0.  1.
    3000001    1    5    5    0    0  0.68373537071E+01 -0.23327052709E+02  0.89462970392E+01  0.25921748099E+02  0.10000000000E+01 0. -1.
        -13    1    6    6    0    0  0.35833317545E+01 -0.25427789359E+02  0.16603478727E+01  0.25732868441E+02  0.10500000000E+00 0.  1.
         13    1    6    6    0    0  0.14509097269E+01 -0.10725957435E+02  0.67829658213E+00  0.10845386724E+02  0.10500000000E+00 0. -1.
</event>
<event>
11    0  0.3485800E-009  0.9118800E+02  0.7816531E-02  0.1126479E+00
         25   -1    0    0    0    0  0.00000000000E+00  0.00000000000E+00  0.99999998245E-14  0.12500000000E+03  0.12500000000E+03 0.  0.
    3000001    1    3    3    0    0 -0.12491721803E+01  0.19439609271E+02  0.10675096740E+02  0.22235479085E+02  0.10000000000E+01 0. -1.
    1000022    2    1    0    0    0  0.27469091021E+01  0.47506754080E+02  0.39265928479E+02  0.62499997136E+02  0.99999654926E+01 0.  0.
    3000022    2    3    3    0    0  0.39960812824E+01  0.28067144809E+02  0.28590831739E+02  0.40264518051E+02  0.24994196728E+00 0.  0.
    1000022    2    1    0    0    0 -0.27469091021E+01 -0.47506754080E+02 -0.39265928479E+02  0.62500002864E+02  0.10000001293E+02 0.  0.
    3000022    2    5    5    0    0  0.21264919907E+01 -0.76831039514E+01 -0.10194222841E+02  0.12943598470E+02  0.25001500476E+00 0.  0.
        -13    1    4    4    0    0  0.29303934396E+01  0.20600443235E+02  0.21032437297E+02  0.29586143900E+02  0.10500000000E+00 0. -1.
         13    1    4    4    0    0  0.10656878428E+01  0.74667015742E+01  0.75583944414E+01  0.10678374151E+02  0.10500000000E+00 0.  1.
    3000001    1    5    5    0    0 -0.48734010928E+01 -0.39823650128E+02 -0.29071705638E+02  0.49556404394E+02  0.10000000000E+01 0.  1.
        -13    1    6    6    0    0  0.80248869942E+00 -0.28921182398E+01 -0.39372795129E+01  0.49519219490E+01  0.10500000000E+00 0. -1.
         13    1    6    6    0    0  0.13240032913E+01 -0.47909857116E+01 -0.62569433283E+01  0.79916765211E+01  0.10500000000E+00 0.  1.
</event>
<event>
11    0  0.3485800E-009  0.9118800E+02  0.7816531E-02  0.1126479E+00
         25   -1    0    0    0    0  0.00000000000E+00  0.00000000000E+00  0.99999998245E-14  0.12500000000E+03  0.12500000000E+03 0.  0.
    3000001    1    3    3    0    0 -0.12391550892E+01 -0.53842658514E+01  0.40897846247E+00  0.56296613998E+01  0.10000000000E+01 0. -1.
    1000022    2    1    0    0    0 -0.32933438544E+02 -0.46616667632E+02  0.23420601827E+02  0.62500004024E+02  0.10000041880E+02 0.  0.
    3000022    2    3    3    0    0 -0.31694283455E+02 -0.41232401781E+02  0.23011623364E+02  0.56870342624E+02  0.24999999348E+00 0.  0.
    1000022    2    1    0    0    0  0.32933438544E+02  0.46616667632E+02 -0.23420601827E+02  0.62499995976E+02  0.99999915786E+01 0.  0.
    3000022    2    5    5    0    0  0.28318934242E+02  0.41628579709E+02 -0.23653226482E+02  0.55627675748E+02  0.25000182142E+00 0.  0.
        -13    1    4    4    0    0 -0.15733626454E+02 -0.20530584157E+02  0.11506726272E+02  0.28310204198E+02  0.10500000000E+00 0.  1.
         13    1    4    4    0    0 -0.15960657001E+02 -0.20701817624E+02  0.11504897092E+02  0.28560138426E+02  0.10500000000E+00 0. -1.
    3000001    1    5    5    0    0  0.46145043019E+01  0.49880879236E+01  0.23262465539E+00  0.68723202280E+01  0.10000000000E+01 0. -1.
        -13    1    6    6    0    0  0.12136580954E+02  0.17951788688E+02 -0.10202054773E+02  0.23951122331E+02  0.10500000000E+00 0. -1.
         13    1    6    6    0    0  0.16182353288E+02  0.23676791021E+02 -0.13451171709E+02  0.31676553416E+02  0.10500000000E+00 0.  1.
</event>
<event>
11    0  0.3485800E-009  0.9118800E+02  0.7816531E-02  0.1126479E+00
         25   -1    0    0    0    0  0.00000000000E+00  0.00000000000E+00  0.99999998245E-14  0.12500000000E+03  0.12500000000E+03 0.  0.
    3000001    1    3    3    0    0 -0.48468223181E+02 -0.30726320310E+02  0.46652688777E+01  0.57585068828E+02  0.10000000000E+01 0.  1.
    1000022    2    1    0    0    0 -0.50414765706E+02 -0.35228507200E+02  0.48531916137E+01  0.62499998323E+02  0.10000000041E+02 0.  0.
    3000022    2    3    3    0    0 -0.19465425248E+01 -0.45021868895E+01  0.18792273605E+00  0.49149294956E+01  0.25000480719E+00 0.  0.
    1000022    2    1    0    0    0  0.50414765706E+02  0.35228507200E+02 -0.48531916137E+01  0.62500001677E+02  0.10000021002E+02 0.  0.
    3000022    2    5    5    0    0  0.46430578148E+02  0.33488616852E+02 -0.67651886406E+01  0.57646477025E+02  0.24998033370E+00 0.  0.
        -13    1    4    4    0    0 -0.10061173825E+01 -0.21822088146E+01  0.12797852139E+00  0.24086741165E+01  0.10500000000E+00 0. -1.
         13    1    4    4    0    0 -0.94042514227E+00 -0.23199780749E+01  0.59944214659E-01  0.25062553791E+01  0.10500000000E+00 0.  1.
    3000001    1    5    5    0    0  0.39841875576E+01  0.17398903479E+01  0.19119970269E+01  0.48535246520E+01  0.10000000000E+01 0. -1.
        -13    1    6    6    0    0  0.22917508940E+02  0.16480946450E+02 -0.32803116233E+01  0.28418396880E+02  0.10500000000E+00 0. -1.
         13    1    6    6    0    0  0.23513069209E+02  0.17007670402E+02 -0.34848770173E+01  0.29228080145E+02  0.10500000000E+00 0.  1.
</event>
<event>
11    0  0.3485800E-009  0.9118800E+02  0.7816531E-02  0.1126479E+00
         25   -1    0    0    0    0  0.00000000000E+00  0.00000000000E+00  0.99999998245E-14  0.12500000000E+03  0.12500000000E+03 0.  0.
    3000001    1    3    3    0    0  0.42796575825E+02  0.52347309840E+01  0.50421819304E+01  0.43420881030E+02  0.10000000000E+01 0. -1.
    1000022    2    1    0    0    0  0.59590183995E+02  0.86853478084E+01  0.13409871131E+02  0.62499999325E+02  0.99999988364E+01 0.  0.
    3000022    2    3    3    0    0  0.16793608170E+02  0.34506168245E+01  0.83676892005E+01  0.19079118295E+02  0.25000100711E+00 0.  0.
    1000022    2    1    0    0    0 -0.59590183995E+02 -0.86853478084E+01 -0.13409871131E+02  0.62500000675E+02  0.10000007276E+02 0.  0.
    3000022    2    5    5    0    0 -0.21038879061E+02 -0.74981555751E+01 -0.68540925577E+01  0.23364457109E+02  0.25000407118E+00 0.  0.
        -13    1    4    4    0    0  0.84642692579E+01  0.18015907738E+01  0.41909467272E+01  0.96158537248E+01  0.10500000000E+00 0.  1.
         13    1    4    4    0    0  0.83293389124E+01  0.16490260506E+01  0.41767424733E+01  0.94632645700E+01  0.10500000000E+00 0. -1.
    3000001    1    5    5    0    0 -0.38551304934E+02 -0.11871922333E+01 -0.65557785731E+01  0.39135543566E+02  0.10000000000E+01 0.  1.
        -13    1    6    6    0    0 -0.95214202642E+01 -0.34102932664E+01 -0.30358384170E+01  0.10560060791E+02  0.10500000000E+00 0. -1.
         13    1    6    6    0    0 -0.11517458797E+02 -0.40878623087E+01 -0.38182541407E+01  0.12804396318E+02  0.10500000000E+00 0.  1.
</event>
<event>
11    0  0.3485800E-009  0.9118800E+02  0.7816531E-02  0.1126479E+00
         25   -1    0    0    0    0  0.00000000000E+00  0.00000000000E+00  0.99999998245E-14  0.12500000000E+03  0.12500000000E+03 0.  0.
    3000001    1    3    3    0    0 -0.53859005985E+02  0.15824760251E+02 -0.15455361474E+02  0.58233012639E+02  0.10000000000E+01 0.  1.
    1000022    2    1    0    0    0 -0.57951473204E+02  0.15606331968E+02 -0.14294043936E+02  0.62499997884E+02  0.99999599674E+01 0.  0.
    3000022    2    3    3    0    0 -0.40924672194E+01 -0.21842828252E+00  0.11613175376E+01  0.42669852451E+01  0.25001160357E+00 0.  0.
    1000022    2    1    0    0    0  0.57951473204E+02 -0.15606331968E+02  0.14294043936E+02  0.62500002116E+02  0.99999864197E+01 0.  0.
    3000022    2    5    5    0    0  0.27511059364E+02 -0.44725490964E+01  0.10767157025E+02  0.29880700360E+02  0.25000161835E+00 0.  0.
        -13    1    4    4    0    0 -0.21175631118E+01 -0.45988626635E-01  0.61040271207E+00  0.22067634574E+01  0.10500000000E+00 0. -1.
         13    1    4    4    0    0 -0.19749041077E+01 -0.17243965588E+00  0.55091482553E+00  0.20602217877E+01  0.10500000000E+00 0.  1.
    3000001    1    5    5    0    0  0.30440413840E+02 -0.11133782872E+02  0.35268869110E+01  0.32619301756E+02  0.10000000000E+01 0.  1.
        -13    1    6    6    0    0  0.10061763155E+02 -0.16110153007E+01  0.39939833519E+01  0.10945198769E+02  0.10500000000E+00 0. -1.
         13    1    6    6    0    0  0.17449296210E+02 -0.28615337957E+01  0.67731736733E+01  0.18935501590E+02  0.10500000000E+00 0.  1.
</event>
<event>
11    0  0.3485800E-009  0.9118800E+02  0.7816531E-02  0.1126479E+00
         25   -1    0    0    0    0  0.00000000000E+00  0.00000000000E+00  0.99999998245E-14  0.12500000000E+03  0.12500000000E+03 0.  0.
    3000001    1    3    3    0    0 -0.10672132501E+00  0.52727967328E+00  0.88833417003E+00  0.14417180351E+01  0.10000000000E+01 0. -1.
    1000022    2    1    0    0    0  0.57514851855E+01 -0.20945594950E+02  0.57744718237E+02  0.62500000190E+02  0.10000000490E+02 0.  0.
    3000022    2    3    3    0    0  0.58582065105E+01 -0.21472874624E+02  0.56856384067E+02  0.61058282155E+02  0.24996481180E+00 0.  0.
    1000022    2    1    0    0    0 -0.57514851855E+01  0.20945594950E+02 -0.57744718237E+02  0.62499999810E+02  0.99999981146E+01 0.  0.
    3000022    2    5    5    0    0 -0.68182472244E+01  0.75932030627E+01 -0.20367983829E+02  0.22782942701E+02  0.24996979688E+00 0.  0.
        -13    1    4    4    0    0  0.39184467737E+01 -0.14453986209E+02  0.38380938493E+02  0.41199264642E+02  0.10500000000E+00 0. -1.
         13    1    4    4    0    0  0.19397597368E+01 -0.70188884149E+01  0.18475445574E+02  0.19859017513E+02  0.10500000000E+00 0.  1.
    3000001    1    5    5    0    0  0.10667620389E+01  0.13352391888E+02 -0.37376734408E+02  0.39717057108E+02  0.10000000000E+01 0. -1.
        -13    1    6    6    0    0 -0.20482501045E+01  0.23426939864E+01 -0.62636569769E+01  0.69948529169E+01  0.10500000000E+00 0. -1.
         13    1    6    6    0    0 -0.47699971200E+01  0.52505090763E+01 -0.14104326852E+02  0.15788089785E+02  0.10500000000E+00 0.  1.
</event>
<event>
11    0  0.3485800E-009  0.9118800E+02  0.7816531E-02  0.1126479E+00
         25   -1    0    0    0    0  0.00000000000E+00  0.00000000000E+00  0.99999998245E-14  0.12500000000E+03  0.12500000000E+03 0.  0.
    3000001    1    3    3    0    0  0.14292760251E+02 -0.51835698865E+02  0.21146224519E+02  0.57787416310E+02  0.10000000000E+01 0. -1.
    1000022    2    1    0    0    0  0.17799023845E+02 -0.54475550390E+02  0.22844234626E+02  0.62499999351E+02  0.10000001153E+02 0.  0.
    3000022    2    3    3    0    0  0.35062635939E+01 -0.26398515255E+01  0.16980101072E+01  0.47125830408E+01  0.25000025211E+00 0.  0.
    1000022    2    1    0    0    0 -0.17799023845E+02  0.54475550390E+02 -0.22844234626E+02  0.62500000649E+02  0.10000009265E+02 0.  0.
    3000022    2    5    5    0    0 -0.32765552435E+01  0.25370738008E+01 -0.25300072249E+01  0.48616863117E+01  0.24999900186E+00 0.  0.
        -13    1    4    4    0    0  0.17555449217E+01 -0.14065356808E+01  0.87129958899E+00  0.24146363220E+01  0.10500000000E+00 0. -1.
         13    1    4    4    0    0  0.17507186722E+01 -0.12333158447E+01  0.82671051818E+00  0.22979467189E+01  0.10500000000E+00 0.  1.
    3000001    1    5    5    0    0 -0.14522468601E+02  0.51938476590E+02 -0.20314227402E+02  0.57638314337E+02  0.10000000000E+01 0. -1.
        -13    1    6    6    0    0 -0.11081973721E+01  0.79793809294E+00 -0.80797404497E+00  0.15901741015E+01  0.10500000000E+00 0.  1.
         13    1    6    6    0    0 -0.21683578714E+01  0.17391357078E+01 -0.17220331799E+01  0.32715122102E+01  0.10500000000E+00 0. -1.
</event>
<event>
11    0  0.3485800E-009  0.9118800E+02  0.7816531E-02  0.1126479E+00
         25   -1    0    0    0    0  0.00000000000E+00  0.00000000000E+00  0.99999998245E-14  0.12500000000E+03  0.12500000000E+03 0.  0.
    3000001    1    3    3    0    0  0.29890258219E+02 -0.16245540129E+02 -0.12657974450E+02  0.36312111308E+02  0.10000000000E+01 0.  1.
    1000022    2    1    0    0    0  0.45899603941E+02 -0.34149875994E+02 -0.23092471261E+02  0.62500001853E+02  0.10000016521E+02 0.  0.
    3000022    2    3    3    0    0  0.16009345722E+02 -0.17904335864E+02 -0.10434496811E+02  0.26187890545E+02  0.24998862477E+00 0.  0.
    1000022    2    1    0    0    0 -0.45899603941E+02  0.34149875994E+02  0.23092471261E+02  0.62499998147E+02  0.99999933597E+01 0.  0.
    3000022    2    5    5    0    0 -0.43642121736E+02  0.29123010213E+02  0.21193357378E+02  0.56586265061E+02  0.24996611428E+00 0.  0.
        -13    1    4    4    0    0  0.10876948542E+02 -0.12092194074E+02 -0.70462634111E+01  0.17725406065E+02  0.10500000000E+00 0.  1.
         13    1    4    4    0    0  0.51323971798E+01 -0.58121417898E+01 -0.33882333996E+01  0.84624844795E+01  0.10500000000E+00 0. -1.
    3000001    1    5    5    0    0 -0.22574822043E+01  0.50268657806E+01  0.18991138827E+01  0.59137330865E+01  0.10000000000E+01 0.  1.
        -13    1    6    6    0    0 -0.27100313125E+02  0.18078085799E+02  0.13093694342E+02  0.35109827885E+02  0.10500000000E+00 0. -1.
         13    1    6    6    0    0 -0.16541808612E+02  0.11044924414E+02  0.80996630356E+01  0.21476437175E+02  0.10500000000E+00 0.  1.
</event>
<event>
11    0  0.3485800E-009  0.9118800E+02  0.7816531E-02  0.1126479E+00
         25   -1    0    0    0    0  0.00000000000E+00  0.00000000000E+00  0.99999998245E-14  0.12500000000E+03  0.12500000000E+03 0.  0.
    3000001    1    3    3    0    0 -0.19630589467E+02  0.75443524491E+01 -0.62023752815E+01  0.21948730164E+02  0.10000000000E+01 0.  1.
    1000022    2    1    0    0    0 -0.48354645686E+02  0.26845989343E+02 -0.27338088054E+02  0.62499999625E+02  0.99999995699E+01 0.  0.
    3000022    2    3    3    0    0 -0.28724056219E+02  0.19301636894E+02 -0.21135712772E+02  0.40551269460E+02  0.25001594473E+00 0.  0.
    1000022    2    1    0    0    0  0.48354645686E+02 -0.26845989343E+02  0.27338088054E+02  0.62500000375E+02  0.10000004262E+02 0.  0.
    3000022    2    5    5    0    0  0.40701752478E+01 -0.40635390330E+01  0.59868403864E+01  0.83056266720E+01  0.25000116372E+00 0.  0.
        -13    1    4    4    0    0 -0.16562752352E+02  0.11076118293E+02 -0.12113048085E+02  0.23318278685E+02  0.10500000000E+00 0.  1.
         13    1    4    4    0    0 -0.12161303867E+02  0.82255186010E+01 -0.90226646877E+01  0.17232990776E+02  0.10500000000E+00 0. -1.
    3000001    1    5    5    0    0  0.44284470438E+02 -0.22782450310E+02  0.21351247667E+02  0.54194373703E+02  0.10000000000E+01 0. -1.
        -13    1    6    6    0    0  0.21421143702E+01 -0.20534961110E+01  0.30434673520E+01  0.42519664598E+01  0.10500000000E+00 0.  1.
         13    1    6    6    0    0  0.19280608776E+01 -0.20100429220E+01  0.29433730344E+01  0.40536602122E+01  0.10500000000E+00 0. -1.
</event>
<event>
11    0  0.3485800E-009  0.9118800E+02  0.7816531E-02  0.1126479E+00
         25   -1    0    0    0    0  0.00000000000E+00  0.00000000000E+00  0.99999998245E-14  0.12500000000E+03  0.12500000000E+03 0.  0.
    3000001    1    3    3    0    0 -0.35970730218E+02  0.26799357228E+02  0.25409814269E+02  0.51563142277E+02  0.10000000000E+01 0. -1.
    1000022    2    1    0    0    0 -0.42981696597E+02  0.35027048741E+02  0.27054180803E+02  0.62500006432E+02  0.10000085957E+02 0.  0.
    3000022    2    3    3    0    0 -0.70109663793E+01  0.82276915131E+01  0.16443665347E+01  0.10936864155E+02  0.24999809296E+00 0.  0.
    1000022    2    1    0    0    0  0.42981696597E+02 -0.35027048741E+02 -0.27054180803E+02  0.62499993568E+02  0.10000005559E+02 0.  0.
    3000022    2    5    5    0    0  0.11837732017E+02 -0.13708866119E+02 -0.50669527002E+01  0.18809609732E+02  0.24999805448E+00 0.  0.
        -13    1    4    4    0    0 -0.33555727879E+01  0.39249274549E+01  0.71770228434E+00  0.52145034117E+01  0.10500000000E+00 0. -1.
         13    1    4    4    0    0 -0.36553935913E+01  0.43027640581E+01  0.92666425033E+00  0.57223607437E+01  0.10500000000E+00 0.  1.
    3000001    1    5    5    0    0  0.31143964580E+02 -0.21318182622E+02 -0.21987228103E+02  0.43690383836E+02  0.10000000000E+01 0. -1.
        -13    1    6    6    0    0  0.73648803743E+01 -0.85785173513E+01 -0.32156138316E+01  0.11755152921E+02  0.10500000000E+00 0.  1.
         13    1    6    6    0    0  0.44728516429E+01 -0.51303487676E+01 -0.18513388686E+01  0.70544568114E+01  0.10500000000E+00 0. -1.
</event>
<event>
11    0  0.3485800E-009  0.9118800E+02  0.7816531E-02  0.1126479E+00
         25   -1    0    0    0    0  0.00000000000E+00  0.00000000000E+00  0.99999998245E-14  0.12500000000E+03  0.12500000000E+03 0.  0.
    3000001    1    3    3    0    0  0.40360073792E+02 -0.34761312250E+02 -0.10469254594E+00  0.53275654349E+02  0.10000000000E+01 0. -1.
    1000022    2    1    0    0    0  0.44729585391E+02 -0.42410502350E+02  0.26198909370E+01  0.62500002302E+02  0.99999970196E+01 0.  0.
    3000022    2    3    3    0    0  0.43695115996E+01 -0.76491901001E+01  0.27245834829E+01  0.92243479530E+01  0.24999839110E+00 0.  0.
    1000022    2    1    0    0    0 -0.44729585391E+02  0.42410502350E+02 -0.26198909370E+01  0.62499997698E+02  0.99999682389E+01 0.  0.
    3000022    2    5    5    0    0 -0.33972146963E+02  0.25934720728E+02 -0.15550788109E+01  0.42769116155E+02  0.25003601409E+00 0.  0.
        -13    1    4    4    0    0  0.13647764306E+01 -0.24870475638E+01  0.86069847552E+00  0.29664536329E+01  0.10500000000E+00 0. -1.
         13    1    4    4    0    0  0.30047351690E+01 -0.51621425363E+01  0.18638850074E+01  0.62578943201E+01  0.10500000000E+00 0.  1.
    3000001    1    5    5    0    0 -0.10757438428E+02  0.16475781622E+02 -0.10648121261E+01  0.19730881543E+02  0.10000000000E+01 0.  1.
        -13    1    6    6    0    0 -0.12853491449E+02  0.98888353469E+01 -0.59385338552E+00  0.16228524079E+02  0.10500000000E+00 0. -1.
         13    1    6    6    0    0 -0.21118655514E+02  0.16045885382E+02 -0.96122542534E+00  0.26540592076E+02  0.10500000000E+00 0.  1.
</event>
<event>
11    0  0.3485800E-009  0.9118800E+02  0.7816531E-02  0.1126479E+00
         25   -1    0    0    0    0  0.00000000000E+00  0.00000000000E+00  0.99999998245E-14  0.12500000000E+03  0.12500000000E+03 0.  0.
    3000001    1    3    3    0    0  0.81382108170E+01  0.18482037858E+02 -0.26050304268E+02  0.32976272548E+02  0.10000000000E+01 0.  1.
    1000022    2    1    0    0    0  0.73017656491E+01  0.31570486872E+02 -0.52499893042E+02  0.62499998315E+02  0.99999798526E+01 0.  0.
    3000022    2    3    3    0    0 -0.83644516786E+00  0.13088449014E+02 -0.26449588774E+02  0.29523725767E+02  0.24999754576E+00 0.  0.
    1000022    2    1    0    0    0 -0.73017656491E+01 -0.31570486872E+02  0.52499893042E+02  0.62500001685E+02  0.10000000916E+02 0.  0.
    3000022    2    5    5    0    0  0.13189781939E+01 -0.11288269053E+01  0.91790610693E+00  0.19796475713E+01  0.24999845404E+00 0.  0.
        -13    1    4    4    0    0 -0.35511990751E+00  0.48755743481E+01 -0.99523478991E+01  0.11088624309E+02  0.10500000000E+00 0. -1.
         13    1    4    4    0    0 -0.48132526036E+00  0.82128746659E+01 -0.16497240874E+02  0.18435101458E+02  0.10500000000E+00 0.  1.
    3000001    1    5    5    0    0 -0.86207438430E+01 -0.30441659967E+02  0.51581986935E+02  0.60520354114E+02  0.10000000000E+01 0.  1.
        -13    1    6    6    0    0  0.32051722292E+00 -0.31564015753E+00  0.23442886439E+00  0.51801726969E+00  0.10500000000E+00 0. -1.
         13    1    6    6    0    0  0.99846097099E+00 -0.81318674782E+00  0.68347724255E+00  0.14616303016E+01  0.10500000000E+00 0.  1.
</event>
<event>
11    0  0.3485800E-009  0.9118800E+02  0.7816531E-02  0.1126479E+00
         25   -1    0    0    0    0  0.00000000000E+00  0.00000000000E+00  0.99999998245E-14  0.12500000000E+03  0.12500000000E+03 0.  0.
    3000001    1    3    3    0    0  0.16504486095E+01 -0.24402628771E+02 -0.69704404239E+01  0.25451901918E+02  0.10000000000E+01 0.  1.
    1000022    2    1    0    0    0 -0.77999532737E+01 -0.58926593565E+02 -0.16524749070E+02  0.62499999836E+02  0.99999973724E+01 0.  0.
    3000022    2    3    3    0    0 -0.94504018832E+01 -0.34523964794E+02 -0.95543086457E+01  0.37048097918E+02  0.25000957697E+00 0.  0.
    1000022    2    1    0    0    0  0.77999532737E+01  0.58926593565E+02  0.16524749070E+02  0.62500000164E+02  0.99999994215E+01 0.  0.
    3000022    2    5    5    0    0  0.60682106854E+01  0.46912266211E+02  0.17118407319E+02  0.50305926838E+02  0.25000780601E+00 0.  0.
        -13    1    4    4    0    0 -0.24260245310E+01 -0.87549036603E+01 -0.24232585779E+01  0.94030388844E+01  0.10500000000E+00 0. -1.
         13    1    4    4    0    0 -0.70243773522E+01 -0.25769061134E+02 -0.71310500677E+01  0.27645059034E+02  0.10500000000E+00 0.  1.
    3000001    1    5    5    0    0  0.17317425883E+01  0.12014327354E+02 -0.59365824975E+00  0.12194073326E+02  0.10000000000E+01 0.  1.
        -13    1    6    6    0    0  0.36538250103E+01  0.27794177921E+02  0.10116925325E+02  0.29803187188E+02  0.10500000000E+00 0. -1.
         13    1    6    6    0    0  0.24143856752E+01  0.19118088290E+02  0.70014819942E+01  0.20502739651E+02  0.10500000000E+00 0.  1.
</event>
<event>
11    0  0.3485800E-009  0.9118800E+02  0.7816531E-02  0.1126479E+00
         25   -1    0    0    0    0  0.00000000000E+00  0.00000000000E+00  0.99999998245E-14  0.12500000000E+03  0.12500000000E+03 0.  0.
    3000001    1    3    3    0    0  0.10269544433E+02  0.13077829834E+01  0.13006326073E+01  0.10481673739E+02  0.10000000000E+01 0. -1.
    1000022    2    1    0    0    0  0.56623905673E+02  0.23729689217E+02 -0.60733127887E+01  0.62499999753E+02  0.99999998417E+01 0.  0.
    3000022    2    3    3    0    0  0.46354361241E+02  0.22421906234E+02 -0.73739453961E+01  0.52018326014E+02  0.24997084189E+00 0.  0.
    1000022    2    1    0    0    0 -0.56623905673E+02 -0.23729689217E+02  0.60733127887E+01  0.62500000247E+02  0.10000002931E+02 0.  0.
    3000022    2    5    5    0    0 -0.20147699883E+02 -0.40233228200E+01  0.42928820899E+01  0.20990671188E+02  0.25000642160E+00 0.  0.
        -13    1    4    4    0    0  0.23303436160E+02  0.11329269343E+02 -0.37551211625E+01  0.26182330696E+02  0.10500000000E+00 0. -1.
         13    1    4    4    0    0  0.23050925080E+02  0.11092636891E+02 -0.36188242336E+01  0.25835995319E+02  0.10500000000E+00 0.  1.
    3000001    1    5    5    0    0 -0.36476205790E+02 -0.19706366398E+02  0.17804306989E+01  0.41509329059E+02  0.10000000000E+01 0. -1.
        -13    1    6    6    0    0 -0.77861718263E+01 -0.16176496159E+01  0.16586148438E+01  0.81242408992E+01  0.10500000000E+00 0. -1.
         13    1    6    6    0    0 -0.12361528057E+02 -0.24056732041E+01  0.26342672461E+01  0.12866430289E+02  0.10500000000E+00 0.  1.
</event>
<event>
11    0  0.3485800E-009  0.9118800E+02  0.7816531E-02  0.1126479E+00
         25   -1    0    0    0    0  0.00000000000E+00  0.00000000000E+00  0.99999998245E-14  0.12500000000E+03  0.12500000000E+03 0.  0.
    3000001    1    3    3    0    0 -0.24048040294E+02 -0.57742196815E+01  0.31243651481E+02  0.39859949985E+02  0.10000000000E+01 0. -1.
    1000022    2    1    0    0    0 -0.37404527279E+02 -0.16042093444E+02  0.46365965168E+02  0.62499999526E+02  0.99999895902E+01 0.  0.
    3000022    2    3    3    0    0 -0.13356486984E+02 -0.10267873763E+02  0.15122313687E+02  0.22640049541E+02  0.24999163410E+00 0.  0.
    1000022    2    1    0    0    0  0.37404527279E+02  0.16042093444E+02 -0.46365965168E+02  0.62500000474E+02  0.99999955095E+01 0.  0.
    3000022    2    5    5    0    0  0.26188739789E+02  0.14407923916E+02 -0.38149172381E+02  0.48465041166E+02  0.24999709465E+00 0.  0.
        -13    1    4    4    0    0 -0.43489846280E+01 -0.33484952285E+01  0.49970097342E+01  0.74234236626E+01  0.10500000000E+00 0.  1.
         13    1    4    4    0    0 -0.90075023564E+01 -0.69193785342E+01  0.10125303952E+02  0.15216625879E+02  0.10500000000E+00 0. -1.
    3000001    1    5    5    0    0  0.11215787490E+02  0.16341695280E+01 -0.82167927875E+01  0.14034959308E+02  0.10000000000E+01 0.  1.
        -13    1    6    6    0    0  0.18312718525E+02  0.10022455492E+02 -0.26634491836E+02  0.33840987785E+02  0.10500000000E+00 0.  1.
         13    1    6    6    0    0  0.78760212642E+01  0.43854684240E+01 -0.11514680544E+02  0.14624053381E+02  0.10500000000E+00 0. -1.
</event>
<event>
11    0  0.3485800E-009  0.9118800E+02  0.7816531E-02  0.1126479E+00
         25   -1    0    0    0    0  0.00000000000E+00  0.00000000000E+00  0.99999998245E-14  0.12500000000E+03  0.12500000000E+03 0.  0.
    3000001    1    3    3    0    0 -0.24217317466E+02 -0.12213146354E+01  0.42880401295E+02  0.49271684464E+02  0.10000000000E+01 0. -1.
    1000022    2    1    0    0    0 -0.33911885738E+02 -0.42092057421E+01  0.51366492741E+02  0.62499999993E+02  0.10000000765E+02 0.  0.
    3000022    2    3    3    0    0 -0.96945682713E+01 -0.29878911067E+01  0.84860914461E+01  0.13228315529E+02  0.24987288372E+00 0.  0.
    1000022    2    1    0    0    0  0.33911885738E+02  0.42092057421E+01 -0.51366492741E+02  0.62500000007E+02  0.10000000854E+02 0.  0.
    3000022    2    5    5    0    0  0.18149627727E+02 -0.27045041946E+01 -0.27316199956E+02  0.32908366971E+02  0.25001418918E+00 0.  0.
        -13    1    4    4    0    0 -0.25069645422E+01 -0.79179747003E+00  0.22331281447E+01  0.34510434306E+01  0.10500000000E+00 0.  1.
         13    1    4    4    0    0 -0.71876037291E+01 -0.21960936367E+01  0.62529633015E+01  0.97772720980E+01  0.10500000000E+00 0. -1.
    3000001    1    5    5    0    0  0.15762258011E+02  0.69137099368E+01 -0.24050292786E+02  0.29591633036E+02  0.10000000000E+01 0. -1.
        -13    1    6    6    0    0  0.57142527790E+01 -0.80325689529E+00 -0.85669490057E+01  0.10329644076E+02  0.10500000000E+00 0. -1.
         13    1    6    6    0    0  0.12435374948E+02 -0.19012472993E+01 -0.18749250950E+02  0.22578722895E+02  0.10500000000E+00 0.  1.
</event>
<event>
11    0  0.3485800E-009  0.9118800E+02  0.7816531E-02  0.1126479E+00
         25   -1    0    0    0    0  0.00000000000E+00  0.00000000000E+00  0.99999998245E-14  0.12500000000E+03  0.12500000000E+03 0.  0.
    3000001    1    3    3    0    0  0.12781895348E+02  0.13784419418E+02  0.48265028455E+01  0.19434047368E+02  0.10000000000E+01 0.  1.
    1000022    2    1    0    0    0  0.46458786119E+02  0.33192509617E+02  0.23368535044E+02  0.62500001398E+02  0.10000012118E+02 0.  0.
    3000022    2    3    3    0    0  0.33676890770E+02  0.19408090199E+02  0.18542032198E+02  0.43065954030E+02  0.25000266546E+00 0.  0.
    1000022    2    1    0    0    0 -0.46458786119E+02 -0.33192509617E+02 -0.23368535044E+02  0.62499998602E+02  0.99999946410E+01 0.  0.
    3000022    2    5    5    0    0 -0.99671836609E+01 -0.10595969898E+02 -0.95268358842E+01  0.17390872110E+02  0.25000514958E+00 0.  0.
        -13    1    4    4    0    0  0.20740585264E+02  0.11885065075E+02  0.11383313473E+02  0.26476735062E+02  0.10500000000E+00 0.  1.
         13    1    4    4    0    0  0.12936305506E+02  0.75230251242E+01  0.71587187259E+01  0.16589218968E+02  0.10500000000E+00 0. -1.
    3000001    1    5    5    0    0 -0.36491602458E+02 -0.22596539719E+02 -0.13841699160E+02  0.45109126492E+02  0.10000000000E+01 0. -1.
        -13    1    6    6    0    0 -0.58116953850E+01 -0.60836770654E+01 -0.55055556607E+01  0.10055301985E+02  0.10500000000E+00 0. -1.
         13    1    6    6    0    0 -0.41554882759E+01 -0.45122928330E+01 -0.40212802235E+01  0.73355701249E+01  0.10500000000E+00 0.  1.
</event>
<event>
11    0  0.3485800E-009  0.9118800E+02  0.7816531E-02  0.1126479E+00
         25   -1    0    0    0    0  0.00000000000E+00  0.00000000000E+00  0.99999998245E-14  0.12500000000E+03  0.12500000000E+03 0.  0.
    3000001    1    3    3    0    0  0.77746446396E+01  0.10236966755E+02  0.81025926630E+01  0.15228020078E+02  0.10000000000E+01 0. -1.
    1000022    2    1    0    0    0  0.43131590737E+02  0.28920024486E+02  0.33309879671E+02  0.62500000115E+02  0.99999997426E+01 0.  0.
    3000022    2    3    3    0    0  0.35356946097E+02  0.18683057730E+02  0.25207287008E+02  0.47271980037E+02  0.24998961257E+00 0.  0.
    1000022    2    1    0    0    0 -0.43131590737E+02 -0.28920024486E+02 -0.33309879671E+02  0.62499999885E+02  0.99999983107E+01 0.  0.
    3000022    2    5    5    0    0 -0.43240702609E+02 -0.28262536157E+02 -0.32258258642E+02  0.60903095664E+02  0.24999746389E+00 0.  0.
        -13    1    4    4    0    0  0.20543368718E+02  0.10916106157E+02  0.14621350008E+02  0.27477013538E+02  0.10500000000E+00 0.  1.
         13    1    4    4    0    0  0.14813577379E+02  0.77669515732E+01  0.10585937000E+02  0.19794966499E+02  0.10500000000E+00 0. -1.
    3000001    1    5    5    0    0  0.10911187187E+00 -0.65748832905E+00 -0.10516210291E+01  0.15969042214E+01  0.10000000000E+01 0. -1.
        -13    1    6    6    0    0 -0.25127855671E+02 -0.16373958285E+02 -0.18670304289E+02  0.35328556831E+02  0.10500000000E+00 0. -1.
         13    1    6    6    0    0 -0.18112846938E+02 -0.11888577871E+02 -0.13587954353E+02  0.25574538833E+02  0.10500000000E+00 0.  1.
</event>
<event>
11    0  0.3485800E-009  0.9118800E+02  0.7816531E-02  0.1126479E+00
         25   -1    0    0    0    0  0.00000000000E+00  0.00000000000E+00  0.99999998245E-14  0.12500000000E+03  0.12500000000E+03 0.  0.
    3000001    1    3    3    0    0 -0.62090183925E+00 -0.24141469647E+00  0.65401050004E+00  0.13680386997E+01  0.10000000000E+01 0.  1.
    1000022    2    1    0    0    0  0.86236106846E+01 -0.18810970301E+01  0.61060175893E+02  0.62500001582E+02  0.99999965172E+01 0.  0.
    3000022    2    3    3    0    0  0.92445125239E+01 -0.16396823337E+01  0.60406165393E+02  0.61131962882E+02  0.24999671890E+00 0.  0.
    1000022    2    1    0    0    0 -0.86236106846E+01  0.18810970301E+01 -0.61060175893E+02  0.62499998418E+02  0.99999767421E+01 0.  0.
    3000022    2    5    5    0    0 -0.37674752881E+01 -0.40863450006E+01 -0.24001643954E+02  0.24638049117E+02  0.24993255161E+00 0.  0.
        -13    1    4    4    0    0  0.22636278210E+01 -0.41652255113E+00  0.14701778068E+02  0.14881223246E+02  0.10500000000E+00 0. -1.
         13    1    4    4    0    0  0.69808847028E+01 -0.12231597825E+01  0.45704387326E+02  0.46250739636E+02  0.10500000000E+00 0.  1.
    3000001    1    5    5    0    0 -0.48561353965E+01  0.59674420307E+01 -0.37058531940E+02  0.37861949301E+02  0.10000000000E+01 0. -1.
        -13    1    6    6    0    0 -0.17079481815E+01 -0.19353875392E+01 -0.11308842111E+02  0.11600161499E+02  0.10500000000E+00 0.  1.
         13    1    6    6    0    0 -0.20595271066E+01 -0.21509574614E+01 -0.12692801843E+02  0.13037887618E+02  0.10500000000E+00 0. -1.
</event>
<event>
11    0  0.3485800E-009  0.9118800E+02  0.7816531E-02  0.1126479E+00
         25   -1    0    0    0    0  0.00000000000E+00  0.00000000000E+00  0.99999998245E-14  0.12500000000E+03  0.12500000000E+03 0.  0.
    3000001    1    3    3    0    0 -0.33921714503E+01 -0.15570502898E+02  0.21745506351E+01  0.16114467354E+02  0.10000000000E+01 0.  1.
    1000022    2    1    0    0    0  0.34096586403E+01 -0.60818619734E+02  0.97836419145E+01  0.62500001021E+02  0.10000010008E+02 0.  0.
    3000022    2    3    3    0    0  0.68018300906E+01 -0.45248116836E+02  0.76090912793E+01  0.46385533667E+02  0.24998740013E+00 0.  0.
    1000022    2    1    0    0    0 -0.34096586403E+01  0.60818619734E+02 -0.97836419145E+01  0.62499998979E+02  0.99999972441E+01 0.  0.
    3000022    2    5    5    0    0 -0.75541185866E+00  0.53453926302E+02 -0.10809091255E+02  0.54541652312E+02  0.24999796119E+00 0.  0.
        -13    1    4    4    0    0  0.28254273123E+01 -0.19094614936E+02  0.32579343522E+01  0.19575814678E+02  0.10500000000E+00 0. -1.
         13    1    4    4    0    0  0.39764027783E+01 -0.26153501900E+02  0.43511569272E+01  0.26809718989E+02  0.10500000000E+00 0.  1.
    3000001    1    5    5    0    0 -0.26542467816E+01  0.73646934315E+01  0.10254493403E+01  0.79583466667E+01  0.10000000000E+01 0.  1.
        -13    1    6    6    0    0 -0.36073545889E+00  0.26331330630E+02 -0.52563257542E+01  0.26853474416E+02  0.10500000000E+00 0.  1.
         13    1    6    6    0    0 -0.39467639976E+00  0.27122595673E+02 -0.55527655006E+01  0.27688177896E+02  0.10500000000E+00 0. -1.
</event>
<event>
11    0  0.3485800E-009  0.9118800E+02  0.7816531E-02  0.1126479E+00
         25   -1    0    0    0    0  0.00000000000E+00  0.00000000000E+00  0.99999998245E-14  0.12500000000E+03  0.12500000000E+03 0.  0.
    3000001    1    3    3    0    0 -0.33148167020E+01  0.23894218831E+00 -0.29145659560E+01  0.45320853753E+01  0.10000000000E+01 0.  1.
    1000022    2    1    0    0    0 -0.32470273481E+02 -0.26738756827E+02 -0.45132804956E+02  0.62499999744E+02  0.10000005411E+02 0.  0.
    3000022    2    3    3    0    0 -0.29155456779E+02 -0.26977699016E+02 -0.42218239000E+02  0.57967914369E+02  0.24997566892E+00 0.  0.
    1000022    2    1    0    0    0  0.32470273481E+02  0.26738756827E+02  0.45132804956E+02  0.62500000256E+02  0.10000008606E+02 0.  0.
    3000022    2    5    5    0    0  0.77802878983E+00  0.42259333613E+01  0.53761794772E+01  0.68869184901E+01  0.24999789189E+00 0.  0.
        -13    1    4    4    0    0 -0.14046315115E+02 -0.13088764272E+02 -0.20416698195E+02  0.28026189692E+02  0.10500000000E+00 0.  1.
         13    1    4    4    0    0 -0.15109141664E+02 -0.13888934743E+02 -0.21801540805E+02  0.29941724677E+02  0.10500000000E+00 0. -1.
    3000001    1    5    5    0    0  0.31692244691E+02  0.22512823466E+02  0.39756625479E+02  0.55613081766E+02  0.10000000000E+01 0. -1.
        -13    1    6    6    0    0  0.46522228119E+00  0.27391389110E+01  0.35407994712E+01  0.45019550908E+01  0.10500000000E+00 0. -1.
         13    1    6    6    0    0  0.31280650864E+00  0.14867944503E+01  0.18353800060E+01  0.23849633992E+01  0.10500000000E+00 0.  1.
</event>
<event>
11    0  0.3485800E-009  0.9118800E+02  0.7816531E-02  0.1126479E+00
         25   -1    0    0    0    0  0.00000000000E+00  0.00000000000E+00  0.99999998245E-14  0.12500000000E+03  0.12500000000E+03 0.  0.
    3000001    1    3    3    0    0  0.69924279570E+01 -0.90678255917E+00 -0.20981403389E+01  0.74241832025E+01  0.10000000000E+01 0. -1.
    1000022    2    1    0    0    0  0.61286306105E+02  0.50638411888E+01  0.49594460901E+01  0.62500000474E+02  0.10000007510E+02 0.  0.
    3000022    2    3    3    0    0  0.54293878148E+02  0.59706237480E+01  0.70575864290E+01  0.55075817272E+02  0.25013931038E+00 0.  0.
    1000022    2    1    0    0    0 -0.61286306105E+02 -0.50638411888E+01 -0.49594460901E+01  0.62499999526E+02  0.10000001581E+02 0.  0.
    3000022    2    5    5    0    0 -0.21435839965E+02  0.13142416149E+01  0.18603957995E+01  0.21557969346E+02  0.25000755206E+00 0.  0.
        -13    1    4    4    0    0  0.20147750627E+02  0.22719585227E+01  0.26410254697E+01  0.20446997124E+02  0.10500000000E+00 0. -1.
         13    1    4    4    0    0  0.34146127521E+02  0.36986652253E+01  0.44165609593E+01  0.34628820148E+02  0.10500000000E+00 0.  1.
    3000001    1    5    5    0    0 -0.39850466140E+02 -0.63780828037E+01 -0.68198418896E+01  0.40942030180E+02  0.10000000000E+01 0. -1.
        -13    1    6    6    0    0 -0.77582798428E+01  0.50077791924E+00  0.72644807684E+00  0.78089971476E+01  0.10500000000E+00 0. -1.
         13    1    6    6    0    0 -0.13677560122E+02  0.81346369563E+00  0.11339477226E+01  0.13748972198E+02  0.10500000000E+00 0.  1.
</event>
<event>
11    0  0.3485800E-009  0.9118800E+02  0.7816531E-02  0.1126479E+00
         25   -1    0    0    0    0  0.00000000000E+00  0.00000000000E+00  0.99999998245E-14  0.12500000000E+03  0.12500000000E+03 0.  0.
    3000001    1    3    3    0    0  0.24652262231E+01 -0.18946568250E+02  0.29618921400E+01  0.19360335581E+02  0.10000000000E+01 0. -1.
    1000022    2    1    0    0    0 -0.67076570761E+01 -0.60601861425E+02  0.94165872596E+01  0.62500002097E+02  0.99999937465E+01 0.  0.
    3000022    2    3    3    0    0 -0.91728832992E+01 -0.41655293175E+02  0.64546951196E+01  0.43139666516E+02  0.25000098118E+00 0.  0.
    1000022    2    1    0    0    0  0.67076570761E+01  0.60601861425E+02 -0.94165872596E+01  0.62499997903E+02  0.99999675292E+01 0.  0.
    3000022    2    5    5    0    0  0.64331921028E+01  0.60024885419E+02 -0.84263016091E+01  0.60954391872E+02  0.24999884813E+00 0.  0.
        -13    1    4    4    0    0 -0.34907352417E+01 -0.16047413357E+02  0.24399526903E+01  0.16603285883E+02  0.10500000000E+00 0.  1.
         13    1    4    4    0    0 -0.56821480575E+01 -0.25607879818E+02  0.40147424293E+01  0.26536380633E+02  0.10500000000E+00 0. -1.
    3000001    1    5    5    0    0  0.27446497327E+00  0.57697600562E+00 -0.99028565050E+00  0.15456060307E+01  0.10000000000E+01 0. -1.
        -13    1    6    6    0    0  0.41892032245E+01  0.38701352458E+02 -0.53931465795E+01  0.39299378631E+02  0.10500000000E+00 0.  1.
         13    1    6    6    0    0  0.22439888783E+01  0.21323532961E+02 -0.30331550296E+01  0.21655013241E+02  0.10500000000E+00 0. -1.
</event>
<event>
11    0  0.3485800E-009  0.9118800E+02  0.7816531E-02  0.1126479E+00
         25   -1    0    0    0    0  0.00000000000E+00  0.00000000000E+00  0.99999998245E-14  0.12500000000E+03  0.12500000000E+03 0.  0.
    3000001    1    3    3    0    0  0.22513463590E+01  0.26630453487E+02  0.29590363393E+02  0.39885325862E+02  0.10000000000E+01 0. -1.
    1000022    2    1    0    0    0 -0.33572467725E+01  0.39118709600E+02  0.47588922990E+02  0.62500000409E+02  0.99999956546E+01 0.  0.
    3000022    2    3    3    0    0 -0.56085931315E+01  0.12488256113E+02  0.17998559597E+02  0.22614674547E+02  0.24999930674E+00 0.  0.
    1000022    2    1    0    0    0  0.33572467725E+01 -0.39118709600E+02 -0.47588922990E+02  0.62499999591E+02  0.99999905418E+01 0.  0.
    3000022    2    5    5    0    0  0.46853293812E+01 -0.15175861264E+02 -0.13720583882E+02  0.20989902219E+02  0.24999320025E+00 0.  0.
        -13    1    4    4    0    0 -0.40302521062E+01  0.89690958460E+01  0.12992924664E+02  0.16294622691E+02  0.10500000000E+00 0. -1.
         13    1    4    4    0    0 -0.15783410253E+01  0.35191602668E+01  0.50056349328E+01  0.63200518555E+01  0.10500000000E+00 0.  1.
    3000001    1    5    5    0    0 -0.13280826087E+01 -0.23942848337E+02 -0.33868339108E+02  0.41510097372E+02  0.10000000000E+01 0.  1.
        -13    1    6    6    0    0  0.19136917382E+01 -0.59999697940E+01 -0.54110123738E+01  0.83037300960E+01  0.10500000000E+00 0. -1.
         13    1    6    6    0    0  0.27716376430E+01 -0.91758914697E+01 -0.83095715083E+01  0.12686172123E+02  0.10500000000E+00 0.  1.
</event>
<event>
11    0  0.3485800E-009  0.9118800E+02  0.7816531E-02  0.1126479E+00
         25   -1    0    0    0    0  0.00000000000E+00  0.00000000000E+00  0.99999998245E-14  0.12500000000E+03  0.12500000000E+03 0.  0.
    3000001    1    3    3    0    0  0.62292618337E+01  0.47862767128E+01 -0.16087819746E+02  0.17931260188E+02  0.10000000000E+01 0. -1.
    1000022    2    1    0    0    0  0.35067248699E+02  0.13434894288E+02 -0.48949376735E+02  0.62499999145E+02  0.10000004725E+02 0.  0.
    3000022    2    3    3    0    0  0.28837986866E+02  0.86486175752E+01 -0.32861556989E+02  0.44568738956E+02  0.24998400832E+00 0.  0.
    1000022    2    1    0    0    0 -0.35067248699E+02 -0.13434894288E+02  0.48949376735E+02  0.62500000855E+02  0.10000015417E+02 0.  0.
    3000022    2    5    5    0    0 -0.30839546528E+02 -0.79337084004E+01  0.40568171319E+02  0.51573834279E+02  0.24999825235E+00 0.  0.
        -13    1    4    4    0    0  0.17180550817E+02  0.51577905859E+01 -0.19672684065E+02  0.26623291559E+02  0.10500000000E+00 0. -1.
         13    1    4    4    0    0  0.11657436049E+02  0.34908269893E+01 -0.13188872924E+02  0.17945447398E+02  0.10500000000E+00 0.  1.
    3000001    1    5    5    0    0 -0.42277021717E+01 -0.55011858875E+01  0.83812054159E+01  0.10926166576E+02  0.10000000000E+01 0.  1.
        -13    1    6    6    0    0 -0.10731874160E+02 -0.27595382597E+01  0.14208259120E+02  0.18018707685E+02  0.10500000000E+00 0.  1.
         13    1    6    6    0    0 -0.20107672368E+02 -0.51741701407E+01  0.26359912199E+02  0.33555126595E+02  0.10500000000E+00 0. -1.
</event>
<event>
11    0  0.3485800E-009  0.9118800E+02  0.7816531E-02  0.1126479E+00
         25   -1    0    0    0    0  0.00000000000E+00  0.00000000000E+00  0.99999998245E-14  0.12500000000E+03  0.12500000000E+03 0.  0.
    3000001    1    3    3    0    0 -0.11018709206E+02 -0.38410893605E+01  0.86846203961E+01  0.14580416711E+02  0.10000000000E+01 0. -1.
    1000022    2    1    0    0    0 -0.52514995966E+02 -0.25132671969E+00  0.32378415624E+02  0.62500001904E+02  0.10000023663E+02 0.  0.
    3000022    2    3    3    0    0 -0.41496286760E+02  0.35897626408E+01  0.23693795228E+02  0.47919585193E+02  0.25000416397E+00 0.  0.
    1000022    2    1    0    0    0  0.52514995966E+02  0.25132671969E+00 -0.32378415624E+02  0.62499998096E+02  0.99999998659E+01 0.  0.
    3000022    2    5    5    0    0  0.36152143165E+02 -0.39483103970E+01 -0.24368581334E+02  0.43777355413E+02  0.24996064990E+00 0.  0.
        -13    1    4    4    0    0 -0.28316366469E+02  0.24537907099E+01  0.16110728289E+02  0.32671153788E+02  0.10500000000E+00 0.  1.
         13    1    4    4    0    0 -0.13179920291E+02  0.11359719310E+01  0.75830669392E+01  0.15248431405E+02  0.10500000000E+00 0. -1.
    3000001    1    5    5    0    0  0.16362852800E+02  0.41996371166E+01 -0.80098342903E+01  0.18722642683E+02  0.10000000000E+01 0.  1.
        -13    1    6    6    0    0  0.17638650793E+02 -0.18799366713E+01 -0.11826450357E+02  0.21319758834E+02  0.10500000000E+00 0.  1.
         13    1    6    6    0    0  0.18513492372E+02 -0.20683737257E+01 -0.12542130977E+02  0.22457596579E+02  0.10500000000E+00 0. -1.
</event>
<event>
11    0  0.3485800E-009  0.9118800E+02  0.7816531E-02  0.1126479E+00
         25   -1    0    0    0    0  0.00000000000E+00  0.00000000000E+00  0.99999998245E-14  0.12500000000E+03  0.12500000000E+03 0.  0.
    3000001    1    3    3    0    0  0.41662763929E+02  0.10077229733E+02 -0.22478527110E+02  0.48410955768E+02  0.10000000000E+01 0.  1.
    1000022    2    1    0    0    0  0.51724774282E+02  0.93250781413E+01 -0.32308525560E+02  0.62499999528E+02  0.99999880118E+01 0.  0.
    3000022    2    3    3    0    0  0.10062010353E+02 -0.75215159150E+00 -0.98299984496E+01  0.14089043760E+02  0.25000038106E+00 0.  0.
    1000022    2    1    0    0    0 -0.51724774282E+02 -0.93250781413E+01  0.32308525560E+02  0.62500000472E+02  0.99999939137E+01 0.  0.
    3000022    2    5    5    0    0 -0.27416776348E+02 -0.74131749034E-01  0.15151813793E+02  0.31326108649E+02  0.25000212645E+00 0.  0.
        -13    1    4    4    0    0  0.50034581942E+01 -0.32263685506E+00 -0.49463978617E+01  0.70439027000E+01  0.10500000000E+00 0. -1.
         13    1    4    4    0    0  0.50585521588E+01 -0.42951473644E+00 -0.48836005879E+01  0.70451410599E+01  0.10500000000E+00 0.  1.
    3000001    1    5    5    0    0 -0.24307997934E+02 -0.92509463922E+01  0.17156711767E+02  0.31173891823E+02  0.10000000000E+01 0.  1.
        -13    1    6    6    0    0 -0.10895500533E+02 -0.86137326869E-01  0.60524596130E+01  0.12464455217E+02  0.10500000000E+00 0. -1.
         13    1    6    6    0    0 -0.16521275815E+02  0.12005577835E-01  0.90993541796E+01  0.18861653432E+02  0.10500000000E+00 0.  1.
</event>
<event>
11    0  0.3485800E-009  0.9118800E+02  0.7816531E-02  0.1126479E+00
         25   -1    0    0    0    0  0.00000000000E+00  0.00000000000E+00  0.99999998245E-14  0.12500000000E+03  0.12500000000E+03 0.  0.
    3000001    1    3    3    0    0 -0.68403494388E+01  0.24048234010E+01 -0.85767044905E+01  0.11275345491E+02  0.10000000000E+01 0. -1.
    1000022    2    1    0    0    0 -0.19743444387E+02  0.19943241042E+02 -0.54942822372E+02  0.62500001078E+02  0.99999972537E+01 0.  0.
    3000022    2    3    3    0    0 -0.12903094948E+02  0.17538417641E+02 -0.46366117881E+02  0.51224655586E+02  0.25000000260E+00 0.  0.
    1000022    2    1    0    0    0  0.19743444387E+02 -0.19943241042E+02  0.54942822372E+02  0.62499998922E+02  0.99999837810E+01 0.  0.
    3000022    2    5    5    0    0  0.90136744680E+01 -0.14826574972E+02  0.38043153811E+02  0.41814085077E+02  0.25001213947E+00 0.  0.
        -13    1    4    4    0    0 -0.72248148379E+01  0.99166476139E+01 -0.26049143648E+02  0.28794213987E+02  0.10500000000E+00 0.  1.
         13    1    4    4    0    0 -0.56782801100E+01  0.76217700268E+01 -0.20316974233E+02  0.22430441599E+02  0.10500000000E+00 0. -1.
    3000001    1    5    5    0    0  0.10729769919E+02 -0.51166660692E+01  0.16899668560E+02  0.20685913845E+02  0.10000000000E+01 0.  1.
        -13    1    6    6    0    0  0.42998796016E+01 -0.71959898555E+01  0.18325415681E+02  0.20152000384E+02  0.10500000000E+00 0. -1.
         13    1    6    6    0    0  0.47137948665E+01 -0.76305851170E+01  0.19717738130E+02  0.21662084693E+02  0.10500000000E+00 0.  1.
</event>
<event>
11    0  0.3485800E-009  0.9118800E+02  0.7816531E-02  0.1126479E+00
         25   -1    0    0    0    0  0.00000000000E+00  0.00000000000E+00  0.99999998245E-14  0.12500000000E+03  0.12500000000E+03 0.  0.
    3000001    1    3    3    0    0  0.59332185981E+01 -0.31063439834E+01 -0.16699334051E+02  0.18019994829E+02  0.10000000000E+01 0. -1.
    1000022    2    1    0    0    0  0.18346233314E+02  0.44710877674E+01 -0.58733937761E+02  0.62499999512E+02  0.99999795753E+01 0.  0.
    3000022    2    3    3    0    0  0.12413014716E+02  0.75774317508E+01 -0.42034603710E+02  0.44480004684E+02  0.25000268634E+00 0.  0.
    1000022    2    1    0    0    0 -0.18346233314E+02 -0.44710877674E+01  0.58733937761E+02  0.62500000488E+02  0.99999856718E+01 0.  0.
    3000022    2    5    5    0    0 -0.49914930500E+01 -0.42459599402E+01  0.99963698383E+01  0.11955462731E+02  0.25000096298E+00 0.  0.
        -13    1    4    4    0    0  0.89315688321E+01  0.54433163396E+01 -0.30109141890E+02  0.31874348071E+02  0.10500000000E+00 0. -1.
         13    1    4    4    0    0  0.34814458843E+01  0.21341154112E+01 -0.11925461819E+02  0.12605656613E+02  0.10500000000E+00 0.  1.
    3000001    1    5    5    0    0 -0.13354740264E+02 -0.22512782713E+00  0.48737567922E+02  0.50544537757E+02  0.10000000000E+01 0.  1.
        -13    1    6    6    0    0 -0.36220869257E+01 -0.30879225120E+01  0.73249809615E+01  0.87361976983E+01  0.10500000000E+00 0.  1.
         13    1    6    6    0    0 -0.13694061243E+01 -0.11580374282E+01  0.26713888768E+01  0.32192650325E+01  0.10500000000E+00 0. -1.
</event>
<event>
11    0  0.3485800E-009  0.9118800E+02  0.7816531E-02  0.1126479E+00
         25   -1    0    0    0    0  0.00000000000E+00  0.00000000000E+00  0.99999998245E-14  0.12500000000E+03  0.12500000000E+03 0.  0.
    3000001    1    3    3    0    0  0.50893564262E+01  0.33297266510E+02  0.12473630414E+02  0.35933284870E+02  0.10000000000E+01 0.  1.
    1000022    2    1    0    0    0  0.16952582756E+02  0.55798943760E+02  0.20133017740E+02  0.62499999615E+02  0.99999680847E+01 0.  0.
    3000022    2    3    3    0    0  0.11863226330E+02  0.22501677250E+02  0.76593873257E+01  0.26566714745E+02  0.25000016858E+00 0.  0.
    1000022    2    1    0    0    0 -0.16952582756E+02 -0.55798943760E+02 -0.20133017740E+02  0.62500000385E+02  0.99999728970E+01 0.  0.
    3000022    2    5    5    0    0 -0.68879901976E+01 -0.14042606772E+02 -0.16518750186E+01  0.15729920865E+02  0.25001083464E+00 0.  0.
        -13    1    4    4    0    0  0.54479549664E+01  0.10203679456E+02  0.34531909300E+01  0.12071902931E+02  0.10500000000E+00 0. -1.
         13    1    4    4    0    0  0.64152713634E+01  0.12297997794E+02  0.42061963957E+01  0.14494811814E+02  0.10500000000E+00 0.  1.
    3000001    1    5    5    0    0 -0.10064592558E+02 -0.41756336988E+02 -0.18481142721E+02  0.46770079520E+02  0.10000000000E+01 0. -1.
        -13    1    6    6    0    0 -0.44731851055E+01 -0.92364689052E+01 -0.10630336502E+01  0.10318081622E+02  0.10500000000E+00 0. -1.
         13    1    6    6    0    0 -0.24148050922E+01 -0.48061378673E+01 -0.58884136849E+00  0.54118392427E+01  0.10500000000E+00 0.  1.
</event>
<event>
11    0  0.3485800E-009  0.9118800E+02  0.7816531E-02  0.1126479E+00
         25   -1    0    0    0    0  0.00000000000E+00  0.00000000000E+00  0.99999998245E-14  0.12500000000E+03  0.12500000000E+03 0.  0.
    3000001    1    3    3    0    0 -0.29195075150E+02  0.32015520277E+02  0.36803271375E+02  0.56857952263E+02  0.10000000000E+01 0. -1.
    1000022    2    1    0    0    0 -0.30221693949E+02  0.37146877457E+02  0.38897411562E+02  0.62499999228E+02  0.99999993646E+01 0.  0.
    3000022    2    3    3    0    0 -0.10266187998E+01  0.51313571796E+01  0.20941401869E+01  0.56420469650E+01  0.24999633635E+00 0.  0.
    1000022    2    1    0    0    0  0.30221693949E+02 -0.37146877457E+02 -0.38897411562E+02  0.62500000772E+02  0.10000009018E+02 0.  0.
    3000022    2    5    5    0    0  0.17740145757E+02 -0.14029136682E+02 -0.18659439783E+02  0.29321777710E+02  0.25001514795E+00 0.  0.
        -13    1    4    4    0    0 -0.48068210802E+00  0.26035356008E+01  0.11187472049E+01  0.28761212113E+01  0.10500000000E+00 0. -1.
         13    1    4    4    0    0 -0.54593669174E+00  0.25278215788E+01  0.97539298195E+00  0.27659257537E+01  0.10500000000E+00 0.  1.
    3000001    1    5    5    0    0  0.12481548193E+02 -0.23117740775E+02 -0.20237971779E+02  0.33178223062E+02  0.10000000000E+01 0. -1.
        -13    1    6    6    0    0  0.40683533655E+01 -0.32158215277E+01 -0.42848711784E+01  0.67278639419E+01  0.10500000000E+00 0. -1.
         13    1    6    6    0    0  0.13671792391E+02 -0.10813315154E+02 -0.14374568604E+02  0.22593913768E+02  0.10500000000E+00 0.  1.
</event>
<event>
11    0  0.3485800E-009  0.9118800E+02  0.7816531E-02  0.1126479E+00
         25   -1    0    0    0    0  0.00000000000E+00  0.00000000000E+00  0.99999998245E-14  0.12500000000E+03  0.12500000000E+03 0.  0.
    3000001    1    3    3    0    0  0.12587996442E+02  0.56595149389E+01 -0.22969645116E+02  0.26815897533E+02  0.10000000000E+01 0.  1.
    1000022    2    1    0    0    0  0.18772738322E+02  0.16286138092E+02 -0.56467653585E+02  0.62500000756E+02  0.10000009751E+02 0.  0.
    3000022    2    3    3    0    0  0.61847418802E+01  0.10626623153E+02 -0.33498008469E+02  0.35684103223E+02  0.24999929453E+00 0.  0.
    1000022    2    1    0    0    0 -0.18772738322E+02 -0.16286138092E+02  0.56467653585E+02  0.62499999244E+02  0.10000000300E+02 0.  0.
    3000022    2    5    5    0    0  0.23045320987E+00 -0.27916362146E+01  0.11527930954E+02  0.11866003357E+02  0.25000429445E+00 0.  0.
        -13    1    4    4    0    0  0.17814438276E+01  0.31107628669E+01 -0.98718829178E+01  0.10503117874E+02  0.10500000000E+00 0. -1.
         13    1    4    4    0    0  0.44032980525E+01  0.75158602861E+01 -0.23626125552E+02  0.25180985349E+02  0.10500000000E+00 0.  1.
    3000001    1    5    5    0    0 -0.19003191532E+02 -0.13494501877E+02  0.44939722632E+02  0.50633995887E+02  0.10000000000E+01 0.  1.
        -13    1    6    6    0    0  0.19749388956E+00 -0.20876071479E+01  0.86566979396E+01  0.89076681380E+01  0.10500000000E+00 0.  1.
         13    1    6    6    0    0  0.32959320306E-01 -0.70402906675E+00  0.28712330142E+01  0.29583352186E+01  0.10500000000E+00 0. -1.
</event>
<event>
11    0  0.3485800E-009  0.9118800E+02  0.7816531E-02  0.1126479E+00
         25   -1    0    0    0    0  0.00000000000E+00  0.00000000000E+00  0.99999998245E-14  0.12500000000E+03  0.12500000000E+03 0.  0.
    3000001    1    3    3    0    0 -0.26652148192E+01 -0.33360715757E+01  0.14917541080E+02  0.15548819102E+02  0.10000000000E+01 0.  1.
    1000022    2    1    0    0    0 -0.10901042083E+02 -0.29072176697E+02  0.53312529274E+02  0.62500001574E+02  0.10000012140E+02 0.  0.
    3000022    2    3    3    0    0 -0.82358272634E+01 -0.25736105121E+02  0.38394988194E+02  0.46951182472E+02  0.24991919650E+00 0.  0.
    1000022    2    1    0    0    0  0.10901042083E+02  0.29072176697E+02 -0.53312529274E+02  0.62499998426E+02  0.99999924596E+01 0.  0.
    3000022    2    5    5    0    0  0.14361803464E+01  0.36959060504E+01 -0.15349035513E+02  0.15854896022E+02  0.25000238826E+00 0.  0.
        -13    1    4    4    0    0 -0.19388420786E+01 -0.60258854591E+01  0.89797687201E+01  0.10987159571E+02  0.10500000000E+00 0.  1.
         13    1    4    4    0    0 -0.62969851848E+01 -0.19710219662E+02  0.29415219474E+02  0.35964022901E+02  0.10500000000E+00 0. -1.
    3000001    1    5    5    0    0  0.94648617362E+01  0.25376270646E+02 -0.37963493762E+02  0.46645102403E+02  0.10000000000E+01 0.  1.
        -13    1    6    6    0    0  0.87263678325E+00  0.23375080984E+01 -0.98474540745E+01  0.10159173973E+02  0.10500000000E+00 0. -1.
         13    1    6    6    0    0  0.56354356315E+00  0.13583979520E+01 -0.55015814381E+01  0.56957220494E+01  0.10500000000E+00 0.  1.
</event>
<event>
11    0  0.3485800E-009  0.9118800E+02  0.7816531E-02  0.1126479E+00
         25   -1    0    0    0    0  0.00000000000E+00  0.00000000000E+00  0.99999998245E-14  0.12500000000E+03  0.12500000000E+03 0.  0.
    3000001    1    3    3    0    0  0.38150746817E+02 -0.24819899244E+02 -0.30648698393E+02  0.54880320648E+02  0.10000000000E+01 0.  1.
    1000022    2    1    0    0    0  0.41785618522E+02 -0.25940806757E+02 -0.37246295822E+02  0.62500000356E+02  0.10000006081E+02 0.  0.
    3000022    2    3    3    0    0  0.36348717047E+01 -0.11209075129E+01 -0.65975974289E+01  0.76196797087E+01  0.25000213451E+00 0.  0.
    1000022    2    1    0    0    0 -0.41785618522E+02  0.25940806757E+02  0.37246295822E+02  0.62499999644E+02  0.10000001627E+02 0.  0.
    3000022    2    5    5    0    0 -0.28254580524E+02  0.20581838262E+02  0.30645904057E+02  0.46488356877E+02  0.25000564487E+00 0.  0.
        -13    1    4    4    0    0  0.21234534779E+01 -0.59532990902E+00 -0.37591924482E+01  0.43595900307E+01  0.10500000000E+00 0. -1.
         13    1    4    4    0    0  0.15114182268E+01 -0.52557760383E+00 -0.28384049806E+01  0.32600896779E+01  0.10500000000E+00 0.  1.
    3000001    1    5    5    0    0 -0.13531037998E+02  0.53589684948E+01  0.66003917646E+01  0.16011642767E+02  0.10000000000E+01 0. -1.
        -13    1    6    6    0    0 -0.84382979849E+01  0.60943516546E+01  0.91465834347E+01  0.13857020188E+02  0.10500000000E+00 0. -1.
         13    1    6    6    0    0 -0.19816282539E+02  0.14487486607E+02  0.21499320623E+02  0.32631336689E+02  0.10500000000E+00 0.  1.
</event>
<event>
11    0  0.3485800E-009  0.9118800E+02  0.7816531E-02  0.1126479E+00
         25   -1    0    0    0    0  0.00000000000E+00  0.00000000000E+00  0.99999998245E-14  0.12500000000E+03  0.12500000000E+03 0.  0.
    3000001    1    3    3    0    0  0.29779798329E+02  0.42568582162E+02  0.20316620253E+02  0.55791447681E+02  0.10000000000E+01 0. -1.
    1000022    2    1    0    0    0  0.32575312481E+02  0.48612477278E+02  0.19542929212E+02  0.62499999391E+02  0.99999955682E+01 0.  0.
    3000022    2    3    3    0    0  0.27955141517E+01  0.60438951166E+01 -0.77369104195E+00  0.67085517105E+01  0.25000134067E+00 0.  0.
    1000022    2    1    0    0    0 -0.32575312481E+02 -0.48612477278E+02 -0.19542929212E+02  0.62500000609E+02  0.10000003177E+02 0.  0.
    3000022    2    5    5    0    0 -0.45145419442E+01 -0.20743814216E+01 -0.10217872527E+01  0.50784549263E+01  0.25001600126E+00 0.  0.
        -13    1    4    4    0    0  0.20365462688E+01  0.43057307293E+01 -0.55957744920E+00  0.47969771461E+01  0.10500000000E+00 0. -1.
         13    1    4    4    0    0  0.75896788299E+00  0.17381643873E+01 -0.21411359275E+00  0.19115745644E+01  0.10500000000E+00 0.  1.
    3000001    1    5    5    0    0 -0.28060770537E+02 -0.46538095857E+02 -0.18521141959E+02  0.57421545682E+02  0.10000000000E+01 0. -1.
        -13    1    6    6    0    0 -0.24710497231E+01 -0.11198530740E+01 -0.49111583745E+00  0.27590537159E+01  0.10500000000E+00 0. -1.
         13    1    6    6    0    0 -0.20434922211E+01 -0.95452834761E+00 -0.53067141528E+00  0.23194012104E+01  0.10500000000E+00 0.  1.
</event>
<event>
11    0  0.3485800E-009  0.9118800E+02  0.7816531E-02  0.1126479E+00
         25   -1    0    0    0    0  0.00000000000E+00  0.00000000000E+00  0.99999998245E-14  0.12500000000E+03  0.12500000000E+03 0.  0.
    3000001    1    3    3    0    0  0.29649064944E+02  0.17298851779E+02  0.37422473564E+02  0.50791326549E+02  0.10000000000E+01 0.  1.
    1000022    2    1    0    0    0  0.37896932126E+02  0.16750044126E+02  0.45711142295E+02  0.62500000067E+02  0.10000001781E+02 0.  0.
    3000022    2    3    3    0    0  0.82478671821E+01 -0.54880765288E+00  0.82886687311E+01  0.11708673518E+02  0.25000665283E+00 0.  0.
    1000022    2    1    0    0    0 -0.37896932126E+02 -0.16750044126E+02 -0.45711142295E+02  0.62499999933E+02  0.10000000947E+02 0.  0.
    3000022    2    5    5    0    0 -0.33982890238E+02 -0.17871903218E+02 -0.41925854766E+02  0.56851398921E+02  0.25001553006E+00 0.  0.
        -13    1    4    4    0    0  0.31864636386E+01 -0.25432072910E+00  0.31423013220E+01  0.44836717266E+01  0.10500000000E+00 0.  1.
         13    1    4    4    0    0  0.50614035435E+01 -0.29448692379E+00  0.51463674090E+01  0.72250017915E+01  0.10500000000E+00 0. -1.
    3000001    1    5    5    0    0 -0.39140418877E+01  0.11218590924E+01 -0.37852875290E+01  0.56486010126E+01  0.10000000000E+01 0. -1.
        -13    1    6    6    0    0 -0.24973335031E+02 -0.13168805776E+02 -0.30847505341E+02  0.41817036228E+02  0.10500000000E+00 0. -1.
         13    1    6    6    0    0 -0.90095552075E+01 -0.47030974429E+01 -0.11078349425E+02  0.15034362693E+02  0.10500000000E+00 0.  1.
</event>
<event>
11    0  0.3485800E-009  0.9118800E+02  0.7816531E-02  0.1126479E+00
         25   -1    0    0    0    0  0.00000000000E+00  0.00000000000E+00  0.99999998245E-14  0.12500000000E+03  0.12500000000E+03 0.  0.
    3000001    1    3    3    0    0 -0.55235611535E+02  0.23943562736E+02  0.12234227969E+02  0.61440567316E+02  0.10000000000E+01 0. -1.
    1000022    2    1    0    0    0 -0.55102796673E+02  0.24449327561E+02  0.13121056396E+02  0.62500001563E+02  0.10000012751E+02 0.  0.
    3000022    2    3    3    0    0  0.13281486128E+00  0.50576482499E+00  0.88682842697E+00  0.10594342472E+01  0.24999683924E+00 0.  0.
    1000022    2    1    0    0    0  0.55102796673E+02 -0.24449327561E+02 -0.13121056396E+02  0.62499998437E+02  0.99999932124E+01 0.  0.
    3000022    2    5    5    0    0  0.71977118753E+01 -0.28270035024E+01  0.16183531904E+01  0.79044652664E+01  0.24999811342E+00 0.  0.
        -13    1    4    4    0    0  0.11498661550E+00  0.28131639706E+00  0.59379530642E+00  0.67526195134E+00  0.10500000000E+00 0. -1.
         13    1    4    4    0    0  0.17828245775E-01  0.22444842793E+00  0.29303312055E+00  0.38417229583E+00  0.10500000000E+00 0.  1.
    3000001    1    5    5    0    0  0.47905084798E+02 -0.21622324059E+02 -0.14739409587E+02  0.54595533170E+02  0.10000000000E+01 0. -1.
        -13    1    6    6    0    0  0.32103866002E+01 -0.12423280651E+01  0.65498686377E+00  0.35057087637E+01  0.10500000000E+00 0.  1.
         13    1    6    6    0    0  0.39873252751E+01 -0.15846754373E+01  0.96336632665E+00  0.43987565027E+01  0.10500000000E+00 0. -1.
</event>
<event>
11    0  0.3485800E-009  0.9118800E+02  0.7816531E-02  0.1126479E+00
         25   -1    0    0    0    0  0.00000000000E+00  0.00000000000E+00  0.99999998245E-14  0.12500000000E+03  0.12500000000E+03 0.  0.
    3000001    1    3    3    0    0 -0.17888049406E+02 -0.89577251802E+01  0.28964265351E+01  0.20238884323E+02  0.10000000000E+01 0. -1.
    1000022    2    1    0    0    0 -0.51496138223E+02 -0.25471755817E+02  0.22485263702E+02  0.62499999823E+02  0.10000014892E+02 0.  0.
    3000022    2    3    3    0    0 -0.33608088818E+02 -0.16514030637E+02  0.19588837167E+02  0.42261115501E+02  0.24999994732E+00 0.  0.
    1000022    2    1    0    0    0  0.51496138223E+02  0.25471755817E+02 -0.22485263702E+02  0.62500000177E+02  0.10000017099E+02 0.  0.
    3000022    2    5    5    0    0  0.16571263451E+02  0.46202138702E+01 -0.10182406396E+02  0.19992424648E+02  0.24998942459E+00 0.  0.
        -13    1    4    4    0    0 -0.19622293720E+02 -0.95710548162E+01  0.11407536383E+02  0.24632953791E+02  0.10500000000E+00 0. -1.
         13    1    4    4    0    0 -0.13985795098E+02 -0.69429758211E+01  0.81813007832E+01  0.17628161710E+02  0.10500000000E+00 0.  1.
    3000001    1    5    5    0    0  0.34924874772E+02  0.20851541947E+02 -0.12302857305E+02  0.42507575529E+02  0.10000000000E+01 0.  1.
        -13    1    6    6    0    0  0.74637781330E+01  0.21462503720E+01 -0.45707897110E+01  0.90120762458E+01  0.10500000000E+00 0.  1.
         13    1    6    6    0    0  0.91074853180E+01  0.24739634982E+01 -0.56116166853E+01  0.10980348402E+02  0.10500000000E+00 0. -1.
</event>
<event>
11    0  0.3485800E-009  0.9118800E+02  0.7816531E-02  0.1126479E+00
         25   -1    0    0    0    0  0.00000000000E+00  0.00000000000E+00  0.99999998245E-14  0.12500000000E+03  0.12500000000E+03 0.  0.
    3000001    1    3    3    0    0  0.83072972998E+00  0.39585388078E+01 -0.50426728429E+00  0.41969544757E+01  0.10000000000E+01 0. -1.
    1000022    2    1    0    0    0 -0.17021964186E+02  0.53951984946E+02 -0.24610685415E+02  0.62500000931E+02  0.10000016772E+02 0.  0.
    3000022    2    3    3    0    0 -0.17852693916E+02  0.49993446139E+02 -0.24106418131E+02  0.58303046456E+02  0.24998811755E+00 0.  0.
    1000022    2    1    0    0    0  0.17021964186E+02 -0.53951984946E+02  0.24610685415E+02  0.62499999069E+02  0.10000005128E+02 0.  0.
    3000022    2    5    5    0    0  0.15154782317E+02 -0.50154668385E+02  0.19789072371E+02  0.56007393002E+02  0.24999520883E+00 0.  0.
        -13    1    4    4    0    0 -0.78617675300E+01  0.22090234583E+02 -0.10714984939E+02  0.25779987973E+02  0.10500000000E+00 0.  1.
         13    1    4    4    0    0 -0.99909263860E+01  0.27903211556E+02 -0.13391433192E+02  0.32523058483E+02  0.10500000000E+00 0. -1.
    3000001    1    5    5    0    0  0.18671818693E+01 -0.37973165612E+01  0.48216130436E+01  0.64926060670E+01  0.10000000000E+01 0.  1.
        -13    1    6    6    0    0  0.43860080656E+01 -0.14648766969E+02  0.57970398721E+01  0.16353597058E+02  0.10500000000E+00 0. -1.
         13    1    6    6    0    0  0.10768774251E+02 -0.35505901416E+02  0.13992032499E+02  0.39653795943E+02  0.10500000000E+00 0.  1.
</event>
<event>
11    0  0.3485800E-009  0.9118800E+02  0.7816531E-02  0.1126479E+00
         25   -1    0    0    0    0  0.00000000000E+00  0.00000000000E+00  0.99999998245E-14  0.12500000000E+03  0.12500000000E+03 0.  0.
    3000001    1    3    3    0    0 -0.32201148248E+02  0.17189616845E+02 -0.38804741202E+01  0.36721314725E+02  0.10000000000E+01 0.  1.
    1000022    2    1    0    0    0 -0.49709501936E+02  0.35696822523E+02 -0.78071828523E+01  0.62500000756E+02  0.10000013472E+02 0.  0.
    3000022    2    3    3    0    0 -0.17508353688E+02  0.18507205678E+02 -0.39267087321E+01  0.25778686031E+02  0.25000224329E+00 0.  0.
    1000022    2    1    0    0    0  0.49709501936E+02 -0.35696822523E+02  0.78071828523E+01  0.62499999244E+02  0.10000004021E+02 0.  0.
    3000022    2    5    5    0    0  0.55470813683E+01 -0.42807872810E+01 -0.22612524158E+01  0.73668871470E+01  0.25002459363E+00 0.  0.
        -13    1    4    4    0    0 -0.10729107502E+02  0.11304851459E+02 -0.24593687261E+01  0.15778876190E+02  0.10500000000E+00 0.  1.
         13    1    4    4    0    0 -0.67792461863E+01  0.72023542196E+01 -0.14673400059E+01  0.99998098408E+01  0.10500000000E+00 0. -1.
    3000001    1    5    5    0    0  0.44162420568E+02 -0.31416035242E+02  0.10068435268E+02  0.55133112097E+02  0.10000000000E+01 0. -1.
        -13    1    6    6    0    0  0.19507658451E+01 -0.14354090608E+01 -0.78851326298E+00  0.25492478735E+01  0.10500000000E+00 0. -1.
         13    1    6    6    0    0  0.35963155231E+01 -0.28453782202E+01 -0.14727391528E+01  0.48176392735E+01  0.10500000000E+00 0.  1.
</event>
<event>
11    0  0.3485800E-009  0.9118800E+02  0.7816531E-02  0.1126479E+00
         25   -1    0    0    0    0  0.00000000000E+00  0.00000000000E+00  0.99999998245E-14  0.12500000000E+03  0.12500000000E+03 0.  0.
    3000001    1    3    3    0    0 -0.56672590142E+01 -0.24836079301E+02  0.20288144071E+02  0.32581550755E+02  0.10000000000E+01 0.  1.
    1000022    2    1    0    0    0 -0.93087809250E+01 -0.52549369559E+02  0.30954164662E+02  0.62500000467E+02  0.10000005255E+02 0.  0.
    3000022    2    3    3    0    0 -0.36415219108E+01 -0.27713290259E+02  0.10666020590E+02  0.29918449712E+02  0.24999828301E+00 0.  0.
    1000022    2    1    0    0    0  0.93087809250E+01  0.52549369559E+02 -0.30954164662E+02  0.62499999533E+02  0.99999994185E+01 0.  0.
    3000022    2    5    5    0    0  0.10258906872E+02  0.37479675760E+02 -0.25174886033E+02  0.46301281313E+02  0.24999826490E+00 0.  0.
        -13    1    4    4    0    0 -0.18794224906E+01 -0.14629771346E+02  0.56844360472E+01  0.15807791645E+02  0.10500000000E+00 0. -1.
         13    1    4    4    0    0 -0.17620994202E+01 -0.13083518913E+02  0.49815845433E+01  0.14110658067E+02  0.10500000000E+00 0.  1.
    3000001    1    5    5    0    0 -0.95012594745E+00  0.15069693799E+02 -0.57792786281E+01  0.16198718220E+02  0.10000000000E+01 0.  1.
        -13    1    6    6    0    0  0.27578530965E+01  0.99463332229E+01 -0.66895737881E+01  0.12300273198E+02  0.10500000000E+00 0.  1.
         13    1    6    6    0    0  0.75010537760E+01  0.27533342538E+02 -0.18485312245E+02  0.34001008115E+02  0.10500000000E+00 0. -1.
</event>
<event>
11    0  0.3485800E-009  0.9118800E+02  0.7816531E-02  0.1126479E+00
         25   -1    0    0    0    0  0.00000000000E+00  0.00000000000E+00  0.99999998245E-14  0.12500000000E+03  0.12500000000E+03 0.  0.
    3000001    1    3    3    0    0  0.51968867159E+01  0.36621078421E+02 -0.24325158005E+02  0.44281196102E+02  0.10000000000E+01 0.  1.
    1000022    2    1    0    0    0  0.10684015279E+02  0.47555375685E+02 -0.37823115074E+02  0.62499998752E+02  0.99999935568E+01 0.  0.
    3000022    2    3    3    0    0  0.54871285629E+01  0.10934297264E+02 -0.13497957069E+02  0.18218802650E+02  0.24997691213E+00 0.  0.
    1000022    2    1    0    0    0 -0.10684015279E+02 -0.47555375685E+02  0.37823115074E+02  0.62500001248E+02  0.10000009158E+02 0.  0.
    3000022    2    5    5    0    0 -0.96220175798E+01 -0.21050614707E+02  0.19206894749E+02  0.30077881441E+02  0.25008847162E+00 0.  0.
        -13    1    4    4    0    0  0.34219405489E+01  0.67282418132E+01 -0.82596090810E+01  0.11189775788E+02  0.10500000000E+00 0. -1.
         13    1    4    4    0    0  0.20651880140E+01  0.42060554504E+01 -0.52383479876E+01  0.70290268618E+01  0.10500000000E+00 0.  1.
    3000001    1    5    5    0    0 -0.10619976990E+01 -0.26504760978E+02  0.18616220324E+02  0.32422119807E+02  0.10000000000E+01 0. -1.
        -13    1    6    6    0    0 -0.31164074023E+01 -0.67684789291E+01  0.61228324187E+01  0.96449159633E+01  0.10500000000E+00 0.  1.
         13    1    6    6    0    0 -0.65056101775E+01 -0.14282135777E+02  0.13084062331E+02  0.20432965478E+02  0.10500000000E+00 0. -1.
</event>
<event>
11    0  0.3485800E-009  0.9118800E+02  0.7816531E-02  0.1126479E+00
         25   -1    0    0    0    0  0.00000000000E+00  0.00000000000E+00  0.99999998245E-14  0.12500000000E+03  0.12500000000E+03 0.  0.
    3000001    1    3    3    0    0 -0.34939110247E+02 -0.38885124328E+01 -0.25436154591E+02  0.43403455095E+02  0.10000000000E+01 0.  1.
    1000022    2    1    0    0    0 -0.51511423100E+02  0.28928826191E+00 -0.33952020792E+02  0.62500000486E+02  0.99999973716E+01 0.  0.
    3000022    2    3    3    0    0 -0.16572312853E+02  0.41778006947E+01 -0.85158662004E+01  0.19096545391E+02  0.24999357300E+00 0.  0.
    1000022    2    1    0    0    0  0.51511423100E+02 -0.28928826191E+00  0.33952020792E+02  0.62499999514E+02  0.99999912945E+01 0.  0.
    3000022    2    5    5    0    0  0.15344857196E+01  0.82238449671E+00 -0.44170403695E+00  0.18134409210E+01  0.25000566672E+00 0.  0.
        -13    1    4    4    0    0 -0.65005074022E+01  0.15787973398E+01 -0.33086996606E+01  0.74637601763E+01  0.10500000000E+00 0.  1.
         13    1    4    4    0    0 -0.10071805451E+02  0.25990033549E+01 -0.52071665398E+01  0.11632785215E+02  0.10500000000E+00 0. -1.
    3000001    1    5    5    0    0  0.49976937380E+02 -0.11116727586E+01  0.34393724829E+02  0.60686558593E+02  0.10000000000E+01 0.  1.
        -13    1    6    6    0    0  0.94932673081E+00  0.43831164477E+00 -0.25188766193E+00  0.10806529202E+01  0.10500000000E+00 0.  1.
         13    1    6    6    0    0  0.58515898884E+00  0.38407285194E+00 -0.18981637503E+00  0.73278800075E+00  0.10500000000E+00 0. -1.
</event>
<event>
11    0  0.3485800E-009  0.9118800E+02  0.7816531E-02  0.1126479E+00
         25   -1    0    0    0    0  0.00000000000E+00  0.00000000000E+00  0.99999998245E-14  0.12500000000E+03  0.12500000000E+03 0.  0.
    3000001    1    3    3    0    0 -0.35377439310E+01  0.39990523261E+00  0.60540764492E+01  0.70941805707E+01  0.10000000000E+01 0.  1.
    1000022    2    1    0    0    0 -0.46981952036E+02 -0.11745373484E+02  0.38222931267E+02  0.62499999124E+02  0.99999900252E+01 0.  0.
    3000022    2    3    3    0    0 -0.43444208105E+02 -0.12145278716E+02  0.32168854818E+02  0.55405818553E+02  0.24999267286E+00 0.  0.
    1000022    2    1    0    0    0  0.46981952036E+02  0.11745373484E+02 -0.38222931267E+02  0.62500000876E+02  0.10000000976E+02 0.  0.
    3000022    2    5    5    0    0  0.66347134283E+01 -0.61350171337E+00 -0.88302610510E+01  0.11064891060E+02  0.24999462598E+00 0.  0.
        -13    1    4    4    0    0 -0.21430890050E+02 -0.59646301458E+01  0.15940788906E+02  0.27367492342E+02  0.10500000000E+00 0.  1.
         13    1    4    4    0    0 -0.22013318054E+02 -0.61806485704E+01  0.16228065912E+02  0.28038326212E+02  0.10500000000E+00 0. -1.
    3000001    1    5    5    0    0  0.40347238607E+02  0.12358875197E+02 -0.29392670216E+02  0.51435109816E+02  0.10000000000E+01 0.  1.
        -13    1    6    6    0    0  0.45834393935E+01 -0.37524452799E+00 -0.60891496954E+01  0.76313494313E+01  0.10500000000E+00 0. -1.
         13    1    6    6    0    0  0.20512740348E+01 -0.23825718538E+00 -0.27411113556E+01  0.34335416287E+01  0.10500000000E+00 0.  1.
</event>
<event>
11    0  0.3485800E-009  0.9118800E+02  0.7816531E-02  0.1126479E+00
         25   -1    0    0    0    0  0.00000000000E+00  0.00000000000E+00  0.99999998245E-14  0.12500000000E+03  0.12500000000E+03 0.  0.
    3000001    1    3    3    0    0  0.15594256935E+02 -0.67081372519E+00  0.35744114959E+02  0.39016311904E+02  0.10000000000E+01 0.  1.
    1000022    2    1    0    0    0  0.19728580735E+02  0.44470075440E+01  0.58285994770E+02  0.62499999210E+02  0.99999970509E+01 0.  0.
    3000022    2    3    3    0    0  0.41343238001E+01  0.51178212692E+01  0.22541879811E+02  0.23483687306E+02  0.24999247779E+00 0.  0.
    1000022    2    1    0    0    0 -0.19728580735E+02 -0.44470075440E+01 -0.58285994770E+02  0.62500000790E+02  0.10000006922E+02 0.  0.
    3000022    2    5    5    0    0 -0.60936270785E+01 -0.21051846059E+01 -0.76946063380E+01  0.10041591746E+02  0.25000979772E+00 0.  0.
        -13    1    4    4    0    0  0.11133654087E+01  0.14375000160E+01  0.62693344284E+01  0.65285195875E+01  0.10500000000E+00 0. -1.
         13    1    4    4    0    0  0.30209583914E+01  0.36803212532E+01  0.16272545383E+02  0.16955167719E+02  0.10500000000E+00 0.  1.
    3000001    1    5    5    0    0 -0.13634953656E+02 -0.23418229381E+01 -0.50591388432E+02  0.52458409044E+02  0.10000000000E+01 0.  1.
        -13    1    6    6    0    0 -0.29096968071E+01 -0.98550441677E+00 -0.35656505208E+01  0.47077004048E+01  0.10500000000E+00 0.  1.
         13    1    6    6    0    0 -0.31839302714E+01 -0.11196801892E+01 -0.41289558171E+01  0.53338913411E+01  0.10500000000E+00 0. -1.
</event>
<event>
11    0  0.3485800E-009  0.9118800E+02  0.7816531E-02  0.1126479E+00
         25   -1    0    0    0    0  0.00000000000E+00  0.00000000000E+00  0.99999998245E-14  0.12500000000E+03  0.12500000000E+03 0.  0.
    3000001    1    3    3    0    0  0.25239707917E+02  0.76944064199E+01  0.38480993811E+02  0.46669407866E+02  0.10000000000E+01 0.  1.
    1000022    2    1    0    0    0  0.32813669118E+02  0.46340366846E+01  0.52038814425E+02  0.62500003255E+02  0.10000051160E+02 0.  0.
    3000022    2    3    3    0    0  0.75739612011E+01 -0.30603697353E+01  0.13557820614E+02  0.15830595389E+02  0.24999878382E+00 0.  0.
    1000022    2    1    0    0    0 -0.32813669118E+02 -0.46340366846E+01 -0.52038814425E+02  0.62499996745E+02  0.10000010468E+02 0.  0.
    3000022    2    5    5    0    0 -0.27654260813E+02 -0.14400576136E+01 -0.46989997074E+02  0.54543141021E+02  0.25000079220E+00 0.  0.
        -13    1    4    4    0    0  0.26028985058E+01 -0.10220722350E+01  0.45501877175E+01  0.53418110739E+01  0.10500000000E+00 0. -1.
         13    1    4    4    0    0  0.49710626953E+01 -0.20382975002E+01  0.90076328963E+01  0.10488784315E+02  0.10500000000E+00 0.  1.
    3000001    1    5    5    0    0 -0.51594083048E+01 -0.31939790710E+01 -0.50488173512E+01  0.79568557237E+01  0.10000000000E+01 0. -1.
        -13    1    6    6    0    0 -0.81182608224E+01 -0.39688062048E+00 -0.13863162358E+02  0.16070531061E+02  0.10500000000E+00 0. -1.
         13    1    6    6    0    0 -0.19535999990E+02 -0.10431769931E+01 -0.33126834716E+02  0.38472609960E+02  0.10500000000E+00 0.  1.
</event>
<event>
11    0  0.3485800E-009  0.9118800E+02  0.7816531E-02  0.1126479E+00
         25   -1    0    0    0    0  0.00000000000E+00  0.00000000000E+00  0.99999998245E-14  0.12500000000E+03  0.12500000000E+03 0.  0.
    3000001    1    3    3    0    0  0.21676400232E+01  0.89279260047E+00 -0.31640027968E+01  0.40628383669E+01  0.10000000000E+01 0. -1.
    1000022    2    1    0    0    0  0.35236898990E+00  0.18842486080E+02 -0.58745949220E+02  0.62500000953E+02  0.10000006190E+02 0.  0.
    3000022    2    3    3    0    0 -0.18152710333E+01  0.17949693480E+02 -0.55581946423E+02  0.58437162586E+02  0.24999600316E+00 0.  0.
    1000022    2    1    0    0    0 -0.35236898990E+00 -0.18842486080E+02  0.58745949220E+02  0.62499999047E+02  0.99999942760E+01 0.  0.
    3000022    2    5    5    0    0  0.19778767428E+01  0.29825807493E+00  0.61591391124E+01  0.64806208883E+01  0.24999640575E+00 0.  0.
        -13    1    4    4    0    0 -0.46159228577E+00  0.44216173055E+01 -0.13761628869E+02  0.14462268880E+02  0.10500000000E+00 0. -1.
         13    1    4    4    0    0 -0.13536787476E+01  0.13528076174E+02 -0.41820317554E+02  0.43974893706E+02  0.10500000000E+00 0.  1.
    3000001    1    5    5    0    0 -0.23302457327E+01 -0.19140744155E+02  0.52586810108E+02  0.56019378159E+02  0.10000000000E+01 0.  1.
        -13    1    6    6    0    0  0.11830082786E+01  0.12039642090E+00  0.37375555753E+01  0.39235635032E+01  0.10500000000E+00 0. -1.
         13    1    6    6    0    0  0.79486846420E+00  0.17786165403E+00  0.24215835371E+01  0.25570573850E+01  0.10500000000E+00 0.  1.
</event>
<event>
11    0  0.3485800E-009  0.9118800E+02  0.7816531E-02  0.1126479E+00
         25   -1    0    0    0    0  0.00000000000E+00  0.00000000000E+00  0.99999998245E-14  0.12500000000E+03  0.12500000000E+03 0.  0.
    3000001    1    3    3    0    0 -0.38012692240E+02  0.21574755554E+02 -0.36419959452E+02  0.56902093943E+02  0.10000000000E+01 0.  1.
    1000022    2    1    0    0    0 -0.39080451926E+02  0.25186835651E+02 -0.40553573041E+02  0.62499994665E+02  0.99999316931E+01 0.  0.
    3000022    2    3    3    0    0 -0.10677596856E+01  0.36120800970E+01 -0.41336135886E+01  0.55979007219E+01  0.24999563891E+00 0.  0.
    1000022    2    1    0    0    0  0.39080451926E+02 -0.25186835651E+02  0.40553573041E+02  0.62500005335E+02  0.99999983850E+01 0.  0.
    3000022    2    5    5    0    0  0.16273368012E+02 -0.92929847476E+01  0.10235573535E+02  0.21354426384E+02  0.24997726389E+00 0.  0.
        -13    1    4    4    0    0 -0.28333202212E+00  0.87757972150E+00 -0.10229511438E+01  0.13812592968E+01  0.10500000000E+00 0. -1.
         13    1    4    4    0    0 -0.78442766350E+00  0.27345003755E+01 -0.31106624447E+01  0.42166414251E+01  0.10500000000E+00 0.  1.
    3000001    1    5    5    0    0  0.22807083914E+02 -0.15893850904E+02  0.30317999506E+02  0.41145578951E+02  0.10000000000E+01 0.  1.
        -13    1    6    6    0    0  0.74269557432E+01 -0.43032917048E+01  0.46429922155E+01  0.97594258449E+01  0.10500000000E+00 0. -1.
         13    1    6    6    0    0  0.88464122686E+01 -0.49896930427E+01  0.55925813193E+01  0.11595000539E+02  0.10500000000E+00 0.  1.
</event>
<event>
11    0  0.3485800E-009  0.9118800E+02  0.7816531E-02  0.1126479E+00
         25   -1    0    0    0    0  0.00000000000E+00  0.00000000000E+00  0.99999998245E-14  0.12500000000E+03  0.12500000000E+03 0.  0.
    3000001    1    3    3    0    0  0.15129918826E+02  0.13769156187E+02 -0.10667913207E+00  0.20482077195E+02  0.10000000000E+01 0.  1.
    1000022    2    1    0    0    0  0.51513472816E+02  0.32628412129E+02 -0.93807734451E+01  0.62500000269E+02  0.99999981755E+01 0.  0.
    3000022    2    3    3    0    0  0.36383553990E+02  0.18859255942E+02 -0.92740943131E+01  0.42017923073E+02  0.24999690408E+00 0.  0.
    1000022    2    1    0    0    0 -0.51513472816E+02 -0.32628412129E+02  0.93807734451E+01  0.62499999731E+02  0.99999948177E+01 0.  0.
    3000022    2    5    5    0    0 -0.30813954423E+02 -0.17701753752E+02  0.76342088922E+00  0.35545705879E+02  0.25004378122E+00 0.  0.
        -13    1    4    4    0    0  0.15845678502E+02  0.82435610074E+01 -0.39803904147E+01  0.18300173718E+02  0.10500000000E+00 0.  1.
         13    1    4    4    0    0  0.20537875489E+02  0.10615694934E+02 -0.52937038984E+01  0.23717749355E+02  0.10500000000E+00 0. -1.
    3000001    1    5    5    0    0 -0.20699518393E+02 -0.14926658377E+02  0.86173525559E+01  0.26954293852E+02  0.10000000000E+01 0.  1.
        -13    1    6    6    0    0 -0.89922047452E+01 -0.51178205750E+01  0.23452337158E+00  0.10349775835E+02  0.10500000000E+00 0. -1.
         13    1    6    6    0    0 -0.21821749678E+02 -0.12583933177E+02  0.52889751764E+00  0.25195930044E+02  0.10500000000E+00 0.  1.
</event>
<event>
11    0  0.3485800E-009  0.9118800E+02  0.7816531E-02  0.1126479E+00
         25   -1    0    0    0    0  0.00000000000E+00  0.00000000000E+00  0.99999998245E-14  0.12500000000E+03  0.12500000000E+03 0.  0.
    3000001    1    3    3    0    0 -0.22101164444E+01  0.56827345538E+00 -0.22439527329E+01  0.33530394101E+01  0.10000000000E+01 0.  1.
    1000022    2    1    0    0    0 -0.56932007969E+02  0.21881041790E+02 -0.92853079936E+01  0.62499997795E+02  0.99999629336E+01 0.  0.
    3000022    2    3    3    0    0 -0.54721891524E+02  0.21312768335E+02 -0.70413552607E+01  0.59146958385E+02  0.24999239617E+00 0.  0.
    1000022    2    1    0    0    0  0.56932007969E+02 -0.21881041790E+02  0.92853079936E+01  0.62500002205E+02  0.99999904957E+01 0.  0.
    3000022    2    5    5    0    0  0.40994537481E+02 -0.11086202533E+02  0.76948173682E+01  0.43159340878E+02  0.25000163286E+00 0.  0.
        -13    1    4    4    0    0 -0.38231827549E+02  0.14851381126E+02 -0.48888850613E+01  0.41305549037E+02  0.10500000000E+00 0.  1.
         13    1    4    4    0    0 -0.16490063975E+02  0.64613872085E+01 -0.21524701994E+01  0.17841409348E+02  0.10500000000E+00 0. -1.
    3000001    1    5    5    0    0  0.15937470488E+02 -0.10794839257E+02  0.15904906255E+01  0.19340661327E+02  0.10000000000E+01 0.  1.
        -13    1    6    6    0    0  0.12788634287E+02 -0.34548860787E+01  0.24499114440E+01  0.13472137760E+02  0.10500000000E+00 0. -1.
         13    1    6    6    0    0  0.28205903193E+02 -0.76313164542E+01  0.52449059242E+01  0.29687203117E+02  0.10500000000E+00 0.  1.
</event>
<event>
11    0  0.3485800E-009  0.9118800E+02  0.7816531E-02  0.1126479E+00
         25   -1    0    0    0    0  0.00000000000E+00  0.00000000000E+00  0.99999998245E-14  0.12500000000E+03  0.12500000000E+03 0.  0.
    3000001    1    3    3    0    0 -0.61151852790E+01  0.30999081702E+02 -0.26952218827E+02  0.41542275540E+02  0.10000000000E+01 0. -1.
    1000022    2    1    0    0    0 -0.15262602867E+02  0.46965319450E+02 -0.36980562618E+02  0.62499999097E+02  0.99999799148E+01 0.  0.
    3000022    2    3    3    0    0 -0.91474175880E+01  0.15966237748E+02 -0.10028343791E+02  0.20957723557E+02  0.25000229262E+00 0.  0.
    1000022    2    1    0    0    0  0.15262602867E+02 -0.46965319450E+02  0.36980562618E+02  0.62500000903E+02  0.99999911999E+01 0.  0.
    3000022    2    5    5    0    0  0.71855015506E+01 -0.23221228569E+02  0.24326795067E+02  0.34390585209E+02  0.25000792263E+00 0.  0.
        -13    1    4    4    0    0 -0.61290708402E+01  0.10601503590E+02 -0.67011459858E+01  0.13959719562E+02  0.10500000000E+00 0.  1.
         13    1    4    4    0    0 -0.30183467478E+01  0.53647341580E+01 -0.33271978051E+01  0.69980039947E+01  0.10500000000E+00 0. -1.
    3000001    1    5    5    0    0  0.80771013164E+01 -0.23744090881E+02  0.12653767550E+02  0.28109415694E+02  0.10000000000E+01 0.  1.
        -13    1    6    6    0    0  0.51208999617E+01 -0.16473527248E+02  0.17212162977E+02  0.24369454154E+02  0.10500000000E+00 0.  1.
         13    1    6    6    0    0  0.20646015889E+01 -0.67477013216E+01  0.71146320901E+01  0.10021131055E+02  0.10500000000E+00 0. -1.
</event>
<event>
11    0  0.3485800E-009  0.9118800E+02  0.7816531E-02  0.1126479E+00
         25   -1    0    0    0    0  0.00000000000E+00  0.00000000000E+00  0.99999998245E-14  0.12500000000E+03  0.12500000000E+03 0.  0.
    3000001    1    3    3    0    0 -0.16941316100E+02 -0.54044251621E+01  0.53271289260E+02  0.56169798486E+02  0.10000000000E+01 0.  1.
    1000022    2    1    0    0    0 -0.19021543161E+02 -0.90757671223E+01  0.57983282547E+02  0.62500002275E+02  0.10000028816E+02 0.  0.
    3000022    2    3    3    0    0 -0.20802270615E+01 -0.36713419603E+01  0.47119932874E+01  0.63302037892E+01  0.25000571097E+00 0.  0.
    1000022    2    1    0    0    0  0.19021543161E+02  0.90757671223E+01 -0.57983282547E+02  0.62499997725E+02  0.10000000378E+02 0.  0.
    3000022    2    5    5    0    0  0.29980028904E+01  0.14230282413E+01 -0.23159456797E+02  0.23397349540E+02  0.24999131226E+00 0.  0.
        -13    1    4    4    0    0 -0.76815933245E+00 -0.13787225072E+01  0.18528055931E+01  0.24361564149E+01  0.10500000000E+00 0. -1.
         13    1    4    4    0    0 -0.13120677291E+01 -0.22926194530E+01  0.28591876943E+01  0.38940473743E+01  0.10500000000E+00 0.  1.
    3000001    1    5    5    0    0  0.16023540271E+02  0.76527388810E+01 -0.34823825750E+02  0.39102648185E+02  0.10000000000E+01 0.  1.
        -13    1    6    6    0    0  0.19132528141E+01  0.86815921285E+00 -0.14313403136E+02  0.14467161818E+02  0.10500000000E+00 0.  1.
         13    1    6    6    0    0  0.10847500763E+01  0.55486902844E+00 -0.88460536610E+01  0.89301877214E+01  0.10500000000E+00 0. -1.
</event>
<event>
11    0  0.3485800E-009  0.9118800E+02  0.7816531E-02  0.1126479E+00
         25   -1    0    0    0    0  0.00000000000E+00  0.00000000000E+00  0.99999998245E-14  0.12500000000E+03  0.12500000000E+03 0.  0.
    3000001    1    3    3    0    0 -0.25983368459E+02  0.61165727668E+01  0.38600256131E+02  0.46941747648E+02  0.10000000000E+01 0.  1.
    1000022    2    1    0    0    0 -0.38400262530E+02  0.56259871243E+01  0.47958503200E+02  0.62499999969E+02  0.10000003674E+02 0.  0.
    3000022    2    3    3    0    0 -0.12416894071E+02 -0.49058564246E+00  0.93582470690E+01  0.15558252321E+02  0.24998888568E+00 0.  0.
    1000022    2    1    0    0    0  0.38400262530E+02 -0.56259871243E+01 -0.47958503200E+02  0.62500000031E+02  0.10000004061E+02 0.  0.
    3000022    2    5    5    0    0  0.18697317908E+02 -0.55244039423E+01 -0.17437690449E+02  0.26158063416E+02  0.24999525947E+00 0.  0.
        -13    1    4    4    0    0 -0.43064044222E+01 -0.12699222967E+00  0.32002810740E+01  0.53678738833E+01  0.10500000000E+00 0.  1.
         13    1    4    4    0    0 -0.81104896483E+01 -0.36359341279E+00  0.61579659950E+01  0.10190378438E+02  0.10500000000E+00 0. -1.
    3000001    1    5    5    0    0  0.19702944621E+02 -0.10158318198E+00 -0.30520812751E+02  0.36341936615E+02  0.10000000000E+01 0.  1.
        -13    1    6    6    0    0  0.13426203083E+02 -0.40084551129E+01 -0.12524407910E+02  0.18793681388E+02  0.10500000000E+00 0. -1.
         13    1    6    6    0    0  0.52711148257E+01 -0.15159488294E+01 -0.49132825388E+01  0.73643820287E+01  0.10500000000E+00 0.  1.
</event>
<event>
11    0  0.3485800E-009  0.9118800E+02  0.7816531E-02  0.1126479E+00
         25   -1    0    0    0    0  0.00000000000E+00  0.00000000000E+00  0.99999998245E-14  0.12500000000E+03  0.12500000000E+03 0.  0.
    3000001    1    3    3    0    0  0.26666561518E+01  0.32689891443E+01  0.10539535801E+00  0.43368713653E+01  0.10000000000E+01 0.  1.
    1000022    2    1    0    0    0  0.58361766422E+02  0.19772287273E+02  0.30350041472E+01  0.62499997691E+02  0.99999668671E+01 0.  0.
    3000022    2    3    3    0    0  0.55695110270E+02  0.16503298129E+02  0.29296087892E+01  0.58163126326E+02  0.24999846812E+00 0.  0.
    1000022    2    1    0    0    0 -0.58361766422E+02 -0.19772287273E+02 -0.30350041472E+01  0.62500002309E+02  0.99999957250E+01 0.  0.
    3000022    2    5    5    0    0 -0.23374032639E+01 -0.27174630210E+01 -0.15410656890E+01  0.39096605307E+01  0.25000543733E+00 0.  0.
        -13    1    4    4    0    0  0.20961076537E+02  0.61587985259E+01  0.10682074313E+01  0.21873491285E+02  0.10500000000E+00 0.  1.
         13    1    4    4    0    0  0.34734033733E+02  0.10344499603E+02  0.18614013579E+01  0.36289635041E+02  0.10500000000E+00 0. -1.
    3000001    1    5    5    0    0 -0.56024363158E+02 -0.17054824252E+02 -0.14939384582E+01  0.58590341778E+02  0.10000000000E+01 0. -1.
        -13    1    6    6    0    0 -0.15601476189E+01 -0.18859735140E+01 -0.10316000061E+01  0.26582287826E+01  0.10500000000E+00 0.  1.
         13    1    6    6    0    0 -0.77725564501E+00 -0.83148950705E+00 -0.50946568287E+00  0.12514317481E+01  0.10500000000E+00 0. -1.
</event>
<event>
11    0  0.3485800E-009  0.9118800E+02  0.7816531E-02  0.1126479E+00
         25   -1    0    0    0    0  0.00000000000E+00  0.00000000000E+00  0.99999998245E-14  0.12500000000E+03  0.12500000000E+03 0.  0.
    3000001    1    3    3    0    0  0.65460048512E+01  0.57116906411E+01  0.62789300056E+01  0.10765618956E+02  0.10000000000E+01 0. -1.
    1000022    2    1    0    0    0  0.34825047427E+02  0.46683448559E+02  0.20349980364E+02  0.62499999779E+02  0.99999986949E+01 0.  0.
    3000022    2    3    3    0    0  0.28279042576E+02  0.40971757917E+02  0.14071050358E+02  0.51734380823E+02  0.25001010960E+00 0.  0.
    1000022    2    1    0    0    0 -0.34825047427E+02 -0.46683448559E+02 -0.20349980364E+02  0.62500000221E+02  0.10000001461E+02 0.  0.
    3000022    2    5    5    0    0 -0.31351398649E+02 -0.39727308563E+02 -0.14277853889E+02  0.52584111991E+02  0.24995853926E+00 0.  0.
        -13    1    4    4    0    0  0.18974702008E+02  0.27415857092E+02  0.93915182150E+01  0.34639286594E+02  0.10500000000E+00 0. -1.
         13    1    4    4    0    0  0.93043405685E+01  0.13555900825E+02  0.46795321434E+01  0.17095094228E+02  0.10500000000E+00 0.  1.
    3000001    1    5    5    0    0 -0.34736487780E+01 -0.69561399959E+01 -0.60721264748E+01  0.99158882306E+01  0.10000000000E+01 0. -1.
        -13    1    6    6    0    0 -0.14606229077E+02 -0.18464826135E+02 -0.67061768490E+01  0.24480105494E+02  0.10500000000E+00 0.  1.
         13    1    6    6    0    0 -0.16745169572E+02 -0.21262482428E+02 -0.75716770402E+01  0.28104006497E+02  0.10500000000E+00 0. -1.
</event>
<event>
11    0  0.3485800E-009  0.9118800E+02  0.7816531E-02  0.1126479E+00
         25   -1    0    0    0    0  0.00000000000E+00  0.00000000000E+00  0.99999998245E-14  0.12500000000E+03  0.12500000000E+03 0.  0.
    3000001    1    3    3    0    0 -0.12942214621E+02 -0.32112233245E+02 -0.33434599700E+02  0.48141135221E+02  0.10000000000E+01 0.  1.
    1000022    2    1    0    0    0 -0.15030787405E+02 -0.37627715481E+02 -0.46523985927E+02  0.62500007583E+02  0.10000006946E+02 0.  0.
    3000022    2    3    3    0    0 -0.20885727838E+01 -0.55154822361E+01 -0.13089386227E+02  0.14358872361E+02  0.25000623432E+00 0.  0.
    1000022    2    1    0    0    0  0.15030787405E+02  0.37627715481E+02  0.46523985927E+02  0.62499992417E+02  0.99999121614E+01 0.  0.
    3000022    2    5    5    0    0  0.64741817313E+01  0.28296641934E+02  0.32841848023E+02  0.43832230585E+02  0.24996529006E+00 0.  0.
        -13    1    4    4    0    0 -0.91945294196E+00 -0.22475784360E+01 -0.54024578316E+01  0.59240677039E+01  0.10500000000E+00 0. -1.
         13    1    4    4    0    0 -0.11691198418E+01 -0.32679038001E+01 -0.76869283955E+01  0.84348046574E+01  0.10500000000E+00 0.  1.
    3000001    1    5    5    0    0  0.85566056738E+01  0.93310735477E+01  0.13682137904E+02  0.18667761832E+02  0.10000000000E+01 0. -1.
        -13    1    6    6    0    0  0.32248610040E+01  0.14398151181E+02  0.16687337243E+02  0.22275204492E+02  0.10500000000E+00 0.  1.
         13    1    6    6    0    0  0.32493207273E+01  0.13898490753E+02  0.16154510781E+02  0.21557026093E+02  0.10500000000E+00 0. -1.
</event>
<event>
11    0  0.3485800E-009  0.9118800E+02  0.7816531E-02  0.1126479E+00
         25   -1    0    0    0    0  0.00000000000E+00  0.00000000000E+00  0.99999998245E-14  0.12500000000E+03  0.12500000000E+03 0.  0.
    3000001    1    3    3    0    0 -0.20598754071E+02 -0.32365408943E+02 -0.26980653623E+02  0.46912514698E+02  0.10000000000E+01 0. -1.
    1000022    2    1    0    0    0 -0.32011884898E+02 -0.40176053913E+02 -0.34166853227E+02  0.62500000237E+02  0.10000004371E+02 0.  0.
    3000022    2    3    3    0    0 -0.11413130827E+02 -0.78106449698E+01 -0.71861996039E+01  0.15587485539E+02  0.25002113226E+00 0.  0.
    1000022    2    1    0    0    0  0.32011884898E+02  0.40176053913E+02  0.34166853227E+02  0.62499999763E+02  0.10000001410E+02 0.  0.
    3000022    2    5    5    0    0  0.15293745334E+02  0.18524093272E+02  0.10131723760E+02  0.26072111565E+02  0.24999443677E+00 0.  0.
        -13    1    4    4    0    0 -0.46119038993E+01 -0.31030892887E+01 -0.28370883300E+01  0.62417077713E+01  0.10500000000E+00 0.  1.
         13    1    4    4    0    0 -0.68012269276E+01 -0.47075556811E+01 -0.43491112739E+01  0.93457777678E+01  0.10500000000E+00 0. -1.
    3000001    1    5    5    0    0  0.16718139564E+02  0.21651960641E+02  0.24035129467E+02  0.36427888198E+02  0.10000000000E+01 0.  1.
        -13    1    6    6    0    0  0.66466418427E+01  0.79717859003E+01  0.44236921996E+01  0.11283053483E+02  0.10500000000E+00 0. -1.
         13    1    6    6    0    0  0.86471034912E+01  0.10552307372E+02  0.57080315608E+01  0.14789058082E+02  0.10500000000E+00 0.  1.
</event>
<event>
11    0  0.3485800E-009  0.9118800E+02  0.7816531E-02  0.1126479E+00
         25   -1    0    0    0    0  0.00000000000E+00  0.00000000000E+00  0.99999998245E-14  0.12500000000E+03  0.12500000000E+03 0.  0.
    3000001    1    3    3    0    0  0.84065762197E-01  0.42233558582E+01  0.25978058816E+01  0.50588928785E+01  0.10000000000E+01 0. -1.
    1000022    2    1    0    0    0 -0.24759029219E+02  0.54711725588E+02  0.14137450898E+02  0.62499999715E+02  0.10000000096E+02 0.  0.
    3000022    2    3    3    0    0 -0.24843094981E+02  0.50488369729E+02  0.11539645016E+02  0.57441106837E+02  0.25000279473E+00 0.  0.
    1000022    2    1    0    0    0  0.24759029219E+02 -0.54711725588E+02 -0.14137450898E+02  0.62500000285E+02  0.10000003654E+02 0.  0.
    3000022    2    5    5    0    0  0.48248503011E+01 -0.76194114079E+01 -0.56717297514E+01  0.10656717417E+02  0.24999422682E+00 0.  0.
        -13    1    4    4    0    0 -0.83639264532E+01  0.17115660098E+02  0.38900084570E+01  0.19443360746E+02  0.10500000000E+00 0.  1.
         13    1    4    4    0    0 -0.16479168528E+02  0.33372709632E+02  0.76496365589E+01  0.37997746091E+02  0.10500000000E+00 0. -1.
    3000001    1    5    5    0    0  0.19934178918E+02 -0.47092314180E+02 -0.84657211462E+01  0.51843282867E+02  0.10000000000E+01 0.  1.
        -13    1    6    6    0    0  0.35143987591E+01 -0.54857268659E+01 -0.41176528427E+01  0.77078069396E+01  0.10500000000E+00 0.  1.
         13    1    6    6    0    0  0.13104515419E+01 -0.21336845420E+01 -0.15540769088E+01  0.29489104779E+01  0.10500000000E+00 0. -1.
</event>
<event>
11    0  0.3485800E-009  0.9118800E+02  0.7816531E-02  0.1126479E+00
         25   -1    0    0    0    0  0.00000000000E+00  0.00000000000E+00  0.99999998245E-14  0.12500000000E+03  0.12500000000E+03 0.  0.
    3000001    1    3    3    0    0  0.14034335857E+02  0.84755574922E+00 -0.38979624782E+02  0.41449874329E+02  0.10000000000E+01 0. -1.
    1000022    2    1    0    0    0  0.27019713028E+02  0.32750415741E+01 -0.55366589666E+02  0.62500000795E+02  0.10000002941E+02 0.  0.
    3000022    2    3    3    0    0  0.12985377170E+02  0.24274858248E+01 -0.16386964884E+02  0.21050126467E+02  0.24999698722E+00 0.  0.
    1000022    2    1    0    0    0 -0.27019713028E+02 -0.32750415741E+01  0.55366589666E+02  0.62499999205E+02  0.99999929980E+01 0.  0.
    3000022    2    5    5    0    0 -0.24066300962E+02 -0.43167762786E+00  0.51167502875E+02  0.56546874711E+02  0.25000311560E+00 0.  0.
        -13    1    4    4    0    0  0.76602637190E+01  0.13668445059E+01 -0.96535426743E+01  0.12399589320E+02  0.10500000000E+00 0.  1.
         13    1    4    4    0    0  0.53251134512E+01  0.10606413190E+01 -0.67334222092E+01  0.86505371465E+01  0.10500000000E+00 0. -1.
    3000001    1    5    5    0    0 -0.29534120657E+01 -0.28433639462E+01  0.41990867907E+01  0.59531244936E+01  0.10000000000E+01 0. -1.
        -13    1    6    6    0    0 -0.95427729821E+01 -0.19855636584E+00  0.20158056084E+02  0.22303860449E+02  0.10500000000E+00 0. -1.
         13    1    6    6    0    0 -0.14523527980E+02 -0.23312126202E+00  0.31009446791E+02  0.34243014262E+02  0.10500000000E+00 0.  1.
</event>
<event>
11    0  0.3485800E-009  0.9118800E+02  0.7816531E-02  0.1126479E+00
         25   -1    0    0    0    0  0.00000000000E+00  0.00000000000E+00  0.99999998245E-14  0.12500000000E+03  0.12500000000E+03 0.  0.
    3000001    1    3    3    0    0 -0.10058248060E+02 -0.53360921207E+02 -0.98441164134E+01  0.55194772344E+02  0.10000000000E+01 0.  1.
    1000022    2    1    0    0    0 -0.95048059671E+01 -0.59324088289E+02 -0.14020018571E+02  0.62499997916E+02  0.10000001547E+02 0.  0.
    3000022    2    3    3    0    0  0.55344209297E+00 -0.59631670819E+01 -0.41759021571E+01  0.73052255720E+01  0.25000407063E+00 0.  0.
    1000022    2    1    0    0    0  0.95048059671E+01  0.59324088289E+02  0.14020018571E+02  0.62500002084E+02  0.10000027599E+02 0.  0.
    3000022    2    5    5    0    0  0.40041934280E+01  0.11515270306E+02  0.63816824437E+01  0.13763116730E+02  0.24999215325E+00 0.  0.
        -13    1    4    4    0    0  0.23691485710E+00 -0.31373343623E+01 -0.22427184132E+01  0.38652045782E+01  0.10500000000E+00 0. -1.
         13    1    4    4    0    0  0.31652723587E+00 -0.28258327196E+01 -0.19331837439E+01  0.34400209938E+01  0.10500000000E+00 0.  1.
    3000001    1    5    5    0    0  0.55006125391E+01  0.47808817983E+02  0.76383361269E+01  0.48736885354E+02  0.10000000000E+01 0.  1.
        -13    1    6    6    0    0  0.22010881746E+01  0.64260973919E+01  0.34896143876E+01  0.76372737556E+01  0.10500000000E+00 0.  1.
         13    1    6    6    0    0  0.18031052534E+01  0.50891729143E+01  0.28920680561E+01  0.61258429744E+01  0.10500000000E+00 0. -1.
</event>
<event>
11    0  0.3485800E-009  0.9118800E+02  0.7816531E-02  0.1126479E+00
         25   -1    0    0    0    0  0.00000000000E+00  0.00000000000E+00  0.99999998245E-14  0.12500000000E+03  0.12500000000E+03 0.  0.
    3000001    1    3    3    0    0  0.20510389365E+02  0.16753723464E+02  0.42333457014E+02  0.49944818596E+02  0.10000000000E+01 0.  1.
    1000022    2    1    0    0    0  0.28726282233E+02  0.17219651318E+02  0.51812493129E+02  0.62500000873E+02  0.99999991210E+01 0.  0.
    3000022    2    3    3    0    0  0.82158928681E+01  0.46592785403E+00  0.94790361150E+01  0.12555182277E+02  0.24998391197E+00 0.  0.
    1000022    2    1    0    0    0 -0.28726282233E+02 -0.17219651318E+02 -0.51812493129E+02  0.62499999127E+02  0.99999882105E+01 0.  0.
    3000022    2    5    5    0    0 -0.93374529574E+01 -0.39058040697E+01 -0.24087898599E+02  0.26129154057E+02  0.24999937257E+00 0.  0.
        -13    1    4    4    0    0  0.31020455604E+01  0.22527332296E+00  0.36369359537E+01  0.47866233255E+01  0.10500000000E+00 0. -1.
         13    1    4    4    0    0  0.51138473077E+01  0.24065453107E+00  0.58421001613E+01  0.77685589516E+01  0.10500000000E+00 0.  1.
    3000001    1    5    5    0    0 -0.19388829275E+02 -0.13313847248E+02 -0.27724594530E+02  0.36370845070E+02  0.10000000000E+01 0. -1.
        -13    1    6    6    0    0 -0.60275911601E+01 -0.24986086335E+01 -0.15664330639E+02  0.16969301095E+02  0.10500000000E+00 0. -1.
         13    1    6    6    0    0 -0.33098617973E+01 -0.14071954362E+01 -0.84235679601E+01  0.91598529623E+01  0.10500000000E+00 0.  1.
</event>
<event>
11    0  0.3485800E-009  0.9118800E+02  0.7816531E-02  0.1126479E+00
         25   -1    0    0    0    0  0.00000000000E+00  0.00000000000E+00  0.99999998245E-14  0.12500000000E+03  0.12500000000E+03 0.  0.
    3000001    1    3    3    0    0  0.26983707121E+01 -0.75593968268E+00 -0.14804295852E+02  0.15100325327E+02  0.10000000000E+01 0. -1.
    1000022    2    1    0    0    0 -0.61386643785E+01 -0.41808719911E+01 -0.61246121038E+02  0.62499998064E+02  0.99999762439E+01 0.  0.
    3000022    2    3    3    0    0 -0.88370350906E+01 -0.34249323084E+01 -0.46441825186E+02  0.47399672738E+02  0.24999699428E+00 0.  0.
    1000022    2    1    0    0    0  0.61386643785E+01  0.41808719911E+01  0.61246121038E+02  0.62500001936E+02  0.10000000438E+02 0.  0.
    3000022    2    5    5    0    0  0.24381175665E+00  0.86610831586E+00  0.43079434026E+02  0.43089554680E+02  0.24999748685E+00 0.  0.
        -13    1    4    4    0    0 -0.45930373951E+01 -0.17106707233E+01 -0.23915845727E+02  0.24413133529E+02  0.10500000000E+00 0.  1.
         13    1    4    4    0    0 -0.42439976955E+01 -0.17142615851E+01 -0.22525979459E+02  0.22986539209E+02  0.10500000000E+00 0. -1.
    3000001    1    5    5    0    0  0.58948526218E+01  0.33147636752E+01  0.18166687013E+02  0.19410447256E+02  0.10000000000E+01 0. -1.
        -13    1    6    6    0    0  0.73172542658E-01  0.46775259684E+00  0.24163396093E+02  0.24168261884E+02  0.10500000000E+00 0. -1.
         13    1    6    6    0    0  0.17063921399E+00  0.39835571902E+00  0.18916037932E+02  0.18921292796E+02  0.10500000000E+00 0.  1.
</event>
<event>
11    0  0.3485800E-009  0.9118800E+02  0.7816531E-02  0.1126479E+00
         25   -1    0    0    0    0  0.00000000000E+00  0.00000000000E+00  0.99999998245E-14  0.12500000000E+03  0.12500000000E+03 0.  0.
    3000001    1    3    3    0    0 -0.22960190784E+01  0.10139510748E+02  0.34811408203E+02  0.36344401535E+02  0.10000000000E+01 0.  1.
    1000022    2    1    0    0    0 -0.11122129357E+02  0.20764569963E+02  0.57020880940E+02  0.62499999140E+02  0.99999951077E+01 0.  0.
    3000022    2    3    3    0    0 -0.88261102782E+01  0.10625059215E+02  0.22209472737E+02  0.26155597606E+02  0.25000176900E+00 0.  0.
    1000022    2    1    0    0    0  0.11122129357E+02 -0.20764569963E+02 -0.57020880940E+02  0.62500000860E+02  0.10000005852E+02 0.  0.
    3000022    2    5    5    0    0  0.97268152630E+01 -0.16555679347E+02 -0.34123562706E+02  0.39155861467E+02  0.25000338293E+00 0.  0.
        -13    1    4    4    0    0 -0.37669021414E+01  0.46131185237E+01  0.94961746902E+01  0.11209762397E+02  0.10500000000E+00 0. -1.
         13    1    4    4    0    0 -0.50592081367E+01  0.60119406916E+01  0.12713298047E+02  0.14945835208E+02  0.10500000000E+00 0.  1.
    3000001    1    5    5    0    0  0.13953140935E+01 -0.42088906161E+01 -0.22897318235E+02  0.23344139392E+02  0.10000000000E+01 0. -1.
        -13    1    6    6    0    0  0.38896949589E+01 -0.65999441084E+01 -0.13488286447E+02  0.15512378456E+02  0.10500000000E+00 0. -1.
         13    1    6    6    0    0  0.58371203042E+01 -0.99557352389E+01 -0.20635276259E+02  0.23643483011E+02  0.10500000000E+00 0.  1.
</event>
<event>
11    0  0.3485800E-009  0.9118800E+02  0.7816531E-02  0.1126479E+00
         25   -1    0    0    0    0  0.00000000000E+00  0.00000000000E+00  0.99999998245E-14  0.12500000000E+03  0.12500000000E+03 0.  0.
    3000001    1    3    3    0    0 -0.43000431065E+02 -0.51099980165E+01 -0.31527764584E+02  0.53573772419E+02  0.10000000000E+01 0. -1.
    1000022    2    1    0    0    0 -0.47251577459E+02 -0.78219927749E+01 -0.38889006484E+02  0.62500000308E+02  0.10000003489E+02 0.  0.
    3000022    2    3    3    0    0 -0.42511463940E+01 -0.27119947583E+01 -0.73612419009E+01  0.89262278892E+01  0.25000154953E+00 0.  0.
    1000022    2    1    0    0    0  0.47251577459E+02  0.78219927749E+01  0.38889006484E+02  0.62499999692E+02  0.99999996396E+01 0.  0.
    3000022    2    5    5    0    0  0.22113556029E+02  0.85913868977E+01  0.20011065473E+02  0.31037502245E+02  0.25003037831E+00 0.  0.
        -13    1    4    4    0    0 -0.21843908284E+01 -0.13430796833E+01 -0.38360590382E+01  0.46153873371E+01  0.10500000000E+00 0. -1.
         13    1    4    4    0    0 -0.20667555655E+01 -0.13689150750E+01 -0.35251828627E+01  0.43108405521E+01  0.10500000000E+00 0.  1.
    3000001    1    5    5    0    0  0.25138021431E+02 -0.76939412288E+00  0.18877941011E+02  0.31462497447E+02  0.10000000000E+01 0. -1.
        -13    1    6    6    0    0  0.94922312030E+01  0.36611601794E+01  0.86609797388E+01  0.13361517208E+02  0.10500000000E+00 0. -1.
         13    1    6    6    0    0  0.12621324826E+02  0.49302267184E+01  0.11350085735E+02  0.17675985037E+02  0.10500000000E+00 0.  1.
</event>
<event>
11    0  0.3485800E-009  0.9118800E+02  0.7816531E-02  0.1126479E+00
         25   -1    0    0    0    0  0.00000000000E+00  0.00000000000E+00  0.99999998245E-14  0.12500000000E+03  0.12500000000E+03 0.  0.
    3000001    1    3    3    0    0 -0.22193888723E+02 -0.22392586528E+02 -0.12123219931E+02  0.33793033151E+02  0.10000000000E+01 0.  1.
    1000022    2    1    0    0    0 -0.46559669034E+02 -0.34180941033E+02 -0.21682046318E+02  0.62500004698E+02  0.99999972107E+01 0.  0.
    3000022    2    3    3    0    0 -0.24365780311E+02 -0.11788354505E+02 -0.95588263873E+01  0.28706971547E+02  0.25000276527E+00 0.  0.
    1000022    2    1    0    0    0  0.46559669034E+02  0.34180941033E+02  0.21682046318E+02  0.62499995302E+02  0.99999384898E+01 0.  0.
    3000022    2    5    5    0    0  0.23336487828E+02  0.23033639670E+02  0.10869790542E+02  0.34544971640E+02  0.24999715607E+00 0.  0.
        -13    1    4    4    0    0 -0.17176983826E+02 -0.82810413764E+01 -0.66958499395E+01  0.20210637077E+02  0.10500000000E+00 0.  1.
         13    1    4    4    0    0 -0.71887964841E+01 -0.35073131291E+01 -0.28629764478E+01  0.84963344694E+01  0.10500000000E+00 0. -1.
    3000001    1    5    5    0    0  0.23223181206E+02  0.11147301363E+02  0.10812255776E+02  0.27955023662E+02  0.10000000000E+01 0.  1.
        -13    1    6    6    0    0  0.10859366723E+02  0.10684384593E+02  0.51163013579E+01  0.16070764896E+02  0.10500000000E+00 0. -1.
         13    1    6    6    0    0  0.12477121105E+02  0.12349255077E+02  0.57534891844E+01  0.18474206744E+02  0.10500000000E+00 0.  1.
</event>
<event>
11    0  0.3485800E-009  0.9118800E+02  0.7816531E-02  0.1126479E+00
         25   -1    0    0    0    0  0.00000000000E+00  0.00000000000E+00  0.99999998245E-14  0.12500000000E+03  0.12500000000E+03 0.  0.
    3000001    1    3    3    0    0 -0.33862738274E+02 -0.95086251813E+01 -0.37637328743E+01  0.35387351998E+02  0.10000000000E+01 0.  1.
    1000022    2    1    0    0    0 -0.59707055083E+02 -0.99321059769E+01 -0.11944501942E+02  0.62499997317E+02  0.99999691027E+01 0.  0.
    3000022    2    3    3    0    0 -0.25844316809E+02 -0.42348079562E+00 -0.81807690678E+01  0.27112645319E+02  0.25001264364E+00 0.  0.
    1000022    2    1    0    0    0  0.59707055083E+02  0.99321059769E+01  0.11944501942E+02  0.62500002683E+02  0.10000002645E+02 0.  0.
    3000022    2    5    5    0    0  0.52248635469E+02  0.10396909496E+02  0.76411431265E+01  0.53818818286E+02  0.24999581758E+00 0.  0.
        -13    1    4    4    0    0 -0.19760802181E+02 -0.31095031356E+00 -0.62466509500E+01  0.20727220413E+02  0.10500000000E+00 0.  1.
         13    1    4    4    0    0 -0.60835146279E+01 -0.11253048206E+00 -0.19341181178E+01  0.63854249061E+01  0.10500000000E+00 0. -1.
    3000001    1    5    5    0    0  0.74584196141E+01 -0.46480351910E+00  0.43033588156E+01  0.86811843977E+01  0.10000000000E+01 0.  1.
        -13    1    6    6    0    0  0.18203980400E+02  0.36389402249E+01  0.27171577107E+01  0.18762216270E+02  0.10500000000E+00 0. -1.
         13    1    6    6    0    0  0.34044655070E+02  0.67579692711E+01  0.49239854158E+01  0.35056602015E+02  0.10500000000E+00 0.  1.
</event>
<event>
11    0  0.3485800E-009  0.9118800E+02  0.7816531E-02  0.1126479E+00
         25   -1    0    0    0    0  0.00000000000E+00  0.00000000000E+00  0.99999998245E-14  0.12500000000E+03  0.12500000000E+03 0.  0.
    3000001    1    3    3    0    0  0.88286354188E+00  0.12988194395E+01  0.33625546843E+01  0.38435860827E+01  0.10000000000E+01 0.  1.
    1000022    2    1    0    0    0  0.17299787502E+02  0.49266442918E+02  0.32860082737E+02  0.62500000645E+02  0.99999998816E+01 0.  0.
    3000022    2    3    3    0    0  0.16416923960E+02  0.47967623479E+02  0.29497528053E+02  0.58656414562E+02  0.25002700385E+00 0.  0.
    1000022    2    1    0    0    0 -0.17299787502E+02 -0.49266442918E+02 -0.32860082737E+02  0.62499999355E+02  0.99999918226E+01 0.  0.
    3000022    2    5    5    0    0 -0.89544477201E+01 -0.21987281462E+02 -0.20602463631E+02  0.31434800627E+02  0.25000551792E+00 0.  0.
        -13    1    4    4    0    0  0.91042931903E+01  0.26409822388E+02  0.16224671116E+02  0.32305074693E+02  0.10500000000E+00 0.  1.
         13    1    4    4    0    0  0.73126307700E+01  0.21557801091E+02  0.13272856937E+02  0.26351339869E+02  0.10500000000E+00 0. -1.
    3000001    1    5    5    0    0 -0.83453397821E+01 -0.27279161457E+02 -0.12257619107E+02  0.31065198728E+02  0.10000000000E+01 0.  1.
        -13    1    6    6    0    0 -0.34756861599E+01 -0.84921937060E+01 -0.80420191834E+01  0.12201755848E+02  0.10500000000E+00 0.  1.
         13    1    6    6    0    0 -0.54787615602E+01 -0.13495087756E+02 -0.12560444447E+02  0.19233044779E+02  0.10500000000E+00 0. -1.
</event>
<event>
11    0  0.3485800E-009  0.9118800E+02  0.7816531E-02  0.1126479E+00
         25   -1    0    0    0    0  0.00000000000E+00  0.00000000000E+00  0.99999998245E-14  0.12500000000E+03  0.12500000000E+03 0.  0.
    3000001    1    3    3    0    0 -0.24041326042E+00 -0.16799471949E+00  0.15519128188E+01  0.18693459173E+01  0.10000000000E+01 0. -1.
    1000022    2    1    0    0    0 -0.48809691539E+02 -0.17791876351E+02  0.33276316758E+02  0.62500000702E+02  0.99999989242E+01 0.  0.
    3000022    2    3    3    0    0 -0.48569278279E+02 -0.17623881631E+02  0.31724403940E+02  0.60630654784E+02  0.24999598695E+00 0.  0.
    1000022    2    1    0    0    0  0.48809691539E+02  0.17791876351E+02 -0.33276316758E+02  0.62499999298E+02  0.99999901522E+01 0.  0.
    3000022    2    5    5    0    0  0.15355541474E+02  0.32703427680E+01 -0.54681560093E+01  0.16626816518E+02  0.25000317263E+00 0.  0.
        -13    1    4    4    0    0 -0.18899951134E+02 -0.67923230466E+01  0.12334675468E+02  0.23569027327E+02  0.10500000000E+00 0. -1.
         13    1    4    4    0    0 -0.29669327145E+02 -0.10831558584E+02  0.19389728472E+02  0.37061627457E+02  0.10500000000E+00 0.  1.
    3000001    1    5    5    0    0  0.33454150065E+02  0.14521533583E+02 -0.27808160749E+02  0.45873182780E+02  0.10000000000E+01 0.  1.
        -13    1    6    6    0    0  0.10047261518E+02  0.21724474628E+01 -0.35316582035E+01  0.10869711434E+02  0.10500000000E+00 0.  1.
         13    1    6    6    0    0  0.53082799563E+01  0.10978953052E+01 -0.19364978058E+01  0.57571050839E+01  0.10500000000E+00 0. -1.
</event>
<event>
11    0  0.3485800E-009  0.9118800E+02  0.7816531E-02  0.1126479E+00
         25   -1    0    0    0    0  0.00000000000E+00  0.00000000000E+00  0.99999998245E-14  0.12500000000E+03  0.12500000000E+03 0.  0.
    3000001    1    3    3    0    0  0.15081048958E+02 -0.37634086341E+01 -0.84198953668E+01  0.17705816000E+02  0.10000000000E+01 0.  1.
    1000022    2    1    0    0    0  0.43359057447E+02 -0.13324952307E+02 -0.41817313170E+02  0.62499999777E+02  0.10000003737E+02 0.  0.
    3000022    2    3    3    0    0  0.28278008488E+02 -0.95615436730E+01 -0.33397417803E+02  0.44794183778E+02  0.25000575778E+00 0.  0.
    1000022    2    1    0    0    0 -0.43359057447E+02  0.13324952307E+02  0.41817313170E+02  0.62500000223E+02  0.10000006520E+02 0.  0.
    3000022    2    5    5    0    0 -0.29765279065E+02  0.87693028148E+01  0.22080924391E+02  0.38085459575E+02  0.24999881204E+00 0.  0.
        -13    1    4    4    0    0  0.11097138267E+02 -0.37188630146E+01 -0.13174873693E+02  0.17622847150E+02  0.10500000000E+00 0.  1.
         13    1    4    4    0    0  0.17180870221E+02 -0.58426806584E+01 -0.20222544110E+02  0.27171336627E+02  0.10500000000E+00 0. -1.
    3000001    1    5    5    0    0 -0.13593778382E+02  0.45556494923E+01  0.19736388779E+02  0.24414540647E+02  0.10000000000E+01 0.  1.
        -13    1    6    6    0    0 -0.16898123525E+02  0.50446497716E+01  0.12569187690E+02  0.21656190205E+02  0.10500000000E+00 0.  1.
         13    1    6    6    0    0 -0.12867155540E+02  0.37246530433E+01  0.95117367011E+01  0.16429269371E+02  0.10500000000E+00 0. -1.
</event>
<event>
11    0  0.3485800E-009  0.9118800E+02  0.7816531E-02  0.1126479E+00
         25   -1    0    0    0    0  0.00000000000E+00  0.00000000000E+00  0.99999998245E-14  0.12500000000E+03  0.12500000000E+03 0.  0.
    3000001    1    3    3    0    0  0.20149488473E+02  0.19873465264E+01  0.12265982271E+02  0.23694002469E+02  0.10000000000E+01 0. -1.
    1000022    2    1    0    0    0  0.53765627486E+02 -0.70202937263E+01  0.29431660014E+02  0.62499999032E+02  0.10000002239E+02 0.  0.
    3000022    2    3    3    0    0  0.33616139013E+02 -0.90076402527E+01  0.17165677744E+02  0.38805996563E+02  0.24998350179E+00 0.  0.
    1000022    2    1    0    0    0 -0.53765627486E+02  0.70202937263E+01 -0.29431660014E+02  0.62500000968E+02  0.10000014341E+02 0.  0.
    3000022    2    5    5    0    0 -0.51168947721E+02  0.44918803382E+01 -0.27725295604E+02  0.58371163412E+02  0.25000379049E+00 0.  0.
        -13    1    4    4    0    0  0.12382960079E+02 -0.33786760732E+01  0.63420616738E+01  0.14317329486E+02  0.10500000000E+00 0. -1.
         13    1    4    4    0    0  0.21233178934E+02 -0.56289641795E+01  0.10823616070E+02  0.24488667077E+02  0.10500000000E+00 0.  1.
    3000001    1    5    5    0    0 -0.25966797656E+01  0.25284133881E+01 -0.17063644109E+01  0.41288375566E+01  0.10000000000E+01 0. -1.
        -13    1    6    6    0    0 -0.30630735652E+02  0.26261967682E+01 -0.16604591410E+02  0.34940840816E+02  0.10500000000E+00 0.  1.
         13    1    6    6    0    0 -0.20538212069E+02  0.18656835701E+01 -0.11120704194E+02  0.23430322596E+02  0.10500000000E+00 0. -1.
</event>
<event>
11    0  0.3485800E-009  0.9118800E+02  0.7816531E-02  0.1126479E+00
         25   -1    0    0    0    0  0.00000000000E+00  0.00000000000E+00  0.99999998245E-14  0.12500000000E+03  0.12500000000E+03 0.  0.
    3000001    1    3    3    0    0  0.72921561688E+01  0.56823368970E+02  0.19194512310E+02  0.60427643554E+02  0.10000000000E+01 0.  1.
    1000022    2    1    0    0    0  0.90572335045E+01  0.57774684491E+02  0.19654574081E+02  0.62499999805E+02  0.10000002329E+02 0.  0.
    3000022    2    3    3    0    0  0.17650773357E+01  0.95131552094E+00  0.46006177132E+00  0.20723562513E+01  0.25000875511E+00 0.  0.
    1000022    2    1    0    0    0 -0.90572335045E+01 -0.57774684491E+02 -0.19654574081E+02  0.62500000195E+02  0.10000004763E+02 0.  0.
    3000022    2    5    5    0    0 -0.36096687035E+01 -0.45696984947E+02 -0.17355298174E+02  0.49015436493E+02  0.24999698827E+00 0.  0.
        -13    1    4    4    0    0  0.40890939659E+00  0.21484985709E+00  0.97501834466E-01  0.48363101993E+00  0.10500000000E+00 0.  1.
         13    1    4    4    0    0  0.13561679391E+01  0.73646566385E+00  0.36255993685E+00  0.15887252314E+01  0.10500000000E+00 0. -1.
    3000001    1    5    5    0    0 -0.54475648010E+01 -0.12077699544E+02 -0.22992759078E+01  0.13484563702E+02  0.10000000000E+01 0. -1.
        -13    1    6    6    0    0 -0.16448445101E+01 -0.20113503907E+02 -0.76027582992E+01  0.21565516726E+02  0.10500000000E+00 0. -1.
         13    1    6    6    0    0 -0.19648241934E+01 -0.25583481040E+02 -0.97525398744E+01  0.27449919767E+02  0.10500000000E+00 0.  1.
</event>
<event>
11    0  0.3485800E-009  0.9118800E+02  0.7816531E-02  0.1126479E+00
         25   -1    0    0    0    0  0.00000000000E+00  0.00000000000E+00  0.99999998245E-14  0.12500000000E+03  0.12500000000E+03 0.  0.
    3000001    1    3    3    0    0 -0.15684347303E+01  0.18502676740E+02 -0.38997058526E+01  0.19000440516E+02  0.10000000000E+01 0. -1.
    1000022    2    1    0    0    0 -0.45345133114E+01  0.61494821578E+02  0.20186579698E+01  0.62499999932E+02  0.10000005987E+02 0.  0.
    3000022    2    3    3    0    0 -0.29660785811E+01  0.42992144837E+02  0.59183638224E+01  0.43499559417E+02  0.24999849995E+00 0.  0.
    1000022    2    1    0    0    0  0.45345133114E+01 -0.61494821578E+02 -0.20186579698E+01  0.62500000068E+02  0.10000006831E+02 0.  0.
    3000022    2    5    5    0    0 -0.92247301715E+00 -0.45483396368E+02 -0.23116609171E+01  0.45552130356E+02  0.25000429719E+00 0.  0.
        -13    1    4    4    0    0 -0.11063787071E+01  0.16184362987E+02  0.22879656149E+01  0.16383024471E+02  0.10500000000E+00 0. -1.
         13    1    4    4    0    0 -0.18596998740E+01  0.26807781850E+02  0.36303982074E+01  0.27116534946E+02  0.10500000000E+00 0.  1.
    3000001    1    5    5    0    0  0.54569863286E+01 -0.16011425209E+02  0.29300294725E+00  0.16947869711E+02  0.10000000000E+01 0. -1.
        -13    1    6    6    0    0 -0.41533224347E+00 -0.17893596575E+02 -0.87562774431E+00  0.17920129692E+02  0.10500000000E+00 0.  1.
         13    1    6    6    0    0 -0.50714077368E+00 -0.27589799794E+02 -0.14360331728E+01  0.27632000664E+02  0.10500000000E+00 0. -1.
</event>
<event>
11    0  0.3485800E-009  0.9118800E+02  0.7816531E-02  0.1126479E+00
         25   -1    0    0    0    0  0.00000000000E+00  0.00000000000E+00  0.99999998245E-14  0.12500000000E+03  0.12500000000E+03 0.  0.
    3000001    1    3    3    0    0 -0.22607523168E+02  0.38548373993E+02 -0.35589280180E+02  0.57137326723E+02  0.10000000000E+01 0. -1.
    1000022    2    1    0    0    0 -0.23926420404E+02  0.43673449910E+02 -0.36419861797E+02  0.62499999488E+02  0.99999891144E+01 0.  0.
    3000022    2    3    3    0    0 -0.13188972358E+01  0.51250759173E+01 -0.83058161782E+00  0.53626727658E+01  0.25000058439E+00 0.  0.
    1000022    2    1    0    0    0  0.23926420404E+02 -0.43673449910E+02  0.36419861797E+02  0.62500000512E+02  0.99999955086E+01 0.  0.
    3000022    2    5    5    0    0  0.64729642739E+01 -0.65760332404E+01  0.33584163271E+01  0.98226749239E+01  0.25000553054E+00 0.  0.
        -13    1    4    4    0    0 -0.39627791014E+00  0.17056623121E+01 -0.30875846128E+00  0.17812009691E+01  0.10500000000E+00 0. -1.
         13    1    4    4    0    0 -0.92261932563E+00  0.34194136052E+01 -0.52182315654E+00  0.35814717966E+01  0.10500000000E+00 0.  1.
    3000001    1    5    5    0    0  0.17453456130E+02 -0.37097416670E+02  0.33061445470E+02  0.52677325588E+02  0.10000000000E+01 0. -1.
        -13    1    6    6    0    0  0.30174840050E+01 -0.29790395295E+01  0.15736621042E+01  0.45240826316E+01  0.10500000000E+00 0. -1.
         13    1    6    6    0    0  0.34554802688E+01 -0.35969937109E+01  0.17847542229E+01  0.52985922923E+01  0.10500000000E+00 0.  1.
</event>
<event>
11    0  0.3485800E-009  0.9118800E+02  0.7816531E-02  0.1126479E+00
         25   -1    0    0    0    0  0.00000000000E+00  0.00000000000E+00  0.99999998245E-14  0.12500000000E+03  0.12500000000E+03 0.  0.
    3000001    1    3    3    0    0 -0.87195050652E+01  0.12340336056E+02  0.82152688400E+01  0.17228009306E+02  0.10000000000E+01 0.  1.
    1000022    2    1    0    0    0 -0.39448834394E+02  0.44672577807E+02  0.15949931422E+02  0.62499999385E+02  0.99999933926E+01 0.  0.
    3000022    2    3    3    0    0 -0.30729329329E+02  0.32332241751E+02  0.77346625825E+01  0.45271990079E+02  0.25008558450E+00 0.  0.
    1000022    2    1    0    0    0  0.39448834394E+02 -0.44672577807E+02 -0.15949931422E+02  0.62500000615E+02  0.10000001074E+02 0.  0.
    3000022    2    5    5    0    0  0.34607782558E+01 -0.11941049275E+01  0.49833836987E+00  0.37032033575E+01  0.25000252488E+00 0.  0.
        -13    1    4    4    0    0 -0.16446719850E+02  0.17379473790E+02  0.41052175634E+01  0.24277655144E+02  0.10500000000E+00 0.  1.
         13    1    4    4    0    0 -0.14282609479E+02  0.14952767961E+02  0.36294450191E+01  0.20994334935E+02  0.10500000000E+00 0. -1.
    3000001    1    5    5    0    0  0.35988056138E+02 -0.43478472879E+02 -0.16448269792E+02  0.58796797257E+02  0.10000000000E+01 0.  1.
        -13    1    6    6    0    0  0.90883109513E+00 -0.29033026094E+00  0.10672593661E+00  0.96575413301E+00  0.10500000000E+00 0.  1.
         13    1    6    6    0    0  0.25519471607E+01 -0.90377466656E+00  0.39161243325E+00  0.27374492245E+01  0.10500000000E+00 0. -1.
</event>
<event>
11    0  0.3485800E-009  0.9118800E+02  0.7816531E-02  0.1126479E+00
         25   -1    0    0    0    0  0.00000000000E+00  0.00000000000E+00  0.99999998245E-14  0.12500000000E+03  0.12500000000E+03 0.  0.
    3000001    1    3    3    0    0  0.18550264391E+01  0.20280402349E+01  0.11880238597E+01  0.31568134211E+01  0.10000000000E+01 0. -1.
    1000022    2    1    0    0    0  0.10563791127E+02  0.32736891397E+02  0.51214767762E+02  0.62499999561E+02  0.99999883421E+01 0.  0.
    3000022    2    3    3    0    0  0.87087646876E+01  0.30708851162E+02  0.50026743903E+02  0.59343186139E+02  0.25002726720E+00 0.  0.
    1000022    2    1    0    0    0 -0.10563791127E+02 -0.32736891397E+02 -0.51214767762E+02  0.62500000439E+02  0.99999938345E+01 0.  0.
    3000022    2    5    5    0    0 -0.54271337427E+01 -0.10416713362E+02 -0.25334330033E+02  0.27925838792E+02  0.24999213921E+00 0.  0.
        -13    1    4    4    0    0  0.34023999034E+01  0.11880725497E+02  0.19270769871E+02  0.22893264509E+02  0.10500000000E+00 0. -1.
         13    1    4    4    0    0  0.53063647842E+01  0.18828125665E+02  0.30755974031E+02  0.36449921631E+02  0.10500000000E+00 0.  1.
    3000001    1    5    5    0    0 -0.51366573840E+01 -0.22320178035E+02 -0.25880437729E+02  0.34574161648E+02  0.10000000000E+01 0.  1.
        -13    1    6    6    0    0 -0.39919532202E+01 -0.76517561056E+01 -0.18532363178E+02  0.20443692719E+02  0.10500000000E+00 0.  1.
         13    1    6    6    0    0 -0.14351805225E+01 -0.27649572563E+01 -0.68019668549E+01  0.74821460729E+01  0.10500000000E+00 0. -1.
</event>
<event>
11    0  0.3485800E-009  0.9118800E+02  0.7816531E-02  0.1126479E+00
         25   -1    0    0    0    0  0.00000000000E+00  0.00000000000E+00  0.99999998245E-14  0.12500000000E+03  0.12500000000E+03 0.  0.
    3000001    1    3    3    0    0  0.22799898948E+02 -0.49081136768E+01 -0.30288129407E+01  0.23539300748E+02  0.10000000000E+01 0.  1.
    1000022    2    1    0    0    0  0.61486660549E+02 -0.48123395603E+01  0.15754220227E+01  0.62500001024E+02  0.10000006793E+02 0.  0.
    3000022    2    3    3    0    0  0.38686761601E+02  0.95774116502E-01  0.46042349633E+01  0.38960700275E+02  0.24998088384E+00 0.  0.
    1000022    2    1    0    0    0 -0.61486660549E+02  0.48123395603E+01 -0.15754220227E+01  0.62499998976E+02  0.99999939977E+01 0.  0.
    3000022    2    5    5    0    0 -0.26387482283E+02  0.67947417505E+01  0.68588840131E+00  0.27258038783E+02  0.24999745161E+00 0.  0.
        -13    1    4    4    0    0  0.10987983357E+02 -0.64588104828E-02  0.12841349493E+01  0.11063265682E+02  0.10500000000E+00 0.  1.
         13    1    4    4    0    0  0.27698778244E+02  0.10223292698E+00  0.33201000140E+01  0.27897434593E+02  0.10500000000E+00 0. -1.
    3000001    1    5    5    0    0 -0.35099178266E+02 -0.19824021902E+01 -0.22613104240E+01  0.35241960193E+02  0.10000000000E+01 0.  1.
        -13    1    6    6    0    0 -0.19539663698E+02  0.50240250110E+01  0.53843449727E+00  0.20182671316E+02  0.10500000000E+00 0.  1.
         13    1    6    6    0    0 -0.68478185854E+01  0.17707167395E+01  0.14745390404E+00  0.70753674677E+01  0.10500000000E+00 0. -1.
</event>
<event>
11    0  0.3485800E-009  0.9118800E+02  0.7816531E-02  0.1126479E+00
         25   -1    0    0    0    0  0.00000000000E+00  0.00000000000E+00  0.99999998245E-14  0.12500000000E+03  0.12500000000E+03 0.  0.
    3000001    1    3    3    0    0 -0.16569615111E+02  0.32912371755E+01  0.19105869488E+02  0.25522904145E+02  0.10000000000E+01 0.  1.
    1000022    2    1    0    0    0 -0.30739984572E+02  0.12069591649E+02  0.52111690819E+02  0.62500000017E+02  0.99999994051E+01 0.  0.
    3000022    2    3    3    0    0 -0.14170369461E+02  0.87783544737E+01  0.33005821331E+02  0.36977095873E+02  0.24999907845E+00 0.  0.
    1000022    2    1    0    0    0  0.30739984572E+02 -0.12069591649E+02 -0.52111690819E+02  0.62499999983E+02  0.99999991870E+01 0.  0.
    3000022    2    5    5    0    0  0.22781304957E+02 -0.82414346057E+01 -0.45037381385E+02  0.51140368759E+02  0.24998976886E+00 0.  0.
        -13    1    4    4    0    0 -0.78388054717E+01  0.49200172264E+01  0.18409054315E+02  0.20604799113E+02  0.10500000000E+00 0. -1.
         13    1    4    4    0    0 -0.63315639890E+01  0.38583372473E+01  0.14596767016E+02  0.16372296759E+02  0.10500000000E+00 0.  1.
    3000001    1    5    5    0    0  0.79586796153E+01 -0.38281570435E+01 -0.70743094337E+01  0.11359631223E+02  0.10000000000E+01 0.  1.
        -13    1    6    6    0    0  0.80960242544E+01 -0.29892767870E+01 -0.16025725537E+02  0.18202095715E+02  0.10500000000E+00 0.  1.
         13    1    6    6    0    0  0.14685280702E+02 -0.52521578187E+01 -0.29011655848E+02  0.32938273044E+02  0.10500000000E+00 0. -1.
</event>
<event>
11    0  0.3485800E-009  0.9118800E+02  0.7816531E-02  0.1126479E+00
         25   -1    0    0    0    0  0.00000000000E+00  0.00000000000E+00  0.99999998245E-14  0.12500000000E+03  0.12500000000E+03 0.  0.
    3000001    1    3    3    0    0  0.25102232707E+02 -0.13721465633E+02 -0.31094575634E+02  0.42264327037E+02  0.10000000000E+01 0.  1.
    1000022    2    1    0    0    0  0.38697165305E+02 -0.24864399447E+02 -0.41116190706E+02  0.62499999516E+02  0.99999919379E+01 0.  0.
    3000022    2    3    3    0    0  0.13594932598E+02 -0.11142933814E+02 -0.10021615072E+02  0.20235672479E+02  0.25001140232E+00 0.  0.
    1000022    2    1    0    0    0 -0.38697165305E+02  0.24864399447E+02  0.41116190706E+02  0.62500000484E+02  0.99999979924E+01 0.  0.
    3000022    2    5    5    0    0 -0.15005711937E+02  0.15087347853E+02  0.21068200599E+02  0.29945467653E+02  0.25000093044E+00 0.  0.
        -13    1    4    4    0    0  0.49336777668E+01 -0.40491842562E+01 -0.37063592827E+01  0.73814086447E+01  0.10500000000E+00 0. -1.
         13    1    4    4    0    0  0.86612548310E+01 -0.70937495573E+01 -0.63152557895E+01  0.12854263834E+02  0.10500000000E+00 0.  1.
    3000001    1    5    5    0    0 -0.23691453368E+02  0.97770515938E+01  0.20047990107E+02  0.32554532832E+02  0.10000000000E+01 0.  1.
        -13    1    6    6    0    0 -0.71764569631E+01  0.71512331934E+01  0.10101294722E+02  0.14306951136E+02  0.10500000000E+00 0. -1.
         13    1    6    6    0    0 -0.78292549737E+01  0.79361146598E+01  0.10966905877E+02  0.15638516517E+02  0.10500000000E+00 0.  1.
</event>
<event>
11    0  0.3485800E-009  0.9118800E+02  0.7816531E-02  0.1126479E+00
         25   -1    0    0    0    0  0.00000000000E+00  0.00000000000E+00  0.99999998245E-14  0.12500000000E+03  0.12500000000E+03 0.  0.
    3000001    1    3    3    0    0 -0.63043744349E+01 -0.13790490415E+02 -0.36434257878E+02  0.39476295545E+02  0.10000000000E+01 0.  1.
    1000022    2    1    0    0    0 -0.17006608817E+02 -0.19591926473E+02 -0.55974829357E+02  0.62499999283E+02  0.10000003120E+02 0.  0.
    3000022    2    3    3    0    0 -0.10702234382E+02 -0.58014360587E+01 -0.19540571480E+02  0.23023703738E+02  0.25003786783E+00 0.  0.
    1000022    2    1    0    0    0  0.17006608817E+02  0.19591926473E+02  0.55974829357E+02  0.62500000717E+02  0.10000012082E+02 0.  0.
    3000022    2    5    5    0    0 -0.45258281154E+00 -0.67649453198E+00  0.77487989455E+00  0.11512706318E+01  0.25001832625E+00 0.  0.
        -13    1    4    4    0    0 -0.76747670820E+01 -0.41732615184E+01 -0.13947397882E+02  0.16457797366E+02  0.10500000000E+00 0.  1.
         13    1    4    4    0    0 -0.30274672997E+01 -0.16281745403E+01 -0.55931735983E+01  0.65659063719E+01  0.10500000000E+00 0. -1.
    3000001    1    5    5    0    0  0.17459191628E+02  0.20268421005E+02  0.55199949463E+02  0.61348730085E+02  0.10000000000E+01 0.  1.
        -13    1    6    6    0    0 -0.27705510153E+00 -0.30393462827E+00  0.42656154100E+00  0.60176036411E+00  0.10500000000E+00 0. -1.
         13    1    6    6    0    0 -0.17552771001E+00 -0.37255990370E+00  0.34831835355E+00  0.54951026765E+00  0.10500000000E+00 0.  1.
</event>
<event>
11    0  0.3485800E-009  0.9118800E+02  0.7816531E-02  0.1126479E+00
         25   -1    0    0    0    0  0.00000000000E+00  0.00000000000E+00  0.99999998245E-14  0.12500000000E+03  0.12500000000E+03 0.  0.
    3000001    1    3    3    0    0  0.34309738785E+01 -0.25955800878E+01 -0.12499646707E+01  0.45903190984E+01  0.10000000000E+01 0.  1.
    1000022    2    1    0    0    0  0.20105672585E+02 -0.50251203805E+02 -0.29611287655E+02  0.62500000354E+02  0.10000006685E+02 0.  0.
    3000022    2    3    3    0    0  0.16674698707E+02 -0.47655623717E+02 -0.28361322984E+02  0.57909681255E+02  0.24998570814E+00 0.  0.
    1000022    2    1    0    0    0 -0.20105672585E+02  0.50251203805E+02  0.29611287655E+02  0.62499999646E+02  0.10000002265E+02 0.  0.
    3000022    2    5    5    0    0 -0.60213785646E+01  0.25058298291E+02  0.17671229772E+02  0.31249162722E+02  0.24999212256E+00 0.  0.
        -13    1    4    4    0    0  0.75575351514E+01 -0.21754055773E+02 -0.12887012759E+02  0.26390176259E+02  0.10500000000E+00 0.  1.
         13    1    4    4    0    0  0.91171635552E+01 -0.25901567944E+02 -0.15474310225E+02  0.31519504996E+02  0.10500000000E+00 0. -1.
    3000001    1    5    5    0    0 -0.14084294021E+02  0.25192905514E+02  0.11940057882E+02  0.31250836925E+02  0.10000000000E+01 0. -1.
        -13    1    6    6    0    0 -0.19095878518E+01  0.80890649528E+01  0.56518996810E+01  0.10051591545E+02  0.10500000000E+00 0.  1.
         13    1    6    6    0    0 -0.41117907128E+01  0.16969233338E+02  0.12019330091E+02  0.21197571177E+02  0.10500000000E+00 0. -1.
</event>
<event>
11    0  0.3485800E-009  0.9118800E+02  0.7816531E-02  0.1126479E+00
         25   -1    0    0    0    0  0.00000000000E+00  0.00000000000E+00  0.99999998245E-14  0.12500000000E+03  0.12500000000E+03 0.  0.
    3000001    1    3    3    0    0 -0.96304129076E+01 -0.34387862793E+02  0.22761916464E+02  0.42360061394E+02  0.10000000000E+01 0. -1.
    1000022    2    1    0    0    0 -0.17395228999E+02 -0.45961992205E+02  0.37298140313E+02  0.62500000441E+02  0.10000003246E+02 0.  0.
    3000022    2    3    3    0    0 -0.77648160919E+01 -0.11574129412E+02  0.14536223850E+02  0.20139939047E+02  0.25000082536E+00 0.  0.
    1000022    2    1    0    0    0  0.17395228999E+02  0.45961992205E+02 -0.37298140313E+02  0.62499999559E+02  0.99999977348E+01 0.  0.
    3000022    2    5    5    0    0  0.61494284669E+01  0.98182620487E+01 -0.13434980601E+02  0.17741898051E+02  0.25000511017E+00 0.  0.
        -13    1    4    4    0    0 -0.50043284850E+01 -0.75430480611E+01  0.93937762180E+01  0.13045878057E+02  0.10500000000E+00 0.  1.
         13    1    4    4    0    0 -0.27604876069E+01 -0.40310813508E+01  0.51424476316E+01  0.70940609898E+01  0.10500000000E+00 0. -1.
    3000001    1    5    5    0    0  0.11245800533E+02  0.36143730156E+02 -0.23863159712E+02  0.44758101509E+02  0.10000000000E+01 0.  1.
        -13    1    6    6    0    0  0.20668753614E+01  0.32120920434E+01 -0.44681192800E+01  0.58791686449E+01  0.10500000000E+00 0.  1.
         13    1    6    6    0    0  0.40825531055E+01  0.66061700053E+01 -0.89668613212E+01  0.11862729406E+02  0.10500000000E+00 0. -1.
</event>
<event>
11    0  0.3485800E-009  0.9118800E+02  0.7816531E-02  0.1126479E+00
         25   -1    0    0    0    0  0.00000000000E+00  0.00000000000E+00  0.99999998245E-14  0.12500000000E+03  0.12500000000E+03 0.  0.
    3000001    1    3    3    0    0  0.72872240315E+01  0.16555420702E+02  0.78366693849E+01  0.19738261721E+02  0.10000000000E+01 0.  1.
    1000022    2    1    0    0    0  0.11730623163E+02  0.50408206685E+02  0.33580577497E+02  0.62499999558E+02  0.99999969382E+01 0.  0.
    3000022    2    3    3    0    0  0.44433991317E+01  0.33852785983E+02  0.25743908112E+02  0.42761737837E+02  0.25000671612E+00 0.  0.
    1000022    2    1    0    0    0 -0.11730623163E+02 -0.50408206685E+02 -0.33580577497E+02  0.62500000442E+02  0.10000002462E+02 0.  0.
    3000022    2    5    5    0    0  0.81992773121E+00 -0.10020271045E+01 -0.23937042474E+01  0.27328859763E+01  0.25001186567E+00 0.  0.
        -13    1    4    4    0    0  0.29689308022E+01  0.22439546873E+02  0.17127892138E+02  0.28385269561E+02  0.10500000000E+00 0.  1.
         13    1    4    4    0    0  0.14744683295E+01  0.11413239110E+02  0.86160159742E+01  0.14376468276E+02  0.10500000000E+00 0. -1.
    3000001    1    5    5    0    0 -0.12550550894E+02 -0.49406179580E+02 -0.31186873249E+02  0.59767114466E+02  0.10000000000E+01 0. -1.
        -13    1    6    6    0    0  0.26249450672E+00 -0.34513740512E+00 -0.70735454499E+00  0.83630057204E+00  0.10500000000E+00 0.  1.
         13    1    6    6    0    0  0.55743322448E+00 -0.65688969939E+00 -0.16863497024E+01  0.18965854043E+01  0.10500000000E+00 0. -1.
</event>
<event>
11    0  0.3485800E-009  0.9118800E+02  0.7816531E-02  0.1126479E+00
         25   -1    0    0    0    0  0.00000000000E+00  0.00000000000E+00  0.99999998245E-14  0.12500000000E+03  0.12500000000E+03 0.  0.
    3000001    1    3    3    0    0 -0.20387451894E+01 -0.37112407945E+02  0.37138450184E+02  0.52552371855E+02  0.10000000000E+01 0.  1.
    1000022    2    1    0    0    0  0.16212966667E+01 -0.42676647506E+02  0.44523309316E+02  0.62500000519E+02  0.10000007363E+02 0.  0.
    3000022    2    3    3    0    0  0.36600418561E+01 -0.55642395605E+01  0.73848591317E+01  0.99476286649E+01  0.25000676924E+00 0.  0.
    1000022    2    1    0    0    0 -0.16212966667E+01  0.42676647506E+02 -0.44523309316E+02  0.62499999481E+02  0.10000000870E+02 0.  0.
    3000022    2    5    5    0    0  0.92366537728E+00  0.29643016973E+02 -0.36189419407E+02  0.46789936537E+02  0.24994226594E+00 0.  0.
        -13    1    4    4    0    0  0.19399551039E+01 -0.30682770465E+01  0.40449341909E+01  0.54360157696E+01  0.10500000000E+00 0. -1.
         13    1    4    4    0    0  0.17200867521E+01 -0.24959625140E+01  0.33399249408E+01  0.45116128952E+01  0.10500000000E+00 0.  1.
    3000001    1    5    5    0    0 -0.25449620440E+01  0.13033630533E+02 -0.83338899090E+01  0.15710062943E+02  0.10000000000E+01 0. -1.
        -13    1    6    6    0    0  0.50553636433E+00  0.17083134041E+02 -0.20948097255E+02  0.27035584686E+02  0.10500000000E+00 0. -1.
         13    1    6    6    0    0  0.41812901295E+00  0.12559882932E+02 -0.15241322152E+02  0.19754351851E+02  0.10500000000E+00 0.  1.
</event>
<event>
11    0  0.3485800E-009  0.9118800E+02  0.7816531E-02  0.1126479E+00
         25   -1    0    0    0    0  0.00000000000E+00  0.00000000000E+00  0.99999998245E-14  0.12500000000E+03  0.12500000000E+03 0.  0.
    3000001    1    3    3    0    0 -0.26054329975E+01  0.55341891017E+01  0.60315838073E+01  0.86484410931E+01  0.10000000000E+01 0. -1.
    1000022    2    1    0    0    0 -0.38166349618E+02  0.38533939380E+02  0.29406035513E+02  0.62499994514E+02  0.99999831169E+01 0.  0.
    3000022    2    3    3    0    0 -0.35560916620E+02  0.32999750278E+02  0.23374451706E+02  0.53851553421E+02  0.25000792240E+00 0.  0.
    1000022    2    1    0    0    0  0.38166349618E+02 -0.38533939380E+02 -0.29406035513E+02  0.62500005486E+02  0.10000051696E+02 0.  0.
    3000022    2    5    5    0    0  0.25096884221E+01 -0.40135744701E+01 -0.59232698338E+01  0.75864974481E+01  0.25000400452E+00 0.  0.
        -13    1    4    4    0    0 -0.24089895425E+02  0.22292505568E+02  0.15787608122E+02  0.36421675707E+02  0.10500000000E+00 0. -1.
         13    1    4    4    0    0 -0.11471021195E+02  0.10707244710E+02  0.75868435841E+01  0.17429877714E+02  0.10500000000E+00 0.  1.
    3000001    1    5    5    0    0  0.35656661195E+02 -0.34520364910E+02 -0.23482765679E+02  0.54913508038E+02  0.10000000000E+01 0. -1.
        -13    1    6    6    0    0  0.18962803406E+01 -0.29782372719E+01 -0.44111175221E+01  0.56510847783E+01  0.10500000000E+00 0.  1.
         13    1    6    6    0    0  0.61340808151E+00 -0.10353371982E+01 -0.15121523117E+01  0.19354126698E+01  0.10500000000E+00 0. -1.
</event>
<event>
11    0  0.3485800E-009  0.9118800E+02  0.7816531E-02  0.1126479E+00
         25   -1    0    0    0    0  0.00000000000E+00  0.00000000000E+00  0.99999998245E-14  0.12500000000E+03  0.12500000000E+03 0.  0.
    3000001    1    3    3    0    0 -0.62049781968E+01 -0.38406453552E+01 -0.11300788226E+01  0.74518044333E+01  0.10000000000E+01 0. -1.
    1000022    2    1    0    0    0 -0.33558903062E+02 -0.48940110871E+02 -0.16879437111E+02  0.62499999430E+02  0.10000005238E+02 0.  0.
    3000022    2    3    3    0    0 -0.27353924865E+02 -0.45099465515E+02 -0.15749358289E+02  0.55048194996E+02  0.24998108914E+00 0.  0.
    1000022    2    1    0    0    0  0.33558903062E+02  0.48940110871E+02  0.16879437111E+02  0.62500000570E+02  0.10000012366E+02 0.  0.
    3000022    2    5    5    0    0  0.18050107814E+01  0.86611691886E+01  0.18302515441E+01  0.90380439634E+01  0.25000467070E+00 0.  0.
        -13    1    4    4    0    0 -0.13483391673E+02 -0.22344364319E+02 -0.78271158408E+01  0.27246049901E+02  0.10500000000E+00 0.  1.
         13    1    4    4    0    0 -0.13870533193E+02 -0.22755101196E+02 -0.79222424478E+01  0.27802145095E+02  0.10500000000E+00 0. -1.
    3000001    1    5    5    0    0  0.31753892281E+02  0.40278941682E+02  0.15049185567E+02  0.53461956607E+02  0.10000000000E+01 0.  1.
        -13    1    6    6    0    0  0.67182487058E+00  0.34760581967E+01  0.69528367388E+00  0.36095392547E+01  0.10500000000E+00 0.  1.
         13    1    6    6    0    0  0.11331859108E+01  0.51851109919E+01  0.11349678702E+01  0.54285047088E+01  0.10500000000E+00 0. -1.
</event>
<event>
11    0  0.3485800E-009  0.9118800E+02  0.7816531E-02  0.1126479E+00
         25   -1    0    0    0    0  0.00000000000E+00  0.00000000000E+00  0.99999998245E-14  0.12500000000E+03  0.12500000000E+03 0.  0.
    3000001    1    3    3    0    0 -0.15685120314E+02 -0.58404084491E+01 -0.10811810379E+02  0.19950654470E+02  0.10000000000E+01 0. -1.
    1000022    2    1    0    0    0 -0.55601464062E+02 -0.87983822530E+01 -0.25245110820E+02  0.62499999714E+02  0.10000000388E+02 0.  0.
    3000022    2    3    3    0    0 -0.39916343748E+02 -0.29579738038E+01 -0.14433300441E+02  0.42549345244E+02  0.25002357236E+00 0.  0.
    1000022    2    1    0    0    0  0.55601464062E+02  0.87983822530E+01  0.25245110820E+02  0.62500000286E+02  0.10000003965E+02 0.  0.
    3000022    2    5    5    0    0  0.55437857592E+02  0.88526546514E+01  0.24574744259E+02  0.61283816132E+02  0.25003108258E+00 0.  0.
        -13    1    4    4    0    0 -0.11685618224E+02 -0.90137809203E+00 -0.42540018452E+01  0.12468909834E+02  0.10500000000E+00 0. -1.
         13    1    4    4    0    0 -0.28230725524E+02 -0.20565957118E+01 -0.10179298596E+02  0.30080435409E+02  0.10500000000E+00 0.  1.
    3000001    1    5    5    0    0  0.16360647040E+00 -0.54272398411E-01  0.67036656154E+00  0.12161841543E+01  0.10000000000E+01 0. -1.
        -13    1    6    6    0    0  0.21029547772E+02  0.34194469249E+01  0.93204303433E+01  0.23255449760E+02  0.10500000000E+00 0.  1.
         13    1    6    6    0    0  0.34408309820E+02  0.54332077265E+01  0.15254313915E+02  0.38028366372E+02  0.10500000000E+00 0. -1.
</event>
<event>
11    0  0.3485800E-009  0.9118800E+02  0.7816531E-02  0.1126479E+00
         25   -1    0    0    0    0  0.00000000000E+00  0.00000000000E+00  0.99999998245E-14  0.12500000000E+03  0.12500000000E+03 0.  0.
    3000001    1    3    3    0    0  0.24674108910E+02  0.37500921905E+02 -0.10749692765E+02  0.46170192644E+02  0.10000000000E+01 0.  1.
    1000022    2    1    0    0    0  0.29335535748E+02  0.53147246719E+02 -0.11002126895E+02  0.62500000681E+02  0.99999898758E+01 0.  0.
    3000022    2    3    3    0    0  0.46614268377E+01  0.15646324814E+02 -0.25243412993E+00  0.16329808037E+02  0.25005438959E+00 0.  0.
    1000022    2    1    0    0    0 -0.29335535748E+02 -0.53147246719E+02  0.11002126895E+02  0.62499999319E+02  0.99999813642E+01 0.  0.
    3000022    2    5    5    0    0 -0.21583331771E+01 -0.11316623771E+02  0.63756228212E+00  0.11540941681E+02  0.24994707510E+00 0.  0.
        -13    1    4    4    0    0  0.23886351910E+01  0.79357764178E+01 -0.19184822575E+00  0.82903531994E+01  0.10500000000E+00 0.  1.
         13    1    4    4    0    0  0.22727916467E+01  0.77105483960E+01 -0.60585904177E-01  0.80394548377E+01  0.10500000000E+00 0. -1.
    3000001    1    5    5    0    0 -0.27177202571E+02 -0.41830622948E+02  0.10364564613E+02  0.50959057638E+02  0.10000000000E+01 0. -1.
        -13    1    6    6    0    0 -0.11692597300E+01 -0.64017421583E+01  0.40203173837E+00  0.65208991325E+01  0.10500000000E+00 0.  1.
         13    1    6    6    0    0 -0.98907344706E+00 -0.49148816126E+01  0.23553054375E+00  0.50200425483E+01  0.10500000000E+00 0. -1.
</event>
<event>
11    0  0.3485800E-009  0.9118800E+02  0.7816531E-02  0.1126479E+00
         25   -1    0    0    0    0  0.00000000000E+00  0.00000000000E+00  0.99999998245E-14  0.12500000000E+03  0.12500000000E+03 0.  0.
    3000001    1    3    3    0    0  0.13561278022E+02 -0.25437870075E+01 -0.84252505668E+01  0.16197652948E+02  0.10000000000E+01 0. -1.
    1000022    2    1    0    0    0  0.58308996191E+02 -0.53919767795E+00 -0.20149931271E+02  0.62499999475E+02  0.10000021663E+02 0.  0.
    3000022    2    3    3    0    0  0.44747718169E+02  0.20045893295E+01 -0.11724680704E+02  0.46302346527E+02  0.24999309926E+00 0.  0.
    1000022    2    1    0    0    0 -0.58308996191E+02  0.53919767795E+00  0.20149931271E+02  0.62500000525E+02  0.10000028222E+02 0.  0.
    3000022    2    5    5    0    0 -0.42684905342E+02  0.45024719021E+01  0.13087313747E+02  0.44873307026E+02  0.25001000194E+00 0.  0.
        -13    1    4    4    0    0  0.32846028350E+02  0.14968715114E+01 -0.85826620356E+01  0.33981985158E+02  0.10500000000E+00 0. -1.
         13    1    4    4    0    0  0.11901689819E+02  0.50771781812E+00 -0.31420186687E+01  0.12320361369E+02  0.10500000000E+00 0.  1.
    3000001    1    5    5    0    0 -0.15624090849E+02 -0.39632742242E+01  0.70626175238E+01  0.17626693499E+02  0.10000000000E+01 0. -1.
        -13    1    6    6    0    0 -0.17866488656E+02  0.18196915195E+01  0.54805801816E+01  0.18776860180E+02  0.10500000000E+00 0.  1.
         13    1    6    6    0    0 -0.24818416687E+02  0.26827803826E+01  0.76067335658E+01  0.26096446845E+02  0.10500000000E+00 0. -1.
</event>
<event>
11    0  0.3485800E-009  0.9118800E+02  0.7816531E-02  0.1126479E+00
         25   -1    0    0    0    0  0.00000000000E+00  0.00000000000E+00  0.99999998245E-14  0.12500000000E+03  0.12500000000E+03 0.  0.
    3000001    1    3    3    0    0  0.14042552090E+02  0.17327297816E+02  0.32328752319E+02  0.39288379266E+02  0.10000000000E+01 0. -1.
    1000022    2    1    0    0    0  0.24728449385E+02  0.20442167250E+02  0.52696030401E+02  0.62499999812E+02  0.99999972761E+01 0.  0.
    3000022    2    3    3    0    0  0.10685897295E+02  0.31148694336E+01  0.20367278082E+02  0.23211620546E+02  0.24999859361E+00 0.  0.
    1000022    2    1    0    0    0 -0.24728449385E+02 -0.20442167250E+02 -0.52696030401E+02  0.62500000188E+02  0.99999996320E+01 0.  0.
    3000022    2    5    5    0    0 -0.15273059864E+02 -0.65038914526E+01 -0.28900410472E+02  0.33329613647E+02  0.24991743741E+00 0.  0.
        -13    1    4    4    0    0  0.59591898975E+01  0.17625495945E+01  0.11498973926E+02  0.13071187844E+02  0.10500000000E+00 0.  1.
         13    1    4    4    0    0  0.47267073973E+01  0.13523198391E+01  0.88683041563E+01  0.10140432702E+02  0.10500000000E+00 0. -1.
    3000001    1    5    5    0    0 -0.94553895208E+01 -0.13938275797E+02 -0.23795619929E+02  0.29170386542E+02  0.10000000000E+01 0.  1.
        -13    1    6    6    0    0 -0.66302892796E+01 -0.28700668507E+01 -0.12678506112E+02  0.14592928489E+02  0.10500000000E+00 0.  1.
         13    1    6    6    0    0 -0.86427705844E+01 -0.36338246020E+01 -0.16221904361E+02  0.18736685158E+02  0.10500000000E+00 0. -1.
</event>
<event>
11    0  0.3485800E-009  0.9118800E+02  0.7816531E-02  0.1126479E+00
         25   -1    0    0    0    0  0.00000000000E+00  0.00000000000E+00  0.99999998245E-14  0.12500000000E+03  0.12500000000E+03 0.  0.
    3000001    1    3    3    0    0 -0.65680704441E+01  0.47107436751E+00 -0.44434474201E+01  0.80066026124E+01  0.10000000000E+01 0.  1.
    1000022    2    1    0    0    0 -0.44501620555E+02 -0.20250114139E+02 -0.37626965659E+02  0.62499999093E+02  0.99999993674E+01 0.  0.
    3000022    2    3    3    0    0 -0.37933550110E+02 -0.20721188506E+02 -0.33183518239E+02  0.54493396481E+02  0.25000043723E+00 0.  0.
    1000022    2    1    0    0    0  0.44501620555E+02  0.20250114139E+02  0.37626965659E+02  0.62500000907E+02  0.10000010704E+02 0.  0.
    3000022    2    5    5    0    0  0.38386286802E+02  0.16412025981E+02  0.27382800339E+02  0.49927365912E+02  0.25000258917E+00 0.  0.
        -13    1    4    4    0    0 -0.17474239439E+02 -0.94870697767E+01 -0.15209942529E+02  0.25034114996E+02  0.10500000000E+00 0. -1.
         13    1    4    4    0    0 -0.20459310671E+02 -0.11234118729E+02 -0.17973575710E+02  0.29459281484E+02  0.10500000000E+00 0.  1.
    3000001    1    5    5    0    0  0.61153337528E+01  0.38380881578E+01  0.10244165320E+02  0.12572634995E+02  0.10000000000E+01 0.  1.
        -13    1    6    6    0    0  0.25737897053E+02  0.10958030311E+02  0.18310399829E+02  0.33433509236E+02  0.10500000000E+00 0. -1.
         13    1    6    6    0    0  0.12648389749E+02  0.54539956702E+01  0.90724005101E+01  0.16493856676E+02  0.10500000000E+00 0.  1.
</event>
<event>
11    0  0.3485800E-009  0.9118800E+02  0.7816531E-02  0.1126479E+00
         25   -1    0    0    0    0  0.00000000000E+00  0.00000000000E+00  0.99999998245E-14  0.12500000000E+03  0.12500000000E+03 0.  0.
    3000001    1    3    3    0    0 -0.31087866821E+02 -0.28913433480E+02 -0.18233987243E+01  0.42506080530E+02  0.10000000000E+01 0.  1.
    1000022    2    1    0    0    0 -0.48980726238E+02 -0.37140197708E+02 -0.52672761157E+01  0.62500001143E+02  0.10000005829E+02 0.  0.
    3000022    2    3    3    0    0 -0.17892859417E+02 -0.82267642281E+01 -0.34438773914E+01  0.19993920614E+02  0.25000443465E+00 0.  0.
    1000022    2    1    0    0    0  0.48980726238E+02  0.37140197708E+02  0.52672761157E+01  0.62499998857E+02  0.99999915389E+01 0.  0.
    3000022    2    5    5    0    0  0.20618010655E+01 -0.38098344734E+00  0.76705081037E+00  0.22465624197E+01  0.25000747772E+00 0.  0.
        -13    1    4    4    0    0 -0.10374747203E+02 -0.48286064118E+01 -0.20385654442E+01  0.11624009354E+02  0.10500000000E+00 0.  1.
         13    1    4    4    0    0 -0.75181122148E+01 -0.33981578163E+01 -0.14053119472E+01  0.83699112593E+01  0.10500000000E+00 0. -1.
    3000001    1    5    5    0    0  0.46918925173E+02  0.37521181156E+02  0.45002253054E+01  0.60253436437E+02  0.10000000000E+01 0. -1.
        -13    1    6    6    0    0  0.91579859337E+00 -0.15107322908E+00  0.27216135149E+00  0.97293729778E+00  0.10500000000E+00 0.  1.
         13    1    6    6    0    0  0.11460024721E+01 -0.22991021826E+00  0.49488945888E+00  0.12736251219E+01  0.10500000000E+00 0. -1.
</event>
<event>
11    0  0.3485800E-009  0.9118800E+02  0.7816531E-02  0.1126479E+00
         25   -1    0    0    0    0  0.00000000000E+00  0.00000000000E+00  0.99999998245E-14  0.12500000000E+03  0.12500000000E+03 0.  0.
    3000001    1    3    3    0    0  0.87017356874E+01 -0.16218300401E+02 -0.15235994861E+01  0.18495264995E+02  0.10000000000E+01 0.  1.
    1000022    2    1    0    0    0  0.18541677635E+02 -0.58655284729E+02  0.46918749181E+01  0.62500000203E+02  0.10000004953E+02 0.  0.
    3000022    2    3    3    0    0  0.98399419480E+01 -0.42436984328E+02  0.62154744042E+01  0.44004735208E+02  0.25000453144E+00 0.  0.
    1000022    2    1    0    0    0 -0.18541677635E+02  0.58655284729E+02 -0.46918749181E+01  0.62499999797E+02  0.10000002411E+02 0.  0.
    3000022    2    5    5    0    0 -0.10801710538E+02  0.19045828218E+02 -0.29111212787E+01  0.22089763231E+02  0.24997893514E+00 0.  0.
        -13    1    4    4    0    0  0.49057038237E+01 -0.21221294139E+02  0.30407433153E+01  0.21992416871E+02  0.10500000000E+00 0. -1.
         13    1    4    4    0    0  0.49342381242E+01 -0.21215690189E+02  0.31747310889E+01  0.22012318337E+02  0.10500000000E+00 0.  1.
    3000001    1    5    5    0    0 -0.77399670974E+01  0.39609456511E+02 -0.17807536394E+01  0.40410236565E+02  0.10000000000E+01 0. -1.
        -13    1    6    6    0    0 -0.40379098443E+01  0.70647503052E+01 -0.10282438269E+01  0.82026656126E+01  0.10500000000E+00 0.  1.
         13    1    6    6    0    0 -0.67638006936E+01  0.11981077913E+02 -0.18828774518E+01  0.13887097619E+02  0.10500000000E+00 0. -1.
</event>
<event>
11    0  0.3485800E-009  0.9118800E+02  0.7816531E-02  0.1126479E+00
         25   -1    0    0    0    0  0.00000000000E+00  0.00000000000E+00  0.99999998245E-14  0.12500000000E+03  0.12500000000E+03 0.  0.
    3000001    1    3    3    0    0  0.33463527493E+02  0.15263924175E+02  0.51080892724E+01  0.37146838755E+02  0.10000000000E+01 0. -1.
    1000022    2    1    0    0    0  0.53080171267E+02  0.31245631390E+02  0.35293599296E+01  0.62499995622E+02  0.99999504247E+01 0.  0.
    3000022    2    3    3    0    0  0.19616643774E+02  0.15981707215E+02 -0.15787293427E+01  0.25353156867E+02  0.24999657987E+00 0.  0.
    1000022    2    1    0    0    0 -0.53080171267E+02 -0.31245631390E+02 -0.35293599296E+01  0.62500004378E+02  0.10000005154E+02 0.  0.
    3000022    2    5    5    0    0 -0.21370351282E+02 -0.18285064651E+02 -0.18954182287E+01  0.28190257379E+02  0.24999524795E+00 0.  0.
        -13    1    4    4    0    0  0.47917352448E+01  0.39068023445E+01 -0.36316921224E+00  0.61940897711E+01  0.10500000000E+00 0.  1.
         13    1    4    4    0    0  0.14824908529E+02  0.12074904871E+02 -0.12155601305E+01  0.19159067096E+02  0.10500000000E+00 0. -1.
    3000001    1    5    5    0    0 -0.31709819985E+02 -0.12960566739E+02 -0.16339417009E+01  0.34309746999E+02  0.10000000000E+01 0.  1.
        -13    1    6    6    0    0 -0.13510151993E+02 -0.11535721780E+02 -0.12537681340E+01  0.17809549219E+02  0.10500000000E+00 0.  1.
         13    1    6    6    0    0 -0.78601992887E+01 -0.67493428714E+01 -0.64165009476E+00  0.10380708160E+02  0.10500000000E+00 0. -1.
</event>
<event>
11    0  0.3485800E-009  0.9118800E+02  0.7816531E-02  0.1126479E+00
         25   -1    0    0    0    0  0.00000000000E+00  0.00000000000E+00  0.99999998245E-14  0.12500000000E+03  0.12500000000E+03 0.  0.
    3000001    1    3    3    0    0 -0.16540489499E+02 -0.53210009832E+01  0.51984597516E+01  0.18163832969E+02  0.10000000000E+01 0.  1.
    1000022    2    1    0    0    0 -0.60693206098E+02 -0.92399459724E+01  0.60998519413E+01  0.62499997887E+02  0.99999837055E+01 0.  0.
    3000022    2    3    3    0    0 -0.44152716599E+02 -0.39189449892E+01  0.90139218970E+00  0.44336164918E+02  0.24999770535E+00 0.  0.
    1000022    2    1    0    0    0  0.60693206098E+02  0.92399459724E+01 -0.60998519413E+01  0.62500002113E+02  0.10000010120E+02 0.  0.
    3000022    2    5    5    0    0  0.39660052852E+02  0.98396685645E+01 -0.67887794312E+01  0.41423289283E+02  0.24999826107E+00 0.  0.
        -13    1    4    4    0    0 -0.19334538577E+02 -0.16594423559E+01  0.36038627173E+00  0.19409251253E+02  0.10500000000E+00 0. -1.
         13    1    4    4    0    0 -0.24818178022E+02 -0.22595026333E+01  0.54100591797E+00  0.24926913665E+02  0.10500000000E+00 0.  1.
    3000001    1    5    5    0    0  0.21033153246E+02 -0.59972259211E+00  0.68892748994E+00  0.21076712830E+02  0.10000000000E+01 0.  1.
        -13    1    6    6    0    0  0.19637625832E+02  0.49387527895E+01 -0.33435098302E+01  0.20523589121E+02  0.10500000000E+00 0. -1.
         13    1    6    6    0    0  0.20022427020E+02  0.49009157750E+01 -0.34452696010E+01  0.20899700162E+02  0.10500000000E+00 0.  1.
</event>
<event>
11    0  0.3485800E-009  0.9118800E+02  0.7816531E-02  0.1126479E+00
         25   -1    0    0    0    0  0.00000000000E+00  0.00000000000E+00  0.99999998245E-14  0.12500000000E+03  0.12500000000E+03 0.  0.
    3000001    1    3    3    0    0 -0.88281380007E+01  0.11160234263E+02 -0.84970095036E+01  0.16603795345E+02  0.10000000000E+01 0.  1.
    1000022    2    1    0    0    0 -0.38223678908E+02  0.45404631802E+02 -0.16841015545E+02  0.62499999114E+02  0.99999933163E+01 0.  0.
    3000022    2    3    3    0    0 -0.29395540908E+02  0.34244397539E+02 -0.83440060412E+01  0.45896203769E+02  0.24999102640E+00 0.  0.
    1000022    2    1    0    0    0  0.38223678908E+02 -0.45404631802E+02  0.16841015545E+02  0.62500000886E+02  0.10000004393E+02 0.  0.
    3000022    2    5    5    0    0  0.13989859314E+02 -0.15564146338E+02  0.10874754623E+02  0.23585622384E+02  0.24996051752E+00 0.  0.
        -13    1    4    4    0    0 -0.13443413169E+02  0.15759297574E+02 -0.38498137364E+01  0.21069240814E+02  0.10500000000E+00 0. -1.
         13    1    4    4    0    0 -0.15952127739E+02  0.18485099965E+02 -0.44941923048E+01  0.24826962955E+02  0.10500000000E+00 0.  1.
    3000001    1    5    5    0    0  0.24233819595E+02 -0.29840485464E+02  0.59662609216E+01  0.38914378503E+02  0.10000000000E+01 0.  1.
        -13    1    6    6    0    0  0.79811841724E+01 -0.88528659805E+01  0.62647933823E+01  0.13465927298E+02  0.10500000000E+00 0.  1.
         13    1    6    6    0    0  0.60086751411E+01 -0.67112803577E+01  0.46099612408E+01  0.10119695086E+02  0.10500000000E+00 0. -1.
</event>
<event>
11    0  0.3485800E-009  0.9118800E+02  0.7816531E-02  0.1126479E+00
         25   -1    0    0    0    0  0.00000000000E+00  0.00000000000E+00  0.99999998245E-14  0.12500000000E+03  0.12500000000E+03 0.  0.
    3000001    1    3    3    0    0 -0.15918669985E+02  0.10580475575E+01  0.68388988918E+01  0.17386605671E+02  0.10000000000E+01 0. -1.
    1000022    2    1    0    0    0 -0.58169862355E+02 -0.10408571123E+02  0.17725091875E+02  0.62499999388E+02  0.99999901175E+01 0.  0.
    3000022    2    3    3    0    0 -0.42251192370E+02 -0.11466618680E+02  0.10886192983E+02  0.45113393717E+02  0.24998867779E+00 0.  0.
    1000022    2    1    0    0    0  0.58169862355E+02  0.10408571123E+02 -0.17725091875E+02  0.62500000612E+02  0.99999977615E+01 0.  0.
    3000022    2    5    5    0    0  0.11501257438E+01 -0.11078720795E+01  0.18259654996E+00  0.16266556075E+01  0.24999438845E+00 0.  0.
        -13    1    4    4    0    0 -0.19460331819E+02 -0.53484702439E+01  0.50365604936E+01  0.20801168599E+02  0.10500000000E+00 0.  1.
         13    1    4    4    0    0 -0.22790860551E+02 -0.61181484361E+01  0.58496324896E+01  0.24312225118E+02  0.10500000000E+00 0. -1.
    3000001    1    5    5    0    0  0.57019736611E+02  0.11516443202E+02 -0.17907688425E+02  0.60873345004E+02  0.10000000000E+01 0. -1.
        -13    1    6    6    0    0  0.51193043795E+00 -0.49502858703E+00  0.14763314782E-01  0.71997849325E+00  0.10500000000E+00 0.  1.
         13    1    6    6    0    0  0.63819530586E+00 -0.61284349245E+00  0.16783323518E+00  0.90667711424E+00  0.10500000000E+00 0. -1.
</event>
<event>
11    0  0.3485800E-009  0.9118800E+02  0.7816531E-02  0.1126479E+00
         25   -1    0    0    0    0  0.00000000000E+00  0.00000000000E+00  0.99999998245E-14  0.12500000000E+03  0.12500000000E+03 0.  0.
    3000001    1    3    3    0    0  0.25330309283E+01 -0.58158352191E+02 -0.50067064593E+01  0.58436951365E+02  0.10000000000E+01 0. -1.
    1000022    2    1    0    0    0  0.50624522118E+01 -0.61204680986E+02 -0.58829255605E+01  0.62499998935E+02  0.99999828393E+01 0.  0.
    3000022    2    3    3    0    0  0.25294212836E+01 -0.30463287945E+01 -0.87621910116E+00  0.40630475701E+01  0.25000897819E+00 0.  0.
    1000022    2    1    0    0    0 -0.50624522118E+01  0.61204680986E+02  0.58829255605E+01  0.62500001065E+02  0.99999961496E+01 0.  0.
    3000022    2    5    5    0    0 -0.12998834677E+00  0.32630061100E+00 -0.93993538337E+00  0.10340932110E+01  0.25000237036E+00 0.  0.
        -13    1    4    4    0    0  0.90032081837E+00 -0.10093478607E+01 -0.27178283608E+00  0.13835648123E+01  0.10500000000E+00 0. -1.
         13    1    4    4    0    0  0.16291004652E+01 -0.20369809339E+01 -0.60443626508E+00  0.26794827578E+01  0.10500000000E+00 0.  1.
    3000001    1    5    5    0    0 -0.49324638651E+01  0.60878380375E+02  0.68228609439E+01  0.61465907854E+02  0.10000000000E+01 0. -1.
        -13    1    6    6    0    0 -0.71911652584E-01  0.86860029113E-01 -0.45122946902E+00  0.47681126680E+00  0.10500000000E+00 0. -1.
         13    1    6    6    0    0 -0.58076694182E-01  0.23944058189E+00 -0.48870591435E+00  0.55728194425E+00  0.10500000000E+00 0.  1.
</event>
<event>
11    0  0.3485800E-009  0.9118800E+02  0.7816531E-02  0.1126479E+00
         25   -1    0    0    0    0  0.00000000000E+00  0.00000000000E+00  0.99999998245E-14  0.12500000000E+03  0.12500000000E+03 0.  0.
    3000001    1    3    3    0    0 -0.36803122112E+02  0.74273960560E+01 -0.19017825338E+02  0.42098856160E+02  0.10000000000E+01 0.  1.
    1000022    2    1    0    0    0 -0.53741321897E+02  0.44084445294E+01 -0.29978093186E+02  0.62499999486E+02  0.99999901099E+01 0.  0.
    3000022    2    3    3    0    0 -0.16938199785E+02 -0.30189515266E+01 -0.10960267848E+02  0.20401143326E+02  0.24999483893E+00 0.  0.
    1000022    2    1    0    0    0  0.53741321897E+02 -0.44084445294E+01  0.29978093186E+02  0.62500000514E+02  0.99999965398E+01 0.  0.
    3000022    2    5    5    0    0  0.23415368941E+02 -0.12906028670E+01  0.18644022351E+02  0.29960093922E+02  0.25000000908E+00 0.  0.
        -13    1    4    4    0    0 -0.73181594484E+01 -0.13538871606E+01 -0.47932496623E+01  0.88529506652E+01  0.10500000000E+00 0.  1.
         13    1    4    4    0    0 -0.96200403363E+01 -0.16650643660E+01 -0.61670181859E+01  0.11548192660E+02  0.10500000000E+00 0. -1.
    3000001    1    5    5    0    0  0.30325952956E+02 -0.31178416624E+01  0.11334070836E+02  0.32539906592E+02  0.10000000000E+01 0.  1.
        -13    1    6    6    0    0  0.64006221339E+01 -0.38364162216E+00  0.50713175734E+01  0.81758443922E+01  0.10500000000E+00 0. -1.
         13    1    6    6    0    0  0.17014746807E+02 -0.90696124486E+00  0.13572704777E+02  0.21784249530E+02  0.10500000000E+00 0.  1.
</event>
<event>
11    0  0.3485800E-009  0.9118800E+02  0.7816531E-02  0.1126479E+00
         25   -1    0    0    0    0  0.00000000000E+00  0.00000000000E+00  0.99999998245E-14  0.12500000000E+03  0.12500000000E+03 0.  0.
    3000001    1    3    3    0    0  0.28480475998E+02  0.13715157759E+02  0.32944855341E+02  0.45668441608E+02  0.10000000000E+01 0. -1.
    1000022    2    1    0    0    0  0.40635868822E+02  0.22460344031E+02  0.40626455476E+02  0.62499999478E+02  0.10000008066E+02 0.  0.
    3000022    2    3    3    0    0  0.12155392824E+02  0.87451862722E+01  0.76816001348E+01  0.16831557871E+02  0.25000415271E+00 0.  0.
    1000022    2    1    0    0    0 -0.40635868822E+02 -0.22460344031E+02 -0.40626455476E+02  0.62500000522E+02  0.10000014587E+02 0.  0.
    3000022    2    5    5    0    0 -0.16425029010E+02 -0.50232937935E+01 -0.19142544086E+02  0.25719925290E+02  0.25000870998E+00 0.  0.
        -13    1    4    4    0    0  0.58747495709E+01  0.41473050029E+01  0.36654089869E+01  0.80721167824E+01  0.10500000000E+00 0.  1.
         13    1    4    4    0    0  0.62806432533E+01  0.45978812693E+01  0.40161911479E+01  0.87594410883E+01  0.10500000000E+00 0. -1.
    3000001    1    5    5    0    0 -0.24210839813E+02 -0.17437050238E+02 -0.21483911390E+02  0.36780075232E+02  0.10000000000E+01 0. -1.
        -13    1    6    6    0    0 -0.59673481862E+01 -0.17674931807E+01 -0.69068089626E+01  0.92977584162E+01  0.10500000000E+00 0.  1.
         13    1    6    6    0    0 -0.10457680823E+02 -0.32558006129E+01 -0.12235735123E+02  0.16422166874E+02  0.10500000000E+00 0. -1.
</event>
<event>
11    0  0.3485800E-009  0.9118800E+02  0.7816531E-02  0.1126479E+00
         25   -1    0    0    0    0  0.00000000000E+00  0.00000000000E+00  0.99999998245E-14  0.12500000000E+03  0.12500000000E+03 0.  0.
    3000001    1    3    3    0    0  0.22391218150E+02 -0.24716850579E+02  0.38510212170E+02  0.50954153846E+02  0.10000000000E+01 0. -1.
    1000022    2    1    0    0    0  0.23223631425E+02 -0.32390124579E+02  0.47093450994E+02  0.62499998808E+02  0.99999748816E+01 0.  0.
    3000022    2    3    3    0    0  0.83241327535E+00 -0.76732740001E+01  0.85832388240E+01  0.11545844962E+02  0.25000286558E+00 0.  0.
    1000022    2    1    0    0    0 -0.23223631425E+02  0.32390124579E+02 -0.47093450994E+02  0.62500001192E+02  0.99999897805E+01 0.  0.
    3000022    2    5    5    0    0 -0.20182993316E+02  0.22082513124E+02 -0.38158377887E+02  0.48488296604E+02  0.24999908212E+00 0.  0.
        -13    1    4    4    0    0  0.47581963149E+00 -0.46027952011E+01  0.52325628828E+01  0.69859049026E+01  0.10500000000E+00 0. -1.
         13    1    4    4    0    0  0.35659364386E+00 -0.30704787989E+01  0.33506759412E+01  0.45599400593E+01  0.10500000000E+00 0.  1.
    3000001    1    5    5    0    0 -0.30406381095E+01  0.10307611455E+02 -0.89350731073E+01  0.14011704588E+02  0.10000000000E+01 0.  1.
        -13    1    6    6    0    0 -0.12022311892E+02  0.13247252385E+02 -0.22825339360E+02  0.29000565872E+02  0.10500000000E+00 0.  1.
         13    1    6    6    0    0 -0.81606814237E+01  0.88352607392E+01 -0.15333038526E+02  0.19487730732E+02  0.10500000000E+00 0. -1.
</event>
<event>
11    0  0.3485800E-009  0.9118800E+02  0.7816531E-02  0.1126479E+00
         25   -1    0    0    0    0  0.00000000000E+00  0.00000000000E+00  0.99999998245E-14  0.12500000000E+03  0.12500000000E+03 0.  0.
    3000001    1    3    3    0    0  0.80319387065E+01  0.14498900337E+02  0.94799040946E+01  0.19120636287E+02  0.10000000000E+01 0.  1.
    1000022    2    1    0    0    0  0.32828382482E+02  0.49098417678E+02  0.17829541801E+02  0.62499999425E+02  0.10000002619E+02 0.  0.
    3000022    2    3    3    0    0  0.24796443776E+02  0.34599517341E+02  0.83496377060E+01  0.43379363138E+02  0.24994453763E+00 0.  0.
    1000022    2    1    0    0    0 -0.32828382482E+02 -0.49098417678E+02 -0.17829541801E+02  0.62500000575E+02  0.10000009809E+02 0.  0.
    3000022    2    5    5    0    0 -0.43958131163E+01 -0.87232705001E+01 -0.67627449630E+01  0.11883427176E+02  0.25000169738E+00 0.  0.
        -13    1    4    4    0    0  0.18973254527E+02  0.26496633241E+02  0.63883078048E+01  0.33209598944E+02  0.10500000000E+00 0.  1.
         13    1    4    4    0    0  0.58231892493E+01  0.81028841004E+01  0.19613299012E+01  0.10169764194E+02  0.10500000000E+00 0. -1.
    3000001    1    5    5    0    0 -0.28432569366E+02 -0.40375147178E+02 -0.11066796838E+02  0.50616573399E+02  0.10000000000E+01 0.  1.
        -13    1    6    6    0    0 -0.25549524460E+01 -0.49961611352E+01 -0.39527779673E+01  0.68647568602E+01  0.10500000000E+00 0. -1.
         13    1    6    6    0    0 -0.18408606703E+01 -0.37271093648E+01 -0.28099669958E+01  0.50186703161E+01  0.10500000000E+00 0.  1.
</event>
<event>
11    0  0.3485800E-009  0.9118800E+02  0.7816531E-02  0.1126479E+00
         25   -1    0    0    0    0  0.00000000000E+00  0.00000000000E+00  0.99999998245E-14  0.12500000000E+03  0.12500000000E+03 0.  0.
    3000001    1    3    3    0    0  0.23006030812E+02  0.77740761434E+01  0.33752601507E+02  0.41592689527E+02  0.10000000000E+01 0. -1.
    1000022    2    1    0    0    0  0.29811338018E+02  0.16819649458E+02  0.51328680183E+02  0.62500000343E+02  0.10000007564E+02 0.  0.
    3000022    2    3    3    0    0  0.68053072065E+01  0.90455733142E+01  0.17576078676E+02  0.20907310816E+02  0.25000238289E+00 0.  0.
    1000022    2    1    0    0    0 -0.29811338018E+02 -0.16819649458E+02 -0.51328680183E+02  0.62499999657E+02  0.10000003277E+02 0.  0.
    3000022    2    5    5    0    0 -0.10201362734E+01 -0.37356167725E+01 -0.74914587363E+01  0.84368218615E+01  0.24999687795E+00 0.  0.
        -13    1    4    4    0    0  0.28110725041E+01  0.37386849127E+01  0.73823066020E+01  0.87401012160E+01  0.10500000000E+00 0.  1.
         13    1    4    4    0    0  0.39942347024E+01  0.53068884015E+01  0.10193772074E+02  0.12167209600E+02  0.10500000000E+00 0. -1.
    3000001    1    5    5    0    0 -0.28791201745E+02 -0.13084032685E+02 -0.43837221446E+02  0.54063177795E+02  0.10000000000E+01 0.  1.
        -13    1    6    6    0    0 -0.76942242432E+00 -0.27073678152E+01 -0.53864012312E+01  0.60783381427E+01  0.10500000000E+00 0. -1.
         13    1    6    6    0    0 -0.25071384906E+00 -0.10282489573E+01 -0.21050575051E+01  0.23584837188E+01  0.10500000000E+00 0.  1.
</event>
<event>
11    0  0.3485800E-009  0.9118800E+02  0.7816531E-02  0.1126479E+00
         25   -1    0    0    0    0  0.00000000000E+00  0.00000000000E+00  0.99999998245E-14  0.12500000000E+03  0.12500000000E+03 0.  0.
    3000001    1    3    3    0    0  0.27473520935E+01  0.88432534261E+00 -0.10256845280E+01  0.32221116660E+01  0.10000000000E+01 0. -1.
    1000022    2    1    0    0    0  0.32719618551E+02  0.49538329567E+02 -0.16781857090E+02  0.62500002609E+02  0.10000003223E+02 0.  0.
    3000022    2    3    3    0    0  0.29972266457E+02  0.48654004224E+02 -0.15756172562E+02  0.59277890943E+02  0.24999460244E+00 0.  0.
    1000022    2    1    0    0    0 -0.32719618551E+02 -0.49538329567E+02  0.16781857090E+02  0.62499997391E+02  0.99999706050E+01 0.  0.
    3000022    2    5    5    0    0 -0.24995455017E+02 -0.41051270943E+02  0.98688944248E+01  0.49065641464E+02  0.24995497759E+00 0.  0.
        -13    1    4    4    0    0  0.14536640799E+02  0.23659303485E+02 -0.75947047422E+01  0.28788315898E+02  0.10500000000E+00 0.  1.
         13    1    4    4    0    0  0.15435625658E+02  0.24994700739E+02 -0.81614678195E+01  0.30489575046E+02  0.10500000000E+00 0. -1.
    3000001    1    5    5    0    0 -0.77241635335E+01 -0.84870586232E+01  0.69129626649E+01  0.13434355927E+02  0.10000000000E+01 0.  1.
        -13    1    6    6    0    0 -0.14530804887E+02 -0.23902603666E+02  0.56809913944E+01  0.28544061395E+02  0.10500000000E+00 0.  1.
         13    1    6    6    0    0 -0.10464650130E+02 -0.17148667277E+02  0.41879030304E+01  0.20521580069E+02  0.10500000000E+00 0. -1.
</event>
<event>
11    0  0.3485800E-009  0.9118800E+02  0.7816531E-02  0.1126479E+00
         25   -1    0    0    0    0  0.00000000000E+00  0.00000000000E+00  0.99999998245E-14  0.12500000000E+03  0.12500000000E+03 0.  0.
    3000001    1    3    3    0    0 -0.67211266494E+01  0.31735437648E+02 -0.14711761360E+02  0.35633516083E+02  0.10000000000E+01 0. -1.
    1000022    2    1    0    0    0 -0.19806493166E+02  0.52565735540E+02 -0.25510712852E+02  0.62500000474E+02  0.99999932305E+01 0.  0.
    3000022    2    3    3    0    0 -0.13085366516E+02  0.20830297892E+02 -0.10798951493E+02  0.26866484391E+02  0.25000607221E+00 0.  0.
    1000022    2    1    0    0    0  0.19806493166E+02 -0.52565735540E+02  0.25510712852E+02  0.62499999526E+02  0.99999873070E+01 0.  0.
    3000022    2    5    5    0    0  0.19710549340E+02 -0.41832604596E+02  0.19856277615E+02  0.50326998954E+02  0.25000083843E+00 0.  0.
        -13    1    4    4    0    0 -0.85895811039E+01  0.13776332524E+02 -0.71228302767E+01  0.17728902321E+02  0.10500000000E+00 0.  1.
         13    1    4    4    0    0 -0.44957854124E+01  0.70539653682E+01 -0.36761212159E+01  0.91375820699E+01  0.10500000000E+00 0. -1.
    3000001    1    5    5    0    0  0.95943826170E-01 -0.10733130944E+02  0.56544352377E+01  0.12173000573E+02  0.10000000000E+01 0.  1.
        -13    1    6    6    0    0  0.11545842906E+02 -0.24478760852E+02  0.11690311836E+02  0.29482039229E+02  0.10500000000E+00 0.  1.
         13    1    6    6    0    0  0.81647064336E+01 -0.17353843744E+02  0.81659657788E+01  0.20844959725E+02  0.10500000000E+00 0. -1.
</event>
<event>
11    0  0.3485800E-009  0.9118800E+02  0.7816531E-02  0.1126479E+00
         25   -1    0    0    0    0  0.00000000000E+00  0.00000000000E+00  0.99999998245E-14  0.12500000000E+03  0.12500000000E+03 0.  0.
    3000001    1    3    3    0    0 -0.31302133373E+02 -0.66067927398E+01  0.20310413859E+02  0.37907600493E+02  0.10000000000E+01 0.  1.
    1000022    2    1    0    0    0 -0.54661206994E+02 -0.11608291469E+02  0.26146697498E+02  0.62499998009E+02  0.99999990139E+01 0.  0.
    3000022    2    3    3    0    0 -0.23359073620E+02 -0.50014987290E+01  0.58362836387E+01  0.24592397516E+02  0.24999786412E+00 0.  0.
    1000022    2    1    0    0    0  0.54661206994E+02  0.11608291469E+02 -0.26146697498E+02  0.62500001991E+02  0.10000023897E+02 0.  0.
    3000022    2    5    5    0    0  0.36869175011E+02  0.60297658102E+01 -0.22054962447E+02  0.43384075481E+02  0.24999013067E+00 0.  0.
        -13    1    4    4    0    0 -0.10556132622E+02 -0.21930076465E+01  0.26459255361E+01  0.11101944218E+02  0.10500000000E+00 0. -1.
         13    1    4    4    0    0 -0.12802940999E+02 -0.28084910826E+01  0.31903581026E+01  0.13490453298E+02  0.10500000000E+00 0.  1.
    3000001    1    5    5    0    0  0.17792031983E+02  0.55785256586E+01 -0.40917350509E+01  0.19115926510E+02  0.10000000000E+01 0.  1.
        -13    1    6    6    0    0  0.19108322464E+02  0.30814712105E+01 -0.11365692009E+02  0.22445788738E+02  0.10500000000E+00 0. -1.
         13    1    6    6    0    0  0.17760852547E+02  0.29482945997E+01 -0.10689270438E+02  0.20938286743E+02  0.10500000000E+00 0.  1.
</event>
<event>
11    0  0.3485800E-009  0.9118800E+02  0.7816531E-02  0.1126479E+00
         25   -1    0    0    0    0  0.00000000000E+00  0.00000000000E+00  0.99999998245E-14  0.12500000000E+03  0.12500000000E+03 0.  0.
    3000001    1    3    3    0    0 -0.36717460209E+02 -0.13850478060E+02 -0.35819639768E+02  0.53141831167E+02  0.10000000000E+01 0. -1.
    1000022    2    1    0    0    0 -0.39613043604E+02 -0.16858590138E+02 -0.44191001850E+02  0.62500001339E+02  0.10000011896E+02 0.  0.
    3000022    2    3    3    0    0 -0.28955833944E+01 -0.30081120777E+01 -0.83713620819E+01  0.93581701719E+01  0.25000878710E+00 0.  0.
    1000022    2    1    0    0    0  0.39613043604E+02  0.16858590138E+02  0.44191001850E+02  0.62499998661E+02  0.99999951542E+01 0.  0.
    3000022    2    5    5    0    0  0.30512763770E+02  0.15779969288E+02  0.38795066660E+02  0.51818489752E+02  0.24999882133E+00 0.  0.
        -13    1    4    4    0    0 -0.67398684681E+00 -0.71545143376E+00 -0.19531720703E+01  0.21890717576E+01  0.10500000000E+00 0.  1.
         13    1    4    4    0    0 -0.22215965476E+01 -0.22926606439E+01 -0.64181900116E+01  0.71690984143E+01  0.10500000000E+00 0. -1.
    3000001    1    5    5    0    0  0.91002798338E+01  0.10786208498E+01  0.53959351902E+01  0.10681508909E+02  0.10000000000E+01 0.  1.
        -13    1    6    6    0    0  0.16930782095E+02  0.88299081259E+01  0.21578634914E+02  0.28814357006E+02  0.10500000000E+00 0.  1.
         13    1    6    6    0    0  0.13581981674E+02  0.69500611624E+01  0.17216431745E+02  0.23004132746E+02  0.10500000000E+00 0. -1.
</event>
<event>
11    0  0.3485800E-009  0.9118800E+02  0.7816531E-02  0.1126479E+00
         25   -1    0    0    0    0  0.00000000000E+00  0.00000000000E+00  0.99999998245E-14  0.12500000000E+03  0.12500000000E+03 0.  0.
    3000001    1    3    3    0    0  0.11596132032E+02  0.24957275423E+02  0.92854538781E+01  0.29061237558E+02  0.10000000000E+01 0. -1.
    1000022    2    1    0    0    0  0.33542410481E+02  0.47506271782E+02  0.20598806911E+02  0.62499999940E+02  0.99999993456E+01 0.  0.
    3000022    2    3    3    0    0  0.21946278449E+02  0.22548996359E+02  0.11313353033E+02  0.33438762383E+02  0.24999661350E+00 0.  0.
    1000022    2    1    0    0    0 -0.33542410481E+02 -0.47506271782E+02 -0.20598806911E+02  0.62500000060E+02  0.10000000091E+02 0.  0.
    3000022    2    5    5    0    0 -0.66388463258E+00 -0.43700489778E+01  0.12571086739E+00  0.44290364298E+01  0.24997920009E+00 0.  0.
        -13    1    4    4    0    0  0.14636255659E+02  0.15102297433E+02  0.75307907013E+01  0.22338827208E+02  0.10500000000E+00 0. -1.
         13    1    4    4    0    0  0.73100227901E+01  0.74466989261E+01  0.37825623314E+01  0.11099935175E+02  0.10500000000E+00 0.  1.
    3000001    1    5    5    0    0 -0.32878525848E+02 -0.43136222804E+02 -0.20724517778E+02  0.58070963630E+02  0.10000000000E+01 0. -1.
        -13    1    6    6    0    0 -0.23290931043E+00 -0.12644108400E+01  0.52138127053E-01  0.12910170035E+01  0.10500000000E+00 0.  1.
         13    1    6    6    0    0 -0.43097532215E+00 -0.31056381378E+01  0.73572740341E-01  0.31380194262E+01  0.10500000000E+00 0. -1.
</event>
<event>
11    0  0.3485800E-009  0.9118800E+02  0.7816531E-02  0.1126479E+00
         25   -1    0    0    0    0  0.00000000000E+00  0.00000000000E+00  0.99999998245E-14  0.12500000000E+03  0.12500000000E+03 0.  0.
    3000001    1    3    3    0    0 -0.49340671996E+02  0.31656933468E+02 -0.54666994489E+01  0.58885890945E+02  0.10000000000E+01 0. -1.
    1000022    2    1    0    0    0 -0.50533104827E+02  0.35032418840E+02 -0.50383506412E+01  0.62499999904E+02  0.99999978770E+01 0.  0.
    3000022    2    3    3    0    0 -0.11924328315E+01  0.33754853728E+01  0.42834880767E+00  0.36141089588E+01  0.25000661019E+00 0.  0.
    1000022    2    1    0    0    0  0.50533104827E+02 -0.35032418840E+02  0.50383506412E+01  0.62500000096E+02  0.99999990754E+01 0.  0.
    3000022    2    5    5    0    0  0.17598467168E+02 -0.68263272469E+01  0.26241487073E+01  0.19059208992E+02  0.25000125803E+00 0.  0.
        -13    1    4    4    0    0 -0.26774143665E+00  0.81866233533E+00  0.10158248586E+00  0.87363464767E+00  0.10500000000E+00 0. -1.
         13    1    4    4    0    0 -0.92469139484E+00  0.25568230375E+01  0.32676632180E+00  0.27404743111E+01  0.10500000000E+00 0.  1.
    3000001    1    5    5    0    0  0.32934637659E+02 -0.28206091593E+02  0.24142019339E+01  0.43440791104E+02  0.10000000000E+01 0. -1.
        -13    1    6    6    0    0  0.11490742014E+02 -0.45163305968E+01  0.17075296778E+01  0.12464392351E+02  0.10500000000E+00 0.  1.
         13    1    6    6    0    0  0.61077251544E+01 -0.23099966501E+01  0.91661902952E+00  0.65948166411E+01  0.10500000000E+00 0. -1.
</event>
<event>
11    0  0.3485800E-009  0.9118800E+02  0.7816531E-02  0.1126479E+00
         25   -1    0    0    0    0  0.00000000000E+00  0.00000000000E+00  0.99999998245E-14  0.12500000000E+03  0.12500000000E+03 0.  0.
    3000001    1    3    3    0    0  0.11425145307E+02  0.30895896029E+02 -0.48009603844E+02  0.58232399899E+02  0.10000000000E+01 0.  1.
    1000022    2    1    0    0    0  0.12206585912E+02  0.30562236572E+02 -0.52184275237E+02  0.62499994105E+02  0.99999818642E+01 0.  0.
    3000022    2    3    3    0    0  0.78144060559E+00 -0.33365945710E+00 -0.41746713928E+01  0.42675942067E+01  0.25000204388E+00 0.  0.
    1000022    2    1    0    0    0 -0.12206585912E+02 -0.30562236572E+02  0.52184275237E+02  0.62500005895E+02  0.10000055549E+02 0.  0.
    3000022    2    5    5    0    0 -0.55289420272E+01 -0.18125898219E+02  0.37999975008E+02  0.42463843277E+02  0.24999808796E+00 0.  0.
        -13    1    4    4    0    0  0.54609729144E+00 -0.26600653319E+00 -0.30659945938E+01  0.31273518472E+01  0.10500000000E+00 0. -1.
         13    1    4    4    0    0  0.23534331416E+00 -0.67652923912E-01 -0.11086767990E+01  0.11402423595E+01  0.10500000000E+00 0.  1.
    3000001    1    5    5    0    0 -0.66776438852E+01 -0.12436338352E+02  0.14184300228E+02  0.20036162618E+02  0.10000000000E+01 0. -1.
        -13    1    6    6    0    0 -0.42011859532E+01 -0.13805921485E+02  0.28970059243E+02  0.32365549416E+02  0.10500000000E+00 0.  1.
         13    1    6    6    0    0 -0.13277560741E+01 -0.43199767348E+01  0.90299157649E+01  0.10098293861E+02  0.10500000000E+00 0. -1.
</event>
<event>
11    0  0.3485800E-009  0.9118800E+02  0.7816531E-02  0.1126479E+00
         25   -1    0    0    0    0  0.00000000000E+00  0.00000000000E+00  0.99999998245E-14  0.12500000000E+03  0.12500000000E+03 0.  0.
    3000001    1    3    3    0    0 -0.14876724562E+02 -0.12547091522E+01  0.47357248236E+02  0.49664878830E+02  0.10000000000E+01 0. -1.
    1000022    2    1    0    0    0 -0.16474049011E+02  0.29314076052E+01  0.59382341342E+02  0.62500001894E+02  0.10000016611E+02 0.  0.
    3000022    2    3    3    0    0 -0.15973244498E+01  0.41861167574E+01  0.12025093106E+02  0.12835123065E+02  0.25000194482E+00 0.  0.
    1000022    2    1    0    0    0  0.16474049011E+02 -0.29314076052E+01 -0.59382341342E+02  0.62499998106E+02  0.99999929305E+01 0.  0.
    3000022    2    5    5    0    0  0.56558764667E+01  0.27836351501E+01 -0.12048546715E+02  0.13600277404E+02  0.25000855296E+00 0.  0.
        -13    1    4    4    0    0 -0.47713565619E+00  0.11545642505E+01  0.33040274364E+01  0.35338787958E+01  0.10500000000E+00 0. -1.
         13    1    4    4    0    0 -0.11201887936E+01  0.30315525068E+01  0.87210656695E+01  0.93012442687E+01  0.10500000000E+00 0.  1.
    3000001    1    5    5    0    0  0.10818172545E+02 -0.57150427553E+01 -0.47333794627E+02  0.48899720701E+02  0.10000000000E+01 0. -1.
        -13    1    6    6    0    0  0.16461496517E+01  0.78131671843E+00 -0.34131796027E+01  0.38705405941E+01  0.10500000000E+00 0.  1.
         13    1    6    6    0    0  0.40097268151E+01  0.20023184317E+01 -0.86353671121E+01  0.97297368102E+01  0.10500000000E+00 0. -1.
</event>
<event>
11    0  0.3485800E-009  0.9118800E+02  0.7816531E-02  0.1126479E+00
         25   -1    0    0    0    0  0.00000000000E+00  0.00000000000E+00  0.99999998245E-14  0.12500000000E+03  0.12500000000E+03 0.  0.
    3000001    1    3    3    0    0  0.13502924459E+01 -0.22532307543E+02 -0.52180487603E+01  0.23189571056E+02  0.10000000000E+01 0. -1.
    1000022    2    1    0    0    0  0.12036959626E+02 -0.56125495697E+02 -0.22611730574E+02  0.62499999878E+02  0.99999980491E+01 0.  0.
    3000022    2    3    3    0    0  0.10686667180E+02 -0.33593188154E+02 -0.17393681813E+02  0.39310428822E+02  0.25000279409E+00 0.  0.
    1000022    2    1    0    0    0 -0.12036959626E+02  0.56125495697E+02  0.22611730574E+02  0.62500000122E+02  0.99999995680E+01 0.  0.
    3000022    2    5    5    0    0 -0.10978840908E+02  0.55131390930E+02  0.22925245333E+02  0.60709427304E+02  0.24995301128E+00 0.  0.
        -13    1    4    4    0    0  0.36729317387E+01 -0.11687154801E+02 -0.60850599505E+01  0.13679144509E+02  0.10500000000E+00 0. -1.
         13    1    4    4    0    0  0.70137354411E+01 -0.21906033353E+02 -0.11308621863E+02  0.25631284313E+02  0.10500000000E+00 0.  1.
    3000001    1    5    5    0    0 -0.10581187177E+01  0.99410476774E+00 -0.31351475940E+00  0.17905728174E+01  0.10000000000E+01 0.  1.
        -13    1    6    6    0    0 -0.53993638443E+01  0.27412943356E+02  0.11431336342E+02  0.30187896066E+02  0.10500000000E+00 0.  1.
         13    1    6    6    0    0 -0.55794770636E+01  0.27718447574E+02  0.11493908991E+02  0.30521531238E+02  0.10500000000E+00 0. -1.
</event>
<event>
11    0  0.3485800E-009  0.9118800E+02  0.7816531E-02  0.1126479E+00
         25   -1    0    0    0    0  0.00000000000E+00  0.00000000000E+00  0.99999998245E-14  0.12500000000E+03  0.12500000000E+03 0.  0.
    3000001    1    3    3    0    0 -0.10666121381E+02 -0.74680797953E+01  0.71439955352E+01  0.14885396647E+02  0.10000000000E+01 0.  1.
    1000022    2    1    0    0    0 -0.54455107509E+02 -0.22225749624E+02  0.18625449415E+02  0.62499999375E+02  0.99999937904E+01 0.  0.
    3000022    2    3    3    0    0 -0.43788986128E+02 -0.14757669829E+02  0.11481453880E+02  0.47614602728E+02  0.24996965406E+00 0.  0.
    1000022    2    1    0    0    0  0.54455107509E+02  0.22225749624E+02 -0.18625449415E+02  0.62500000625E+02  0.10000001601E+02 0.  0.
    3000022    2    5    5    0    0  0.46076742711E+02  0.20158662010E+02 -0.12364749925E+02  0.51791769865E+02  0.25002435780E+00 0.  0.
        -13    1    4    4    0    0 -0.14848643467E+02 -0.50597641494E+01  0.38825004776E+01  0.16160701130E+02  0.10500000000E+00 0.  1.
         13    1    4    4    0    0 -0.28940342661E+02 -0.96979056796E+01  0.75989534026E+01  0.31453901598E+02  0.10500000000E+00 0. -1.
    3000001    1    5    5    0    0  0.83783647981E+01  0.20670876145E+01 -0.62606994906E+01  0.10708230760E+02  0.10000000000E+01 0. -1.
        -13    1    6    6    0    0  0.23203598196E+02  0.10196926575E+02 -0.61759231740E+01  0.26087110474E+02  0.10500000000E+00 0. -1.
         13    1    6    6    0    0  0.22873144514E+02  0.99617354351E+01 -0.61888267507E+01  0.25704659391E+02  0.10500000000E+00 0.  1.
</event>
<event>
11    0  0.3485800E-009  0.9118800E+02  0.7816531E-02  0.1126479E+00
         25   -1    0    0    0    0  0.00000000000E+00  0.00000000000E+00  0.99999998245E-14  0.12500000000E+03  0.12500000000E+03 0.  0.
    3000001    1    3    3    0    0  0.22272421716E+01  0.31111821658E+01 -0.22419813223E+00  0.39611017359E+01  0.10000000000E+01 0.  1.
    1000022    2    1    0    0    0  0.29762828667E+02  0.39378343437E+02 -0.37010402695E+02  0.62500002195E+02  0.10000023234E+02 0.  0.
    3000022    2    3    3    0    0  0.27535586495E+02  0.36267161271E+02 -0.36786204563E+02  0.58538900459E+02  0.25002111684E+00 0.  0.
    1000022    2    1    0    0    0 -0.29762828667E+02 -0.39378343437E+02  0.37010402695E+02  0.62499997805E+02  0.99999957923E+01 0.  0.
    3000022    2    5    5    0    0 -0.12283486527E+02 -0.16144826862E+02  0.21385696065E+02  0.29477957417E+02  0.25000327072E+00 0.  0.
        -13    1    4    4    0    0  0.11048909529E+02  0.14448890950E+02 -0.14685837511E+02  0.23378060224E+02  0.10500000000E+00 0. -1.
         13    1    4    4    0    0  0.16486676966E+02  0.21818270321E+02 -0.22100367052E+02  0.35160840235E+02  0.10500000000E+00 0.  1.
    3000001    1    5    5    0    0 -0.17479342140E+02 -0.23233516575E+02  0.15624706630E+02  0.33022040387E+02  0.10000000000E+01 0. -1.
        -13    1    6    6    0    0 -0.94310637916E+01 -0.12381012833E+02  0.16395209875E+02  0.22606379074E+02  0.10500000000E+00 0.  1.
         13    1    6    6    0    0 -0.28524227350E+01 -0.37638140294E+01  0.49904861904E+01  0.68715783429E+01  0.10500000000E+00 0. -1.
</event>
<event>
11    0  0.3485800E-009  0.9118800E+02  0.7816531E-02  0.1126479E+00
         25   -1    0    0    0    0  0.00000000000E+00  0.00000000000E+00  0.99999998245E-14  0.12500000000E+03  0.12500000000E+03 0.  0.
    3000001    1    3    3    0    0 -0.32038434822E+02 -0.25859433404E+02 -0.26443842147E+02  0.48943318127E+02  0.10000000000E+01 0.  1.
    1000022    2    1    0    0    0 -0.38276921174E+02 -0.36838426132E+02 -0.31369697304E+02  0.62499997015E+02  0.99999691729E+01 0.  0.
    3000022    2    3    3    0    0 -0.62384863521E+01 -0.10978992728E+02 -0.49258551568E+01  0.13556678887E+02  0.25000028621E+00 0.  0.
    1000022    2    1    0    0    0  0.38276921174E+02  0.36838426132E+02  0.31369697304E+02  0.62500002985E+02  0.10000006492E+02 0.  0.
    3000022    2    5    5    0    0  0.33139235999E+02  0.28054013326E+02  0.22204602656E+02  0.48768263212E+02  0.24998259422E+00 0.  0.
        -13    1    4    4    0    0 -0.32635319579E+01 -0.58507091276E+01 -0.25685028579E+01  0.71756302905E+01  0.10500000000E+00 0.  1.
         13    1    4    4    0    0 -0.29749543942E+01 -0.51282836004E+01 -0.23573522989E+01  0.63810485968E+01  0.10500000000E+00 0. -1.
    3000001    1    5    5    0    0  0.51376851744E+01  0.87844128059E+01  0.91650946486E+01  0.13731739774E+02  0.10000000000E+01 0. -1.
        -13    1    6    6    0    0  0.24145835410E+02  0.20464728735E+02  0.16221684004E+02  0.35566565012E+02  0.10500000000E+00 0. -1.
         13    1    6    6    0    0  0.89934005897E+01  0.75892845905E+01  0.59829186518E+01  0.13201698200E+02  0.10500000000E+00 0.  1.
</event>
<event>
11    0  0.3485800E-009  0.9118800E+02  0.7816531E-02  0.1126479E+00
         25   -1    0    0    0    0  0.00000000000E+00  0.00000000000E+00  0.99999998245E-14  0.12500000000E+03  0.12500000000E+03 0.  0.
    3000001    1    3    3    0    0 -0.50652993731E+01 -0.22669857214E+01 -0.95639493682E+01  0.11102504651E+02  0.10000000000E+01 0.  1.
    1000022    2    1    0    0    0 -0.29846457482E+02 -0.31186376602E+02 -0.44077757887E+02  0.62499999197E+02  0.10000002474E+02 0.  0.
    3000022    2    3    3    0    0 -0.24781158109E+02 -0.28919390881E+02 -0.34513808518E+02  0.51397494546E+02  0.25000205635E+00 0.  0.
    1000022    2    1    0    0    0  0.29846457482E+02  0.31186376602E+02  0.44077757887E+02  0.62500000803E+02  0.10000012513E+02 0.  0.
    3000022    2    5    5    0    0  0.19878189779E+02  0.18746408788E+02  0.21133122596E+02  0.34543329885E+02  0.24999506777E+00 0.  0.
        -13    1    4    4    0    0 -0.18770446552E+02 -0.21929419667E+02 -0.26177415675E+02  0.38967899958E+02  0.10500000000E+00 0.  1.
         13    1    4    4    0    0 -0.60107115568E+01 -0.69899712142E+01 -0.83363928435E+01  0.12429594589E+02  0.10500000000E+00 0. -1.
    3000001    1    5    5    0    0  0.99682677032E+01  0.12439967814E+02  0.22944635290E+02  0.27956670918E+02  0.10000000000E+01 0. -1.
        -13    1    6    6    0    0  0.10002082380E+02  0.95244542968E+01  0.10696803791E+02  0.17469674236E+02  0.10500000000E+00 0. -1.
         13    1    6    6    0    0  0.98761073992E+01  0.92219544912E+01  0.10436318806E+02  0.17073655649E+02  0.10500000000E+00 0.  1.
</event>
<event>
11    0  0.3485800E-009  0.9118800E+02  0.7816531E-02  0.1126479E+00
         25   -1    0    0    0    0  0.00000000000E+00  0.00000000000E+00  0.99999998245E-14  0.12500000000E+03  0.12500000000E+03 0.  0.
    3000001    1    3    3    0    0 -0.22797593141E+02  0.43208292352E+02  0.24124402677E+02  0.54494711537E+02  0.10000000000E+01 0. -1.
    1000022    2    1    0    0    0 -0.29117521016E+02  0.47408034961E+02  0.26662662256E+02  0.62499996205E+02  0.10000007902E+02 0.  0.
    3000022    2    3    3    0    0 -0.63199278746E+01  0.41997426096E+01  0.25382595792E+01  0.80052846681E+01  0.24998919637E+00 0.  0.
    1000022    2    1    0    0    0  0.29117521016E+02 -0.47408034961E+02 -0.26662662256E+02  0.62500003795E+02  0.10000055338E+02 0.  0.
    3000022    2    5    5    0    0  0.25495577923E+02 -0.33412617132E+02 -0.19402460306E+02  0.46291958745E+02  0.25000253968E+00 0.  0.
        -13    1    4    4    0    0 -0.33797860206E+01  0.22009512140E+01  0.12899883282E+01  0.42358275081E+01  0.10500000000E+00 0.  1.
         13    1    4    4    0    0 -0.29401418540E+01  0.19987913957E+01  0.12482712509E+01  0.37694571600E+01  0.10500000000E+00 0. -1.
    3000001    1    5    5    0    0  0.36219430929E+01 -0.13995417829E+02 -0.72602019504E+01  0.16208045050E+02  0.10000000000E+01 0.  1.
        -13    1    6    6    0    0  0.10055492519E+02 -0.13079387925E+02 -0.75971296522E+01  0.18163444669E+02  0.10500000000E+00 0.  1.
         13    1    6    6    0    0  0.15440085404E+02 -0.20333229207E+02 -0.11805330654E+02  0.28128514076E+02  0.10500000000E+00 0. -1.
</event>
<event>
11    0  0.3485800E-009  0.9118800E+02  0.7816531E-02  0.1126479E+00
         25   -1    0    0    0    0  0.00000000000E+00  0.00000000000E+00  0.99999998245E-14  0.12500000000E+03  0.12500000000E+03 0.  0.
    3000001    1    3    3    0    0  0.50660482805E+02 -0.16722569016E+02  0.14931611873E+02  0.55408319462E+02  0.10000000000E+01 0.  1.
    1000022    2    1    0    0    0  0.57553333378E+02 -0.17616858928E+02  0.13546587646E+02  0.62499999690E+02  0.10000001151E+02 0.  0.
    3000022    2    3    3    0    0  0.68928505731E+01 -0.89428991169E+00 -0.13850242268E+01  0.70916802277E+01  0.24998574905E+00 0.  0.
    1000022    2    1    0    0    0 -0.57553333378E+02  0.17616858928E+02 -0.13546587646E+02  0.62500000310E+02  0.10000005023E+02 0.  0.
    3000022    2    5    5    0    0 -0.18278156151E+02  0.14868611744E+01 -0.17593062781E+01  0.18424424581E+02  0.25002828322E+00 0.  0.
        -13    1    4    4    0    0  0.32434180002E+01 -0.37735743448E+00 -0.70349043188E+00  0.33418681520E+01  0.10500000000E+00 0. -1.
         13    1    4    4    0    0  0.36494325729E+01 -0.51693247721E+00 -0.68153379487E+00  0.37498120757E+01  0.10500000000E+00 0.  1.
    3000001    1    5    5    0    0 -0.39275177228E+02  0.16129997753E+02 -0.11787281368E+02  0.44075575729E+02  0.10000000000E+01 0.  1.
        -13    1    6    6    0    0 -0.67593552764E+01  0.56444947267E+00 -0.70875670809E+00  0.68206193290E+01  0.10500000000E+00 0.  1.
         13    1    6    6    0    0 -0.11518800874E+02  0.92241170176E+00 -0.10505495700E+01  0.11603805252E+02  0.10500000000E+00 0. -1.
</event>
<event>
11    0  0.3485800E-009  0.9118800E+02  0.7816531E-02  0.1126479E+00
         25   -1    0    0    0    0  0.00000000000E+00  0.00000000000E+00  0.99999998245E-14  0.12500000000E+03  0.12500000000E+03 0.  0.
    3000001    1    3    3    0    0 -0.38909409844E+01  0.59310665168E+01 -0.76313974984E+01  0.10466861972E+02  0.10000000000E+01 0. -1.
    1000022    2    1    0    0    0 -0.28692305017E+02  0.46855069777E+02 -0.28064287675E+02  0.62499997601E+02  0.99999763177E+01 0.  0.
    3000022    2    3    3    0    0 -0.24801364033E+02  0.40924003261E+02 -0.20432890176E+02  0.52033135628E+02  0.25000318964E+00 0.  0.
    1000022    2    1    0    0    0  0.28692305017E+02 -0.46855069777E+02  0.28064287675E+02  0.62500002399E+02  0.10000006309E+02 0.  0.
    3000022    2    5    5    0    0  0.24699378966E+02 -0.33296856814E+02  0.18460587402E+02  0.45382769675E+02  0.25000224001E+00 0.  0.
        -13    1    4    4    0    0 -0.17503108251E+02  0.28961007252E+02 -0.14433179163E+02  0.36788944334E+02  0.10500000000E+00 0. -1.
         13    1    4    4    0    0 -0.72982557819E+01  0.11962996009E+02 -0.59997110134E+01  0.15244191294E+02  0.10500000000E+00 0.  1.
    3000001    1    5    5    0    0  0.39929260506E+01 -0.13558212964E+02  0.96037002732E+01  0.17117232725E+02  0.10000000000E+01 0. -1.
        -13    1    6    6    0    0  0.18993793024E+02 -0.25592910244E+02  0.14197759575E+02  0.34890523500E+02  0.10500000000E+00 0.  1.
         13    1    6    6    0    0  0.57055859427E+01 -0.77039465703E+01  0.42628278266E+01  0.10492246175E+02  0.10500000000E+00 0. -1.
</event>
<event>
11    0  0.3485800E-009  0.9118800E+02  0.7816531E-02  0.1126479E+00
         25   -1    0    0    0    0  0.00000000000E+00  0.00000000000E+00  0.99999998245E-14  0.12500000000E+03  0.12500000000E+03 0.  0.
    3000001    1    3    3    0    0 -0.24507494084E+01 -0.19246914458E+01  0.34972708607E+01  0.47897299817E+01  0.10000000000E+01 0. -1.
    1000022    2    1    0    0    0 -0.16379083382E+02 -0.50045611623E+02  0.32146735069E+02  0.62500004100E+02  0.10000016087E+02 0.  0.
    3000022    2    3    3    0    0 -0.13928333973E+02 -0.48120920177E+02  0.28649464208E+02  0.57710274118E+02  0.24998678556E+00 0.  0.
    1000022    2    1    0    0    0  0.16379083382E+02  0.50045611623E+02 -0.32146735069E+02  0.62499995900E+02  0.99999648425E+01 0.  0.
    3000022    2    5    5    0    0 -0.10881931631E+01  0.45375250320E+01 -0.43127630788E+01  0.63589085242E+01  0.24998893764E+00 0.  0.
        -13    1    4    4    0    0 -0.60465112384E+01 -0.21078693146E+02  0.12494701979E+02  0.25238862998E+02  0.10500000000E+00 0.  1.
         13    1    4    4    0    0 -0.78818227351E+01 -0.27042227031E+02  0.16154762230E+02  0.32471411120E+02  0.10500000000E+00 0. -1.
    3000001    1    5    5    0    0  0.17467276545E+02  0.45508086591E+02 -0.27833971990E+02  0.56141087376E+02  0.10000000000E+01 0. -1.
        -13    1    6    6    0    0 -0.52079528538E+00  0.21490857252E+01 -0.21356943809E+01  0.30760384705E+01  0.10500000000E+00 0.  1.
         13    1    6    6    0    0 -0.56739787777E+00  0.23884393068E+01 -0.21770686980E+01  0.32828700538E+01  0.10500000000E+00 0. -1.
</event>
<event>
11    0  0.3485800E-009  0.9118800E+02  0.7816531E-02  0.1126479E+00
         25   -1    0    0    0    0  0.00000000000E+00  0.00000000000E+00  0.99999998245E-14  0.12500000000E+03  0.12500000000E+03 0.  0.
    3000001    1    3    3    0    0 -0.12207482682E+02 -0.10863917772E+01 -0.32047429248E+01  0.12707212823E+02  0.10000000000E+01 0. -1.
    1000022    2    1    0    0    0 -0.59298757474E+02 -0.17021446150E+02 -0.42181980582E+00  0.62499996262E+02  0.99999666956E+01 0.  0.
    3000022    2    3    3    0    0 -0.47091274792E+02 -0.15935054372E+02  0.27829231190E+01  0.49792783439E+02  0.25000433503E+00 0.  0.
    1000022    2    1    0    0    0  0.59298757474E+02  0.17021446150E+02  0.42181980582E+00  0.62500003738E+02  0.10000013415E+02 0.  0.
    3000022    2    5    5    0    0  0.32556981537E+02  0.44726186935E+01  0.17827662496E+01  0.32912036149E+02  0.25000644188E+00 0.  0.
        -13    1    4    4    0    0 -0.13562583799E+02 -0.46331941456E+01  0.79345613052E+00  0.14354468466E+02  0.10500000000E+00 0. -1.
         13    1    4    4    0    0 -0.33528690992E+02 -0.11301860227E+02  0.19894669884E+01  0.35438314973E+02  0.10500000000E+00 0.  1.
    3000001    1    5    5    0    0  0.26741775937E+02  0.12548827456E+02 -0.13609464438E+01  0.29587967588E+02  0.10000000000E+01 0. -1.
        -13    1    6    6    0    0  0.11439743511E+02  0.15266074204E+01  0.66126337414E+00  0.11560560370E+02  0.10500000000E+00 0.  1.
         13    1    6    6    0    0  0.21117238026E+02  0.29460112730E+01  0.11215028755E+01  0.21351475779E+02  0.10500000000E+00 0. -1.
</event>
<event>
11    0  0.3485800E-009  0.9118800E+02  0.7816531E-02  0.1126479E+00
         25   -1    0    0    0    0  0.00000000000E+00  0.00000000000E+00  0.99999998245E-14  0.12500000000E+03  0.12500000000E+03 0.  0.
    3000001    1    3    3    0    0 -0.86269783055E+00 -0.23986880117E+01  0.54581011063E+01  0.61064571898E+01  0.10000000000E+01 0.  1.
    1000022    2    1    0    0    0  0.16436878968E+02 -0.11011000828E+02  0.58436604907E+02  0.62499999767E+02  0.10000002414E+02 0.  0.
    3000022    2    3    3    0    0  0.17299576799E+02 -0.86123128168E+01  0.52978503801E+02  0.56393542577E+02  0.24997979218E+00 0.  0.
    1000022    2    1    0    0    0 -0.16436878968E+02  0.11011000828E+02 -0.58436604907E+02  0.62500000233E+02  0.10000005331E+02 0.  0.
    3000022    2    5    5    0    0 -0.12944919183E+02  0.91757965913E+01 -0.31644805151E+02  0.35400880471E+02  0.24993862750E+00 0.  0.
        -13    1    4    4    0    0  0.10872114833E+02 -0.54098082715E+01  0.33464647550E+02  0.35600036055E+02  0.10500000000E+00 0.  1.
         13    1    4    4    0    0  0.64274619662E+01 -0.32025045453E+01  0.19513856251E+02  0.20793506521E+02  0.10500000000E+00 0. -1.
    3000001    1    5    5    0    0 -0.34919597855E+01  0.18352042372E+01 -0.26791799756E+02  0.27099119763E+02  0.10000000000E+01 0. -1.
        -13    1    6    6    0    0 -0.49452175476E+01  0.35797138927E+01 -0.12195660064E+02  0.13638719792E+02  0.10500000000E+00 0.  1.
         13    1    6    6    0    0 -0.79997016350E+01  0.55960826986E+01 -0.19449145087E+02  0.21762160679E+02  0.10500000000E+00 0. -1.
</event>
<event>
11    0  0.3485800E-009  0.9118800E+02  0.7816531E-02  0.1126479E+00
         25   -1    0    0    0    0  0.00000000000E+00  0.00000000000E+00  0.99999998245E-14  0.12500000000E+03  0.12500000000E+03 0.  0.
    3000001    1    3    3    0    0 -0.30772287130E+01  0.21876128187E+01 -0.22711564284E+01  0.45180900743E+01  0.10000000000E+01 0. -1.
    1000022    2    1    0    0    0 -0.18925654662E+02  0.52876042520E+02 -0.25538083226E+02  0.62500000126E+02  0.10000002201E+02 0.  0.
    3000022    2    3    3    0    0 -0.15848425949E+02  0.50688429701E+02 -0.23266926798E+02  0.57981910052E+02  0.25000015103E+00 0.  0.
    1000022    2    1    0    0    0  0.18925654662E+02 -0.52876042520E+02  0.25538083226E+02  0.62499999874E+02  0.10000000622E+02 0.  0.
    3000022    2    5    5    0    0  0.11102622300E+02 -0.17077614940E+02  0.84043079261E+01  0.22036516231E+02  0.25000378427E+00 0.  0.
        -13    1    4    4    0    0 -0.67573084790E+01  0.21828448569E+02 -0.10023145369E+02  0.24952291536E+02  0.10500000000E+00 0. -1.
         13    1    4    4    0    0 -0.90911174700E+01  0.28859981132E+02 -0.13243781429E+02  0.33029618516E+02  0.10500000000E+00 0.  1.
    3000001    1    5    5    0    0  0.78230323623E+01 -0.35798427580E+02  0.17133775300E+02  0.40463483643E+02  0.10000000000E+01 0. -1.
        -13    1    6    6    0    0  0.45357262678E+01 -0.70051585924E+01  0.33762376273E+01  0.90030586579E+01  0.10500000000E+00 0.  1.
         13    1    6    6    0    0  0.65668960319E+01 -0.10072456348E+02  0.50280702988E+01  0.13033457573E+02  0.10500000000E+00 0. -1.
</event>
<event>
11    0  0.3485800E-009  0.9118800E+02  0.7816531E-02  0.1126479E+00
         25   -1    0    0    0    0  0.00000000000E+00  0.00000000000E+00  0.99999998245E-14  0.12500000000E+03  0.12500000000E+03 0.  0.
    3000001    1    3    3    0    0 -0.21703618426E+02  0.17137425128E+02 -0.47704708967E+00  0.27676090163E+02  0.10000000000E+01 0. -1.
    1000022    2    1    0    0    0 -0.52183487641E+02  0.31650814006E+02 -0.90199530288E+01  0.62499999018E+02  0.99999957544E+01 0.  0.
    3000022    2    3    3    0    0 -0.30479869215E+02  0.14513388878E+02 -0.85429059391E+01  0.34823908856E+02  0.25000401526E+00 0.  0.
    1000022    2    1    0    0    0  0.52183487641E+02 -0.31650814006E+02  0.90199530288E+01  0.62500000982E+02  0.10000008025E+02 0.  0.
    3000022    2    5    5    0    0  0.34466020784E+02 -0.21495500805E+02  0.10637055228E+02  0.41990148775E+02  0.25001332218E+00 0.  0.
        -13    1    4    4    0    0 -0.16731597303E+02  0.79938405305E+01 -0.47565249616E+01  0.19143755887E+02  0.10500000000E+00 0.  1.
         13    1    4    4    0    0 -0.13748271912E+02  0.65195483474E+01 -0.37863809775E+01  0.15680152969E+02  0.10500000000E+00 0. -1.
    3000001    1    5    5    0    0  0.17717466856E+02 -0.10155313201E+02 -0.16171021996E+01  0.20509852206E+02  0.10000000000E+01 0.  1.
        -13    1    6    6    0    0  0.16093529080E+02 -0.10106205664E+02  0.50106933196E+01  0.19653374868E+02  0.10500000000E+00 0.  1.
         13    1    6    6    0    0  0.18372491704E+02 -0.11389295141E+02  0.56263619088E+01  0.22336773907E+02  0.10500000000E+00 0. -1.
</event>
<event>
11    0  0.3485800E-009  0.9118800E+02  0.7816531E-02  0.1126479E+00
         25   -1    0    0    0    0  0.00000000000E+00  0.00000000000E+00  0.99999998245E-14  0.12500000000E+03  0.12500000000E+03 0.  0.
    3000001    1    3    3    0    0  0.47670086674E+02  0.23676150681E+02 -0.27589841798E+02  0.59959958681E+02  0.10000000000E+01 0.  1.
    1000022    2    1    0    0    0  0.49479169872E+02  0.25267532208E+02 -0.26825612995E+02  0.62500000214E+02  0.10000003950E+02 0.  0.
    3000022    2    3    3    0    0  0.18090831981E+01  0.15913815272E+01  0.76422880276E+00  0.25400415326E+01  0.24997628198E+00 0.  0.
    1000022    2    1    0    0    0 -0.49479169872E+02 -0.25267532208E+02  0.26825612995E+02  0.62499999786E+02  0.10000001281E+02 0.  0.
    3000022    2    5    5    0    0 -0.12100583687E+02 -0.26379519068E+01  0.89356238033E+01  0.15273859535E+02  0.24999298980E+00 0.  0.
        -13    1    4    4    0    0  0.10656368116E+01  0.97435400894E+00  0.51659541082E+00  0.15371543083E+01  0.10500000000E+00 0.  1.
         13    1    4    4    0    0  0.74344638649E+00  0.61702751829E+00  0.24763339195E+00  0.10028872243E+01  0.10500000000E+00 0. -1.
    3000001    1    5    5    0    0 -0.37378586185E+02 -0.22629580301E+02  0.17889989192E+02  0.47226140252E+02  0.10000000000E+01 0.  1.
        -13    1    6    6    0    0 -0.37648634408E+01 -0.86848744521E+00  0.28062204016E+01  0.47764385386E+01  0.10500000000E+00 0. -1.
         13    1    6    6    0    0 -0.83357202464E+01 -0.17694644616E+01  0.61294034016E+01  0.10497420996E+02  0.10500000000E+00 0.  1.
</event>
<event>
11    0  0.3485800E-009  0.9118800E+02  0.7816531E-02  0.1126479E+00
         25   -1    0    0    0    0  0.00000000000E+00  0.00000000000E+00  0.99999998245E-14  0.12500000000E+03  0.12500000000E+03 0.  0.
    3000001    1    3    3    0    0 -0.36466198601E+00  0.31350625327E+01 -0.91431933988E+01  0.97241750794E+01  0.10000000000E+01 0.  1.
    1000022    2    1    0    0    0 -0.20073461909E+01 -0.21920905795E+01 -0.61623172258E+02  0.62499999560E+02  0.99999943032E+01 0.  0.
    3000022    2    3    3    0    0 -0.16426842049E+01 -0.53271531123E+01 -0.52479978859E+02  0.52775824481E+02  0.24999379114E+00 0.  0.
    1000022    2    1    0    0    0  0.20073461909E+01  0.21920905795E+01  0.61623172258E+02  0.62500000440E+02  0.99999997983E+01 0.  0.
    3000022    2    5    5    0    0 -0.24454390127E+01  0.44376692466E+01  0.23669869200E+02  0.24207401512E+02  0.24999941760E+00 0.  0.
        -13    1    4    4    0    0 -0.11117248783E+01 -0.36736039587E+01 -0.36532502478E+02  0.36733718306E+02  0.10500000000E+00 0.  1.
         13    1    4    4    0    0 -0.53095932659E+00 -0.16535491536E+01 -0.15947476381E+02  0.16042106175E+02  0.10500000000E+00 0. -1.
    3000001    1    5    5    0    0  0.44527852035E+01 -0.22455786670E+01  0.37953303058E+02  0.38292598928E+02  0.10000000000E+01 0. -1.
        -13    1    6    6    0    0 -0.11502232135E+01  0.21998719183E+01  0.11787751664E+02  0.12046765714E+02  0.10500000000E+00 0. -1.
         13    1    6    6    0    0 -0.12952157992E+01  0.22377973283E+01  0.11882117536E+02  0.12160635797E+02  0.10500000000E+00 0.  1.
</event>
<event>
11    0  0.3485800E-009  0.9118800E+02  0.7816531E-02  0.1126479E+00
         25   -1    0    0    0    0  0.00000000000E+00  0.00000000000E+00  0.99999998245E-14  0.12500000000E+03  0.12500000000E+03 0.  0.
    3000001    1    3    3    0    0 -0.19621685909E+01  0.14981188146E+02  0.92665152215E+01  0.17752588774E+02  0.10000000000E+01 0. -1.
    1000022    2    1    0    0    0 -0.15824594509E+02  0.56076055050E+02  0.20280743435E+02  0.62499998275E+02  0.99999744411E+01 0.  0.
    3000022    2    3    3    0    0 -0.13862425918E+02  0.41094866904E+02  0.11014228214E+02  0.44747409501E+02  0.24999145474E+00 0.  0.
    1000022    2    1    0    0    0  0.15824594509E+02 -0.56076055050E+02 -0.20280743435E+02  0.62500001725E+02  0.99999959999E+01 0.  0.
    3000022    2    5    5    0    0  0.89311231912E+01 -0.19037530955E+02 -0.10785969845E+02  0.23634555124E+02  0.25000822215E+00 0.  0.
        -13    1    4    4    0    0 -0.88954508092E+01  0.26251490122E+02  0.69936053204E+01  0.28586558364E+02  0.10500000000E+00 0.  1.
         13    1    4    4    0    0 -0.49669751087E+01  0.14843376782E+02  0.40206228933E+01  0.16160851137E+02  0.10500000000E+00 0. -1.
    3000001    1    5    5    0    0  0.68934713176E+01 -0.37038524095E+02 -0.94947735905E+01  0.38865446600E+02  0.10000000000E+01 0.  1.
        -13    1    6    6    0    0  0.43365293016E+01 -0.91479103618E+01 -0.52534593272E+01  0.11406121614E+02  0.10500000000E+00 0.  1.
         13    1    6    6    0    0  0.45945938895E+01 -0.98896205933E+01 -0.55325105174E+01  0.12228433510E+02  0.10500000000E+00 0. -1.
</event>
<event>
11    0  0.3485800E-009  0.9118800E+02  0.7816531E-02  0.1126479E+00
         25   -1    0    0    0    0  0.00000000000E+00  0.00000000000E+00  0.99999998245E-14  0.12500000000E+03  0.12500000000E+03 0.  0.
    3000001    1    3    3    0    0 -0.87256826346E+01 -0.41720921695E+01  0.21472979769E+01  0.99576492764E+01  0.10000000000E+01 0. -1.
    1000022    2    1    0    0    0 -0.59814699506E+02 -0.45577775169E+01  0.14411052711E+02  0.62499999626E+02  0.99999950066E+01 0.  0.
    3000022    2    3    3    0    0 -0.51089016872E+02 -0.38568534743E+00  0.12263754734E+02  0.52542350350E+02  0.25000402511E+00 0.  0.
    1000022    2    1    0    0    0  0.59814699506E+02  0.45577775169E+01 -0.14411052711E+02  0.62500000374E+02  0.99999996782E+01 0.  0.
    3000022    2    5    5    0    0  0.10026427702E+02  0.15692045625E+01  0.12104652112E+01  0.10223472183E+02  0.25000402466E+00 0.  0.
        -13    1    4    4    0    0 -0.11761523885E+02 -0.89660253128E-01  0.28160698279E+01  0.12094740896E+02  0.10500000000E+00 0. -1.
         13    1    4    4    0    0 -0.39327492987E+02 -0.29602509430E+00  0.94476849060E+01  0.40447609454E+02  0.10500000000E+00 0.  1.
    3000001    1    5    5    0    0  0.49788271804E+02  0.29885729545E+01 -0.15621517922E+02  0.52276528191E+02  0.10000000000E+01 0. -1.
        -13    1    6    6    0    0  0.46005970937E+01  0.75502048284E+00  0.61396404730E+00  0.47035652859E+01  0.10500000000E+00 0.  1.
         13    1    6    6    0    0  0.54258306088E+01  0.81418407963E+00  0.59650116392E+00  0.55199068968E+01  0.10500000000E+00 0. -1.
</event>
<event>
11    0  0.3485800E-009  0.9118800E+02  0.7816531E-02  0.1126479E+00
         25   -1    0    0    0    0  0.00000000000E+00  0.00000000000E+00  0.99999998245E-14  0.12500000000E+03  0.12500000000E+03 0.  0.
    3000001    1    3    3    0    0 -0.44138302419E+01 -0.39551966451E+02 -0.25446701046E+02  0.47248010981E+02  0.10000000000E+01 0. -1.
    1000022    2    1    0    0    0 -0.56506041836E+01 -0.48458704878E+02 -0.37763400101E+02  0.62500000259E+02  0.10000011954E+02 0.  0.
    3000022    2    3    3    0    0 -0.12367739417E+01 -0.89067384269E+01 -0.12316699055E+02  0.15251989278E+02  0.25000425393E+00 0.  0.
    1000022    2    1    0    0    0  0.56506041836E+01  0.48458704878E+02  0.37763400101E+02  0.62499999741E+02  0.10000008716E+02 0.  0.
    3000022    2    5    5    0    0  0.82222075592E+01  0.40022297219E+02  0.29756027269E+02  0.50545747871E+02  0.24999424045E+00 0.  0.
        -13    1    4    4    0    0 -0.77564439503E+00 -0.51210635955E+01 -0.71141016616E+01  0.88004763524E+01  0.10500000000E+00 0. -1.
         13    1    4    4    0    0 -0.46112954671E+00 -0.37856748314E+01 -0.52025973936E+01  0.64515129255E+01  0.10500000000E+00 0.  1.
    3000001    1    5    5    0    0 -0.25716033756E+01  0.84364076593E+01  0.80073728317E+01  0.11954251870E+02  0.10000000000E+01 0.  1.
        -13    1    6    6    0    0  0.42146156093E+01  0.20595945138E+02  0.15391664802E+02  0.26055139824E+02  0.10500000000E+00 0.  1.
         13    1    6    6    0    0  0.40075919500E+01  0.19426352081E+02  0.14364362467E+02  0.24490608046E+02  0.10500000000E+00 0. -1.
</event>
<event>
11    0  0.3485800E-009  0.9118800E+02  0.7816531E-02  0.1126479E+00
         25   -1    0    0    0    0  0.00000000000E+00  0.00000000000E+00  0.99999998245E-14  0.12500000000E+03  0.12500000000E+03 0.  0.
    3000001    1    3    3    0    0  0.23898236465E+01  0.18721751200E+01 -0.24035498733E+01  0.39991685055E+01  0.10000000000E+01 0.  1.
    1000022    2    1    0    0    0  0.52197873104E+01  0.35049908877E+02 -0.50502552213E+02  0.62499999582E+02  0.99999937979E+01 0.  0.
    3000022    2    3    3    0    0  0.28299636638E+01  0.33177733757E+02 -0.48099002339E+02  0.58500831077E+02  0.24999813466E+00 0.  0.
    1000022    2    1    0    0    0 -0.52197873104E+01 -0.35049908877E+02  0.50502552213E+02  0.62500000418E+02  0.99999990167E+01 0.  0.
    3000022    2    5    5    0    0  0.36539316203E+00 -0.12229922231E+02  0.24853697502E+02  0.27703308341E+02  0.25000725392E+00 0.  0.
        -13    1    4    4    0    0  0.19857530565E+01  0.23667327448E+02 -0.34261098303E+02  0.41688361513E+02  0.10500000000E+00 0. -1.
         13    1    4    4    0    0  0.84421060738E+00  0.95104063094E+01 -0.13837904036E+02  0.16812469564E+02  0.10500000000E+00 0.  1.
    3000001    1    5    5    0    0 -0.55851804724E+01 -0.22819986646E+02  0.25648854711E+02  0.34796692076E+02  0.10000000000E+01 0.  1.
        -13    1    6    6    0    0  0.16558907858E+00 -0.71161162598E+01  0.14357108492E+02  0.16025109036E+02  0.10500000000E+00 0. -1.
         13    1    6    6    0    0  0.19980408345E+00 -0.51138059711E+01  0.10496589009E+02  0.11678199305E+02  0.10500000000E+00 0.  1.
</event>
<event>
11    0  0.3485800E-009  0.9118800E+02  0.7816531E-02  0.1126479E+00
         25   -1    0    0    0    0  0.00000000000E+00  0.00000000000E+00  0.99999998245E-14  0.12500000000E+03  0.12500000000E+03 0.  0.
    3000001    1    3    3    0    0 -0.58720791208E+01 -0.79445627030E+01 -0.12967894360E+02  0.16332901576E+02  0.10000000000E+01 0.  1.
    1000022    2    1    0    0    0 -0.33502382475E+02 -0.18209154253E+02 -0.48500175560E+02  0.62500000354E+02  0.10000004239E+02 0.  0.
    3000022    2    3    3    0    0 -0.27630303354E+02 -0.10264591550E+02 -0.35532281200E+02  0.46167098778E+02  0.24999842480E+00 0.  0.
    1000022    2    1    0    0    0  0.33502382475E+02  0.18209154253E+02  0.48500175560E+02  0.62499999646E+02  0.99999998154E+01 0.  0.
    3000022    2    5    5    0    0  0.17894003337E+02  0.98017847301E+01  0.33645187764E+02  0.39348843648E+02  0.24999494090E+00 0.  0.
        -13    1    4    4    0    0 -0.20141930656E+02 -0.74483559697E+01 -0.25914424059E+02  0.33656259099E+02  0.10500000000E+00 0. -1.
         13    1    4    4    0    0 -0.74883726987E+01 -0.28162355801E+01 -0.96178571405E+01  0.12510839680E+02  0.10500000000E+00 0.  1.
    3000001    1    5    5    0    0  0.15608379139E+02  0.84073695227E+01  0.14854987796E+02  0.23151155998E+02  0.10000000000E+01 0.  1.
        -13    1    6    6    0    0  0.12289909590E+02  0.67184461494E+01  0.23188549368E+02  0.27090574804E+02  0.10500000000E+00 0. -1.
         13    1    6    6    0    0  0.56040937465E+01  0.30833385807E+01  0.10456638396E+02  0.12258268844E+02  0.10500000000E+00 0.  1.
</event>
<event>
11    0  0.3485800E-009  0.9118800E+02  0.7816531E-02  0.1126479E+00
         25   -1    0    0    0    0  0.00000000000E+00  0.00000000000E+00  0.99999998245E-14  0.12500000000E+03  0.12500000000E+03 0.  0.
    3000001    1    3    3    0    0 -0.24769274365E+02  0.47479439569E+01 -0.52281727970E+02  0.58055482118E+02  0.10000000000E+01 0.  1.
    1000022    2    1    0    0    0 -0.28279834410E+02  0.63663311788E+01 -0.54460723521E+02  0.62499998888E+02  0.10000012382E+02 0.  0.
    3000022    2    3    3    0    0 -0.35105600451E+01  0.16183872219E+01 -0.21789955509E+01  0.44445167704E+01  0.24999736166E+00 0.  0.
    1000022    2    1    0    0    0  0.28279834410E+02 -0.63663311788E+01  0.54460723521E+02  0.62500001112E+02  0.10000026277E+02 0.  0.
    3000022    2    5    5    0    0  0.23998869482E+02 -0.86910814585E+01  0.42975728228E+02  0.49984560989E+02  0.24997437800E+00 0.  0.
        -13    1    4    4    0    0 -0.23410655102E+01  0.10494756937E+01 -0.14984259141E+01  0.29729265337E+01  0.10500000000E+00 0. -1.
         13    1    4    4    0    0 -0.11694945349E+01  0.56891152817E+00 -0.68056963674E+00  0.14715902366E+01  0.10500000000E+00 0.  1.
    3000001    1    5    5    0    0  0.42809649286E+01  0.23247502797E+01  0.11484995293E+02  0.12515440123E+02  0.10000000000E+01 0. -1.
        -13    1    6    6    0    0  0.14143505144E+02 -0.50595251681E+01  0.25341309523E+02  0.29458963424E+02  0.10500000000E+00 0. -1.
         13    1    6    6    0    0  0.98553643375E+01 -0.36315562905E+01  0.17634418705E+02  0.20525597565E+02  0.10500000000E+00 0.  1.
</event>
<event>
11    0  0.3485800E-009  0.9118800E+02  0.7816531E-02  0.1126479E+00
         25   -1    0    0    0    0  0.00000000000E+00  0.00000000000E+00  0.99999998245E-14  0.12500000000E+03  0.12500000000E+03 0.  0.
    3000001    1    3    3    0    0  0.15748341444E+02  0.49371136711E+01 -0.14586937944E+01  0.16598588411E+02  0.10000000000E+01 0.  1.
    1000022    2    1    0    0    0  0.51931285636E+02  0.29943114753E+02 -0.14587722346E+02  0.62499998337E+02  0.99999799978E+01 0.  0.
    3000022    2    3    3    0    0  0.36182944191E+02  0.25006001082E+02 -0.13129028552E+02  0.45901409926E+02  0.25000400633E+00 0.  0.
    1000022    2    1    0    0    0 -0.51931285636E+02 -0.29943114753E+02  0.14587722346E+02  0.62500001663E+02  0.10000000788E+02 0.  0.
    3000022    2    5    5    0    0 -0.25212904661E+02 -0.11623430916E+02  0.23803587224E+01  0.27866168141E+02  0.25002301715E+00 0.  0.
        -13    1    4    4    0    0  0.26842400995E+02  0.18581135566E+02 -0.97265256368E+01  0.34064489077E+02  0.10500000000E+00 0.  1.
         13    1    4    4    0    0  0.93405431968E+01  0.64248655157E+01 -0.34025029148E+01  0.11836920849E+02  0.10500000000E+00 0. -1.
    3000001    1    5    5    0    0 -0.26718380975E+02 -0.18319683837E+02  0.12207363624E+02  0.34633833522E+02  0.10000000000E+01 0.  1.
        -13    1    6    6    0    0 -0.16635692226E+02 -0.77268064004E+01  0.15886791067E+01  0.18411537668E+02  0.10500000000E+00 0. -1.
         13    1    6    6    0    0 -0.85772124349E+01 -0.38966245153E+01  0.79167961570E+00  0.94546304730E+01  0.10500000000E+00 0.  1.
</event>
<event>
11    0  0.3485800E-009  0.9118800E+02  0.7816531E-02  0.1126479E+00
         25   -1    0    0    0    0  0.00000000000E+00  0.00000000000E+00  0.99999998245E-14  0.12500000000E+03  0.12500000000E+03 0.  0.
    3000001    1    3    3    0    0 -0.41520836388E+02  0.11871576607E+02  0.32152704632E+02  0.53848960999E+02  0.10000000000E+01 0. -1.
    1000022    2    1    0    0    0 -0.45224298291E+02  0.15965423342E+02  0.38808737361E+02  0.62500000429E+02  0.10000002982E+02 0.  0.
    3000022    2    3    3    0    0 -0.37034619027E+01  0.40938467359E+01  0.66560327292E+01  0.86510394302E+01  0.25000073793E+00 0.  0.
    1000022    2    1    0    0    0  0.45224298291E+02 -0.15965423342E+02 -0.38808737361E+02  0.62499999571E+02  0.99999976219E+01 0.  0.
    3000022    2    5    5    0    0  0.26291052400E+02 -0.13296599789E+02 -0.27263135184E+02  0.40141749444E+02  0.25001225235E+00 0.  0.
        -13    1    4    4    0    0 -0.16333985989E+01  0.17083527328E+01  0.28422485849E+01  0.36980889742E+01  0.10500000000E+00 0. -1.
         13    1    4    4    0    0 -0.20700633038E+01  0.23854940030E+01  0.38137841443E+01  0.49529504560E+01  0.10500000000E+00 0.  1.
    3000001    1    5    5    0    0  0.18933245890E+02 -0.26688235537E+01 -0.11545602177E+02  0.22358250127E+02  0.10000000000E+01 0.  1.
        -13    1    6    6    0    0  0.11545062861E+02 -0.59027276748E+01 -0.11952910620E+02  0.17635582433E+02  0.10500000000E+00 0.  1.
         13    1    6    6    0    0  0.14745989540E+02 -0.73938721139E+01 -0.15310224564E+02  0.22506167012E+02  0.10500000000E+00 0. -1.
</event>
<event>
11    0  0.3485800E-009  0.9118800E+02  0.7816531E-02  0.1126479E+00
         25   -1    0    0    0    0  0.00000000000E+00  0.00000000000E+00  0.99999998245E-14  0.12500000000E+03  0.12500000000E+03 0.  0.
    3000001    1    3    3    0    0 -0.70715182393E+01  0.16251790554E+01 -0.45315036524E+01  0.86129032574E+01  0.10000000000E+01 0. -1.
    1000022    2    1    0    0    0 -0.59179045150E+02 -0.43864341301E+01 -0.16877483136E+02  0.62500003300E+02  0.10000039314E+02 0.  0.
    3000022    2    3    3    0    0 -0.52107526910E+02 -0.60116131855E+01 -0.12345979484E+02  0.53887100042E+02  0.24997554371E+00 0.  0.
    1000022    2    1    0    0    0  0.59179045150E+02  0.43864341301E+01  0.16877483136E+02  0.62499996700E+02  0.99999980653E+01 0.  0.
    3000022    2    5    5    0    0  0.31442039801E+02 -0.24959088017E+01  0.99970542560E+01  0.33088291352E+02  0.25000633932E+00 0.  0.
        -13    1    4    4    0    0 -0.25830783848E+02 -0.29286302099E+01 -0.60730210452E+01  0.26696420709E+02  0.10500000000E+00 0. -1.
         13    1    4    4    0    0 -0.26276743063E+02 -0.30829829756E+01 -0.62729584389E+01  0.27190679333E+02  0.10500000000E+00 0.  1.
    3000001    1    5    5    0    0  0.27737005348E+02  0.68823429318E+01  0.68804288804E+01  0.29411705348E+02  0.10000000000E+01 0. -1.
        -13    1    6    6    0    0  0.75906079757E+01 -0.62272220750E+00  0.24186984071E+01  0.79916355881E+01  0.10500000000E+00 0.  1.
         13    1    6    6    0    0  0.23851431825E+02 -0.18731865942E+01  0.75783558489E+01  0.25096655764E+02  0.10500000000E+00 0. -1.
</event>
<event>
11    0  0.3485800E-009  0.9118800E+02  0.7816531E-02  0.1126479E+00
         25   -1    0    0    0    0  0.00000000000E+00  0.00000000000E+00  0.99999998245E-14  0.12500000000E+03  0.12500000000E+03 0.  0.
    3000001    1    3    3    0    0  0.14445071467E+01 -0.10978160867E+01 -0.11403438580E+01  0.23647801529E+01  0.10000000000E+01 0. -1.
    1000022    2    1    0    0    0  0.29130951492E+02  0.58372685368E+01 -0.54069991121E+02  0.62499999977E+02  0.10000000926E+02 0.  0.
    3000022    2    3    3    0    0  0.27686444345E+02  0.69350846235E+01 -0.52929647263E+02  0.60135219824E+02  0.25000941712E+00 0.  0.
    1000022    2    1    0    0    0 -0.29130951492E+02 -0.58372685368E+01  0.54069991121E+02  0.62500000023E+02  0.10000001215E+02 0.  0.
    3000022    2    5    5    0    0 -0.29107862543E+02 -0.46445884076E+01  0.48866846102E+02  0.57069002226E+02  0.25000763220E+00 0.  0.
        -13    1    4    4    0    0  0.19656647265E+02  0.48882560622E+01 -0.37507305066E+02  0.42627312692E+02  0.10500000000E+00 0.  1.
         13    1    4    4    0    0  0.80297970804E+01  0.20468285613E+01 -0.15422342197E+02  0.17507907132E+02  0.10500000000E+00 0. -1.
    3000001    1    5    5    0    0 -0.23088949560E-01 -0.11926801293E+01  0.52031450182E+01  0.54309977970E+01  0.10000000000E+01 0. -1.
        -13    1    6    6    0    0 -0.20655162438E+02 -0.32801039806E+01  0.34593617363E+02  0.40424302155E+02  0.10500000000E+00 0. -1.
         13    1    6    6    0    0 -0.84527001050E+01 -0.13644844270E+01  0.14273228739E+02  0.16644700071E+02  0.10500000000E+00 0.  1.
</event>
<event>
11    0  0.3485800E-009  0.9118800E+02  0.7816531E-02  0.1126479E+00
         25   -1    0    0    0    0  0.00000000000E+00  0.00000000000E+00  0.99999998245E-14  0.12500000000E+03  0.12500000000E+03 0.  0.
    3000001    1    3    3    0    0  0.20124902822E+02 -0.76487043997E+01 -0.26723584531E+02  0.34331681619E+02  0.10000000000E+01 0. -1.
    1000022    2    1    0    0    0  0.38973281644E+02 -0.20616328548E+02 -0.43154377935E+02  0.62499999476E+02  0.99999957295E+01 0.  0.
    3000022    2    3    3    0    0  0.18848378823E+02 -0.12967624148E+02 -0.16430793404E+02  0.28168317857E+02  0.24999743759E+00 0.  0.
    1000022    2    1    0    0    0 -0.38973281644E+02  0.20616328548E+02  0.43154377935E+02  0.62500000524E+02  0.10000002281E+02 0.  0.
    3000022    2    5    5    0    0  0.56905447475E-02  0.84002450584E-01  0.25951865035E+01  0.26085595874E+01  0.25000267817E+00 0.  0.
        -13    1    4    4    0    0  0.76675184679E+01 -0.53275298486E+01 -0.66475706135E+01  0.11461877412E+02  0.10500000000E+00 0. -1.
         13    1    4    4    0    0  0.11180860355E+02 -0.76400942999E+01 -0.97832227902E+01  0.16706440445E+02  0.10500000000E+00 0.  1.
    3000001    1    5    5    0    0 -0.38978972189E+02  0.20532326098E+02  0.40559191431E+02  0.59891440937E+02  0.10000000000E+01 0. -1.
        -13    1    6    6    0    0 -0.58391049197E-01  0.65380769900E-01  0.11751440300E+01  0.11830776183E+01  0.10500000000E+00 0.  1.
         13    1    6    6    0    0  0.64081593944E-01  0.18621680684E-01  0.14200424735E+01  0.14254819691E+01  0.10500000000E+00 0. -1.
</event>
<event>
11    0  0.3485800E-009  0.9118800E+02  0.7816531E-02  0.1126479E+00
         25   -1    0    0    0    0  0.00000000000E+00  0.00000000000E+00  0.99999998245E-14  0.12500000000E+03  0.12500000000E+03 0.  0.
    3000001    1    3    3    0    0 -0.90943030565E+01  0.15055473246E+02 -0.16315346231E+02  0.24011750152E+02  0.10000000000E+01 0.  1.
    1000022    2    1    0    0    0 -0.34284855312E+02  0.35516242155E+02 -0.37005339039E+02  0.62499998876E+02  0.99999990779E+01 0.  0.
    3000022    2    3    3    0    0 -0.25190552256E+02  0.20460768910E+02 -0.20689992808E+02  0.38488248724E+02  0.25000028730E+00 0.  0.
    1000022    2    1    0    0    0  0.34284855312E+02 -0.35516242155E+02  0.37005339039E+02  0.62500001124E+02  0.10000013123E+02 0.  0.
    3000022    2    5    5    0    0  0.27302993324E+02 -0.25760823967E+02  0.22966969158E+02  0.44007018407E+02  0.25000172875E+00 0.  0.
        -13    1    4    4    0    0 -0.11279632349E+02  0.92168719093E+01 -0.93471694494E+01  0.17307843177E+02  0.10500000000E+00 0. -1.
         13    1    4    4    0    0 -0.13910919907E+02  0.11243897000E+02 -0.11342823358E+02  0.21180405547E+02  0.10500000000E+00 0.  1.
    3000001    1    5    5    0    0  0.69818619888E+01 -0.97554181881E+01  0.14038369880E+02  0.18492982717E+02  0.10000000000E+01 0. -1.
        -13    1    6    6    0    0  0.19431976149E+02 -0.18275621329E+02  0.16320832552E+02  0.31272681884E+02  0.10500000000E+00 0. -1.
         13    1    6    6    0    0  0.78710171751E+01 -0.74852026385E+01  0.66461366058E+01  0.12734336523E+02  0.10500000000E+00 0.  1.
</event>
<event>
11    0  0.3485800E-009  0.9118800E+02  0.7816531E-02  0.1126479E+00
         25   -1    0    0    0    0  0.00000000000E+00  0.00000000000E+00  0.99999998245E-14  0.12500000000E+03  0.12500000000E+03 0.  0.
    3000001    1    3    3    0    0 -0.19540145202E+01  0.18966152430E+02 -0.37674182822E+02  0.42235970003E+02  0.10000000000E+01 0.  1.
    1000022    2    1    0    0    0 -0.13951668631E+01  0.33482219605E+02 -0.51800042173E+02  0.62500000108E+02  0.10000006205E+02 0.  0.
    3000022    2    3    3    0    0  0.55884765710E+00  0.14516067175E+02 -0.14125859351E+02  0.20264030105E+02  0.24999354512E+00 0.  0.
    1000022    2    1    0    0    0  0.13951668631E+01 -0.33482219605E+02  0.51800042173E+02  0.62499999892E+02  0.10000004857E+02 0.  0.
    3000022    2    5    5    0    0  0.31630028989E+01 -0.20389004556E+02  0.23641647473E+02  0.31380026938E+02  0.25000256520E+00 0.  0.
        -13    1    4    4    0    0  0.31019646896E+00  0.89932731708E+01 -0.86811859128E+01  0.12503967291E+02  0.10500000000E+00 0.  1.
         13    1    4    4    0    0  0.24865118814E+00  0.55227940042E+01 -0.54446734379E+01  0.77600628136E+01  0.10500000000E+00 0. -1.
    3000001    1    5    5    0    0 -0.17678360357E+01 -0.13093215049E+02  0.28158394701E+02  0.31119972954E+02  0.10000000000E+01 0. -1.
        -13    1    6    6    0    0  0.11254303967E+01 -0.75901810961E+01  0.88386766963E+01  0.11705155847E+02  0.10500000000E+00 0.  1.
         13    1    6    6    0    0  0.20375725021E+01 -0.12798823460E+02  0.14802970776E+02  0.19674871091E+02  0.10500000000E+00 0. -1.
</event>
<event>
11    0  0.3485800E-009  0.9118800E+02  0.7816531E-02  0.1126479E+00
         25   -1    0    0    0    0  0.00000000000E+00  0.00000000000E+00  0.99999998245E-14  0.12500000000E+03  0.12500000000E+03 0.  0.
    3000001    1    3    3    0    0 -0.15028770310E+00 -0.34280581730E+02  0.10628904816E+01  0.34311960106E+02  0.10000000000E+01 0.  1.
    1000022    2    1    0    0    0  0.17060427499E+01 -0.60766062378E+02  0.10527358158E+02  0.62499994764E+02  0.99999578460E+01 0.  0.
    3000022    2    3    3    0    0  0.18563304530E+01 -0.26485480648E+02  0.94644676762E+01  0.28188034658E+02  0.25000315423E+00 0.  0.
    1000022    2    1    0    0    0 -0.17060427499E+01  0.60766062378E+02 -0.10527358158E+02  0.62500005236E+02  0.10000023298E+02 0.  0.
    3000022    2    5    5    0    0 -0.47568256640E+01  0.47071905083E+02 -0.58261437104E+01  0.47669676929E+02  0.25001896484E+00 0.  0.
        -13    1    4    4    0    0  0.12527800309E+01 -0.18489013479E+02  0.66242209079E+01  0.19680050936E+02  0.10500000000E+00 0. -1.
         13    1    4    4    0    0  0.60355042214E+00 -0.79964671689E+01  0.28402467683E+01  0.85079837212E+01  0.10500000000E+00 0.  1.
    3000001    1    5    5    0    0  0.30507829141E+01  0.13694157295E+02 -0.47012144474E+01  0.14830328307E+02  0.10000000000E+01 0.  1.
        -13    1    6    6    0    0 -0.18252899940E+01  0.17514920814E+02 -0.21922018757E+01  0.17746011065E+02  0.10500000000E+00 0. -1.
         13    1    6    6    0    0 -0.29315356700E+01  0.29556984270E+02 -0.36339418347E+01  0.29923665864E+02  0.10500000000E+00 0.  1.
</event>
<event>
11    0  0.3485800E-009  0.9118800E+02  0.7816531E-02  0.1126479E+00
         25   -1    0    0    0    0  0.00000000000E+00  0.00000000000E+00  0.99999998245E-14  0.12500000000E+03  0.12500000000E+03 0.  0.
    3000001    1    3    3    0    0  0.87753181536E+01  0.17884253354E+02 -0.10532958822E+02  0.22556505675E+02  0.10000000000E+01 0.  1.
    1000022    2    1    0    0    0  0.11805628982E+02  0.50829401967E+02 -0.32912726685E+02  0.62499992120E+02  0.10000022859E+02 0.  0.
    3000022    2    3    3    0    0  0.30303108280E+01  0.32945148613E+02 -0.22379767863E+02  0.39943486445E+02  0.24999783606E+00 0.  0.
    1000022    2    1    0    0    0 -0.11805628982E+02 -0.50829401967E+02  0.32912726685E+02  0.62500007880E+02  0.10000121357E+02 0.  0.
    3000022    2    5    5    0    0 -0.62846087278E+00 -0.88457134470E+01  0.10014414262E+02  0.13378811839E+02  0.25000750231E+00 0.  0.
        -13    1    4    4    0    0  0.20884444007E+01  0.22137344576E+02 -0.15048893919E+02  0.26849652848E+02  0.10500000000E+00 0.  1.
         13    1    4    4    0    0  0.94186642731E+00  0.10807804038E+02 -0.73308739435E+01  0.13093833597E+02  0.10500000000E+00 0. -1.
    3000001    1    5    5    0    0 -0.11177168109E+02 -0.41983688520E+02  0.22898312423E+02  0.49121196041E+02  0.10000000000E+01 0. -1.
        -13    1    6    6    0    0 -0.38724432239E+00 -0.53915029963E+01  0.61966749613E+01  0.82236286577E+01  0.10500000000E+00 0.  1.
         13    1    6    6    0    0 -0.24121655039E+00 -0.34542104507E+01  0.38177393008E+01  0.51551831811E+01  0.10500000000E+00 0. -1.
</event>
<event>
11    0  0.3485800E-009  0.9118800E+02  0.7816531E-02  0.1126479E+00
         25   -1    0    0    0    0  0.00000000000E+00  0.00000000000E+00  0.99999998245E-14  0.12500000000E+03  0.12500000000E+03 0.  0.
    3000001    1    3    3    0    0  0.32669413083E+01 -0.79143417682E+00  0.20605400358E+02  0.20901717572E+02  0.10000000000E+01 0.  1.
    1000022    2    1    0    0    0  0.18533288181E+02 -0.12338669150E+02  0.57537156783E+02  0.62500000200E+02  0.10000004359E+02 0.  0.
    3000022    2    3    3    0    0  0.15266346873E+02 -0.11547234973E+02  0.36931756425E+02  0.41598282628E+02  0.25000518865E+00 0.  0.
    1000022    2    1    0    0    0 -0.18533288181E+02  0.12338669150E+02 -0.57537156783E+02  0.62499999800E+02  0.10000001858E+02 0.  0.
    3000022    2    5    5    0    0 -0.79251582701E+01 -0.22087464423E+00 -0.18120240534E+02  0.19780357397E+02  0.25000501780E+00 0.  0.
        -13    1    4    4    0    0  0.68934835320E+01 -0.52907686017E+01  0.16707155561E+02  0.18832217595E+02  0.10500000000E+00 0.  1.
         13    1    4    4    0    0  0.83728633406E+01 -0.62564663712E+01  0.20224600864E+02  0.22766065033E+02  0.10500000000E+00 0. -1.
    3000001    1    5    5    0    0 -0.10608129911E+02  0.12559543794E+02 -0.39416916249E+02  0.42719642403E+02  0.10000000000E+01 0.  1.
        -13    1    6    6    0    0 -0.49229018526E+01 -0.82050900385E-01 -0.11186677647E+02  0.12222703334E+02  0.10500000000E+00 0.  1.
         13    1    6    6    0    0 -0.30022564175E+01 -0.13882374384E+00 -0.69335628867E+01  0.75576540628E+01  0.10500000000E+00 0. -1.
</event>
<event>
11    0  0.3485800E-009  0.9118800E+02  0.7816531E-02  0.1126479E+00
         25   -1    0    0    0    0  0.00000000000E+00  0.00000000000E+00  0.99999998245E-14  0.12500000000E+03  0.12500000000E+03 0.  0.
    3000001    1    3    3    0    0  0.55128237301E+01 -0.10370661547E+02  0.35141166198E+02  0.37065393674E+02  0.10000000000E+01 0. -1.
    1000022    2    1    0    0    0  0.62882218884E+01 -0.99629847687E+01  0.60559451333E+02  0.62499999370E+02  0.99999987730E+01 0.  0.
    3000022    2    3    3    0    0  0.77539815830E+00  0.40767677844E+00  0.25418285135E+02  0.25434605696E+02  0.25001014876E+00 0.  0.
    1000022    2    1    0    0    0 -0.62882218884E+01  0.99629847687E+01 -0.60559451333E+02  0.62500000630E+02  0.10000006646E+02 0.  0.
    3000022    2    5    5    0    0 -0.78918372640E+01  0.96879260510E+01 -0.57853041914E+02  0.59187616063E+02  0.24985996973E+00 0.  0.
        -13    1    4    4    0    0  0.44224650587E+00  0.26057556495E+00  0.16379758907E+02  0.16388136211E+02  0.10500000000E+00 0.  1.
         13    1    4    4    0    0  0.33315165244E+00  0.14710121349E+00  0.90385262275E+01  0.90464694857E+01  0.10500000000E+00 0. -1.
    3000001    1    5    5    0    0  0.16036153756E+01  0.27505871774E+00 -0.27064094195E+01  0.33123845666E+01  0.10000000000E+01 0. -1.
        -13    1    6    6    0    0 -0.28210505002E+01  0.35368827169E+01 -0.21114076299E+02  0.21593589517E+02  0.10500000000E+00 0.  1.
         13    1    6    6    0    0 -0.50707867638E+01  0.61510433341E+01 -0.36738965615E+02  0.37594026546E+02  0.10500000000E+00 0. -1.
</event>
<event>
11    0  0.3485800E-009  0.9118800E+02  0.7816531E-02  0.1126479E+00
         25   -1    0    0    0    0  0.00000000000E+00  0.00000000000E+00  0.99999998245E-14  0.12500000000E+03  0.12500000000E+03 0.  0.
    3000001    1    3    3    0    0 -0.30564345347E+02 -0.27125284514E+02  0.70526989021E+01  0.41481331081E+02  0.10000000000E+01 0.  1.
    1000022    2    1    0    0    0 -0.46205196089E+02 -0.37307647146E+02  0.16717337119E+02  0.62500000237E+02  0.99999994018E+01 0.  0.
    3000022    2    3    3    0    0 -0.15640850742E+02 -0.10182362632E+02  0.96646382173E+01  0.21018669156E+02  0.25000100303E+00 0.  0.
    1000022    2    1    0    0    0  0.46205196089E+02  0.37307647146E+02 -0.16717337119E+02  0.62499999763E+02  0.99999964454E+01 0.  0.
    3000022    2    5    5    0    0  0.30159290374E+02  0.29677750496E+02 -0.13508963138E+02  0.44417409332E+02  0.24999273124E+00 0.  0.
        -13    1    4    4    0    0 -0.47667466285E+01 -0.31577166604E+01  0.29464845796E+01  0.64331830617E+01  0.10500000000E+00 0. -1.
         13    1    4    4    0    0 -0.10874104113E+02 -0.70246459717E+01  0.67181536377E+01  0.14585486094E+02  0.10500000000E+00 0.  1.
    3000001    1    5    5    0    0  0.16045905715E+02  0.76298966499E+01 -0.32083739815E+01  0.18082590431E+02  0.10000000000E+01 0. -1.
        -13    1    6    6    0    0  0.12122660137E+02  0.11840749967E+02 -0.54062789761E+01  0.17787667805E+02  0.10500000000E+00 0.  1.
         13    1    6    6    0    0  0.18036630237E+02  0.17837000529E+02 -0.81026841619E+01  0.26629741527E+02  0.10500000000E+00 0. -1.
</event>
<event>
11    0  0.3485800E-009  0.9118800E+02  0.7816531E-02  0.1126479E+00
         25   -1    0    0    0    0  0.00000000000E+00  0.00000000000E+00  0.99999998245E-14  0.12500000000E+03  0.12500000000E+03 0.  0.
    3000001    1    3    3    0    0  0.50637448493E+02 -0.14030846922E+02 -0.92746119732E+01  0.53366977453E+02  0.10000000000E+01 0. -1.
    1000022    2    1    0    0    0  0.59507044617E+02 -0.12340327803E+02 -0.10624416714E+02  0.62499998033E+02  0.99999737147E+01 0.  0.
    3000022    2    3    3    0    0  0.88695961237E+01  0.16905191191E+01 -0.13498047408E+01  0.91330205796E+01  0.25000356092E+00 0.  0.
    1000022    2    1    0    0    0 -0.59507044617E+02  0.12340327803E+02  0.10624416714E+02  0.62500001967E+02  0.99999983035E+01 0.  0.
    3000022    2    5    5    0    0 -0.21559133723E+02  0.53463563067E+01  0.86859200349E+01  0.23851362303E+02  0.25000844556E+00 0.  0.
        -13    1    4    4    0    0  0.50566191451E+01  0.92817398856E+00 -0.71238027790E+00  0.51912825768E+01  0.10500000000E+00 0.  1.
         13    1    4    4    0    0  0.38129769786E+01  0.76234513058E+00 -0.63742446286E+00  0.39417380029E+01  0.10500000000E+00 0. -1.
    3000001    1    5    5    0    0 -0.37947910894E+02  0.69939714967E+01  0.19384966790E+01  0.38648639664E+02  0.10000000000E+01 0. -1.
        -13    1    6    6    0    0 -0.16144669161E+02  0.40082541996E+01  0.65332499012E+01  0.17872068244E+02  0.10500000000E+00 0.  1.
         13    1    6    6    0    0 -0.54144645620E+01  0.13381021071E+01  0.21526701337E+01  0.59792940593E+01  0.10500000000E+00 0. -1.
</event>
<event>
11    0  0.3485800E-009  0.9118800E+02  0.7816531E-02  0.1126479E+00
         25   -1    0    0    0    0  0.00000000000E+00  0.00000000000E+00  0.99999998245E-14  0.12500000000E+03  0.12500000000E+03 0.  0.
    3000001    1    3    3    0    0 -0.10560414315E+02  0.18783273174E+02  0.10392678685E+02  0.23944549941E+02  0.10000000000E+01 0. -1.
    1000022    2    1    0    0    0 -0.34267269791E+02  0.48554383950E+02  0.16567318836E+02  0.62499999791E+02  0.99999970374E+01 0.  0.
    3000022    2    3    3    0    0 -0.23706855476E+02  0.29771110776E+02  0.61746401512E+01  0.38555449850E+02  0.24999744368E+00 0.  0.
    1000022    2    1    0    0    0  0.34267269791E+02 -0.48554383950E+02 -0.16567318836E+02  0.62500000209E+02  0.99999996526E+01 0.  0.
    3000022    2    5    5    0    0  0.25995466681E+01 -0.53190428847E+01  0.11697021307E+01  0.60399141520E+01  0.24999959896E+00 0.  0.
        -13    1    4    4    0    0 -0.55663869842E+01  0.70140113024E+01  0.14542847249E+01  0.90723198615E+01  0.10500000000E+00 0.  1.
         13    1    4    4    0    0 -0.18140468492E+02  0.22757099474E+02  0.47203554263E+01  0.29483129988E+02  0.10500000000E+00 0. -1.
    3000001    1    5    5    0    0  0.31667723123E+02 -0.43235341065E+02 -0.17737020967E+02  0.56460086057E+02  0.10000000000E+01 0. -1.
        -13    1    6    6    0    0  0.18706372562E+01 -0.39034691837E+01  0.84191890360E+00  0.44109191619E+01  0.10500000000E+00 0. -1.
         13    1    6    6    0    0  0.72890941193E+00 -0.14155737011E+01  0.32778322712E+00  0.16289949901E+01  0.10500000000E+00 0.  1.
</event>
<event>
11    0  0.3485800E-009  0.9118800E+02  0.7816531E-02  0.1126479E+00
         25   -1    0    0    0    0  0.00000000000E+00  0.00000000000E+00  0.99999998245E-14  0.12500000000E+03  0.12500000000E+03 0.  0.
    3000001    1    3    3    0    0  0.89882718369E+01 -0.48707085811E+01  0.22163646532E+02  0.24428263555E+02  0.10000000000E+01 0. -1.
    1000022    2    1    0    0    0  0.11408787678E+02 -0.97131991193E+01  0.59847671246E+02  0.62499996289E+02  0.99999554548E+01 0.  0.
    3000022    2    3    3    0    0  0.24205158414E+01 -0.48424905382E+01  0.37684024714E+02  0.38071732734E+02  0.25000636496E+00 0.  0.
    1000022    2    1    0    0    0 -0.11408787678E+02  0.97131991193E+01 -0.59847671246E+02  0.62500003711E+02  0.10000001845E+02 0.  0.
    3000022    2    5    5    0    0 -0.53446526106E+01  0.14385847521E+01 -0.37285093442E+02  0.37694502422E+02  0.24996449018E+00 0.  0.
        -13    1    4    4    0    0  0.16359690759E+01 -0.33032989461E+01  0.25986735702E+02  0.26247088146E+02  0.10500000000E+00 0. -1.
         13    1    4    4    0    0  0.78454676551E+00 -0.15391915921E+01  0.11697289013E+02  0.11824644588E+02  0.10500000000E+00 0.  1.
    3000001    1    5    5    0    0 -0.60641350677E+01  0.82746143672E+01 -0.22562577804E+02  0.24805501290E+02  0.10000000000E+01 0. -1.
        -13    1    6    6    0    0 -0.32917195716E+01  0.84204732320E+00 -0.23181066964E+02  0.23428985297E+02  0.10500000000E+00 0.  1.
         13    1    6    6    0    0 -0.20529330390E+01  0.59653742891E+00 -0.14104026477E+02  0.14265517125E+02  0.10500000000E+00 0. -1.
</event>
<event>
11    0  0.3485800E-009  0.9118800E+02  0.7816531E-02  0.1126479E+00
         25   -1    0    0    0    0  0.00000000000E+00  0.00000000000E+00  0.99999998245E-14  0.12500000000E+03  0.12500000000E+03 0.  0.
    3000001    1    3    3    0    0 -0.43146235834E+02  0.29087398210E+02  0.12313479912E+02  0.53481736965E+02  0.10000000000E+01 0. -1.
    1000022    2    1    0    0    0 -0.51633221435E+02  0.30178279840E+02  0.15150312668E+02  0.62500000132E+02  0.99999956381E+01 0.  0.
    3000022    2    3    3    0    0 -0.84869856007E+01  0.10908816300E+01  0.28368327560E+01  0.90182631670E+01  0.25000629401E+00 0.  0.
    1000022    2    1    0    0    0  0.51633221435E+02 -0.30178279840E+02 -0.15150312668E+02  0.62499999868E+02  0.99999939821E+01 0.  0.
    3000022    2    5    5    0    0  0.39314397439E+01 -0.52017357411E+01 -0.34824013587E+01  0.73962079295E+01  0.24999866537E+00 0.  0.
        -13    1    4    4    0    0 -0.33462455873E+01  0.38067483011E+00  0.10760265418E+01  0.35371077133E+01  0.10500000000E+00 0.  1.
         13    1    4    4    0    0 -0.51407400134E+01  0.71020679986E+00  0.17608062141E+01  0.54811554537E+01  0.10500000000E+00 0. -1.
    3000001    1    5    5    0    0  0.47701781691E+02 -0.24976544099E+02 -0.11667911309E+02  0.55103791938E+02  0.10000000000E+01 0. -1.
        -13    1    6    6    0    0  0.18659877510E+01 -0.24289264383E+01 -0.17073204077E+01  0.35082134918E+01  0.10500000000E+00 0.  1.
         13    1    6    6    0    0  0.20654519929E+01 -0.27728093028E+01 -0.17750809510E+01  0.38879944377E+01  0.10500000000E+00 0. -1.
</event>
<event>
11    0  0.3485800E-009  0.9118800E+02  0.7816531E-02  0.1126479E+00
         25   -1    0    0    0    0  0.00000000000E+00  0.00000000000E+00  0.99999998245E-14  0.12500000000E+03  0.12500000000E+03 0.  0.
    3000001    1    3    3    0    0  0.23765515871E+02 -0.37512385588E+02  0.37563647262E+02  0.58172213407E+02  0.10000000000E+01 0. -1.
    1000022    2    1    0    0    0  0.23388842899E+02 -0.39163225573E+02  0.41538578758E+02  0.62500000926E+02  0.10000019052E+02 0.  0.
    3000022    2    3    3    0    0 -0.37667297139E+00 -0.16508399854E+01  0.39749314957E+01  0.43277875183E+01  0.25001844587E+00 0.  0.
    1000022    2    1    0    0    0 -0.23388842899E+02  0.39163225573E+02 -0.41538578758E+02  0.62499999074E+02  0.10000007481E+02 0.  0.
    3000022    2    5    5    0    0 -0.12073905783E+02  0.24799656599E+02 -0.30477009291E+02  0.41106115960E+02  0.25001152325E+00 0.  0.
        -13    1    4    4    0    0 -0.30137492913E+00 -0.11092995234E+01  0.27343082931E+01  0.29679688546E+01  0.10500000000E+00 0. -1.
         13    1    4    4    0    0 -0.75298042264E-01 -0.54154046201E+00  0.12406232026E+01  0.13598186636E+01  0.10500000000E+00 0.  1.
    3000001    1    5    5    0    0 -0.11314937116E+02  0.14363568974E+02 -0.11061569467E+02  0.21393883114E+02  0.10000000000E+01 0.  1.
        -13    1    6    6    0    0 -0.44668555808E+01  0.90449055687E+01 -0.11123484077E+02  0.15016858478E+02  0.10500000000E+00 0. -1.
         13    1    6    6    0    0 -0.76070502020E+01  0.15754751030E+02 -0.19353525214E+02  0.26089257483E+02  0.10500000000E+00 0.  1.
</event>
<event>
11    0  0.3485800E-009  0.9118800E+02  0.7816531E-02  0.1126479E+00
         25   -1    0    0    0    0  0.00000000000E+00  0.00000000000E+00  0.99999998245E-14  0.12500000000E+03  0.12500000000E+03 0.  0.
    3000001    1    3    3    0    0  0.10055726576E+02  0.86430079418E+01  0.28743153403E+01  0.13604444565E+02  0.10000000000E+01 0. -1.
    1000022    2    1    0    0    0  0.32909171125E+02  0.46146885980E+02  0.24365989783E+02  0.62499999950E+02  0.99999952928E+01 0.  0.
    3000022    2    3    3    0    0  0.22853444549E+02  0.37503878038E+02  0.21491674443E+02  0.48895555385E+02  0.24994074309E+00 0.  0.
    1000022    2    1    0    0    0 -0.32909171125E+02 -0.46146885980E+02 -0.24365989783E+02  0.62500000050E+02  0.99999959152E+01 0.  0.
    3000022    2    5    5    0    0 -0.19776707676E+02 -0.31864940600E+02 -0.20321339623E+02  0.42655737529E+02  0.24998821575E+00 0.  0.
        -13    1    4    4    0    0  0.14971974783E+02  0.24470120139E+02  0.14061120787E+02  0.31947972570E+02  0.10500000000E+00 0.  1.
         13    1    4    4    0    0  0.78814697660E+01  0.13033757899E+02  0.74305536562E+01  0.16947582816E+02  0.10500000000E+00 0. -1.
    3000001    1    5    5    0    0 -0.13132463449E+02 -0.14281945380E+02 -0.40446501603E+01  0.19844262521E+02  0.10000000000E+01 0.  1.
        -13    1    6    6    0    0 -0.86278243249E+01 -0.13847563793E+02 -0.87731248098E+01  0.18524932376E+02  0.10500000000E+00 0.  1.
         13    1    6    6    0    0 -0.11148883351E+02 -0.18017376806E+02 -0.11548214813E+02  0.24130805153E+02  0.10500000000E+00 0. -1.
</event>
<event>
11    0  0.3485800E-009  0.9118800E+02  0.7816531E-02  0.1126479E+00
         25   -1    0    0    0    0  0.00000000000E+00  0.00000000000E+00  0.99999998245E-14  0.12500000000E+03  0.12500000000E+03 0.  0.
    3000001    1    3    3    0    0  0.11799047845E+02  0.18203468815E+02  0.39993816022E+01  0.22081187924E+02  0.10000000000E+01 0. -1.
    1000022    2    1    0    0    0  0.21649616974E+02  0.55436543354E+02  0.16258360617E+02  0.62500002441E+02  0.99999880487E+01 0.  0.
    3000022    2    3    3    0    0  0.98505691295E+01  0.37233074539E+02  0.12258979014E+02  0.40418814517E+02  0.24989725469E+00 0.  0.
    1000022    2    1    0    0    0 -0.21649616974E+02 -0.55436543354E+02 -0.16258360617E+02  0.62499997559E+02  0.99999575410E+01 0.  0.
    3000022    2    5    5    0    0 -0.10674638022E+02 -0.35578204755E+02 -0.61948098334E+01  0.37658926140E+02  0.24999728390E+00 0.  0.
        -13    1    4    4    0    0  0.27758572448E+01  0.10342058001E+02  0.34021171449E+01  0.11236056836E+02  0.10500000000E+00 0. -1.
         13    1    4    4    0    0  0.70747118847E+01  0.26891016538E+02  0.88568618696E+01  0.29182757681E+02  0.10500000000E+00 0.  1.
    3000001    1    5    5    0    0 -0.10974978952E+02 -0.19858338599E+02 -0.10063550783E+02  0.24841071420E+02  0.10000000000E+01 0. -1.
        -13    1    6    6    0    0 -0.45242568743E+01 -0.14905418850E+02 -0.26396164099E+01  0.15799335782E+02  0.10500000000E+00 0.  1.
         13    1    6    6    0    0 -0.61503811482E+01 -0.20672785905E+02 -0.35551934235E+01  0.21859590358E+02  0.10500000000E+00 0. -1.
</event>
<event>
11    0  0.3485800E-009  0.9118800E+02  0.7816531E-02  0.1126479E+00
         25   -1    0    0    0    0  0.00000000000E+00  0.00000000000E+00  0.99999998245E-14  0.12500000000E+03  0.12500000000E+03 0.  0.
    3000001    1    3    3    0    0  0.27126170135E+00  0.11930055793E+01 -0.80204207169E+01  0.81745944058E+01  0.10000000000E+01 0. -1.
    1000022    2    1    0    0    0  0.63928235447E+01 -0.15192007556E+02 -0.59452369643E+02  0.62500003257E+02  0.10000043226E+02 0.  0.
    3000022    2    3    3    0    0  0.61215618433E+01 -0.16385013135E+02 -0.51431948926E+02  0.54325408852E+02  0.25000338108E+00 0.  0.
    1000022    2    1    0    0    0 -0.63928235447E+01  0.15192007556E+02  0.59452369643E+02  0.62499996743E+02  0.10000002509E+02 0.  0.
    3000022    2    5    5    0    0 -0.65648750269E+01  0.33260260140E+01  0.23460299655E+02  0.24588781757E+02  0.24999043389E+00 0.  0.
        -13    1    4    4    0    0  0.22694752136E+01 -0.59310778340E+01 -0.18767655374E+02  0.19813230813E+02  0.10500000000E+00 0.  1.
         13    1    4    4    0    0  0.38520866297E+01 -0.10453935301E+02 -0.32664293552E+02  0.34512178038E+02  0.10500000000E+00 0. -1.
    3000001    1    5    5    0    0  0.17205148224E+00  0.11865981541E+02  0.35992069988E+02  0.37911214986E+02  0.10000000000E+01 0.  1.
        -13    1    6    6    0    0 -0.37343762228E+01  0.19451250947E+01  0.13570155682E+02  0.14208772911E+02  0.10500000000E+00 0. -1.
         13    1    6    6    0    0 -0.28304988041E+01  0.13809009194E+01  0.98901439732E+01  0.10380008846E+02  0.10500000000E+00 0.  1.
</event>
<event>
11    0  0.3485800E-009  0.9118800E+02  0.7816531E-02  0.1126479E+00
         25   -1    0    0    0    0  0.00000000000E+00  0.00000000000E+00  0.99999998245E-14  0.12500000000E+03  0.12500000000E+03 0.  0.
    3000001    1    3    3    0    0 -0.40672303003E+01  0.19423288832E+01  0.22430825686E+01  0.51328766998E+01  0.10000000000E+01 0. -1.
    1000022    2    1    0    0    0 -0.49920713375E+02  0.36225748861E+02 -0.13665579439E+01  0.62499999731E+02  0.99999990696E+01 0.  0.
    3000022    2    3    3    0    0 -0.45853483074E+02  0.34283419978E+02 -0.36096405125E+01  0.57367123031E+02  0.25000965385E+00 0.  0.
    1000022    2    1    0    0    0  0.49920713375E+02 -0.36225748861E+02  0.13665579439E+01  0.62500000269E+02  0.10000002431E+02 0.  0.
    3000022    2    5    5    0    0  0.29296339388E+02 -0.19035361477E+02  0.53267134934E+01  0.35341998636E+02  0.25000559484E+00 0.  0.
        -13    1    4    4    0    0 -0.15711755372E+02  0.11716011914E+02 -0.11863776706E+01  0.19635241506E+02  0.10500000000E+00 0. -1.
         13    1    4    4    0    0 -0.30141727703E+02  0.22567408064E+02 -0.24232628419E+01  0.37731881525E+02  0.10500000000E+00 0.  1.
    3000001    1    5    5    0    0  0.20624373986E+02 -0.17190387384E+02 -0.39601555495E+01  0.27158001633E+02  0.10000000000E+01 0.  1.
        -13    1    6    6    0    0  0.15154967210E+02 -0.98147032811E+01  0.26900462008E+01  0.18255103538E+02  0.10500000000E+00 0.  1.
         13    1    6    6    0    0  0.14141372178E+02 -0.92206581961E+01  0.26366672926E+01  0.17086895097E+02  0.10500000000E+00 0. -1.
</event>
<event>
11    0  0.3485800E-009  0.9118800E+02  0.7816531E-02  0.1126479E+00
         25   -1    0    0    0    0  0.00000000000E+00  0.00000000000E+00  0.99999998245E-14  0.12500000000E+03  0.12500000000E+03 0.  0.
    3000001    1    3    3    0    0 -0.44848482463E+01  0.93705886458E+01  0.10020918527E+02  0.14468607517E+02  0.10000000000E+01 0. -1.
    1000022    2    1    0    0    0 -0.40072669964E+01  0.35140161759E+02  0.50550575696E+02  0.62499999171E+02  0.10000001796E+02 0.  0.
    3000022    2    3    3    0    0  0.47758124993E+00  0.25769573113E+02  0.40529657169E+02  0.48031391654E+02  0.24998331537E+00 0.  0.
    1000022    2    1    0    0    0  0.40072669964E+01 -0.35140161759E+02 -0.50550575696E+02  0.62500000829E+02  0.10000012157E+02 0.  0.
    3000022    2    5    5    0    0  0.15485085604E+01 -0.92521427062E+01 -0.21724906834E+02  0.23665039661E+02  0.25000361161E+00 0.  0.
        -13    1    4    4    0    0  0.38167545904E+00  0.18280504474E+02  0.28759626157E+02  0.34080047560E+02  0.10500000000E+00 0. -1.
         13    1    4    4    0    0  0.95905790894E-01  0.74890686393E+01  0.11770031012E+02  0.13951344094E+02  0.10500000000E+00 0.  1.
    3000001    1    5    5    0    0  0.24587584359E+01 -0.25888019053E+02 -0.28825668862E+02  0.38834961168E+02  0.10000000000E+01 0.  1.
        -13    1    6    6    0    0  0.69456278421E+00 -0.40096075889E+01 -0.92696848798E+01  0.10124102590E+02  0.10500000000E+00 0.  1.
         13    1    6    6    0    0  0.85394577620E+00 -0.52425351173E+01 -0.12455221954E+02  0.13540937072E+02  0.10500000000E+00 0. -1.
</event>
<event>
11    0  0.3485800E-009  0.9118800E+02  0.7816531E-02  0.1126479E+00
         25   -1    0    0    0    0  0.00000000000E+00  0.00000000000E+00  0.99999998245E-14  0.12500000000E+03  0.12500000000E+03 0.  0.
    3000001    1    3    3    0    0  0.25032742439E+02  0.25614530012E+02  0.33689551414E+02  0.49180567466E+02  0.10000000000E+01 0. -1.
    1000022    2    1    0    0    0  0.33625864782E+02  0.27786573313E+02  0.43628620499E+02  0.62499992889E+02  0.10000007281E+02 0.  0.
    3000022    2    3    3    0    0  0.85931223433E+01  0.21720433009E+01  0.99390690847E+01  0.13319425423E+02  0.24995123875E+00 0.  0.
    1000022    2    1    0    0    0 -0.33625864782E+02 -0.27786573313E+02 -0.43628620499E+02  0.62500007111E+02  0.10000096172E+02 0.  0.
    3000022    2    5    5    0    0 -0.15680761034E+02 -0.16089401967E+02 -0.16278275569E+02  0.27745267380E+02  0.24996840222E+00 0.  0.
        -13    1    4    4    0    0  0.42477439505E+01  0.10037999238E+01  0.48937921843E+01  0.65582901659E+01  0.10500000000E+00 0.  1.
         13    1    4    4    0    0  0.43453783927E+01  0.11682433771E+01  0.50452769004E+01  0.67611352572E+01  0.10500000000E+00 0. -1.
    3000001    1    5    5    0    0 -0.17945103748E+02 -0.11697171346E+02 -0.27350344930E+02  0.34754739731E+02  0.10000000000E+01 0. -1.
        -13    1    6    6    0    0 -0.69593558135E+01 -0.71967456618E+01 -0.71874313936E+01  0.12324608574E+02  0.10500000000E+00 0.  1.
         13    1    6    6    0    0 -0.87214052207E+01 -0.88926563055E+01 -0.90908441756E+01  0.15420658806E+02  0.10500000000E+00 0. -1.
</event>
<event>
11    0  0.3485800E-009  0.9118800E+02  0.7816531E-02  0.1126479E+00
         25   -1    0    0    0    0  0.00000000000E+00  0.00000000000E+00  0.99999998245E-14  0.12500000000E+03  0.12500000000E+03 0.  0.
    3000001    1    3    3    0    0 -0.50613523004E+02 -0.58881910588E+01 -0.19717709351E+01  0.51002817426E+02  0.10000000000E+01 0. -1.
    1000022    2    1    0    0    0 -0.60942827009E+02 -0.94732860987E+01  0.15743906175E+01  0.62499999097E+02  0.99999934012E+01 0.  0.
    3000022    2    3    3    0    0 -0.10329304005E+02 -0.35850950400E+01  0.35461615526E+01  0.11497181671E+02  0.24999389610E+00 0.  0.
    1000022    2    1    0    0    0  0.60942827009E+02  0.94732860987E+01 -0.15743906175E+01  0.62500000903E+02  0.10000004685E+02 0.  0.
    3000022    2    5    5    0    0  0.13110264320E+02  0.23581058827E+01 -0.44470072455E+01  0.14045571083E+02  0.24999942050E+00 0.  0.
        -13    1    4    4    0    0 -0.49854212902E+01 -0.16757616551E+01  0.16597382906E+01  0.55161906021E+01  0.10500000000E+00 0.  1.
         13    1    4    4    0    0 -0.53438827149E+01 -0.19093333849E+01  0.18864232620E+01  0.59809910691E+01  0.10500000000E+00 0. -1.
    3000001    1    5    5    0    0  0.47832562688E+02  0.71151802160E+01  0.28726166280E+01  0.48454429819E+02  0.10000000000E+01 0.  1.
        -13    1    6    6    0    0  0.80379779732E+01  0.13857927312E+01 -0.27036852570E+01  0.85936284747E+01  0.10500000000E+00 0.  1.
         13    1    6    6    0    0  0.50722863472E+01  0.97231315150E+00 -0.17433219885E+01  0.54519426087E+01  0.10500000000E+00 0. -1.
</event>
<event>
11    0  0.3485800E-009  0.9118800E+02  0.7816531E-02  0.1126479E+00
         25   -1    0    0    0    0  0.00000000000E+00  0.00000000000E+00  0.99999998245E-14  0.12500000000E+03  0.12500000000E+03 0.  0.
    3000001    1    3    3    0    0 -0.85930159158E+01  0.14237156803E+02 -0.10082269783E+02  0.19472768687E+02  0.10000000000E+01 0.  1.
    1000022    2    1    0    0    0 -0.14714947658E+02  0.45237834185E+02 -0.39284326306E+02  0.62500000149E+02  0.10000019951E+02 0.  0.
    3000022    2    3    3    0    0 -0.61219317422E+01  0.31000677383E+02 -0.29202056523E+02  0.43027231462E+02  0.24999147605E+00 0.  0.
    1000022    2    1    0    0    0  0.14714947658E+02 -0.45237834185E+02  0.39284326306E+02  0.62499999851E+02  0.10000018084E+02 0.  0.
    3000022    2    5    5    0    0  0.14983275233E+01 -0.98115448686E+01  0.13354886843E+02  0.16641120085E+02  0.24995401332E+00 0.  0.
        -13    1    4    4    0    0 -0.15517009144E+01  0.77942423162E+01 -0.73116756615E+01  0.10799519202E+02  0.10500000000E+00 0. -1.
         13    1    4    4    0    0 -0.45702308278E+01  0.23206435066E+02 -0.21890380861E+02  0.32227712261E+02  0.10500000000E+00 0.  1.
    3000001    1    5    5    0    0  0.13216620135E+02 -0.35426289317E+02  0.25929439463E+02  0.45858879766E+02  0.10000000000E+01 0. -1.
        -13    1    6    6    0    0  0.48295522474E+00 -0.35467066210E+01  0.48238734990E+01  0.60077578295E+01  0.10500000000E+00 0. -1.
         13    1    6    6    0    0  0.10153722986E+01 -0.62648382476E+01  0.85310133439E+01  0.10633362255E+02  0.10500000000E+00 0.  1.
</event>
<event>
11    0  0.3485800E-009  0.9118800E+02  0.7816531E-02  0.1126479E+00
         25   -1    0    0    0    0  0.00000000000E+00  0.00000000000E+00  0.99999998245E-14  0.12500000000E+03  0.12500000000E+03 0.  0.
    3000001    1    3    3    0    0 -0.52593308032E+01  0.12006090611E+02  0.92673968301E+01  0.16083886852E+02  0.10000000000E+01 0.  1.
    1000022    2    1    0    0    0 -0.20767130293E+02  0.34150312964E+02  0.46997154245E+02  0.62499999609E+02  0.99999933931E+01 0.  0.
    3000022    2    3    3    0    0 -0.15507799490E+02  0.22144222354E+02  0.37729757415E+02  0.46416112757E+02  0.25000054888E+00 0.  0.
    1000022    2    1    0    0    0  0.20767130293E+02 -0.34150312964E+02 -0.46997154245E+02  0.62500000391E+02  0.99999982773E+01 0.  0.
    3000022    2    5    5    0    0  0.14054819948E+01 -0.37371309316E+01 -0.11421837577E+01  0.41603621971E+01  0.25000527360E+00 0.  0.
        -13    1    4    4    0    0 -0.36468556755E+01  0.52259134333E+01  0.88754543244E+01  0.10926776377E+02  0.10500000000E+00 0.  1.
         13    1    4    4    0    0 -0.11860943815E+02  0.16918308920E+02  0.28854303090E+02  0.35489336380E+02  0.10500000000E+00 0. -1.
    3000001    1    5    5    0    0  0.19361648298E+02 -0.30413182033E+02 -0.45854970487E+02  0.58339638194E+02  0.10000000000E+01 0.  1.
        -13    1    6    6    0    0  0.96917992571E+00 -0.25921813769E+01 -0.84014611627E+00  0.28940602128E+01  0.10500000000E+00 0. -1.
         13    1    6    6    0    0  0.43630206906E+00 -0.11449495548E+01 -0.30203764145E+00  0.12663019842E+01  0.10500000000E+00 0.  1.
</event>
<event>
11    0  0.3485800E-009  0.9118800E+02  0.7816531E-02  0.1126479E+00
         25   -1    0    0    0    0  0.00000000000E+00  0.00000000000E+00  0.99999998245E-14  0.12500000000E+03  0.12500000000E+03 0.  0.
    3000001    1    3    3    0    0  0.99048918450E+00  0.25410379576E+02 -0.98307342782E+01  0.27282078283E+02  0.10000000000E+01 0. -1.
    1000022    2    1    0    0    0 -0.13079496092E+01  0.52891263103E+02 -0.31734106998E+02  0.62500000047E+02  0.10000000706E+02 0.  0.
    3000022    2    3    3    0    0 -0.22984387937E+01  0.27480883527E+02 -0.21903372720E+02  0.35217921763E+02  0.24999305289E+00 0.  0.
    1000022    2    1    0    0    0  0.13079496092E+01 -0.52891263103E+02  0.31734106998E+02  0.62499999953E+02  0.10000000121E+02 0.  0.
    3000022    2    5    5    0    0  0.28426525664E+01 -0.14253629629E+02  0.45856628997E+01  0.15242619042E+02  0.24999963730E+00 0.  0.
        -13    1    4    4    0    0 -0.15802125312E+01  0.18878666669E+02 -0.15109533318E+02  0.24232419378E+02  0.10500000000E+00 0. -1.
         13    1    4    4    0    0 -0.71822626250E+00  0.86022168577E+01 -0.67938394022E+01  0.10985502385E+02  0.10500000000E+00 0.  1.
    3000001    1    5    5    0    0 -0.15347029572E+01 -0.38637633473E+02  0.27148444098E+02  0.47257380911E+02  0.10000000000E+01 0. -1.
        -13    1    6    6    0    0  0.11271339331E+01 -0.59796371830E+01  0.19287313625E+01  0.63841617627E+01  0.10500000000E+00 0. -1.
         13    1    6    6    0    0  0.17155186333E+01 -0.82739924463E+01  0.26569315372E+01  0.88584572797E+01  0.10500000000E+00 0.  1.
</event>
<event>
11    0  0.3485800E-009  0.9118800E+02  0.7816531E-02  0.1126479E+00
         25   -1    0    0    0    0  0.00000000000E+00  0.00000000000E+00  0.99999998245E-14  0.12500000000E+03  0.12500000000E+03 0.  0.
    3000001    1    3    3    0    0 -0.27639580618E+01 -0.18217484704E+02  0.18924842290E+02  0.26432288376E+02  0.10000000000E+01 0.  1.
    1000022    2    1    0    0    0  0.30117330693E+01 -0.37875574062E+02  0.48606793125E+02  0.62499999532E+02  0.99999978517E+01 0.  0.
    3000022    2    3    3    0    0  0.57756911311E+01 -0.19658089358E+02  0.29681950835E+02  0.36067711156E+02  0.24999482582E+00 0.  0.
    1000022    2    1    0    0    0 -0.30117330693E+01  0.37875574062E+02 -0.48606793125E+02  0.62500000468E+02  0.10000003701E+02 0.  0.
    3000022    2    5    5    0    0  0.29781009432E+01  0.16767903912E+02 -0.17496091679E+02  0.24417358817E+02  0.25000147499E+00 0.  0.
        -13    1    4    4    0    0  0.34754907186E+01 -0.11618938173E+02  0.17610032803E+02  0.21382306712E+02  0.10500000000E+00 0.  1.
         13    1    4    4    0    0  0.23002004125E+01 -0.80391511850E+01  0.12071918032E+02  0.14685404444E+02  0.10500000000E+00 0. -1.
    3000001    1    5    5    0    0 -0.59898340125E+01  0.21107670150E+02 -0.31110701446E+02  0.38082641651E+02  0.10000000000E+01 0.  1.
        -13    1    6    6    0    0  0.10659611667E+01  0.61918745870E+01 -0.63846528652E+01  0.89582588330E+01  0.10500000000E+00 0.  1.
         13    1    6    6    0    0  0.19121397765E+01  0.10576029325E+02 -0.11111438813E+02  0.15459099984E+02  0.10500000000E+00 0. -1.
</event>
<event>
11    0  0.3485800E-009  0.9118800E+02  0.7816531E-02  0.1126479E+00
         25   -1    0    0    0    0  0.00000000000E+00  0.00000000000E+00  0.99999998245E-14  0.12500000000E+03  0.12500000000E+03 0.  0.
    3000001    1    3    3    0    0 -0.43609441936E+01 -0.76463070200E+01 -0.19239871352E+02  0.21181513046E+02  0.10000000000E+01 0. -1.
    1000022    2    1    0    0    0 -0.20550985412E+02 -0.31072640841E+02 -0.49177211281E+02  0.62500000106E+02  0.99999946851E+01 0.  0.
    3000022    2    3    3    0    0 -0.16190041218E+02 -0.23426333821E+02 -0.29937339929E+02  0.41318487060E+02  0.24999990733E+00 0.  0.
    1000022    2    1    0    0    0  0.20550985412E+02  0.31072640841E+02  0.49177211281E+02  0.62499999894E+02  0.99999933561E+01 0.  0.
    3000022    2    5    5    0    0  0.15699349817E+02  0.24475244286E+02  0.30812109283E+02  0.42366918146E+02  0.25001444000E+00 0.  0.
        -13    1    4    4    0    0 -0.10194146923E+02 -0.14734800795E+02 -0.18921870434E+02  0.26059224695E+02  0.10500000000E+00 0.  1.
         13    1    4    4    0    0 -0.59958942950E+01 -0.86915330257E+01 -0.11015469495E+02  0.15259262365E+02  0.10500000000E+00 0. -1.
    3000001    1    5    5    0    0  0.48516355947E+01  0.65973965548E+01  0.18365101998E+02  0.20133081747E+02  0.10000000000E+01 0.  1.
        -13    1    6    6    0    0  0.92395551369E+01  0.14324155398E+02  0.18131315188E+02  0.24885867926E+02  0.10500000000E+00 0. -1.
         13    1    6    6    0    0  0.64597946802E+01  0.10151088888E+02  0.12680794095E+02  0.17481050220E+02  0.10500000000E+00 0.  1.
</event>
<event>
11    0  0.3485800E-009  0.9118800E+02  0.7816531E-02  0.1126479E+00
         25   -1    0    0    0    0  0.00000000000E+00  0.00000000000E+00  0.99999998245E-14  0.12500000000E+03  0.12500000000E+03 0.  0.
    3000001    1    3    3    0    0  0.33399303674E+02 -0.33223936737E+02  0.21227248923E+02  0.51681133453E+02  0.10000000000E+01 0.  1.
    1000022    2    1    0    0    0  0.42126213414E+02 -0.39606980316E+02  0.21515548654E+02  0.62499997185E+02  0.10000003395E+02 0.  0.
    3000022    2    3    3    0    0  0.87269097403E+01 -0.63830435798E+01  0.28829973139E+00  0.10818863732E+02  0.24999353252E+00 0.  0.
    1000022    2    1    0    0    0 -0.42126213414E+02  0.39606980316E+02 -0.21515548654E+02  0.62500002815E+02  0.10000038578E+02 0.  0.
    3000022    2    5    5    0    0 -0.41911060772E+02  0.38665390703E+02 -0.19963932312E+02  0.60416641365E+02  0.25001428200E+00 0.  0.
        -13    1    4    4    0    0  0.63371137901E+01 -0.45876354977E+01  0.20546365058E+00  0.78267905913E+01  0.10500000000E+00 0. -1.
         13    1    4    4    0    0  0.23897959502E+01 -0.17954080821E+01  0.82836080813E-01  0.29920731410E+01  0.10500000000E+00 0.  1.
    3000001    1    5    5    0    0 -0.21515264149E+00  0.94158961343E+00 -0.15516163416E+01  0.20833614499E+01  0.10000000000E+01 0.  1.
        -13    1    6    6    0    0 -0.32068709490E+02  0.29599891067E+02 -0.15269206329E+02  0.46235434100E+02  0.10500000000E+00 0.  1.
         13    1    6    6    0    0 -0.98423512827E+01  0.90654996360E+01 -0.46947259835E+01  0.14181207265E+02  0.10500000000E+00 0. -1.
</event>
<event>
11    0  0.3485800E-009  0.9118800E+02  0.7816531E-02  0.1126479E+00
         25   -1    0    0    0    0  0.00000000000E+00  0.00000000000E+00  0.99999998245E-14  0.12500000000E+03  0.12500000000E+03 0.  0.
    3000001    1    3    3    0    0  0.21175628892E+02  0.35202548902E+02 -0.50138361701E+01  0.41397648017E+02  0.10000000000E+01 0. -1.
    1000022    2    1    0    0    0  0.34923115009E+02  0.50834764698E+02 -0.15660829711E+01  0.62499994959E+02  0.99999745098E+01 0.  0.
    3000022    2    3    3    0    0  0.13747486117E+02  0.15632215796E+02  0.34477531990E+01  0.21102346942E+02  0.24999826581E+00 0.  0.
    1000022    2    1    0    0    0 -0.34923115009E+02 -0.50834764698E+02  0.15660829711E+01  0.62500005041E+02  0.10000037522E+02 0.  0.
    3000022    2    5    5    0    0 -0.15689201219E+02 -0.14636650572E+02  0.12775059772E+01  0.21495978621E+02  0.25000102797E+00 0.  0.
        -13    1    4    4    0    0  0.49773215271E+01  0.57226658432E+01  0.12141303483E+01  0.76816516089E+01  0.10500000000E+00 0. -1.
         13    1    4    4    0    0  0.87701645900E+01  0.99095499526E+01  0.22336228507E+01  0.13420695334E+02  0.10500000000E+00 0.  1.
    3000001    1    5    5    0    0 -0.19233913790E+02 -0.36198114126E+02  0.28857699387E+00  0.41004026420E+02  0.10000000000E+01 0. -1.
        -13    1    6    6    0    0 -0.59010661684E+01 -0.54248062209E+01  0.46509228728E+00  0.80298468412E+01  0.10500000000E+00 0.  1.
         13    1    6    6    0    0 -0.97881350503E+01 -0.92118443510E+01  0.81241368993E+00  0.13466131780E+02  0.10500000000E+00 0. -1.
</event>
<event>
11    0  0.3485800E-009  0.9118800E+02  0.7816531E-02  0.1126479E+00
         25   -1    0    0    0    0  0.00000000000E+00  0.00000000000E+00  0.99999998245E-14  0.12500000000E+03  0.12500000000E+03 0.  0.
    3000001    1    3    3    0    0 -0.83770523365E+01  0.60085718310E+00 -0.10982551146E+01  0.85289037690E+01  0.10000000000E+01 0. -1.
    1000022    2    1    0    0    0 -0.59830908484E+02 -0.91596649853E+01  0.11942032791E+02  0.62499995306E+02  0.10000009669E+02 0.  0.
    3000022    2    3    3    0    0 -0.51453856148E+02 -0.97605221684E+01  0.13040287905E+02  0.53971091537E+02  0.25001514549E+00 0.  0.
    1000022    2    1    0    0    0  0.59830908484E+02  0.91596649853E+01 -0.11942032791E+02  0.62500004694E+02  0.10000068343E+02 0.  0.
    3000022    2    5    5    0    0  0.49643750646E+02  0.10919332469E+02 -0.83633192322E+01  0.51514477614E+02  0.24999110927E+00 0.  0.
        -13    1    4    4    0    0 -0.22925412042E+02 -0.42914097735E+01  0.57713055788E+01  0.24027270095E+02  0.10500000000E+00 0.  1.
         13    1    4    4    0    0 -0.28528444106E+02 -0.54691123950E+01  0.72689823267E+01  0.29943821442E+02  0.10500000000E+00 0. -1.
    3000001    1    5    5    0    0  0.10187157838E+02 -0.17596674836E+01 -0.35787135586E+01  0.10985527079E+02  0.10000000000E+01 0. -1.
        -13    1    6    6    0    0  0.16978162777E+02  0.36796052290E+01 -0.28451724246E+01  0.17604077285E+02  0.10500000000E+00 0. -1.
         13    1    6    6    0    0  0.32665587869E+02  0.72397272399E+01 -0.55181468076E+01  0.33910400330E+02  0.10500000000E+00 0.  1.
</event>
<event>
11    0  0.3485800E-009  0.9118800E+02  0.7816531E-02  0.1126479E+00
         25   -1    0    0    0    0  0.00000000000E+00  0.00000000000E+00  0.99999998245E-14  0.12500000000E+03  0.12500000000E+03 0.  0.
    3000001    1    3    3    0    0 -0.28750428430E+02  0.49135666439E+01 -0.52104107724E+02  0.59720752790E+02  0.10000000000E+01 0. -1.
    1000022    2    1    0    0    0 -0.31300635467E+02  0.43033718368E+01 -0.52990576609E+02  0.62500000438E+02  0.10000002780E+02 0.  0.
    3000022    2    3    3    0    0 -0.25502070367E+01 -0.61019480714E+00 -0.88646888568E+00  0.27792476487E+01  0.24999354958E+00 0.  0.
    1000022    2    1    0    0    0  0.31300635467E+02 -0.43033718368E+01  0.52990576609E+02  0.62499999562E+02  0.99999973007E+01 0.  0.
    3000022    2    5    5    0    0  0.21391065236E+02 -0.70481606841E+01  0.32356950288E+02  0.39424471764E+02  0.25000190637E+00 0.  0.
        -13    1    4    4    0    0 -0.15245120122E+01 -0.30164243291E+00 -0.50586264488E+00  0.16376956519E+01  0.10500000000E+00 0.  1.
         13    1    4    4    0    0 -0.10256950245E+01 -0.30855237423E+00 -0.38060624080E+00  0.11415519968E+01  0.10500000000E+00 0. -1.
    3000001    1    5    5    0    0  0.99095702305E+01  0.27447888473E+01  0.20633626322E+02  0.23075527798E+02  0.10000000000E+01 0. -1.
        -13    1    6    6    0    0  0.10457769001E+02 -0.34440676187E+01  0.15936702829E+02  0.19370494478E+02  0.10500000000E+00 0. -1.
         13    1    6    6    0    0  0.10933296235E+02 -0.36040930654E+01  0.16420247458E+02  0.20053977286E+02  0.10500000000E+00 0.  1.
</event>
<event>
11    0  0.3485800E-009  0.9118800E+02  0.7816531E-02  0.1126479E+00
         25   -1    0    0    0    0  0.00000000000E+00  0.00000000000E+00  0.99999998245E-14  0.12500000000E+03  0.12500000000E+03 0.  0.
    3000001    1    3    3    0    0 -0.11978644813E+02  0.20251679561E+02 -0.20153714831E+02  0.30996623657E+02  0.10000000000E+01 0.  1.
    1000022    2    1    0    0    0 -0.25797897485E+02  0.32412237934E+02 -0.45718325306E+02  0.62500000193E+02  0.10000003643E+02 0.  0.
    3000022    2    3    3    0    0 -0.13819252671E+02  0.12160558373E+02 -0.25564610475E+02  0.31503376537E+02  0.25000030961E+00 0.  0.
    1000022    2    1    0    0    0  0.25797897485E+02 -0.32412237934E+02  0.45718325306E+02  0.62499999807E+02  0.10000001229E+02 0.  0.
    3000022    2    5    5    0    0  0.84090465269E+01 -0.94585335082E+01  0.77731708331E+01  0.14854649221E+02  0.24999812468E+00 0.  0.
        -13    1    4    4    0    0 -0.79214010371E+01  0.68838464974E+01 -0.14586187846E+02  0.17969525255E+02  0.10500000000E+00 0. -1.
         13    1    4    4    0    0 -0.58978516342E+01  0.52767118755E+01 -0.10978422628E+02  0.13533851282E+02  0.10500000000E+00 0.  1.
    3000001    1    5    5    0    0  0.17388850958E+02 -0.22953704426E+02  0.37945154472E+02  0.47645350586E+02  0.10000000000E+01 0.  1.
        -13    1    6    6    0    0  0.26316760487E+01 -0.30356219183E+01  0.24687452602E+01  0.47166139778E+01  0.10500000000E+00 0.  1.
         13    1    6    6    0    0  0.57773704782E+01 -0.64229115899E+01  0.53044255729E+01  0.10138035243E+02  0.10500000000E+00 0. -1.
</event>
<event>
11    0  0.3485800E-009  0.9118800E+02  0.7816531E-02  0.1126479E+00
         25   -1    0    0    0    0  0.00000000000E+00  0.00000000000E+00  0.99999998245E-14  0.12500000000E+03  0.12500000000E+03 0.  0.
    3000001    1    3    3    0    0  0.82695794567E+00 -0.54693012424E+01 -0.18290200754E+01  0.59112122243E+01  0.10000000000E+01 0.  1.
    1000022    2    1    0    0    0  0.34698586981E+02 -0.45111063363E+02 -0.23817012250E+02  0.62499999500E+02  0.99999944412E+01 0.  0.
    3000022    2    3    3    0    0  0.33871629035E+02 -0.39641762120E+02 -0.21987992175E+02  0.56588787276E+02  0.24997597625E+00 0.  0.
    1000022    2    1    0    0    0 -0.34698586981E+02  0.45111063363E+02  0.23817012250E+02  0.62500000500E+02  0.10000000689E+02 0.  0.
    3000022    2    5    5    0    0 -0.39746243389E+01  0.11180980882E+02  0.66350139181E+01  0.13597715847E+02  0.24998889468E+00 0.  0.
        -13    1    4    4    0    0  0.16537196173E+02 -0.19348177439E+02 -0.10806638602E+02  0.27651858714E+02  0.10500000000E+00 0.  1.
         13    1    4    4    0    0  0.17334432862E+02 -0.20293584682E+02 -0.11181353572E+02  0.28936928562E+02  0.10500000000E+00 0. -1.
    3000001    1    5    5    0    0 -0.30723962642E+02  0.33930082481E+02  0.17181998332E+02  0.48902284653E+02  0.10000000000E+01 0.  1.
        -13    1    6    6    0    0 -0.92430941877E+00  0.25766341267E+01  0.15286483653E+01  0.31370658503E+01  0.10500000000E+00 0.  1.
         13    1    6    6    0    0 -0.30503149202E+01  0.86043467553E+01  0.51063655528E+01  0.10460649997E+02  0.10500000000E+00 0. -1.
</event>
<event>
11    0  0.3485800E-009  0.9118800E+02  0.7816531E-02  0.1126479E+00
         25   -1    0    0    0    0  0.00000000000E+00  0.00000000000E+00  0.99999998245E-14  0.12500000000E+03  0.12500000000E+03 0.  0.
    3000001    1    3    3    0    0 -0.22317889844E+02  0.45811041400E+02 -0.88647781712E+01  0.51733200300E+02  0.10000000000E+01 0. -1.
    1000022    2    1    0    0    0 -0.29147562273E+02  0.52644248217E+02 -0.13610758307E+02  0.62499999595E+02  0.99999975509E+01 0.  0.
    3000022    2    3    3    0    0 -0.68296724286E+01  0.68332068162E+01 -0.47459801353E+01  0.10766799295E+02  0.24999748498E+00 0.  0.
    1000022    2    1    0    0    0  0.29147562273E+02 -0.52644248217E+02  0.13610758307E+02  0.62500000405E+02  0.10000002609E+02 0.  0.
    3000022    2    5    5    0    0  0.22063782552E+01 -0.10799508099E+02  0.44337831984E+01  0.11883535258E+02  0.24999320250E+00 0.  0.
        -13    1    4    4    0    0 -0.19373375596E+01  0.19268435492E+01 -0.13873554033E+01  0.30662326882E+01  0.10500000000E+00 0. -1.
         13    1    4    4    0    0 -0.48923348690E+01  0.49063632671E+01 -0.33586247321E+01  0.77005666070E+01  0.10500000000E+00 0.  1.
    3000001    1    5    5    0    0  0.26941184017E+02 -0.41844740118E+02  0.91769751082E+01  0.50616465147E+02  0.10000000000E+01 0. -1.
        -13    1    6    6    0    0  0.13287364597E+01 -0.67842479832E+01  0.27578828905E+01  0.74436888916E+01  0.10500000000E+00 0. -1.
         13    1    6    6    0    0  0.87764179555E+00 -0.40152601155E+01  0.16759003079E+01  0.44398463665E+01  0.10500000000E+00 0.  1.
</event>
<event>
11    0  0.3485800E-009  0.9118800E+02  0.7816531E-02  0.1126479E+00
         25   -1    0    0    0    0  0.00000000000E+00  0.00000000000E+00  0.99999998245E-14  0.12500000000E+03  0.12500000000E+03 0.  0.
    3000001    1    3    3    0    0  0.37967767463E+01  0.84114977436E+01 -0.21365424133E+02  0.23294852571E+02  0.10000000000E+01 0.  1.
    1000022    2    1    0    0    0  0.37315673436E+01  0.11964717525E+02 -0.60408372171E+02  0.62500004241E+02  0.10000002074E+02 0.  0.
    3000022    2    3    3    0    0 -0.65209402642E-01  0.35532197812E+01 -0.39042948039E+02  0.39205151670E+02  0.25000565690E+00 0.  0.
    1000022    2    1    0    0    0 -0.37315673436E+01 -0.11964717525E+02  0.60408372171E+02  0.62499995759E+02  0.99999490596E+01 0.  0.
    3000022    2    5    5    0    0  0.82114695341E+00  0.11324686552E+01  0.19590157596E+01  0.24201259335E+01  0.24999842651E+00 0.  0.
        -13    1    4    4    0    0 -0.46877742265E-02  0.24922647370E+01 -0.27118509887E+02  0.27232994859E+02  0.10500000000E+00 0. -1.
         13    1    4    4    0    0 -0.60521628415E-01  0.10609550441E+01 -0.11924438151E+02  0.11972156811E+02  0.10500000000E+00 0.  1.
    3000001    1    5    5    0    0 -0.45527142971E+01 -0.13097186180E+02  0.58449356412E+02  0.60079869825E+02  0.10000000000E+01 0.  1.
        -13    1    6    6    0    0  0.53232130411E+00  0.66606964913E+00  0.12676001979E+01  0.15312903089E+01  0.10500000000E+00 0.  1.
         13    1    6    6    0    0  0.28882564930E+00  0.46639900611E+00  0.69141556170E+00  0.88883562460E+00  0.10500000000E+00 0. -1.
</event>
<event>
11    0  0.3485800E-009  0.9118800E+02  0.7816531E-02  0.1126479E+00
         25   -1    0    0    0    0  0.00000000000E+00  0.00000000000E+00  0.99999998245E-14  0.12500000000E+03  0.12500000000E+03 0.  0.
    3000001    1    3    3    0    0 -0.21514326380E+02 -0.12177409515E+02  0.45846482798E+01  0.25162959721E+02  0.10000000000E+01 0.  1.
    1000022    2    1    0    0    0 -0.57937228975E+02 -0.20072057799E+02  0.68293361482E+01  0.62499998065E+02  0.99999960145E+01 0.  0.
    3000022    2    3    3    0    0 -0.36422902595E+02 -0.78946482844E+01  0.22446878684E+01  0.37337038344E+02  0.25000735878E+00 0.  0.
    1000022    2    1    0    0    0  0.57937228975E+02  0.20072057799E+02 -0.68293361482E+01  0.62500001935E+02  0.10000020201E+02 0.  0.
    3000022    2    5    5    0    0  0.21452687448E+02  0.78181296970E+01  0.22459662276E+01  0.22944450648E+02  0.25000110836E+00 0.  0.
        -13    1    4    4    0    0 -0.16563539538E+02 -0.36545278353E+01  0.10443525407E+01  0.16994355326E+02  0.10500000000E+00 0. -1.
         13    1    4    4    0    0 -0.19859363057E+02 -0.42401204491E+01  0.12003353278E+01  0.20342683018E+02  0.10500000000E+00 0.  1.
    3000001    1    5    5    0    0  0.36484541527E+02  0.12253928102E+02 -0.90753023758E+01  0.39555551287E+02  0.10000000000E+01 0. -1.
        -13    1    6    6    0    0  0.75163760261E+01  0.27133552405E+01  0.73482813946E+00  0.80255344135E+01  0.10500000000E+00 0. -1.
         13    1    6    6    0    0  0.13936311422E+02  0.51047744565E+01  0.15111380881E+01  0.14918916235E+02  0.10500000000E+00 0.  1.
</event>
<event>
11    0  0.3485800E-009  0.9118800E+02  0.7816531E-02  0.1126479E+00
         25   -1    0    0    0    0  0.00000000000E+00  0.00000000000E+00  0.99999998245E-14  0.12500000000E+03  0.12500000000E+03 0.  0.
    3000001    1    3    3    0    0 -0.92207331593E-01  0.14109247889E+02  0.87203896294E+01  0.16616996524E+02  0.10000000000E+01 0. -1.
    1000022    2    1    0    0    0 -0.16544992339E+01  0.42257255874E+02  0.44920339841E+02  0.62499999947E+02  0.10000001013E+02 0.  0.
    3000022    2    3    3    0    0 -0.15622919023E+01  0.28148007985E+02  0.36199950211E+02  0.45883003424E+02  0.24999664262E+00 0.  0.
    1000022    2    1    0    0    0  0.16544992339E+01 -0.42257255874E+02 -0.44920339841E+02  0.62500000053E+02  0.10000001671E+02 0.  0.
    3000022    2    5    5    0    0 -0.81032410441E+00  0.20028215805E+00 -0.13428623866E+01  0.16007846954E+01  0.24998830865E+00 0.  0.
        -13    1    4    4    0    0 -0.11508530922E+01  0.21158824844E+02  0.27224548389E+02  0.34499382482E+02  0.10500000000E+00 0.  1.
         13    1    4    4    0    0 -0.41143881011E+00  0.69891831418E+01  0.89754018221E+01  0.11383620942E+02  0.10500000000E+00 0. -1.
    3000001    1    5    5    0    0  0.24648233383E+01 -0.42457538032E+02 -0.43577477454E+02  0.60899215357E+02  0.10000000000E+01 0.  1.
        -13    1    6    6    0    0 -0.30565465653E+00  0.13681320906E+00 -0.57974514307E+00  0.67769613703E+00  0.10500000000E+00 0.  1.
         13    1    6    6    0    0 -0.50466944788E+00  0.63468948998E-01 -0.76311724356E+00  0.92308855834E+00  0.10500000000E+00 0. -1.
</event>
<event>
11    0  0.3485800E-009  0.9118800E+02  0.7816531E-02  0.1126479E+00
         25   -1    0    0    0    0  0.00000000000E+00  0.00000000000E+00  0.99999998245E-14  0.12500000000E+03  0.12500000000E+03 0.  0.
    3000001    1    3    3    0    0  0.56785331605E+02  0.12529895418E+02 -0.19933043053E+02  0.61480878084E+02  0.10000000000E+01 0. -1.
    1000022    2    1    0    0    0  0.57258011331E+02  0.11674974650E+02 -0.19785491316E+02  0.62499996363E+02  0.99999492040E+01 0.  0.
    3000022    2    3    3    0    0  0.47267972629E+00 -0.85492076740E+00  0.14755173730E+00  0.10191182787E+01  0.25002981568E+00 0.  0.
    1000022    2    1    0    0    0 -0.57258011331E+02 -0.11674974650E+02  0.19785491316E+02  0.62500003637E+02  0.99999946689E+01 0.  0.
    3000022    2    5    5    0    0 -0.33802088359E+02 -0.46855054574E+01  0.68802860340E+01  0.34812870788E+02  0.24999548106E+00 0.  0.
        -13    1    4    4    0    0  0.36147228835E+00 -0.65406327997E+00  0.88233660959E-01  0.75978363261E+00  0.10500000000E+00 0. -1.
         13    1    4    4    0    0  0.11120743793E+00 -0.20085748743E+00  0.59318076341E-01  0.25933464614E+00  0.10500000000E+00 0. -1.
    3000001    1    5    5    0    0 -0.23455922972E+02 -0.69894691927E+01  0.12905205282E+02  0.27687132850E+02  0.10000000000E+01 0.  1.
        -13    1    6    6    0    0 -0.10461937067E+02 -0.14052177365E+01  0.21472033009E+01  0.10772570310E+02  0.10500000000E+00 0.  1.
         13    1    6    6    0    0 -0.23340151292E+02 -0.32802877209E+01  0.47330827331E+01  0.24040300477E+02  0.10500000000E+00 0. -1.
</event>
<event>
11    0  0.3485800E-009  0.9118800E+02  0.7816531E-02  0.1126479E+00
         25   -1    0    0    0    0  0.00000000000E+00  0.00000000000E+00  0.99999998245E-14  0.12500000000E+03  0.12500000000E+03 0.  0.
    3000001    1    3    3    0    0 -0.18271996047E+02  0.83000755025E+01 -0.16357756256E+01  0.20160179929E+02  0.10000000000E+01 0. -1.
    1000022    2    1    0    0    0 -0.50687773471E+02  0.34937963957E+02  0.40420937914E+01  0.62500000780E+02  0.99999935209E+01 0.  0.
    3000022    2    3    3    0    0 -0.32415777424E+02  0.26637888455E+02  0.56778694171E+01  0.42339820851E+02  0.25000251591E+00 0.  0.
    1000022    2    1    0    0    0  0.50687773471E+02 -0.34937963957E+02 -0.40420937914E+01  0.62499999220E+02  0.99999837651E+01 0.  0.
    3000022    2    5    5    0    0  0.37626699136E+02 -0.28177368316E+02  0.70418580996E+00  0.47013731552E+02  0.25000746245E+00 0.  0.
        -13    1    4    4    0    0 -0.13961064160E+02  0.11518965677E+02  0.25048658757E+01  0.18272472761E+02  0.10500000000E+00 0.  1.
         13    1    4    4    0    0 -0.18454713264E+02  0.15118922778E+02  0.31730035413E+01  0.24067348090E+02  0.10500000000E+00 0. -1.
    3000001    1    5    5    0    0  0.13061074335E+02 -0.67605956415E+01 -0.47462796014E+01  0.15486267667E+02  0.10000000000E+01 0.  1.
        -13    1    6    6    0    0  0.28248077516E+02 -0.21133397293E+02  0.54864080514E+00  0.35282947669E+02  0.10500000000E+00 0. -1.
         13    1    6    6    0    0  0.93786216203E+01 -0.70439710228E+01  0.15554500482E+00  0.11730783883E+02  0.10500000000E+00 0.  1.
</event>
<event>
11    0  0.3485800E-009  0.9118800E+02  0.7816531E-02  0.1126479E+00
         25   -1    0    0    0    0  0.00000000000E+00  0.00000000000E+00  0.99999998245E-14  0.12500000000E+03  0.12500000000E+03 0.  0.
    3000001    1    3    3    0    0  0.17070569763E+02  0.10132408272E+01  0.37033946316E+02  0.40803727633E+02  0.10000000000E+01 0.  1.
    1000022    2    1    0    0    0  0.23751517910E+02 -0.52686298317E+01  0.56695299996E+02  0.62500001397E+02  0.10000003479E+02 0.  0.
    3000022    2    3    3    0    0  0.66809481471E+01 -0.62818706589E+01  0.19661353680E+02  0.21696273763E+02  0.24999913610E+00 0.  0.
    1000022    2    1    0    0    0 -0.23751517910E+02  0.52686298317E+01 -0.56695299996E+02  0.62499998603E+02  0.99999860214E+01 0.  0.
    3000022    2    5    5    0    0 -0.22830998128E+02  0.56857949487E+01 -0.45588763966E+02  0.51302832623E+02  0.24999087967E+00 0.  0.
        -13    1    4    4    0    0  0.43409015721E+01 -0.40042234429E+01  0.12632379982E+02  0.13945080883E+02  0.10500000000E+00 0.  1.
         13    1    4    4    0    0  0.23400465750E+01 -0.22776472160E+01  0.70289736981E+01  0.77511928799E+01  0.10500000000E+00 0. -1.
    3000001    1    5    5    0    0 -0.92051978144E+00 -0.41716511710E+00 -0.11106536031E+02  0.11197165981E+02  0.10000000000E+01 0. -1.
        -13    1    6    6    0    0 -0.58149353512E+01  0.14738865618E+01 -0.11591998696E+02  0.13052634734E+02  0.10500000000E+00 0. -1.
         13    1    6    6    0    0 -0.17016062777E+02  0.42119083870E+01 -0.33996765270E+02  0.38250197889E+02  0.10500000000E+00 0.  1.
</event>
<event>
11    0  0.3485800E-009  0.9118800E+02  0.7816531E-02  0.1126479E+00
         25   -1    0    0    0    0  0.00000000000E+00  0.00000000000E+00  0.99999998245E-14  0.12500000000E+03  0.12500000000E+03 0.  0.
    3000001    1    3    3    0    0 -0.36414972969E+02  0.21878595901E+02 -0.12716917543E+02  0.44355870037E+02  0.10000000000E+01 0.  1.
    1000022    2    1    0    0    0 -0.53910467488E+02  0.26474379216E+02 -0.14107398194E+02  0.62500000998E+02  0.10000009065E+02 0.  0.
    3000022    2    3    3    0    0 -0.17495494519E+02  0.45957833152E+01 -0.13904806510E+01  0.18144130961E+02  0.24999830490E+00 0.  0.
    1000022    2    1    0    0    0  0.53910467488E+02 -0.26474379216E+02  0.14107398194E+02  0.62499999002E+02  0.99999965933E+01 0.  0.
    3000022    2    5    5    0    0  0.48292303877E+02 -0.20273536585E+02  0.11000818780E+02  0.53518626761E+02  0.24999413840E+00 0.  0.
        -13    1    4    4    0    0 -0.66189921791E+01  0.16848331724E+01 -0.55592482546E+00  0.68534515171E+01  0.10500000000E+00 0.  1.
         13    1    4    4    0    0 -0.10876502340E+02  0.29109501428E+01 -0.83455582558E+00  0.11290679444E+02  0.10500000000E+00 0. -1.
    3000001    1    5    5    0    0  0.56181636104E+01 -0.62008426311E+01  0.31065794141E+01  0.89813722418E+01  0.10000000000E+01 0.  1.
        -13    1    6    6    0    0  0.24182555723E+02 -0.10116954363E+02  0.54449490465E+01  0.26773256470E+02  0.10500000000E+00 0. -1.
         13    1    6    6    0    0  0.24109748154E+02 -0.10156582222E+02  0.55558697336E+01  0.26745370291E+02  0.10500000000E+00 0.  1.
</event>
<event>
11    0  0.3485800E-009  0.9118800E+02  0.7816531E-02  0.1126479E+00
         25   -1    0    0    0    0  0.00000000000E+00  0.00000000000E+00  0.99999998245E-14  0.12500000000E+03  0.12500000000E+03 0.  0.
    3000001    1    3    3    0    0  0.75134559819E+00 -0.25734909991E+02  0.46484641434E+01  0.26181259163E+02  0.10000000000E+01 0.  1.
    1000022    2    1    0    0    0  0.77415262531E+01 -0.57716790878E+02  0.20373766409E+02  0.62500000268E+02  0.10000024893E+02 0.  0.
    3000022    2    3    3    0    0  0.69901806549E+01 -0.31981880887E+02  0.15725302265E+02  0.36318741105E+02  0.24998697301E+00 0.  0.
    1000022    2    1    0    0    0 -0.77415262531E+01  0.57716790878E+02 -0.20373766409E+02  0.62499999732E+02  0.10000021539E+02 0.  0.
    3000022    2    5    5    0    0 -0.59264746969E+01  0.44817468444E+02 -0.19987261735E+02  0.49429562965E+02  0.24996629233E+00 0.  0.
        -13    1    4    4    0    0  0.27284560371E+01 -0.12285576640E+02  0.60946449422E+01  0.13983404010E+02  0.10500000000E+00 0.  1.
         13    1    4    4    0    0  0.42617246178E+01 -0.19696304246E+02  0.96306573230E+01  0.22335337095E+02  0.10500000000E+00 0. -1.
    3000001    1    5    5    0    0 -0.18150515561E+01  0.12899322434E+02 -0.38650467313E+00  0.13070436767E+02  0.10000000000E+01 0. -1.
        -13    1    6    6    0    0 -0.40040175807E+01  0.29900933739E+02 -0.13316264218E+02  0.32976232547E+02  0.10500000000E+00 0.  1.
         13    1    6    6    0    0 -0.19224571162E+01  0.14916534705E+02 -0.66709975175E+01  0.16453330418E+02  0.10500000000E+00 0. -1.
</event>
<event>
11    0  0.3485800E-009  0.9118800E+02  0.7816531E-02  0.1126479E+00
         25   -1    0    0    0    0  0.00000000000E+00  0.00000000000E+00  0.99999998245E-14  0.12500000000E+03  0.12500000000E+03 0.  0.
    3000001    1    3    3    0    0  0.12897506504E+02  0.94479715101E+01  0.37259711363E+02  0.40557316609E+02  0.10000000000E+01 0. -1.
    1000022    2    1    0    0    0  0.26301986947E+02  0.13391066572E+02  0.54176884657E+02  0.62499999880E+02  0.99999986261E+01 0.  0.
    3000022    2    3    3    0    0  0.13404480444E+02  0.39430950622E+01  0.16917173294E+02  0.21942683271E+02  0.25000446991E+00 0.  0.
    1000022    2    1    0    0    0 -0.26301986947E+02 -0.13391066572E+02 -0.54176884657E+02  0.62500000120E+02  0.10000000123E+02 0.  0.
    3000022    2    5    5    0    0 -0.14475743998E+02 -0.11489630275E+02 -0.38845665014E+02  0.43018681426E+02  0.24998620813E+00 0.  0.
        -13    1    4    4    0    0  0.81782488465E+01  0.23510077351E+01  0.10354215986E+02  0.13402679033E+02  0.10500000000E+00 0. -1.
         13    1    4    4    0    0  0.52262315971E+01  0.15920873271E+01  0.65629573084E+01  0.85400042386E+01  0.10500000000E+00 0.  1.
    3000001    1    5    5    0    0 -0.11826242949E+02 -0.19014362972E+01 -0.15331219644E+02  0.19481318694E+02  0.10000000000E+01 0. -1.
        -13    1    6    6    0    0 -0.57486177660E+01 -0.45812952757E+01 -0.15309120592E+02  0.16982787490E+02  0.10500000000E+00 0. -1.
         13    1    6    6    0    0 -0.87271262321E+01 -0.69083349994E+01 -0.23536544422E+02  0.26035893936E+02  0.10500000000E+00 0.  1.
</event>
<event>
11    0  0.3485800E-009  0.9118800E+02  0.7816531E-02  0.1126479E+00
         25   -1    0    0    0    0  0.00000000000E+00  0.00000000000E+00  0.99999998245E-14  0.12500000000E+03  0.12500000000E+03 0.  0.
    3000001    1    3    3    0    0 -0.84354371051E+01 -0.46685014664E+01  0.16231504456E+01  0.98278238926E+01  0.10000000000E+01 0.  1.
    1000022    2    1    0    0    0 -0.42710796134E+02 -0.44450718358E+02 -0.24842374703E+01  0.62500000111E+02  0.10000005454E+02 0.  0.
    3000022    2    3    3    0    0 -0.34275359029E+02 -0.39782216892E+02 -0.41073879159E+01  0.52672176218E+02  0.24998935209E+00 0.  0.
    1000022    2    1    0    0    0  0.42710796134E+02  0.44450718358E+02  0.24842374703E+01  0.62499999889E+02  0.10000004071E+02 0.  0.
    3000022    2    5    5    0    0  0.36858291004E+02  0.35178927018E+02  0.50283704506E+01  0.51199975838E+02  0.24998900312E+00 0.  0.
        -13    1    4    4    0    0 -0.26350092988E+02 -0.30578687008E+02 -0.31660934774E+01  0.40489735397E+02  0.10500000000E+00 0. -1.
         13    1    4    4    0    0 -0.79252660405E+01 -0.92035298842E+01 -0.94129443845E+00  0.12182440821E+02  0.10500000000E+00 0.  1.
    3000001    1    5    5    0    0  0.58525051295E+01  0.92717913402E+01 -0.25441329803E+01  0.11300024052E+02  0.10000000000E+01 0. -1.
        -13    1    6    6    0    0  0.16347986640E+02  0.15626137604E+02  0.21673045682E+01  0.22718738471E+02  0.10500000000E+00 0. -1.
         13    1    6    6    0    0  0.20510304364E+02  0.19552789414E+02  0.28610658824E+01  0.28481237367E+02  0.10500000000E+00 0.  1.
</event>
<event>
11    0  0.3485800E-009  0.9118800E+02  0.7816531E-02  0.1126479E+00
         25   -1    0    0    0    0  0.00000000000E+00  0.00000000000E+00  0.99999998245E-14  0.12500000000E+03  0.12500000000E+03 0.  0.
    3000001    1    3    3    0    0  0.17200045849E+02  0.29424854174E+02  0.37335084426E+02  0.50562556793E+02  0.10000000000E+01 0.  1.
    1000022    2    1    0    0    0  0.17324943523E+02  0.38777183289E+02  0.44748478836E+02  0.62500001078E+02  0.10000008237E+02 0.  0.
    3000022    2    3    3    0    0  0.12489767386E+00  0.93523291152E+01  0.74133944099E+01  0.11937444285E+02  0.25000014575E+00 0.  0.
    1000022    2    1    0    0    0 -0.17324943523E+02 -0.38777183289E+02 -0.44748478836E+02  0.62499998922E+02  0.99999947605E+01 0.  0.
    3000022    2    5    5    0    0 -0.38593524215E+00 -0.79221150001E+01 -0.49182301448E+01  0.93359701859E+01  0.24999893641E+00 0.  0.
        -13    1    4    4    0    0  0.67322599737E-01  0.24945957863E+01  0.19877305229E+01  0.31921212542E+01  0.10500000000E+00 0. -1.
         13    1    4    4    0    0  0.57575074128E-01  0.68577333289E+01  0.54256638870E+01  0.87453230308E+01  0.10500000000E+00 0.  1.
    3000001    1    5    5    0    0 -0.16939008281E+02 -0.30855068289E+02 -0.39830248691E+02  0.53164028736E+02  0.10000000000E+01 0. -1.
        -13    1    6    6    0    0 -0.16317718295E+00 -0.46413734464E+01 -0.28954727165E+01  0.54739164694E+01  0.10500000000E+00 0. -1.
         13    1    6    6    0    0 -0.22275805920E+00 -0.32807415537E+01 -0.20227574283E+01  0.38620537165E+01  0.10500000000E+00 0.  1.
</event>
<event>
11    0  0.3485800E-009  0.9118800E+02  0.7816531E-02  0.1126479E+00
         25   -1    0    0    0    0  0.00000000000E+00  0.00000000000E+00  0.99999998245E-14  0.12500000000E+03  0.12500000000E+03 0.  0.
    3000001    1    3    3    0    0  0.17512903710E+02  0.24831283354E+02  0.53319283791E+02  0.61377849859E+02  0.10000000000E+01 0. -1.
    1000022    2    1    0    0    0  0.17385123808E+02  0.24059962180E+02  0.54084430550E+02  0.62499999599E+02  0.10000000601E+02 0.  0.
    3000022    2    3    3    0    0 -0.12777990175E+00 -0.77132117440E+00  0.76514675952E+00  0.11221497399E+01  0.25001283538E+00 0.  0.
    1000022    2    1    0    0    0 -0.17385123808E+02 -0.24059962180E+02 -0.54084430550E+02  0.62500000401E+02  0.10000005611E+02 0.  0.
    3000022    2    5    5    0    0 -0.13599622644E+02 -0.10433439031E+02 -0.29988745492E+02  0.34542636601E+02  0.25000220931E+00 0.  0.
        -13    1    4    4    0    0 -0.30774713781E-01 -0.19222467793E+00  0.25215578779E+00  0.33541757725E+00  0.10500000000E+00 0.  1.
         13    1    4    4    0    0 -0.97005187969E-01 -0.57909649647E+00  0.51299097173E+00  0.78673216268E+00  0.10500000000E+00 0. -1.
    3000001    1    5    5    0    0 -0.37855011644E+01 -0.13626523149E+02 -0.24095685058E+02  0.27957363799E+02  0.10000000000E+01 0.  1.
        -13    1    6    6    0    0 -0.94212254086E+01 -0.72124101568E+01 -0.20850504865E+02  0.23990267331E+02  0.10500000000E+00 0.  1.
         13    1    6    6    0    0 -0.41783972355E+01 -0.32210288739E+01 -0.91382406269E+01  0.10552369270E+02  0.10500000000E+00 0. -1.
</event>
<event>
11    0  0.3485800E-009  0.9118800E+02  0.7816531E-02  0.1126479E+00
         25   -1    0    0    0    0  0.00000000000E+00  0.00000000000E+00  0.99999998245E-14  0.12500000000E+03  0.12500000000E+03 0.  0.
    3000001    1    3    3    0    0 -0.95431287820E+01  0.35811620183E+02  0.22479224423E+02  0.43357340529E+02  0.10000000000E+01 0.  1.
    1000022    2    1    0    0    0 -0.10468712258E+02  0.48241080675E+02  0.37006129439E+02  0.62500006467E+02  0.10000069566E+02 0.  0.
    3000022    2    3    3    0    0 -0.92558347625E+00  0.12429460492E+02  0.14526905016E+02  0.19142665938E+02  0.24999398392E+00 0.  0.
    1000022    2    1    0    0    0  0.10468712258E+02 -0.48241080675E+02 -0.37006129439E+02  0.62499993533E+02  0.99999887231E+01 0.  0.
    3000022    2    5    5    0    0  0.63500992664E+01 -0.37948256787E+02 -0.23859882509E+02  0.45274169752E+02  0.24999905312E+00 0.  0.
        -13    1    4    4    0    0 -0.47813531470E+00  0.59394925804E+01  0.70330998488E+01  0.92185521626E+01  0.10500000000E+00 0. -1.
         13    1    4    4    0    0 -0.44744816154E+00  0.64899679113E+01  0.74938051673E+01  0.99241137757E+01  0.10500000000E+00 0.  1.
    3000001    1    5    5    0    0  0.41186129919E+01 -0.10292823888E+02 -0.13146246930E+02  0.17225823780E+02  0.10000000000E+01 0.  1.
        -13    1    6    6    0    0  0.17125048548E+01 -0.10133146732E+02 -0.64090972236E+01  0.12112014192E+02  0.10500000000E+00 0. -1.
         13    1    6    6    0    0  0.46375944116E+01 -0.27815110055E+02 -0.17450785285E+02  0.33162155560E+02  0.10500000000E+00 0.  1.
</event>
<event>
11    0  0.3485800E-009  0.9118800E+02  0.7816531E-02  0.1126479E+00
         25   -1    0    0    0    0  0.00000000000E+00  0.00000000000E+00  0.99999998245E-14  0.12500000000E+03  0.12500000000E+03 0.  0.
    3000001    1    3    3    0    0 -0.10595874971E+02 -0.52781915804E+02  0.21956831142E+01  0.53888999125E+02  0.10000000000E+01 0. -1.
    1000022    2    1    0    0    0 -0.15881765884E+02 -0.59551845165E+02  0.27562399496E+01  0.62499998467E+02  0.10000009974E+02 0.  0.
    3000022    2    3    3    0    0 -0.52858909129E+01 -0.67699293611E+01  0.56055683547E+00  0.86109993416E+01  0.24999879338E+00 0.  0.
    1000022    2    1    0    0    0  0.15881765884E+02  0.59551845165E+02 -0.27562399496E+01  0.62500001533E+02  0.10000029140E+02 0.  0.
    3000022    2    5    5    0    0  0.10306559738E+02  0.20492687168E+02 -0.19721941941E+01  0.23024496790E+02  0.25000293606E+00 0.  0.
        -13    1    4    4    0    0 -0.26832042249E+01 -0.35180496287E+01  0.33431154167E+00  0.44383608809E+01  0.10500000000E+00 0. -1.
         13    1    4    4    0    0 -0.26026866880E+01 -0.32518797325E+01  0.22624529381E+00  0.41726384607E+01  0.10500000000E+00 0.  1.
    3000001    1    5    5    0    0  0.55752061458E+01  0.39059157997E+02 -0.78404575552E+00  0.39475504744E+02  0.10000000000E+01 0. -1.
        -13    1    6    6    0    0  0.39764432598E+01  0.79080533544E+01 -0.82281463741E+00  0.88903013325E+01  0.10500000000E+00 0.  1.
         13    1    6    6    0    0  0.63301164785E+01  0.12584633814E+02 -0.11493795567E+01  0.14134195457E+02  0.10500000000E+00 0. -1.
</event>
<event>
11    0  0.3485800E-009  0.9118800E+02  0.7816531E-02  0.1126479E+00
         25   -1    0    0    0    0  0.00000000000E+00  0.00000000000E+00  0.99999998245E-14  0.12500000000E+03  0.12500000000E+03 0.  0.
    3000001    1    3    3    0    0  0.90951609280E+01 -0.25574042218E+02  0.38054190021E+02  0.46753341761E+02  0.10000000000E+01 0.  1.
    1000022    2    1    0    0    0  0.91050386275E+01 -0.37960157018E+02  0.47774207789E+02  0.62499997917E+02  0.99999780222E+01 0.  0.
    3000022    2    3    3    0    0  0.98776994816E-02 -0.12386114800E+02  0.97200177678E+01  0.15746656155E+02  0.24999451106E+00 0.  0.
    1000022    2    1    0    0    0 -0.91050386275E+01  0.37960157018E+02 -0.47774207789E+02  0.62500002083E+02  0.10000004066E+02 0.  0.
    3000022    2    5    5    0    0 -0.79473763320E+01  0.30045511257E+02 -0.43240985860E+02  0.53251656255E+02  0.24999692513E+00 0.  0.
        -13    1    4    4    0    0  0.25539842388E-01 -0.94136384464E+01  0.73773127005E+01  0.11960476945E+02  0.10500000000E+00 0.  1.
         13    1    4    4    0    0 -0.15662142906E-01 -0.29724763534E+01  0.23427050673E+01  0.37861792095E+01  0.10500000000E+00 0. -1.
    3000001    1    5    5    0    0 -0.11576622955E+01  0.79146457608E+01 -0.45332219294E+01  0.92483458289E+01  0.10000000000E+01 0. -1.
        -13    1    6    6    0    0 -0.54702349424E+01  0.20859474908E+02 -0.29981755779E+02  0.36931800232E+02  0.10500000000E+00 0. -1.
         13    1    6    6    0    0 -0.24771413896E+01  0.91860363491E+01 -0.13259230081E+02  0.16319856023E+02  0.10500000000E+00 0.  1.
</event>
<event>
11    0  0.3485800E-009  0.9118800E+02  0.7816531E-02  0.1126479E+00
         25   -1    0    0    0    0  0.00000000000E+00  0.00000000000E+00  0.99999998245E-14  0.12500000000E+03  0.12500000000E+03 0.  0.
    3000001    1    3    3    0    0 -0.23104887248E+02 -0.24257591004E+02 -0.12288623309E+02  0.35697013865E+02  0.10000000000E+01 0. -1.
    1000022    2    1    0    0    0 -0.43309932418E+02 -0.35586626863E+02 -0.25769972591E+02  0.62500002208E+02  0.10000026552E+02 0.  0.
    3000022    2    3    3    0    0 -0.20205045170E+02 -0.11329035859E+02 -0.13481349282E+02  0.26802988343E+02  0.25000358841E+00 0.  0.
    1000022    2    1    0    0    0  0.43309932418E+02  0.35586626863E+02  0.25769972591E+02  0.62499997792E+02  0.99999989569E+01 0.  0.
    3000022    2    5    5    0    0  0.36621516623E+02  0.34047333005E+02  0.22608053925E+02  0.54877526993E+02  0.25000418170E+00 0.  0.
        -13    1    4    4    0    0 -0.13335321774E+02 -0.74240052844E+01 -0.88481126483E+01  0.17642187611E+02  0.10500000000E+00 0.  1.
         13    1    4    4    0    0 -0.68697233967E+01 -0.39050305751E+01 -0.46332366337E+01  0.91608007316E+01  0.10500000000E+00 0. -1.
    3000001    1    5    5    0    0  0.66884157955E+01  0.15392938579E+01  0.31619186664E+01  0.76224707993E+01  0.10000000000E+01 0. -1.
        -13    1    6    6    0    0  0.90108775302E+01  0.83510029989E+01  0.55696112690E+01  0.13489505537E+02  0.10500000000E+00 0. -1.
         13    1    6    6    0    0  0.27610639092E+02  0.25696330006E+02  0.17038442656E+02  0.41388021456E+02  0.10500000000E+00 0.  1.
</event>
<event>
11    0  0.3485800E-009  0.9118800E+02  0.7816531E-02  0.1126479E+00
         25   -1    0    0    0    0  0.00000000000E+00  0.00000000000E+00  0.99999998245E-14  0.12500000000E+03  0.12500000000E+03 0.  0.
    3000001    1    3    3    0    0  0.48418418914E+02  0.38539870025E+01 -0.23450873167E+02  0.53945713067E+02  0.10000000000E+01 0.  1.
    1000022    2    1    0    0    0  0.56965787425E+02  0.36212495287E+01 -0.23410160275E+02  0.62500000132E+02  0.10000001362E+02 0.  0.
    3000022    2    3    3    0    0  0.85473685108E+01 -0.23273747376E+00  0.40712892338E-01  0.85542870648E+01  0.24998891209E+00 0.  0.
    1000022    2    1    0    0    0 -0.56965787425E+02 -0.36212495287E+01  0.23410160275E+02  0.62499999868E+02  0.99999997159E+01 0.  0.
    3000022    2    5    5    0    0 -0.36834416417E+02 -0.31542007760E+01  0.10043692165E+02  0.38310070085E+02  0.25000454118E+00 0.  0.
        -13    1    4    4    0    0  0.55320339895E+01 -0.11000116899E+00 -0.13635141954E-01  0.55341405146E+01  0.10500000000E+00 0.  1.
         13    1    4    4    0    0  0.30153345213E+01 -0.12273630477E+00  0.54348034293E-01  0.30201465502E+01  0.10500000000E+00 0. -1.
    3000001    1    5    5    0    0 -0.20131371008E+02 -0.46704875275E+00  0.13366468110E+02  0.24189929783E+02  0.10000000000E+01 0. -1.
        -13    1    6    6    0    0 -0.23148746862E+02 -0.20404980723E+01  0.63279988295E+01  0.24084906225E+02  0.10500000000E+00 0.  1.
         13    1    6    6    0    0 -0.13685669555E+02 -0.11137027036E+01  0.37156933359E+01  0.14225163861E+02  0.10500000000E+00 0. -1.
</event>
<event>
11    0  0.3485800E-009  0.9118800E+02  0.7816531E-02  0.1126479E+00
         25   -1    0    0    0    0  0.00000000000E+00  0.00000000000E+00  0.99999998245E-14  0.12500000000E+03  0.12500000000E+03 0.  0.
    3000001    1    3    3    0    0  0.12601801458E+01 -0.42541671760E+01 -0.73898015689E+01  0.86772783514E+01  0.10000000000E+01 0.  1.
    1000022    2    1    0    0    0  0.19624694539E+02 -0.95736038034E+01 -0.57701538797E+02  0.62499998416E+02  0.99999848488E+01 0.  0.
    3000022    2    3    3    0    0  0.18364514393E+02 -0.53194366274E+01 -0.50311737228E+02  0.53822720064E+02  0.24999469725E+00 0.  0.
    1000022    2    1    0    0    0 -0.19624694539E+02  0.95736038034E+01  0.57701538797E+02  0.62500001584E+02  0.10000004650E+02 0.  0.
    3000022    2    5    5    0    0 -0.13735799357E+02  0.12924254702E+01  0.32417459709E+02  0.35232041331E+02  0.24998961448E+00 0.  0.
        -13    1    4    4    0    0  0.70415122521E+01 -0.21017822653E+01 -0.19377337971E+02  0.20724204094E+02  0.10500000000E+00 0. -1.
         13    1    4    4    0    0  0.11323002141E+02 -0.32176543621E+01 -0.30934399257E+02  0.33098515970E+02  0.10500000000E+00 0.  1.
    3000001    1    5    5    0    0 -0.58888951813E+01  0.82811783332E+01  0.25284079087E+02  0.27267960253E+02  0.10000000000E+01 0. -1.
        -13    1    6    6    0    0 -0.74516087353E+01  0.76138020103E+00  0.17523126068E+02  0.19057207160E+02  0.10500000000E+00 0.  1.
         13    1    6    6    0    0 -0.62841906221E+01  0.53104526921E+00  0.14894333641E+02  0.16174834171E+02  0.10500000000E+00 0. -1.
</event>
<event>
11    0  0.3485800E-009  0.9118800E+02  0.7816531E-02  0.1126479E+00
         25   -1    0    0    0    0  0.00000000000E+00  0.00000000000E+00  0.99999998245E-14  0.12500000000E+03  0.12500000000E+03 0.  0.
    3000001    1    3    3    0    0 -0.11284648438E+02 -0.88316878260E+01 -0.19993167449E+02  0.24618463496E+02  0.10000000000E+01 0. -1.
    1000022    2    1    0    0    0 -0.17405943569E+02 -0.26825280877E+02 -0.52760661756E+02  0.62500000178E+02  0.10000001385E+02 0.  0.
    3000022    2    3    3    0    0 -0.61212951308E+01 -0.17993593051E+02 -0.32767494306E+02  0.37881536683E+02  0.24998667821E+00 0.  0.
    1000022    2    1    0    0    0  0.17405943569E+02  0.26825280877E+02  0.52760661756E+02  0.62499999822E+02  0.99999991564E+01 0.  0.
    3000022    2    5    5    0    0  0.33732594292E+01  0.20245231688E+00  0.56614990000E+01  0.65981004173E+01  0.24998414338E+00 0.  0.
        -13    1    4    4    0    0 -0.25341555211E+01 -0.75673114684E+01 -0.13863199560E+02  0.15996420665E+02  0.10500000000E+00 0. -1.
         13    1    4    4    0    0 -0.35871396097E+01 -0.10426281583E+02 -0.18904294747E+02  0.21885116017E+02  0.10500000000E+00 0.  1.
    3000001    1    5    5    0    0  0.14032684140E+02  0.26622828560E+02  0.47099162756E+02  0.55901899404E+02  0.10000000000E+01 0. -1.
        -13    1    6    6    0    0  0.22422616977E+01  0.80609489258E-01  0.37634267900E+01  0.43827664339E+01  0.10500000000E+00 0. -1.
         13    1    6    6    0    0  0.11309977316E+01  0.12184282763E+00  0.18980722100E+01  0.22153339834E+01  0.10500000000E+00 0.  1.
</event>
<event>
11    0  0.3485800E-009  0.9118800E+02  0.7816531E-02  0.1126479E+00
         25   -1    0    0    0    0  0.00000000000E+00  0.00000000000E+00  0.99999998245E-14  0.12500000000E+03  0.12500000000E+03 0.  0.
    3000001    1    3    3    0    0 -0.20201943480E+02  0.20659394020E+02 -0.11897542705E+02  0.31264686214E+02  0.10000000000E+01 0.  1.
    1000022    2    1    0    0    0 -0.37444450182E+02  0.36990669712E+02 -0.32184674942E+02  0.62500000214E+02  0.10000011523E+02 0.  0.
    3000022    2    3    3    0    0 -0.17242506703E+02  0.16331275692E+02 -0.20287132236E+02  0.31235314000E+02  0.25000638487E+00 0.  0.
    1000022    2    1    0    0    0  0.37444450182E+02 -0.36990669712E+02  0.32184674942E+02  0.62499999786E+02  0.10000008848E+02 0.  0.
    3000022    2    5    5    0    0  0.27115088392E+02 -0.31363264905E+02  0.22149118776E+02  0.47005620566E+02  0.24999646501E+00 0.  0.
        -13    1    4    4    0    0 -0.46813243774E+01  0.43853268286E+01 -0.54703868732E+01  0.84310169530E+01  0.10500000000E+00 0. -1.
         13    1    4    4    0    0 -0.12561182325E+02  0.11945948864E+02 -0.14816745363E+02  0.22804297047E+02  0.10500000000E+00 0.  1.
    3000001    1    5    5    0    0  0.10329361791E+02 -0.56274048070E+01  0.10035556166E+02  0.15494379220E+02  0.10000000000E+01 0. -1.
        -13    1    6    6    0    0  0.73839923122E+01 -0.85651959795E+01  0.60037483206E+01  0.12803981550E+02  0.10500000000E+00 0.  1.
         13    1    6    6    0    0  0.19731096080E+02 -0.22798068925E+02  0.16145370455E+02  0.34201639016E+02  0.10500000000E+00 0. -1.
</event>
<event>
11    0  0.3485800E-009  0.9118800E+02  0.7816531E-02  0.1126479E+00
         25   -1    0    0    0    0  0.00000000000E+00  0.00000000000E+00  0.99999998245E-14  0.12500000000E+03  0.12500000000E+03 0.  0.
    3000001    1    3    3    0    0 -0.12292981787E+02 -0.18313348238E+00 -0.47280617285E+02  0.48863152886E+02  0.10000000000E+01 0. -1.
    1000022    2    1    0    0    0 -0.11029199392E+02 -0.25587701823E+01 -0.60647006216E+02  0.62500002063E+02  0.10000017542E+02 0.  0.
    3000022    2    3    3    0    0  0.12637823953E+01 -0.23756366999E+01 -0.13366388931E+02  0.13636849177E+02  0.25001350547E+00 0.  0.
    1000022    2    1    0    0    0  0.11029199392E+02  0.25587701823E+01  0.60647006216E+02  0.62499997937E+02  0.99999917550E+01 0.  0.
    3000022    2    5    5    0    0  0.60654941379E+01  0.63814769362E+00  0.51571994702E+02  0.51931980405E+02  0.24999911902E+00 0.  0.
        -13    1    4    4    0    0  0.71606806111E+00 -0.14777242188E+01 -0.81106128335E+01  0.82758375932E+01  0.10500000000E+00 0. -1.
         13    1    4    4    0    0  0.54771433420E+00 -0.89791248112E+00 -0.52557760977E+01  0.53610115841E+01  0.10500000000E+00 0.  1.
    3000001    1    5    5    0    0  0.49637052538E+01  0.19206224887E+01  0.90750115135E+01  0.10568017532E+02  0.10000000000E+01 0.  1.
        -13    1    6    6    0    0  0.35784159787E+01  0.44042372410E+00  0.30527326120E+02  0.30739676299E+02  0.10500000000E+00 0. -1.
         13    1    6    6    0    0  0.24870781592E+01  0.19772396952E+00  0.21044668583E+02  0.21192304105E+02  0.10500000000E+00 0.  1.
</event>
<event>
11    0  0.3485800E-009  0.9118800E+02  0.7816531E-02  0.1126479E+00
         25   -1    0    0    0    0  0.00000000000E+00  0.00000000000E+00  0.99999998245E-14  0.12500000000E+03  0.12500000000E+03 0.  0.
    3000001    1    3    3    0    0  0.22282983109E+02 -0.43896121729E+01 -0.54346325702E+00  0.22739731388E+02  0.10000000000E+01 0. -1.
    1000022    2    1    0    0    0  0.57365023376E+02 -0.21840743587E+02  0.62037397731E+01  0.62499997823E+02  0.99999676657E+01 0.  0.
    3000022    2    3    3    0    0  0.35082040266E+02 -0.17451131414E+02  0.67472030301E+01  0.39760266435E+02  0.25000268532E+00 0.  0.
    1000022    2    1    0    0    0 -0.57365023376E+02  0.21840743587E+02 -0.62037397731E+01  0.62500002177E+02  0.99999948821E+01 0.  0.
    3000022    2    5    5    0    0 -0.21157583231E+02  0.46426239044E+01 -0.57010643740E+01  0.22400043013E+02  0.25001413729E+00 0.  0.
        -13    1    4    4    0    0  0.22816756584E+02 -0.11372293547E+02  0.44434484473E+01  0.25878344241E+02  0.10500000000E+00 0.  1.
         13    1    4    4    0    0  0.12265283682E+02 -0.60788378669E+01  0.23037545828E+01  0.13881922194E+02  0.10500000000E+00 0. -1.
    3000001    1    5    5    0    0 -0.36207440144E+02  0.17198119683E+02 -0.50267539906E+00  0.40099959165E+02  0.10000000000E+01 0. -1.
        -13    1    6    6    0    0 -0.10775341471E+02  0.24277166292E+01 -0.29358565287E+01  0.11429438761E+02  0.10500000000E+00 0.  1.
         13    1    6    6    0    0 -0.10382241760E+02  0.22149072752E+01 -0.27652078453E+01  0.10970604251E+02  0.10500000000E+00 0. -1.
</event>
<event>
11    0  0.3485800E-009  0.9118800E+02  0.7816531E-02  0.1126479E+00
         25   -1    0    0    0    0  0.00000000000E+00  0.00000000000E+00  0.99999998245E-14  0.12500000000E+03  0.12500000000E+03 0.  0.
    3000001    1    3    3    0    0  0.14309742110E+02  0.51592072917E+01  0.56434325218E+00  0.15254659040E+02  0.10000000000E+01 0.  1.
    1000022    2    1    0    0    0  0.56894729418E+02  0.18816242376E+02 -0.14669310587E+02  0.62500002278E+02  0.10000019949E+02 0.  0.
    3000022    2    3    3    0    0  0.42584987308E+02  0.13657035084E+02 -0.15233653839E+02  0.47245343238E+02  0.24999411086E+00 0.  0.
    1000022    2    1    0    0    0 -0.56894729418E+02 -0.18816242376E+02  0.14669310587E+02  0.62499997722E+02  0.99999914712E+01 0.  0.
    3000022    2    5    5    0    0 -0.56277413877E+01 -0.52494499325E+01  0.22909341841E+01  0.80336216602E+01  0.24999964731E+00 0.  0.
        -13    1    4    4    0    0  0.14307840411E+02  0.46252675173E+01 -0.51657044531E+01  0.15899777493E+02  0.10500000000E+00 0. -1.
         13    1    4    4    0    0  0.28277146898E+02  0.90317675671E+01 -0.10067949386E+02  0.31345565746E+02  0.10500000000E+00 0.  1.
    3000001    1    5    5    0    0 -0.51266988030E+02 -0.13566792444E+02  0.12378376403E+02  0.54466376062E+02  0.10000000000E+01 0. -1.
        -13    1    6    6    0    0 -0.35833637160E+01 -0.33354211129E+01  0.13959624114E+01  0.50916859267E+01  0.10500000000E+00 0. -1.
         13    1    6    6    0    0 -0.20443776716E+01 -0.19140288196E+01  0.89497177267E+00  0.29419357335E+01  0.10500000000E+00 0.  1.
</event>
<event>
11    0  0.3485800E-009  0.9118800E+02  0.7816531E-02  0.1126479E+00
         25   -1    0    0    0    0  0.00000000000E+00  0.00000000000E+00  0.99999998245E-14  0.12500000000E+03  0.12500000000E+03 0.  0.
    3000001    1    3    3    0    0 -0.38612341148E+01  0.19915307509E+01 -0.21614571769E+01  0.49545151880E+01  0.10000000000E+01 0.  1.
    1000022    2    1    0    0    0 -0.50132749782E+02 -0.56025971530E+01 -0.35518562216E+02  0.62500000628E+02  0.10000006054E+02 0.  0.
    3000022    2    3    3    0    0 -0.46271515667E+02 -0.75941279039E+01 -0.33357105039E+02  0.57545485440E+02  0.24999440162E+00 0.  0.
    1000022    2    1    0    0    0  0.50132749782E+02  0.56025971530E+01  0.35518562216E+02  0.62499999372E+02  0.99999982061E+01 0.  0.
    3000022    2    5    5    0    0  0.31166446937E+01  0.23128788937E+01  0.84472097996E+00  0.39798178114E+01  0.25002670672E+00 0.  0.
        -13    1    4    4    0    0 -0.13916754829E+02 -0.23307072740E+01 -0.10036870505E+02  0.17316410018E+02  0.10500000000E+00 0. -1.
         13    1    4    4    0    0 -0.32354760838E+02 -0.52634206300E+01 -0.23320234533E+02  0.40229075422E+02  0.10500000000E+00 0.  1.
    3000001    1    5    5    0    0  0.47016105088E+02  0.32897182593E+01  0.34673841236E+02  0.58520181561E+02  0.10000000000E+01 0. -1.
        -13    1    6    6    0    0  0.82600095937E+00  0.61088378900E+00  0.25918618265E+00  0.10647342701E+01  0.10500000000E+00 0.  1.
         13    1    6    6    0    0  0.22906437343E+01  0.17019951047E+01  0.58553479731E+00  0.29150835413E+01  0.10500000000E+00 0. -1.
</event>
<event>
11    0  0.3485800E-009  0.9118800E+02  0.7816531E-02  0.1126479E+00
         25   -1    0    0    0    0  0.00000000000E+00  0.00000000000E+00  0.99999998245E-14  0.12500000000E+03  0.12500000000E+03 0.  0.
    3000001    1    3    3    0    0  0.12489289309E+02  0.12699536934E+02 -0.10278000444E+02  0.20588780413E+02  0.10000000000E+01 0. -1.
    1000022    2    1    0    0    0  0.39405387570E+02  0.26999703727E+02 -0.39044598682E+02  0.62500005689E+02  0.10000072703E+02 0.  0.
    3000022    2    3    3    0    0  0.26916098261E+02  0.14300166793E+02 -0.28766598238E+02  0.41911225276E+02  0.25002811738E+00 0.  0.
    1000022    2    1    0    0    0 -0.39405387570E+02 -0.26999703727E+02  0.39044598682E+02  0.62499994311E+02  0.10000001585E+02 0.  0.
    3000022    2    5    5    0    0 -0.24385903849E+02 -0.13023518627E+02  0.27225263509E+02  0.38801569782E+02  0.25000094345E+00 0.  0.
        -13    1    4    4    0    0  0.69798372541E+01  0.37434443470E+01 -0.74675744379E+01  0.10886101077E+02  0.10500000000E+00 0. -1.
         13    1    4    4    0    0  0.19936261007E+02  0.10556722446E+02 -0.21299023800E+02  0.31025124199E+02  0.10500000000E+00 0.  1.
    3000001    1    5    5    0    0 -0.15019483721E+02 -0.13976185100E+02  0.11819335173E+02  0.23698424528E+02  0.10000000000E+01 0.  1.
        -13    1    6    6    0    0 -0.11585174103E+02 -0.62371844109E+01  0.12885539109E+02  0.18416483690E+02  0.10500000000E+00 0. -1.
         13    1    6    6    0    0 -0.12800729746E+02 -0.67863342156E+01  0.14339724400E+02  0.20385086092E+02  0.10500000000E+00 0.  1.
</event>
<event>
11    0  0.3485800E-009  0.9118800E+02  0.7816531E-02  0.1126479E+00
         25   -1    0    0    0    0  0.00000000000E+00  0.00000000000E+00  0.99999998245E-14  0.12500000000E+03  0.12500000000E+03 0.  0.
    3000001    1    3    3    0    0 -0.11219011848E+02 -0.56993440210E+01 -0.12226823051E+02  0.17573956613E+02  0.10000000000E+01 0.  1.
    1000022    2    1    0    0    0 -0.39955340461E+02 -0.32642066941E+02 -0.33827739609E+02  0.62499995828E+02  0.99999872939E+01 0.  0.
    3000022    2    3    3    0    0 -0.28736328613E+02 -0.26942722920E+02 -0.21600916558E+02  0.44926039215E+02  0.25000576219E+00 0.  0.
    1000022    2    1    0    0    0  0.39955340461E+02  0.32642066941E+02  0.33827739609E+02  0.62500004172E+02  0.10000039446E+02 0.  0.
    3000022    2    5    5    0    0  0.11492086284E+02  0.63237945452E+01  0.13053181009E+02  0.18506929885E+02  0.24998938606E+00 0.  0.
        -13    1    4    4    0    0 -0.11302197945E+02 -0.10514353721E+02 -0.84467259925E+01  0.17596861014E+02  0.10500000000E+00 0.  1.
         13    1    4    4    0    0 -0.17434130668E+02 -0.16428369199E+02 -0.13154190566E+02  0.27329178201E+02  0.10500000000E+00 0. -1.
    3000001    1    5    5    0    0  0.28463254176E+02  0.26318272396E+02  0.20774558600E+02  0.43993074287E+02  0.10000000000E+01 0.  1.
        -13    1    6    6    0    0  0.46224675884E+01  0.25249201419E+01  0.53279721333E+01  0.74927124849E+01  0.10500000000E+00 0. -1.
         13    1    6    6    0    0  0.68696186961E+01  0.37988744033E+01  0.77252088756E+01  0.11014217400E+02  0.10500000000E+00 0.  1.
</event>
<event>
11    0  0.3485800E-009  0.9118800E+02  0.7816531E-02  0.1126479E+00
         25   -1    0    0    0    0  0.00000000000E+00  0.00000000000E+00  0.99999998245E-14  0.12500000000E+03  0.12500000000E+03 0.  0.
    3000001    1    3    3    0    0 -0.16918823119E+01  0.81362694855E+01  0.25171204687E+01  0.87405516046E+01  0.10000000000E+01 0.  1.
    1000022    2    1    0    0    0  0.30331996896E+01  0.50763182762E+02  0.34930631119E+02  0.62500000152E+02  0.10000000205E+02 0.  0.
    3000022    2    3    3    0    0  0.47250820015E+01  0.42626913277E+02  0.32413510650E+02  0.53759448547E+02  0.25000001198E+00 0.  0.
    1000022    2    1    0    0    0 -0.30331996896E+01 -0.50763182762E+02 -0.34930631119E+02  0.62499999848E+02  0.99999983085E+01 0.  0.
    3000022    2    5    5    0    0 -0.58792875724E+01 -0.34437336202E+02 -0.26691239274E+02  0.43965678709E+02  0.25000651556E+00 0.  0.
        -13    1    4    4    0    0  0.27935612227E+01  0.25001757391E+02  0.19088772209E+02  0.31579805357E+02  0.10500000000E+00 0. -1.
         13    1    4    4    0    0  0.19315207788E+01  0.17625155885E+02  0.13324738441E+02  0.22179643190E+02  0.10500000000E+00 0.  1.
    3000001    1    5    5    0    0  0.28460878829E+01 -0.16325846560E+02 -0.82393918446E+01  0.18534321140E+02  0.10000000000E+01 0. -1.
        -13    1    6    6    0    0 -0.25147641259E+01 -0.14699459291E+02 -0.11311888168E+02  0.18718119056E+02  0.10500000000E+00 0. -1.
         13    1    6    6    0    0 -0.33645234465E+01 -0.19737876912E+02 -0.15379351106E+02  0.25247559653E+02  0.10500000000E+00 0.  1.
</event>
<event>
11    0  0.3485800E-009  0.9118800E+02  0.7816531E-02  0.1126479E+00
         25   -1    0    0    0    0  0.00000000000E+00  0.00000000000E+00  0.99999998245E-14  0.12500000000E+03  0.12500000000E+03 0.  0.
    3000001    1    3    3    0    0  0.15179570045E+02 -0.42544688406E+02 -0.85612369723E-01  0.45182708948E+02  0.10000000000E+01 0.  1.
    1000022    2    1    0    0    0  0.15956417973E+02 -0.59488829344E+02 -0.35667923627E+01  0.62499998556E+02  0.99999860238E+01 0.  0.
    3000022    2    3    3    0    0  0.77684792754E+00 -0.16944140938E+02 -0.34811799930E+01  0.17317289609E+02  0.25000083566E+00 0.  0.
    1000022    2    1    0    0    0 -0.15956417973E+02  0.59488829344E+02  0.35667923627E+01  0.62500001444E+02  0.10000004071E+02 0.  0.
    3000022    2    5    5    0    0 -0.23358866894E+01  0.15868898539E+02 -0.30085254743E+01  0.16321521168E+02  0.25004048478E+00 0.  0.
        -13    1    4    4    0    0  0.42888020834E+00 -0.86407651055E+01 -0.18361600307E+01  0.88447311152E+01  0.10500000000E+00 0. -1.
         13    1    4    4    0    0  0.34796771921E+00 -0.83033758324E+01 -0.16450199623E+01  0.84725584934E+01  0.10500000000E+00 0.  1.
    3000001    1    5    5    0    0 -0.13620531284E+02  0.43619930806E+02  0.65753178370E+01  0.46178480276E+02  0.10000000000E+01 0. -1.
        -13    1    6    6    0    0 -0.94775458384E+00  0.68899025772E+01 -0.13076138931E+01  0.70774201068E+01  0.10500000000E+00 0.  1.
         13    1    6    6    0    0 -0.13881321056E+01  0.89789959614E+01 -0.17009115812E+01  0.92441010610E+01  0.10500000000E+00 0. -1.
</event>
<event>
11    0  0.3485800E-009  0.9118800E+02  0.7816531E-02  0.1126479E+00
         25   -1    0    0    0    0  0.00000000000E+00  0.00000000000E+00  0.99999998245E-14  0.12500000000E+03  0.12500000000E+03 0.  0.
    3000001    1    3    3    0    0 -0.62676049531E+01 -0.10976420316E+02 -0.37781194175E+01  0.13230225286E+02  0.10000000000E+01 0. -1.
    1000022    2    1    0    0    0 -0.22298279141E+02 -0.57506125490E+02 -0.14430988900E+01  0.62500001045E+02  0.99999937315E+01 0.  0.
    3000022    2    3    3    0    0 -0.16030674188E+02 -0.46529705175E+02  0.23350205276E+01  0.49269775758E+02  0.25000772048E+00 0.  0.
    1000022    2    1    0    0    0  0.22298279141E+02  0.57506125490E+02  0.14430988900E+01  0.62499998955E+02  0.99999806739E+01 0.  0.
    3000022    2    5    5    0    0  0.67992361057E+01  0.27571460553E+02 -0.26810088392E+01  0.28524820303E+02  0.25003253698E+00 0.  0.
        -13    1    4    4    0    0 -0.40151130765E+01 -0.11713799327E+02  0.56838751638E+00  0.12396302556E+02  0.10500000000E+00 0.  1.
         13    1    4    4    0    0 -0.12015561112E+02 -0.34815905848E+02  0.17666330112E+01  0.36873473203E+02  0.10500000000E+00 0. -1.
    3000001    1    5    5    0    0  0.15499043035E+02  0.29934664937E+02  0.41241077291E+01  0.33975178653E+02  0.10000000000E+01 0.  1.
        -13    1    6    6    0    0  0.31484923241E+01  0.13036536265E+02 -0.12459860753E+01  0.13469513281E+02  0.10500000000E+00 0. -1.
         13    1    6    6    0    0  0.36507437816E+01  0.14534924287E+02 -0.14350227638E+01  0.15055307022E+02  0.10500000000E+00 0.  1.
</event>
<event>
11    0  0.3485800E-009  0.9118800E+02  0.7816531E-02  0.1126479E+00
         25   -1    0    0    0    0  0.00000000000E+00  0.00000000000E+00  0.99999998245E-14  0.12500000000E+03  0.12500000000E+03 0.  0.
    3000001    1    3    3    0    0  0.93848146124E+01  0.18145117508E+01  0.22695660115E+02  0.24646707412E+02  0.10000000000E+01 0.  1.
    1000022    2    1    0    0    0  0.33668437332E+02  0.78387727336E+01  0.51100291480E+02  0.62499998229E+02  0.99999979507E+01 0.  0.
    3000022    2    3    3    0    0  0.24283622719E+02  0.60242609829E+01  0.28404631365E+02  0.37853290817E+02  0.24997991621E+00 0.  0.
    1000022    2    1    0    0    0 -0.33668437332E+02 -0.78387727336E+01 -0.51100291480E+02  0.62500001771E+02  0.10000020085E+02 0.  0.
    3000022    2    5    5    0    0 -0.33291668683E+02 -0.59908893406E+01 -0.47492848234E+02  0.58308310654E+02  0.24999824706E+00 0.  0.
        -13    1    4    4    0    0  0.14739251919E+02  0.36015685171E+01  0.17274184268E+02  0.22991853123E+02  0.10500000000E+00 0.  1.
         13    1    4    4    0    0  0.95443708006E+01  0.24226924658E+01  0.11130447097E+02  0.14861437694E+02  0.10500000000E+00 0. -1.
    3000001    1    5    5    0    0 -0.37676864865E+00 -0.18478833930E+01 -0.36074432453E+01  0.41916911166E+01  0.10000000000E+01 0. -1.
        -13    1    6    6    0    0 -0.23444192915E+02 -0.42001076577E+01 -0.33369400128E+02  0.40997548411E+02  0.10500000000E+00 0.  1.
         13    1    6    6    0    0 -0.98474757677E+01 -0.17907816829E+01 -0.14123448106E+02  0.17310762243E+02  0.10500000000E+00 0. -1.
</event>
<event>
11    0  0.3485800E-009  0.9118800E+02  0.7816531E-02  0.1126479E+00
         25   -1    0    0    0    0  0.00000000000E+00  0.00000000000E+00  0.99999998245E-14  0.12500000000E+03  0.12500000000E+03 0.  0.
    3000001    1    3    3    0    0  0.14282096965E+02  0.32068144532E+02 -0.26149658909E+02  0.43785258347E+02  0.10000000000E+01 0.  1.
    1000022    2    1    0    0    0  0.20917101101E+02  0.40722959491E+02 -0.41356555320E+02  0.62499993162E+02  0.99999964576E+01 0.  0.
    3000022    2    3    3    0    0  0.66350041355E+01  0.86548149589E+01 -0.15206896411E+02  0.18714734815E+02  0.24999777703E+00 0.  0.
    1000022    2    1    0    0    0 -0.20917101101E+02 -0.40722959491E+02  0.41356555320E+02  0.62500006838E+02  0.10000081932E+02 0.  0.
    3000022    2    5    5    0    0 -0.15344136266E+02 -0.23106129517E+02  0.19740183004E+02  0.34045162128E+02  0.25000054170E+00 0.  0.
        -13    1    4    4    0    0  0.45658058163E+01  0.60017689072E+01 -0.10446915682E+02  0.12884753977E+02  0.10500000000E+00 0. -1.
         13    1    4    4    0    0  0.20691983192E+01  0.26530460517E+01 -0.47599807287E+01  0.58299808383E+01  0.10500000000E+00 0.  1.
    3000001    1    5    5    0    0 -0.55729648345E+01 -0.17616829975E+02  0.21616372316E+02  0.28454844710E+02  0.10000000000E+01 0.  1.
        -13    1    6    6    0    0 -0.91375166504E+01 -0.13644515303E+02  0.11688346923E+02  0.20156772737E+02  0.10500000000E+00 0. -1.
         13    1    6    6    0    0 -0.62066196157E+01 -0.94616142138E+01  0.80518360811E+01  0.13888389390E+02  0.10500000000E+00 0.  1.
</event>
<event>
11    0  0.3485800E-009  0.9118800E+02  0.7816531E-02  0.1126479E+00
         25   -1    0    0    0    0  0.00000000000E+00  0.00000000000E+00  0.99999998245E-14  0.12500000000E+03  0.12500000000E+03 0.  0.
    3000001    1    3    3    0    0 -0.38643876262E+01  0.25318246608E+01  0.13751248622E+02  0.14540992625E+02  0.10000000000E+01 0. -1.
    1000022    2    1    0    0    0  0.98086338535E+00  0.93227725413E+01  0.60978470212E+02  0.62499999940E+02  0.99999991157E+01 0.  0.
    3000022    2    3    3    0    0  0.48452510116E+01  0.67909478806E+01  0.47227221590E+02  0.47959007316E+02  0.24998628632E+00 0.  0.
    1000022    2    1    0    0    0 -0.98086338535E+00 -0.93227725413E+01 -0.60978470212E+02  0.62500000060E+02  0.99999998646E+01 0.  0.
    3000022    2    5    5    0    0 -0.26441170984E+00  0.17471175664E+01 -0.18489448018E+02  0.18575373971E+02  0.24999368188E+00 0.  0.
        -13    1    4    4    0    0  0.31978021299E+01  0.44028423172E+01  0.30613054450E+02  0.31093103523E+02  0.10500000000E+00 0. -1.
         13    1    4    4    0    0  0.16474488817E+01  0.23881055633E+01  0.16614167139E+02  0.16865903792E+02  0.10500000000E+00 0.  1.
    3000001    1    5    5    0    0 -0.71645167551E+00 -0.11069890108E+02 -0.42489022194E+02  0.43924626088E+02  0.10000000000E+01 0. -1.
        -13    1    6    6    0    0 -0.22519898319E+00  0.11365525335E+01 -0.12252625654E+02  0.12307734424E+02  0.10500000000E+00 0. -1.
         13    1    6    6    0    0 -0.39212726655E-01  0.61056503283E+00 -0.62368223637E+01  0.62676395472E+01  0.10500000000E+00 0.  1.
</event>
<event>
11    0  0.3485800E-009  0.9118800E+02  0.7816531E-02  0.1126479E+00
         25   -1    0    0    0    0  0.00000000000E+00  0.00000000000E+00  0.99999998245E-14  0.12500000000E+03  0.12500000000E+03 0.  0.
    3000001    1    3    3    0    0  0.16869734028E+02 -0.49878447962E+00  0.14667553509E+02  0.22382444864E+02  0.10000000000E+01 0.  1.
    1000022    2    1    0    0    0  0.44982653559E+02 -0.14353802121E+02  0.39708680933E+02  0.62500001174E+02  0.10000002438E+02 0.  0.
    3000022    2    3    3    0    0  0.28112919531E+02 -0.13855017642E+02  0.25041127424E+02  0.40117556311E+02  0.25000648405E+00 0.  0.
    1000022    2    1    0    0    0 -0.44982653559E+02  0.14353802121E+02 -0.39708680933E+02  0.62499998826E+02  0.99999877590E+01 0.  0.
    3000022    2    5    5    0    0 -0.40876200712E+02  0.12360608758E+02 -0.38883188204E+02  0.57754768271E+02  0.24999918010E+00 0.  0.
        -13    1    4    4    0    0  0.10407689533E+02 -0.51455478396E+01  0.92024807799E+01  0.14815307674E+02  0.10500000000E+00 0.  1.
         13    1    4    4    0    0  0.17705229998E+02 -0.87094698022E+01  0.15838646644E+02  0.25302248636E+02  0.10500000000E+00 0. -1.
    3000001    1    5    5    0    0 -0.41064528479E+01  0.19931933630E+01 -0.82549272877E+00  0.47452305550E+01  0.10000000000E+01 0.  1.
        -13    1    6    6    0    0 -0.24609031751E+02  0.74921564836E+01 -0.23476442029E+02  0.34826587657E+02  0.10500000000E+00 0.  1.
         13    1    6    6    0    0 -0.16267168960E+02  0.48684522748E+01 -0.15406746176E+02  0.22928180614E+02  0.10500000000E+00 0. -1.
</event>
<event>
11    0  0.3485800E-009  0.9118800E+02  0.7816531E-02  0.1126479E+00
         25   -1    0    0    0    0  0.00000000000E+00  0.00000000000E+00  0.99999998245E-14  0.12500000000E+03  0.12500000000E+03 0.  0.
    3000001    1    3    3    0    0 -0.12964224408E+02 -0.16335298859E+02  0.62021291136E+01  0.21780255022E+02  0.10000000000E+01 0.  1.
    1000022    2    1    0    0    0 -0.40659777210E+02 -0.46151833801E+02  0.48000385023E+01  0.62500001573E+02  0.10000029054E+02 0.  0.
    3000022    2    3    3    0    0 -0.27695552802E+02 -0.29816534943E+02 -0.14020906113E+01  0.40719746551E+02  0.25000022181E+00 0.  0.
    1000022    2    1    0    0    0  0.40659777210E+02  0.46151833801E+02 -0.48000385023E+01  0.62499998427E+02  0.10000009386E+02 0.  0.
    3000022    2    5    5    0    0  0.33704257870E+02  0.34358132849E+02 -0.56644567932E+00  0.48133581350E+02  0.25000277984E+00 0.  0.
        -13    1    4    4    0    0 -0.19453383246E+02 -0.20907183487E+02 -0.94572403962E+00  0.28573586755E+02  0.10500000000E+00 0.  1.
         13    1    4    4    0    0 -0.82421695559E+01 -0.89093514560E+01 -0.45636657169E+00  0.12146159796E+02  0.10500000000E+00 0. -1.
    3000001    1    5    5    0    0  0.69555193396E+01  0.11793700952E+02 -0.42335928230E+01  0.14366417077E+02  0.10000000000E+01 0. -1.
        -13    1    6    6    0    0  0.21057524861E+02  0.21483671331E+02 -0.29512752724E+00  0.30084308408E+02  0.10500000000E+00 0.  1.
         13    1    6    6    0    0  0.12646733009E+02  0.12874461519E+02 -0.27131815208E+00  0.18049272942E+02  0.10500000000E+00 0. -1.
</event>
<event>
11    0  0.3485800E-009  0.9118800E+02  0.7816531E-02  0.1126479E+00
         25   -1    0    0    0    0  0.00000000000E+00  0.00000000000E+00  0.99999998245E-14  0.12500000000E+03  0.12500000000E+03 0.  0.
    3000001    1    3    3    0    0 -0.43929592077E+01 -0.21795721611E+01 -0.81655102909E-01  0.50055262422E+01  0.10000000000E+01 0. -1.
    1000022    2    1    0    0    0 -0.60692001686E+02  0.23512924959E+01 -0.10826004408E+02  0.62499999927E+02  0.99999987200E+01 0.  0.
    3000022    2    3    3    0    0 -0.56299042479E+02  0.45308646570E+01 -0.10744349305E+02  0.57494473685E+02  0.25008759326E+00 0.  0.
    1000022    2    1    0    0    0  0.60692001686E+02 -0.23512924959E+01  0.10826004408E+02  0.62500000073E+02  0.99999996273E+01 0.  0.
    3000022    2    5    5    0    0  0.39214534252E+02  0.15147461334E+00  0.11424356967E+02  0.40845820883E+02  0.25002064473E+00 0.  0.
        -13    1    4    4    0    0 -0.39205831399E+02  0.31083463703E+01 -0.74856170845E+01  0.40035041163E+02  0.10500000000E+00 0.  1.
         13    1    4    4    0    0 -0.17093211080E+02  0.14225182867E+01 -0.32587322207E+01  0.17459432522E+02  0.10500000000E+00 0. -1.
    3000001    1    5    5    0    0  0.21477467434E+02 -0.25027671093E+01 -0.59835255939E+00  0.21654179189E+02  0.10000000000E+01 0.  1.
        -13    1    6    6    0    0  0.16467904252E+02  0.12066565976E+00  0.47656407380E+01  0.17144351469E+02  0.10500000000E+00 0. -1.
         13    1    6    6    0    0  0.22746630001E+02  0.30808953582E-01  0.66587162295E+01  0.23701469414E+02  0.10500000000E+00 0.  1.
</event>
<event>
11    0  0.3485800E-009  0.9118800E+02  0.7816531E-02  0.1126479E+00
         25   -1    0    0    0    0  0.00000000000E+00  0.00000000000E+00  0.99999998245E-14  0.12500000000E+03  0.12500000000E+03 0.  0.
    3000001    1    3    3    0    0 -0.36754453511E+01 -0.22984442260E+02 -0.30968027140E+01  0.23502843904E+02  0.10000000000E+01 0. -1.
    1000022    2    1    0    0    0  0.17272768817E+01 -0.61604032174E+02 -0.28652513329E+01  0.62500000835E+02  0.10000008683E+02 0.  0.
    3000022    2    3    3    0    0  0.54027222328E+01 -0.38619589914E+02  0.23155138117E+00  0.38997156931E+02  0.25000000219E+00 0.  0.
    1000022    2    1    0    0    0 -0.17272768817E+01  0.61604032174E+02  0.28652513329E+01  0.62499999165E+02  0.99999982403E+01 0.  0.
    3000022    2    5    5    0    0  0.48696220593E-01  0.24806729567E+00 -0.92732998849E+00  0.99315255598E+00  0.25000477359E+00 0.  0.
        -13    1    4    4    0    0  0.32112692068E+01 -0.23050592419E+02  0.76242018449E-01  0.23273566522E+02  0.10500000000E+00 0.  1.
         13    1    4    4    0    0  0.21914530260E+01 -0.15568997495E+02  0.15530936272E+00  0.15723590409E+02  0.10500000000E+00 0. -1.
    3000001    1    5    5    0    0 -0.17759731023E+01  0.61355964879E+02  0.37925813213E+01  0.61506846609E+02  0.10000000000E+01 0. -1.
        -13    1    6    6    0    0 -0.35991409301E-01  0.15780240180E+00 -0.48314986070E+00  0.52024587211E+00  0.10500000000E+00 0.  1.
         13    1    6    6    0    0  0.84687629894E-01  0.90264893873E-01 -0.44418012779E+00  0.47290668387E+00  0.10500000000E+00 0. -1.
</event>
<event>
11    0  0.3485800E-009  0.9118800E+02  0.7816531E-02  0.1126479E+00
         25   -1    0    0    0    0  0.00000000000E+00  0.00000000000E+00  0.99999998245E-14  0.12500000000E+03  0.12500000000E+03 0.  0.
    3000001    1    3    3    0    0  0.83711359634E+01 -0.29346780227E+01  0.16453048825E+02  0.18718735749E+02  0.10000000000E+01 0.  1.
    1000022    2    1    0    0    0  0.39595777264E+02 -0.12140358651E+02  0.45727848363E+02  0.62500000766E+02  0.10000004724E+02 0.  0.
    3000022    2    3    3    0    0  0.31224641301E+02 -0.92056806285E+01  0.29274799539E+02  0.43781265017E+02  0.24999654252E+00 0.  0.
    1000022    2    1    0    0    0 -0.39595777264E+02  0.12140358651E+02 -0.45727848363E+02  0.62499999234E+02  0.99999951488E+01 0.  0.
    3000022    2    5    5    0    0 -0.90374401634E+01 -0.13712335827E+01 -0.10866691950E+02  0.14202221671E+02  0.25000041603E+00 0.  0.
        -13    1    4    4    0    0  0.12896922892E+02 -0.38582331529E+01  0.12153534833E+02  0.18136593315E+02  0.10500000000E+00 0.  1.
         13    1    4    4    0    0  0.18327718408E+02 -0.53474474756E+01  0.17121264706E+02  0.25644671701E+02  0.10500000000E+00 0. -1.
    3000001    1    5    5    0    0 -0.30558337100E+02  0.13511592234E+02 -0.34861156413E+02  0.48297777563E+02  0.10000000000E+01 0.  1.
        -13    1    6    6    0    0 -0.51504797423E+01 -0.71595074564E+00 -0.61646177896E+01  0.80655789959E+01  0.10500000000E+00 0.  1.
         13    1    6    6    0    0 -0.38869604211E+01 -0.65528283705E+00 -0.47020741605E+01  0.61366426752E+01  0.10500000000E+00 0. -1.
</event>
<event>
11    0  0.3485800E-009  0.9118800E+02  0.7816531E-02  0.1126479E+00
         25   -1    0    0    0    0  0.00000000000E+00  0.00000000000E+00  0.99999998245E-14  0.12500000000E+03  0.12500000000E+03 0.  0.
    3000001    1    3    3    0    0  0.47934021057E+02 -0.21053050085E+02 -0.22046523443E+01  0.52409558141E+02  0.10000000000E+01 0.  1.
    1000022    2    1    0    0    0  0.58015973089E+02 -0.20898215071E+02 -0.19134735067E+01  0.62499999907E+02  0.10000004045E+02 0.  0.
    3000022    2    3    3    0    0  0.10081952031E+02  0.15483501308E+00  0.29117883759E+00  0.10090441766E+02  0.24999853653E+00 0.  0.
    1000022    2    1    0    0    0 -0.58015973089E+02  0.20898215071E+02  0.19134735067E+01  0.62500000093E+02  0.10000005208E+02 0.  0.
    3000022    2    5    5    0    0 -0.55061447721E+02  0.17495605260E+02  0.93935336320E+00  0.57782385894E+02  0.25001260448E+00 0.  0.
        -13    1    4    4    0    0  0.32949129034E+01  0.86579368047E-01  0.57330481156E-01  0.32982205524E+01  0.10500000000E+00 0.  1.
         13    1    4    4    0    0  0.67870391279E+01  0.68255645035E-01  0.23384835644E+00  0.67922212133E+01  0.10500000000E+00 0. -1.
    3000001    1    5    5    0    0 -0.29545253677E+01  0.34026098116E+01  0.97412014355E+00  0.47176141992E+01  0.10000000000E+01 0. -1.
        -13    1    6    6    0    0 -0.32593442343E+02  0.10412571866E+02  0.59111924818E+00  0.34221551449E+02  0.10500000000E+00 0. -1.
         13    1    6    6    0    0 -0.22468005378E+02  0.70830333936E+01  0.34823411502E+00  0.23560834445E+02  0.10500000000E+00 0.  1.
</event>
<event>
11    0  0.3485800E-009  0.9118800E+02  0.7816531E-02  0.1126479E+00
         25   -1    0    0    0    0  0.00000000000E+00  0.00000000000E+00  0.99999998245E-14  0.12500000000E+03  0.12500000000E+03 0.  0.
    3000001    1    3    3    0    0 -0.33746551778E+02  0.12663391608E+02  0.28920199585E+02  0.46223037416E+02  0.10000000000E+01 0.  1.
    1000022    2    1    0    0    0 -0.47244728761E+02  0.20031697583E+02  0.34247877575E+02  0.62499995597E+02  0.99999513705E+01 0.  0.
    3000022    2    3    3    0    0 -0.13498176983E+02  0.73683059744E+01  0.53276779907E+01  0.16276958181E+02  0.25000009697E+00 0.  0.
    1000022    2    1    0    0    0  0.47244728761E+02 -0.20031697583E+02 -0.34247877575E+02  0.62500004403E+02  0.10000006413E+02 0.  0.
    3000022    2    5    5    0    0  0.79889178901E+01 -0.62537712988E+01 -0.34179649293E+01  0.10708755591E+02  0.24999506289E+00 0.  0.
        -13    1    4    4    0    0 -0.50403597394E+01  0.27000849590E+01  0.20226621045E+01  0.60661249639E+01  0.10500000000E+00 0.  1.
         13    1    4    4    0    0 -0.84578172435E+01  0.46682210154E+01  0.33050158862E+01  0.10210833217E+02  0.10500000000E+00 0. -1.
    3000001    1    5    5    0    0  0.39255810871E+02 -0.13777926284E+02 -0.30829912646E+02  0.51791248813E+02  0.10000000000E+01 0.  1.
        -13    1    6    6    0    0  0.31048534939E+01 -0.23543577808E+01 -0.13263444711E+01  0.41174422199E+01  0.10500000000E+00 0.  1.
         13    1    6    6    0    0  0.48840643962E+01 -0.38994135180E+01 -0.20916204582E+01  0.65913133708E+01  0.10500000000E+00 0. -1.
</event>
<event>
11    0  0.3485800E-009  0.9118800E+02  0.7816531E-02  0.1126479E+00
         25   -1    0    0    0    0  0.00000000000E+00  0.00000000000E+00  0.99999998245E-14  0.12500000000E+03  0.12500000000E+03 0.  0.
    3000001    1    3    3    0    0  0.11919576993E+02  0.35826721496E+02  0.55961433715E+01  0.38183073599E+02  0.10000000000E+01 0.  1.
    1000022    2    1    0    0    0  0.26020644310E+02  0.55634726642E+02  0.58269459483E+01  0.62500000585E+02  0.10000001756E+02 0.  0.
    3000022    2    3    3    0    0  0.14101067317E+02  0.19808005146E+02  0.23080257679E+00  0.24316926985E+02  0.25000167032E+00 0.  0.
    1000022    2    1    0    0    0 -0.26020644310E+02 -0.55634726642E+02 -0.58269459483E+01  0.62499999415E+02  0.99999944497E+01 0.  0.
    3000022    2    5    5    0    0 -0.37740110154E+01 -0.43438110346E+01 -0.30428714863E+01  0.65140923726E+01  0.24995821188E+00 0.  0.
        -13    1    4    4    0    0  0.51387803672E+01  0.71185534840E+01  0.77661606789E-01  0.87805423348E+01  0.10500000000E+00 0.  1.
         13    1    4    4    0    0  0.89622869496E+01  0.12689451662E+02  0.15314097000E+00  0.15536384651E+02  0.10500000000E+00 0. -1.
    3000001    1    5    5    0    0 -0.22246633294E+02 -0.51290915608E+02 -0.27840744620E+01  0.55985907043E+02  0.10000000000E+01 0.  1.
        -13    1    6    6    0    0 -0.18111681443E+01 -0.21387871742E+01 -0.14168016335E+01  0.31421477515E+01  0.10500000000E+00 0.  1.
         13    1    6    6    0    0 -0.19628428711E+01 -0.22050238604E+01 -0.16260698528E+01  0.33719446211E+01  0.10500000000E+00 0. -1.
</event>
<event>
11    0  0.3485800E-009  0.9118800E+02  0.7816531E-02  0.1126479E+00
         25   -1    0    0    0    0  0.00000000000E+00  0.00000000000E+00  0.99999998245E-14  0.12500000000E+03  0.12500000000E+03 0.  0.
    3000001    1    3    3    0    0  0.11167067016E+02 -0.18621744779E+02 -0.21852530619E+02  0.30822165057E+02  0.10000000000E+01 0.  1.
    1000022    2    1    0    0    0  0.25092636924E+02 -0.43172364944E+02 -0.36231973101E+02  0.62500001402E+02  0.10000038889E+02 0.  0.
    3000022    2    3    3    0    0  0.13925569909E+02 -0.24550620165E+02 -0.14379442482E+02  0.31677836345E+02  0.25000329589E+00 0.  0.
    1000022    2    1    0    0    0 -0.25092636924E+02  0.43172364944E+02  0.36231973101E+02  0.62499998598E+02  0.10000021360E+02 0.  0.
    3000022    2    5    5    0    0 -0.46882138916E+01  0.46774470926E+01  0.87579467352E+01  0.10982804337E+02  0.24999859160E+00 0.  0.
        -13    1    4    4    0    0  0.73781741744E+01 -0.12911012242E+02 -0.75221809956E+01  0.16665110957E+02  0.10500000000E+00 0. -1.
         13    1    4    4    0    0  0.65473957344E+01 -0.11639607923E+02 -0.68572614867E+01  0.15012725389E+02  0.10500000000E+00 0.  1.
    3000001    1    5    5    0    0 -0.20404423033E+02  0.38494917852E+02  0.27474026366E+02  0.51517194260E+02  0.10000000000E+01 0. -1.
        -13    1    6    6    0    0 -0.22292587143E+01  0.21307941994E+01  0.40985728595E+01  0.51302244415E+01  0.10500000000E+00 0.  1.
         13    1    6    6    0    0 -0.24589551773E+01  0.25466528932E+01  0.46593738757E+01  0.58525798958E+01  0.10500000000E+00 0. -1.
</event>
<event>
11    0  0.3485800E-009  0.9118800E+02  0.7816531E-02  0.1126479E+00
         25   -1    0    0    0    0  0.00000000000E+00  0.00000000000E+00  0.99999998245E-14  0.12500000000E+03  0.12500000000E+03 0.  0.
    3000001    1    3    3    0    0  0.13095038801E+02 -0.21017809469E+02 -0.33386557880E+02  0.41579930292E+02  0.10000000000E+01 0. -1.
    1000022    2    1    0    0    0  0.23617989414E+02 -0.25798013179E+02 -0.50822268560E+02  0.62500000590E+02  0.10000009212E+02 0.  0.
    3000022    2    3    3    0    0  0.10522950613E+02 -0.47802037103E+01 -0.17435710681E+02  0.20920070298E+02  0.24999445167E+00 0.  0.
    1000022    2    1    0    0    0 -0.23617989414E+02  0.25798013179E+02  0.50822268560E+02  0.62499999410E+02  0.10000001833E+02 0.  0.
    3000022    2    5    5    0    0 -0.20531486607E+02  0.24249646419E+02  0.49170041688E+02  0.58543511973E+02  0.25000152657E+00 0.  0.
        -13    1    4    4    0    0  0.56379632635E+01 -0.26144663600E+01 -0.94585900706E+01  0.11318039372E+02  0.10500000000E+00 0.  1.
         13    1    4    4    0    0  0.48849873493E+01 -0.21657373503E+01 -0.79771206100E+01  0.96020309258E+01  0.10500000000E+00 0. -1.
    3000001    1    5    5    0    0 -0.30865028070E+01  0.15483667600E+01  0.16522268720E+01  0.39564874368E+01  0.10000000000E+01 0.  1.
        -13    1    6    6    0    0 -0.55190501366E+01  0.65473935726E+01  0.13195908151E+02  0.15731220358E+02  0.10500000000E+00 0. -1.
         13    1    6    6    0    0 -0.15012436470E+02  0.17702252846E+02  0.35974133537E+02  0.42812291615E+02  0.10500000000E+00 0.  1.
</event>
<event>
11    0  0.3485800E-009  0.9118800E+02  0.7816531E-02  0.1126479E+00
         25   -1    0    0    0    0  0.00000000000E+00  0.00000000000E+00  0.99999998245E-14  0.12500000000E+03  0.12500000000E+03 0.  0.
    3000001    1    3    3    0    0  0.28201327033E+01  0.36146407666E+02 -0.37266216296E+02  0.52002757741E+02  0.10000000000E+01 0.  1.
    1000022    2    1    0    0    0  0.52693655224E+01  0.39909877183E+02 -0.46751315912E+02  0.62499999015E+02  0.99999913752E+01 0.  0.
    3000022    2    3    3    0    0  0.24492328191E+01  0.37634695167E+01 -0.94850996162E+01  0.10497241273E+02  0.25003083413E+00 0.  0.
    1000022    2    1    0    0    0 -0.52693655224E+01 -0.39909877183E+02  0.46751315912E+02  0.62500000985E+02  0.10000003693E+02 0.  0.
    3000022    2    5    5    0    0 -0.65406506718E+01 -0.13731787834E+02  0.15855931882E+02  0.21973055846E+02  0.24999812109E+00 0.  0.
        -13    1    4    4    0    0  0.11034449092E+01  0.15947110855E+01 -0.40129955846E+01  0.44582342554E+01  0.10500000000E+00 0.  1.
         13    1    4    4    0    0  0.13457879100E+01  0.21687584312E+01 -0.54721040316E+01  0.60390070181E+01  0.10500000000E+00 0. -1.
    3000001    1    5    5    0    0  0.12712851494E+01 -0.26178089349E+02  0.30895384031E+02  0.40526945139E+02  0.10000000000E+01 0. -1.
        -13    1    6    6    0    0 -0.23276658992E+01 -0.48897684295E+01  0.55631241064E+01  0.77644857303E+01  0.10500000000E+00 0. -1.
         13    1    6    6    0    0 -0.42129847726E+01 -0.88420194043E+01  0.10292807775E+02  0.14208570116E+02  0.10500000000E+00 0.  1.
</event>
<event>
11    0  0.3485800E-009  0.9118800E+02  0.7816531E-02  0.1126479E+00
         25   -1    0    0    0    0  0.00000000000E+00  0.00000000000E+00  0.99999998245E-14  0.12500000000E+03  0.12500000000E+03 0.  0.
    3000001    1    3    3    0    0 -0.77862752762E+01  0.11128430475E+02  0.24963021958E+02  0.28436253495E+02  0.10000000000E+01 0. -1.
    1000022    2    1    0    0    0 -0.24601173022E+02  0.29049219848E+02  0.48550748333E+02  0.62499999781E+02  0.99999960594E+01 0.  0.
    3000022    2    3    3    0    0 -0.16814897745E+02  0.17920789373E+02  0.23587726374E+02  0.34063746287E+02  0.24999528816E+00 0.  0.
    1000022    2    1    0    0    0  0.24601173022E+02 -0.29049219848E+02 -0.48550748333E+02  0.62500000219E+02  0.99999987926E+01 0.  0.
    3000022    2    5    5    0    0  0.22941332217E+01 -0.87340543006E+01 -0.90796362942E+01  0.12808163249E+02  0.24999763433E+00 0.  0.
        -13    1    4    4    0    0 -0.86339806705E+01  0.92068375219E+01  0.12208878090E+02  0.17560729159E+02  0.10500000000E+00 0.  1.
         13    1    4    4    0    0 -0.81809170748E+01  0.87139518509E+01  0.11378848285E+02  0.16503017128E+02  0.10500000000E+00 0. -1.
    3000001    1    5    5    0    0  0.22307039800E+02 -0.20315165548E+02 -0.39471112038E+02  0.49691836969E+02  0.10000000000E+01 0. -1.
        -13    1    6    6    0    0  0.91796944913E+00 -0.36594220527E+01 -0.37238689495E+01  0.53020998314E+01  0.10500000000E+00 0. -1.
         13    1    6    6    0    0  0.13761637726E+01 -0.50746322478E+01 -0.53557673448E+01  0.75060634177E+01  0.10500000000E+00 0.  1.
</event>
<event>
11    0  0.3485800E-009  0.9118800E+02  0.7816531E-02  0.1126479E+00
         25   -1    0    0    0    0  0.00000000000E+00  0.00000000000E+00  0.99999998245E-14  0.12500000000E+03  0.12500000000E+03 0.  0.
    3000001    1    3    3    0    0 -0.16201758600E+02 -0.23735414836E+02  0.16716338849E+02  0.33261131726E+02  0.10000000000E+01 0.  1.
    1000022    2    1    0    0    0 -0.28233686306E+02 -0.49424848774E+02  0.23796917278E+02  0.62499999446E+02  0.99999970017E+01 0.  0.
    3000022    2    3    3    0    0 -0.12031927705E+02 -0.25689433938E+02  0.70805784297E+01  0.29238867720E+02  0.24998857101E+00 0.  0.
    1000022    2    1    0    0    0  0.28233686306E+02  0.49424848774E+02 -0.23796917278E+02  0.62500000554E+02  0.10000003930E+02 0.  0.
    3000022    2    5    5    0    0  0.85404614635E+01  0.97633868915E+01 -0.19754253121E+01  0.13123567158E+02  0.25000835392E+00 0.  0.
        -13    1    4    4    0    0 -0.45365810064E+01 -0.95584803963E+01  0.26144226864E+01  0.10899144264E+02  0.10500000000E+00 0. -1.
         13    1    4    4    0    0 -0.74953466990E+01 -0.16130953542E+02  0.44661557433E+01  0.18339723456E+02  0.10500000000E+00 0.  1.
    3000001    1    5    5    0    0  0.19693224842E+02  0.39661461883E+02 -0.21821491966E+02  0.49376433397E+02  0.10000000000E+01 0. -1.
        -13    1    6    6    0    0  0.48703290275E+01  0.56057245457E+01 -0.11919044398E+01  0.75216961991E+01  0.10500000000E+00 0. -1.
         13    1    6    6    0    0  0.36701324360E+01  0.41576623459E+01 -0.78352087233E+00  0.56018709586E+01  0.10500000000E+00 0.  1.
</event>
<event>
11    0  0.3485800E-009  0.9118800E+02  0.7816531E-02  0.1126479E+00
         25   -1    0    0    0    0  0.00000000000E+00  0.00000000000E+00  0.99999998245E-14  0.12500000000E+03  0.12500000000E+03 0.  0.
    3000001    1    3    3    0    0  0.41968304501E+01  0.21551346094E+00 -0.13603871141E+01  0.45288502933E+01  0.10000000000E+01 0. -1.
    1000022    2    1    0    0    0  0.58702593660E+02 -0.17496142220E+02  0.73580172381E+01  0.62499998667E+02  0.99999960339E+01 0.  0.
    3000022    2    3    3    0    0  0.54505763210E+02 -0.17711655681E+02  0.87184043521E+01  0.57971148374E+02  0.24999848709E+00 0.  0.
    1000022    2    1    0    0    0 -0.58702593660E+02  0.17496142220E+02 -0.73580172381E+01  0.62500001333E+02  0.10000012696E+02 0.  0.
    3000022    2    5    5    0    0 -0.57181136631E+02  0.15466575774E+02 -0.62813027414E+01  0.59568570700E+02  0.24999696782E+00 0.  0.
        -13    1    4    4    0    0  0.14959530690E+02 -0.48249344309E+01  0.23757662405E+01  0.15897258914E+02  0.10500000000E+00 0. -1.
         13    1    4    4    0    0  0.39546232520E+02 -0.12886721250E+02  0.63426381116E+01  0.42073889460E+02  0.10500000000E+00 0.  1.
    3000001    1    5    5    0    0 -0.15214570290E+01  0.20295664458E+01 -0.10767144967E+01  0.29314306330E+01  0.10000000000E+01 0. -1.
        -13    1    6    6    0    0 -0.22551217583E+02  0.60486479412E+01 -0.25143463168E+01  0.23483537187E+02  0.10500000000E+00 0. -1.
         13    1    6    6    0    0 -0.34629919048E+02  0.94179278329E+01 -0.37669564246E+01  0.36085033513E+02  0.10500000000E+00 0.  1.
</event>
<event>
11    0  0.3485800E-009  0.9118800E+02  0.7816531E-02  0.1126479E+00
         25   -1    0    0    0    0  0.00000000000E+00  0.00000000000E+00  0.99999998245E-14  0.12500000000E+03  0.12500000000E+03 0.  0.
    3000001    1    3    3    0    0 -0.17227686982E+02  0.23191549995E+02 -0.45440794469E+02  0.53856355167E+02  0.10000000000E+01 0.  1.
    1000022    2    1    0    0    0 -0.16816521989E+02  0.29086864982E+02 -0.51743680722E+02  0.62500003341E+02  0.10000039836E+02 0.  0.
    3000022    2    3    3    0    0  0.41116499253E+00  0.58953149866E+01 -0.63028862528E+01  0.86436481740E+01  0.24996639409E+00 0.  0.
    1000022    2    1    0    0    0  0.16816521989E+02 -0.29086864982E+02  0.51743680722E+02  0.62499996659E+02  0.99999980719E+01 0.  0.
    3000022    2    5    5    0    0  0.10615541878E+02 -0.19248894897E+02  0.24823866040E+02  0.33158656672E+02  0.25000601415E+00 0.  0.
        -13    1    4    4    0    0  0.13134240519E+00  0.20665450483E+01 -0.21296180759E+01  0.29722310498E+01  0.10500000000E+00 0.  1.
         13    1    4    4    0    0  0.27982258734E+00  0.38287699382E+01 -0.41732681770E+01  0.56714171242E+01  0.10500000000E+00 0. -1.
    3000001    1    5    5    0    0  0.62009801119E+01 -0.98379700851E+01  0.26919814681E+02  0.29341339987E+02  0.10000000000E+01 0. -1.
        -13    1    6    6    0    0  0.38248564188E+01 -0.69765964675E+01  0.90681212042E+01  0.12064173079E+02  0.10500000000E+00 0. -1.
         13    1    6    6    0    0  0.67906854587E+01 -0.12272298429E+02  0.15755744836E+02  0.21094483594E+02  0.10500000000E+00 0.  1.
</event>
<event>
11    0  0.3485800E-009  0.9118800E+02  0.7816531E-02  0.1126479E+00
         25   -1    0    0    0    0  0.00000000000E+00  0.00000000000E+00  0.99999998245E-14  0.12500000000E+03  0.12500000000E+03 0.  0.
    3000001    1    3    3    0    0 -0.13183556703E+01  0.99764162194E+00 -0.80078569218E+00  0.20915564071E+01  0.10000000000E+01 0. -1.
    1000022    2    1    0    0    0 -0.27403595662E+02 -0.13787466826E+00 -0.55274531141E+02  0.62500004352E+02  0.10000034330E+02 0.  0.
    3000022    2    3    3    0    0 -0.26085239991E+02 -0.11355162902E+01 -0.54473745449E+02  0.60408447945E+02  0.24999462114E+00 0.  0.
    1000022    2    1    0    0    0  0.27403595662E+02  0.13787466826E+00  0.55274531141E+02  0.62499995648E+02  0.99999799252E+01 0.  0.
    3000022    2    5    5    0    0  0.88940858297E+01  0.15248539839E+01  0.95490865690E+01  0.13140680953E+02  0.24999837234E+00 0.  0.
        -13    1    4    4    0    0 -0.12987591752E+02 -0.51091193726E+00 -0.27210710695E+02  0.30155801632E+02  0.10500000000E+00 0. -1.
         13    1    4    4    0    0 -0.13097648240E+02 -0.62460435294E+00 -0.27263034754E+02  0.30252646314E+02  0.10500000000E+00 0.  1.
    3000001    1    5    5    0    0  0.18509509832E+02 -0.13869793156E+01  0.45725444572E+02  0.49359314695E+02  0.10000000000E+01 0. -1.
        -13    1    6    6    0    0  0.33059580785E+01  0.56269651257E+00  0.34628480146E+01  0.48216519529E+01  0.10500000000E+00 0.  1.
         13    1    6    6    0    0  0.55881277511E+01  0.96215747132E+00  0.60862385544E+01  0.83190290000E+01  0.10500000000E+00 0. -1.
</event>
<event>
11    0  0.3485800E-009  0.9118800E+02  0.7816531E-02  0.1126479E+00
         25   -1    0    0    0    0  0.00000000000E+00  0.00000000000E+00  0.99999998245E-14  0.12500000000E+03  0.12500000000E+03 0.  0.
    3000001    1    3    3    0    0  0.42650401096E+01 -0.36258716773E+01 -0.14003400905E+02  0.15113991844E+02  0.10000000000E+01 0.  1.
    1000022    2    1    0    0    0  0.32571117327E+02 -0.17352756898E+02 -0.49439398473E+02  0.62500000376E+02  0.10000003485E+02 0.  0.
    3000022    2    3    3    0    0  0.28306077218E+02 -0.13726885221E+02 -0.35435997568E+02  0.47386008532E+02  0.24999125694E+00 0.  0.
    1000022    2    1    0    0    0 -0.32571117327E+02  0.17352756898E+02  0.49439398473E+02  0.62499999624E+02  0.99999987845E+01 0.  0.
    3000022    2    5    5    0    0 -0.26273234382E+02  0.13174996897E+02  0.31906613164E+02  0.43381538155E+02  0.25000204090E+00 0.  0.
        -13    1    4    4    0    0  0.21172282883E+02 -0.10295939522E+02 -0.26532571198E+02  0.35471964880E+02  0.10500000000E+00 0. -1.
         13    1    4    4    0    0  0.71337943353E+01 -0.34309456989E+01 -0.89034263707E+01  0.11914043652E+02  0.10500000000E+00 0.  1.
    3000001    1    5    5    0    0 -0.62978829456E+01  0.41777600010E+01  0.17532785309E+02  0.19118461469E+02  0.10000000000E+01 0. -1.
        -13    1    6    6    0    0 -0.10625672923E+02  0.52791605196E+01  0.12947675441E+02  0.17562112207E+02  0.10500000000E+00 0. -1.
         13    1    6    6    0    0 -0.15647561459E+02  0.78958363776E+01  0.18958937723E+02  0.25819425948E+02  0.10500000000E+00 0.  1.
</event>
<event>
11    0  0.3485800E-009  0.9118800E+02  0.7816531E-02  0.1126479E+00
         25   -1    0    0    0    0  0.00000000000E+00  0.00000000000E+00  0.99999998245E-14  0.12500000000E+03  0.12500000000E+03 0.  0.
    3000001    1    3    3    0    0 -0.73424395964E+01 -0.14838439599E+02  0.89042364522E+01  0.18824880764E+02  0.10000000000E+01 0.  1.
    1000022    2    1    0    0    0 -0.36330185952E+02 -0.44906808033E+02  0.21673628553E+02  0.62500000569E+02  0.10000003877E+02 0.  0.
    3000022    2    3    3    0    0 -0.28987746356E+02 -0.30068368433E+02  0.12769392101E+02  0.43675119806E+02  0.24999280305E+00 0.  0.
    1000022    2    1    0    0    0  0.36330185952E+02  0.44906808033E+02 -0.21673628553E+02  0.62499999431E+02  0.99999967599E+01 0.  0.
    3000022    2    5    5    0    0  0.89822726270E+01  0.52803789598E+01 -0.29648689384E+01  0.10835892639E+02  0.24999590252E+00 0.  0.
        -13    1    4    4    0    0 -0.14862761149E+02 -0.15503923739E+02  0.65344357463E+01  0.22449570058E+02  0.10500000000E+00 0. -1.
         13    1    4    4    0    0 -0.14124985207E+02 -0.14564444694E+02  0.62349563545E+01  0.21225549748E+02  0.10500000000E+00 0.  1.
    3000001    1    5    5    0    0  0.27347913325E+02  0.39626429073E+02 -0.18708759614E+02  0.51664106792E+02  0.10000000000E+01 0. -1.
        -13    1    6    6    0    0  0.52528927243E+01  0.31604677318E+01 -0.17291299079E+01  0.63704280465E+01  0.10500000000E+00 0. -1.
         13    1    6    6    0    0  0.37293799027E+01  0.21199112279E+01 -0.12357390305E+01  0.44654645923E+01  0.10500000000E+00 0.  1.
</event>
<event>
11    0  0.3485800E-009  0.9118800E+02  0.7816531E-02  0.1126479E+00
         25   -1    0    0    0    0  0.00000000000E+00  0.00000000000E+00  0.99999998245E-14  0.12500000000E+03  0.12500000000E+03 0.  0.
    3000001    1    3    3    0    0  0.19661772212E+02  0.18655827980E+01 -0.50710560761E+01  0.20415222150E+02  0.10000000000E+01 0. -1.
    1000022    2    1    0    0    0  0.61644185913E+02  0.65080328593E+00 -0.24126317324E+01  0.62499999322E+02  0.99999960840E+01 0.  0.
    3000022    2    3    3    0    0  0.41982413700E+02 -0.12147795121E+01  0.26584243436E+01  0.42084777172E+02  0.25000059788E+00 0.  0.
    1000022    2    1    0    0    0 -0.61644185913E+02 -0.65080328593E+00  0.24126317324E+01  0.62500000678E+02  0.10000004553E+02 0.  0.
    3000022    2    5    5    0    0 -0.23103723044E+02  0.21684994667E+01 -0.32429035293E+01  0.23432100488E+02  0.25000307937E+00 0.  0.
        -13    1    4    4    0    0  0.31423352241E+02 -0.88965676377E+00  0.20086978874E+01  0.31500229323E+02  0.10500000000E+00 0.  1.
         13    1    4    4    0    0  0.10559061460E+02 -0.32512274832E+00  0.64972645624E+00  0.10584547849E+02  0.10500000000E+00 0. -1.
    3000001    1    5    5    0    0 -0.38540462868E+02 -0.28193027526E+01  0.56555352617E+01  0.39067900189E+02  0.10000000000E+01 0.  1.
        -13    1    6    6    0    0 -0.12626669837E+02  0.11238530480E+01 -0.17990465785E+01  0.12804039614E+02  0.10500000000E+00 0.  1.
         13    1    6    6    0    0 -0.10477053208E+02  0.10446464187E+01 -0.14438569508E+01  0.10628060874E+02  0.10500000000E+00 0. -1.
</event>
<event>
11    0  0.3485800E-009  0.9118800E+02  0.7816531E-02  0.1126479E+00
         25   -1    0    0    0    0  0.00000000000E+00  0.00000000000E+00  0.99999998245E-14  0.12500000000E+03  0.12500000000E+03 0.  0.
    3000001    1    3    3    0    0  0.39513079916E+01  0.12158585084E+02  0.19654248794E+02  0.23467712324E+02  0.10000000000E+01 0. -1.
    1000022    2    1    0    0    0  0.56805474611E+01  0.21784100375E+02  0.57440703631E+02  0.62500000049E+02  0.99999961996E+01 0.  0.
    3000022    2    3    3    0    0  0.17292394695E+01  0.96255152905E+01  0.37786454837E+02  0.39032287725E+02  0.25000430549E+00 0.  0.
    1000022    2    1    0    0    0 -0.56805474611E+01 -0.21784100375E+02 -0.57440703631E+02  0.62499999951E+02  0.99999955818E+01 0.  0.
    3000022    2    5    5    0    0 -0.51288697922E+01 -0.16452060482E+02 -0.52062306930E+02  0.54840878020E+02  0.24999950517E+00 0.  0.
        -13    1    4    4    0    0  0.93849128122E+00  0.48471379112E+01  0.19124753593E+02  0.19752031207E+02  0.10500000000E+00 0. -1.
         13    1    4    4    0    0  0.79074818827E+00  0.47783773793E+01  0.18661701245E+02  0.19280256518E+02  0.10500000000E+00 0.  1.
    3000001    1    5    5    0    0 -0.55167766893E+00 -0.53320398929E+01 -0.53783967013E+01  0.76591219305E+01  0.10000000000E+01 0.  1.
        -13    1    6    6    0    0 -0.24083258941E+01 -0.75180971139E+01 -0.23932917045E+02  0.25201534896E+02  0.10500000000E+00 0.  1.
         13    1    6    6    0    0 -0.27205438981E+01 -0.89339633677E+01 -0.28129389885E+02  0.29639343124E+02  0.10500000000E+00 0. -1.
</event>
<event>
11    0  0.3485800E-009  0.9118800E+02  0.7816531E-02  0.1126479E+00
         25   -1    0    0    0    0  0.00000000000E+00  0.00000000000E+00  0.99999998245E-14  0.12500000000E+03  0.12500000000E+03 0.  0.
    3000001    1    3    3    0    0  0.17063014708E+01  0.16899381431E+01 -0.17675827598E+01  0.31451080187E+01  0.10000000000E+01 0.  1.
    1000022    2    1    0    0    0  0.58782497604E+02  0.13180275535E+02 -0.13309707235E+02  0.62499999649E+02  0.99999980856E+01 0.  0.
    3000022    2    3    3    0    0  0.57076196133E+02  0.11490337392E+02 -0.11542124475E+02  0.59354891630E+02  0.25000926606E+00 0.  0.
    1000022    2    1    0    0    0 -0.58782497604E+02 -0.13180275535E+02  0.13309707235E+02  0.62500000351E+02  0.10000002473E+02 0.  0.
    3000022    2    5    5    0    0 -0.18750883344E+02 -0.46364080809E+01 -0.39699800274E+00  0.19321283605E+02  0.24997333213E+00 0.  0.
        -13    1    4    4    0    0  0.13478664871E+02  0.27290080175E+01 -0.27218511506E+01  0.14019322029E+02  0.10500000000E+00 0. -1.
         13    1    4    4    0    0  0.43597531262E+02  0.87613293740E+01 -0.88202733247E+01  0.45335569601E+02  0.10500000000E+00 0.  1.
    3000001    1    5    5    0    0 -0.40031614260E+02 -0.85438674537E+01  0.13706705238E+02  0.43178716746E+02  0.10000000000E+01 0. -1.
        -13    1    6    6    0    0 -0.97083786944E+01 -0.23595925867E+01 -0.15057037188E+00  0.99926968575E+01  0.10500000000E+00 0. -1.
         13    1    6    6    0    0 -0.90425046497E+01 -0.22768154942E+01 -0.24642763086E+00  0.93285867478E+01  0.10500000000E+00 0.  1.
</event>
<event>
11    0  0.3485800E-009  0.9118800E+02  0.7816531E-02  0.1126479E+00
         25   -1    0    0    0    0  0.00000000000E+00  0.00000000000E+00  0.99999998245E-14  0.12500000000E+03  0.12500000000E+03 0.  0.
    3000001    1    3    3    0    0 -0.23607183009E+01 -0.48608770569E+01  0.10096015770E+02  0.11494809745E+02  0.10000000000E+01 0.  1.
    1000022    2    1    0    0    0 -0.13304702951E+02 -0.42710535586E+02  0.42485820208E+02  0.62499999515E+02  0.10000002498E+02 0.  0.
    3000022    2    3    3    0    0 -0.10943984650E+02 -0.37849658529E+02  0.32389804438E+02  0.51005189770E+02  0.25000218316E+00 0.  0.
    1000022    2    1    0    0    0  0.13304702951E+02  0.42710535586E+02 -0.42485820208E+02  0.62500000485E+02  0.10000008563E+02 0.  0.
    3000022    2    5    5    0    0  0.13817269300E+02  0.42015114038E+02 -0.39772315297E+02  0.59481814889E+02  0.24999976137E+00 0.  0.
        -13    1    4    4    0    0 -0.43838456798E+01 -0.15089966414E+02  0.12840773890E+02  0.20293390265E+02  0.10500000000E+00 0.  1.
         13    1    4    4    0    0 -0.65601389700E+01 -0.22759692115E+02  0.19549030548E+02  0.30711799505E+02  0.10500000000E+00 0. -1.
    3000001    1    5    5    0    0 -0.51256634884E+00  0.69542154803E+00 -0.27135049109E+01  0.30181855962E+01  0.10000000000E+01 0. -1.
        -13    1    6    6    0    0  0.58805675517E+01  0.18013312114E+02 -0.16971310791E+02  0.25438099438E+02  0.10500000000E+00 0. -1.
         13    1    6    6    0    0  0.79367017478E+01  0.24001801924E+02 -0.22801004506E+02  0.34043715451E+02  0.10500000000E+00 0.  1.
</event>
<event>
11    0  0.3485800E-009  0.9118800E+02  0.7816531E-02  0.1126479E+00
         25   -1    0    0    0    0  0.00000000000E+00  0.00000000000E+00  0.99999998245E-14  0.12500000000E+03  0.12500000000E+03 0.  0.
    3000001    1    3    3    0    0 -0.95939270754E+00 -0.27168240918E+02 -0.17940666969E+02  0.32586826790E+02  0.10000000000E+01 0.  1.
    1000022    2    1    0    0    0 -0.11138888029E+02 -0.50951020321E+02 -0.32957076182E+02  0.62499997206E+02  0.99999740962E+01 0.  0.
    3000022    2    3    3    0    0 -0.10179495321E+02 -0.23782779403E+02 -0.15016409213E+02  0.29913170415E+02  0.24999503256E+00 0.  0.
    1000022    2    1    0    0    0  0.11138888029E+02  0.50951020321E+02  0.32957076182E+02  0.62500002794E+02  0.10000009025E+02 0.  0.
    3000022    2    5    5    0    0  0.56769483512E+00  0.30411574866E+01  0.53762232343E+01  0.62078316538E+01  0.24996258099E+00 0.  0.
        -13    1    4    4    0    0 -0.58673084815E+01 -0.13830058693E+02 -0.87704593939E+01  0.17396201173E+02  0.10500000000E+00 0.  1.
         13    1    4    4    0    0 -0.43121868398E+01 -0.99527207099E+01 -0.62459498191E+01  0.12516969242E+02  0.10500000000E+00 0. -1.
    3000001    1    5    5    0    0  0.10571193194E+02  0.47909862835E+02  0.27580852948E+02  0.56292171141E+02  0.10000000000E+01 0. -1.
        -13    1    6    6    0    0  0.27161364225E+00  0.11496762573E+01  0.21030090674E+01  0.24143739571E+01  0.10500000000E+00 0. -1.
         13    1    6    6    0    0  0.29608119288E+00  0.18914812293E+01  0.32732141669E+01  0.37934576966E+01  0.10500000000E+00 0.  1.
</event>
<event>
11    0  0.3485800E-009  0.9118800E+02  0.7816531E-02  0.1126479E+00
         25   -1    0    0    0    0  0.00000000000E+00  0.00000000000E+00  0.99999998245E-14  0.12500000000E+03  0.12500000000E+03 0.  0.
    3000001    1    3    3    0    0  0.11480757448E+02 -0.20408589292E+01  0.59003337939E+01  0.13106747713E+02  0.10000000000E+01 0. -1.
    1000022    2    1    0    0    0  0.45187584487E+02 -0.10564500847E+01  0.41990656290E+02  0.62499997653E+02  0.10000030621E+02 0.  0.
    3000022    2    3    3    0    0  0.33706827040E+02  0.98440884450E+00  0.36090322497E+02  0.49393249940E+02  0.25002380715E+00 0.  0.
    1000022    2    1    0    0    0 -0.45187584487E+02  0.10564500847E+01 -0.41990656290E+02  0.62500002347E+02  0.10000059952E+02 0.  0.
    3000022    2    5    5    0    0  0.17220785888E+00 -0.60384903153E+00 -0.27731578116E-01  0.67642751257E+00  0.24999187947E+00 0.  0.
        -13    1    4    4    0    0  0.18592367335E+02  0.55569974755E+00  0.19811605878E+02  0.27175276960E+02  0.10500000000E+00 0. -1.
         13    1    4    4    0    0  0.15114459704E+02  0.42870909694E+00  0.16278716618E+02  0.22217972981E+02  0.10500000000E+00 0.  1.
    3000001    1    5    5    0    0 -0.45359792346E+02  0.16602991162E+01 -0.41962924712E+02  0.61823574834E+02  0.10000000000E+01 0.  1.
        -13    1    6    6    0    0  0.14584975318E+00 -0.45420584301E+00 -0.47027605030E-01  0.49072568097E+00  0.10500000000E+00 0. -1.
         13    1    6    6    0    0  0.26358105694E-01 -0.14964318852E+00  0.19296026914E-01  0.18570183160E+00  0.10500000000E+00 0.  1.
</event>
<event>
11    0  0.3485800E-009  0.9118800E+02  0.7816531E-02  0.1126479E+00
         25   -1    0    0    0    0  0.00000000000E+00  0.00000000000E+00  0.99999998245E-14  0.12500000000E+03  0.12500000000E+03 0.  0.
    3000001    1    3    3    0    0  0.34922681819E+02  0.28204839077E+02 -0.83436288611E+01  0.45669714203E+02  0.10000000000E+01 0. -1.
    1000022    2    1    0    0    0  0.44999966460E+02  0.38737953072E+02 -0.16751830628E+02  0.62499999800E+02  0.10000007802E+02 0.  0.
    3000022    2    3    3    0    0  0.10077284640E+02  0.10533113995E+02 -0.84082017665E+01  0.16830285597E+02  0.25000034460E+00 0.  0.
    1000022    2    1    0    0    0 -0.44999966460E+02 -0.38737953072E+02  0.16751830628E+02  0.62500000200E+02  0.10000010308E+02 0.  0.
    3000022    2    5    5    0    0 -0.38030740117E+02 -0.36747075144E+02  0.14301786794E+02  0.54784015136E+02  0.24996681971E+00 0.  0.
        -13    1    4    4    0    0  0.43374556025E+01  0.45112770676E+01 -0.36833505896E+01  0.72624540239E+01  0.10500000000E+00 0.  1.
         13    1    4    4    0    0  0.57398290376E+01  0.60218369273E+01 -0.47248511769E+01  0.95678315727E+01  0.10500000000E+00 0. -1.
    3000001    1    5    5    0    0 -0.69692263423E+01 -0.19908779280E+01  0.24500438336E+01  0.77159850649E+01  0.10000000000E+01 0.  1.
        -13    1    6    6    0    0 -0.23729275284E+02 -0.22963215663E+02  0.88733783055E+01  0.34192625618E+02  0.10500000000E+00 0.  1.
         13    1    6    6    0    0 -0.14301464833E+02 -0.13783859480E+02  0.54284084885E+01  0.20591389518E+02  0.10500000000E+00 0. -1.
</event>
<event>
11    0  0.3485800E-009  0.9118800E+02  0.7816531E-02  0.1126479E+00
         25   -1    0    0    0    0  0.00000000000E+00  0.00000000000E+00  0.99999998245E-14  0.12500000000E+03  0.12500000000E+03 0.  0.
    3000001    1    3    3    0    0 -0.39006157010E-01 -0.46190669330E+02 -0.15248196620E+02  0.48652717856E+02  0.10000000000E+01 0. -1.
    1000022    2    1    0    0    0 -0.28241718723E+01 -0.56998019058E+02 -0.23441409732E+02  0.62499998542E+02  0.10000000210E+02 0.  0.
    3000022    2    3    3    0    0 -0.27851657153E+01 -0.10807349728E+02 -0.81932131129E+01  0.13847280686E+02  0.24997015196E+00 0.  0.
    1000022    2    1    0    0    0  0.28241718723E+01  0.56998019058E+02  0.23441409732E+02  0.62500001458E+02  0.10000018436E+02 0.  0.
    3000022    2    5    5    0    0  0.33933303139E+01  0.57949527069E+01  0.25774727146E+01  0.71973630675E+01  0.25000407309E+00 0.  0.
        -13    1    4    4    0    0 -0.19345361077E+01 -0.73247187642E+01 -0.55320419136E+01  0.93812817706E+01  0.10500000000E+00 0. -1.
         13    1    4    4    0    0 -0.85062960758E+00 -0.34826309640E+01 -0.26611711993E+01  0.44659989154E+01  0.10500000000E+00 0.  1.
    3000001    1    5    5    0    0 -0.56915844152E+00  0.51203066351E+02  0.20863937018E+02  0.55302638391E+02  0.10000000000E+01 0. -1.
        -13    1    6    6    0    0  0.22019208062E+01  0.36537293770E+01  0.16114184675E+01  0.45613471776E+01  0.10500000000E+00 0.  1.
         13    1    6    6    0    0  0.11914095077E+01  0.21412233298E+01  0.96605424712E+00  0.26360158899E+01  0.10500000000E+00 0. -1.
</event>
<event>
11    0  0.3485800E-009  0.9118800E+02  0.7816531E-02  0.1126479E+00
         25   -1    0    0    0    0  0.00000000000E+00  0.00000000000E+00  0.99999998245E-14  0.12500000000E+03  0.12500000000E+03 0.  0.
    3000001    1    3    3    0    0  0.16361557407E+01  0.98697214243E+00  0.49067050955E+01  0.53597457507E+01  0.10000000000E+01 0. -1.
    1000022    2    1    0    0    0  0.35929261272E+01 -0.14848067582E+02  0.59773535032E+02  0.62500002445E+02  0.10000029319E+02 0.  0.
    3000022    2    3    3    0    0  0.19567703865E+01 -0.15835039724E+02  0.54866829936E+02  0.57140256694E+02  0.24994888794E+00 0.  0.
    1000022    2    1    0    0    0 -0.35929261272E+01  0.14848067582E+02 -0.59773535032E+02  0.62499997555E+02  0.99999987564E+01 0.  0.
    3000022    2    5    5    0    0 -0.52000977962E+01  0.10958421415E+02 -0.53637362716E+02  0.54992337549E+02  0.24998596883E+00 0.  0.
        -13    1    4    4    0    0  0.11594977627E+01 -0.98701828111E+01  0.34139434382E+02  0.35556672352E+02  0.10500000000E+00 0. -1.
         13    1    4    4    0    0  0.79727262374E+00 -0.59648569131E+01  0.20727395554E+02  0.21583584342E+02  0.10500000000E+00 0.  1.
    3000001    1    5    5    0    0  0.16071716690E+01  0.38896461669E+01 -0.61361723154E+01  0.75076600057E+01  0.10000000000E+01 0. -1.
        -13    1    6    6    0    0 -0.18424426829E+01  0.39858746294E+01 -0.19592320791E+02  0.20078641651E+02  0.10500000000E+00 0. -1.
         13    1    6    6    0    0 -0.33576551133E+01  0.69725467855E+01 -0.34045041926E+02  0.34913695898E+02  0.10500000000E+00 0.  1.
</event>
<event>
11    0  0.3485800E-009  0.9118800E+02  0.7816531E-02  0.1126479E+00
         25   -1    0    0    0    0  0.00000000000E+00  0.00000000000E+00  0.99999998245E-14  0.12500000000E+03  0.12500000000E+03 0.  0.
    3000001    1    3    3    0    0  0.18903947024E+01  0.23554584261E+01 -0.47133530950E+00  0.32161986105E+01  0.10000000000E+01 0.  1.
    1000022    2    1    0    0    0  0.60777682166E+01  0.52749525549E+02 -0.31413366733E+02  0.62499989880E+02  0.99998706651E+01 0.  0.
    3000022    2    3    3    0    0  0.41873735141E+01  0.50394067123E+02 -0.30942031424E+02  0.59283791270E+02  0.25000100673E+00 0.  0.
    1000022    2    1    0    0    0 -0.60777682166E+01 -0.52749525549E+02  0.31413366733E+02  0.62500010120E+02  0.99999971652E+01 0.  0.
    3000022    2    5    5    0    0 -0.35221176023E+01 -0.11990689655E+02  0.11779491437E+02  0.17175589411E+02  0.25000453451E+00 0.  0.
        -13    1    4    4    0    0  0.22907037151E+01  0.28233005337E+02 -0.17375214768E+02  0.33230393123E+02  0.10500000000E+00 0.  1.
         13    1    4    4    0    0  0.18966697991E+01  0.22161061786E+02 -0.13566816656E+02  0.26053398147E+02  0.10500000000E+00 0. -1.
    3000001    1    5    5    0    0 -0.25556506143E+01 -0.40758835894E+02  0.19633875296E+02  0.45324420709E+02  0.10000000000E+01 0.  1.
        -13    1    6    6    0    0 -0.19994318480E+01 -0.70159284051E+01  0.69117605718E+01  0.10050096432E+02  0.10500000000E+00 0. -1.
         13    1    6    6    0    0 -0.15226857542E+01 -0.49747612501E+01  0.48677308655E+01  0.71254929781E+01  0.10500000000E+00 0.  1.
</event>
<event>
11    0  0.3485800E-009  0.9118800E+02  0.7816531E-02  0.1126479E+00
         25   -1    0    0    0    0  0.00000000000E+00  0.00000000000E+00  0.99999998245E-14  0.12500000000E+03  0.12500000000E+03 0.  0.
    3000001    1    3    3    0    0 -0.37088605447E+02  0.15248785946E+02  0.20067440854E+02  0.44853007806E+02  0.10000000000E+01 0. -1.
    1000022    2    1    0    0    0 -0.48299290377E+02  0.26468241264E+02  0.27800363273E+02  0.62499996473E+02  0.10000005722E+02 0.  0.
    3000022    2    3    3    0    0 -0.11210684930E+02  0.11219455318E+02  0.77329224189E+01  0.17646988667E+02  0.24997125748E+00 0.  0.
    1000022    2    1    0    0    0  0.48299290377E+02 -0.26468241264E+02 -0.27800363273E+02  0.62500003527E+02  0.10000049810E+02 0.  0.
    3000022    2    5    5    0    0  0.30728711641E+02 -0.12454509947E+02 -0.13245739062E+02  0.35705470718E+02  0.24999749002E+00 0.  0.
        -13    1    4    4    0    0 -0.56871412641E+01  0.56591055375E+01  0.38407216627E+01  0.88955730075E+01  0.10500000000E+00 0.  1.
         13    1    4    4    0    0 -0.55235436663E+01  0.55603497804E+01  0.38922007562E+01  0.87514156593E+01  0.10500000000E+00 0. -1.
    3000001    1    5    5    0    0  0.17570578737E+02 -0.14013731317E+02 -0.14554624211E+02  0.26794532809E+02  0.10000000000E+01 0. -1.
        -13    1    6    6    0    0  0.11434101984E+02 -0.45969464042E+01 -0.48707629110E+01  0.13251639927E+02  0.10500000000E+00 0.  1.
         13    1    6    6    0    0  0.19294609657E+02 -0.78575635433E+01 -0.83749761514E+01  0.22453830791E+02  0.10500000000E+00 0. -1.
</event>
<event>
11    0  0.3485800E-009  0.9118800E+02  0.7816531E-02  0.1126479E+00
         25   -1    0    0    0    0  0.00000000000E+00  0.00000000000E+00  0.99999998245E-14  0.12500000000E+03  0.12500000000E+03 0.  0.
    3000001    1    3    3    0    0 -0.66614811696E+01 -0.31638304143E+00  0.62618359915E+01  0.92025007246E+01  0.10000000000E+01 0.  1.
    1000022    2    1    0    0    0 -0.27254138096E+02  0.54930663144E+01  0.55075295348E+02  0.62500000988E+02  0.10000007247E+02 0.  0.
    3000022    2    3    3    0    0 -0.20592656927E+02  0.58094493558E+01  0.48813459356E+02  0.53297500263E+02  0.24999774736E+00 0.  0.
    1000022    2    1    0    0    0  0.27254138096E+02 -0.54930663144E+01 -0.55075295348E+02  0.62499999012E+02  0.99999949001E+01 0.  0.
    3000022    2    5    5    0    0  0.78531076228E+01 -0.45695935444E+01 -0.10632758392E+02  0.13988228518E+02  0.25000312916E+00 0.  0.
        -13    1    4    4    0    0 -0.12152021344E+02  0.34930762521E+01  0.28879320071E+02  0.31526169403E+02  0.10500000000E+00 0.  1.
         13    1    4    4    0    0 -0.84406355825E+01  0.23163731037E+01  0.19934139285E+02  0.21771330860E+02  0.10500000000E+00 0. -1.
    3000001    1    5    5    0    0  0.19401030473E+02 -0.92347276993E+00 -0.44442536956E+02  0.48511770494E+02  0.10000000000E+01 0. -1.
        -13    1    6    6    0    0  0.27120585618E+01 -0.15423718594E+01 -0.37230049615E+01  0.48585968693E+01  0.10500000000E+00 0. -1.
         13    1    6    6    0    0  0.51410490610E+01 -0.30272216850E+01 -0.69097534301E+01  0.91296316488E+01  0.10500000000E+00 0.  1.
</event>
<event>
11    0  0.3485800E-009  0.9118800E+02  0.7816531E-02  0.1126479E+00
         25   -1    0    0    0    0  0.00000000000E+00  0.00000000000E+00  0.99999998245E-14  0.12500000000E+03  0.12500000000E+03 0.  0.
    3000001    1    3    3    0    0  0.45621362465E+02 -0.38987022379E+02  0.53833364014E+01  0.60260077481E+02  0.10000000000E+01 0.  1.
    1000022    2    1    0    0    0  0.47716877728E+02 -0.38636521599E+02  0.60471986273E+01  0.62499998551E+02  0.99999993112E+01 0.  0.
    3000022    2    3    3    0    0  0.20955152631E+01  0.35050077998E+00  0.66386222594E+00  0.22399210703E+01  0.24999666314E+00 0.  0.
    1000022    2    1    0    0    0 -0.47716877728E+02  0.38636521599E+02 -0.60471986273E+01  0.62500001449E+02  0.10000017424E+02 0.  0.
    3000022    2    5    5    0    0 -0.41845318478E+01  0.35429630679E+00 -0.81486989178E+00  0.42851307098E+01  0.24999920289E+00 0.  0.
        -13    1    4    4    0    0  0.12827468094E+01  0.27164856079E+00  0.43371521773E+00  0.13850509765E+01  0.10500000000E+00 0. -1.
         13    1    4    4    0    0  0.81276845370E+00  0.78852219192E-01  0.23014700821E+00  0.85487009375E+00  0.10500000000E+00 0.  1.
    3000001    1    5    5    0    0 -0.43532345880E+02  0.38282225293E+02 -0.52323287356E+01  0.58214870739E+02  0.10000000000E+01 0. -1.
        -13    1    6    6    0    0 -0.12335206595E+01  0.86702142768E-01 -0.28195388395E+00  0.12726403544E+01  0.10500000000E+00 0. -1.
         13    1    6    6    0    0 -0.29510111882E+01  0.26759416402E+00 -0.53291600783E+00  0.30124903553E+01  0.10500000000E+00 0.  1.
</event>
<event>
11    0  0.3485800E-009  0.9118800E+02  0.7816531E-02  0.1126479E+00
         25   -1    0    0    0    0  0.00000000000E+00  0.00000000000E+00  0.99999998245E-14  0.12500000000E+03  0.12500000000E+03 0.  0.
    3000001    1    3    3    0    0  0.17544232575E+02 -0.19141568400E+02  0.55143493777E+01  0.26563278911E+02  0.10000000000E+01 0.  1.
    1000022    2    1    0    0    0  0.36703028027E+02 -0.49471848506E+02  0.34167422474E+01  0.62499998168E+02  0.99999791247E+01 0.  0.
    3000022    2    3    3    0    0  0.19158795453E+02 -0.30330280106E+02 -0.20976071303E+01  0.35936719258E+02  0.25000160745E+00 0.  0.
    1000022    2    1    0    0    0 -0.36703028027E+02  0.49471848506E+02 -0.34167422474E+01  0.62500001832E+02  0.10000002019E+02 0.  0.
    3000022    2    5    5    0    0 -0.19344642955E+01  0.81505296164E+01 -0.90750231066E+00  0.84296707449E+01  0.25000657165E+00 0.  0.
        -13    1    4    4    0    0  0.13705002643E+02 -0.21690399339E+02 -0.15414288777E+01  0.25703843076E+02  0.10500000000E+00 0. -1.
         13    1    4    4    0    0  0.54537928099E+01 -0.86398807677E+01 -0.55617825268E+00  0.10232876181E+02  0.10500000000E+00 0.  1.
    3000001    1    5    5    0    0 -0.34768563732E+02  0.41321318890E+02 -0.25092399367E+01  0.54070331087E+02  0.10000000000E+01 0. -1.
        -13    1    6    6    0    0 -0.93131536001E+00  0.36919840138E+01 -0.37222557482E+00  0.38272276045E+01  0.10500000000E+00 0. -1.
         13    1    6    6    0    0 -0.10031489355E+01  0.44585456025E+01 -0.53527673584E+00  0.46024431404E+01  0.10500000000E+00 0.  1.
</event>
<event>
11    0  0.3485800E-009  0.9118800E+02  0.7816531E-02  0.1126479E+00
         25   -1    0    0    0    0  0.00000000000E+00  0.00000000000E+00  0.99999998245E-14  0.12500000000E+03  0.12500000000E+03 0.  0.
    3000001    1    3    3    0    0 -0.25492654502E+02  0.36856669396E+02 -0.25482397422E+02  0.51562021788E+02  0.10000000000E+01 0. -1.
    1000022    2    1    0    0    0 -0.33487374337E+02  0.40994836878E+02 -0.31690209255E+02  0.62500001744E+02  0.99999982325E+01 0.  0.
    3000022    2    3    3    0    0 -0.79947198354E+01  0.41381674827E+01 -0.62078118327E+01  0.10937979956E+02  0.25000479321E+00 0.  0.
    1000022    2    1    0    0    0  0.33487374337E+02 -0.40994836878E+02  0.31690209255E+02  0.62499998256E+02  0.99999764383E+01 0.  0.
    3000022    2    5    5    0    0  0.27784594013E+02 -0.29329537856E+02  0.27285889238E+02  0.48752309741E+02  0.24999653749E+00 0.  0.
        -13    1    4    4    0    0 -0.28042030721E+01  0.15149862585E+01 -0.21867646793E+01  0.38667432027E+01  0.10500000000E+00 0. -1.
         13    1    4    4    0    0 -0.51905167633E+01  0.26231812242E+01 -0.40210471534E+01  0.70712367529E+01  0.10500000000E+00 0.  1.
    3000001    1    5    5    0    0  0.57027803242E+01 -0.11665299022E+02  0.44043200167E+01  0.13747688515E+02  0.10000000000E+01 0.  1.
        -13    1    6    6    0    0  0.17132545248E+02 -0.18173899773E+02  0.16865953985E+02  0.30137786390E+02  0.10500000000E+00 0.  1.
         13    1    6    6    0    0  0.10652048765E+02 -0.11155638083E+02  0.10419935253E+02  0.18614523352E+02  0.10500000000E+00 0. -1.
</event>
<event>
11    0  0.3485800E-009  0.9118800E+02  0.7816531E-02  0.1126479E+00
         25   -1    0    0    0    0  0.00000000000E+00  0.00000000000E+00  0.99999998245E-14  0.12500000000E+03  0.12500000000E+03 0.  0.
    3000001    1    3    3    0    0  0.28249449907E+01 -0.37184272492E+02 -0.30846739732E+02  0.48406319701E+02  0.10000000000E+01 0.  1.
    1000022    2    1    0    0    0 -0.10166413668E+00 -0.45009956763E+02 -0.42194116957E+02  0.62500000539E+02  0.10000000908E+02 0.  0.
    3000022    2    3    3    0    0 -0.29266091274E+01 -0.78256842718E+01 -0.11347377225E+02  0.14093680838E+02  0.24998872718E+00 0.  0.
    1000022    2    1    0    0    0  0.10166413668E+00  0.45009956763E+02  0.42194116957E+02  0.62499999461E+02  0.99999941693E+01 0.  0.
    3000022    2    5    5    0    0  0.22425504715E+01  0.41610041809E+02  0.36105911294E+02  0.55137318958E+02  0.24999900073E+00 0.  0.
        -13    1    4    4    0    0 -0.16465432315E+01 -0.45092210984E+01 -0.64285505370E+01  0.80238062373E+01  0.10500000000E+00 0.  1.
         13    1    4    4    0    0 -0.12800658959E+01 -0.33164631734E+01 -0.49188266880E+01  0.60698746005E+01  0.10500000000E+00 0. -1.
    3000001    1    5    5    0    0 -0.21408863348E+01  0.33999149540E+01  0.60882056631E+01  0.73626805030E+01  0.10000000000E+01 0.  1.
        -13    1    6    6    0    0  0.11425182742E+01  0.22407812438E+02  0.19462658415E+02  0.29702213787E+02  0.10500000000E+00 0. -1.
         13    1    6    6    0    0  0.11000321973E+01  0.19202229371E+02  0.16643252879E+02  0.25435105171E+02  0.10500000000E+00 0.  1.
</event>
<event>
11    0  0.3485800E-009  0.9118800E+02  0.7816531E-02  0.1126479E+00
         25   -1    0    0    0    0  0.00000000000E+00  0.00000000000E+00  0.99999998245E-14  0.12500000000E+03  0.12500000000E+03 0.  0.
    3000001    1    3    3    0    0  0.37253048631E+01 -0.72797918817E+01 -0.34760685119E+02  0.35723640578E+02  0.10000000000E+01 0. -1.
    1000022    2    1    0    0    0  0.49641414923E+01 -0.43195413399E+01 -0.61342879842E+02  0.62499999473E+02  0.99999944363E+01 0.  0.
    3000022    2    3    3    0    0  0.12388366292E+01  0.29602505418E+01 -0.26582194723E+02  0.26776358896E+02  0.25003993892E+00 0.  0.
    1000022    2    1    0    0    0 -0.49641414923E+01  0.43195413399E+01  0.61342879842E+02  0.62500000527E+02  0.10000001020E+02 0.  0.
    3000022    2    5    5    0    0 -0.47180355646E+01 -0.19055970482E+01  0.37156558982E+02  0.37504180219E+02  0.24999775879E+00 0.  0.
        -13    1    4    4    0    0  0.37473899235E+00  0.79722115799E+00 -0.73263619542E+01  0.73798777342E+01  0.10500000000E+00 0.  1.
         13    1    4    4    0    0  0.86409763688E+00  0.21630293838E+01 -0.19255832769E+02  0.19396481162E+02  0.10500000000E+00 0.  1.
    3000001    1    5    5    0    0 -0.24610592774E+00  0.62251383881E+01  0.24186320860E+02  0.24995820307E+02  0.10000000000E+01 0.  1.
        -13    1    6    6    0    0 -0.15763125976E+01 -0.62538727152E+00  0.12784768404E+02  0.12897177939E+02  0.10500000000E+00 0.  1.
         13    1    6    6    0    0 -0.31417229670E+01 -0.12802097767E+01  0.24371790577E+02  0.24607002280E+02  0.10500000000E+00 0. -1.
</event>
<event>
11    0  0.3485800E-009  0.9118800E+02  0.7816531E-02  0.1126479E+00
         25   -1    0    0    0    0  0.00000000000E+00  0.00000000000E+00  0.99999998245E-14  0.12500000000E+03  0.12500000000E+03 0.  0.
    3000001    1    3    3    0    0 -0.23475088836E+02 -0.31486859278E+02  0.10766560653E+02  0.40735990614E+02  0.10000000000E+01 0.  1.
    1000022    2    1    0    0    0 -0.41125848173E+02 -0.43244561789E+02  0.15646799127E+02  0.62499999854E+02  0.10000007325E+02 0.  0.
    3000022    2    3    3    0    0 -0.17650759337E+02 -0.11757702511E+02  0.48802384735E+01  0.21764009239E+02  0.24999417432E+00 0.  0.
    1000022    2    1    0    0    0  0.41125848173E+02  0.43244561789E+02 -0.15646799127E+02  0.62500000146E+02  0.10000009156E+02 0.  0.
    3000022    2    5    5    0    0  0.17530859943E+01  0.61447115635E+01 -0.13522759508E+01  0.65362021950E+01  0.24999636783E+00 0.  0.
        -13    1    4    4    0    0 -0.12870990834E+02 -0.85353588182E+01  0.35721045077E+01  0.15851993907E+02  0.10500000000E+00 0. -1.
         13    1    4    4    0    0 -0.47797685034E+01 -0.32223436930E+01  0.13081339658E+01  0.59120153327E+01  0.10500000000E+00 0.  1.
    3000001    1    5    5    0    0  0.39372762179E+02  0.37099850225E+02 -0.14294523176E+02  0.55963797952E+02  0.10000000000E+01 0.  1.
        -13    1    6    6    0    0  0.11829898736E+01  0.39543657420E+01 -0.85042111830E+00  0.42155325335E+01  0.10500000000E+00 0.  1.
         13    1    6    6    0    0  0.57009612071E+00  0.21903458215E+01 -0.50185483248E+00  0.23206696615E+01  0.10500000000E+00 0. -1.
</event>
<event>
11    0  0.3485800E-009  0.9118800E+02  0.7816531E-02  0.1126479E+00
         25   -1    0    0    0    0  0.00000000000E+00  0.00000000000E+00  0.99999998245E-14  0.12500000000E+03  0.12500000000E+03 0.  0.
    3000001    1    3    3    0    0 -0.12831800311E+02  0.72001413002E+01 -0.54099623924E+01  0.15708750015E+02  0.10000000000E+01 0. -1.
    1000022    2    1    0    0    0 -0.43570622874E+02  0.24558610075E+02 -0.36120985541E+02  0.62500000198E+02  0.99999960916E+01 0.  0.
    3000022    2    3    3    0    0 -0.30738822563E+02  0.17358468775E+02 -0.30711023149E+02  0.46791250183E+02  0.25000005081E+00 0.  0.
    1000022    2    1    0    0    0  0.43570622874E+02 -0.24558610075E+02  0.36120985541E+02  0.62499999802E+02  0.99999936171E+01 0.  0.
    3000022    2    5    5    0    0  0.38608721264E+02 -0.24816334978E+02  0.33246058213E+02  0.56673157016E+02  0.25000013639E+00 0.  0.
        -13    1    4    4    0    0 -0.99234771527E+01  0.55450914320E+01 -0.98906483919E+01  0.15068489918E+02  0.10500000000E+00 0.  1.
         13    1    4    4    0    0 -0.20815345411E+02  0.11813377343E+02 -0.20820374757E+02  0.31722760265E+02  0.10500000000E+00 0. -1.
    3000001    1    5    5    0    0  0.49619016101E+01  0.25772490274E+00  0.28749273285E+01  0.58268427865E+01  0.10000000000E+01 0.  1.
        -13    1    6    6    0    0  0.10721973465E+02 -0.68877879605E+01  0.91835826378E+01  0.15708327506E+02  0.10500000000E+00 0.  1.
         13    1    6    6    0    0  0.27886747799E+02 -0.17928547017E+02  0.24062475575E+02  0.40964829509E+02  0.10500000000E+00 0. -1.
</event>
<event>
11    0  0.3485800E-009  0.9118800E+02  0.7816531E-02  0.1126479E+00
         25   -1    0    0    0    0  0.00000000000E+00  0.00000000000E+00  0.99999998245E-14  0.12500000000E+03  0.12500000000E+03 0.  0.
    3000001    1    3    3    0    0 -0.12143021133E+02  0.24773834870E+02 -0.67778825191E+01  0.28427724986E+02  0.10000000000E+01 0.  1.
    1000022    2    1    0    0    0 -0.27759830141E+02  0.49398086684E+02 -0.24402268973E+02  0.62500001103E+02  0.10000013472E+02 0.  0.
    3000022    2    3    3    0    0 -0.15616809008E+02  0.24624251813E+02 -0.17624386453E+02  0.34072276118E+02  0.25000203719E+00 0.  0.
    1000022    2    1    0    0    0  0.27759830141E+02 -0.49398086684E+02  0.24402268973E+02  0.62499998897E+02  0.99999996811E+01 0.  0.
    3000022    2    5    5    0    0  0.15967471847E+02 -0.19083837551E+02  0.12519121024E+02  0.27855769655E+02  0.24999794847E+00 0.  0.
        -13    1    4    4    0    0 -0.74550024836E+01  0.11797896346E+02 -0.85096194219E+01  0.16346010765E+02  0.10500000000E+00 0.  1.
         13    1    4    4    0    0 -0.81618065242E+01  0.12826355467E+02 -0.91147670316E+01  0.17726265353E+02  0.10500000000E+00 0. -1.
    3000001    1    5    5    0    0  0.11792358293E+02 -0.30314249133E+02  0.11883147948E+02  0.34644229242E+02  0.10000000000E+01 0. -1.
        -13    1    6    6    0    0  0.90146199649E+01 -0.10833288626E+02  0.71506489750E+01  0.15803997005E+02  0.10500000000E+00 0.  1.
         13    1    6    6    0    0  0.69528518826E+01 -0.82505489250E+01  0.53684720495E+01  0.12051772650E+02  0.10500000000E+00 0. -1.
</event>
<event>
11    0  0.3485800E-009  0.9118800E+02  0.7816531E-02  0.1126479E+00
         25   -1    0    0    0    0  0.00000000000E+00  0.00000000000E+00  0.99999998245E-14  0.12500000000E+03  0.12500000000E+03 0.  0.
    3000001    1    3    3    0    0 -0.12142256561E+02  0.33286368312E+02 -0.42064570678E+02  0.55007679611E+02  0.10000000000E+01 0. -1.
    1000022    2    1    0    0    0 -0.10795563288E+02  0.39303386793E+02 -0.46313600778E+02  0.62499999135E+02  0.99999937403E+01 0.  0.
    3000022    2    3    3    0    0  0.13466932739E+01  0.60170184810E+01 -0.42490300998E+01  0.74923195248E+01  0.25000179457E+00 0.  0.
    1000022    2    1    0    0    0  0.10795563288E+02 -0.39303386793E+02  0.46313600778E+02  0.62500000865E+02  0.10000004548E+02 0.  0.
    3000022    2    5    5    0    0  0.22155768616E+01 -0.25936507930E+02  0.27786084289E+02  0.38075454096E+02  0.25000015068E+00 0.  0.
        -13    1    4    4    0    0  0.87342937499E+00  0.36153403123E+01 -0.25642827742E+01  0.45188644140E+01  0.10500000000E+00 0.  1.
         13    1    4    4    0    0  0.47326389895E+00  0.24016781688E+01 -0.16847473257E+01  0.29734551108E+01  0.10500000000E+00 0. -1.
    3000001    1    5    5    0    0  0.85799864259E+01 -0.13366878864E+02  0.18527516488E+02  0.24424546768E+02  0.10000000000E+01 0. -1.
        -13    1    6    6    0    0  0.13557505538E+01 -0.15522376780E+02  0.16713354019E+02  0.22850152473E+02  0.10500000000E+00 0. -1.
         13    1    6    6    0    0  0.85982630788E+00 -0.10414131149E+02  0.11072730270E+02  0.15225301623E+02  0.10500000000E+00 0.  1.
</event>
<event>
11    0  0.3485800E-009  0.9118800E+02  0.7816531E-02  0.1126479E+00
         25   -1    0    0    0    0  0.00000000000E+00  0.00000000000E+00  0.99999998245E-14  0.12500000000E+03  0.12500000000E+03 0.  0.
    3000001    1    3    3    0    0 -0.27180613622E+02 -0.14202288916E+02 -0.10470661372E+02  0.32421065943E+02  0.10000000000E+01 0.  1.
    1000022    2    1    0    0    0 -0.47730312982E+02 -0.26781316124E+02 -0.28475036518E+02  0.62499996984E+02  0.10000012382E+02 0.  0.
    3000022    2    3    3    0    0 -0.20549699360E+02 -0.12579027208E+02 -0.18004375146E+02  0.30078931041E+02  0.24999778352E+00 0.  0.
    1000022    2    1    0    0    0  0.47730312982E+02  0.26781316124E+02  0.28475036518E+02  0.62500003016E+02  0.10000050078E+02 0.  0.
    3000022    2    5    5    0    0  0.13504461186E+02  0.10491336585E+02  0.46696110887E+01  0.17728688043E+02  0.24999345040E+00 0.  0.
        -13    1    4    4    0    0 -0.83815900670E+01 -0.51390479938E+01 -0.72677622549E+01  0.12226702725E+02  0.10500000000E+00 0. -1.
         13    1    4    4    0    0 -0.12168109293E+02 -0.74399792145E+01 -0.10736612891E+02  0.17852228316E+02  0.10500000000E+00 0.  1.
    3000001    1    5    5    0    0  0.34225851796E+02  0.16289979539E+02  0.23805425429E+02  0.44771314973E+02  0.10000000000E+01 0. -1.
        -13    1    6    6    0    0  0.85070427914E+01  0.65505381725E+01  0.29711561983E+01  0.11140831278E+02  0.10500000000E+00 0. -1.
         13    1    6    6    0    0  0.49974183946E+01  0.39407984128E+01  0.16984548905E+01  0.65878567650E+01  0.10500000000E+00 0.  1.
</event>
<event>
11    0  0.3485800E-009  0.9118800E+02  0.7816531E-02  0.1126479E+00
         25   -1    0    0    0    0  0.00000000000E+00  0.00000000000E+00  0.99999998245E-14  0.12500000000E+03  0.12500000000E+03 0.  0.
    3000001    1    3    3    0    0 -0.13739018855E+02  0.83413440814E+01  0.29404024071E+00  0.16106679355E+02  0.10000000000E+01 0.  1.
    1000022    2    1    0    0    0 -0.42438730588E+02  0.44586432673E+02  0.41537620355E+01  0.62499996224E+02  0.99999978276E+01 0.  0.
    3000022    2    3    3    0    0 -0.28699711732E+02  0.36245088591E+02  0.38597217948E+01  0.46393316868E+02  0.24999443161E+00 0.  0.
    1000022    2    1    0    0    0  0.42438730588E+02 -0.44586432673E+02 -0.41537620355E+01  0.62500003776E+02  0.10000045032E+02 0.  0.
    3000022    2    5    5    0    0  0.31331698027E+02 -0.37093950574E+02 -0.42884599317E+00  0.48558036203E+02  0.25000108741E+00 0.  0.
        -13    1    4    4    0    0 -0.85869124369E+01  0.10917306886E+02  0.11514395656E+01  0.13937700417E+02  0.10500000000E+00 0.  1.
         13    1    4    4    0    0 -0.20112799295E+02  0.25327781705E+02  0.27082822291E+01  0.32455616452E+02  0.10500000000E+00 0. -1.
    3000001    1    5    5    0    0  0.11107032561E+02 -0.74924820987E+01 -0.37249160423E+01  0.13941967574E+02  0.10000000000E+01 0. -1.
        -13    1    6    6    0    0  0.18077891899E+02 -0.21501310054E+02 -0.26072052722E+00  0.28092623760E+02  0.10500000000E+00 0.  1.
         13    1    6    6    0    0  0.13253806128E+02 -0.15592640520E+02 -0.16812546595E+00  0.20465412443E+02  0.10500000000E+00 0. -1.
</event>
<event>
11    0  0.3485800E-009  0.9118800E+02  0.7816531E-02  0.1126479E+00
         25   -1    0    0    0    0  0.00000000000E+00  0.00000000000E+00  0.99999998245E-14  0.12500000000E+03  0.12500000000E+03 0.  0.
    3000001    1    3    3    0    0  0.23543241203E+02  0.16242220764E+02  0.30064864122E+02  0.41508914661E+02  0.10000000000E+01 0.  1.
    1000022    2    1    0    0    0  0.35406359811E+02  0.29868079297E+02  0.40749692262E+02  0.62499999781E+02  0.10000003860E+02 0.  0.
    3000022    2    3    3    0    0  0.11863118608E+02  0.13625858533E+02  0.10684828140E+02  0.20991085119E+02  0.24999648292E+00 0.  0.
    1000022    2    1    0    0    0 -0.35406359811E+02 -0.29868079297E+02 -0.40749692262E+02  0.62500000219E+02  0.10000006602E+02 0.  0.
    3000022    2    5    5    0    0 -0.15522335060E+02 -0.86801990337E+01 -0.11055124513E+02  0.20941991796E+02  0.25000280718E+00 0.  0.
        -13    1    4    4    0    0  0.69686902873E+01  0.79113799956E+01  0.62596512766E+01  0.12261600094E+02  0.10500000000E+00 0.  1.
         13    1    4    4    0    0  0.48944283204E+01  0.57144785373E+01  0.44251768631E+01  0.87294850253E+01  0.10500000000E+00 0. -1.
    3000001    1    5    5    0    0 -0.19884024751E+02 -0.21187880263E+02 -0.29694567749E+02  0.41558008423E+02  0.10000000000E+01 0.  1.
        -13    1    6    6    0    0 -0.46679453067E+01 -0.25587121037E+01 -0.33178367582E+01  0.62734190654E+01  0.10500000000E+00 0.  1.
         13    1    6    6    0    0 -0.10854389753E+02 -0.61214869300E+01 -0.77372877552E+01  0.14668572731E+02  0.10500000000E+00 0. -1.
</event>
<event>
11    0  0.3485800E-009  0.9118800E+02  0.7816531E-02  0.1126479E+00
         25   -1    0    0    0    0  0.00000000000E+00  0.00000000000E+00  0.99999998245E-14  0.12500000000E+03  0.12500000000E+03 0.  0.
    3000001    1    3    3    0    0  0.34436426896E+02  0.21395478203E+02  0.29708111848E+02  0.50271322784E+02  0.10000000000E+01 0. -1.
    1000022    2    1    0    0    0  0.44974421368E+02  0.22350168648E+02  0.35833244744E+02  0.62499998697E+02  0.99999896116E+01 0.  0.
    3000022    2    3    3    0    0  0.10537994473E+02  0.95469044528E+00  0.61251328961E+01  0.12228675913E+02  0.25000048417E+00 0.  0.
    1000022    2    1    0    0    0 -0.44974421368E+02 -0.22350168648E+02 -0.35833244744E+02  0.62500001303E+02  0.10000005897E+02 0.  0.
    3000022    2    5    5    0    0 -0.41306510100E+02 -0.21722425811E+02 -0.35489279750E+02  0.58631416799E+02  0.24999795584E+00 0.  0.
        -13    1    4    4    0    0  0.57531661753E+01  0.51750455047E+00  0.34207506396E+01  0.67141114035E+01  0.10500000000E+00 0. -1.
         13    1    4    4    0    0  0.47848282976E+01  0.43718589481E+00  0.27043822565E+01  0.55145645099E+01  0.10500000000E+00 0.  1.
    3000001    1    5    5    0    0 -0.36679112688E+01 -0.62774283744E+00 -0.34396499417E+00  0.38685845037E+01  0.10000000000E+01 0. -1.
        -13    1    6    6    0    0 -0.25667713735E+02 -0.13447145359E+02 -0.22085603891E+02  0.36434079800E+02  0.10500000000E+00 0.  1.
         13    1    6    6    0    0 -0.15638796365E+02 -0.82752804516E+01 -0.13403675859E+02  0.22197336999E+02  0.10500000000E+00 0. -1.
</event>
<event>
11    0  0.3485800E-009  0.9118800E+02  0.7816531E-02  0.1126479E+00
         25   -1    0    0    0    0  0.00000000000E+00  0.00000000000E+00  0.99999998245E-14  0.12500000000E+03  0.12500000000E+03 0.  0.
    3000001    1    3    3    0    0 -0.69231569677E+01  0.15263591903E+02 -0.37419429061E+02  0.41013668593E+02  0.10000000000E+01 0. -1.
    1000022    2    1    0    0    0 -0.42969747052E+01  0.19949978449E+02 -0.58221856607E+02  0.62500001716E+02  0.99999997990E+01 0.  0.
    3000022    2    3    3    0    0  0.26261822625E+01  0.46863865456E+01 -0.20802427546E+02  0.21486333123E+02  0.24993426429E+00 0.  0.
    1000022    2    1    0    0    0  0.42969747052E+01 -0.19949978449E+02  0.58221856607E+02  0.62499998284E+02  0.99999783551E+01 0.  0.
    3000022    2    5    5    0    0  0.35931587224E+01 -0.12916646227E+02  0.23543367584E+02  0.27094338850E+02  0.25000235191E+00 0.  0.
        -13    1    4    4    0    0  0.74056732293E+00  0.12503831065E+01 -0.56755199483E+01  0.58595605258E+01  0.10500000000E+00 0.  1.
         13    1    4    4    0    0  0.18856149396E+01  0.34360034391E+01 -0.15126907597E+02  0.15626772597E+02  0.10500000000E+00 0. -1.
    3000001    1    5    5    0    0  0.70381598280E+00 -0.70333322218E+01  0.34678489023E+02  0.35405659435E+02  0.10000000000E+01 0. -1.
        -13    1    6    6    0    0  0.13173496861E+01 -0.45751844168E+01  0.82847620614E+01  0.95559421335E+01  0.10500000000E+00 0. -1.
         13    1    6    6    0    0  0.22758090362E+01 -0.83414618099E+01  0.15258605522E+02  0.17538396716E+02  0.10500000000E+00 0.  1.
</event>
<event>
11    0  0.3485800E-009  0.9118800E+02  0.7816531E-02  0.1126479E+00
         25   -1    0    0    0    0  0.00000000000E+00  0.00000000000E+00  0.99999998245E-14  0.12500000000E+03  0.12500000000E+03 0.  0.
    3000001    1    3    3    0    0 -0.45612014517E+02 -0.54423414690E+01 -0.69467148486E+01  0.46468610870E+02  0.10000000000E+01 0. -1.
    1000022    2    1    0    0    0 -0.61224818887E+02 -0.18368971656E+01 -0.73755092077E+01  0.62499994096E+02  0.99999243510E+01 0.  0.
    3000022    2    3    3    0    0 -0.15612804370E+02  0.36054443034E+01 -0.42879435909E+00  0.16031383226E+02  0.24998927555E+00 0.  0.
    1000022    2    1    0    0    0  0.61224818887E+02  0.18368971656E+01  0.73755092077E+01  0.62500005904E+02  0.99999981483E+01 0.  0.
    3000022    2    5    5    0    0  0.27166451201E+01  0.14800227160E+01 -0.12575496646E+01  0.33488143486E+01  0.24999686853E+00 0.  0.
        -13    1    4    4    0    0 -0.71271434014E+01  0.17137394418E+01 -0.20671399776E+00  0.73339506144E+01  0.10500000000E+00 0. -1.
         13    1    4    4    0    0 -0.84856609684E+01  0.18917048617E+01 -0.22208036133E+00  0.86974326120E+01  0.10500000000E+00 0.  1.
    3000001    1    5    5    0    0  0.58508173767E+02  0.35687444963E+00  0.86330588723E+01  0.59151191555E+02  0.10000000000E+01 0. -1.
        -13    1    6    6    0    0  0.12062595017E+01  0.65599540888E+00 -0.48702147468E+00  0.14606871256E+01  0.10500000000E+00 0. -1.
         13    1    6    6    0    0  0.15103856184E+01  0.82402730709E+00 -0.77052818992E+00  0.18881272231E+01  0.10500000000E+00 0. -1.
</event>
<event>
11    0  0.3485800E-009  0.9118800E+02  0.7816531E-02  0.1126479E+00
         25   -1    0    0    0    0  0.00000000000E+00  0.00000000000E+00  0.99999998245E-14  0.12500000000E+03  0.12500000000E+03 0.  0.
    3000001    1    3    3    0    0 -0.70114198600E+01 -0.55262621087E+00 -0.39422935363E+01  0.81244742912E+01  0.10000000000E+01 0. -1.
    1000022    2    1    0    0    0 -0.61226158250E+02 -0.37843562346E+01 -0.65792261339E+01  0.62500000309E+02  0.10000000800E+02 0.  0.
    3000022    2    3    3    0    0 -0.54214738390E+02 -0.32317300237E+01 -0.26369325975E+01  0.54375526018E+02  0.24995720396E+00 0.  0.
    1000022    2    1    0    0    0  0.61226158250E+02  0.37843562346E+01  0.65792261339E+01  0.62499999691E+02  0.99999969357E+01 0.  0.
    3000022    2    5    5    0    0  0.58158991059E+02  0.27657395904E+01  0.81088806036E+01  0.58787192499E+02  0.25000170146E+00 0.  0.
        -13    1    4    4    0    0 -0.24321540633E+02 -0.14750759579E+01 -0.12447060603E+01  0.24398227518E+02  0.10500000000E+00 0. -1.
         13    1    4    4    0    0 -0.29893197757E+02 -0.17566540658E+01 -0.13922265373E+01  0.29977298500E+02  0.10500000000E+00 0.  1.
    3000001    1    5    5    0    0  0.30671671909E+01  0.10186166442E+01 -0.15296544698E+01  0.37128071915E+01  0.10000000000E+01 0. -1.
        -13    1    6    6    0    0  0.16699562380E+02  0.80105482038E+00  0.22865493261E+01  0.16874726823E+02  0.10500000000E+00 0.  1.
         13    1    6    6    0    0  0.41459428678E+02  0.19646847700E+01  0.58223312775E+01  0.41912465677E+02  0.10500000000E+00 0. -1.
</event>
<event>
11    0  0.3485800E-009  0.9118800E+02  0.7816531E-02  0.1126479E+00
         25   -1    0    0    0    0  0.00000000000E+00  0.00000000000E+00  0.99999998245E-14  0.12500000000E+03  0.12500000000E+03 0.  0.
    3000001    1    3    3    0    0 -0.54201840988E+00  0.42324939775E+01  0.81303163796E+01  0.92363322622E+01  0.10000000000E+01 0. -1.
    1000022    2    1    0    0    0  0.13331103017E+02  0.13331013222E+02  0.58743646328E+02  0.62499999189E+02  0.99999846781E+01 0.  0.
    3000022    2    3    3    0    0  0.13873121427E+02  0.90985192446E+01  0.50613329949E+02  0.53263666927E+02  0.24999093732E+00 0.  0.
    1000022    2    1    0    0    0 -0.13331103017E+02 -0.13331013222E+02 -0.58743646328E+02  0.62500000811E+02  0.99999948108E+01 0.  0.
    3000022    2    5    5    0    0 -0.47987802657E+01 -0.70326270827E+01 -0.40396773844E+02  0.41284960640E+02  0.25000460950E+00 0.  0.
        -13    1    4    4    0    0  0.76541853566E+01  0.49501246911E+01  0.27911056008E+02  0.29362022417E+02  0.10500000000E+00 0. -1.
         13    1    4    4    0    0  0.62189360705E+01  0.41483945535E+01  0.22702273941E+02  0.23901644510E+02  0.10500000000E+00 0.  1.
    3000001    1    5    5    0    0 -0.85323227516E+01 -0.62983861395E+01 -0.18346872484E+02  0.21215040171E+02  0.10000000000E+01 0. -1.
        -13    1    6    6    0    0 -0.17950350314E+01 -0.27318911638E+01 -0.15403270926E+02  0.15746655528E+02  0.10500000000E+00 0. -1.
         13    1    6    6    0    0 -0.30037452343E+01 -0.43007359188E+01 -0.24993502918E+02  0.25538305112E+02  0.10500000000E+00 0.  1.
</event>
<event>
11    0  0.3485800E-009  0.9118800E+02  0.7816531E-02  0.1126479E+00
         25   -1    0    0    0    0  0.00000000000E+00  0.00000000000E+00  0.99999998245E-14  0.12500000000E+03  0.12500000000E+03 0.  0.
    3000001    1    3    3    0    0 -0.30318462926E+01  0.24221125950E+00 -0.13649986073E+01  0.34805142485E+01  0.10000000000E+01 0. -1.
    1000022    2    1    0    0    0 -0.31502352465E+02  0.21072181349E+02 -0.48680744658E+02  0.62500000023E+02  0.10000003240E+02 0.  0.
    3000022    2    3    3    0    0 -0.28470506172E+02  0.20829970090E+02 -0.47315746051E+02  0.59019485775E+02  0.25000225200E+00 0.  0.
    1000022    2    1    0    0    0  0.31502352465E+02 -0.21072181349E+02  0.48680744658E+02  0.62499999977E+02  0.10000002950E+02 0.  0.
    3000022    2    5    5    0    0  0.65682190025E+01 -0.44591919862E+01  0.17643558762E+02  0.19348993784E+02  0.25000126969E+00 0.  0.
        -13    1    4    4    0    0 -0.95833049179E+01  0.70413922404E+01 -0.15869540515E+02  0.19831144167E+02  0.10500000000E+00 0. -1.
         13    1    4    4    0    0 -0.18887201254E+02  0.13788577849E+02 -0.31446205536E+02  0.39188341607E+02  0.10500000000E+00 0.  1.
    3000001    1    5    5    0    0  0.24934133462E+02 -0.16612989363E+02  0.31037185896E+02  0.43151006193E+02  0.10000000000E+01 0.  1.
        -13    1    6    6    0    0  0.45698553459E+01 -0.30607673623E+01  0.12139764303E+02  0.13328044757E+02  0.10500000000E+00 0.  1.
         13    1    6    6    0    0  0.19983636565E+01 -0.13984246239E+01  0.55037944591E+01  0.60209490266E+01  0.10500000000E+00 0. -1.
</event>
<event>
11    0  0.3485800E-009  0.9118800E+02  0.7816531E-02  0.1126479E+00
         25   -1    0    0    0    0  0.00000000000E+00  0.00000000000E+00  0.99999998245E-14  0.12500000000E+03  0.12500000000E+03 0.  0.
    3000001    1    3    3    0    0 -0.84893721506E+01  0.14429386731E+02 -0.53123509679E+00  0.16779715483E+02  0.10000000000E+01 0. -1.
    1000022    2    1    0    0    0 -0.43516593500E+02  0.43667860966E+02  0.23820479119E+01  0.62499999115E+02  0.99999872952E+01 0.  0.
    3000022    2    3    3    0    0 -0.35027221350E+02  0.29238474234E+02  0.29132830087E+01  0.45720283632E+02  0.25001293564E+00 0.  0.
    1000022    2    1    0    0    0  0.43516593500E+02 -0.43667860966E+02 -0.23820479119E+01  0.62500000885E+02  0.99999983605E+01 0.  0.
    3000022    2    5    5    0    0  0.79665386076E+01 -0.97113479001E+01  0.33312997751E+01  0.12997541106E+02  0.25000235053E+00 0.  0.
        -13    1    4    4    0    0 -0.18367630221E+02  0.15324802720E+02  0.15948369803E+01  0.23974443650E+02  0.10500000000E+00 0. -1.
         13    1    4    4    0    0 -0.16659591129E+02  0.13913671514E+02  0.13184460284E+01  0.21745839982E+02  0.10500000000E+00 0.  1.
    3000001    1    5    5    0    0  0.35550054893E+02 -0.33956513066E+02 -0.57133476871E+01  0.49502459780E+02  0.10000000000E+01 0.  1.
        -13    1    6    6    0    0  0.45178141141E+01 -0.54428609459E+01  0.19294519321E+01  0.73327477390E+01  0.10500000000E+00 0. -1.
         13    1    6    6    0    0  0.34487244935E+01 -0.42684869542E+01  0.14018478430E+01  0.56647933665E+01  0.10500000000E+00 0.  1.
</event>
<event>
11    0  0.3485800E-009  0.9118800E+02  0.7816531E-02  0.1126479E+00
         25   -1    0    0    0    0  0.00000000000E+00  0.00000000000E+00  0.99999998245E-14  0.12500000000E+03  0.12500000000E+03 0.  0.
    3000001    1    3    3    0    0  0.23634356390E+02 -0.53205974615E+01  0.19302766864E+02  0.30991746771E+02  0.10000000000E+01 0.  1.
    1000022    2    1    0    0    0  0.44827275158E+02 -0.20151960676E+02  0.37291606544E+02  0.62499999476E+02  0.99999949332E+01 0.  0.
    3000022    2    3    3    0    0  0.21192918768E+02 -0.14831363215E+02  0.17988839680E+02  0.31508252705E+02  0.24998952643E+00 0.  0.
    1000022    2    1    0    0    0 -0.44827275158E+02  0.20151960676E+02 -0.37291606544E+02  0.62500000524E+02  0.10000001486E+02 0.  0.
    3000022    2    5    5    0    0 -0.24542439706E+02  0.16130326648E+02 -0.20102092985E+02  0.35590383917E+02  0.25000092742E+00 0.  0.
        -13    1    4    4    0    0  0.83612219659E+01 -0.58380561329E+01  0.70170884914E+01  0.12379155386E+02  0.10500000000E+00 0.  1.
         13    1    4    4    0    0  0.12831696802E+02 -0.89933070818E+01  0.10971751188E+02  0.19129097319E+02  0.10500000000E+00 0. -1.
    3000001    1    5    5    0    0 -0.20284835451E+02  0.40216340278E+01 -0.17189513559E+02  0.26909616607E+02  0.10000000000E+01 0. -1.
        -13    1    6    6    0    0 -0.10983246993E+02  0.72975658382E+01 -0.90144191872E+01  0.15973633273E+02  0.10500000000E+00 0. -1.
         13    1    6    6    0    0 -0.13559192713E+02  0.88327608102E+01 -0.11087673798E+02  0.19616750644E+02  0.10500000000E+00 0.  1.
</event>
<event>
11    0  0.3485800E-009  0.9118800E+02  0.7816531E-02  0.1126479E+00
         25   -1    0    0    0    0  0.00000000000E+00  0.00000000000E+00  0.99999998245E-14  0.12500000000E+03  0.12500000000E+03 0.  0.
    3000001    1    3    3    0    0 -0.13623751008E+02  0.13583880793E+02  0.32722896151E+02  0.37972573542E+02  0.10000000000E+01 0. -1.
    1000022    2    1    0    0    0 -0.18903642584E+02  0.28946660570E+02  0.51097877651E+02  0.62500000835E+02  0.10000007141E+02 0.  0.
    3000022    2    3    3    0    0 -0.52798915765E+01  0.15362779777E+02  0.18374981500E+02  0.24527427293E+02  0.24997385414E+00 0.  0.
    1000022    2    1    0    0    0  0.18903642584E+02 -0.28946660570E+02 -0.51097877651E+02  0.62499999165E+02  0.99999967033E+01 0.  0.
    3000022    2    5    5    0    0  0.24313365090E+01 -0.10659120423E+02 -0.20347581871E+02  0.23100104715E+02  0.25000891880E+00 0.  0.
        -13    1    4    4    0    0 -0.17094325926E+01  0.48404575409E+01  0.57701972894E+01  0.77238844342E+01  0.10500000000E+00 0. -1.
         13    1    4    4    0    0 -0.35704589839E+01  0.10522322236E+02  0.12604784211E+02  0.16803542858E+02  0.10500000000E+00 0.  1.
    3000001    1    5    5    0    0  0.16472306075E+02 -0.18287540147E+02 -0.30750295781E+02  0.39399894450E+02  0.10000000000E+01 0. -1.
        -13    1    6    6    0    0  0.17915473698E+01 -0.78705008616E+01 -0.14952085703E+02  0.16992066315E+02  0.10500000000E+00 0. -1.
         13    1    6    6    0    0  0.63978913913E+00 -0.27886195610E+01 -0.53954961679E+01  0.61080384000E+01  0.10500000000E+00 0.  1.
</event>
<event>
11    0  0.3485800E-009  0.9118800E+02  0.7816531E-02  0.1126479E+00
         25   -1    0    0    0    0  0.00000000000E+00  0.00000000000E+00  0.99999998245E-14  0.12500000000E+03  0.12500000000E+03 0.  0.
    3000001    1    3    3    0    0 -0.19030322719E+01 -0.53527418226E+01 -0.12164762956E+02  0.13463091570E+02  0.10000000000E+01 0.  1.
    1000022    2    1    0    0    0 -0.53959220050E+00 -0.39065436276E+02 -0.47747780225E+02  0.62499999647E+02  0.99999984123E+01 0.  0.
    3000022    2    3    3    0    0  0.13634400714E+01 -0.33712694454E+02 -0.35583017269E+02  0.49036908077E+02  0.24999923615E+00 0.  0.
    1000022    2    1    0    0    0  0.53959220050E+00  0.39065436276E+02  0.47747780225E+02  0.62500000353E+02  0.10000002824E+02 0.  0.
    3000022    2    5    5    0    0 -0.16773475366E+01  0.10728005620E+02  0.20034331332E+02  0.22789044087E+02  0.24999826437E+00 0.  0.
        -13    1    4    4    0    0  0.10158902174E+01 -0.25534368193E+02 -0.26969139086E+02  0.37153485435E+02  0.10500000000E+00 0.  1.
         13    1    4    4    0    0  0.34754985397E+00 -0.81783262608E+01 -0.86138781835E+01  0.11883422642E+02  0.10500000000E+00 0. -1.
    3000001    1    5    5    0    0  0.22169397371E+01  0.28337430656E+02  0.27713448893E+02  0.39710956266E+02  0.10000000000E+01 0.  1.
        -13    1    6    6    0    0 -0.58428199387E+00  0.38918573690E+01  0.71506054421E+01  0.81627276335E+01  0.10500000000E+00 0. -1.
         13    1    6    6    0    0 -0.10930655427E+01  0.68361482510E+01  0.12883725890E+02  0.14626316454E+02  0.10500000000E+00 0.  1.
</event>
<event>
11    0  0.3485800E-009  0.9118800E+02  0.7816531E-02  0.1126479E+00
         25   -1    0    0    0    0  0.00000000000E+00  0.00000000000E+00  0.99999998245E-14  0.12500000000E+03  0.12500000000E+03 0.  0.
    3000001    1    3    3    0    0  0.17272447436E+02  0.76367671790E+01 -0.22101501239E+02  0.29088382739E+02  0.10000000000E+01 0. -1.
    1000022    2    1    0    0    0  0.41463172322E+02  0.22330240683E+02 -0.39854932885E+02  0.62500000020E+02  0.10000000963E+02 0.  0.
    3000022    2    3    3    0    0  0.24190724886E+02  0.14693473504E+02 -0.17753431646E+02  0.33411617281E+02  0.24999993759E+00 0.  0.
    1000022    2    1    0    0    0 -0.41463172322E+02 -0.22330240683E+02  0.39854932885E+02  0.62499999980E+02  0.10000000709E+02 0.  0.
    3000022    2    5    5    0    0 -0.31856173891E+02 -0.17087733165E+02  0.24713898352E+02  0.43790931840E+02  0.24999987918E+00 0.  0.
        -13    1    4    4    0    0  0.10995754586E+02  0.66323352086E+01 -0.79912221849E+01  0.15124984173E+02  0.10500000000E+00 0.  1.
         13    1    4    4    0    0  0.13194970301E+02  0.80611382955E+01 -0.97622094616E+01  0.18286633108E+02  0.10500000000E+00 0. -1.
    3000001    1    5    5    0    0 -0.96069984313E+01 -0.52425075176E+01  0.15141034533E+02  0.18709068140E+02  0.10000000000E+01 0.  1.
        -13    1    6    6    0    0 -0.23961055561E+02 -0.12860354240E+02  0.18561918964E+02  0.32925320885E+02  0.10500000000E+00 0. -1.
         13    1    6    6    0    0 -0.78951183303E+01 -0.42273789254E+01  0.61519793884E+01  0.10865610955E+02  0.10500000000E+00 0.  1.
</event>
<event>
11    0  0.3485800E-009  0.9118800E+02  0.7816531E-02  0.1126479E+00
         25   -1    0    0    0    0  0.00000000000E+00  0.00000000000E+00  0.99999998245E-14  0.12500000000E+03  0.12500000000E+03 0.  0.
    3000001    1    3    3    0    0  0.42760613590E+02  0.31055502137E+02  0.76993857723E+01  0.53415305193E+02  0.10000000000E+01 0.  1.
    1000022    2    1    0    0    0  0.46906481704E+02  0.38904128919E+02  0.96177093158E+01  0.62499997009E+02  0.10000001041E+02 0.  0.
    3000022    2    3    3    0    0  0.41458681145E+01  0.78486267814E+01  0.19183235435E+01  0.90846918159E+01  0.24999079229E+00 0.  0.
    1000022    2    1    0    0    0 -0.46906481704E+02 -0.38904128919E+02 -0.96177093158E+01  0.62500002991E+02  0.10000038430E+02 0.  0.
    3000022    2    5    5    0    0 -0.37216303192E+02 -0.33405266885E+02 -0.45427255352E+01  0.50216172007E+02  0.24999370405E+00 0.  0.
        -13    1    4    4    0    0  0.31608527743E+01  0.59394069338E+01  0.14501971988E+01  0.68834324215E+01  0.10500000000E+00 0.  1.
         13    1    4    4    0    0  0.98501534021E+00  0.19092198476E+01  0.46812634475E+00  0.22012593944E+01  0.10500000000E+00 0. -1.
    3000001    1    5    5    0    0 -0.96901785126E+01 -0.54988620343E+01 -0.50749837806E+01  0.12283830984E+02  0.10000000000E+01 0.  1.
        -13    1    6    6    0    0 -0.17071401594E+02 -0.15297314838E+02 -0.21466523674E+01  0.23023026192E+02  0.10500000000E+00 0. -1.
         13    1    6    6    0    0 -0.20144901598E+02 -0.18107952047E+02 -0.23960731679E+01  0.27193145815E+02  0.10500000000E+00 0.  1.
</event>
<event>
11    0  0.3485800E-009  0.9118800E+02  0.7816531E-02  0.1126479E+00
         25   -1    0    0    0    0  0.00000000000E+00  0.00000000000E+00  0.99999998245E-14  0.12500000000E+03  0.12500000000E+03 0.  0.
    3000001    1    3    3    0    0  0.13947110268E+02  0.36598374180E+02  0.36074553989E+02  0.53257265448E+02  0.10000000000E+01 0.  1.
    1000022    2    1    0    0    0  0.19999823720E+02  0.41788545632E+02  0.40742785318E+02  0.62499999211E+02  0.99999925526E+01 0.  0.
    3000022    2    3    3    0    0  0.60527134514E+01  0.51901714517E+01  0.46682313292E+01  0.92427337633E+01  0.25004770306E+00 0.  0.
    1000022    2    1    0    0    0 -0.19999823720E+02 -0.41788545632E+02 -0.40742785318E+02  0.62500000789E+02  0.10000002416E+02 0.  0.
    3000022    2    5    5    0    0 -0.15685276068E+02 -0.38672881794E+02 -0.33856138400E+02  0.53739373622E+02  0.24999667698E+00 0.  0.
        -13    1    4    4    0    0  0.37320588330E+01  0.32090656411E+01  0.28107404544E+01  0.56690080546E+01  0.10500000000E+00 0. -1.
         13    1    4    4    0    0  0.23206546184E+01  0.19811058106E+01  0.18574908748E+01  0.35737257087E+01  0.10500000000E+00 0.  1.
    3000001    1    5    5    0    0 -0.43145476513E+01 -0.31156638379E+01 -0.68866469182E+01  0.87606271672E+01  0.10000000000E+01 0.  1.
        -13    1    6    6    0    0 -0.64535224041E+01 -0.15889186531E+02 -0.13831260506E+02  0.22032453159E+02  0.10500000000E+00 0. -1.
         13    1    6    6    0    0 -0.92317536644E+01 -0.22783695263E+02 -0.20024877894E+02  0.31706920463E+02  0.10500000000E+00 0.  1.
</event>
<event>
11    0  0.3485800E-009  0.9118800E+02  0.7816531E-02  0.1126479E+00
         25   -1    0    0    0    0  0.00000000000E+00  0.00000000000E+00  0.99999998245E-14  0.12500000000E+03  0.12500000000E+03 0.  0.
    3000001    1    3    3    0    0 -0.29383433227E+01 -0.88666856011E+00 -0.59183404530E+02  0.59271370951E+02  0.10000000000E+01 0. -1.
    1000022    2    1    0    0    0 -0.48412716307E+01 -0.21199244150E+01 -0.61468024416E+02  0.62499999889E+02  0.99999985051E+01 0.  0.
    3000022    2    3    3    0    0 -0.19029283079E+01 -0.12332558549E+01 -0.22846198856E+01  0.32286289388E+01  0.25000130753E+00 0.  0.
    1000022    2    1    0    0    0  0.48412716307E+01  0.21199244150E+01  0.61468024416E+02  0.62500000111E+02  0.99999998865E+01 0.  0.
    3000022    2    5    5    0    0  0.19229548927E+00  0.54373788499E+01  0.26413788802E+02  0.26969479180E+02  0.25000417716E+00 0.  0.
        -13    1    4    4    0    0 -0.87021704328E+00 -0.48824558229E+00 -0.10307678271E+01  0.14384605537E+01  0.10500000000E+00 0. -1.
         13    1    4    4    0    0 -0.10327112647E+01 -0.74501027260E+00 -0.12538520585E+01  0.17901683851E+01  0.10500000000E+00 0.  1.
    3000001    1    5    5    0    0  0.46489761414E+01 -0.33174544349E+01  0.35054235614E+02  0.35530520930E+02  0.10000000000E+01 0. -1.
        -13    1    6    6    0    0  0.14319518398E+00  0.28426216884E+01  0.14074608997E+02  0.14359897156E+02  0.10500000000E+00 0.  1.
         13    1    6    6    0    0  0.49100305295E-01  0.25947571614E+01  0.12339179805E+02  0.12609582024E+02  0.10500000000E+00 0. -1.
</event>
<event>
11    0  0.3485800E-009  0.9118800E+02  0.7816531E-02  0.1126479E+00
         25   -1    0    0    0    0  0.00000000000E+00  0.00000000000E+00  0.99999998245E-14  0.12500000000E+03  0.12500000000E+03 0.  0.
    3000001    1    3    3    0    0 -0.37398162036E+02  0.22512659767E+02  0.30128196848E+02  0.53048568490E+02  0.10000000000E+01 0.  1.
    1000022    2    1    0    0    0 -0.43658476155E+02  0.22720754375E+02  0.37201542584E+02  0.62499999859E+02  0.99999996102E+01 0.  0.
    3000022    2    3    3    0    0 -0.62603141186E+01  0.20809460864E+00  0.70733457357E+01  0.94514313695E+01  0.24999761243E+00 0.  0.
    1000022    2    1    0    0    0  0.43658476155E+02 -0.22720754375E+02 -0.37201542584E+02  0.62500000141E+02  0.10000001372E+02 0.  0.
    3000022    2    5    5    0    0  0.19451837281E+02 -0.10881283874E+02 -0.10825704947E+02  0.24779723917E+02  0.25003494173E+00 0.  0.
        -13    1    4    4    0    0 -0.27317755165E+01  0.15678365002E+00  0.30879534118E+01  0.41271854646E+01  0.10500000000E+00 0. -1.
         13    1    4    4    0    0 -0.35285386021E+01  0.51310958611E-01  0.39853923239E+01  0.53242459049E+01  0.10500000000E+00 0.  1.
    3000001    1    5    5    0    0  0.24206638874E+02 -0.11839470502E+02 -0.26375837637E+02  0.37720276224E+02  0.10000000000E+01 0.  1.
        -13    1    6    6    0    0  0.67457016769E+01 -0.37783328455E+01 -0.36934848841E+01  0.85693141962E+01  0.10500000000E+00 0. -1.
         13    1    6    6    0    0  0.12706135604E+02 -0.71029510282E+01 -0.71322200626E+01  0.16210409721E+02  0.10500000000E+00 0.  1.
</event>
<event>
11    0  0.3485800E-009  0.9118800E+02  0.7816531E-02  0.1126479E+00
         25   -1    0    0    0    0  0.00000000000E+00  0.00000000000E+00  0.99999998245E-14  0.12500000000E+03  0.12500000000E+03 0.  0.
    3000001    1    3    3    0    0 -0.44159151713E+01 -0.26192187054E+02 -0.27771901811E+02  0.38442287909E+02  0.10000000000E+01 0. -1.
    1000022    2    1    0    0    0 -0.14460480216E+02 -0.42573285656E+02 -0.42245234753E+02  0.62500000796E+02  0.10000005028E+02 0.  0.
    3000022    2    3    3    0    0 -0.10044565045E+02 -0.16381098602E+02 -0.14473332942E+02  0.24057712887E+02  0.25000914592E+00 0.  0.
    1000022    2    1    0    0    0  0.14460480216E+02  0.42573285656E+02  0.42245234753E+02  0.62499999204E+02  0.99999950805E+01 0.  0.
    3000022    2    5    5    0    0  0.24464132600E+01  0.16331253274E+01  0.91806176777E+00  0.30915001535E+01  0.24999923119E+00 0.  0.
        -13    1    4    4    0    0 -0.23952159760E+01 -0.39137511252E+01 -0.34343164386E+01  0.57323696533E+01  0.10500000000E+00 0.  1.
         13    1    4    4    0    0 -0.76493490686E+01 -0.12467347476E+02 -0.11039016504E+02  0.18325343234E+02  0.10500000000E+00 0. -1.
    3000001    1    5    5    0    0  0.12014066956E+02  0.40940160328E+02  0.41327172985E+02  0.59408499051E+02  0.10000000000E+01 0. -1.
        -13    1    6    6    0    0  0.13947760624E+01  0.10082148624E+01  0.52953087038E+00  0.18036977063E+01  0.10500000000E+00 0.  1.
         13    1    6    6    0    0  0.10516371976E+01  0.62491046495E+00  0.38853089739E+00  0.12878024471E+01  0.10500000000E+00 0. -1.
</event>
<event>
11    0  0.3485800E-009  0.9118800E+02  0.7816531E-02  0.1126479E+00
         25   -1    0    0    0    0  0.00000000000E+00  0.00000000000E+00  0.99999998245E-14  0.12500000000E+03  0.12500000000E+03 0.  0.
    3000001    1    3    3    0    0 -0.14568350664E+02 -0.20595607863E+01 -0.89474315244E+01  0.17249207593E+02  0.10000000000E+01 0. -1.
    1000022    2    1    0    0    0 -0.46489582545E+02 -0.21958469473E+02 -0.34099767741E+02  0.62499999077E+02  0.10000002888E+02 0.  0.
    3000022    2    3    3    0    0 -0.31921231881E+02 -0.19898908687E+02 -0.25152336217E+02  0.45250791484E+02  0.25000200067E+00 0.  0.
    1000022    2    1    0    0    0  0.46489582545E+02  0.21958469473E+02  0.34099767741E+02  0.62500000923E+02  0.10000014426E+02 0.  0.
    3000022    2    5    5    0    0  0.16123011055E+02  0.12829282900E+02  0.14729243622E+02  0.25328938035E+02  0.24999821825E+00 0.  0.
        -13    1    4    4    0    0 -0.23093997679E+02 -0.14383058548E+02 -0.18236363990E+02  0.32753337212E+02  0.10500000000E+00 0.  1.
         13    1    4    4    0    0 -0.88272342020E+01 -0.55158501394E+01 -0.69159722269E+01  0.12497454271E+02  0.10500000000E+00 0. -1.
    3000001    1    5    5    0    0  0.30366571490E+02  0.91291865738E+01  0.19370524119E+02  0.37171062888E+02  0.10000000000E+01 0.  1.
        -13    1    6    6    0    0  0.12277567125E+02  0.97541445216E+01  0.11226203174E+02  0.19285244426E+02  0.10500000000E+00 0.  1.
         13    1    6    6    0    0  0.38454439306E+01  0.30751383780E+01  0.35030404480E+01  0.60436936097E+01  0.10500000000E+00 0. -1.
</event>
<event>
11    0  0.3485800E-009  0.9118800E+02  0.7816531E-02  0.1126479E+00
         25   -1    0    0    0    0  0.00000000000E+00  0.00000000000E+00  0.99999998245E-14  0.12500000000E+03  0.12500000000E+03 0.  0.
    3000001    1    3    3    0    0 -0.38416686306E+01 -0.10145694440E+02  0.23683940919E+01  0.11149117639E+02  0.10000000000E+01 0. -1.
    1000022    2    1    0    0    0 -0.35182166283E+02 -0.44897085234E+02  0.23509932988E+02  0.62500000086E+02  0.99999987371E+01 0.  0.
    3000022    2    3    3    0    0 -0.31340497652E+02 -0.34751390794E+02  0.21141538896E+02  0.51350882447E+02  0.25001202031E+00 0.  0.
    1000022    2    1    0    0    0  0.35182166283E+02  0.44897085234E+02 -0.23509932988E+02  0.62499999914E+02  0.99999976621E+01 0.  0.
    3000022    2    5    5    0    0  0.87226721269E+01  0.15947474776E+02 -0.11329409851E+02  0.21420200492E+02  0.25000152766E+00 0.  0.
        -13    1    4    4    0    0 -0.17716837935E+02 -0.19643388876E+02  0.11878522109E+02  0.28997575510E+02  0.10500000000E+00 0.  1.
         13    1    4    4    0    0 -0.13623659717E+02 -0.15108001918E+02  0.92630167870E+01  0.22353306938E+02  0.10500000000E+00 0. -1.
    3000001    1    5    5    0    0  0.26459494156E+02  0.28949610458E+02 -0.12180523137E+02  0.41079799422E+02  0.10000000000E+01 0.  1.
        -13    1    6    6    0    0  0.63456600685E+01  0.11544264996E+02 -0.82410595814E+01  0.15539097272E+02  0.10500000000E+00 0. -1.
         13    1    6    6    0    0  0.23770120584E+01  0.44032097804E+01 -0.30883502699E+01  0.58811032201E+01  0.10500000000E+00 0.  1.
</event>
<event>
11    0  0.3485800E-009  0.9118800E+02  0.7816531E-02  0.1126479E+00
         25   -1    0    0    0    0  0.00000000000E+00  0.00000000000E+00  0.99999998245E-14  0.12500000000E+03  0.12500000000E+03 0.  0.
    3000001    1    3    3    0    0 -0.64275459183E+00  0.76133880624E+00 -0.18056608041E+01  0.22919819334E+01  0.10000000000E+01 0. -1.
    1000022    2    1    0    0    0 -0.40563650119E+01  0.55559547239E+02 -0.26512874046E+02  0.62499998600E+02  0.99999974154E+01 0.  0.
    3000022    2    3    3    0    0 -0.34136104200E+01  0.54798208433E+02 -0.24707213242E+02  0.60208016667E+02  0.25000242329E+00 0.  0.
    1000022    2    1    0    0    0  0.40563650119E+01 -0.55559547239E+02  0.26512874046E+02  0.62500001400E+02  0.10000014913E+02 0.  0.
    3000022    2    5    5    0    0  0.25040428484E+01 -0.24887891240E+02  0.17325110848E+02  0.30428593909E+02  0.25000091702E+00 0.  0.
        -13    1    4    4    0    0 -0.23785463243E+01  0.38821001983E+02 -0.17482940648E+02  0.42642606818E+02  0.10500000000E+00 0.  1.
         13    1    4    4    0    0 -0.10350640958E+01  0.15977206450E+02 -0.72242725947E+01  0.17565409848E+02  0.10500000000E+00 0. -1.
    3000001    1    5    5    0    0  0.15523221635E+01 -0.30671655999E+02  0.91877631987E+01  0.32071407491E+02  0.10000000000E+01 0. -1.
        -13    1    6    6    0    0  0.16059858320E+01 -0.15700771247E+02  0.10996185966E+02  0.19235917942E+02  0.10500000000E+00 0. -1.
         13    1    6    6    0    0  0.89805701637E+00 -0.91871199926E+01  0.63289248816E+01  0.11192675968E+02  0.10500000000E+00 0.  1.
</event>
<event>
11    0  0.3485800E-009  0.9118800E+02  0.7816531E-02  0.1126479E+00
         25   -1    0    0    0    0  0.00000000000E+00  0.00000000000E+00  0.99999998245E-14  0.12500000000E+03  0.12500000000E+03 0.  0.
    3000001    1    3    3    0    0 -0.14125894386E+02  0.57061313260E+02  0.16938923819E+02  0.61183833676E+02  0.10000000000E+01 0.  1.
    1000022    2    1    0    0    0 -0.13846602536E+02  0.57307439282E+02  0.18176329720E+02  0.62499999121E+02  0.99999964586E+01 0.  0.
    3000022    2    3    3    0    0  0.27929185065E+00  0.24612602219E+00  0.12374059015E+01  0.13161654450E+01  0.25007230311E+00 0.  0.
    1000022    2    1    0    0    0  0.13846602536E+02 -0.57307439282E+02 -0.18176329720E+02  0.62500000879E+02  0.10000007443E+02 0.  0.
    3000022    2    5    5    0    0  0.11594598097E+02 -0.29278573708E+02 -0.11946496206E+02  0.33681609963E+02  0.24998933448E+00 0.  0.
        -13    1    4    4    0    0  0.10964717929E+00  0.16483947564E+00  0.49976302194E+00  0.54770670505E+00  0.10500000000E+00 0.  1.
         13    1    4    4    0    0  0.16964467136E+00  0.81286546549E-01  0.73764287956E+00  0.76845873990E+00  0.10500000000E+00 0. -1.
    3000001    1    5    5    0    0  0.22520044386E+01 -0.28028865574E+02 -0.62298335144E+01  0.28818390916E+02  0.10000000000E+01 0.  1.
        -13    1    6    6    0    0  0.35166466456E+01 -0.87576728925E+01 -0.35882959672E+01  0.10097055564E+02  0.10500000000E+00 0.  1.
         13    1    6    6    0    0  0.80779514516E+01 -0.20520900816E+02 -0.83582002384E+01  0.23584554398E+02  0.10500000000E+00 0. -1.
</event>
<event>
11    0  0.3485800E-009  0.9118800E+02  0.7816531E-02  0.1126479E+00
         25   -1    0    0    0    0  0.00000000000E+00  0.00000000000E+00  0.99999998245E-14  0.12500000000E+03  0.12500000000E+03 0.  0.
    3000001    1    3    3    0    0 -0.38996100999E+02  0.21229477843E+02 -0.39808723404E+02  0.59641605291E+02  0.10000000000E+01 0.  1.
    1000022    2    1    0    0    0 -0.39501086731E+02  0.23765229450E+02 -0.41001566493E+02  0.62499999989E+02  0.99999780044E+01 0.  0.
    3000022    2    3    3    0    0 -0.50498573182E+00  0.25357516064E+01 -0.11928430888E+01  0.28583946984E+01  0.24999763750E+00 0.  0.
    1000022    2    1    0    0    0  0.39501086731E+02 -0.23765229450E+02  0.41001566493E+02  0.62500000011E+02  0.99999781426E+01 0.  0.
    3000022    2    5    5    0    0  0.60955825370E+01 -0.70158715862E+01  0.12035329483E+02  0.15208229207E+02  0.24999856023E+00 0.  0.
        -13    1    4    4    0    0 -0.18235895732E+00  0.12229888563E+01 -0.60425549969E+00  0.13802558606E+01  0.10500000000E+00 0. -1.
         13    1    4    4    0    0 -0.32262677450E+00  0.13127627501E+01 -0.58858758912E+00  0.14781388377E+01  0.10500000000E+00 0.  1.
    3000001    1    5    5    0    0  0.33405504194E+02 -0.16749357863E+02  0.28966237010E+02  0.47291770804E+02  0.10000000000E+01 0.  1.
        -13    1    6    6    0    0  0.21487376047E+01 -0.25278516999E+01  0.42234820150E+01  0.53717718531E+01  0.10500000000E+00 0. -1.
         13    1    6    6    0    0  0.39468449323E+01 -0.44880198863E+01  0.78118474677E+01  0.98364573541E+01  0.10500000000E+00 0.  1.
</event>
<event>
11    0  0.3485800E-009  0.9118800E+02  0.7816531E-02  0.1126479E+00
         25   -1    0    0    0    0  0.00000000000E+00  0.00000000000E+00  0.99999998245E-14  0.12500000000E+03  0.12500000000E+03 0.  0.
    3000001    1    3    3    0    0 -0.26821159523E+01 -0.60403593299E+02 -0.58548177809E+01  0.60754149823E+02  0.10000000000E+01 0. -1.
    1000022    2    1    0    0    0 -0.33415456479E+01 -0.61175819952E+02 -0.72527855592E+01  0.62499998014E+02  0.99999989608E+01 0.  0.
    3000022    2    3    3    0    0 -0.65942969565E+00 -0.77222665274E+00 -0.13979677782E+01  0.17458481908E+01  0.24998093851E+00 0.  0.
    1000022    2    1    0    0    0  0.33415456479E+01  0.61175819952E+02  0.72527855592E+01  0.62500001986E+02  0.10000023789E+02 0.  0.
    3000022    2    5    5    0    0  0.21630036714E+01  0.39225023791E+02 -0.14173378901E+00  0.39285667413E+02  0.24999862519E+00 0.  0.
        -13    1    4    4    0    0 -0.38196655713E+00 -0.50457057959E+00 -0.77927064419E+00  0.10093451627E+01  0.10500000000E+00 0. -1.
         13    1    4    4    0    0 -0.27746313852E+00 -0.26765607315E+00 -0.61869713406E+00  0.73650302811E+00  0.10500000000E+00 0.  1.
    3000001    1    5    5    0    0  0.11785419765E+01  0.21950796161E+02  0.73945193482E+01  0.23214334573E+02  0.10000000000E+01 0. -1.
        -13    1    6    6    0    0  0.13975816892E+01  0.25421320441E+02 -0.35184450343E-01  0.25459949538E+02  0.10500000000E+00 0. -1.
         13    1    6    6    0    0  0.76542198222E+00  0.13803703351E+02 -0.10654933867E+00  0.13825717875E+02  0.10500000000E+00 0.  1.
</event>
<event>
11    0  0.3485800E-009  0.9118800E+02  0.7816531E-02  0.1126479E+00
         25   -1    0    0    0    0  0.00000000000E+00  0.00000000000E+00  0.99999998245E-14  0.12500000000E+03  0.12500000000E+03 0.  0.
    3000001    1    3    3    0    0  0.15921312175E+01  0.11863608513E+02  0.38960515820E+01  0.12627719774E+02  0.10000000000E+01 0.  1.
    1000022    2    1    0    0    0 -0.11011558051E+02  0.58816776216E+02  0.15019400638E+02  0.62499999998E+02  0.10000001457E+02 0.  0.
    3000022    2    3    3    0    0 -0.12603689268E+02  0.46953167703E+02  0.11123349056E+02  0.49872280225E+02  0.25000007576E+00 0.  0.
    1000022    2    1    0    0    0  0.11011558051E+02 -0.58816776216E+02 -0.15019400638E+02  0.62500000002E+02  0.10000001478E+02 0.  0.
    3000022    2    5    5    0    0  0.66177542248E+01 -0.13533185179E+02 -0.22385737533E+01  0.15232054573E+02  0.25000395827E+00 0.  0.
        -13    1    4    4    0    0 -0.58348158855E+01  0.21537725099E+02  0.50616152377E+01  0.22881207412E+02  0.10500000000E+00 0. -1.
         13    1    4    4    0    0 -0.67688733826E+01  0.25415442605E+02  0.60617338180E+01  0.26991072812E+02  0.10500000000E+00 0.  1.
    3000001    1    5    5    0    0  0.43938038258E+01 -0.45283591037E+02 -0.12780826884E+02  0.47267945429E+02  0.10000000000E+01 0. -1.
        -13    1    6    6    0    0  0.31254450562E+01 -0.65099055216E+01 -0.11167461257E+01  0.73079014504E+01  0.10500000000E+00 0. -1.
         13    1    6    6    0    0  0.34923091686E+01 -0.70232796577E+01 -0.11218276276E+01  0.79241531223E+01  0.10500000000E+00 0.  1.
</event>
<event>
11    0  0.3485800E-009  0.9118800E+02  0.7816531E-02  0.1126479E+00
         25   -1    0    0    0    0  0.00000000000E+00  0.00000000000E+00  0.99999998245E-14  0.12500000000E+03  0.12500000000E+03 0.  0.
    3000001    1    3    3    0    0  0.27383640112E+02  0.10225004741E+02  0.35893665663E+02  0.46300860710E+02  0.10000000000E+01 0.  1.
    1000022    2    1    0    0    0  0.34813195003E+02  0.19118504100E+02  0.47209895336E+02  0.62500001995E+02  0.10000014322E+02 0.  0.
    3000022    2    3    3    0    0  0.74295548909E+01  0.88934993592E+01  0.11316229673E+02  0.16199141285E+02  0.25001530251E+00 0.  0.
    1000022    2    1    0    0    0 -0.34813195003E+02 -0.19118504100E+02 -0.47209895336E+02  0.62499998005E+02  0.99999893837E+01 0.  0.
    3000022    2    5    5    0    0 -0.98887028272E+01 -0.27822700476E+01 -0.18189126424E+02  0.20891010016E+02  0.25001839137E+00 0.  0.
        -13    1    4    4    0    0  0.27344717704E+01  0.32520628050E+01  0.42301290639E+01  0.59965210954E+01  0.10500000000E+00 0.  1.
         13    1    4    4    0    0  0.46950831206E+01  0.56414365542E+01  0.70861006088E+01  0.10202620190E+02  0.10500000000E+00 0. -1.
    3000001    1    5    5    0    0 -0.24924492175E+02 -0.16336234053E+02 -0.29020768911E+02  0.41608987989E+02  0.10000000000E+01 0.  1.
        -13    1    6    6    0    0 -0.27158698173E+01 -0.74012998457E+00 -0.49262133451E+01  0.56747109336E+01  0.10500000000E+00 0.  1.
         13    1    6    6    0    0 -0.71728330100E+01 -0.20421400630E+01 -0.13262913079E+02  0.15216299083E+02  0.10500000000E+00 0. -1.
</event>
<event>
11    0  0.3485800E-009  0.9118800E+02  0.7816531E-02  0.1126479E+00
         25   -1    0    0    0    0  0.00000000000E+00  0.00000000000E+00  0.99999998245E-14  0.12500000000E+03  0.12500000000E+03 0.  0.
    3000001    1    3    3    0    0 -0.31194302204E+02  0.47277860738E+02 -0.11122375242E+02  0.57732034755E+02  0.10000000000E+01 0.  1.
    1000022    2    1    0    0    0 -0.34670928844E+02  0.49130789145E+02 -0.13796457244E+02  0.62499999727E+02  0.99999992208E+01 0.  0.
    3000022    2    3    3    0    0 -0.34766266410E+01  0.18529284072E+01 -0.26740820015E+01  0.47679649719E+01  0.24999787983E+00 0.  0.
    1000022    2    1    0    0    0  0.34670928844E+02 -0.49130789145E+02  0.13796457244E+02  0.62500000273E+02  0.10000002637E+02 0.  0.
    3000022    2    5    5    0    0  0.25189817317E+02 -0.28352113268E+02  0.63373811792E+01  0.38452491822E+02  0.25000773108E+00 0.  0.
        -13    1    4    4    0    0 -0.89988167318E+00  0.44687105803E+00 -0.69055036830E+00  0.12236689010E+01  0.10500000000E+00 0. -1.
         13    1    4    4    0    0 -0.25767449678E+01  0.14060573492E+01 -0.19835316332E+01  0.35442960709E+01  0.10500000000E+00 0.  1.
    3000001    1    5    5    0    0  0.94811115277E+01 -0.20778675877E+02  0.74590760647E+01  0.24047508451E+02  0.10000000000E+01 0. -1.
        -13    1    6    6    0    0  0.16278872441E+02 -0.18395475172E+02  0.41348169373E+01  0.24909896244E+02  0.10500000000E+00 0.  1.
         13    1    6    6    0    0  0.89109448756E+01 -0.99566380958E+01  0.22025642419E+01  0.13542595578E+02  0.10500000000E+00 0. -1.
</event>
<event>
11    0  0.3485800E-009  0.9118800E+02  0.7816531E-02  0.1126479E+00
         25   -1    0    0    0    0  0.00000000000E+00  0.00000000000E+00  0.99999998245E-14  0.12500000000E+03  0.12500000000E+03 0.  0.
    3000001    1    3    3    0    0  0.10075367475E+02 -0.57616582601E+01 -0.39756182249E+02  0.41427813878E+02  0.10000000000E+01 0.  1.
    1000022    2    1    0    0    0  0.18047499135E+02 -0.23015819686E+01 -0.58951170058E+02  0.62500000944E+02  0.10000008112E+02 0.  0.
    3000022    2    3    3    0    0  0.79721316600E+01  0.34600762914E+01 -0.19194987809E+02  0.21072187067E+02  0.24999927656E+00 0.  0.
    1000022    2    1    0    0    0 -0.18047499135E+02  0.23015819686E+01  0.58951170058E+02  0.62499999056E+02  0.99999963067E+01 0.  0.
    3000022    2    5    5    0    0 -0.47365775508E+01  0.52642055375E+01  0.20497205377E+02  0.21687437613E+02  0.24999019880E+00 0.  0.
        -13    1    4    4    0    0  0.47206762336E+01  0.19790345837E+01 -0.11306259246E+02  0.12411441702E+02  0.10500000000E+00 0. -1.
         13    1    4    4    0    0  0.32514554265E+01  0.14810417078E+01 -0.78887285628E+01  0.86607453644E+01  0.10500000000E+00 0.  1.
    3000001    1    5    5    0    0 -0.13310921584E+02 -0.29626235689E+01  0.38453964681E+02  0.40812561443E+02  0.10000000000E+01 0.  1.
        -13    1    6    6    0    0 -0.17207936026E+01  0.20020249655E+01  0.76424521121E+01  0.80862434956E+01  0.10500000000E+00 0. -1.
         13    1    6    6    0    0 -0.30157839482E+01  0.32621805720E+01  0.12854753265E+02  0.13601194117E+02  0.10500000000E+00 0.  1.
</event>
<event>
11    0  0.3485800E-009  0.9118800E+02  0.7816531E-02  0.1126479E+00
         25   -1    0    0    0    0  0.00000000000E+00  0.00000000000E+00  0.99999998245E-14  0.12500000000E+03  0.12500000000E+03 0.  0.
    3000001    1    3    3    0    0 -0.55924115375E-01  0.17006272552E+00 -0.15144782401E+00  0.10271247639E+01  0.10000000000E+01 0.  1.
    1000022    2    1    0    0    0 -0.24638444549E+02  0.51192531660E+02 -0.24052479252E+02  0.62500000511E+02  0.10000002905E+02 0.  0.
    3000022    2    3    3    0    0 -0.24582520433E+02  0.51022468935E+02 -0.23901031428E+02  0.61472875747E+02  0.25000441387E+00 0.  0.
    1000022    2    1    0    0    0  0.24638444549E+02 -0.51192531660E+02  0.24052479252E+02  0.62499999489E+02  0.99999965199E+01 0.  0.
    3000022    2    5    5    0    0  0.90336853264E+01 -0.14916076725E+02  0.12106068793E+02  0.21230078046E+02  0.24999356462E+00 0.  0.
        -13    1    4    4    0    0 -0.91251297291E+01  0.18890254208E+02 -0.87930719434E+01  0.22747281943E+02  0.10500000000E+00 0.  1.
         13    1    4    4    0    0 -0.15457390704E+02  0.32132214727E+02 -0.15107959485E+02  0.38725593803E+02  0.10500000000E+00 0. -1.
    3000001    1    5    5    0    0  0.15604759222E+02 -0.36276454935E+02  0.11946410459E+02  0.41269921443E+02  0.10000000000E+01 0.  1.
        -13    1    6    6    0    0  0.30639449861E+01 -0.50054298360E+01  0.41310999169E+01  0.71776805616E+01  0.10500000000E+00 0.  1.
         13    1    6    6    0    0  0.59697403403E+01 -0.99106468894E+01  0.79749688762E+01  0.14052397485E+02  0.10500000000E+00 0. -1.
</event>
<event>
11    0  0.3485800E-009  0.9118800E+02  0.7816531E-02  0.1126479E+00
         25   -1    0    0    0    0  0.00000000000E+00  0.00000000000E+00  0.99999998245E-14  0.12500000000E+03  0.12500000000E+03 0.  0.
    3000001    1    3    3    0    0 -0.77011831587E+01 -0.30751942438E+01 -0.24242191790E+01  0.86972340608E+01  0.10000000000E+01 0. -1.
    1000022    2    1    0    0    0 -0.40354308591E+02 -0.38491731574E+02 -0.26384963444E+02  0.62499998721E+02  0.99999961365E+01 0.  0.
    3000022    2    3    3    0    0 -0.32653125432E+02 -0.35416537330E+02 -0.23960744265E+02  0.53802764660E+02  0.25000471306E+00 0.  0.
    1000022    2    1    0    0    0  0.40354308591E+02  0.38491731574E+02  0.26384963444E+02  0.62500001279E+02  0.10000012127E+02 0.  0.
    3000022    2    5    5    0    0  0.36496095408E+02  0.37246556258E+02  0.26101144168E+02  0.58314690788E+02  0.25000336414E+00 0.  0.
        -13    1    4    4    0    0 -0.19336257788E+02 -0.20878403808E+02 -0.14152422006E+02  0.31782081185E+02  0.10500000000E+00 0. -1.
         13    1    4    4    0    0 -0.13316867644E+02 -0.14538133523E+02 -0.98083222595E+01  0.22020683475E+02  0.10500000000E+00 0.  1.
    3000001    1    5    5    0    0  0.38582131821E+01  0.12451753167E+01  0.28381927608E+00  0.41853104914E+01  0.10000000000E+01 0.  1.
        -13    1    6    6    0    0  0.11176495015E+02  0.11474330402E+02  0.80139822070E+01  0.17911148339E+02  0.10500000000E+00 0. -1.
         13    1    6    6    0    0  0.25319600393E+02  0.25772225856E+02  0.18087161961E+02  0.40403542449E+02  0.10500000000E+00 0.  1.
</event>
<event>
11    0  0.3485800E-009  0.9118800E+02  0.7816531E-02  0.1126479E+00
         25   -1    0    0    0    0  0.00000000000E+00  0.00000000000E+00  0.99999998245E-14  0.12500000000E+03  0.12500000000E+03 0.  0.
    3000001    1    3    3    0    0  0.27060995151E+02 -0.16779041560E+02 -0.27863443614E+02  0.42322632057E+02  0.10000000000E+01 0.  1.
    1000022    2    1    0    0    0  0.40777956352E+02 -0.18136676684E+02 -0.42596586538E+02  0.62500000432E+02  0.10000005195E+02 0.  0.
    3000022    2    3    3    0    0  0.13716961200E+02 -0.13576351243E+01 -0.14733142925E+02  0.20177368375E+02  0.24999276500E+00 0.  0.
    1000022    2    1    0    0    0 -0.40777956352E+02  0.18136676684E+02  0.42596586538E+02  0.62499999568E+02  0.99999997955E+01 0.  0.
    3000022    2    5    5    0    0 -0.17278664796E+02  0.10773928224E+02  0.24857324490E+02  0.32133765252E+02  0.25000394785E+00 0.  0.
        -13    1    4    4    0    0  0.53413136121E+01 -0.46895143581E+00 -0.57059615621E+01  0.78306174023E+01  0.10500000000E+00 0.  1.
         13    1    4    4    0    0  0.83756475882E+01 -0.88868368853E+00 -0.90271813626E+01  0.12346750972E+02  0.10500000000E+00 0. -1.
    3000001    1    5    5    0    0 -0.23499291556E+02  0.73627484600E+01  0.17739262049E+02  0.30366234316E+02  0.10000000000E+01 0.  1.
        -13    1    6    6    0    0 -0.90351718270E+01  0.55548760590E+01  0.12932123937E+02  0.16725484522E+02  0.10500000000E+00 0. -1.
         13    1    6    6    0    0 -0.82434929692E+01  0.52190521649E+01  0.11925200553E+02  0.15408280730E+02  0.10500000000E+00 0.  1.
</event>
<event>
11    0  0.3485800E-009  0.9118800E+02  0.7816531E-02  0.1126479E+00
         25   -1    0    0    0    0  0.00000000000E+00  0.00000000000E+00  0.99999998245E-14  0.12500000000E+03  0.12500000000E+03 0.  0.
    3000001    1    3    3    0    0 -0.31128779035E+02  0.30331410504E+02 -0.61536970063E+01  0.43907440534E+02  0.10000000000E+01 0.  1.
    1000022    2    1    0    0    0 -0.47436785691E+02  0.39153449589E+02 -0.47967449052E+01  0.62500000143E+02  0.10000000237E+02 0.  0.
    3000022    2    3    3    0    0 -0.16308006656E+02  0.88220390850E+01  0.13569521011E+01  0.18592559609E+02  0.24999820435E+00 0.  0.
    1000022    2    1    0    0    0  0.47436785691E+02 -0.39153449589E+02  0.47967449052E+01  0.62499999857E+02  0.99999984462E+01 0.  0.
    3000022    2    5    5    0    0  0.17596902707E+02 -0.11426797963E+02  0.57042778515E+01  0.21744516263E+02  0.25001025257E+00 0.  0.
        -13    1    4    4    0    0 -0.11806625466E+02  0.64297414053E+01  0.98809278431E+00  0.13480553839E+02  0.10500000000E+00 0.  1.
         13    1    4    4    0    0 -0.45013811896E+01  0.23922976797E+01  0.36885931679E+00  0.51120057706E+01  0.10500000000E+00 0. -1.
    3000001    1    5    5    0    0  0.29839882984E+02 -0.27726651626E+02 -0.90753294628E+00  0.40755483594E+02  0.10000000000E+01 0.  1.
        -13    1    6    6    0    0  0.13397113954E+02 -0.87051855335E+01  0.43253319741E+01  0.16552414904E+02  0.10500000000E+00 0.  1.
         13    1    6    6    0    0  0.41997887537E+01 -0.27216124299E+01  0.13789458774E+01  0.51921013595E+01  0.10500000000E+00 0. -1.
</event>
<event>
11    0  0.3485800E-009  0.9118800E+02  0.7816531E-02  0.1126479E+00
         25   -1    0    0    0    0  0.00000000000E+00  0.00000000000E+00  0.99999998245E-14  0.12500000000E+03  0.12500000000E+03 0.  0.
    3000001    1    3    3    0    0 -0.11797630162E+02 -0.66540754664E+01 -0.23807126473E+01  0.13788712430E+02  0.10000000000E+01 0.  1.
    1000022    2    1    0    0    0 -0.55548653374E+02 -0.15634616066E+02 -0.21821000137E+02  0.62499998791E+02  0.99999845340E+01 0.  0.
    3000022    2    3    3    0    0 -0.43751023212E+02 -0.89805405999E+01 -0.19440287489E+02  0.48711286361E+02  0.24999950407E+00 0.  0.
    1000022    2    1    0    0    0  0.55548653374E+02  0.15634616066E+02  0.21821000137E+02  0.62500001209E+02  0.99999996496E+01 0.  0.
    3000022    2    5    5    0    0  0.37424305949E+02  0.13636148585E+02  0.18583083229E+02  0.43953574390E+02  0.24999077308E+00 0.  0.
        -13    1    4    4    0    0 -0.19028884055E+02 -0.38456036347E+01 -0.84816004307E+01  0.21185742058E+02  0.10500000000E+00 0.  1.
         13    1    4    4    0    0 -0.24722139157E+02 -0.51349369652E+01 -0.10958687059E+02  0.27525544303E+02  0.10500000000E+00 0. -1.
    3000001    1    5    5    0    0  0.18124347425E+02  0.19984674817E+01  0.32379169077E+01  0.18546426819E+02  0.10000000000E+01 0. -1.
        -13    1    6    6    0    0  0.18658653499E+02  0.67379694196E+01  0.92146711442E+01  0.21873883322E+02  0.10500000000E+00 0. -1.
         13    1    6    6    0    0  0.18765652450E+02  0.68981791649E+01  0.93684120846E+01  0.22079691068E+02  0.10500000000E+00 0.  1.
</event>
<event>
11    0  0.3485800E-009  0.9118800E+02  0.7816531E-02  0.1126479E+00
         25   -1    0    0    0    0  0.00000000000E+00  0.00000000000E+00  0.99999998245E-14  0.12500000000E+03  0.12500000000E+03 0.  0.
    3000001    1    3    3    0    0  0.57171639345E+01  0.21988492888E+01  0.69493381142E+01  0.93174139048E+01  0.10000000000E+01 0.  1.
    1000022    2    1    0    0    0  0.49636090059E+02  0.23200595861E+02  0.28359141211E+02  0.62500001293E+02  0.10000009338E+02 0.  0.
    3000022    2    3    3    0    0  0.43918926124E+02  0.21001746572E+02  0.21409803097E+02  0.53182587388E+02  0.25000329607E+00 0.  0.
    1000022    2    1    0    0    0 -0.49636090059E+02 -0.23200595861E+02 -0.28359141211E+02  0.62499998707E+02  0.99999931778E+01 0.  0.
    3000022    2    5    5    0    0 -0.32010429138E+02 -0.10034620663E+02 -0.19158079604E+02  0.38632314268E+02  0.25001227354E+00 0.  0.
        -13    1    4    4    0    0  0.12800478738E+02  0.60731722249E+01  0.62322311145E+01  0.15478611257E+02  0.10500000000E+00 0. -1.
         13    1    4    4    0    0  0.31118447386E+02  0.14928574347E+02  0.15177571983E+02  0.37703976131E+02  0.10500000000E+00 0.  1.
    3000001    1    5    5    0    0 -0.17625660921E+02 -0.13165975197E+02 -0.92010616074E+01  0.23867684440E+02  0.10000000000E+01 0. -1.
        -13    1    6    6    0    0 -0.18781161366E+02 -0.59171479396E+01 -0.11311842768E+02  0.22709325701E+02  0.10500000000E+00 0. -1.
         13    1    6    6    0    0 -0.13229267772E+02 -0.41174727238E+01 -0.78462368358E+01  0.15922988566E+02  0.10500000000E+00 0.  1.
</event>
<event>
11    0  0.3485800E-009  0.9118800E+02  0.7816531E-02  0.1126479E+00
         25   -1    0    0    0    0  0.00000000000E+00  0.00000000000E+00  0.99999998245E-14  0.12500000000E+03  0.12500000000E+03 0.  0.
    3000001    1    3    3    0    0 -0.39700709879E+02 -0.91443305209E+01  0.18105664039E+01  0.40792686799E+02  0.10000000000E+01 0. -1.
    1000022    2    1    0    0    0 -0.61102535488E+02 -0.70660949650E+01  0.47749808901E+01  0.62500000242E+02  0.10000002330E+02 0.  0.
    3000022    2    3    3    0    0 -0.21401825609E+02  0.20782355559E+01  0.29644144861E+01  0.21707313443E+02  0.25000246675E+00 0.  0.
    1000022    2    1    0    0    0  0.61102535488E+02  0.70660949650E+01 -0.47749808901E+01  0.62499999758E+02  0.99999993086E+01 0.  0.
    3000022    2    5    5    0    0  0.53683331209E+02  0.93378264567E+01 -0.39415643102E+01  0.54632348311E+02  0.25000022464E+00 0.  0.
        -13    1    4    4    0    0 -0.10530843079E+02  0.95629947546E+00  0.14421006297E+01  0.10672574379E+02  0.10500000000E+00 0. -1.
         13    1    4    4    0    0 -0.10870982530E+02  0.11219360805E+01  0.15223138564E+01  0.11034739064E+02  0.10500000000E+00 0.  1.
    3000001    1    5    5    0    0  0.74192042790E+01 -0.22717314917E+01 -0.83341657991E+00  0.78676514475E+01  0.10000000000E+01 0.  1.
        -13    1    6    6    0    0  0.34873806947E+02  0.61158512214E+01 -0.25329419180E+01  0.35496659940E+02  0.10500000000E+00 0. -1.
         13    1    6    6    0    0  0.18809524262E+02  0.32219752352E+01 -0.14086223921E+01  0.19135688370E+02  0.10500000000E+00 0.  1.
</event>
<event>
11    0  0.3485800E-009  0.9118800E+02  0.7816531E-02  0.1126479E+00
         25   -1    0    0    0    0  0.00000000000E+00  0.00000000000E+00  0.99999998245E-14  0.12500000000E+03  0.12500000000E+03 0.  0.
    3000001    1    3    3    0    0  0.10038485980E+02  0.36908417041E+02 -0.14530693707E+02  0.40928517061E+02  0.10000000000E+01 0.  1.
    1000022    2    1    0    0    0  0.19111125832E+02  0.56417342816E+02 -0.16065445725E+02  0.62500001542E+02  0.99999972726E+01 0.  0.
    3000022    2    3    3    0    0  0.90726398512E+01  0.19508925776E+02 -0.15347520181E+01  0.21571484481E+02  0.25000035088E+00 0.  0.
    1000022    2    1    0    0    0 -0.19111125832E+02 -0.56417342816E+02  0.16065445725E+02  0.62499998458E+02  0.99999779934E+01 0.  0.
    3000022    2    5    5    0    0 -0.12168233680E+02 -0.20824625963E+02  0.66769394354E+01  0.25027484600E+02  0.25001563660E+00 0.  0.
        -13    1    4    4    0    0  0.30006933689E+01  0.64138855975E+01 -0.55539145804E+00  0.71036310309E+01  0.10500000000E+00 0.  1.
         13    1    4    4    0    0  0.60719464823E+01  0.13095040178E+02 -0.97936056002E+00  0.14467853450E+02  0.10500000000E+00 0. -1.
    3000001    1    5    5    0    0 -0.69428921518E+01 -0.35592716853E+02  0.93885062895E+01  0.37472513857E+02  0.10000000000E+01 0.  1.
        -13    1    6    6    0    0 -0.55687243648E+01 -0.96607200649E+01  0.30728672779E+01  0.11566924463E+02  0.10500000000E+00 0. -1.
         13    1    6    6    0    0 -0.65995093149E+01 -0.11163905898E+02  0.36040721576E+01  0.13460560138E+02  0.10500000000E+00 0.  1.
</event>
<event>
11    0  0.3485800E-009  0.9118800E+02  0.7816531E-02  0.1126479E+00
         25   -1    0    0    0    0  0.00000000000E+00  0.00000000000E+00  0.99999998245E-14  0.12500000000E+03  0.12500000000E+03 0.  0.
    3000001    1    3    3    0    0 -0.57928892849E+01  0.10312312478E+02 -0.22874679390E+02  0.25771152712E+02  0.10000000000E+01 0.  1.
    1000022    2    1    0    0    0 -0.16318791668E+02  0.13700581051E+02 -0.57898540186E+02  0.62500001222E+02  0.10000015721E+02 0.  0.
    3000022    2    3    3    0    0 -0.10525902383E+02  0.33882685722E+01 -0.35023860796E+02  0.36728848510E+02  0.25000576550E+00 0.  0.
    1000022    2    1    0    0    0  0.16318791668E+02 -0.13700581051E+02  0.57898540186E+02  0.62499998778E+02  0.10000000450E+02 0.  0.
    3000022    2    5    5    0    0  0.59178262584E+01 -0.14155771402E+00  0.98659619911E+01  0.11508276280E+02  0.25002143746E+00 0.  0.
        -13    1    4    4    0    0 -0.29064310720E+01  0.91065376906E+00 -0.95517575173E+01  0.10026152230E+02  0.10500000000E+00 0. -1.
         13    1    4    4    0    0 -0.76194713109E+01  0.24776148031E+01 -0.25472103279E+02  0.26702696280E+02  0.10500000000E+00 0.  1.
    3000001    1    5    5    0    0  0.10400965409E+02 -0.13559023337E+02  0.48032578195E+02  0.50991722498E+02  0.10000000000E+01 0. -1.
        -13    1    6    6    0    0  0.22877534150E+01 -0.51426788095E-01  0.39354756277E+01  0.45536198588E+01  0.10500000000E+00 0. -1.
         13    1    6    6    0    0  0.36300728434E+01 -0.90130925927E-01  0.59304863635E+01  0.69546564214E+01  0.10500000000E+00 0.  1.
</event>
<event>
11    0  0.3485800E-009  0.9118800E+02  0.7816531E-02  0.1126479E+00
         25   -1    0    0    0    0  0.00000000000E+00  0.00000000000E+00  0.99999998245E-14  0.12500000000E+03  0.12500000000E+03 0.  0.
    3000001    1    3    3    0    0 -0.19691148391E+01 -0.97594565049E+01 -0.15038767442E+02  0.18063469509E+02  0.10000000000E+01 0. -1.
    1000022    2    1    0    0    0 -0.21361914631E+02 -0.33812778770E+02 -0.46974626813E+02  0.62499992838E+02  0.99999067824E+01 0.  0.
    3000022    2    3    3    0    0 -0.19392799792E+02 -0.24053322266E+02 -0.31935859371E+02  0.44436523329E+02  0.24999210214E+00 0.  0.
    1000022    2    1    0    0    0  0.21361914631E+02  0.33812778770E+02  0.46974626813E+02  0.62500007162E+02  0.99999963059E+01 0.  0.
    3000022    2    5    5    0    0  0.62768217727E+01  0.18711707487E+02  0.20176879002E+02  0.28225794287E+02  0.25005642060E+00 0.  0.
        -13    1    4    4    0    0 -0.14243232140E+02 -0.17652763665E+02 -0.23396551971E+02  0.32586797877E+02  0.10500000000E+00 0. -1.
         13    1    4    4    0    0 -0.51495676517E+01 -0.64005586010E+01 -0.85393074004E+01  0.11849725452E+02  0.10500000000E+00 0.  1.
    3000001    1    5    5    0    0  0.15085092858E+02  0.15101071283E+02  0.26797747811E+02  0.34274212875E+02  0.10000000000E+01 0. -1.
        -13    1    6    6    0    0  0.32704859248E+01  0.99423894638E+01  0.10739957494E+02  0.14996829612E+02  0.10500000000E+00 0. -1.
         13    1    6    6    0    0  0.30063358479E+01  0.87693180236E+01  0.94369215081E+01  0.13228964675E+02  0.10500000000E+00 0.  1.
</event>
<event>
11    0  0.3485800E-009  0.9118800E+02  0.7816531E-02  0.1126479E+00
         25   -1    0    0    0    0  0.00000000000E+00  0.00000000000E+00  0.99999998245E-14  0.12500000000E+03  0.12500000000E+03 0.  0.
    3000001    1    3    3    0    0 -0.21485356705E+02  0.15508974539E+02  0.24474741219E+02  0.36085479098E+02  0.10000000000E+01 0. -1.
    1000022    2    1    0    0    0 -0.31627259681E+02  0.33145068478E+02  0.41320344936E+02  0.62499999163E+02  0.99999935190E+01 0.  0.
    3000022    2    3    3    0    0 -0.10141902976E+02  0.17636093939E+02  0.16845603718E+02  0.26414520065E+02  0.25000053213E+00 0.  0.
    1000022    2    1    0    0    0  0.31627259681E+02 -0.33145068478E+02 -0.41320344936E+02  0.62500000837E+02  0.10000003979E+02 0.  0.
    3000022    2    5    5    0    0  0.10165474446E+02 -0.68463538497E+01 -0.65551895229E+01  0.13901167028E+02  0.25000666514E+00 0.  0.
        -13    1    4    4    0    0 -0.40900859547E+01  0.69915040213E+01  0.66838533561E+01  0.10502135606E+02  0.10500000000E+00 0. -1.
         13    1    4    4    0    0 -0.60518170212E+01  0.10644589918E+02  0.10161750362E+02  0.15912384459E+02  0.10500000000E+00 0.  1.
    3000001    1    5    5    0    0  0.21461785236E+02 -0.26298714628E+02 -0.34765155414E+02  0.48598833808E+02  0.10000000000E+01 0. -1.
        -13    1    6    6    0    0  0.55779393021E+01 -0.36793175730E+01 -0.35950426057E+01  0.75885532875E+01  0.10500000000E+00 0.  1.
         13    1    6    6    0    0  0.45875351434E+01 -0.31670362767E+01 -0.29601469172E+01  0.63126137409E+01  0.10500000000E+00 0. -1.
</event>
<event>
11    0  0.3485800E-009  0.9118800E+02  0.7816531E-02  0.1126479E+00
         25   -1    0    0    0    0  0.00000000000E+00  0.00000000000E+00  0.99999998245E-14  0.12500000000E+03  0.12500000000E+03 0.  0.
    3000001    1    3    3    0    0  0.63560730426E+01 -0.52547290385E+02 -0.18072753858E+02  0.55939626593E+02  0.10000000000E+01 0. -1.
    1000022    2    1    0    0    0  0.10089581418E+02 -0.57885621803E+02 -0.18807064920E+02  0.62500006295E+02  0.10000011567E+02 0.  0.
    3000022    2    3    3    0    0  0.37335083758E+01 -0.53383314174E+01 -0.73431106234E+00  0.65603797024E+01  0.25000397920E+00 0.  0.
    1000022    2    1    0    0    0 -0.10089581418E+02  0.57885621803E+02  0.18807064920E+02  0.62499993705E+02  0.99999328756E+01 0.  0.
    3000022    2    5    5    0    0  0.47459035991E+00  0.24972372539E+02  0.67109679556E+01  0.25863955925E+02  0.24999787055E+00 0.  0.
        -13    1    4    4    0    0  0.20538999407E+01 -0.28259673466E+01 -0.41590324268E+00  0.35197438711E+01  0.10500000000E+00 0. -1.
         13    1    4    4    0    0  0.16796084351E+01 -0.25123640708E+01 -0.31840781967E+00  0.30406358313E+01  0.10500000000E+00 0.  1.
    3000001    1    5    5    0    0 -0.10564171778E+02  0.32913249263E+02  0.12096096964E+02  0.36636037780E+02  0.10000000000E+01 0. -1.
        -13    1    6    6    0    0  0.24154234805E+00  0.95339326947E+01  0.25720847785E+01  0.98783025081E+01  0.10500000000E+00 0. -1.
         13    1    6    6    0    0  0.23304801186E+00  0.15438439845E+02  0.41388831771E+01  0.15985653417E+02  0.10500000000E+00 0.  1.
</event>
<event>
11    0  0.3485800E-009  0.9118800E+02  0.7816531E-02  0.1126479E+00
         25   -1    0    0    0    0  0.00000000000E+00  0.00000000000E+00  0.99999998245E-14  0.12500000000E+03  0.12500000000E+03 0.  0.
    3000001    1    3    3    0    0 -0.26833366333E+02  0.46553018238E+02  0.12104411899E+02  0.55088382108E+02  0.10000000000E+01 0. -1.
    1000022    2    1    0    0    0 -0.32804396320E+02  0.50178417450E+02  0.14568716691E+02  0.62499995967E+02  0.99999997115E+01 0.  0.
    3000022    2    3    3    0    0 -0.59710299863E+01  0.36253992112E+01  0.24643047924E+01  0.74116138590E+01  0.25000669386E+00 0.  0.
    1000022    2    1    0    0    0  0.32804396320E+02 -0.50178417450E+02 -0.14568716691E+02  0.62500004033E+02  0.10000050121E+02 0.  0.
    3000022    2    5    5    0    0  0.24548397099E+02 -0.30391103276E+02 -0.12076472031E+02  0.40891889613E+02  0.25000186064E+00 0.  0.
        -13    1    4    4    0    0 -0.35843329452E+01  0.21168604877E+01  0.14277705898E+01  0.44020557520E+01  0.10500000000E+00 0. -1.
         13    1    4    4    0    0 -0.23866970412E+01  0.15085387234E+01  0.10365342026E+01  0.30095581070E+01  0.10500000000E+00 0.  1.
    3000001    1    5    5    0    0  0.82559992207E+01 -0.19787314174E+02 -0.24922446605E+01  0.21608114420E+02  0.10000000000E+01 0.  1.
        -13    1    6    6    0    0  0.63060140105E+01 -0.77799636469E+01 -0.30701466117E+01  0.10475231370E+02  0.10500000000E+00 0. -1.
         13    1    6    6    0    0  0.18242383089E+02 -0.22611139629E+02 -0.90063254189E+01  0.30416658242E+02  0.10500000000E+00 0.  1.
</event>
<event>
11    0  0.3485800E-009  0.9118800E+02  0.7816531E-02  0.1126479E+00
         25   -1    0    0    0    0  0.00000000000E+00  0.00000000000E+00  0.99999998245E-14  0.12500000000E+03  0.12500000000E+03 0.  0.
    3000001    1    3    3    0    0  0.11726917603E+02  0.69633169364E+01  0.10958829771E+02  0.17524392405E+02  0.10000000000E+01 0.  1.
    1000022    2    1    0    0    0  0.34845694856E+02  0.37952180905E+02  0.33936107788E+02  0.62500001104E+02  0.10000012038E+02 0.  0.
    3000022    2    3    3    0    0  0.23118777253E+02  0.30988863968E+02  0.22977278018E+02  0.44975608699E+02  0.25004204487E+00 0.  0.
    1000022    2    1    0    0    0 -0.34845694856E+02 -0.37952180905E+02 -0.33936107788E+02  0.62499998896E+02  0.99999982371E+01 0.  0.
    3000022    2    5    5    0    0 -0.81039481810E+01 -0.48449242964E+01 -0.95878366100E+01  0.13458692177E+02  0.25003337047E+00 0.  0.
        -13    1    4    4    0    0  0.14389260595E+02  0.19188840760E+02  0.14270817104E+02  0.27909311636E+02  0.10500000000E+00 0.  1.
         13    1    4    4    0    0  0.87295166585E+01  0.11800023209E+02  0.87064609135E+01  0.17066297063E+02  0.10500000000E+00 0. -1.
    3000001    1    5    5    0    0 -0.26741746675E+02 -0.33107256608E+02 -0.24348271178E+02  0.49041306719E+02  0.10000000000E+01 0.  1.
        -13    1    6    6    0    0 -0.32812491879E+01 -0.19227452698E+01 -0.37857406074E+01  0.53671596354E+01  0.10500000000E+00 0. -1.
         13    1    6    6    0    0 -0.48226989931E+01 -0.29221790265E+01 -0.58020960027E+01  0.80915325412E+01  0.10500000000E+00 0.  1.
</event>
<event>
11    0  0.3485800E-009  0.9118800E+02  0.7816531E-02  0.1126479E+00
         25   -1    0    0    0    0  0.00000000000E+00  0.00000000000E+00  0.99999998245E-14  0.12500000000E+03  0.12500000000E+03 0.  0.
    3000001    1    3    3    0    0  0.85739045620E+00  0.69123772926E+00  0.47673858992E+01  0.49940861331E+01  0.10000000000E+01 0. -1.
    1000022    2    1    0    0    0 -0.92431625565E+01  0.32047744451E+02  0.51901406697E+02  0.62499999798E+02  0.99999989544E+01 0.  0.
    3000022    2    3    3    0    0 -0.10100553013E+02  0.31356506722E+02  0.47134020798E+02  0.57505913664E+02  0.25000966693E+00 0.  0.
    1000022    2    1    0    0    0  0.92431625565E+01 -0.32047744451E+02 -0.51901406697E+02  0.62500000202E+02  0.10000001485E+02 0.  0.
    3000022    2    5    5    0    0  0.72536825010E+01 -0.20765217477E+02 -0.25339157206E+02  0.33555112159E+02  0.24999479960E+00 0.  0.
        -13    1    4    4    0    0 -0.58639514416E+01  0.18398761887E+02  0.27586610827E+02  0.33673914049E+02  0.10500000000E+00 0.  1.
         13    1    4    4    0    0 -0.42366015711E+01  0.12957744834E+02  0.19547409972E+02  0.23831999615E+02  0.10500000000E+00 0. -1.
    3000001    1    5    5    0    0  0.19894800556E+01 -0.11282526974E+02 -0.26562249491E+02  0.28944888044E+02  0.10000000000E+01 0. -1.
        -13    1    6    6    0    0  0.50392545548E+01 -0.14378531668E+02 -0.17620153861E+02  0.23294143180E+02  0.10500000000E+00 0. -1.
         13    1    6    6    0    0  0.22144279462E+01 -0.63866858091E+01 -0.77190033448E+01  0.10260968979E+02  0.10500000000E+00 0.  1.
</event>
<event>
11    0  0.3485800E-009  0.9118800E+02  0.7816531E-02  0.1126479E+00
         25   -1    0    0    0    0  0.00000000000E+00  0.00000000000E+00  0.99999998245E-14  0.12500000000E+03  0.12500000000E+03 0.  0.
    3000001    1    3    3    0    0 -0.10821874301E+02  0.45835828173E+02 -0.19322441801E+02  0.50915546397E+02  0.10000000000E+01 0.  1.
    1000022    2    1    0    0    0 -0.91893103540E+01  0.57094056436E+02 -0.21495939251E+02  0.62499999737E+02  0.99999928895E+01 0.  0.
    3000022    2    3    3    0    0  0.16325639473E+01  0.11258228263E+02 -0.21734974498E+01  0.11584453340E+02  0.24999875624E+00 0.  0.
    1000022    2    1    0    0    0  0.91893103540E+01 -0.57094056436E+02  0.21495939251E+02  0.62500000263E+02  0.99999961722E+01 0.  0.
    3000022    2    5    5    0    0  0.30520252900E+01 -0.24767365749E+02  0.41777957180E+01  0.25303235697E+02  0.24999030577E+00 0.  0.
        -13    1    4    4    0    0  0.84035466902E+00  0.53894787006E+01 -0.10771607177E+01  0.55609330913E+01  0.10500000000E+00 0.  1.
         13    1    4    4    0    0  0.79220927831E+00  0.58687495619E+01 -0.10963367320E+01  0.60235202491E+01  0.10500000000E+00 0. -1.
    3000001    1    5    5    0    0  0.61372850640E+01 -0.32326690687E+02  0.17318143533E+02  0.37196764566E+02  0.10000000000E+01 0. -1.
        -13    1    6    6    0    0  0.11051355150E+01 -0.91863713375E+01  0.14950073880E+01  0.93731966238E+01  0.10500000000E+00 0.  1.
         13    1    6    6    0    0  0.19468897750E+01 -0.15580994412E+02  0.26827883300E+01  0.15930039073E+02  0.10500000000E+00 0. -1.
</event>
<event>
11    0  0.3485800E-009  0.9118800E+02  0.7816531E-02  0.1126479E+00
         25   -1    0    0    0    0  0.00000000000E+00  0.00000000000E+00  0.99999998245E-14  0.12500000000E+03  0.12500000000E+03 0.  0.
    3000001    1    3    3    0    0  0.18016326815E+02 -0.99418626722E+01  0.79926824833E+00  0.20617165058E+02  0.10000000000E+01 0. -1.
    1000022    2    1    0    0    0  0.58295454174E+02 -0.19356568803E+02 -0.57630937569E+01  0.62500000313E+02  0.10000002818E+02 0.  0.
    3000022    2    3    3    0    0  0.40279127358E+02 -0.94147061303E+01 -0.65623620052E+01  0.41882835255E+02  0.25000322343E+00 0.  0.
    1000022    2    1    0    0    0 -0.58295454174E+02  0.19356568803E+02  0.57630937569E+01  0.62499999687E+02  0.99999989041E+01 0.  0.
    3000022    2    5    5    0    0 -0.50617474802E+02  0.16271664301E+02  0.16236666739E+01  0.53193933945E+02  0.25000125195E+00 0.  0.
        -13    1    4    4    0    0  0.29336934887E+02 -0.68208941976E+01 -0.47679783548E+01  0.30494671482E+02  0.10500000000E+00 0.  1.
         13    1    4    4    0    0  0.10942192471E+02 -0.25938119327E+01 -0.17943836505E+01  0.11388163772E+02  0.10500000000E+00 0. -1.
    3000001    1    5    5    0    0 -0.76779793717E+01  0.30849045016E+01  0.41394270830E+01  0.93060657419E+01  0.10000000000E+01 0. -1.
        -13    1    6    6    0    0 -0.19511293422E+02  0.62822524755E+01  0.68673067268E+00  0.20509507337E+02  0.10500000000E+00 0.  1.
         13    1    6    6    0    0 -0.31106181380E+02  0.99894118255E+01  0.93693600125E+00  0.32684426608E+02  0.10500000000E+00 0. -1.
</event>
<event>
11    0  0.3485800E-009  0.9118800E+02  0.7816531E-02  0.1126479E+00
         25   -1    0    0    0    0  0.00000000000E+00  0.00000000000E+00  0.99999998245E-14  0.12500000000E+03  0.12500000000E+03 0.  0.
    3000001    1    3    3    0    0 -0.13937830573E+02  0.71805479348E+01  0.11788488989E+02  0.19641585026E+02  0.10000000000E+01 0. -1.
    1000022    2    1    0    0    0 -0.41336136875E+02  0.10516802841E+02  0.44575436172E+02  0.62500005317E+02  0.10000090051E+02 0.  0.
    3000022    2    3    3    0    0 -0.27398306302E+02  0.33362549061E+01  0.32786947183E+02  0.42858420291E+02  0.24999840736E+00 0.  0.
    1000022    2    1    0    0    0  0.41336136875E+02 -0.10516802841E+02 -0.44575436172E+02  0.62499994683E+02  0.10000023588E+02 0.  0.
    3000022    2    5    5    0    0  0.33512350192E+02 -0.11668321101E+02 -0.33096751557E+02  0.48525094581E+02  0.25001562328E+00 0.  0.
        -13    1    4    4    0    0 -0.14237235930E+02  0.17805506109E+01  0.16967878175E+02  0.22221367243E+02  0.10500000000E+00 0.  1.
         13    1    4    4    0    0 -0.13161070372E+02  0.15557042952E+01  0.15819069008E+02  0.20637053047E+02  0.10500000000E+00 0. -1.
    3000001    1    5    5    0    0  0.78237866831E+01  0.11515182602E+01 -0.11478684615E+02  0.13974900102E+02  0.10000000000E+01 0. -1.
        -13    1    6    6    0    0  0.20650018806E+02 -0.72423517047E+01 -0.20360535003E+02  0.29890422305E+02  0.10500000000E+00 0. -1.
         13    1    6    6    0    0  0.12862331385E+02 -0.44259693964E+01 -0.12736216553E+02  0.18634672276E+02  0.10500000000E+00 0.  1.
</event>
<event>
11    0  0.3485800E-009  0.9118800E+02  0.7816531E-02  0.1126479E+00
         25   -1    0    0    0    0  0.00000000000E+00  0.00000000000E+00  0.99999998245E-14  0.12500000000E+03  0.12500000000E+03 0.  0.
    3000001    1    3    3    0    0 -0.13090263255E+02 -0.52273848560E+02 -0.12934471441E+02  0.55427527339E+02  0.10000000000E+01 0.  1.
    1000022    2    1    0    0    0 -0.13241495627E+02 -0.57655701494E+02 -0.17513787303E+02  0.62499999521E+02  0.10000003664E+02 0.  0.
    3000022    2    3    3    0    0 -0.15123237135E+00 -0.53818529334E+01 -0.45793158625E+01  0.70724721827E+01  0.25003355748E+00 0.  0.
    1000022    2    1    0    0    0  0.13241495627E+02  0.57655701494E+02  0.17513787303E+02  0.62500000479E+02  0.10000009647E+02 0.  0.
    3000022    2    5    5    0    0 -0.10462310392E+01  0.12059424058E+02  0.49756071275E+01  0.13089823274E+02  0.24999811217E+00 0.  0.
        -13    1    4    4    0    0 -0.66856202631E-01 -0.38407309466E+01 -0.32764429119E+01  0.50499294165E+01  0.10500000000E+00 0. -1.
         13    1    4    4    0    0 -0.84376168720E-01 -0.15411219868E+01 -0.13028729506E+01  0.20225427663E+01  0.10500000000E+00 0.  1.
    3000001    1    5    5    0    0  0.14287726666E+02  0.45596277435E+02  0.12538180176E+02  0.49410177204E+02  0.10000000000E+01 0.  1.
        -13    1    6    6    0    0 -0.30986839186E+00  0.36432908131E+01  0.15530966590E+01  0.39740056116E+01  0.10500000000E+00 0. -1.
         13    1    6    6    0    0 -0.73636264737E+00  0.84161332454E+01  0.34225104686E+01  0.91158176627E+01  0.10500000000E+00 0.  1.
</event>
<event>
11    0  0.3485800E-009  0.9118800E+02  0.7816531E-02  0.1126479E+00
         25   -1    0    0    0    0  0.00000000000E+00  0.00000000000E+00  0.99999998245E-14  0.12500000000E+03  0.12500000000E+03 0.  0.
    3000001    1    3    3    0    0  0.87950183719E+01  0.59331927015E+01  0.96086657147E+01  0.14348574167E+02  0.10000000000E+01 0. -1.
    1000022    2    1    0    0    0  0.41342789745E+02  0.84778418130E+01  0.45001667541E+02  0.62499999565E+02  0.99999899171E+01 0.  0.
    3000022    2    3    3    0    0  0.32547771373E+02  0.25446491114E+01  0.35393001827E+02  0.48151425398E+02  0.25005817227E+00 0.  0.
    1000022    2    1    0    0    0 -0.41342789745E+02 -0.84778418130E+01 -0.45001667541E+02  0.62500000435E+02  0.99999953597E+01 0.  0.
    3000022    2    5    5    0    0 -0.38930709442E+02 -0.99006183416E+01 -0.43340450886E+02  0.59093819992E+02  0.24999394831E+00 0.  0.
        -13    1    4    4    0    0  0.10656617899E+02  0.82893678717E+00  0.11665208409E+02  0.15822097000E+02  0.10500000000E+00 0. -1.
         13    1    4    4    0    0  0.21891153474E+02  0.17157123243E+01  0.23727793418E+02  0.32329328398E+02  0.10500000000E+00 0.  1.
    3000001    1    5    5    0    0 -0.24120803037E+01  0.14227765286E+01 -0.16612166549E+01  0.34061804439E+01  0.10000000000E+01 0.  1.
        -13    1    6    6    0    0 -0.25920233793E+02 -0.65636461157E+01 -0.28780480141E+02  0.39284437534E+02  0.10500000000E+00 0.  1.
         13    1    6    6    0    0 -0.13010475649E+02 -0.33369722259E+01 -0.14559970745E+02  0.19809382458E+02  0.10500000000E+00 0. -1.
</event>
<event>
11    0  0.3485800E-009  0.9118800E+02  0.7816531E-02  0.1126479E+00
         25   -1    0    0    0    0  0.00000000000E+00  0.00000000000E+00  0.99999998245E-14  0.12500000000E+03  0.12500000000E+03 0.  0.
    3000001    1    3    3    0    0  0.13469651249E+02 -0.30927186013E+02  0.26887039615E+01  0.33854858861E+02  0.10000000000E+01 0. -1.
    1000022    2    1    0    0    0  0.28366905119E+02 -0.54699093574E+02 -0.30949024619E+01  0.62500004613E+02  0.10000000577E+02 0.  0.
    3000022    2    3    3    0    0  0.14897253870E+02 -0.23771907561E+02 -0.57836064234E+01  0.28645145753E+02  0.25001996625E+00 0.  0.
    1000022    2    1    0    0    0 -0.28366905119E+02  0.54699093574E+02  0.30949024619E+01  0.62499995387E+02  0.99999429122E+01 0.  0.
    3000022    2    5    5    0    0 -0.28508945989E+02  0.49467808981E+02  0.28373970745E+01  0.57165876610E+02  0.24999927842E+00 0.  0.
        -13    1    4    4    0    0  0.90164785460E+01 -0.14494354926E+02 -0.34927011143E+01  0.17423925969E+02  0.10500000000E+00 0. -1.
         13    1    4    4    0    0  0.58807753244E+01 -0.92775526341E+01 -0.22909053091E+01  0.11221219784E+02  0.10500000000E+00 0.  1.
    3000001    1    5    5    0    0  0.14204086973E+00  0.52312845933E+01  0.25750538744E+00  0.53341187772E+01  0.10000000000E+01 0.  1.
        -13    1    6    6    0    0 -0.18600121352E+02  0.32359782763E+02  0.18187422449E+01  0.37368956409E+02  0.10500000000E+00 0. -1.
         13    1    6    6    0    0 -0.99088246369E+01  0.17108026218E+02  0.10186548295E+01  0.19796920201E+02  0.10500000000E+00 0.  1.
</event>
<event>
11    0  0.3485800E-009  0.9118800E+02  0.7816531E-02  0.1126479E+00
         25   -1    0    0    0    0  0.00000000000E+00  0.00000000000E+00  0.99999998245E-14  0.12500000000E+03  0.12500000000E+03 0.  0.
    3000001    1    3    3    0    0 -0.34409619960E+02 -0.17181879680E+02  0.76420892581E+00  0.38481462426E+02  0.10000000000E+01 0. -1.
    1000022    2    1    0    0    0 -0.57901359859E+02 -0.21182892584E+02 -0.22286997238E+01  0.62499995903E+02  0.99999986811E+01 0.  0.
    3000022    2    3    3    0    0 -0.23491739899E+02 -0.40010129042E+01 -0.29929086496E+01  0.24018533477E+02  0.25000092669E+00 0.  0.
    1000022    2    1    0    0    0  0.57901359859E+02  0.21182892584E+02  0.22286997238E+01  0.62500004097E+02  0.10000049900E+02 0.  0.
    3000022    2    5    5    0    0  0.54178951360E+02  0.21868757679E+02  0.11447644406E+01  0.58437781595E+02  0.24999845506E+00 0.  0.
        -13    1    4    4    0    0 -0.10340324037E+02 -0.18034525845E+01 -0.12665404671E+01  0.10573073923E+02  0.10500000000E+00 0. -1.
         13    1    4    4    0    0 -0.13151415861E+02 -0.21975603197E+01 -0.17263681826E+01  0.13445459554E+02  0.10500000000E+00 0.  1.
    3000001    1    5    5    0    0  0.37224084984E+01 -0.68586509514E+00  0.10839352832E+01  0.40622225020E+01  0.10000000000E+01 0. -1.
        -13    1    6    6    0    0  0.30731272106E+02  0.12456270503E+02  0.69440290706E+00  0.33167197357E+02  0.10500000000E+00 0. -1.
         13    1    6    6    0    0  0.23447679254E+02  0.94124871761E+01  0.45036153357E+00  0.25270584238E+02  0.10500000000E+00 0.  1.
</event>
<event>
11    0  0.3485800E-009  0.9118800E+02  0.7816531E-02  0.1126479E+00
         25   -1    0    0    0    0  0.00000000000E+00  0.00000000000E+00  0.99999998245E-14  0.12500000000E+03  0.12500000000E+03 0.  0.
    3000001    1    3    3    0    0  0.20319966469E+02  0.39512573168E+02  0.29085264095E+02  0.53114000632E+02  0.10000000000E+01 0. -1.
    1000022    2    1    0    0    0  0.22145343135E+02  0.44041020212E+02  0.37097476536E+02  0.62499995186E+02  0.99999474493E+01 0.  0.
    3000022    2    3    3    0    0  0.18253766662E+01  0.45284470438E+01  0.80122124408E+01  0.93859945535E+01  0.25002591895E+00 0.  0.
    1000022    2    1    0    0    0 -0.22145343135E+02 -0.44041020212E+02 -0.37097476536E+02  0.62500004814E+02  0.10000007626E+02 0.  0.
    3000022    2    5    5    0    0 -0.11445233226E+02 -0.15930925849E+02 -0.19387962668E+02  0.27581576462E+02  0.25000337512E+00 0.  0.
        -13    1    4    4    0    0  0.42145245760E+00  0.10484040810E+01  0.18402220608E+01  0.21619934145E+01  0.10500000000E+00 0. -1.
         13    1    4    4    0    0  0.14039242086E+01  0.34800429628E+01  0.61719903800E+01  0.72240011390E+01  0.10500000000E+00 0.  1.
    3000001    1    5    5    0    0 -0.10700109910E+02 -0.28110094363E+02 -0.17709513868E+02  0.34918428353E+02  0.10000000000E+01 0.  1.
        -13    1    6    6    0    0 -0.54286468983E+01 -0.75132456395E+01 -0.92496065159E+01  0.13095240085E+02  0.10500000000E+00 0.  1.
         13    1    6    6    0    0 -0.60165863274E+01 -0.84176802094E+01 -0.10138356152E+02  0.14486336376E+02  0.10500000000E+00 0. -1.
</event>
<event>
11    0  0.3485800E-009  0.9118800E+02  0.7816531E-02  0.1126479E+00
         25   -1    0    0    0    0  0.00000000000E+00  0.00000000000E+00  0.99999998245E-14  0.12500000000E+03  0.12500000000E+03 0.  0.
    3000001    1    3    3    0    0 -0.95957592729E+01  0.27328772581E+02  0.83958035482E+01  0.30173331338E+02  0.10000000000E+01 0.  1.
    1000022    2    1    0    0    0 -0.23810013207E+02  0.56358086185E+02  0.79435677412E+01  0.62499993411E+02  0.99999150269E+01 0.  0.
    3000022    2    3    3    0    0 -0.14214253934E+02  0.29029313604E+02 -0.45223580704E+00  0.32326662073E+02  0.25000065965E+00 0.  0.
    1000022    2    1    0    0    0  0.23810013207E+02 -0.56358086185E+02 -0.79435677412E+01  0.62500006589E+02  0.99999973873E+01 0.  0.
    3000022    2    5    5    0    0  0.10193074005E+02 -0.20443147776E+02 -0.75999463498E+01  0.24075770620E+02  0.24999546652E+00 0.  0.
        -13    1    4    4    0    0 -0.76401670362E+01  0.15552582184E+02 -0.30586331905E+00  0.17330884060E+02  0.10500000000E+00 0.  1.
         13    1    4    4    0    0 -0.65740868982E+01  0.13476731420E+02 -0.14637248799E+00  0.14995778013E+02  0.10500000000E+00 0. -1.
    3000001    1    5    5    0    0  0.13616939202E+02 -0.35914938409E+02 -0.34362139144E+00  0.38424235969E+02  0.10000000000E+01 0.  1.
        -13    1    6    6    0    0  0.53630915390E+01 -0.10809989879E+02 -0.39482863468E+01  0.12697189536E+02  0.10500000000E+00 0. -1.
         13    1    6    6    0    0  0.48299824659E+01 -0.96331578977E+01 -0.36516600029E+01  0.11378581084E+02  0.10500000000E+00 0.  1.
</event>
<event>
11    0  0.3485800E-009  0.9118800E+02  0.7816531E-02  0.1126479E+00
         25   -1    0    0    0    0  0.00000000000E+00  0.00000000000E+00  0.99999998245E-14  0.12500000000E+03  0.12500000000E+03 0.  0.
    3000001    1    3    3    0    0  0.18560796615E+02  0.56254134775E+00  0.28226684432E+01  0.18809228609E+02  0.10000000000E+01 0. -1.
    1000022    2    1    0    0    0  0.57170440451E+02 -0.21354670011E+01  0.23091785437E+02  0.62499999254E+02  0.99999935739E+01 0.  0.
    3000022    2    3    3    0    0  0.38609643836E+02 -0.26980083488E+01  0.20269116994E+02  0.43690770645E+02  0.24997928447E+00 0.  0.
    1000022    2    1    0    0    0 -0.57170440451E+02  0.21354670011E+01 -0.23091785437E+02  0.62500000746E+02  0.10000002895E+02 0.  0.
    3000022    2    5    5    0    0 -0.44416582255E+02  0.80402024579E+00 -0.13420227648E+02  0.46407372638E+02  0.24999455568E+00 0.  0.
        -13    1    4    4    0    0  0.10611614588E+02 -0.74872131561E+00  0.56132019513E+01  0.12028549743E+02  0.10500000000E+00 0. -1.
         13    1    4    4    0    0  0.27998029248E+02 -0.19492870332E+01  0.14655915043E+02  0.31662220902E+02  0.10500000000E+00 0.  1.
    3000001    1    5    5    0    0 -0.12753858196E+02  0.13314467553E+01 -0.96715577893E+01  0.16092628108E+02  0.10000000000E+01 0. -1.
        -13    1    6    6    0    0 -0.13889104674E+02  0.20624354373E+00 -0.41763525570E+01  0.14505264932E+02  0.10500000000E+00 0. -1.
         13    1    6    6    0    0 -0.30527477580E+02  0.59777670206E+00 -0.92438750909E+01  0.31902107706E+02  0.10500000000E+00 0.  1.
</event>
<event>
11    0  0.3485800E-009  0.9118800E+02  0.7816531E-02  0.1126479E+00
         25   -1    0    0    0    0  0.00000000000E+00  0.00000000000E+00  0.99999998245E-14  0.12500000000E+03  0.12500000000E+03 0.  0.
    3000001    1    3    3    0    0  0.24147492068E+02  0.35170794807E+02  0.33264057349E+02  0.54107150099E+02  0.10000000000E+01 0.  1.
    1000022    2    1    0    0    0  0.30497551666E+02  0.37731573719E+02  0.38111384280E+02  0.62499999955E+02  0.10000003488E+02 0.  0.
    3000022    2    3    3    0    0  0.63500595981E+01  0.25607789116E+01  0.48473269306E+01  0.83928498559E+01  0.25000959622E+00 0.  0.
    1000022    2    1    0    0    0 -0.30497551666E+02 -0.37731573719E+02 -0.38111384280E+02  0.62500000045E+02  0.10000004046E+02 0.  0.
    3000022    2    5    5    0    0 -0.57193247421E+01 -0.14352564503E+02 -0.12153215974E+02  0.19658838725E+02  0.24999637584E+00 0.  0.
        -13    1    4    4    0    0  0.48637561463E+01  0.19485963148E+01  0.36974978492E+01  0.64137092851E+01  0.10500000000E+00 0. -1.
         13    1    4    4    0    0  0.14863034518E+01  0.61218259682E+00  0.11498290814E+01  0.19791405708E+01  0.10500000000E+00 0.  1.
    3000001    1    5    5    0    0 -0.24778226924E+02 -0.23379009215E+02 -0.25958168306E+02  0.42841161319E+02  0.10000000000E+01 0.  1.
        -13    1    6    6    0    0 -0.37032145238E+01 -0.92744563333E+01 -0.79270836764E+01  0.12750647776E+02  0.10500000000E+00 0.  1.
         13    1    6    6    0    0 -0.20161102183E+01 -0.50781081701E+01 -0.42261322975E+01  0.69081909496E+01  0.10500000000E+00 0. -1.
</event>
<event>
11    0  0.3485800E-009  0.9118800E+02  0.7816531E-02  0.1126479E+00
         25   -1    0    0    0    0  0.00000000000E+00  0.00000000000E+00  0.99999998245E-14  0.12500000000E+03  0.12500000000E+03 0.  0.
    3000001    1    3    3    0    0  0.27167239260E+02 -0.20503706062E+02  0.43100998802E+02  0.54928653260E+02  0.10000000000E+01 0.  1.
    1000022    2    1    0    0    0  0.29123100398E+02 -0.20417361167E+02  0.50410578425E+02  0.62500000705E+02  0.10000002863E+02 0.  0.
    3000022    2    3    3    0    0  0.19558611378E+01  0.86344895052E-01  0.73095796232E+01  0.75713474452E+01  0.24999927297E+00 0.  0.
    1000022    2    1    0    0    0 -0.29123100398E+02  0.20417361167E+02 -0.50410578425E+02  0.62499999295E+02  0.99999940482E+01 0.  0.
    3000022    2    5    5    0    0 -0.29524306002E+02  0.20349761476E+02 -0.48711527367E+02  0.60486964235E+02  0.25001385654E+00 0.  0.
        -13    1    4    4    0    0  0.99767129908E+00  0.89489057656E-01  0.35417481822E+01  0.36821680432E+01  0.10500000000E+00 0. -1.
         13    1    4    4    0    0  0.95818983867E+00 -0.31441626031E-02  0.37678314410E+01  0.38891794019E+01  0.10500000000E+00 0.  1.
    3000001    1    5    5    0    0  0.40120560443E+00  0.67599690950E-01 -0.16990510574E+01  0.20130350596E+01  0.10000000000E+01 0.  1.
        -13    1    6    6    0    0 -0.12576765130E+02  0.87335475035E+01 -0.20863691197E+02  0.25879615694E+02  0.10500000000E+00 0. -1.
         13    1    6    6    0    0 -0.16947540872E+02  0.11616213972E+02 -0.27847836170E+02  0.34607348541E+02  0.10500000000E+00 0.  1.
</event>
<event>
11    0  0.3485800E-009  0.9118800E+02  0.7816531E-02  0.1126479E+00
         25   -1    0    0    0    0  0.00000000000E+00  0.00000000000E+00  0.99999998245E-14  0.12500000000E+03  0.12500000000E+03 0.  0.
    3000001    1    3    3    0    0  0.65597743282E+01 -0.46025380445E+01 -0.14550809103E+01  0.82055625123E+01  0.10000000000E+01 0.  1.
    1000022    2    1    0    0    0  0.33509588946E+02 -0.51704980150E+02 -0.31549680527E+01  0.62499988386E+02  0.99998600577E+01 0.  0.
    3000022    2    3    3    0    0  0.26949814617E+02 -0.47102442105E+02 -0.16998871424E+01  0.54294425873E+02  0.25000879646E+00 0.  0.
    1000022    2    1    0    0    0 -0.33509588946E+02  0.51704980150E+02  0.31549680527E+01  0.62500011614E+02  0.10000005239E+02 0.  0.
    3000022    2    5    5    0    0 -0.64584574371E+01  0.18079999288E+02  0.21571080606E+01  0.19321327308E+02  0.25005408033E+00 0.  0.
        -13    1    4    4    0    0  0.95930942979E+01 -0.16868441601E+02 -0.63577670706E+00  0.19416153514E+02  0.10500000000E+00 0.  1.
         13    1    4    4    0    0  0.17356720319E+02 -0.30234000504E+02 -0.10641104354E+01  0.34878272359E+02  0.10500000000E+00 0. -1.
    3000001    1    5    5    0    0 -0.27051131509E+02  0.33624980862E+02  0.99785999211E+00  0.43178684306E+02  0.10000000000E+01 0. -1.
        -13    1    6    6    0    0 -0.45681520663E+01  0.12652343054E+02  0.15105648292E+01  0.13536714120E+02  0.10500000000E+00 0. -1.
         13    1    6    6    0    0 -0.18903053707E+01  0.54276562334E+01  0.64654323140E+00  0.57846131878E+01  0.10500000000E+00 0.  1.
</event>
<event>
11    0  0.3485800E-009  0.9118800E+02  0.7816531E-02  0.1126479E+00
         25   -1    0    0    0    0  0.00000000000E+00  0.00000000000E+00  0.99999998245E-14  0.12500000000E+03  0.12500000000E+03 0.  0.
    3000001    1    3    3    0    0 -0.74693496492E+01  0.11516666387E+01  0.18169316255E+01  0.78370122343E+01  0.10000000000E+01 0.  1.
    1000022    2    1    0    0    0 -0.48116399789E+02  0.28750786435E+02  0.25777012412E+02  0.62499998510E+02  0.99999897817E+01 0.  0.
    3000022    2    3    3    0    0 -0.40647050140E+02  0.27599119796E+02  0.23960080787E+02  0.54662986276E+02  0.24999746791E+00 0.  0.
    1000022    2    1    0    0    0  0.48116399789E+02 -0.28750786435E+02 -0.25777012412E+02  0.62500001490E+02  0.10000008402E+02 0.  0.
    3000022    2    5    5    0    0  0.41191124655E+02 -0.25101366379E+02 -0.25592780482E+02  0.54606229018E+02  0.24998072423E+00 0.  0.
        -13    1    4    4    0    0 -0.10139628873E+02  0.68735313270E+01  0.59471132974E+01  0.13617514022E+02  0.10500000000E+00 0.  1.
         13    1    4    4    0    0 -0.30507421267E+02  0.20725588469E+02  0.18012967489E+02  0.41045472254E+02  0.10500000000E+00 0. -1.
    3000001    1    5    5    0    0  0.69252751339E+01 -0.36494200560E+01 -0.18423192988E+00  0.78937724714E+01  0.10000000000E+01 0. -1.
        -13    1    6    6    0    0  0.21393297852E+02 -0.13082401551E+02 -0.13242015772E+02  0.28358145744E+02  0.10500000000E+00 0.  1.
         13    1    6    6    0    0  0.19797826803E+02 -0.12018964828E+02 -0.12350764710E+02  0.26248083274E+02  0.10500000000E+00 0. -1.
</event>
<event>
11    0  0.3485800E-009  0.9118800E+02  0.7816531E-02  0.1126479E+00
         25   -1    0    0    0    0  0.00000000000E+00  0.00000000000E+00  0.99999998245E-14  0.12500000000E+03  0.12500000000E+03 0.  0.
    3000001    1    3    3    0    0 -0.79585115556E+01  0.94720520162E+01 -0.20563849604E+02  0.24019358570E+02  0.10000000000E+01 0. -1.
    1000022    2    1    0    0    0 -0.29664574965E+02  0.16154345480E+02 -0.51626544731E+02  0.62499999993E+02  0.99999996303E+01 0.  0.
    3000022    2    3    3    0    0 -0.21706063409E+02  0.66822934637E+01 -0.31062695127E+02  0.38480641423E+02  0.25000231649E+00 0.  0.
    1000022    2    1    0    0    0  0.29664574965E+02 -0.16154345480E+02  0.51626544731E+02  0.62500000007E+02  0.99999997176E+01 0.  0.
    3000022    2    5    5    0    0  0.18902260316E+02 -0.50333583037E+01  0.25849028885E+02  0.32417046436E+02  0.24992896773E+00 0.  0.
        -13    1    4    4    0    0 -0.76308850461E+01  0.23527355364E+01 -0.11018271345E+02  0.13608052746E+02  0.10500000000E+00 0.  1.
         13    1    4    4    0    0 -0.14075178363E+02  0.43295579273E+01 -0.20044423782E+02  0.24872588678E+02  0.10500000000E+00 0. -1.
    3000001    1    5    5    0    0  0.10762314648E+02 -0.11120987176E+02  0.25777515846E+02  0.30082953571E+02  0.10000000000E+01 0.  1.
        -13    1    6    6    0    0  0.57972126223E+01 -0.15896871999E+01  0.79727680999E+01  0.99855313207E+01  0.10500000000E+00 0. -1.
         13    1    6    6    0    0  0.13105047694E+02 -0.34436711038E+01  0.17876260785E+02  0.22431515116E+02  0.10500000000E+00 0.  1.
</event>
<event>
11    0  0.3485800E-009  0.9118800E+02  0.7816531E-02  0.1126479E+00
         25   -1    0    0    0    0  0.00000000000E+00  0.00000000000E+00  0.99999998245E-14  0.12500000000E+03  0.12500000000E+03 0.  0.
    3000001    1    3    3    0    0  0.21592062064E+02  0.85083215623E+01  0.69626494536E+01  0.24250508601E+02  0.10000000000E+01 0. -1.
    1000022    2    1    0    0    0  0.51943775784E+02  0.31443311045E+02  0.10927594376E+02  0.62499999543E+02  0.99999985955E+01 0.  0.
    3000022    2    3    3    0    0  0.30351713720E+02  0.22934989482E+02  0.39649449229E+01  0.38249490943E+02  0.25000164889E+00 0.  0.
    1000022    2    1    0    0    0 -0.51943775784E+02 -0.31443311045E+02 -0.10927594376E+02  0.62500000457E+02  0.10000004303E+02 0.  0.
    3000022    2    5    5    0    0 -0.14849603619E+02 -0.65868532264E+01  0.98040786538E+00  0.16276395867E+02  0.24999952475E+00 0.  0.
        -13    1    4    4    0    0  0.98020530356E+01  0.74200678707E+01  0.12307235922E+01  0.12355701375E+02  0.10500000000E+00 0.  1.
         13    1    4    4    0    0  0.20549660684E+02  0.15514921612E+02  0.27342213306E+01  0.25893789567E+02  0.10500000000E+00 0. -1.
    3000001    1    5    5    0    0 -0.37094172165E+02 -0.24856457818E+02 -0.11908002242E+02  0.46223604589E+02  0.10000000000E+01 0. -1.
        -13    1    6    6    0    0 -0.63217878241E+01 -0.27954316221E+01  0.48202778960E+00  0.69298495681E+01  0.10500000000E+00 0. -1.
         13    1    6    6    0    0 -0.85278157954E+01 -0.37914216043E+01  0.49838007578E+00  0.93465462991E+01  0.10500000000E+00 0.  1.
</event>
<event>
11    0  0.3485800E-009  0.9118800E+02  0.7816531E-02  0.1126479E+00
         25   -1    0    0    0    0  0.00000000000E+00  0.00000000000E+00  0.99999998245E-14  0.12500000000E+03  0.12500000000E+03 0.  0.
    3000001    1    3    3    0    0 -0.27144895382E+00 -0.11329709899E+02 -0.25804947838E+02  0.28201619526E+02  0.10000000000E+01 0. -1.
    1000022    2    1    0    0    0  0.10131862076E+02 -0.25372771019E+02 -0.55315621162E+02  0.62499998550E+02  0.99999868011E+01 0.  0.
    3000022    2    3    3    0    0  0.10403311030E+02 -0.14043061120E+02 -0.29510673323E+02  0.34298379025E+02  0.25003548258E+00 0.  0.
    1000022    2    1    0    0    0 -0.10131862076E+02  0.25372771019E+02  0.55315621162E+02  0.62500001450E+02  0.10000004921E+02 0.  0.
    3000022    2    5    5    0    0 -0.49464006953E+00  0.23224144912E+00 -0.32216741455E+00  0.68183427614E+00  0.25000249607E+00 0.  0.
        -13    1    4    4    0    0  0.63936317655E+01 -0.85272947543E+01 -0.17978997916E+02  0.20900925196E+02  0.10500000000E+00 0.  1.
         13    1    4    4    0    0  0.40096792645E+01 -0.55157663653E+01 -0.11531675407E+02  0.13397453829E+02  0.10500000000E+00 0. -1.
    3000001    1    5    5    0    0 -0.96372220067E+01  0.25140529570E+02  0.55637788576E+02  0.61818167173E+02  0.10000000000E+01 0. -1.
        -13    1    6    6    0    0 -0.30237854924E+00  0.10894035878E+00 -0.24934447445E+00  0.42011719288E+00  0.10500000000E+00 0.  1.
         13    1    6    6    0    0 -0.19226152029E+00  0.12330109035E+00 -0.72822940100E-01  0.26171708326E+00  0.10500000000E+00 0. -1.
</event>
<event>
11    0  0.3485800E-009  0.9118800E+02  0.7816531E-02  0.1126479E+00
         25   -1    0    0    0    0  0.00000000000E+00  0.00000000000E+00  0.99999998245E-14  0.12500000000E+03  0.12500000000E+03 0.  0.
    3000001    1    3    3    0    0 -0.53402252787E+02  0.13216843559E+02  0.19255395576E+00  0.55022928252E+02  0.10000000000E+01 0.  1.
    1000022    2    1    0    0    0 -0.60012589489E+02  0.13942521088E+02 -0.32163946284E+01  0.62499998969E+02  0.99999942617E+01 0.  0.
    3000022    2    3    3    0    0 -0.66103367017E+01  0.72567752886E+00 -0.34089485842E+01  0.74770707166E+01  0.24999373173E+00 0.  0.
    1000022    2    1    0    0    0  0.60012589489E+02 -0.13942521088E+02  0.32163946284E+01  0.62500001031E+02  0.10000007153E+02 0.  0.
    3000022    2    5    5    0    0  0.21118478175E+02 -0.89180202214E+01 -0.15685357565E+01  0.22979208242E+02  0.25000387926E+00 0.  0.
        -13    1    4    4    0    0 -0.29298170633E+01  0.33872881833E+00 -0.14400922122E+01  0.32838172629E+01  0.10500000000E+00 0.  1.
         13    1    4    4    0    0 -0.36805196384E+01  0.38694871053E+00 -0.19688563719E+01  0.41932534537E+01  0.10500000000E+00 0. -1.
    3000001    1    5    5    0    0  0.38894111314E+02 -0.50245008666E+01  0.47849303849E+01  0.39520792789E+02  0.10000000000E+01 0.  1.
        -13    1    6    6    0    0  0.14181279529E+02 -0.59320893579E+01 -0.10605966084E+01  0.15408902083E+02  0.10500000000E+00 0.  1.
         13    1    6    6    0    0  0.69371986457E+01 -0.29859308635E+01 -0.50793914810E+00  0.75703061596E+01  0.10500000000E+00 0. -1.
</event>
<event>
11    0  0.3485800E-009  0.9118800E+02  0.7816531E-02  0.1126479E+00
         25   -1    0    0    0    0  0.00000000000E+00  0.00000000000E+00  0.99999998245E-14  0.12500000000E+03  0.12500000000E+03 0.  0.
    3000001    1    3    3    0    0 -0.30629277900E+02 -0.19073642696E+02  0.75513997451E+01  0.36877908678E+02  0.10000000000E+01 0.  1.
    1000022    2    1    0    0    0 -0.49911182947E+02 -0.35830768446E+02  0.55928442114E+01  0.62500000076E+02  0.99999976219E+01 0.  0.
    3000022    2    3    3    0    0 -0.19281905048E+02 -0.16757125750E+02 -0.19585555337E+01  0.25622091397E+02  0.25000428296E+00 0.  0.
    1000022    2    1    0    0    0  0.49911182947E+02  0.35830768446E+02 -0.55928442114E+01  0.62499999924E+02  0.99999966780E+01 0.  0.
    3000022    2    5    5    0    0  0.24100754461E+02  0.11275925363E+02 -0.21967703863E+01  0.26699834354E+02  0.24999202350E+00 0.  0.
        -13    1    4    4    0    0 -0.87771200835E+01 -0.77059576455E+01 -0.92733759348E+00  0.11717107160E+02  0.10500000000E+00 0.  1.
         13    1    4    4    0    0 -0.10504784964E+02 -0.90511681040E+01 -0.10312179402E+01  0.13904984237E+02  0.10500000000E+00 0. -1.
    3000001    1    5    5    0    0  0.25810428487E+02  0.24554843082E+02 -0.33960738251E+01  0.35800165571E+02  0.10000000000E+01 0. -1.
        -13    1    6    6    0    0  0.10168048931E+02  0.47486284168E+01 -0.99120276317E+00  0.11266419077E+02  0.10500000000E+00 0. -1.
         13    1    6    6    0    0  0.13932705529E+02  0.65272969466E+01 -0.12055676231E+01  0.15433415276E+02  0.10500000000E+00 0.  1.
</event>
<event>
11    0  0.3485800E-009  0.9118800E+02  0.7816531E-02  0.1126479E+00
         25   -1    0    0    0    0  0.00000000000E+00  0.00000000000E+00  0.99999998245E-14  0.12500000000E+03  0.12500000000E+03 0.  0.
    3000001    1    3    3    0    0  0.43073420457E+02 -0.21806056200E+02  0.24522170509E+02  0.54158660280E+02  0.10000000000E+01 0. -1.
    1000022    2    1    0    0    0  0.51216091379E+02 -0.23494678995E+02  0.25122937574E+02  0.62500000305E+02  0.10000004429E+02 0.  0.
    3000022    2    3    3    0    0  0.81426709221E+01 -0.16886227954E+01  0.60076706514E+00  0.83413400254E+01  0.24999132440E+00 0.  0.
    1000022    2    1    0    0    0 -0.51216091379E+02  0.23494678995E+02 -0.25122937574E+02  0.62499999695E+02  0.10000000611E+02 0.  0.
    3000022    2    5    5    0    0 -0.30472263697E+01  0.87765629459E+00 -0.42981968326E+01  0.53472298659E+01  0.25000421402E+00 0.  0.
        -13    1    4    4    0    0  0.59099069825E+01 -0.12585180001E+01  0.41754250321E+00  0.60577417278E+01  0.10500000000E+00 0.  1.
         13    1    4    4    0    0  0.22327639396E+01 -0.43010479536E+00  0.18322456193E+00  0.22835982976E+01  0.10500000000E+00 0. -1.
    3000001    1    5    5    0    0 -0.48168865009E+02  0.22617022701E+02 -0.20824740742E+02  0.57152769829E+02  0.10000000000E+01 0. -1.
        -13    1    6    6    0    0 -0.17672517031E+01  0.53463492658E+00 -0.23996934351E+01  0.30296149375E+01  0.10500000000E+00 0. -1.
         13    1    6    6    0    0 -0.12799746666E+01  0.34302136801E+00 -0.18985033975E+01  0.23176149284E+01  0.10500000000E+00 0.  1.
</event>
<event>
11    0  0.3485800E-009  0.9118800E+02  0.7816531E-02  0.1126479E+00
         25   -1    0    0    0    0  0.00000000000E+00  0.00000000000E+00  0.99999998245E-14  0.12500000000E+03  0.12500000000E+03 0.  0.
    3000001    1    3    3    0    0  0.40638838913E+00  0.50729562254E+00  0.26188650131E+00  0.12210998776E+01  0.10000000000E+01 0. -1.
    1000022    2    1    0    0    0  0.61640467952E+02  0.24675255307E+00  0.25771907188E+01  0.62499999326E+02  0.99999913811E+01 0.  0.
    3000022    2    3    3    0    0  0.61234079563E+02 -0.26054306946E+00  0.23153042175E+01  0.61278899448E+02  0.25000284553E+00 0.  0.
    1000022    2    1    0    0    0 -0.61640467952E+02 -0.24675255307E+00 -0.25771907188E+01  0.62500000674E+02  0.99999998058E+01 0.  0.
    3000022    2    5    5    0    0 -0.17958016015E+02 -0.45840457745E+01 -0.10286629494E+01  0.18564062561E+02  0.24991281524E+00 0.  0.
        -13    1    4    4    0    0  0.39421069626E+02 -0.15272656525E+00  0.14349641969E+01  0.39447613402E+02  0.10500000000E+00 0. -1.
         13    1    4    4    0    0  0.21813009937E+02 -0.10781650421E+00  0.88034002057E+00  0.21831286047E+02  0.10500000000E+00 0.  1.
    3000001    1    5    5    0    0 -0.43682451936E+02  0.43372932214E+01 -0.15485277695E+01  0.43935938113E+02  0.10000000000E+01 0.  1.
        -13    1    6    6    0    0 -0.94128957712E+01 -0.24043690079E+01 -0.60676160716E+00  0.97346177004E+01  0.10500000000E+00 0. -1.
         13    1    6    6    0    0 -0.85451202442E+01 -0.21796767666E+01 -0.42190134219E+00  0.88294448601E+01  0.10500000000E+00 0.  1.
</event>
<event>
11    0  0.3485800E-009  0.9118800E+02  0.7816531E-02  0.1126479E+00
         25   -1    0    0    0    0  0.00000000000E+00  0.00000000000E+00  0.99999998245E-14  0.12500000000E+03  0.12500000000E+03 0.  0.
    3000001    1    3    3    0    0 -0.26888957553E+02 -0.22005665998E+02 -0.13345463166E+02  0.37233946358E+02  0.10000000000E+01 0.  1.
    1000022    2    1    0    0    0 -0.39134602274E+02 -0.42434665934E+02 -0.21772275565E+02  0.62500001105E+02  0.10000009340E+02 0.  0.
    3000022    2    3    3    0    0 -0.12245644721E+02 -0.20428999936E+02 -0.84268123992E+01  0.25266054747E+02  0.25000447831E+00 0.  0.
    1000022    2    1    0    0    0  0.39134602274E+02  0.42434665934E+02  0.21772275565E+02  0.62499998895E+02  0.99999955209E+01 0.  0.
    3000022    2    5    5    0    0  0.11534466698E+02  0.18022709844E+02  0.48572440079E+01  0.21943502787E+02  0.25000611744E+00 0.  0.
        -13    1    4    4    0    0 -0.91110260578E+01 -0.15250388172E+02 -0.62975459491E+01  0.18848215969E+02  0.10500000000E+00 0. -1.
         13    1    4    4    0    0 -0.31346186633E+01 -0.51786117639E+01 -0.21292664501E+01  0.64178387781E+01  0.10500000000E+00 0.  1.
    3000001    1    5    5    0    0  0.27600135576E+02  0.24411956090E+02  0.16915031557E+02  0.40556496107E+02  0.10000000000E+01 0. -1.
        -13    1    6    6    0    0  0.65409673656E+01  0.10242583263E+02  0.26924545769E+01  0.12448096346E+02  0.10500000000E+00 0.  1.
         13    1    6    6    0    0  0.49934993328E+01  0.77801265810E+01  0.21647894310E+01  0.94954064412E+01  0.10500000000E+00 0. -1.
</event>
<event>
11    0  0.3485800E-009  0.9118800E+02  0.7816531E-02  0.1126479E+00
         25   -1    0    0    0    0  0.00000000000E+00  0.00000000000E+00  0.99999998245E-14  0.12500000000E+03  0.12500000000E+03 0.  0.
    3000001    1    3    3    0    0  0.66376583800E+01 -0.69066421909E+01  0.34583015631E+02  0.35899097276E+02  0.10000000000E+01 0.  1.
    1000022    2    1    0    0    0  0.53201146466E+01 -0.17682271778E+02  0.58866661421E+02  0.62500000800E+02  0.99999959006E+01 0.  0.
    3000022    2    3    3    0    0 -0.13175437334E+01 -0.10775629587E+02  0.24283645790E+02  0.26600903523E+02  0.25000183023E+00 0.  0.
    1000022    2    1    0    0    0 -0.53201146466E+01  0.17682271778E+02 -0.58866661421E+02  0.62499999200E+02  0.99999859041E+01 0.  0.
    3000022    2    5    5    0    0  0.14483022312E+00  0.14266122234E+02 -0.44264332652E+02  0.46507385104E+02  0.25000948056E+00 0.  0.
        -13    1    4    4    0    0 -0.35833453854E+00 -0.29200149335E+01  0.66728530931E+01  0.72933452034E+01  0.10500000000E+00 0.  1.
         13    1    4    4    0    0 -0.95920919485E+00 -0.78556146532E+01  0.17610792697E+02  0.19307558320E+02  0.10500000000E+00 0. -1.
    3000001    1    5    5    0    0 -0.54649448697E+01  0.34161495438E+01 -0.14602328770E+02  0.15992614096E+02  0.10000000000E+01 0. -1.
        -13    1    6    6    0    0  0.11046559469E+00  0.10582503262E+02 -0.32731897332E+02  0.34400431769E+02  0.10500000000E+00 0. -1.
         13    1    6    6    0    0  0.34364628429E-01  0.36836189717E+01 -0.11532435320E+02  0.12106953335E+02  0.10500000000E+00 0.  1.
</event>
<event>
11    0  0.3485800E-009  0.9118800E+02  0.7816531E-02  0.1126479E+00
         25   -1    0    0    0    0  0.00000000000E+00  0.00000000000E+00  0.99999998245E-14  0.12500000000E+03  0.12500000000E+03 0.  0.
    3000001    1    3    3    0    0 -0.99431513887E+01  0.20701610463E+01 -0.21457962531E+02  0.23761228551E+02  0.10000000000E+01 0.  1.
    1000022    2    1    0    0    0 -0.24312703616E+02 -0.70111458938E+01 -0.56267096675E+02  0.62500000919E+02  0.10000011139E+02 0.  0.
    3000022    2    3    3    0    0 -0.14369552228E+02 -0.90813069401E+01 -0.34809134144E+02  0.38738772368E+02  0.24999546647E+00 0.  0.
    1000022    2    1    0    0    0  0.24312703616E+02  0.70111458938E+01  0.56267096675E+02  0.62499999081E+02  0.99999996517E+01 0.  0.
    3000022    2    5    5    0    0  0.12821019059E+01  0.20095986784E+00  0.87304009630E-02  0.13216448644E+01  0.24999752419E+00 0.  0.
        -13    1    4    4    0    0 -0.33669374481E+01 -0.21178444705E+01 -0.81236703844E+01  0.90458044692E+01  0.10500000000E+00 0. -1.
         13    1    4    4    0    0 -0.11002614780E+02 -0.69634624696E+01 -0.26685463760E+02  0.29692967899E+02  0.10500000000E+00 0.  1.
    3000001    1    5    5    0    0  0.23030601711E+02  0.68101860260E+01  0.56258366274E+02  0.61178354217E+02  0.10000000000E+01 0.  1.
        -13    1    6    6    0    0  0.88665574102E+00  0.16430326921E+00 -0.35129998499E-01  0.90852247311E+00  0.10500000000E+00 0. -1.
         13    1    6    6    0    0  0.39544616485E+00  0.36656598630E-01  0.43860399462E-01  0.41312239126E+00  0.10500000000E+00 0.  1.
</event>
<event>
11    0  0.3485800E-009  0.9118800E+02  0.7816531E-02  0.1126479E+00
         25   -1    0    0    0    0  0.00000000000E+00  0.00000000000E+00  0.99999998245E-14  0.12500000000E+03  0.12500000000E+03 0.  0.
    3000001    1    3    3    0    0 -0.24911273410E+02  0.12072505580E+02  0.37499776751E+02  0.46621349083E+02  0.10000000000E+01 0.  1.
    1000022    2    1    0    0    0 -0.30093902450E+02  0.20897373639E+02  0.49637766948E+02  0.62499990251E+02  0.99998842063E+01 0.  0.
    3000022    2    3    3    0    0 -0.51826290402E+01  0.88248680590E+01  0.12137990196E+02  0.15878641168E+02  0.24999864521E+00 0.  0.
    1000022    2    1    0    0    0  0.30093902450E+02 -0.20897373639E+02 -0.49637766948E+02  0.62500009749E+02  0.10000006069E+02 0.  0.
    3000022    2    5    5    0    0  0.26102512507E+02 -0.20916047940E+02 -0.46701959892E+02  0.57445258966E+02  0.24999870051E+00 0.  0.
        -13    1    4    4    0    0 -0.35076896839E+01  0.60156983167E+01  0.81867503822E+01  0.10748321728E+02  0.10500000000E+00 0. -1.
         13    1    4    4    0    0 -0.16749393564E+01  0.28091697423E+01  0.39512398142E+01  0.51303194402E+01  0.10500000000E+00 0.  1.
    3000001    1    5    5    0    0  0.39913899430E+01  0.18674300844E-01 -0.29358070561E+01  0.50547507829E+01  0.10000000000E+01 0. -1.
        -13    1    6    6    0    0  0.12541070787E+02 -0.99634854689E+01 -0.22346496818E+02  0.27494116538E+02  0.10500000000E+00 0. -1.
         13    1    6    6    0    0  0.13561441719E+02 -0.10952562471E+02 -0.24355463074E+02  0.29951142428E+02  0.10500000000E+00 0.  1.
</event>
<event>
11    0  0.3485800E-009  0.9118800E+02  0.7816531E-02  0.1126479E+00
         25   -1    0    0    0    0  0.00000000000E+00  0.00000000000E+00  0.99999998245E-14  0.12500000000E+03  0.12500000000E+03 0.  0.
    3000001    1    3    3    0    0 -0.23210663500E+02 -0.37670547533E+01  0.66467674919E+01  0.24456187759E+02  0.10000000000E+01 0. -1.
    1000022    2    1    0    0    0 -0.57203819240E+02  0.84556808533E+00  0.23092379296E+02  0.62499998930E+02  0.99999981833E+01 0.  0.
    3000022    2    3    3    0    0 -0.33993155740E+02  0.46126228387E+01  0.16445611805E+02  0.38043811171E+02  0.24998832735E+00 0.  0.
    1000022    2    1    0    0    0  0.57203819240E+02 -0.84556808533E+00 -0.23092379296E+02  0.62500001070E+02  0.10000011555E+02 0.  0.
    3000022    2    5    5    0    0  0.15350528822E+02 -0.37657168796E+01 -0.35270341493E+01  0.16196351985E+02  0.24997802196E+00 0.  0.
        -13    1    4    4    0    0 -0.17271183856E+02  0.23378915717E+01  0.82803757238E+01  0.19295988596E+02  0.10500000000E+00 0. -1.
         13    1    4    4    0    0 -0.16721971884E+02  0.22747312669E+01  0.81652360807E+01  0.18747822575E+02  0.10500000000E+00 0.  1.
    3000001    1    5    5    0    0  0.41853290418E+02  0.29201487943E+01 -0.19565345147E+02  0.46303649084E+02  0.10000000000E+01 0. -1.
        -13    1    6    6    0    0  0.73095478687E+01 -0.18621058078E+01 -0.16922732249E+01  0.77312186460E+01  0.10500000000E+00 0.  1.
         13    1    6    6    0    0  0.80409809532E+01 -0.19036110718E+01 -0.18347609244E+01  0.84651333393E+01  0.10500000000E+00 0. -1.
</event>
<event>
11    0  0.3485800E-009  0.9118800E+02  0.7816531E-02  0.1126479E+00
         25   -1    0    0    0    0  0.00000000000E+00  0.00000000000E+00  0.99999998245E-14  0.12500000000E+03  0.12500000000E+03 0.  0.
    3000001    1    3    3    0    0  0.27820769024E+02 -0.61177262018E+01 -0.49774429604E+00  0.28507358916E+02  0.10000000000E+01 0. -1.
    1000022    2    1    0    0    0  0.59902851147E+02 -0.96679021287E+01 -0.11154830415E+02  0.62500000666E+02  0.99999967328E+01 0.  0.
    3000022    2    3    3    0    0  0.32082082123E+02 -0.35501759269E+01 -0.10657086118E+02  0.33992641751E+02  0.24993242065E+00 0.  0.
    1000022    2    1    0    0    0 -0.59902851147E+02  0.96679021287E+01  0.11154830415E+02  0.62499999334E+02  0.99999884032E+01 0.  0.
    3000022    2    5    5    0    0 -0.31325825439E+02  0.57109431217E+01  0.10819551623E+02  0.33631048283E+02  0.25000106835E+00 0.  0.
        -13    1    4    4    0    0  0.11439414288E+02 -0.12142545959E+01 -0.38254589479E+01  0.12123521544E+02  0.10500000000E+00 0.  1.
         13    1    4    4    0    0  0.20642667835E+02 -0.23359213310E+01 -0.68316271706E+01  0.21869120207E+02  0.10500000000E+00 0. -1.
    3000001    1    5    5    0    0 -0.28577025708E+02  0.39569590070E+01  0.33527879129E+00  0.28868951050E+02  0.10000000000E+01 0.  1.
        -13    1    6    6    0    0 -0.80162017450E+01  0.14529213665E+01  0.27983055697E+01  0.86146392829E+01  0.10500000000E+00 0. -1.
         13    1    6    6    0    0 -0.23309623694E+02  0.42580217552E+01  0.80212460535E+01  0.25016409001E+02  0.10500000000E+00 0.  1.
</event>
<event>
11    0  0.3485800E-009  0.9118800E+02  0.7816531E-02  0.1126479E+00
         25   -1    0    0    0    0  0.00000000000E+00  0.00000000000E+00  0.99999998245E-14  0.12500000000E+03  0.12500000000E+03 0.  0.
    3000001    1    3    3    0    0  0.63843113824E+01  0.36471799080E+01 -0.42813353027E+02  0.43451634612E+02  0.10000000000E+01 0. -1.
    1000022    2    1    0    0    0  0.26363448564E+01  0.57092810672E+01 -0.61373477915E+02  0.62500000681E+02  0.10000004465E+02 0.  0.
    3000022    2    3    3    0    0 -0.37479665260E+01  0.20621011592E+01 -0.18560124888E+02  0.19048366069E+02  0.24999952117E+00 0.  0.
    1000022    2    1    0    0    0 -0.26363448564E+01 -0.57092810672E+01  0.61373477915E+02  0.62499999319E+02  0.99999959487E+01 0.  0.
    3000022    2    5    5    0    0 -0.65499604198E+00 -0.68675691799E+01  0.22245163882E+02  0.23291679621E+02  0.24999433766E+00 0.  0.
        -13    1    4    4    0    0 -0.23411333013E+01  0.13544454055E+01 -0.11673002037E+02  0.11982713760E+02  0.10500000000E+00 0.  1.
         13    1    4    4    0    0 -0.14068332247E+01  0.70765575369E+00 -0.68871228514E+01  0.70656523094E+01  0.10500000000E+00 0. -1.
    3000001    1    5    5    0    0 -0.19813488144E+01  0.11582881128E+01  0.39128314033E+02  0.39208319698E+02  0.10000000000E+01 0.  1.
        -13    1    6    6    0    0 -0.46106811240E+00 -0.44710275197E+01  0.14638592497E+02  0.15313460947E+02  0.10500000000E+00 0.  1.
         13    1    6    6    0    0 -0.19392792958E+00 -0.23965416602E+01  0.76065713844E+01  0.79782186732E+01  0.10500000000E+00 0. -1.
</event>
<event>
11    0  0.3485800E-009  0.9118800E+02  0.7816531E-02  0.1126479E+00
         25   -1    0    0    0    0  0.00000000000E+00  0.00000000000E+00  0.99999998245E-14  0.12500000000E+03  0.12500000000E+03 0.  0.
    3000001    1    3    3    0    0 -0.23611162140E+02  0.17022265571E+02  0.33974311361E+02  0.44749283069E+02  0.10000000000E+01 0.  1.
    1000022    2    1    0    0    0 -0.29549783094E+02  0.28759135763E+02  0.45890866431E+02  0.62500004938E+02  0.10000071236E+02 0.  0.
    3000022    2    3    3    0    0 -0.59386209541E+01  0.11736870192E+02  0.11916555070E+02  0.17750721869E+02  0.25000275859E+00 0.  0.
    1000022    2    1    0    0    0  0.29549783094E+02 -0.28759135763E+02 -0.45890866431E+02  0.62499995062E+02  0.10000009513E+02 0.  0.
    3000022    2    5    5    0    0  0.43059057336E+01 -0.92826623267E+01 -0.14470248449E+02  0.17724537543E+02  0.24999374319E+00 0.  0.
        -13    1    4    4    0    0 -0.34904705848E+01  0.68991134095E+01  0.69176283836E+01  0.10375247380E+02  0.10500000000E+00 0.  1.
         13    1    4    4    0    0 -0.24481503693E+01  0.48377567827E+01  0.49989266864E+01  0.73754744888E+01  0.10500000000E+00 0. -1.
    3000001    1    5    5    0    0  0.25243877360E+02 -0.19476473436E+02 -0.31420617982E+02  0.44775457519E+02  0.10000000000E+01 0. -1.
        -13    1    6    6    0    0  0.20720903054E+01 -0.45068971595E+01 -0.69010939402E+01  0.84995177988E+01  0.10500000000E+00 0.  1.
         13    1    6    6    0    0  0.22338154282E+01 -0.47757651672E+01 -0.75691545087E+01  0.92250197440E+01  0.10500000000E+00 0. -1.
</event>
<event>
11    0  0.3485800E-009  0.9118800E+02  0.7816531E-02  0.1126479E+00
         25   -1    0    0    0    0  0.00000000000E+00  0.00000000000E+00  0.99999998245E-14  0.12500000000E+03  0.12500000000E+03 0.  0.
    3000001    1    3    3    0    0 -0.49668928120E+01 -0.59598648040E+01 -0.31027639567E+02  0.31998506680E+02  0.10000000000E+01 0. -1.
    1000022    2    1    0    0    0 -0.17591016945E+02 -0.15866463269E+02 -0.56965439326E+02  0.62500001057E+02  0.10000016038E+02 0.  0.
    3000022    2    3    3    0    0 -0.12624124133E+02 -0.99065984647E+01 -0.25937799759E+02  0.30501494377E+02  0.24999924244E+00 0.  0.
    1000022    2    1    0    0    0  0.17591016945E+02  0.15866463269E+02  0.56965439326E+02  0.62499998943E+02  0.10000002824E+02 0.  0.
    3000022    2    5    5    0    0  0.55216314328E+00  0.98163163407E+00 -0.46614462098E-01  0.11546239846E+01  0.24999767207E+00 0.  0.
        -13    1    4    4    0    0 -0.68843293137E+01 -0.54870698772E+01 -0.14221974913E+02  0.16726551389E+02  0.10500000000E+00 0. -1.
         13    1    4    4    0    0 -0.57397948192E+01 -0.44195285876E+01 -0.11715824846E+02  0.13774942988E+02  0.10500000000E+00 0.  1.
    3000001    1    5    5    0    0  0.17038853802E+02  0.14884831635E+02  0.57012053788E+02  0.61345374958E+02  0.10000000000E+01 0. -1.
        -13    1    6    6    0    0  0.40653361970E+00  0.63557723880E+00  0.20314140099E-02  0.76174611063E+00  0.10500000000E+00 0.  1.
         13    1    6    6    0    0  0.14562952358E+00  0.34605439528E+00 -0.48645876108E-01  0.39287787402E+00  0.10500000000E+00 0. -1.
</event>
<event>
11    0  0.3485800E-009  0.9118800E+02  0.7816531E-02  0.1126479E+00
         25   -1    0    0    0    0  0.00000000000E+00  0.00000000000E+00  0.99999998245E-14  0.12500000000E+03  0.12500000000E+03 0.  0.
    3000001    1    3    3    0    0  0.30721147504E+01 -0.25113272608E+02 -0.10350735151E+02  0.27354196539E+02  0.10000000000E+01 0. -1.
    1000022    2    1    0    0    0  0.52134225585E+01 -0.51759840121E+02 -0.33166085169E+02  0.62499999351E+02  0.99999944657E+01 0.  0.
    3000022    2    3    3    0    0  0.21413078081E+01 -0.26646567513E+02 -0.22815350018E+02  0.35145802812E+02  0.24999901824E+00 0.  0.
    1000022    2    1    0    0    0 -0.52134225585E+01  0.51759840121E+02  0.33166085169E+02  0.62500000649E+02  0.10000002573E+02 0.  0.
    3000022    2    5    5    0    0 -0.24070520150E+00 -0.27578097648E+00  0.10542076886E+01  0.11436117696E+01  0.24999977545E+00 0.  0.
        -13    1    4    4    0    0  0.91423962686E+00 -0.10845070418E+02 -0.93511929131E+01  0.14349467599E+02  0.10500000000E+00 0.  1.
         13    1    4    4    0    0  0.12270681812E+01 -0.15801497095E+02 -0.13464157105E+02  0.20796335213E+02  0.10500000000E+00 0. -1.
    3000001    1    5    5    0    0 -0.49727173570E+01  0.52035621098E+02  0.32111877481E+02  0.61356388879E+02  0.10000000000E+01 0.  1.
        -13    1    6    6    0    0 -0.45237988355E-01 -0.14609575808E+00  0.47525434735E+00  0.51017853816E+00  0.10500000000E+00 0. -1.
         13    1    6    6    0    0 -0.19546721314E+00 -0.12968521840E+00  0.57895334127E+00  0.63343323141E+00  0.10500000000E+00 0.  1.
</event>
<event>
11    0  0.3485800E-009  0.9118800E+02  0.7816531E-02  0.1126479E+00
         25   -1    0    0    0    0  0.00000000000E+00  0.00000000000E+00  0.99999998245E-14  0.12500000000E+03  0.12500000000E+03 0.  0.
    3000001    1    3    3    0    0  0.12922242945E+02 -0.17338736544E+02  0.98994466121E+01  0.23803680197E+02  0.10000000000E+01 0.  1.
    1000022    2    1    0    0    0  0.43231757776E+02 -0.38644557824E+02  0.21068061615E+02  0.62500000247E+02  0.10000004045E+02 0.  0.
    3000022    2    3    3    0    0  0.30309514830E+02 -0.21305821280E+02  0.11168615003E+02  0.38696320050E+02  0.25002938465E+00 0.  0.
    1000022    2    1    0    0    0 -0.43231757776E+02  0.38644557824E+02 -0.21068061615E+02  0.62499999753E+02  0.10000000955E+02 0.  0.
    3000022    2    5    5    0    0 -0.38930703807E+02  0.35153172995E+02 -0.21838235822E+02  0.56818274524E+02  0.25001110973E+00 0.  0.
        -13    1    4    4    0    0  0.15144234407E+02 -0.10661200570E+02  0.55135624656E+01  0.19324063481E+02  0.10500000000E+00 0. -1.
         13    1    4    4    0    0  0.15165280423E+02 -0.10644620710E+02  0.56550525370E+01  0.19372256569E+02  0.10500000000E+00 0.  1.
    3000001    1    5    5    0    0 -0.43010539684E+01  0.34913848292E+01  0.77017420694E+00  0.56817252287E+01  0.10000000000E+01 0.  1.
        -13    1    6    6    0    0 -0.14218225425E+02  0.12781777233E+02 -0.80042796629E+01  0.20727066396E+02  0.10500000000E+00 0.  1.
         13    1    6    6    0    0 -0.24712478382E+02  0.22371395762E+02 -0.13833956159E+02  0.36091208128E+02  0.10500000000E+00 0. -1.
</event>
<event>
11    0  0.3485800E-009  0.9118800E+02  0.7816531E-02  0.1126479E+00
         25   -1    0    0    0    0  0.00000000000E+00  0.00000000000E+00  0.99999998245E-14  0.12500000000E+03  0.12500000000E+03 0.  0.
    3000001    1    3    3    0    0  0.25190034712E+02  0.27297187884E+02  0.13582368655E+02  0.39562040562E+02  0.10000000000E+01 0.  1.
    1000022    2    1    0    0    0  0.33270995848E+02  0.46624668921E+02  0.22922289476E+02  0.62500002011E+02  0.99999989919E+01 0.  0.
    3000022    2    3    3    0    0  0.80809611363E+01  0.19327481037E+02  0.93399208214E+01  0.22937961449E+02  0.24999673418E+00 0.  0.
    1000022    2    1    0    0    0 -0.33270995848E+02 -0.46624668921E+02 -0.22922289476E+02  0.62499997989E+02  0.99999738522E+01 0.  0.
    3000022    2    5    5    0    0 -0.22097893267E+02 -0.22713306999E+02 -0.11310146446E+02  0.33648077498E+02  0.25001003448E+00 0.  0.
        -13    1    4    4    0    0  0.43480113490E+01  0.10569904681E+02  0.51083617122E+01  0.12519363883E+02  0.10500000000E+00 0. -1.
         13    1    4    4    0    0  0.37329497873E+01  0.87575763564E+01  0.42315591092E+01  0.10418597566E+02  0.10500000000E+00 0.  1.
    3000001    1    5    5    0    0 -0.11173102582E+02 -0.23911361922E+02 -0.11612143031E+02  0.28851920491E+02  0.10000000000E+01 0.  1.
        -13    1    6    6    0    0 -0.89866558990E+01 -0.92060315941E+01 -0.46552828748E+01  0.13681874345E+02  0.10500000000E+00 0.  1.
         13    1    6    6    0    0 -0.13111237368E+02 -0.13507275405E+02 -0.66548635711E+01  0.19966203152E+02  0.10500000000E+00 0. -1.
</event>
<event>
11    0  0.3485800E-009  0.9118800E+02  0.7816531E-02  0.1126479E+00
         25   -1    0    0    0    0  0.00000000000E+00  0.00000000000E+00  0.99999998245E-14  0.12500000000E+03  0.12500000000E+03 0.  0.
    3000001    1    3    3    0    0  0.11549529311E+02 -0.49039505882E+02  0.29050801650E+02  0.58165400720E+02  0.10000000000E+01 0. -1.
    1000022    2    1    0    0    0  0.99276161868E+01 -0.51869163379E+02  0.31894862355E+02  0.62499999695E+02  0.10000002220E+02 0.  0.
    3000022    2    3    3    0    0 -0.16219131241E+01 -0.28296574976E+01  0.28440607048E+01  0.43345989746E+01  0.25000648593E+00 0.  0.
    1000022    2    1    0    0    0 -0.99276161868E+01  0.51869163379E+02 -0.31894862355E+02  0.62500000305E+02  0.10000006033E+02 0.  0.
    3000022    2    5    5    0    0 -0.20356679364E+01  0.25821295665E+02 -0.10859494939E+02  0.28086907709E+02  0.25000117468E+00 0.  0.
        -13    1    4    4    0    0 -0.80482304998E+00 -0.12720231935E+01  0.12936665794E+01  0.19875566319E+01  0.10500000000E+00 0.  1.
         13    1    4    4    0    0 -0.81709007407E+00 -0.15576343041E+01  0.15503941254E+01  0.23470423427E+01  0.10500000000E+00 0. -1.
    3000001    1    5    5    0    0 -0.78919482504E+01  0.26047867715E+02 -0.21035367417E+02  0.34413092596E+02  0.10000000000E+01 0.  1.
        -13    1    6    6    0    0 -0.15103102181E+01  0.19370246920E+02 -0.81675929654E+01  0.21076244982E+02  0.10500000000E+00 0.  1.
         13    1    6    6    0    0 -0.52535771834E+00  0.64510487445E+01 -0.26919019732E+01  0.70106627268E+01  0.10500000000E+00 0. -1.
</event>
<event>
11    0  0.3485800E-009  0.9118800E+02  0.7816531E-02  0.1126479E+00
         25   -1    0    0    0    0  0.00000000000E+00  0.00000000000E+00  0.99999998245E-14  0.12500000000E+03  0.12500000000E+03 0.  0.
    3000001    1    3    3    0    0 -0.13523372184E+02 -0.23916172540E+01  0.15536320995E+02  0.20760026454E+02  0.10000000000E+01 0.  1.
    1000022    2    1    0    0    0 -0.32515400011E+02  0.26151297372E+01  0.52365634509E+02  0.62500000940E+02  0.10000014924E+02 0.  0.
    3000022    2    3    3    0    0 -0.18992027827E+02  0.50067469912E+01  0.36829313515E+02  0.41739974486E+02  0.24999941665E+00 0.  0.
    1000022    2    1    0    0    0  0.32515400011E+02 -0.26151297372E+01 -0.52365634509E+02  0.62499999060E+02  0.10000003180E+02 0.  0.
    3000022    2    5    5    0    0  0.28547998360E+02 -0.36440297224E+01 -0.38903502351E+02  0.48392273756E+02  0.25000212542E+00 0.  0.
        -13    1    4    4    0    0 -0.88284738515E+01  0.22753231177E+01  0.17000824006E+02  0.19291399320E+02  0.10500000000E+00 0. -1.
         13    1    4    4    0    0 -0.10163553976E+02  0.27314238734E+01  0.19828489508E+02  0.22448575166E+02  0.10500000000E+00 0.  1.
    3000001    1    5    5    0    0  0.39674016507E+01  0.10288999852E+01 -0.13462132158E+02  0.14107725305E+02  0.10000000000E+01 0.  1.
        -13    1    6    6    0    0  0.15516486453E+02 -0.19801063808E+01 -0.21032161623E+02  0.26211543653E+02  0.10500000000E+00 0. -1.
         13    1    6    6    0    0  0.13031511907E+02 -0.16639233416E+01 -0.17871340728E+02  0.22180730103E+02  0.10500000000E+00 0.  1.
</event>
<event>
11    0  0.3485800E-009  0.9118800E+02  0.7816531E-02  0.1126479E+00
         25   -1    0    0    0    0  0.00000000000E+00  0.00000000000E+00  0.99999998245E-14  0.12500000000E+03  0.12500000000E+03 0.  0.
    3000001    1    3    3    0    0  0.33042343110E+01  0.36380609125E+02 -0.27384791746E+02  0.45666108918E+02  0.10000000000E+01 0. -1.
    1000022    2    1    0    0    0  0.66001117913E+00  0.51891446280E+02 -0.33363036243E+02  0.62500000029E+02  0.10000000220E+02 0.  0.
    3000022    2    3    3    0    0 -0.26442231318E+01  0.15510837155E+02 -0.59782444973E+01  0.16833891111E+02  0.24999489506E+00 0.  0.
    1000022    2    1    0    0    0 -0.66001117913E+00 -0.51891446280E+02  0.33363036243E+02  0.62499999971E+02  0.99999998612E+01 0.  0.
    3000022    2    5    5    0    0 -0.91380787395E+00 -0.11660233055E+02  0.29740071213E+01  0.12070762209E+02  0.25000442863E+00 0.  0.
        -13    1    4    4    0    0 -0.11663806238E+01  0.64841933739E+01 -0.25287738030E+01  0.70576858400E+01  0.10500000000E+00 0.  1.
         13    1    4    4    0    0 -0.14778425080E+01  0.90266437811E+01 -0.34494706943E+01  0.97762052710E+01  0.10500000000E+00 0. -1.
    3000001    1    5    5    0    0  0.25379669482E+00 -0.40231213225E+02  0.30389029122E+02  0.50429237763E+02  0.10000000000E+01 0. -1.
        -13    1    6    6    0    0 -0.57213445481E+00 -0.65809913845E+01  0.17149734356E+01  0.68256094469E+01  0.10500000000E+00 0.  1.
         13    1    6    6    0    0 -0.34167341914E+00 -0.50792416704E+01  0.12590336858E+01  0.52451527617E+01  0.10500000000E+00 0. -1.
</event>
<event>
11    0  0.3485800E-009  0.9118800E+02  0.7816531E-02  0.1126479E+00
         25   -1    0    0    0    0  0.00000000000E+00  0.00000000000E+00  0.99999998245E-14  0.12500000000E+03  0.12500000000E+03 0.  0.
    3000001    1    3    3    0    0  0.95425678421E+01 -0.27002505188E+02  0.12464778731E+02  0.31250065540E+02  0.10000000000E+01 0.  1.
    1000022    2    1    0    0    0  0.18831803403E+02 -0.48505112311E+02  0.33149165776E+02  0.62499999607E+02  0.10000000973E+02 0.  0.
    3000022    2    3    3    0    0  0.92892355606E+01 -0.21502607123E+02  0.20684387045E+02  0.31249934066E+02  0.25000266880E+00 0.  0.
    1000022    2    1    0    0    0 -0.18831803403E+02  0.48505112311E+02 -0.33149165776E+02  0.62500000393E+02  0.10000005891E+02 0.  0.
    3000022    2    5    5    0    0 -0.97906550912E+01  0.22662362136E+02 -0.21468643613E+02  0.32717040544E+02  0.24999730923E+00 0.  0.
        -13    1    4    4    0    0  0.24743693899E+01 -0.57328583476E+01  0.55605086839E+01  0.83617253325E+01  0.10500000000E+00 0. -1.
         13    1    4    4    0    0  0.68148661706E+01 -0.15769748775E+02  0.15123878361E+02  0.22888208734E+02  0.10500000000E+00 0.  1.
    3000001    1    5    5    0    0 -0.90411483115E+01  0.25842750175E+02 -0.11680522163E+02  0.29782959850E+02  0.10000000000E+01 0. -1.
        -13    1    6    6    0    0 -0.67774726033E+01  0.15713141105E+02 -0.14819581204E+02  0.22637754976E+02  0.10500000000E+00 0. -1.
         13    1    6    6    0    0 -0.30131824879E+01  0.69492210308E+01 -0.66490624095E+01  0.10079285568E+02  0.10500000000E+00 0.  1.
</event>
<event>
11    0  0.3485800E-009  0.9118800E+02  0.7816531E-02  0.1126479E+00
         25   -1    0    0    0    0  0.00000000000E+00  0.00000000000E+00  0.99999998245E-14  0.12500000000E+03  0.12500000000E+03 0.  0.
    3000001    1    3    3    0    0 -0.50925790662E+01 -0.47891816678E+02 -0.13757287929E+02  0.50098138064E+02  0.10000000000E+01 0. -1.
    1000022    2    1    0    0    0 -0.10264158961E+02 -0.59152069192E+02 -0.14210191390E+02  0.62499998707E+02  0.10000002509E+02 0.  0.
    3000022    2    3    3    0    0 -0.51715798946E+01 -0.11260252514E+02 -0.45290346070E+00  0.12401860644E+02  0.25000118130E+00 0.  0.
    1000022    2    1    0    0    0  0.10264158961E+02  0.59152069192E+02  0.14210191390E+02  0.62500001293E+02  0.10000018665E+02 0.  0.
    3000022    2    5    5    0    0  0.85621570833E+01  0.50602618666E+02  0.15544139541E+02  0.53624792429E+02  0.25007852967E+00 0.  0.
        -13    1    4    4    0    0 -0.16043861287E+01 -0.35269587605E+01 -0.18870971673E+00  0.38807382423E+01  0.10500000000E+00 0.  1.
         13    1    4    4    0    0 -0.35671937659E+01 -0.77332937537E+01 -0.26419374397E+00  0.85211224013E+01  0.10500000000E+00 0. -1.
    3000001    1    5    5    0    0  0.17020018775E+01  0.85494505269E+01 -0.13339481505E+01  0.88752088635E+01  0.10000000000E+01 0. -1.
        -13    1    6    6    0    0  0.38571916361E+01  0.22678517203E+02  0.70339777175E+01  0.24055788023E+02  0.10500000000E+00 0.  1.
         13    1    6    6    0    0  0.47049654472E+01  0.27924101462E+02  0.85101618231E+01  0.29569004407E+02  0.10500000000E+00 0. -1.
</event>
<event>
11    0  0.3485800E-009  0.9118800E+02  0.7816531E-02  0.1126479E+00
         25   -1    0    0    0    0  0.00000000000E+00  0.00000000000E+00  0.99999998245E-14  0.12500000000E+03  0.12500000000E+03 0.  0.
    3000001    1    3    3    0    0  0.13642561402E+02 -0.42019648600E+01 -0.50274454705E+02  0.52271376356E+02  0.10000000000E+01 0.  1.
    1000022    2    1    0    0    0  0.19575715995E+02 -0.71313478133E+01 -0.58070519327E+02  0.62499999289E+02  0.99999958954E+01 0.  0.
    3000022    2    3    3    0    0  0.59331545931E+01 -0.29293829534E+01 -0.77960646215E+01  0.10228622933E+02  0.24999120438E+00 0.  0.
    1000022    2    1    0    0    0 -0.19575715995E+02  0.71313478133E+01  0.58070519327E+02  0.62500000711E+02  0.10000004783E+02 0.  0.
    3000022    2    5    5    0    0 -0.16819087454E+02  0.93389090279E+01  0.45396545247E+02  0.49305231050E+02  0.25012785832E+00 0.  0.
        -13    1    4    4    0    0  0.34763921134E+01 -0.17796319227E+01 -0.46456525680E+01  0.60700498094E+01  0.10500000000E+00 0.  1.
         13    1    4    4    0    0  0.24567624797E+01 -0.11497510307E+01 -0.31504120535E+01  0.41585731232E+01  0.10500000000E+00 0. -1.
    3000001    1    5    5    0    0 -0.27566285414E+01 -0.22075612145E+01  0.12673974079E+02  0.13194769661E+02  0.10000000000E+01 0. -1.
        -13    1    6    6    0    0 -0.60094894969E+01  0.32947138268E+01  0.16286857979E+02  0.17670367032E+02  0.10500000000E+00 0. -1.
         13    1    6    6    0    0 -0.10809597957E+02  0.60441952010E+01  0.29109687268E+02  0.31634864019E+02  0.10500000000E+00 0.  1.
</event>
<event>
11    0  0.3485800E-009  0.9118800E+02  0.7816531E-02  0.1126479E+00
         25   -1    0    0    0    0  0.00000000000E+00  0.00000000000E+00  0.99999998245E-14  0.12500000000E+03  0.12500000000E+03 0.  0.
    3000001    1    3    3    0    0  0.44670761394E+02  0.17200687879E+01  0.25390598375E+02  0.51420988380E+02  0.10000000000E+01 0. -1.
    1000022    2    1    0    0    0  0.54707828444E+02  0.56394420901E+01  0.27955324748E+02  0.62500001029E+02  0.10000007337E+02 0.  0.
    3000022    2    3    3    0    0  0.10037067050E+02  0.39193733022E+01  0.25647263725E+01  0.11079012649E+02  0.24999571745E+00 0.  0.
    1000022    2    1    0    0    0 -0.54707828444E+02 -0.56394420901E+01 -0.27955324748E+02  0.62499998971E+02  0.99999944717E+01 0.  0.
    3000022    2    5    5    0    0 -0.20256466595E+02  0.10534190777E+01 -0.14342836167E+02  0.24843783424E+02  0.24998976492E+00 0.  0.
        -13    1    4    4    0    0  0.32907088949E+01  0.12881232371E+01  0.89519662553E+00  0.36469752540E+01  0.10500000000E+00 0. -1.
         13    1    4    4    0    0  0.67463581555E+01  0.26312500651E+01  0.16695297469E+01  0.74320373952E+01  0.10500000000E+00 0.  1.
    3000001    1    5    5    0    0 -0.34451361850E+02 -0.66928611678E+01 -0.13612488581E+02  0.37656215546E+02  0.10000000000E+01 0. -1.
        -13    1    6    6    0    0 -0.10864657692E+02  0.54361198920E+00 -0.77700229290E+01  0.13368641744E+02  0.10500000000E+00 0.  1.
         13    1    6    6    0    0 -0.93918089021E+01  0.50980708851E+00 -0.65728132380E+01  0.11475141680E+02  0.10500000000E+00 0. -1.
</event>
<event>
11    0  0.3485800E-009  0.9118800E+02  0.7816531E-02  0.1126479E+00
         25   -1    0    0    0    0  0.00000000000E+00  0.00000000000E+00  0.99999998245E-14  0.12500000000E+03  0.12500000000E+03 0.  0.
    3000001    1    3    3    0    0  0.57346989794E+00 -0.18956220968E+02 -0.20395867415E+02  0.27868595026E+02  0.10000000000E+01 0.  1.
    1000022    2    1    0    0    0  0.59250866247E+01 -0.48463138507E+02 -0.37715615835E+02  0.62499999387E+02  0.99999900016E+01 0.  0.
    3000022    2    3    3    0    0  0.53516167268E+01 -0.29506917539E+02 -0.17319748420E+02  0.34631404361E+02  0.24999681232E+00 0.  0.
    1000022    2    1    0    0    0 -0.59250866247E+01  0.48463138507E+02  0.37715615835E+02  0.62500000613E+02  0.99999976684E+01 0.  0.
    3000022    2    5    5    0    0  0.22556458772E+01  0.20556460284E+02  0.17161900981E+02  0.26874696853E+02  0.24997584677E+00 0.  0.
        -13    1    4    4    0    0  0.33969542692E+01 -0.18557592307E+02 -0.10954915491E+02  0.21816157521E+02  0.10500000000E+00 0. -1.
         13    1    4    4    0    0  0.19546624576E+01 -0.10949325232E+02 -0.63648329290E+01  0.12815246840E+02  0.10500000000E+00 0.  1.
    3000001    1    5    5    0    0 -0.81807325019E+01  0.27906678223E+02  0.20553714855E+02  0.35625303760E+02  0.10000000000E+01 0.  1.
        -13    1    6    6    0    0  0.15772827652E+01  0.14512488100E+02  0.12060193919E+02  0.18935665664E+02  0.10500000000E+00 0. -1.
         13    1    6    6    0    0  0.67836311201E+00  0.60439721843E+01  0.51017070614E+01  0.79390311888E+01  0.10500000000E+00 0.  1.
</event>
<event>
11    0  0.3485800E-009  0.9118800E+02  0.7816531E-02  0.1126479E+00
         25   -1    0    0    0    0  0.00000000000E+00  0.00000000000E+00  0.99999998245E-14  0.12500000000E+03  0.12500000000E+03 0.  0.
    3000001    1    3    3    0    0  0.11827837152E+02  0.83562884382E+01 -0.73719643298E+01  0.16281005689E+02  0.10000000000E+01 0.  1.
    1000022    2    1    0    0    0  0.48651372373E+02  0.35805061612E+02 -0.12541591702E+02  0.62500000123E+02  0.10000001103E+02 0.  0.
    3000022    2    3    3    0    0  0.36823535221E+02  0.27448773174E+02 -0.51696273718E+01  0.46218994434E+02  0.25000873006E+00 0.  0.
    1000022    2    1    0    0    0 -0.48651372373E+02 -0.35805061612E+02  0.12541591702E+02  0.62499999877E+02  0.99999995714E+01 0.  0.
    3000022    2    5    5    0    0 -0.13968331283E+02 -0.58272939284E+01  0.75758754211E+00  0.15156123308E+02  0.25000299115E+00 0.  0.
        -13    1    4    4    0    0  0.17690393390E+02  0.13269150191E+02 -0.25035337204E+01  0.22255315571E+02  0.10500000000E+00 0.  1.
         13    1    4    4    0    0  0.19133141831E+02  0.14179622983E+02 -0.26660936515E+01  0.23963678862E+02  0.10500000000E+00 0. -1.
    3000001    1    5    5    0    0 -0.34683041091E+02 -0.29977767684E+02  0.11784004159E+02  0.47343876569E+02  0.10000000000E+01 0. -1.
        -13    1    6    6    0    0 -0.99962627567E+01 -0.42078522141E+01  0.56439324185E+00  0.10860978505E+02  0.10500000000E+00 0. -1.
         13    1    6    6    0    0 -0.39720685259E+01 -0.16194417143E+01  0.19319430026E+00  0.42951448029E+01  0.10500000000E+00 0.  1.
</event>
<event>
11    0  0.3485800E-009  0.9118800E+02  0.7816531E-02  0.1126479E+00
         25   -1    0    0    0    0  0.00000000000E+00  0.00000000000E+00  0.99999998245E-14  0.12500000000E+03  0.12500000000E+03 0.  0.
    3000001    1    3    3    0    0  0.13964269956E+02 -0.46894447741E+01  0.16281051647E+01  0.14854038310E+02  0.10000000000E+01 0.  1.
    1000022    2    1    0    0    0  0.57086901255E+02 -0.20879646411E+02 -0.10553485692E+02  0.62499999536E+02  0.99999976330E+01 0.  0.
    3000022    2    3    3    0    0  0.43122631299E+02 -0.16190201637E+02 -0.12181590857E+02  0.47645961226E+02  0.25001235691E+00 0.  0.
    1000022    2    1    0    0    0 -0.57086901255E+02  0.20879646411E+02  0.10553485692E+02  0.62500000464E+02  0.10000003429E+02 0.  0.
    3000022    2    5    5    0    0 -0.17916917651E+02  0.90726728848E+01  0.75861797868E+01  0.21469558793E+02  0.24999922469E+00 0.  0.
        -13    1    4    4    0    0  0.32329303938E+02 -0.12112212552E+02 -0.91420321404E+01  0.35713825932E+02  0.10500000000E+00 0.  1.
         13    1    4    4    0    0  0.10793327360E+02 -0.40779890847E+01 -0.30395587164E+01  0.11932135294E+02  0.10500000000E+00 0. -1.
    3000001    1    5    5    0    0 -0.39169983604E+02  0.11806973526E+02  0.29673059053E+01  0.41030441671E+02  0.10000000000E+01 0. -1.
        -13    1    6    6    0    0 -0.10449215970E+02  0.53067809211E+01  0.44942071320E+01  0.12552169568E+02  0.10500000000E+00 0.  1.
         13    1    6    6    0    0 -0.74677016813E+01  0.37658919637E+01  0.30919726548E+01  0.89173892245E+01  0.10500000000E+00 0. -1.
</event>
<event>
11    0  0.3485800E-009  0.9118800E+02  0.7816531E-02  0.1126479E+00
         25   -1    0    0    0    0  0.00000000000E+00  0.00000000000E+00  0.99999998245E-14  0.12500000000E+03  0.12500000000E+03 0.  0.
    3000001    1    3    3    0    0 -0.12034271619E+02  0.18444180283E+01  0.20919576495E+02  0.24225074860E+02  0.10000000000E+01 0.  1.
    1000022    2    1    0    0    0 -0.20253373244E+02  0.43123014619E+00  0.58274050583E+02  0.62500000987E+02  0.10000003242E+02 0.  0.
    3000022    2    3    3    0    0 -0.82191016249E+01 -0.14131878822E+01  0.37354474088E+02  0.38274926127E+02  0.25000820806E+00 0.  0.
    1000022    2    1    0    0    0  0.20253373244E+02 -0.43123014619E+00 -0.58274050583E+02  0.62499999013E+02  0.99999909051E+01 0.  0.
    3000022    2    5    5    0    0  0.15667477124E+02  0.39484102778E+01 -0.40742764230E+02  0.43830299105E+02  0.24999878244E+00 0.  0.
        -13    1    4    4    0    0 -0.32618156779E+01 -0.59704907256E+00  0.14618196397E+02  0.14989949967E+02  0.10500000000E+00 0.  1.
         13    1    4    4    0    0 -0.49572859471E+01 -0.81613880960E+00  0.22736277691E+02  0.23284976160E+02  0.10500000000E+00 0. -1.
    3000001    1    5    5    0    0  0.45858961199E+01 -0.43796404240E+01 -0.17531286353E+02  0.18669699908E+02  0.10000000000E+01 0. -1.
        -13    1    6    6    0    0  0.11863475010E+02  0.30097380404E+01 -0.30835982619E+02  0.33176338126E+02  0.10500000000E+00 0.  1.
         13    1    6    6    0    0  0.38040021136E+01  0.93867223746E+00 -0.99067816108E+01  0.10653960979E+02  0.10500000000E+00 0. -1.
</event>
<event>
11    0  0.3485800E-009  0.9118800E+02  0.7816531E-02  0.1126479E+00
         25   -1    0    0    0    0  0.00000000000E+00  0.00000000000E+00  0.99999998245E-14  0.12500000000E+03  0.12500000000E+03 0.  0.
    3000001    1    3    3    0    0 -0.16124472907E+02 -0.11913133804E+01 -0.55130077889E+02  0.57460798307E+02  0.10000000000E+01 0.  1.
    1000022    2    1    0    0    0 -0.19962821850E+02 -0.86714453115E+00 -0.58369374066E+02  0.62499999366E+02  0.99999948007E+01 0.  0.
    3000022    2    3    3    0    0 -0.38383489437E+01  0.32416884927E+00 -0.32392961779E+01  0.50392010592E+01  0.24999906182E+00 0.  0.
    1000022    2    1    0    0    0  0.19962821850E+02  0.86714453115E+00  0.58369374066E+02  0.62500000634E+02  0.10000002722E+02 0.  0.
    3000022    2    5    5    0    0  0.11073527670E+02  0.48515922832E+01  0.38397114557E+02  0.40256203188E+02  0.25005205628E+00 0.  0.
        -13    1    4    4    0    0 -0.12068736638E+01  0.10635459869E+00 -0.10858254450E+01  0.16303058725E+01  0.10500000000E+00 0. -1.
         13    1    4    4    0    0 -0.26314752799E+01  0.21781425059E+00 -0.21534707329E+01  0.34088951867E+01  0.10500000000E+00 0.  1.
    3000001    1    5    5    0    0  0.88892941805E+01 -0.39844477520E+01  0.19972259509E+02  0.22243797446E+02  0.10000000000E+01 0. -1.
        -13    1    6    6    0    0  0.59564677365E+01  0.25561940269E+01  0.20431643799E+02  0.21435408303E+02  0.10500000000E+00 0. -1.
         13    1    6    6    0    0  0.51170599335E+01  0.22953982563E+01  0.17965470758E+02  0.18820794885E+02  0.10500000000E+00 0.  1.
</event>
<event>
11    0  0.3485800E-009  0.9118800E+02  0.7816531E-02  0.1126479E+00
         25   -1    0    0    0    0  0.00000000000E+00  0.00000000000E+00  0.99999998245E-14  0.12500000000E+03  0.12500000000E+03 0.  0.
    3000001    1    3    3    0    0  0.50579378853E+01 -0.10028997201E+01  0.27465373312E+01  0.59272262326E+01  0.10000000000E+01 0. -1.
    1000022    2    1    0    0    0  0.60931137499E+02 -0.96461955191E+01  0.77290397488E+00  0.62499999958E+02  0.10000000466E+02 0.  0.
    3000022    2    3    3    0    0  0.55873199614E+02 -0.86432957990E+01 -0.19736333563E+01  0.56572773726E+02  0.25000213259E+00 0.  0.
    1000022    2    1    0    0    0 -0.60931137499E+02  0.96461955191E+01 -0.77290397488E+00  0.62500000042E+02  0.10000000987E+02 0.  0.
    3000022    2    5    5    0    0 -0.49413625778E+02  0.47829254543E+01  0.18784198381E+01  0.49680718083E+02  0.24999952821E+00 0.  0.
        -13    1    4    4    0    0  0.30675637726E+02 -0.47067075399E+01 -0.10286338196E+01  0.31051843074E+02  0.10500000000E+00 0. -1.
         13    1    4    4    0    0  0.25197561888E+02 -0.39365882590E+01 -0.94499953670E+00  0.25520930652E+02  0.10500000000E+00 0.  1.
    3000001    1    5    5    0    0 -0.11517511721E+02  0.48632700648E+01 -0.26513238130E+01  0.12819281959E+02  0.10000000000E+01 0. -1.
        -13    1    6    6    0    0 -0.12965728127E+02  0.12732079872E+01  0.52025623924E+00  0.13038897806E+02  0.10500000000E+00 0. -1.
         13    1    6    6    0    0 -0.36447897651E+02  0.35097174672E+01  0.13581635988E+01  0.36641820277E+02  0.10500000000E+00 0.  1.
</event>
<event>
11    0  0.3485800E-009  0.9118800E+02  0.7816531E-02  0.1126479E+00
         25   -1    0    0    0    0  0.00000000000E+00  0.00000000000E+00  0.99999998245E-14  0.12500000000E+03  0.12500000000E+03 0.  0.
    3000001    1    3    3    0    0 -0.16378844882E+02  0.17257054051E+02  0.67826336815E+01  0.24760383556E+02  0.10000000000E+01 0.  1.
    1000022    2    1    0    0    0 -0.49066397223E+02  0.34992459980E+02  0.13201000414E+02  0.62499999807E+02  0.99999986022E+01 0.  0.
    3000022    2    3    3    0    0 -0.32687552341E+02  0.17735405929E+02  0.64183667323E+01  0.37739616250E+02  0.25000346703E+00 0.  0.
    1000022    2    1    0    0    0  0.49066397223E+02 -0.34992459980E+02 -0.13201000414E+02  0.62500000193E+02  0.10000001016E+02 0.  0.
    3000022    2    5    5    0    0  0.27657696737E+02 -0.19009123231E+02 -0.12315737680E+02  0.35749613275E+02  0.24999989033E+00 0.  0.
        -13    1    4    4    0    0 -0.14982940523E+02  0.81226734968E+01  0.30091885051E+01  0.17307009328E+02  0.10500000000E+00 0.  1.
         13    1    4    4    0    0 -0.17704611818E+02  0.96127324318E+01  0.34091782273E+01  0.20432606922E+02  0.10500000000E+00 0. -1.
    3000001    1    5    5    0    0  0.21408700486E+02 -0.15983336749E+02 -0.88526273381E+00  0.26750386918E+02  0.10000000000E+01 0.  1.
        -13    1    6    6    0    0  0.16337474343E+02 -0.11223948129E+02 -0.73418469672E+01  0.21137734538E+02  0.10500000000E+00 0. -1.
         13    1    6    6    0    0  0.11320222394E+02 -0.77851751016E+01 -0.49738907128E+01  0.14611878737E+02  0.10500000000E+00 0.  1.
</event>
<event>
11    0  0.3485800E-009  0.9118800E+02  0.7816531E-02  0.1126479E+00
         25   -1    0    0    0    0  0.00000000000E+00  0.00000000000E+00  0.99999998245E-14  0.12500000000E+03  0.12500000000E+03 0.  0.
    3000001    1    3    3    0    0 -0.25895255503E+02  0.39602268882E+02 -0.26172627853E+02  0.54082440837E+02  0.10000000000E+01 0. -1.
    1000022    2    1    0    0    0 -0.28059829895E+02  0.43852159711E+02 -0.33104139725E+02  0.62500000465E+02  0.10000001304E+02 0.  0.
    3000022    2    3    3    0    0 -0.21645743923E+01  0.42498908290E+01 -0.69315118722E+01  0.84175596277E+01  0.24999778589E+00 0.  0.
    1000022    2    1    0    0    0  0.28059829895E+02 -0.43852159711E+02  0.33104139725E+02  0.62499999535E+02  0.99999954935E+01 0.  0.
    3000022    2    5    5    0    0  0.27535403312E+02 -0.42095659410E+02  0.29443646458E+02  0.58285794094E+02  0.24999924016E+00 0.  0.
        -13    1    4    4    0    0 -0.14725184242E+01  0.27861430162E+01 -0.46236975071E+01  0.55964727332E+01  0.10500000000E+00 0. -1.
         13    1    4    4    0    0 -0.69205596817E+00  0.14637478127E+01 -0.23078143651E+01  0.28210868945E+01  0.10500000000E+00 0.  1.
    3000001    1    5    5    0    0  0.52442658336E+00 -0.17565003010E+01  0.36604932666E+01  0.42142054415E+01  0.10000000000E+01 0. -1.
        -13    1    6    6    0    0  0.66416929691E+01 -0.10143079042E+02  0.71193784616E+01  0.14060252936E+02  0.10500000000E+00 0.  1.
         13    1    6    6    0    0  0.20893710343E+02 -0.31952580368E+02  0.22324267997E+02  0.44225541157E+02  0.10500000000E+00 0. -1.
</event>
<event>
11    0  0.3485800E-009  0.9118800E+02  0.7816531E-02  0.1126479E+00
         25   -1    0    0    0    0  0.00000000000E+00  0.00000000000E+00  0.99999998245E-14  0.12500000000E+03  0.12500000000E+03 0.  0.
    3000001    1    3    3    0    0  0.15338498746E+02 -0.24464704529E+02 -0.17363174814E+01  0.28944880547E+02  0.10000000000E+01 0.  1.
    1000022    2    1    0    0    0  0.40648978848E+02 -0.45919292501E+02 -0.67326949885E+01  0.62499999927E+02  0.99999951966E+01 0.  0.
    3000022    2    3    3    0    0  0.25310480101E+02 -0.21454587972E+02 -0.49963775071E+01  0.33555119380E+02  0.25000082650E+00 0.  0.
    1000022    2    1    0    0    0 -0.40648978848E+02  0.45919292501E+02  0.67326949885E+01  0.62500000073E+02  0.99999961040E+01 0.  0.
    3000022    2    5    5    0    0 -0.12087450903E+02  0.74090956638E+01  0.14392745113E+01  0.14252549991E+02  0.25000449515E+00 0.  0.
        -13    1    4    4    0    0  0.95514379298E+01 -0.81707404911E+01 -0.19144800565E+01  0.12714842728E+02  0.10500000000E+00 0.  1.
         13    1    4    4    0    0  0.15759042172E+02 -0.13283847481E+02 -0.30818974506E+01  0.20840276653E+02  0.10500000000E+00 0. -1.
    3000001    1    5    5    0    0 -0.28561527945E+02  0.38510196838E+02  0.52934204773E+01  0.48247450081E+02  0.10000000000E+01 0. -1.
        -13    1    6    6    0    0 -0.28302079591E+01  0.17455132282E+01  0.34841583309E+00  0.33450429166E+01  0.10500000000E+00 0.  1.
         13    1    6    6    0    0 -0.92572429437E+01  0.56635824357E+01  0.10908586782E+01  0.10907507074E+02  0.10500000000E+00 0. -1.
</event>
<event>
11    0  0.3485800E-009  0.9118800E+02  0.7816531E-02  0.1126479E+00
         25   -1    0    0    0    0  0.00000000000E+00  0.00000000000E+00  0.99999998245E-14  0.12500000000E+03  0.12500000000E+03 0.  0.
    3000001    1    3    3    0    0 -0.28953401676E+02  0.18383159171E+02 -0.34321981117E+02  0.48530798443E+02  0.10000000000E+01 0. -1.
    1000022    2    1    0    0    0 -0.40745865384E+02  0.20726449868E+02 -0.41429925024E+02  0.62499999466E+02  0.99999987885E+01 0.  0.
    3000022    2    3    3    0    0 -0.11792463708E+02  0.23432906964E+01 -0.71079439062E+01  0.13969201022E+02  0.24999808973E+00 0.  0.
    1000022    2    1    0    0    0  0.40745865384E+02 -0.20726449868E+02  0.41429925024E+02  0.62500000534E+02  0.10000005468E+02 0.  0.
    3000022    2    5    5    0    0  0.77759287652E+01 -0.45446313455E+01  0.34241004430E+01  0.96387607328E+01  0.25000478748E+00 0.  0.
        -13    1    4    4    0    0 -0.76353795325E+01  0.14640034040E+01 -0.46224347169E+01  0.90454548965E+01  0.10500000000E+00 0. -1.
         13    1    4    4    0    0 -0.41570841750E+01  0.87928729244E+00 -0.24855091894E+01  0.49237461258E+01  0.10500000000E+00 0.  1.
    3000001    1    5    5    0    0  0.32969936618E+02 -0.16181818522E+02  0.38005824581E+02  0.52861239802E+02  0.10000000000E+01 0.  1.
        -13    1    6    6    0    0  0.31502850920E+01 -0.18944898980E+01  0.14449854323E+01  0.39512524639E+01  0.10500000000E+00 0.  1.
         13    1    6    6    0    0  0.46256436732E+01 -0.26501414475E+01  0.19791150108E+01  0.56875082689E+01  0.10500000000E+00 0. -1.
</event>
<event>
11    0  0.3485800E-009  0.9118800E+02  0.7816531E-02  0.1126479E+00
         25   -1    0    0    0    0  0.00000000000E+00  0.00000000000E+00  0.99999998245E-14  0.12500000000E+03  0.12500000000E+03 0.  0.
    3000001    1    3    3    0    0 -0.36927396293E+02 -0.44962382583E+02  0.11590201044E+02  0.59334485797E+02  0.10000000000E+01 0.  1.
    1000022    2    1    0    0    0 -0.37717114715E+02 -0.46752766324E+02  0.14065854296E+02  0.62500001437E+02  0.10000001060E+02 0.  0.
    3000022    2    3    3    0    0 -0.78971842235E+00 -0.17903837409E+01  0.24756532518E+01  0.31655156405E+01  0.25000224229E+00 0.  0.
    1000022    2    1    0    0    0  0.37717114715E+02  0.46752766324E+02 -0.14065854296E+02  0.62499998563E+02  0.99999830959E+01 0.  0.
    3000022    2    5    5    0    0  0.48411185984E+01  0.58567559918E+01  0.15197493296E+01  0.77530733330E+01  0.24997610312E+00 0.  0.
        -13    1    4    4    0    0 -0.28979003947E+00 -0.56562491206E+00  0.86844170869E+00  0.10812612124E+01  0.10500000000E+00 0.  1.
         13    1    4    4    0    0 -0.49992838288E+00 -0.12247588288E+01  0.16072115431E+01  0.20842544281E+01  0.10500000000E+00 0. -1.
    3000001    1    5    5    0    0  0.32875996117E+02  0.40896010332E+02 -0.15585603625E+02  0.54746925230E+02  0.10000000000E+01 0.  1.
        -13    1    6    6    0    0  0.13394116387E+01  0.16757782170E+01  0.40912189132E+00  0.21864724769E+01  0.10500000000E+00 0.  1.
         13    1    6    6    0    0  0.35017069597E+01  0.41809777747E+01  0.11106274383E+01  0.55666008561E+01  0.10500000000E+00 0. -1.
</event>
<event>
11    0  0.3485800E-009  0.9118800E+02  0.7816531E-02  0.1126479E+00
         25   -1    0    0    0    0  0.00000000000E+00  0.00000000000E+00  0.99999998245E-14  0.12500000000E+03  0.12500000000E+03 0.  0.
    3000001    1    3    3    0    0 -0.55059390675E+02  0.64338636384E+01  0.75726817478E+01  0.55957810998E+02  0.10000000000E+01 0.  1.
    1000022    2    1    0    0    0 -0.60835704440E+02  0.40107013540E+01  0.94435762008E+01  0.62500001717E+02  0.10000021157E+02 0.  0.
    3000022    2    3    3    0    0 -0.57763137646E+01 -0.24231622844E+01  0.18708944530E+01  0.65421907190E+01  0.24999437126E+00 0.  0.
    1000022    2    1    0    0    0  0.60835704440E+02 -0.40107013540E+01 -0.94435762008E+01  0.62499998283E+02  0.99999996917E+01 0.  0.
    3000022    2    5    5    0    0  0.43671520552E+02 -0.34787713360E+01 -0.22902505471E+01  0.43870392114E+02  0.24999873262E+00 0.  0.
        -13    1    4    4    0    0 -0.25560153334E+01 -0.10026728248E+01  0.83633979238E+00  0.28721170635E+01  0.10500000000E+00 0. -1.
         13    1    4    4    0    0 -0.32202984312E+01 -0.14204894596E+01  0.10345546606E+01  0.36700736555E+01  0.10500000000E+00 0.  1.
    3000001    1    5    5    0    0  0.17164183888E+02 -0.53193001803E+00 -0.71533256537E+01  0.18629606168E+02  0.10000000000E+01 0.  1.
        -13    1    6    6    0    0  0.33668071860E+02 -0.26830272996E+01 -0.17623428252E+01  0.33820919200E+02  0.10500000000E+00 0.  1.
         13    1    6    6    0    0  0.10003448692E+02 -0.79574403639E+00 -0.52790772188E+00  0.10049472915E+02  0.10500000000E+00 0. -1.
</event>
<event>
11    0  0.3485800E-009  0.9118800E+02  0.7816531E-02  0.1126479E+00
         25   -1    0    0    0    0  0.00000000000E+00  0.00000000000E+00  0.99999998245E-14  0.12500000000E+03  0.12500000000E+03 0.  0.
    3000001    1    3    3    0    0  0.38510081555E+01  0.86939725911E+01 -0.58428565468E-01  0.95613198423E+01  0.10000000000E+01 0.  1.
    1000022    2    1    0    0    0  0.43472662225E+02  0.43692196274E+02  0.27146720993E+01  0.62499998715E+02  0.10000000932E+02 0.  0.
    3000022    2    3    3    0    0  0.39621654070E+02  0.34998223683E+02  0.27731006647E+01  0.52938678873E+02  0.25000275615E+00 0.  0.
    1000022    2    1    0    0    0 -0.43472662225E+02 -0.43692196274E+02 -0.27146720993E+01  0.62500001285E+02  0.10000016989E+02 0.  0.
    3000022    2    5    5    0    0 -0.35678939545E+02 -0.31897344729E+02  0.92341957083E+00  0.47867969738E+02  0.24999059474E+00 0.  0.
        -13    1    4    4    0    0  0.13491266869E+02  0.11921252182E+02  0.99926400720E+00  0.18031641326E+02  0.10500000000E+00 0. -1.
         13    1    4    4    0    0  0.26130387200E+02  0.23076971500E+02  0.17738366575E+01  0.34907037548E+02  0.10500000000E+00 0.  1.
    3000001    1    5    5    0    0 -0.77937226798E+01 -0.11794851545E+02 -0.36380916701E+01  0.14632031546E+02  0.10000000000E+01 0.  1.
        -13    1    6    6    0    0 -0.11029245190E+02 -0.98242494906E+01  0.32486653497E+00  0.14774190021E+02  0.10500000000E+00 0.  1.
         13    1    6    6    0    0 -0.24649694355E+02 -0.22073095238E+02  0.59855303585E+00  0.33093779717E+02  0.10500000000E+00 0. -1.
</event>
<event>
11    0  0.3485800E-009  0.9118800E+02  0.7816531E-02  0.1126479E+00
         25   -1    0    0    0    0  0.00000000000E+00  0.00000000000E+00  0.99999998245E-14  0.12500000000E+03  0.12500000000E+03 0.  0.
    3000001    1    3    3    0    0  0.20973280360E+01 -0.37142464986E+01 -0.25664966488E+02  0.26036223167E+02  0.10000000000E+01 0.  1.
    1000022    2    1    0    0    0 -0.81574202841E-01 -0.19008769982E+02 -0.58693354950E+02  0.62499999817E+02  0.10000003563E+02 0.  0.
    3000022    2    3    3    0    0 -0.21789022388E+01 -0.15294523483E+02 -0.33028388462E+02  0.36463776651E+02  0.24999934593E+00 0.  0.
    1000022    2    1    0    0    0  0.81574202841E-01  0.19008769982E+02  0.58693354950E+02  0.62500000183E+02  0.10000005846E+02 0.  0.
    3000022    2    5    5    0    0 -0.41787035442E+01  0.11614288652E+02  0.41206918900E+02  0.43016577322E+02  0.24999013429E+00 0.  0.
        -13    1    4    4    0    0 -0.11967264927E+01 -0.79714135700E+01 -0.17161165187E+02  0.18960279644E+02  0.10500000000E+00 0.  1.
         13    1    4    4    0    0 -0.98217574612E+00 -0.73231099133E+01 -0.15867223275E+02  0.17503497006E+02  0.10500000000E+00 0. -1.
    3000001    1    5    5    0    0  0.42602777470E+01  0.73944813295E+01  0.17486436050E+02  0.19483422860E+02  0.10000000000E+01 0.  1.
        -13    1    6    6    0    0 -0.30616686914E+01  0.84890550934E+01  0.30001814725E+02  0.31329822587E+02  0.10500000000E+00 0.  1.
         13    1    6    6    0    0 -0.11170348528E+01  0.31252335591E+01  0.11205104175E+02  0.11686754735E+02  0.10500000000E+00 0. -1.
</event>
<event>
11    0  0.3485800E-009  0.9118800E+02  0.7816531E-02  0.1126479E+00
         25   -1    0    0    0    0  0.00000000000E+00  0.00000000000E+00  0.99999998245E-14  0.12500000000E+03  0.12500000000E+03 0.  0.
    3000001    1    3    3    0    0  0.40155374339E+01  0.17479658283E+02 -0.27463598120E+02  0.32816340690E+02  0.10000000000E+01 0.  1.
    1000022    2    1    0    0    0  0.60512895532E+01  0.40345131184E+02 -0.46280690252E+02  0.62499999314E+02  0.99999954254E+01 0.  0.
    3000022    2    3    3    0    0  0.20357521193E+01  0.22865472901E+02 -0.18817092132E+02  0.29683658624E+02  0.24999064923E+00 0.  0.
    1000022    2    1    0    0    0 -0.60512895532E+01 -0.40345131184E+02  0.46280690252E+02  0.62500000686E+02  0.10000004003E+02 0.  0.
    3000022    2    5    5    0    0 -0.71603637407E+01 -0.29281658942E+02  0.38474192746E+02  0.48877524153E+02  0.25000108333E+00 0.  0.
        -13    1    4    4    0    0  0.10000517236E+01  0.10855424964E+02 -0.88600981959E+01  0.14048228345E+02  0.10500000000E+00 0.  1.
         13    1    4    4    0    0  0.10357003957E+01  0.12010047937E+02 -0.99569939363E+01  0.15635430279E+02  0.10500000000E+00 0. -1.
    3000001    1    5    5    0    0  0.11090741875E+01 -0.11063472241E+02  0.78064975066E+01  0.13622476533E+02  0.10000000000E+01 0. -1.
        -13    1    6    6    0    0 -0.19738825533E+01 -0.79769618050E+01  0.10441342301E+02  0.13287617770E+02  0.10500000000E+00 0.  1.
         13    1    6    6    0    0 -0.51864811874E+01 -0.21304697137E+02  0.28032850445E+02  0.35589906382E+02  0.10500000000E+00 0. -1.
</event>
<event>
11    0  0.3485800E-009  0.9118800E+02  0.7816531E-02  0.1126479E+00
         25   -1    0    0    0    0  0.00000000000E+00  0.00000000000E+00  0.99999998245E-14  0.12500000000E+03  0.12500000000E+03 0.  0.
    3000001    1    3    3    0    0 -0.79022460952E+01  0.29151112418E+01  0.46579336089E+01  0.96767614627E+01  0.10000000000E+01 0. -1.
    1000022    2    1    0    0    0 -0.44483951481E+02  0.37863915689E+02  0.19843189751E+02  0.62500000762E+02  0.99999932522E+01 0.  0.
    3000022    2    3    3    0    0 -0.36581705386E+02  0.34948804448E+02  0.15185256142E+02  0.52823239299E+02  0.25000941560E+00 0.  0.
    1000022    2    1    0    0    0  0.44483951481E+02 -0.37863915689E+02 -0.19843189751E+02  0.62499999238E+02  0.99999837258E+01 0.  0.
    3000022    2    5    5    0    0  0.22192467980E+02 -0.14783603465E+02 -0.50004092985E+01  0.27131663390E+02  0.24999744325E+00 0.  0.
        -13    1    4    4    0    0 -0.21432603383E+02  0.20449449568E+02  0.88270931845E+01  0.30910598093E+02  0.10500000000E+00 0.  1.
         13    1    4    4    0    0 -0.15149102003E+02  0.14499354880E+02  0.63581629578E+01  0.21912641207E+02  0.10500000000E+00 0. -1.
    3000001    1    5    5    0    0  0.22291483502E+02 -0.23080312225E+02 -0.14842780453E+02  0.35368335848E+02  0.10000000000E+01 0. -1.
        -13    1    6    6    0    0  0.94834012691E+01 -0.63876492393E+01 -0.21142068734E+01  0.11628321381E+02  0.10500000000E+00 0.  1.
         13    1    6    6    0    0  0.12709066710E+02 -0.83959542255E+01 -0.28862024251E+01  0.15503342009E+02  0.10500000000E+00 0. -1.
</event>
<event>
11    0  0.3485800E-009  0.9118800E+02  0.7816531E-02  0.1126479E+00
         25   -1    0    0    0    0  0.00000000000E+00  0.00000000000E+00  0.99999998245E-14  0.12500000000E+03  0.12500000000E+03 0.  0.
    3000001    1    3    3    0    0 -0.74096013271E+01 -0.18278737385E+02 -0.34115184067E+01  0.20041279651E+02  0.10000000000E+01 0.  1.
    1000022    2    1    0    0    0 -0.15163662076E+02 -0.55428837293E+02 -0.22448986882E+02  0.62500001803E+02  0.10000028108E+02 0.  0.
    3000022    2    3    3    0    0 -0.77540607493E+01 -0.37150099908E+02 -0.19037468475E+02  0.42458722152E+02  0.24999912577E+00 0.  0.
    1000022    2    1    0    0    0  0.15163662076E+02  0.55428837293E+02  0.22448986882E+02  0.62499998197E+02  0.10000005569E+02 0.  0.
    3000022    2    5    5    0    0  0.81953690269E+01  0.40039549824E+02  0.19643696671E+02  0.45346079403E+02  0.24994943860E+00 0.  0.
        -13    1    4    4    0    0 -0.28482069349E+01 -0.13684194357E+02 -0.70774760406E+01  0.15667518950E+02  0.10500000000E+00 0. -1.
         13    1    4    4    0    0 -0.49058538144E+01 -0.23465905551E+02 -0.11959992435E+02  0.26791203202E+02  0.10500000000E+00 0.  1.
    3000001    1    5    5    0    0  0.69682930494E+01  0.15389287469E+02  0.28052902112E+01  0.17153918794E+02  0.10000000000E+01 0. -1.
        -13    1    6    6    0    0  0.58745374530E+01  0.28567845216E+02  0.14053698087E+02  0.32375135914E+02  0.10500000000E+00 0. -1.
         13    1    6    6    0    0  0.23208315739E+01  0.11471704609E+02  0.55899985838E+01  0.12970943489E+02  0.10500000000E+00 0.  1.
</event>
<event>
11    0  0.3485800E-009  0.9118800E+02  0.7816531E-02  0.1126479E+00
         25   -1    0    0    0    0  0.00000000000E+00  0.00000000000E+00  0.99999998245E-14  0.12500000000E+03  0.12500000000E+03 0.  0.
    3000001    1    3    3    0    0  0.23166771534E+02 -0.79877081794E+01  0.29860245596E+00  0.24527371419E+02  0.10000000000E+01 0.  1.
    1000022    2    1    0    0    0  0.57305742556E+02 -0.18913050307E+02  0.12829586533E+02  0.62499999772E+02  0.10000003953E+02 0.  0.
    3000022    2    3    3    0    0  0.34138971021E+02 -0.10925342127E+02  0.12530984077E+02  0.37972628353E+02  0.24999816365E+00 0.  0.
    1000022    2    1    0    0    0 -0.57305742556E+02  0.18913050307E+02 -0.12829586533E+02  0.62500000228E+02  0.10000006808E+02 0.  0.
    3000022    2    5    5    0    0 -0.32936395568E+02  0.71746015648E+01 -0.10616967008E+02  0.35342092787E+02  0.24994684678E+00 0.  0.
        -13    1    4    4    0    0  0.26223037321E+02 -0.84027226143E+01  0.96257799967E+01  0.29170534777E+02  0.10500000000E+00 0. -1.
         13    1    4    4    0    0  0.79159337008E+01 -0.25226195131E+01  0.29052040806E+01  0.88020935756E+01  0.10500000000E+00 0.  1.
    3000001    1    5    5    0    0 -0.24369346987E+02  0.11738448742E+02 -0.22126195249E+01  0.27157907442E+02  0.10000000000E+01 0. -1.
        -13    1    6    6    0    0 -0.15581621884E+02  0.33546606190E+01 -0.50780277024E+01  0.16728361508E+02  0.10500000000E+00 0.  1.
         13    1    6    6    0    0 -0.17354773684E+02  0.38199409458E+01 -0.55389393060E+01  0.18613731278E+02  0.10500000000E+00 0. -1.
</event>
<event>
11    0  0.3485800E-009  0.9118800E+02  0.7816531E-02  0.1126479E+00
         25   -1    0    0    0    0  0.00000000000E+00  0.00000000000E+00  0.99999998245E-14  0.12500000000E+03  0.12500000000E+03 0.  0.
    3000001    1    3    3    0    0 -0.34126552338E+02 -0.10491930630E+02  0.10246811730E+02  0.37157762762E+02  0.10000000000E+01 0.  1.
    1000022    2    1    0    0    0 -0.55118565472E+02 -0.24379890082E+02  0.13183877815E+02  0.62499998045E+02  0.99999910633E+01 0.  0.
    3000022    2    3    3    0    0 -0.20992013133E+02 -0.13887959452E+02  0.29370660849E+01  0.25342235283E+02  0.24999759266E+00 0.  0.
    1000022    2    1    0    0    0  0.55118565472E+02  0.24379890082E+02 -0.13183877815E+02  0.62500001955E+02  0.10000015505E+02 0.  0.
    3000022    2    5    5    0    0  0.62020328112E+01  0.39921832847E+01 -0.48833444526E+01  0.88494231132E+01  0.24999605013E+00 0.  0.
        -13    1    4    4    0    0 -0.51231007339E+01 -0.33853829394E+01  0.69427747244E+00  0.61806168774E+01  0.10500000000E+00 0. -1.
         13    1    4    4    0    0 -0.15868912399E+02 -0.10502576513E+02  0.22427886124E+01  0.19161618405E+02  0.10500000000E+00 0.  1.
    3000001    1    5    5    0    0  0.48916532660E+02  0.20387706798E+02 -0.83005333624E+01  0.53650578842E+02  0.10000000000E+01 0.  1.
        -13    1    6    6    0    0  0.15811509110E+01  0.10354312393E+01 -0.12836861592E+01  0.22871447724E+01  0.10500000000E+00 0. -1.
         13    1    6    6    0    0  0.46208819002E+01  0.29567520455E+01 -0.35996582934E+01  0.65622783409E+01  0.10500000000E+00 0.  1.
</event>
<event>
11    0  0.3485800E-009  0.9118800E+02  0.7816531E-02  0.1126479E+00
         25   -1    0    0    0    0  0.00000000000E+00  0.00000000000E+00  0.99999998245E-14  0.12500000000E+03  0.12500000000E+03 0.  0.
    3000001    1    3    3    0    0  0.53376454647E+01 -0.34643822684E+01 -0.57069311018E+01  0.86058971763E+01  0.10000000000E+01 0.  1.
    1000022    2    1    0    0    0  0.46366038290E+02 -0.23155946963E+01 -0.40633465366E+02  0.62499997281E+02  0.99999833458E+01 0.  0.
    3000022    2    3    3    0    0  0.41028392825E+02  0.11487875721E+01 -0.34926534264E+02  0.53894100104E+02  0.24999925686E+00 0.  0.
    1000022    2    1    0    0    0 -0.46366038290E+02  0.23155946963E+01  0.40633465366E+02  0.62500002719E+02  0.10000017339E+02 0.  0.
    3000022    2    5    5    0    0 -0.25996971099E+02 -0.25045059499E+01  0.18410200159E+02  0.31954859326E+02  0.25001654437E+00 0.  0.
        -13    1    4    4    0    0  0.10726096322E+02  0.27041205129E+00 -0.91145065580E+01  0.14078619243E+02  0.10500000000E+00 0.  1.
         13    1    4    4    0    0  0.30302296503E+02  0.87837552085E+00 -0.25812027706E+02  0.39815480861E+02  0.10500000000E+00 0. -1.
    3000001    1    5    5    0    0 -0.20369067191E+02  0.48201006462E+01  0.22223265207E+02  0.30545143394E+02  0.10000000000E+01 0. -1.
        -13    1    6    6    0    0 -0.10966469190E+02 -0.10607165840E+01  0.76871961065E+01  0.13434752515E+02  0.10500000000E+00 0.  1.
         13    1    6    6    0    0 -0.15030501908E+02 -0.14437893659E+01  0.10723004053E+02  0.18520106810E+02  0.10500000000E+00 0. -1.
</event>
<event>
11    0  0.3485800E-009  0.9118800E+02  0.7816531E-02  0.1126479E+00
         25   -1    0    0    0    0  0.00000000000E+00  0.00000000000E+00  0.99999998245E-14  0.12500000000E+03  0.12500000000E+03 0.  0.
    3000001    1    3    3    0    0 -0.20087670888E+02 -0.21113936579E+02 -0.19459059499E+02  0.35056637548E+02  0.10000000000E+01 0. -1.
    1000022    2    1    0    0    0 -0.29486155019E+02 -0.35982538202E+02 -0.40522507043E+02  0.62499999960E+02  0.10000001233E+02 0.  0.
    3000022    2    3    3    0    0 -0.93984841303E+01 -0.14868601623E+02 -0.21063447544E+02  0.27443362411E+02  0.24999970038E+00 0.  0.
    1000022    2    1    0    0    0  0.29486155019E+02  0.35982538202E+02  0.40522507043E+02  0.62500000040E+02  0.10000001739E+02 0.  0.
    3000022    2    5    5    0    0  0.23228651251E+02  0.33483257042E+02  0.34089171312E+02  0.53130337914E+02  0.24993031290E+00 0.  0.
        -13    1    4    4    0    0 -0.61419115841E+01 -0.96531034393E+01 -0.13770365802E+02  0.17903616485E+02  0.10500000000E+00 0. -1.
         13    1    4    4    0    0 -0.32565725461E+01 -0.52154981835E+01 -0.72930817417E+01  0.95397459265E+01  0.10500000000E+00 0.  1.
    3000001    1    5    5    0    0  0.62575037680E+01  0.24992811607E+01  0.64333357312E+01  0.93696621261E+01  0.10000000000E+01 0.  1.
        -13    1    6    6    0    0  0.10852491981E+02  0.15725277979E+02  0.16046110172E+02  0.24950944398E+02  0.10500000000E+00 0.  1.
         13    1    6    6    0    0  0.12376159269E+02  0.17757979063E+02  0.18043061140E+02  0.28179393517E+02  0.10500000000E+00 0. -1.
</event>
<event>
11    0  0.3485800E-009  0.9118800E+02  0.7816531E-02  0.1126479E+00
         25   -1    0    0    0    0  0.00000000000E+00  0.00000000000E+00  0.99999998245E-14  0.12500000000E+03  0.12500000000E+03 0.  0.
    3000001    1    3    3    0    0 -0.22796597035E+02 -0.10243294790E+02  0.52661647088E+01  0.25560563673E+02  0.10000000000E+01 0. -1.
    1000022    2    1    0    0    0 -0.53249260997E+02 -0.20432171386E+02  0.23522161389E+02  0.62499998770E+02  0.10000017283E+02 0.  0.
    3000022    2    3    3    0    0 -0.30452663961E+02 -0.10188876595E+02  0.18255996680E+02  0.36939435097E+02  0.25000378581E+00 0.  0.
    1000022    2    1    0    0    0  0.53249260997E+02  0.20432171386E+02 -0.23522161389E+02  0.62500001230E+02  0.10000032654E+02 0.  0.
    3000022    2    5    5    0    0  0.14863900918E+02  0.68843573003E+01 -0.11595079155E+02  0.20070831718E+02  0.24999858194E+00 0.  0.
        -13    1    4    4    0    0 -0.88208982460E+01 -0.29169154530E+01  0.52502768665E+01  0.10672069799E+02  0.10500000000E+00 0. -1.
         13    1    4    4    0    0 -0.21631765715E+02 -0.72719611424E+01  0.13005719813E+02  0.26267365298E+02  0.10500000000E+00 0.  1.
    3000001    1    5    5    0    0  0.38385360079E+02  0.13547814085E+02 -0.11927082233E+02  0.42429169512E+02  0.10000000000E+01 0.  1.
        -13    1    6    6    0    0  0.49699690699E+01  0.23576169901E+01 -0.38708336988E+01  0.67270594580E+01  0.10500000000E+00 0. -1.
         13    1    6    6    0    0  0.98939318481E+01  0.45267403103E+01 -0.77242454564E+01  0.13343772260E+02  0.10500000000E+00 0.  1.
</event>
<event>
11    0  0.3485800E-009  0.9118800E+02  0.7816531E-02  0.1126479E+00
         25   -1    0    0    0    0  0.00000000000E+00  0.00000000000E+00  0.99999998245E-14  0.12500000000E+03  0.12500000000E+03 0.  0.
    3000001    1    3    3    0    0  0.19220189935E+02 -0.45155844698E+00  0.13325568282E+02  0.23413465702E+02  0.10000000000E+01 0.  1.
    1000022    2    1    0    0    0  0.44858820042E+02 -0.10782051941E+02  0.40959535029E+02  0.62499998739E+02  0.99999976465E+01 0.  0.
    3000022    2    3    3    0    0  0.25638630107E+02 -0.10330493494E+02  0.27633966748E+02  0.39086533036E+02  0.24999402624E+00 0.  0.
    1000022    2    1    0    0    0 -0.44858820042E+02  0.10782051941E+02 -0.40959535029E+02  0.62500001261E+02  0.10000013413E+02 0.  0.
    3000022    2    5    5    0    0 -0.37440812258E+02  0.10274003227E+02 -0.38307804158E+02  0.54542826538E+02  0.25000485911E+00 0.  0.
        -13    1    4    4    0    0  0.65301770877E+01 -0.26055588507E+01  0.70523222774E+01  0.99588364896E+01  0.10500000000E+00 0.  1.
         13    1    4    4    0    0  0.19108453019E+02 -0.77249346432E+01  0.20581644470E+02  0.29127696547E+02  0.10500000000E+00 0. -1.
    3000001    1    5    5    0    0 -0.74180077834E+01  0.50804871419E+00 -0.26517308710E+01  0.79571747237E+01  0.10000000000E+01 0. -1.
        -13    1    6    6    0    0 -0.92580655119E+01  0.25296074018E+01 -0.95013154195E+01  0.13505432623E+02  0.10500000000E+00 0. -1.
         13    1    6    6    0    0 -0.28182746746E+02  0.77443958249E+01 -0.28806488739E+02  0.41037393915E+02  0.10500000000E+00 0.  1.
</event>
<event>
11    0  0.3485800E-009  0.9118800E+02  0.7816531E-02  0.1126479E+00
         25   -1    0    0    0    0  0.00000000000E+00  0.00000000000E+00  0.99999998245E-14  0.12500000000E+03  0.12500000000E+03 0.  0.
    3000001    1    3    3    0    0  0.32648529712E+01 -0.10663909433E+02 -0.21730771290E+02  0.24445953656E+02  0.10000000000E+01 0. -1.
    1000022    2    1    0    0    0  0.19309027990E+02 -0.21785867336E+02 -0.54394734460E+02  0.62500000606E+02  0.10000018063E+02 0.  0.
    3000022    2    3    3    0    0  0.16044175019E+02 -0.11121957904E+02 -0.32663963170E+02  0.38054046949E+02  0.24999923775E+00 0.  0.
    1000022    2    1    0    0    0 -0.19309027990E+02  0.21785867336E+02  0.54394734460E+02  0.62499999394E+02  0.10000010492E+02 0.  0.
    3000022    2    5    5    0    0 -0.10794295934E+02  0.16591740670E+02  0.28213546641E+02  0.34465481217E+02  0.24999662723E+00 0.  0.
        -13    1    4    4    0    0  0.56784403188E+01 -0.39817673311E+01 -0.11689571354E+02  0.13592507457E+02  0.10500000000E+00 0. -1.
         13    1    4    4    0    0  0.10365734700E+02 -0.71401905725E+01 -0.20974391816E+02  0.24461539492E+02  0.10500000000E+00 0.  1.
    3000001    1    5    5    0    0 -0.85147320564E+01  0.51941266661E+01  0.26181187819E+02  0.28034518177E+02  0.10000000000E+01 0. -1.
        -13    1    6    6    0    0 -0.81035259042E+01  0.12485879940E+02  0.21182218474E+02  0.25889413559E+02  0.10500000000E+00 0. -1.
         13    1    6    6    0    0 -0.26907700294E+01  0.41058607302E+01  0.70313281663E+01  0.85760676576E+01  0.10500000000E+00 0.  1.
</event>
<event>
11    0  0.3485800E-009  0.9118800E+02  0.7816531E-02  0.1126479E+00
         25   -1    0    0    0    0  0.00000000000E+00  0.00000000000E+00  0.99999998245E-14  0.12500000000E+03  0.12500000000E+03 0.  0.
    3000001    1    3    3    0    0 -0.44338753786E+01 -0.23945046729E+01 -0.21234415869E+01  0.55589484325E+01  0.10000000000E+01 0. -1.
    1000022    2    1    0    0    0 -0.59265089923E+02 -0.16888989191E+02  0.29429869903E+01  0.62500000135E+02  0.10000000252E+02 0.  0.
    3000022    2    3    3    0    0 -0.54831214544E+02 -0.14494484518E+02  0.50664285772E+01  0.56941051703E+02  0.25000134196E+00 0.  0.
    1000022    2    1    0    0    0  0.59265089923E+02  0.16888989191E+02 -0.29429869903E+01  0.62499999865E+02  0.99999985648E+01 0.  0.
    3000022    2    5    5    0    0  0.39406077048E+02  0.97639300498E+01  0.25397289243E+01  0.40677831460E+02  0.25002184217E+00 0.  0.
        -13    1    4    4    0    0 -0.30447664794E+02 -0.80849806300E+01  0.27575691611E+01  0.31623447248E+02  0.10500000000E+00 0.  1.
         13    1    4    4    0    0 -0.24383549750E+02 -0.64095038877E+01  0.23088594160E+01  0.25317604454E+02  0.10500000000E+00 0. -1.
    3000001    1    5    5    0    0  0.19859012874E+02  0.71250591408E+01 -0.54827159146E+01  0.21822168405E+02  0.10000000000E+01 0. -1.
        -13    1    6    6    0    0  0.14338273750E+02  0.36118838711E+01  0.91274373071E+00  0.14814719888E+02  0.10500000000E+00 0. -1.
         13    1    6    6    0    0  0.25067803298E+02  0.61520461787E+01  0.16269851936E+01  0.25863111572E+02  0.10500000000E+00 0.  1.
</event>
<event>
11    0  0.3485800E-009  0.9118800E+02  0.7816531E-02  0.1126479E+00
         25   -1    0    0    0    0  0.00000000000E+00  0.00000000000E+00  0.99999998245E-14  0.12500000000E+03  0.12500000000E+03 0.  0.
    3000001    1    3    3    0    0  0.36461891912E+00 -0.29425895976E+01  0.11743165647E+01  0.33422746581E+01  0.10000000000E+01 0. -1.
    1000022    2    1    0    0    0  0.24850126140E+01 -0.59684564376E+02 -0.15421654991E+02  0.62500000608E+02  0.10000006045E+02 0.  0.
    3000022    2    3    3    0    0  0.21203936949E+01 -0.56741974778E+02 -0.16595971556E+02  0.59157725950E+02  0.24999302909E+00 0.  0.
    1000022    2    1    0    0    0 -0.24850126140E+01  0.59684564376E+02  0.15421654991E+02  0.62499999392E+02  0.99999984471E+01 0.  0.
    3000022    2    5    5    0    0 -0.20870446235E+01  0.81994188896E+01 -0.81716074060E+00  0.85039095280E+01  0.25000039389E+00 0.  0.
        -13    1    4    4    0    0  0.13672169851E+01 -0.37053760214E+02 -0.10781852558E+02  0.38614890882E+02  0.10500000000E+00 0.  1.
         13    1    4    4    0    0  0.75317670984E+00 -0.19688214564E+02 -0.58141189976E+01  0.20542835067E+02  0.10500000000E+00 0. -1.
    3000001    1    5    5    0    0 -0.39796799048E+00  0.51485145486E+02  0.16238815731E+02  0.53996089864E+02  0.10000000000E+01 0. -1.
        -13    1    6    6    0    0 -0.99648935030E+00  0.41718387061E+01 -0.43842418485E+00  0.43128262173E+01  0.10500000000E+00 0. -1.
         13    1    6    6    0    0 -0.10905552732E+01  0.40275801836E+01 -0.37873655575E+00  0.41910833108E+01  0.10500000000E+00 0.  1.
</event>
<event>
11    0  0.3485800E-009  0.9118800E+02  0.7816531E-02  0.1126479E+00
         25   -1    0    0    0    0  0.00000000000E+00  0.00000000000E+00  0.99999998245E-14  0.12500000000E+03  0.12500000000E+03 0.  0.
    3000001    1    3    3    0    0 -0.14529645752E+02  0.33627268071E+02  0.41402962240E+02  0.55291129902E+02  0.10000000000E+01 0.  1.
    1000022    2    1    0    0    0 -0.16486163292E+02  0.34736798758E+02  0.48247396703E+02  0.62499999667E+02  0.99999950812E+01 0.  0.
    3000022    2    3    3    0    0 -0.19565175396E+01  0.11095306876E+01  0.68444344633E+01  0.72088697648E+01  0.25000186545E+00 0.  0.
    1000022    2    1    0    0    0  0.16486163292E+02 -0.34736798758E+02 -0.48247396703E+02  0.62500000333E+02  0.99999992486E+01 0.  0.
    3000022    2    5    5    0    0  0.14253194003E+02 -0.29261624995E+02 -0.45397070886E+02  0.55860118042E+02  0.25001199731E+00 0.  0.
        -13    1    4    4    0    0 -0.12118824226E+01  0.66203916388E+00  0.40086340456E+01  0.42411232913E+01  0.10500000000E+00 0. -1.
         13    1    4    4    0    0 -0.74463511706E+00  0.44749152373E+00  0.28358004178E+01  0.29677464735E+01  0.10500000000E+00 0.  1.
    3000001    1    5    5    0    0  0.22329692884E+01 -0.54751737630E+01 -0.28503258178E+01  0.66398822916E+01  0.10000000000E+01 0. -1.
        -13    1    6    6    0    0  0.10246918865E+02 -0.20972050338E+02 -0.32505077055E+02  0.40017712340E+02  0.10500000000E+00 0. -1.
         13    1    6    6    0    0  0.40062751384E+01 -0.82895746572E+01 -0.12891993831E+02  0.15842405702E+02  0.10500000000E+00 0.  1.
</event>
<event>
11    0  0.3485800E-009  0.9118800E+02  0.7816531E-02  0.1126479E+00
         25   -1    0    0    0    0  0.00000000000E+00  0.00000000000E+00  0.99999998245E-14  0.12500000000E+03  0.12500000000E+03 0.  0.
    3000001    1    3    3    0    0  0.20547939575E+02 -0.16982758292E+01  0.24369899804E+02  0.31937344568E+02  0.10000000000E+01 0.  1.
    1000022    2    1    0    0    0  0.35926607248E+02  0.50711510668E+01  0.49898012926E+02  0.62499995280E+02  0.10000001728E+02 0.  0.
    3000022    2    3    3    0    0  0.15378667673E+02  0.67694268960E+01  0.25528113121E+02  0.30562650712E+02  0.24999822109E+00 0.  0.
    1000022    2    1    0    0    0 -0.35926607248E+02 -0.50711510668E+01 -0.49898012926E+02  0.62500004720E+02  0.10000060728E+02 0.  0.
    3000022    2    5    5    0    0  0.36021132005E+00  0.47975660693E+00 -0.22553148128E+01  0.23470957191E+01  0.24998962555E+00 0.  0.
        -13    1    4    4    0    0  0.10923937040E+02  0.48456582638E+01  0.18108301303E+02  0.21696414578E+02  0.10500000000E+00 0.  1.
         13    1    4    4    0    0  0.44547306324E+01  0.19237686321E+01  0.74198118187E+01  0.88662361339E+01  0.10500000000E+00 0. -1.
    3000001    1    5    5    0    0 -0.36286818568E+02 -0.55509076738E+01 -0.47642698113E+02  0.60152909001E+02  0.10000000000E+01 0.  1.
        -13    1    6    6    0    0  0.26011979171E+00  0.24962978906E+00 -0.14059554257E+01  0.14552364058E+01  0.10500000000E+00 0.  1.
         13    1    6    6    0    0  0.10009152834E+00  0.23012681787E+00 -0.84935938704E+00  0.89185931329E+00  0.10500000000E+00 0. -1.
</event>
<event>
11    0  0.3485800E-009  0.9118800E+02  0.7816531E-02  0.1126479E+00
         25   -1    0    0    0    0  0.00000000000E+00  0.00000000000E+00  0.99999998245E-14  0.12500000000E+03  0.12500000000E+03 0.  0.
    3000001    1    3    3    0    0 -0.24458637900E+01 -0.66914235536E+01  0.70253318917E+01  0.10055480448E+02  0.10000000000E+01 0.  1.
    1000022    2    1    0    0    0 -0.35006549134E+02 -0.36662228939E+02  0.35166353478E+02  0.62499993909E+02  0.99999654334E+01 0.  0.
    3000022    2    3    3    0    0 -0.32560685344E+02 -0.29970805386E+02  0.28141021586E+02  0.52444513461E+02  0.24998146719E+00 0.  0.
    1000022    2    1    0    0    0  0.35006549134E+02  0.36662228939E+02 -0.35166353478E+02  0.62500006091E+02  0.10000041565E+02 0.  0.
    3000022    2    5    5    0    0  0.10945525098E+02  0.87492396594E+01 -0.50503698268E+01  0.14897061649E+02  0.24999221943E+00 0.  0.
        -13    1    4    4    0    0 -0.14768301803E+02 -0.13531335578E+02  0.12794452372E+02  0.23767810525E+02  0.10500000000E+00 0. -1.
         13    1    4    4    0    0 -0.17792383542E+02 -0.16439469808E+02  0.15346569214E+02  0.28676702936E+02  0.10500000000E+00 0.  1.
    3000001    1    5    5    0    0  0.24061024037E+02  0.27912989280E+02 -0.30115983651E+02  0.47602944441E+02  0.10000000000E+01 0. -1.
        -13    1    6    6    0    0  0.36356698423E+01  0.29153510381E+01 -0.17360780083E+01  0.49741691496E+01  0.10500000000E+00 0.  1.
         13    1    6    6    0    0  0.73098552553E+01  0.58338886213E+01 -0.33142918185E+01  0.99228924996E+01  0.10500000000E+00 0. -1.
</event>
<event>
11    0  0.3485800E-009  0.9118800E+02  0.7816531E-02  0.1126479E+00
         25   -1    0    0    0    0  0.00000000000E+00  0.00000000000E+00  0.99999998245E-14  0.12500000000E+03  0.12500000000E+03 0.  0.
    3000001    1    3    3    0    0 -0.16643176061E+02 -0.45058285194E+02 -0.23563727498E+02  0.53511621426E+02  0.10000000000E+01 0. -1.
    1000022    2    1    0    0    0 -0.22901903466E+02 -0.50608534067E+02 -0.26842676424E+02  0.62499999031E+02  0.99999849253E+01 0.  0.
    3000022    2    3    3    0    0 -0.62587274046E+01 -0.55502488733E+01 -0.32789489267E+01  0.89883776056E+01  0.24998927450E+00 0.  0.
    1000022    2    1    0    0    0  0.22901903466E+02  0.50608534067E+02  0.26842676424E+02  0.62500000969E+02  0.99999970319E+01 0.  0.
    3000022    2    5    5    0    0 -0.44096021960E-01  0.59365616399E+01  0.48318494018E+01  0.76585885207E+01  0.25000184935E+00 0.  0.
        -13    1    4    4    0    0 -0.39580682229E+01 -0.34297834494E+01 -0.20541959232E+01  0.56267632310E+01  0.10500000000E+00 0. -1.
         13    1    4    4    0    0 -0.23006591817E+01 -0.21204654239E+01 -0.12247530035E+01  0.33616143747E+01  0.10500000000E+00 0.  1.
    3000001    1    5    5    0    0  0.22945999488E+02  0.44671972428E+02  0.22010827023E+02  0.54841412448E+02  0.10000000000E+01 0. -1.
        -13    1    6    6    0    0  0.34184130340E-01  0.18816060256E+01  0.15504628661E+01  0.24406085080E+01  0.10500000000E+00 0. -1.
         13    1    6    6    0    0 -0.78280152300E-01  0.40549556143E+01  0.32813865357E+01  0.52179800127E+01  0.10500000000E+00 0.  1.
</event>
<event>
11    0  0.3485800E-009  0.9118800E+02  0.7816531E-02  0.1126479E+00
         25   -1    0    0    0    0  0.00000000000E+00  0.00000000000E+00  0.99999998245E-14  0.12500000000E+03  0.12500000000E+03 0.  0.
    3000001    1    3    3    0    0  0.25642326299E+02 -0.39045447349E+02 -0.38228302500E+02  0.60369520196E+02  0.10000000000E+01 0. -1.
    1000022    2    1    0    0    0  0.24785937181E+02 -0.40762980980E+02 -0.39118879565E+02  0.62500000186E+02  0.99999992279E+01 0.  0.
    3000022    2    3    3    0    0 -0.85638911788E+00 -0.17175336305E+01 -0.89057706455E+00  0.21304799895E+01  0.24998676837E+00 0.  0.
    1000022    2    1    0    0    0 -0.24785937181E+02  0.40762980980E+02  0.39118879565E+02  0.62499999814E+02  0.99999969034E+01 0.  0.
    3000022    2    5    5    0    0 -0.36216592476E+01  0.13077348201E+01  0.42622644762E+01  0.57494339544E+01  0.25001253211E+00 0.  0.
        -13    1    4    4    0    0 -0.37134502600E+00 -0.63558913723E+00 -0.30168270296E+00  0.80243886556E+00  0.10500000000E+00 0.  1.
         13    1    4    4    0    0 -0.48504409188E+00 -0.10819444933E+01 -0.58889436159E+00  0.13280411239E+01  0.10500000000E+00 0. -1.
    3000001    1    5    5    0    0 -0.21164277934E+02  0.39455246159E+02  0.34856615089E+02  0.56750565860E+02  0.10000000000E+01 0. -1.
        -13    1    6    6    0    0 -0.24572532159E+01  0.86792634989E+00  0.28096118381E+01  0.38335796844E+01  0.10500000000E+00 0.  1.
         13    1    6    6    0    0 -0.11644060317E+01  0.43980847018E+00  0.14526526380E+01  0.19158542700E+01  0.10500000000E+00 0. -1.
</event>
<event>
11    0  0.3485800E-009  0.9118800E+02  0.7816531E-02  0.1126479E+00
         25   -1    0    0    0    0  0.00000000000E+00  0.00000000000E+00  0.99999998245E-14  0.12500000000E+03  0.12500000000E+03 0.  0.
    3000001    1    3    3    0    0 -0.47128013354E+02 -0.25223729825E+02  0.76448080734E+01  0.54006752165E+02  0.10000000000E+01 0.  1.
    1000022    2    1    0    0    0 -0.55470565881E+02 -0.25386052874E+02  0.92094872695E+01  0.62499999868E+02  0.99999984001E+01 0.  0.
    3000022    2    3    3    0    0 -0.83425525275E+01 -0.16232304926E+00  0.15646791960E+01  0.84932477027E+01  0.25000821376E+00 0.  0.
    1000022    2    1    0    0    0  0.55470565881E+02  0.25386052874E+02 -0.92094872695E+01  0.62500000132E+02  0.10000000055E+02 0.  0.
    3000022    2    5    5    0    0  0.58484846561E+01  0.47361838279E-01  0.71336344584E+00  0.58973219731E+01  0.25000626398E+00 0.  0.
        -13    1    4    4    0    0 -0.40287121722E+01 -0.10781652672E-01  0.75162460107E+00  0.40995856560E+01  0.10500000000E+00 0. -1.
         13    1    4    4    0    0 -0.43138403553E+01 -0.15154139658E+00  0.81305459497E+00  0.43936620466E+01  0.10500000000E+00 0.  1.
    3000001    1    5    5    0    0  0.49622081225E+02  0.25338691036E+02 -0.99228507153E+01  0.56602678159E+02  0.10000000000E+01 0. -1.
        -13    1    6    6    0    0  0.23320885444E+01  0.78956815714E-01  0.26569277496E+00  0.23508485294E+01  0.10500000000E+00 0. -1.
         13    1    6    6    0    0  0.35163961117E+01 -0.31594977435E-01  0.44767067088E+00  0.35464734437E+01  0.10500000000E+00 0.  1.
</event>
<event>
11    0  0.3485800E-009  0.9118800E+02  0.7816531E-02  0.1126479E+00
         25   -1    0    0    0    0  0.00000000000E+00  0.00000000000E+00  0.99999998245E-14  0.12500000000E+03  0.12500000000E+03 0.  0.
    3000001    1    3    3    0    0  0.27365034975E+02  0.19572152264E+02  0.24972599137E+02  0.41911155927E+02  0.10000000000E+01 0. -1.
    1000022    2    1    0    0    0  0.35813869816E+02  0.34012282625E+02  0.36970007910E+02  0.62499999785E+02  0.99999923829E+01 0.  0.
    3000022    2    3    3    0    0  0.84488348404E+01  0.14440130361E+02  0.11997408773E+02  0.20588843858E+02  0.24999827871E+00 0.  0.
    1000022    2    1    0    0    0 -0.35813869816E+02 -0.34012282625E+02 -0.36970007910E+02  0.62500000215E+02  0.99999950752E+01 0.  0.
    3000022    2    5    5    0    0 -0.32717633791E+02 -0.26437212096E+02 -0.29531224721E+02  0.51395772805E+02  0.24996886944E+00 0.  0.
        -13    1    4    4    0    0  0.37276288449E+01  0.62755696460E+01  0.52897294528E+01  0.90150016013E+01  0.10500000000E+00 0.  1.
         13    1    4    4    0    0  0.47212059955E+01  0.81645607148E+01  0.67076793206E+01  0.11573842257E+02  0.10500000000E+00 0. -1.
    3000001    1    5    5    0    0 -0.30962360249E+01 -0.75750705296E+01 -0.74387831889E+01  0.11104227410E+02  0.10000000000E+01 0. -1.
        -13    1    6    6    0    0 -0.15538358909E+02 -0.12637058413E+02 -0.14089671120E+02  0.24488072611E+02  0.10500000000E+00 0. -1.
         13    1    6    6    0    0 -0.17179274882E+02 -0.13800153683E+02 -0.15441553601E+02  0.26907700194E+02  0.10500000000E+00 0.  1.
</event>
<event>
11    0  0.3485800E-009  0.9118800E+02  0.7816531E-02  0.1126479E+00
         25   -1    0    0    0    0  0.00000000000E+00  0.00000000000E+00  0.99999998245E-14  0.12500000000E+03  0.12500000000E+03 0.  0.
    3000001    1    3    3    0    0 -0.21991445246E+02  0.43153933917E+02 -0.15771836051E+02  0.50947389422E+02  0.10000000000E+01 0.  1.
    1000022    2    1    0    0    0 -0.30713966387E+02  0.50105427454E+02 -0.18770947818E+02  0.62499999905E+02  0.99999957307E+01 0.  0.
    3000022    2    3    3    0    0 -0.87225211408E+01  0.69514935375E+01 -0.29991117670E+01  0.11552610483E+02  0.25000027599E+00 0.  0.
    1000022    2    1    0    0    0  0.30713966387E+02 -0.50105427454E+02  0.18770947818E+02  0.62500000095E+02  0.99999969120E+01 0.  0.
    3000022    2    5    5    0    0  0.11490459970E+02 -0.27194786080E+02  0.11659913999E+02  0.31742765350E+02  0.24999470673E+00 0.  0.
        -13    1    4    4    0    0 -0.51753902696E+01  0.41846518688E+01 -0.17453663044E+01  0.68813737176E+01  0.10500000000E+00 0.  1.
         13    1    4    4    0    0 -0.35471308712E+01  0.27668416688E+01 -0.12537454626E+01  0.46712367659E+01  0.10500000000E+00 0. -1.
    3000001    1    5    5    0    0  0.19223506417E+02 -0.22910641374E+02  0.71110338187E+01  0.30757234744E+02  0.10000000000E+01 0.  1.
        -13    1    6    6    0    0  0.86757392885E+01 -0.20470783400E+02  0.87838041391E+01  0.23905808193E+02  0.10500000000E+00 0. -1.
         13    1    6    6    0    0  0.28147206813E+01 -0.67240026802E+01  0.28761098597E+01  0.78369571571E+01  0.10500000000E+00 0.  1.
</event>
<event>
11    0  0.3485800E-009  0.9118800E+02  0.7816531E-02  0.1126479E+00
         25   -1    0    0    0    0  0.00000000000E+00  0.00000000000E+00  0.99999998245E-14  0.12500000000E+03  0.12500000000E+03 0.  0.
    3000001    1    3    3    0    0  0.16231023918E+01  0.53061395400E+01 -0.75565430806E+01  0.94281982119E+01  0.10000000000E+01 0.  1.
    1000022    2    1    0    0    0  0.16805386792E+02  0.14381337875E+02 -0.57593455875E+02  0.62499999811E+02  0.99999956196E+01 0.  0.
    3000022    2    3    3    0    0  0.15182284400E+02  0.90751983351E+01 -0.50036912795E+02  0.53071801599E+02  0.24999703047E+00 0.  0.
    1000022    2    1    0    0    0 -0.16805386792E+02 -0.14381337875E+02  0.57593455875E+02  0.62500000189E+02  0.99999979841E+01 0.  0.
    3000022    2    5    5    0    0 -0.15836739378E+02 -0.80720664044E+01  0.43711351330E+02  0.47187978412E+02  0.25000265546E+00 0.  0.
        -13    1    4    4    0    0  0.45832289653E+01  0.26868314755E+01 -0.15052916600E+02  0.15963282065E+02  0.10500000000E+00 0. -1.
         13    1    4    4    0    0  0.10599055435E+02  0.63883668596E+01 -0.34983996195E+02  0.37108519534E+02  0.10500000000E+00 0.  1.
    3000001    1    5    5    0    0 -0.96864741356E+00 -0.63092714708E+01  0.13882104545E+02  0.15312021777E+02  0.10000000000E+01 0. -1.
        -13    1    6    6    0    0 -0.75584523097E+01 -0.37786028275E+01  0.20740643938E+02  0.22396280419E+02  0.10500000000E+00 0.  1.
         13    1    6    6    0    0 -0.82782870684E+01 -0.42934635769E+01  0.22970707392E+02  0.24791697992E+02  0.10500000000E+00 0. -1.
</event>
<event>
11    0  0.3485800E-009  0.9118800E+02  0.7816531E-02  0.1126479E+00
         25   -1    0    0    0    0  0.00000000000E+00  0.00000000000E+00  0.99999998245E-14  0.12500000000E+03  0.12500000000E+03 0.  0.
    3000001    1    3    3    0    0 -0.24910159518E+01  0.11420380225E+01 -0.10828071833E+02  0.11214122834E+02  0.10000000000E+01 0. -1.
    1000022    2    1    0    0    0 -0.16392277561E+02  0.25839743475E+02 -0.53570989167E+02  0.62500000192E+02  0.10000001857E+02 0.  0.
    3000022    2    3    3    0    0 -0.13901261609E+02  0.24697705452E+02 -0.42742917334E+02  0.51285877358E+02  0.25001034748E+00 0.  0.
    1000022    2    1    0    0    0  0.16392277561E+02 -0.25839743475E+02  0.53570989167E+02  0.62499999808E+02  0.99999994582E+01 0.  0.
    3000022    2    5    5    0    0  0.50000503889E+01 -0.11438661188E+02  0.13376646120E+02  0.18298651141E+02  0.24999698931E+00 0.  0.
        -13    1    4    4    0    0 -0.94342436839E+01  0.16670900205E+02 -0.28840628840E+02  0.34622489287E+02  0.10500000000E+00 0.  1.
         13    1    4    4    0    0 -0.44670179252E+01  0.80268052473E+01 -0.13902288494E+02  0.16663388071E+02  0.10500000000E+00 0. -1.
    3000001    1    5    5    0    0  0.11392227172E+02 -0.14401082286E+02  0.40194343048E+02  0.44201348667E+02  0.10000000000E+01 0.  1.
        -13    1    6    6    0    0  0.18343741948E+01 -0.42895262059E+01  0.50684792967E+01  0.68895189337E+01  0.10500000000E+00 0. -1.
         13    1    6    6    0    0  0.31656761941E+01 -0.71491349824E+01  0.83081668231E+01  0.11409132207E+02  0.10500000000E+00 0.  1.
</event>
<event>
11    0  0.3485800E-009  0.9118800E+02  0.7816531E-02  0.1126479E+00
         25   -1    0    0    0    0  0.00000000000E+00  0.00000000000E+00  0.99999998245E-14  0.12500000000E+03  0.12500000000E+03 0.  0.
    3000001    1    3    3    0    0 -0.70763879692E+01  0.55083197969E+00  0.19214374273E+02  0.20507824391E+02  0.10000000000E+01 0. -1.
    1000022    2    1    0    0    0 -0.31618958551E+02 -0.61909775803E+01  0.52613336868E+02  0.62500001751E+02  0.10000012964E+02 0.  0.
    3000022    2    3    3    0    0 -0.24542570582E+02 -0.67418095600E+01  0.33398962595E+02  0.41992177360E+02  0.24998022351E+00 0.  0.
    1000022    2    1    0    0    0  0.31618958551E+02  0.61909775803E+01 -0.52613336868E+02  0.62499998249E+02  0.99999910764E+01 0.  0.
    3000022    2    5    5    0    0  0.87012220097E+01  0.59119415190E+01 -0.13020441582E+02  0.16740869472E+02  0.24998942480E+00 0.  0.
        -13    1    4    4    0    0 -0.18661961450E+02 -0.51441972801E+01  0.25388762806E+02  0.31926977192E+02  0.10500000000E+00 0. -1.
         13    1    4    4    0    0 -0.58806091313E+01 -0.15976122799E+01  0.80101997886E+01  0.10065200167E+02  0.10500000000E+00 0.  1.
    3000001    1    5    5    0    0  0.22917736541E+02  0.27903606135E+00 -0.39592895286E+02  0.45759128777E+02  0.10000000000E+01 0.  1.
        -13    1    6    6    0    0  0.43539132191E+01  0.30302879626E+01 -0.66166602759E+01  0.84811805584E+01  0.10500000000E+00 0. -1.
         13    1    6    6    0    0  0.43473087906E+01  0.28816535564E+01 -0.64037813056E+01  0.82596889136E+01  0.10500000000E+00 0.  1.
</event>
<event>
11    0  0.3485800E-009  0.9118800E+02  0.7816531E-02  0.1126479E+00
         25   -1    0    0    0    0  0.00000000000E+00  0.00000000000E+00  0.99999998245E-14  0.12500000000E+03  0.12500000000E+03 0.  0.
    3000001    1    3    3    0    0 -0.21988494612E+01  0.46614161084E+02  0.12966178278E+02  0.48444160966E+02  0.10000000000E+01 0. -1.
    1000022    2    1    0    0    0 -0.36899138115E-01  0.58086029860E+02  0.20790903333E+02  0.62500000492E+02  0.10000008680E+02 0.  0.
    3000022    2    3    3    0    0  0.21619503231E+01  0.11471868776E+02  0.78247250551E+01  0.14055839526E+02  0.25000035646E+00 0.  0.
    1000022    2    1    0    0    0  0.36899138115E-01 -0.58086029860E+02 -0.20790903333E+02  0.62499999508E+02  0.10000002535E+02 0.  0.
    3000022    2    5    5    0    0 -0.90262381751E+00 -0.28578205279E+00  0.18396952617E+00  0.99636838448E+00  0.25000806666E+00 0.  0.
        -13    1    4    4    0    0  0.14402337091E+01  0.78480025914E+01  0.53863977553E+01  0.96275502383E+01  0.10500000000E+00 0.  1.
         13    1    4    4    0    0  0.72171661399E+00  0.36238661843E+01  0.24383272999E+01  0.44282892875E+01  0.10500000000E+00 0. -1.
    3000001    1    5    5    0    0  0.93952295562E+00 -0.57800247807E+02 -0.20974872859E+02  0.61503631124E+02  0.10000000000E+01 0.  1.
        -13    1    6    6    0    0 -0.43969113431E+00 -0.10288715094E+00  0.14681832195E+00  0.48630718592E+00  0.10500000000E+00 0.  1.
         13    1    6    6    0    0 -0.46293268320E+00 -0.18289490185E+00  0.37151204220E-01  0.51006119856E+00  0.10500000000E+00 0. -1.
</event>
<event>
11    0  0.3485800E-009  0.9118800E+02  0.7816531E-02  0.1126479E+00
         25   -1    0    0    0    0  0.00000000000E+00  0.00000000000E+00  0.99999998245E-14  0.12500000000E+03  0.12500000000E+03 0.  0.
    3000001    1    3    3    0    0 -0.72293480653E+01  0.45355555618E+02  0.35273656619E+02  0.57919087961E+02  0.10000000000E+01 0.  1.
    1000022    2    1    0    0    0 -0.85337004023E+01  0.49734095729E+02  0.35495713673E+02  0.62500000353E+02  0.10000001720E+02 0.  0.
    3000022    2    3    3    0    0 -0.13043523370E+01  0.43785401106E+01  0.22205705332E+00  0.45809123919E+01  0.25000097586E+00 0.  0.
    1000022    2    1    0    0    0  0.85337004023E+01 -0.49734095729E+02 -0.35495713673E+02  0.62499999647E+02  0.99999973136E+01 0.  0.
    3000022    2    5    5    0    0  0.65090371320E+01 -0.47096836465E+02 -0.34895423165E+02  0.58976543038E+02  0.25000292818E+00 0.  0.
        -13    1    4    4    0    0 -0.63721682620E+00  0.19995370418E+01  0.15601935100E+00  0.21070265074E+01  0.10500000000E+00 0. -1.
         13    1    4    4    0    0 -0.66713551081E+00  0.23790030689E+01  0.66037702323E-01  0.24738858845E+01  0.10500000000E+00 0.  1.
    3000001    1    5    5    0    0  0.20246632703E+01 -0.26372592642E+01 -0.60029050726E+00  0.35234566093E+01  0.10000000000E+01 0. -1.
        -13    1    6    6    0    0  0.49165248427E+01 -0.35713774933E+02 -0.26449103285E+02  0.44712548866E+02  0.10500000000E+00 0. -1.
         13    1    6    6    0    0  0.15925122892E+01 -0.11383061531E+02 -0.84463198801E+01  0.14263994172E+02  0.10500000000E+00 0.  1.
</event>
<event>
11    0  0.3485800E-009  0.9118800E+02  0.7816531E-02  0.1126479E+00
         25   -1    0    0    0    0  0.00000000000E+00  0.00000000000E+00  0.99999998245E-14  0.12500000000E+03  0.12500000000E+03 0.  0.
    3000001    1    3    3    0    0 -0.25878411294E+02  0.53717270250E+00  0.14764967918E+01  0.25945341940E+02  0.10000000000E+01 0. -1.
    1000022    2    1    0    0    0 -0.60808907729E+02 -0.10221831977E+02  0.20102751312E+01  0.62500002141E+02  0.99999976661E+01 0.  0.
    3000022    2    3    3    0    0 -0.34930496435E+02 -0.10759004679E+02  0.53377833935E+00  0.36554660201E+02  0.25000035363E+00 0.  0.
    1000022    2    1    0    0    0  0.60808907729E+02  0.10221831977E+02 -0.20102751312E+01  0.62499997859E+02  0.99999709059E+01 0.  0.
    3000022    2    5    5    0    0  0.18252452795E+02  0.42887624937E+01 -0.50306720002E+01  0.19414316162E+02  0.24998901470E+00 0.  0.
        -13    1    4    4    0    0 -0.80874410730E+01 -0.24853855407E+01  0.11551270996E+00  0.84621635875E+01  0.10500000000E+00 0.  1.
         13    1    4    4    0    0 -0.26843055362E+02 -0.82736191385E+01  0.41826562939E+00  0.28092496613E+02  0.10500000000E+00 0. -1.
    3000001    1    5    5    0    0  0.42556454935E+02  0.59330694830E+01  0.30203968690E+01  0.43085681697E+02  0.10000000000E+01 0.  1.
        -13    1    6    6    0    0  0.60745343898E+01  0.14475164060E+01 -0.16241627367E+01  0.64532318565E+01  0.10500000000E+00 0.  1.
         13    1    6    6    0    0  0.12177918405E+02  0.28412460877E+01 -0.34065092635E+01  0.12961084305E+02  0.10500000000E+00 0. -1.
</event>
<event>
11    0  0.3485800E-009  0.9118800E+02  0.7816531E-02  0.1126479E+00
         25   -1    0    0    0    0  0.00000000000E+00  0.00000000000E+00  0.99999998245E-14  0.12500000000E+03  0.12500000000E+03 0.  0.
    3000001    1    3    3    0    0  0.11489145614E+02 -0.35074394656E+02 -0.27437046064E+02  0.46000055697E+02  0.10000000000E+01 0.  1.
    1000022    2    1    0    0    0  0.17836868281E+02 -0.49566789716E+02 -0.32112770488E+02  0.62499994982E+02  0.99999415700E+01 0.  0.
    3000022    2    3    3    0    0  0.63477226665E+01 -0.14492395061E+02 -0.46757244244E+01  0.16499939284E+02  0.24999971384E+00 0.  0.
    1000022    2    1    0    0    0 -0.17836868281E+02  0.49566789716E+02  0.32112770488E+02  0.62500005018E+02  0.10000004300E+02 0.  0.
    3000022    2    5    5    0    0 -0.42696803361E+01  0.12713687350E+02  0.33896637671E+01  0.13835473761E+02  0.24999507689E+00 0.  0.
        -13    1    4    4    0    0  0.46417908210E+01 -0.10670307372E+02 -0.34561434703E+01  0.12139095276E+02  0.10500000000E+00 0. -1.
         13    1    4    4    0    0  0.17059318455E+01 -0.38220876888E+01 -0.12195809541E+01  0.43608440084E+01  0.10500000000E+00 0.  1.
    3000001    1    5    5    0    0 -0.13567187945E+02  0.36853102367E+02  0.28723106721E+02  0.48664531257E+02  0.10000000000E+01 0. -1.
        -13    1    6    6    0    0 -0.21115804099E+01  0.64937951991E+01  0.17083700212E+01  0.70397230802E+01  0.10500000000E+00 0. -1.
         13    1    6    6    0    0 -0.21580999262E+01  0.62198921506E+01  0.16812937459E+01  0.67957506809E+01  0.10500000000E+00 0.  1.
</event>
<event>
11    0  0.3485800E-009  0.9118800E+02  0.7816531E-02  0.1126479E+00
         25   -1    0    0    0    0  0.00000000000E+00  0.00000000000E+00  0.99999998245E-14  0.12500000000E+03  0.12500000000E+03 0.  0.
    3000001    1    3    3    0    0 -0.10833569316E+01  0.54316277003E+02 -0.21356977229E+02  0.58382806425E+02  0.10000000000E+01 0.  1.
    1000022    2    1    0    0    0 -0.23628621987E+01  0.56544288522E+02 -0.24564408316E+02  0.62499999982E+02  0.10000007981E+02 0.  0.
    3000022    2    3    3    0    0 -0.12795052671E+01  0.22280115190E+01 -0.32074310878E+01  0.41171935573E+01  0.24999909579E+00 0.  0.
    1000022    2    1    0    0    0  0.23628621987E+01 -0.56544288522E+02  0.24564408316E+02  0.62500000018E+02  0.10000008201E+02 0.  0.
    3000022    2    5    5    0    0 -0.14547722355E+01 -0.10015034968E+01  0.88782912911E+00  0.19925153313E+01  0.25001054316E+00 0.  0.
        -13    1    4    4    0    0 -0.49494790044E+00  0.92571197322E+00 -0.12242507342E+01  0.16160850663E+01  0.10500000000E+00 0.  1.
         13    1    4    4    0    0 -0.78455736668E+00  0.13022995458E+01 -0.19831803536E+01  0.25011084910E+01  0.10500000000E+00 0. -1.
    3000001    1    5    5    0    0  0.38176344342E+01 -0.55542785025E+02  0.23676579187E+02  0.60507484686E+02  0.10000000000E+01 0.  1.
        -13    1    6    6    0    0 -0.96516798811E+00 -0.62977817645E+00  0.63080341813E+00  0.13179938350E+01  0.10500000000E+00 0. -1.
         13    1    6    6    0    0 -0.48960424736E+00 -0.37172532034E+00  0.25702571098E+00  0.67452149626E+00  0.10500000000E+00 0.  1.
</event>
<event>
11    0  0.3485800E-009  0.9118800E+02  0.7816531E-02  0.1126479E+00
         25   -1    0    0    0    0  0.00000000000E+00  0.00000000000E+00  0.99999998245E-14  0.12500000000E+03  0.12500000000E+03 0.  0.
    3000001    1    3    3    0    0 -0.12418748685E+02 -0.41844488182E+02  0.37770256439E+02  0.57730224160E+02  0.10000000000E+01 0. -1.
    1000022    2    1    0    0    0 -0.13557636838E+02 -0.42824996649E+02  0.42290189938E+02  0.62499999897E+02  0.99999983770E+01 0.  0.
    3000022    2    3    3    0    0 -0.11388881530E+01 -0.98050846628E+00  0.45199334991E+01  0.47697757366E+01  0.24999732712E+00 0.  0.
    1000022    2    1    0    0    0  0.13557636838E+02  0.42824996649E+02 -0.42290189938E+02  0.62500000103E+02  0.99999996664E+01 0.  0.
    3000022    2    5    5    0    0  0.49456508682E+01  0.30215872270E+02 -0.30093106565E+02  0.42931526409E+02  0.24999492742E+00 0.  0.
        -13    1    4    4    0    0 -0.53312319198E+00 -0.51232744860E+00  0.20511974126E+01  0.21829190497E+01  0.10500000000E+00 0.  1.
         13    1    4    4    0    0 -0.60576496102E+00 -0.46818101768E+00  0.24687360865E+01  0.25868566869E+01  0.10500000000E+00 0. -1.
    3000001    1    5    5    0    0  0.86119859701E+01  0.12609124379E+02 -0.12197083372E+02  0.19568473695E+02  0.10000000000E+01 0.  1.
        -13    1    6    6    0    0  0.11388476910E+01  0.70174995789E+01 -0.69810186232E+01  0.99643324122E+01  0.10500000000E+00 0. -1.
         13    1    6    6    0    0  0.38068031772E+01  0.23198372691E+02 -0.23112087942E+02  0.32967193996E+02  0.10500000000E+00 0.  1.
</event>
<event>
11    0  0.3485800E-009  0.9118800E+02  0.7816531E-02  0.1126479E+00
         25   -1    0    0    0    0  0.00000000000E+00  0.00000000000E+00  0.99999998245E-14  0.12500000000E+03  0.12500000000E+03 0.  0.
    3000001    1    3    3    0    0 -0.92514247337E+01  0.46493956256E+02  0.26994845840E+02  0.54561877990E+02  0.10000000000E+01 0. -1.
    1000022    2    1    0    0    0 -0.13695909711E+02  0.51193306336E+02  0.31589834663E+02  0.62499998628E+02  0.99999809051E+01 0.  0.
    3000022    2    3    3    0    0 -0.44444849772E+01  0.46993500800E+01  0.45949888233E+01  0.79381206380E+01  0.24999818097E+00 0.  0.
    1000022    2    1    0    0    0  0.13695909711E+02 -0.51193306336E+02 -0.31589834663E+02  0.62500001372E+02  0.99999980500E+01 0.  0.
    3000022    2    5    5    0    0  0.11997160697E+02 -0.41914150923E+02 -0.21362138736E+02  0.48550297526E+02  0.25001227151E+00 0.  0.
        -13    1    4    4    0    0 -0.16041735955E+01  0.16552908600E+01  0.16999852482E+01  0.28660662239E+01  0.10500000000E+00 0.  1.
         13    1    4    4    0    0 -0.28403113817E+01  0.30440592200E+01  0.28950035751E+01  0.50720544141E+01  0.10500000000E+00 0. -1.
    3000001    1    5    5    0    0  0.16987490138E+01 -0.92791554129E+01 -0.10227695928E+02  0.13949703846E+02  0.10000000000E+01 0.  1.
        -13    1    6    6    0    0  0.67621442468E+01 -0.23407744234E+02 -0.11970309337E+02  0.27146793835E+02  0.10500000000E+00 0. -1.
         13    1    6    6    0    0  0.52350164503E+01 -0.18506406689E+02 -0.93918293987E+01  0.21403503691E+02  0.10500000000E+00 0.  1.
</event>
<event>
11    0  0.3485800E-009  0.9118800E+02  0.7816531E-02  0.1126479E+00
         25   -1    0    0    0    0  0.00000000000E+00  0.00000000000E+00  0.99999998245E-14  0.12500000000E+03  0.12500000000E+03 0.  0.
    3000001    1    3    3    0    0  0.43899676214E+02 -0.12308818962E+02 -0.20807683577E+02  0.50126323342E+02  0.10000000000E+01 0.  1.
    1000022    2    1    0    0    0  0.52033842087E+02 -0.14262944334E+02 -0.29921525451E+02  0.62499999953E+02  0.10000000270E+02 0.  0.
    3000022    2    3    3    0    0  0.81341658737E+01 -0.19541253713E+01 -0.91138418740E+01  0.12373676612E+02  0.24999751188E+00 0.  0.
    1000022    2    1    0    0    0 -0.52033842087E+02  0.14262944334E+02  0.29921525451E+02  0.62500000047E+02  0.10000000855E+02 0.  0.
    3000022    2    5    5    0    0 -0.16056682314E+01  0.56193060912E+00 -0.77553742696E+00  0.18862378730E+01  0.24999706789E+00 0.  0.
        -13    1    4    4    0    0  0.56451849303E+01 -0.14036901199E+01 -0.63490709043E+01  0.86116308095E+01  0.10500000000E+00 0. -1.
         13    1    4    4    0    0  0.24889809433E+01 -0.55043525143E+00 -0.27647709696E+01  0.37620458021E+01  0.10500000000E+00 0.  1.
    3000001    1    5    5    0    0 -0.50428173856E+02  0.13701013725E+02  0.30697062878E+02  0.60613762174E+02  0.10000000000E+01 0.  1.
        -13    1    6    6    0    0 -0.42098762928E+00  0.11916880411E+00 -0.18498417429E+00  0.48649350727E+00  0.10500000000E+00 0. -1.
         13    1    6    6    0    0 -0.11846806021E+01  0.44276180502E+00 -0.59055325267E+00  0.13997443657E+01  0.10500000000E+00 0.  1.
</event>
<event>
11    0  0.3485800E-009  0.9118800E+02  0.7816531E-02  0.1126479E+00
         25   -1    0    0    0    0  0.00000000000E+00  0.00000000000E+00  0.99999998245E-14  0.12500000000E+03  0.12500000000E+03 0.  0.
    3000001    1    3    3    0    0 -0.10196900694E+02  0.20810354861E+02  0.84802084019E+01  0.24697400425E+02  0.10000000000E+01 0. -1.
    1000022    2    1    0    0    0 -0.14159779862E+02  0.56287273405E+02  0.20916354114E+02  0.62499997914E+02  0.99999678351E+01 0.  0.
    3000022    2    3    3    0    0 -0.39628791682E+01  0.35476918544E+02  0.12436145712E+02  0.37802597489E+02  0.24999215529E+00 0.  0.
    1000022    2    1    0    0    0  0.14159779862E+02 -0.56287273405E+02 -0.20916354114E+02  0.62500002086E+02  0.99999939161E+01 0.  0.
    3000022    2    5    5    0    0  0.14893003132E+02 -0.42147064253E+02 -0.15862822126E+02  0.47432775508E+02  0.24999832749E+00 0.  0.
        -13    1    4    4    0    0 -0.26466538402E+01  0.24142665985E+02  0.84514013879E+01  0.25715954344E+02  0.10500000000E+00 0.  1.
         13    1    4    4    0    0 -0.13162253280E+01  0.11334252558E+02  0.39847443241E+01  0.12086643144E+02  0.10500000000E+00 0. -1.
    3000001    1    5    5    0    0 -0.73322326970E+00 -0.14140209151E+02 -0.50535319883E+01  0.15067226578E+02  0.10000000000E+01 0. -1.
        -13    1    6    6    0    0  0.78021661167E+01 -0.21892776586E+02 -0.82198610181E+01  0.24652476608E+02  0.10500000000E+00 0.  1.
         13    1    6    6    0    0  0.70908370149E+01 -0.20254287667E+02 -0.76429611076E+01  0.22780298900E+02  0.10500000000E+00 0. -1.
</event>
<event>
11    0  0.3485800E-009  0.9118800E+02  0.7816531E-02  0.1126479E+00
         25   -1    0    0    0    0  0.00000000000E+00  0.00000000000E+00  0.99999998245E-14  0.12500000000E+03  0.12500000000E+03 0.  0.
    3000001    1    3    3    0    0  0.82717199533E+00  0.24214653802E+01  0.15402703004E+01  0.31496254850E+01  0.10000000000E+01 0. -1.
    1000022    2    1    0    0    0 -0.34769442814E+01  0.26171100927E+02  0.55760507194E+02  0.62500001999E+02  0.10000021100E+02 0.  0.
    3000022    2    3    3    0    0 -0.43041162767E+01  0.23749635547E+02  0.54220236894E+02  0.59350376514E+02  0.24999590007E+00 0.  0.
    1000022    2    1    0    0    0  0.34769442814E+01 -0.26171100927E+02 -0.55760507194E+02  0.62499998001E+02  0.99999961143E+01 0.  0.
    3000022    2    5    5    0    0 -0.33307321592E+00  0.32949370784E+00 -0.56678668622E+01  0.56926889221E+01  0.24997705166E+00 0.  0.
        -13    1    4    4    0    0 -0.98511547376E+00  0.54463000776E+01  0.12444789494E+02  0.13620442268E+02  0.10500000000E+00 0.  1.
         13    1    4    4    0    0 -0.33190008030E+01  0.18303335469E+02  0.41775447400E+02  0.45729934245E+02  0.10500000000E+00 0. -1.
    3000001    1    5    5    0    0  0.38100174973E+01 -0.26500594635E+02 -0.50092640332E+02  0.56807309079E+02  0.10000000000E+01 0.  1.
        -13    1    6    6    0    0 -0.23237749387E+00  0.21187051162E+00 -0.41755984636E+01  0.41887391830E+01  0.10500000000E+00 0. -1.
         13    1    6    6    0    0 -0.10069572206E+00  0.11762319622E+00 -0.14922683985E+01  0.15039497392E+01  0.10500000000E+00 0.  1.
</event>
<event>
11    0  0.3485800E-009  0.9118800E+02  0.7816531E-02  0.1126479E+00
         25   -1    0    0    0    0  0.00000000000E+00  0.00000000000E+00  0.99999998245E-14  0.12500000000E+03  0.12500000000E+03 0.  0.
    3000001    1    3    3    0    0 -0.52112585368E+02  0.21148434960E+02  0.72784825068E+01  0.56718199571E+02  0.10000000000E+01 0. -1.
    1000022    2    1    0    0    0 -0.57219667878E+02  0.20809513716E+02  0.99560906856E+01  0.62499999959E+02  0.99999999974E+01 0.  0.
    3000022    2    3    3    0    0 -0.51070825104E+01 -0.33892124406E+00  0.26776081787E+01  0.57818003880E+01  0.24994157328E+00 0.  0.
    1000022    2    1    0    0    0  0.57219667878E+02 -0.20809513716E+02 -0.99560906856E+01  0.62500000041E+02  0.10000000509E+02 0.  0.
    3000022    2    5    5    0    0  0.23896556217E+02 -0.94116405665E+01  0.69119629931E+00  0.25693669019E+02  0.24999634514E+00 0.  0.
        -13    1    4    4    0    0 -0.34896486490E+01 -0.27859577137E+00  0.18490852221E+01  0.39604803314E+01  0.10500000000E+00 0. -1.
         13    1    4    4    0    0 -0.16174338614E+01 -0.60325472697E-01  0.82852295668E+00  0.18213200566E+01  0.10500000000E+00 0.  1.
    3000001    1    5    5    0    0  0.33323111662E+02 -0.11397873149E+02 -0.10647286985E+02  0.36806331022E+02  0.10000000000E+01 0. -1.
        -13    1    6    6    0    0  0.17025152066E+02 -0.67017411408E+01  0.53446990863E+00  0.18304803203E+02  0.10500000000E+00 0. -1.
         13    1    6    6    0    0  0.68714041502E+01 -0.27098994257E+01  0.15672639068E+00  0.73888658165E+01  0.10500000000E+00 0.  1.
</event>
<event>
11    0  0.3485800E-009  0.9118800E+02  0.7816531E-02  0.1126479E+00
         25   -1    0    0    0    0  0.00000000000E+00  0.00000000000E+00  0.99999998245E-14  0.12500000000E+03  0.12500000000E+03 0.  0.
    3000001    1    3    3    0    0  0.38965255957E+01 -0.41133149477E+01 -0.49774830953E+01  0.76077335351E+01  0.10000000000E+01 0.  1.
    1000022    2    1    0    0    0  0.47199149999E+02 -0.13320504367E+02 -0.37430664688E+02  0.62500001788E+02  0.99999983657E+01 0.  0.
    3000022    2    3    3    0    0  0.43302624403E+02 -0.92071894189E+01 -0.32453181593E+02  0.54892268253E+02  0.25000251654E+00 0.  0.
    1000022    2    1    0    0    0 -0.47199149999E+02  0.13320504367E+02  0.37430664688E+02  0.62499998212E+02  0.99999760112E+01 0.  0.
    3000022    2    5    5    0    0 -0.12367226290E+02  0.15442927118E+01  0.14644359027E+02  0.19231559415E+02  0.25000026553E+00 0.  0.
        -13    1    4    4    0    0  0.15167113367E+02 -0.32790619699E+01 -0.11400111693E+02  0.19255314770E+02  0.10500000000E+00 0.  1.
         13    1    4    4    0    0  0.28135511036E+02 -0.59281274490E+01 -0.21053069900E+02  0.35636953483E+02  0.10500000000E+00 0. -1.
    3000001    1    5    5    0    0 -0.34831923709E+02  0.11776211655E+02  0.22786305662E+02  0.43268438797E+02  0.10000000000E+01 0. -1.
        -13    1    6    6    0    0 -0.70415403973E+01  0.94467044055E+00  0.83331370396E+01  0.10951159360E+02  0.10500000000E+00 0.  1.
         13    1    6    6    0    0 -0.53256858929E+01  0.59962227121E+00  0.63112219871E+01  0.82804000548E+01  0.10500000000E+00 0. -1.
</event>
<event>
11    0  0.3485800E-009  0.9118800E+02  0.7816531E-02  0.1126479E+00
         25   -1    0    0    0    0  0.00000000000E+00  0.00000000000E+00  0.99999998245E-14  0.12500000000E+03  0.12500000000E+03 0.  0.
    3000001    1    3    3    0    0  0.17133933268E+01 -0.22898314607E+00 -0.10769536740E+02  0.10953130674E+02  0.10000000000E+01 0.  1.
    1000022    2    1    0    0    0  0.26558328871E+02  0.95695063192E+01 -0.54857357655E+02  0.62499999923E+02  0.10000000890E+02 0.  0.
    3000022    2    3    3    0    0  0.24844935544E+02  0.97984894653E+01 -0.44087820916E+02  0.51546869249E+02  0.25011649031E+00 0.  0.
    1000022    2    1    0    0    0 -0.26558328871E+02 -0.95695063192E+01  0.54857357655E+02  0.62500000077E+02  0.10000001854E+02 0.  0.
    3000022    2    5    5    0    0  0.13037460973E+00  0.28868878574E+00  0.55464928514E+01  0.55611531276E+01  0.25000480872E+00 0.  0.
        -13    1    4    4    0    0  0.10887485315E+02  0.42305501127E+01 -0.19224068820E+02  0.22494682432E+02  0.10500000000E+00 0.  1.
         13    1    4    4    0    0  0.13957450230E+02  0.55679393526E+01 -0.24863752096E+02  0.29052186817E+02  0.10500000000E+00 0. -1.
    3000001    1    5    5    0    0 -0.26688703481E+02 -0.98581951049E+01  0.49310864804E+02  0.56938846949E+02  0.10000000000E+01 0. -1.
        -13    1    6    6    0    0  0.54180897179E-02  0.66476770501E-01  0.20775753329E+01  0.20812959378E+01  0.10500000000E+00 0.  1.
         13    1    6    6    0    0  0.12495652002E+00  0.22221201523E+00  0.34689175185E+01  0.34798571898E+01  0.10500000000E+00 0. -1.
</event>
<event>
11    0  0.3485800E-009  0.9118800E+02  0.7816531E-02  0.1126479E+00
         25   -1    0    0    0    0  0.00000000000E+00  0.00000000000E+00  0.99999998245E-14  0.12500000000E+03  0.12500000000E+03 0.  0.
    3000001    1    3    3    0    0  0.25556150234E+02  0.22209382435E+02 -0.13697299419E+02  0.36537508047E+02  0.10000000000E+01 0.  1.
    1000022    2    1    0    0    0  0.36961634368E+02  0.42692681082E+02 -0.24848002624E+02  0.62500005492E+02  0.10000000947E+02 0.  0.
    3000022    2    3    3    0    0  0.11405484134E+02  0.20483298647E+02 -0.11150703205E+02  0.25962497444E+02  0.24999957495E+00 0.  0.
    1000022    2    1    0    0    0 -0.36961634368E+02 -0.42692681082E+02  0.24848002624E+02  0.62499994508E+02  0.99999322992E+01 0.  0.
    3000022    2    5    5    0    0 -0.11070363239E+02 -0.72362430954E+01  0.80324265977E+01  0.15475739995E+02  0.24998996397E+00 0.  0.
        -13    1    4    4    0    0  0.38412236706E+01  0.67887762468E+01 -0.37108419041E+01  0.86385099903E+01  0.10500000000E+00 0. -1.
         13    1    4    4    0    0  0.75642604630E+01  0.13694522400E+02 -0.74398613012E+01  0.17323987454E+02  0.10500000000E+00 0.  1.
    3000001    1    5    5    0    0 -0.25891271129E+02 -0.35456437987E+02  0.16815576026E+02  0.47024254513E+02  0.10000000000E+01 0.  1.
        -13    1    6    6    0    0 -0.35513920697E+01 -0.23291128387E+01  0.26390648534E+01  0.50012838901E+01  0.10500000000E+00 0. -1.
         13    1    6    6    0    0 -0.75189711688E+01 -0.49071302567E+01  0.53933617443E+01  0.10474456105E+02  0.10500000000E+00 0.  1.
</event>
<event>
11    0  0.3485800E-009  0.9118800E+02  0.7816531E-02  0.1126479E+00
         25   -1    0    0    0    0  0.00000000000E+00  0.00000000000E+00  0.99999998245E-14  0.12500000000E+03  0.12500000000E+03 0.  0.
    3000001    1    3    3    0    0  0.15760164955E+01  0.30600436653E+01 -0.16571803388E+02  0.16955009960E+02  0.10000000000E+01 0.  1.
    1000022    2    1    0    0    0  0.12321964404E+02  0.24732018724E+02 -0.55161097090E+02  0.62499998493E+02  0.99999811235E+01 0.  0.
    3000022    2    3    3    0    0  0.10745947909E+02  0.21671975058E+02 -0.38589293702E+02  0.45544988532E+02  0.24998516621E+00 0.  0.
    1000022    2    1    0    0    0 -0.12321964404E+02 -0.24732018724E+02  0.55161097090E+02  0.62500001507E+02  0.99999999669E+01 0.  0.
    3000022    2    5    5    0    0 -0.66297038295E+01 -0.19671143170E+02  0.46495480683E+02  0.50919535216E+02  0.24999233698E+00 0.  0.
        -13    1    4    4    0    0  0.47980711508E+01  0.97487340041E+01 -0.17443433856E+02  0.20551002680E+02  0.10500000000E+00 0.  1.
         13    1    4    4    0    0  0.59478767580E+01  0.11923241054E+02 -0.21145859846E+02  0.24993985852E+02  0.10500000000E+00 0. -1.
    3000001    1    5    5    0    0 -0.56922605748E+01 -0.50608755533E+01  0.86656164071E+01  0.11580466292E+02  0.10000000000E+01 0.  1.
        -13    1    6    6    0    0 -0.17335551098E+01 -0.51988242462E+01  0.12346180759E+02  0.13508226797E+02  0.10500000000E+00 0. -1.
         13    1    6    6    0    0 -0.48961487198E+01 -0.14472318924E+02  0.34149299923E+02  0.37411308419E+02  0.10500000000E+00 0.  1.
</event>
<event>
11    0  0.3485800E-009  0.9118800E+02  0.7816531E-02  0.1126479E+00
         25   -1    0    0    0    0  0.00000000000E+00  0.00000000000E+00  0.99999998245E-14  0.12500000000E+03  0.12500000000E+03 0.  0.
    3000001    1    3    3    0    0  0.11417365350E+02 -0.11507280421E+02  0.36904955547E+01  0.16655134093E+02  0.10000000000E+01 0.  1.
    1000022    2    1    0    0    0  0.44416666006E+02 -0.33419441199E+02  0.26768463794E+02  0.62500000180E+02  0.10000004972E+02 0.  0.
    3000022    2    3    3    0    0  0.32999300657E+02 -0.21912160778E+02  0.23077968240E+02  0.45844866087E+02  0.24998938929E+00 0.  0.
    1000022    2    1    0    0    0 -0.44416666006E+02  0.33419441199E+02 -0.26768463794E+02  0.62499999820E+02  0.10000002722E+02 0.  0.
    3000022    2    5    5    0    0 -0.41320779544E+02  0.30909338060E+02 -0.21712314699E+02  0.55984650679E+02  0.25000123276E+00 0.  0.
        -13    1    4    4    0    0  0.23843142548E+02 -0.15803224321E+02  0.16700327825E+02  0.33123244406E+02  0.10500000000E+00 0. -1.
         13    1    4    4    0    0  0.91561581086E+01 -0.61089364566E+01  0.63776404152E+01  0.12721621681E+02  0.10500000000E+00 0.  1.
    3000001    1    5    5    0    0 -0.30958864620E+01  0.25101031389E+01 -0.50561490955E+01  0.65153491410E+01  0.10000000000E+01 0.  1.
        -13    1    6    6    0    0 -0.31100857761E+02  0.23264003103E+02 -0.16315129481E+02  0.42126852112E+02  0.10500000000E+00 0.  1.
         13    1    6    6    0    0 -0.10219921784E+02  0.76453349565E+01 -0.53971852174E+01  0.13857798567E+02  0.10500000000E+00 0. -1.
</event>
<event>
11    0  0.3485800E-009  0.9118800E+02  0.7816531E-02  0.1126479E+00
         25   -1    0    0    0    0  0.00000000000E+00  0.00000000000E+00  0.99999998245E-14  0.12500000000E+03  0.12500000000E+03 0.  0.
    3000001    1    3    3    0    0 -0.30179863416E+01 -0.10786342040E+02 -0.30829128130E+02  0.32815980214E+02  0.10000000000E+01 0. -1.
    1000022    2    1    0    0    0 -0.14851310822E+02 -0.20310927405E+02 -0.56330761686E+02  0.62500001491E+02  0.10000013453E+02 0.  0.
    3000022    2    3    3    0    0 -0.11833324481E+02 -0.95245853657E+01 -0.25501633556E+02  0.29684021277E+02  0.25002100114E+00 0.  0.
    1000022    2    1    0    0    0  0.14851310822E+02  0.20310927405E+02  0.56330761686E+02  0.62499998509E+02  0.99999948176E+01 0.  0.
    3000022    2    5    5    0    0  0.14338788377E+02  0.12513966170E+02  0.36560436654E+02  0.41218056971E+02  0.24998145473E+00 0.  0.
        -13    1    4    4    0    0 -0.80591055694E+01 -0.65458182873E+01 -0.17390762414E+02  0.20254544231E+02  0.10500000000E+00 0.  1.
         13    1    4    4    0    0 -0.37742189111E+01 -0.29787670784E+01 -0.81108711412E+01  0.94294770463E+01  0.10500000000E+00 0. -1.
    3000001    1    5    5    0    0  0.51252244490E+00  0.77969612348E+01  0.19770325032E+02  0.21281941538E+02  0.10000000000E+01 0.  1.
        -13    1    6    6    0    0  0.83055478356E+01  0.72868876254E+01  0.21099575222E+02  0.23817723562E+02  0.10500000000E+00 0. -1.
         13    1    6    6    0    0  0.60332405416E+01  0.52270785451E+01  0.15460861432E+02  0.17400333409E+02  0.10500000000E+00 0.  1.
</event>
<event>
11    0  0.3485800E-009  0.9118800E+02  0.7816531E-02  0.1126479E+00
         25   -1    0    0    0    0  0.00000000000E+00  0.00000000000E+00  0.99999998245E-14  0.12500000000E+03  0.12500000000E+03 0.  0.
    3000001    1    3    3    0    0  0.44936814616E+02  0.36050327693E+00 -0.36840676196E+01  0.45100106703E+02  0.10000000000E+01 0.  1.
    1000022    2    1    0    0    0  0.61668081659E+02 -0.17088488247E+01  0.61433648281E+00  0.62500000227E+02  0.10000007967E+02 0.  0.
    3000022    2    3    3    0    0  0.16731267043E+02 -0.20693521017E+01  0.42984041024E+01  0.17399893524E+02  0.25000367935E+00 0.  0.
    1000022    2    1    0    0    0 -0.61668081659E+02  0.17088488247E+01 -0.61433648281E+00  0.62499999773E+02  0.10000005125E+02 0.  0.
    3000022    2    5    5    0    0 -0.26356819662E+02  0.28248885619E+01 -0.46972673867E+01  0.26921901268E+02  0.25001772849E+00 0.  0.
        -13    1    4    4    0    0  0.73714645603E+01 -0.97588672608E+00  0.18771830794E+01  0.76697904782E+01  0.10500000000E+00 0. -1.
         13    1    4    4    0    0  0.93598024826E+01 -0.10934653756E+01  0.24212210230E+01  0.97301030459E+01  0.10500000000E+00 0.  1.
    3000001    1    5    5    0    0 -0.35311261996E+02 -0.11160397371E+01  0.40829309039E+01  0.35578098505E+02  0.10000000000E+01 0.  1.
        -13    1    6    6    0    0 -0.14157845967E+02  0.15547566825E+01 -0.25807574312E+01  0.14475261818E+02  0.10500000000E+00 0. -1.
         13    1    6    6    0    0 -0.12198973695E+02  0.12701318793E+01 -0.21165099555E+01  0.12446639450E+02  0.10500000000E+00 0.  1.
</event>
<event>
11    0  0.3485800E-009  0.9118800E+02  0.7816531E-02  0.1126479E+00
         25   -1    0    0    0    0  0.00000000000E+00  0.00000000000E+00  0.99999998245E-14  0.12500000000E+03  0.12500000000E+03 0.  0.
    3000001    1    3    3    0    0 -0.17846878212E+02  0.45363047406E+02 -0.99038543726E+01  0.49753426649E+02  0.10000000000E+01 0.  1.
    1000022    2    1    0    0    0 -0.23216744925E+02  0.54633213270E+02 -0.16806111200E+02  0.62499998462E+02  0.99999598509E+01 0.  0.
    3000022    2    3    3    0    0 -0.53698667126E+01  0.92701658639E+01 -0.69022568278E+01  0.12746571813E+02  0.25000004489E+00 0.  0.
    1000022    2    1    0    0    0  0.23216744925E+02 -0.54633213270E+02  0.16806111200E+02  0.62500001538E+02  0.99999790761E+01 0.  0.
    3000022    2    5    5    0    0  0.18034840797E+02 -0.34054918429E+02  0.14318836845E+02  0.41110637764E+02  0.24999399239E+00 0.  0.
        -13    1    4    4    0    0 -0.29063504477E+01  0.50432637556E+01 -0.38281540304E+01  0.69675799611E+01  0.10500000000E+00 0.  1.
         13    1    4    4    0    0 -0.24635162649E+01  0.42269021083E+01 -0.30741027974E+01  0.57789918524E+01  0.10500000000E+00 0. -1.
    3000001    1    5    5    0    0  0.51819041279E+01 -0.20578294841E+02  0.24872743550E+01  0.21389363774E+02  0.10000000000E+01 0. -1.
        -13    1    6    6    0    0  0.12287785975E+02 -0.23297765686E+02  0.97626473082E+01  0.28090850425E+02  0.10500000000E+00 0.  1.
         13    1    6    6    0    0  0.57470548217E+01 -0.10757152743E+02  0.45561895372E+01  0.13019787339E+02  0.10500000000E+00 0. -1.
</event>
<event>
11    0  0.3485800E-009  0.9118800E+02  0.7816531E-02  0.1126479E+00
         25   -1    0    0    0    0  0.00000000000E+00  0.00000000000E+00  0.99999998245E-14  0.12500000000E+03  0.12500000000E+03 0.  0.
    3000001    1    3    3    0    0 -0.37136292749E+01 -0.82115334982E+01  0.32403665284E+02  0.33648444966E+02  0.10000000000E+01 0. -1.
    1000022    2    1    0    0    0 -0.70652099613E+01 -0.23659905037E+02  0.56537966308E+02  0.62500000688E+02  0.10000007681E+02 0.  0.
    3000022    2    3    3    0    0 -0.33515806864E+01 -0.15448371539E+02  0.24134301024E+02  0.28851555722E+02  0.25001077211E+00 0.  0.
    1000022    2    1    0    0    0  0.70652099613E+01  0.23659905037E+02 -0.56537966308E+02  0.62499999312E+02  0.99999990850E+01 0.  0.
    3000022    2    5    5    0    0  0.90370708905E+01  0.17780094504E+02 -0.37844651360E+02  0.42779440721E+02  0.25000197841E+00 0.  0.
        -13    1    4    4    0    0 -0.15224989356E+01 -0.67153817780E+01  0.10540764494E+02  0.12590992676E+02  0.10500000000E+00 0. -1.
         13    1    4    4    0    0 -0.18290817508E+01 -0.87329897605E+01  0.13593536530E+02  0.16260563046E+02  0.10500000000E+00 0.  1.
    3000001    1    5    5    0    0 -0.19718609291E+01  0.58798105325E+01 -0.18693314947E+02  0.19720558591E+02  0.10000000000E+01 0.  1.
        -13    1    6    6    0    0  0.67686266173E+01  0.13369851771E+02 -0.28452031187E+02  0.32157368461E+02  0.10500000000E+00 0.  1.
         13    1    6    6    0    0  0.22684442732E+01  0.44102427331E+01 -0.93926201732E+01  0.10622072260E+02  0.10500000000E+00 0. -1.
</event>
<event>
11    0  0.3485800E-009  0.9118800E+02  0.7816531E-02  0.1126479E+00
         25   -1    0    0    0    0  0.00000000000E+00  0.00000000000E+00  0.99999998245E-14  0.12500000000E+03  0.12500000000E+03 0.  0.
    3000001    1    3    3    0    0 -0.33616226609E+00 -0.29192024104E+01 -0.57660709122E+00  0.31570909901E+01  0.10000000000E+01 0.  1.
    1000022    2    1    0    0    0 -0.11856050549E+01 -0.41079220803E+02 -0.46014584433E+02  0.62499999883E+02  0.99999981811E+01 0.  0.
    3000022    2    3    3    0    0 -0.84944278885E+00 -0.38160018393E+02 -0.45437977342E+02  0.59342908892E+02  0.24998821368E+00 0.  0.
    1000022    2    1    0    0    0  0.11856050549E+01  0.41079220803E+02  0.46014584433E+02  0.62500000117E+02  0.99999996491E+01 0.  0.
    3000022    2    5    5    0    0 -0.19201392517E+01  0.13939443550E+01  0.17377476536E+01  0.29516576580E+01  0.25000082348E+00 0.  0.
        -13    1    4    4    0    0 -0.41588051515E+00 -0.15809234559E+02 -0.18815259504E+02  0.24579053463E+02  0.10500000000E+00 0. -1.
         13    1    4    4    0    0 -0.43356227370E+00 -0.22350783834E+02 -0.26622717837E+02  0.34763855429E+02  0.10500000000E+00 0.  1.
    3000001    1    5    5    0    0  0.31057443066E+01  0.39685276448E+02  0.44276836779E+02  0.59548342459E+02  0.10000000000E+01 0.  1.
        -13    1    6    6    0    0 -0.99640774231E+00  0.80373920784E+00  0.91508738656E+00  0.15770970256E+01  0.10500000000E+00 0.  1.
         13    1    6    6    0    0 -0.92373150938E+00  0.59020514720E+00  0.82266026708E+00  0.13745606324E+01  0.10500000000E+00 0. -1.
</event>
<event>
11    0  0.3485800E-009  0.9118800E+02  0.7816531E-02  0.1126479E+00
         25   -1    0    0    0    0  0.00000000000E+00  0.00000000000E+00  0.99999998245E-14  0.12500000000E+03  0.12500000000E+03 0.  0.
    3000001    1    3    3    0    0  0.11147584593E+02 -0.85473725333E+01  0.11135658174E+01  0.14126791862E+02  0.10000000000E+01 0.  1.
    1000022    2    1    0    0    0  0.42610597973E+02 -0.38995741128E+02  0.21677621894E+02  0.62499999982E+02  0.99999910499E+01 0.  0.
    3000022    2    3    3    0    0  0.31463013379E+02 -0.30448368595E+02  0.20564056077E+02  0.48373208120E+02  0.25000088317E+00 0.  0.
    1000022    2    1    0    0    0 -0.42610597973E+02  0.38995741128E+02 -0.21677621894E+02  0.62500000018E+02  0.99999912766E+01 0.  0.
    3000022    2    5    5    0    0 -0.47366235821E+01  0.40555639969E+01  0.76389757590E+00  0.62872282465E+01  0.24999445136E+00 0.  0.
        -13    1    4    4    0    0  0.12752001951E+02 -0.12429391622E+02  0.83640715736E+01  0.19674146694E+02  0.10500000000E+00 0. -1.
         13    1    4    4    0    0  0.18711011429E+02 -0.18018976973E+02  0.12199984503E+02  0.28699061425E+02  0.10500000000E+00 0.  1.
    3000001    1    5    5    0    0 -0.37873974391E+02  0.34940177131E+02 -0.22441519470E+02  0.56212771772E+02  0.10000000000E+01 0.  1.
        -13    1    6    6    0    0 -0.18559555302E+01  0.16177978829E+01  0.36076987597E+00  0.24905864417E+01  0.10500000000E+00 0. -1.
         13    1    6    6    0    0 -0.28806680519E+01  0.24377661140E+01  0.40312769992E+00  0.37966418048E+01  0.10500000000E+00 0.  1.
</event>
<event>
11    0  0.3485800E-009  0.9118800E+02  0.7816531E-02  0.1126479E+00
         25   -1    0    0    0    0  0.00000000000E+00  0.00000000000E+00  0.99999998245E-14  0.12500000000E+03  0.12500000000E+03 0.  0.
    3000001    1    3    3    0    0 -0.43247520790E+02 -0.28762391139E+02  0.20278270315E+01  0.51987837818E+02  0.10000000000E+01 0. -1.
    1000022    2    1    0    0    0 -0.50106135660E+02 -0.35969157067E+02 -0.13581616189E+01  0.62499998042E+02  0.10000003074E+02 0.  0.
    3000022    2    3    3    0    0 -0.68586148697E+01 -0.72067659276E+01 -0.33859886504E+01  0.10512160224E+02  0.25004075187E+00 0.  0.
    1000022    2    1    0    0    0  0.50106135660E+02  0.35969157067E+02  0.13581616189E+01  0.62500001958E+02  0.10000027543E+02 0.  0.
    3000022    2    5    5    0    0  0.55288317600E+01  0.13208226983E+01 -0.17313127413E+01  0.59474781474E+01  0.24999854807E+00 0.  0.
        -13    1    4    4    0    0 -0.41466610587E+01 -0.42919200146E+01 -0.20776095283E+01  0.63200365267E+01  0.10500000000E+00 0.  1.
         13    1    4    4    0    0 -0.27119538110E+01 -0.29148459130E+01 -0.13083791221E+01  0.41921236977E+01  0.10500000000E+00 0. -1.
    3000001    1    5    5    0    0  0.44577303900E+02  0.34648334368E+02  0.30894743602E+01  0.56552523810E+02  0.10000000000E+01 0. -1.
        -13    1    6    6    0    0  0.28319253038E+01  0.69586917869E+00 -0.82009178610E+00  0.30311071208E+01  0.10500000000E+00 0. -1.
         13    1    6    6    0    0  0.26969064563E+01  0.62495351965E+00 -0.91122095522E+00  0.29163710266E+01  0.10500000000E+00 0.  1.
</event>
<event>
11    0  0.3485800E-009  0.9118800E+02  0.7816531E-02  0.1126479E+00
         25   -1    0    0    0    0  0.00000000000E+00  0.00000000000E+00  0.99999998245E-14  0.12500000000E+03  0.12500000000E+03 0.  0.
    3000001    1    3    3    0    0  0.22547248583E+02  0.31515659378E+01 -0.19988220813E+02  0.30312369716E+02  0.10000000000E+01 0.  1.
    1000022    2    1    0    0    0  0.49006772768E+02 -0.26064623681E+01 -0.37387062827E+02  0.62499999795E+02  0.10000004219E+02 0.  0.
    3000022    2    3    3    0    0  0.26459524185E+02 -0.57580283059E+01 -0.17398842014E+02  0.32187630079E+02  0.25003326718E+00 0.  0.
    1000022    2    1    0    0    0 -0.49006772768E+02  0.26064623681E+01  0.37387062827E+02  0.62500000205E+02  0.10000006775E+02 0.  0.
    3000022    2    5    5    0    0 -0.17371773342E+01 -0.15863880712E+01  0.58113441908E+00  0.24361091111E+01  0.24999637114E+00 0.  0.
        -13    1    4    4    0    0  0.13185707119E+02 -0.28671551771E+01 -0.85895366403E+01  0.15996081262E+02  0.10500000000E+00 0.  1.
         13    1    4    4    0    0  0.13273817066E+02 -0.28908731288E+01 -0.88093053738E+01  0.16191548818E+02  0.10500000000E+00 0. -1.
    3000001    1    5    5    0    0 -0.47269595434E+02  0.41928504393E+01  0.36805928408E+02  0.60063891093E+02  0.10000000000E+01 0. -1.
        -13    1    6    6    0    0 -0.43712095664E+00 -0.42612705895E+00  0.17801469993E+00  0.64449455738E+00  0.10500000000E+00 0.  1.
         13    1    6    6    0    0 -0.13000563775E+01 -0.11602610122E+01  0.40311971915E+00  0.17916145538E+01  0.10500000000E+00 0. -1.
</event>
<event>
11    0  0.3485800E-009  0.9118800E+02  0.7816531E-02  0.1126479E+00
         25   -1    0    0    0    0  0.00000000000E+00  0.00000000000E+00  0.99999998245E-14  0.12500000000E+03  0.12500000000E+03 0.  0.
    3000001    1    3    3    0    0 -0.66220386949E+01 -0.38824476546E+02  0.14721957549E+02  0.42058618732E+02  0.10000000000E+01 0.  1.
    1000022    2    1    0    0    0 -0.15141969384E+02 -0.54400885513E+02  0.24849833425E+02  0.62500001221E+02  0.10000017499E+02 0.  0.
    3000022    2    3    3    0    0 -0.85199306895E+01 -0.15576408967E+02  0.10127875876E+02  0.20441382489E+02  0.25002612666E+00 0.  0.
    1000022    2    1    0    0    0  0.15141969384E+02  0.54400885513E+02 -0.24849833425E+02  0.62499998779E+02  0.10000002237E+02 0.  0.
    3000022    2    5    5    0    0  0.43284117113E+01  0.16370929556E+02 -0.12559521887E+02  0.21084273055E+02  0.24999546292E+00 0.  0.
        -13    1    4    4    0    0 -0.50565686043E+01 -0.93483855505E+01  0.60178438183E+01  0.12214199428E+02  0.10500000000E+00 0.  1.
         13    1    4    4    0    0 -0.34633620851E+01 -0.62280234163E+01  0.41100320574E+01  0.82271830610E+01  0.10500000000E+00 0. -1.
    3000001    1    5    5    0    0  0.10813557673E+02  0.38029955956E+02 -0.12290311538E+02  0.41415725724E+02  0.10000000000E+01 0.  1.
        -13    1    6    6    0    0  0.21548163939E+01  0.84097053968E+01 -0.64219925419E+01  0.10799045873E+02  0.10500000000E+00 0. -1.
         13    1    6    6    0    0  0.21735953174E+01  0.79612241596E+01 -0.61375293449E+01  0.10285227182E+02  0.10500000000E+00 0.  1.
</event>
<event>
11    0  0.3485800E-009  0.9118800E+02  0.7816531E-02  0.1126479E+00
         25   -1    0    0    0    0  0.00000000000E+00  0.00000000000E+00  0.99999998245E-14  0.12500000000E+03  0.12500000000E+03 0.  0.
    3000001    1    3    3    0    0  0.12260499925E+02 -0.22241662526E+02  0.26164934518E+02  0.36477598724E+02  0.10000000000E+01 0. -1.
    1000022    2    1    0    0    0  0.15793010424E+02 -0.33419847171E+02  0.49395790365E+02  0.62500004871E+02  0.10000056997E+02 0.  0.
    3000022    2    3    3    0    0  0.35325104984E+01 -0.11178184645E+02  0.23230855847E+02  0.26022406147E+02  0.25003184295E+00 0.  0.
    1000022    2    1    0    0    0 -0.15793010424E+02  0.33419847171E+02 -0.49395790365E+02  0.62499995129E+02  0.99999961059E+01 0.  0.
    3000022    2    5    5    0    0 -0.90434453746E+01  0.24265921439E+02 -0.27303476934E+02  0.37631917250E+02  0.24999136428E+00 0.  0.
        -13    1    4    4    0    0  0.16039395703E+01 -0.52085712193E+01  0.10679986062E+02  0.11990619816E+02  0.10500000000E+00 0. -1.
         13    1    4    4    0    0  0.19285709280E+01 -0.59696134256E+01  0.12550869785E+02  0.14031786331E+02  0.10500000000E+00 0.  1.
    3000001    1    5    5    0    0 -0.67495650490E+01  0.91539257322E+01 -0.22092313431E+02  0.24868077879E+02  0.10000000000E+01 0.  1.
        -13    1    6    6    0    0 -0.60897322762E+01  0.16474206518E+02 -0.18487512713E+02  0.25500656284E+02  0.10500000000E+00 0.  1.
         13    1    6    6    0    0 -0.29537130985E+01  0.77917149209E+01 -0.88159642210E+01  0.12131260966E+02  0.10500000000E+00 0. -1.
</event>
<event>
11    0  0.3485800E-009  0.9118800E+02  0.7816531E-02  0.1126479E+00
         25   -1    0    0    0    0  0.00000000000E+00  0.00000000000E+00  0.99999998245E-14  0.12500000000E+03  0.12500000000E+03 0.  0.
    3000001    1    3    3    0    0  0.58040615505E+01 -0.37546815550E+02  0.73285834913E+01  0.38706054105E+02  0.10000000000E+01 0.  1.
    1000022    2    1    0    0    0  0.37829298895E+01 -0.61237896427E+02  0.64699534526E+01  0.62500003598E+02  0.99999817384E+01 0.  0.
    3000022    2    3    3    0    0 -0.20211316609E+01 -0.23691080877E+02 -0.85863003873E+00  0.23793949493E+02  0.25000123265E+00 0.  0.
    1000022    2    1    0    0    0 -0.37829298895E+01  0.61237896427E+02 -0.64699534526E+01  0.62499996402E+02  0.99999367626E+01 0.  0.
    3000022    2    5    5    0    0 -0.36814859044E+01  0.60982960232E+02 -0.60968384505E+01  0.61397953685E+02  0.25000100566E+00 0.  0.
        -13    1    4    4    0    0 -0.12810122061E+01 -0.14290589736E+02 -0.52966426983E+00  0.14358047100E+02  0.10500000000E+00 0.  1.
         13    1    4    4    0    0 -0.74011945482E+00 -0.94004911410E+01 -0.32896576890E+00  0.94359023934E+01  0.10500000000E+00 0. -1.
    3000001    1    5    5    0    0 -0.10144398513E+00  0.25493619491E+00 -0.37311500207E+00  0.11020427171E+01  0.10000000000E+01 0. -1.
        -13    1    6    6    0    0 -0.11722378681E+01  0.19573946934E+02 -0.20072202681E+01  0.19711760409E+02  0.10500000000E+00 0. -1.
         13    1    6    6    0    0 -0.25092480363E+01  0.41409013297E+02 -0.40896181824E+01  0.41686193276E+02  0.10500000000E+00 0.  1.
</event>
<event>
11    0  0.3485800E-009  0.9118800E+02  0.7816531E-02  0.1126479E+00
         25   -1    0    0    0    0  0.00000000000E+00  0.00000000000E+00  0.99999998245E-14  0.12500000000E+03  0.12500000000E+03 0.  0.
    3000001    1    3    3    0    0  0.34771781406E+02 -0.66109275459E+01 -0.86489745835E+01  0.36449772379E+02  0.10000000000E+01 0. -1.
    1000022    2    1    0    0    0  0.60424129289E+02 -0.35122047493E+01 -0.11951534788E+02  0.62500001661E+02  0.10000002060E+02 0.  0.
    3000022    2    3    3    0    0  0.25652347884E+02  0.30987227966E+01 -0.33025602046E+01  0.26050229281E+02  0.25001359806E+00 0.  0.
    1000022    2    1    0    0    0 -0.60424129289E+02  0.35122047493E+01  0.11951534788E+02  0.62499998339E+02  0.99999813027E+01 0.  0.
    3000022    2    5    5    0    0 -0.22888266885E+02 -0.74656100308E+00  0.12306127177E+00  0.22902134282E+02  0.24999253667E+00 0.  0.
        -13    1    4    4    0    0  0.16361460276E+02  0.20153507488E+01 -0.21511190322E+01  0.16625202528E+02  0.10500000000E+00 0.  1.
         13    1    4    4    0    0  0.92908876071E+01  0.10833720478E+01 -0.11514411724E+01  0.94250267530E+01  0.10500000000E+00 0. -1.
    3000001    1    5    5    0    0 -0.37535862404E+02  0.42587657524E+01  0.11828473516E+02  0.39597864057E+02  0.10000000000E+01 0.  1.
        -13    1    6    6    0    0 -0.11777227307E+02 -0.32385245326E+00  0.94208346412E-01  0.11782523655E+02  0.10500000000E+00 0.  1.
         13    1    6    6    0    0 -0.11111039578E+02 -0.42270854982E+00  0.28852925357E-01  0.11119610627E+02  0.10500000000E+00 0. -1.
</event>
<event>
11    0  0.3485800E-009  0.9118800E+02  0.7816531E-02  0.1126479E+00
         25   -1    0    0    0    0  0.00000000000E+00  0.00000000000E+00  0.99999998245E-14  0.12500000000E+03  0.12500000000E+03 0.  0.
    3000001    1    3    3    0    0  0.37828390430E+01  0.75652857785E+01 -0.12547200114E+02  0.15164948099E+02  0.10000000000E+01 0. -1.
    1000022    2    1    0    0    0  0.28336964192E+02  0.36188119299E+02 -0.41154415405E+02  0.62499997750E+02  0.10000014672E+02 0.  0.
    3000022    2    3    3    0    0  0.24554125149E+02  0.28622833520E+02 -0.28607215291E+02  0.47335049651E+02  0.24999644812E+00 0.  0.
    1000022    2    1    0    0    0 -0.28336964192E+02 -0.36188119299E+02  0.41154415405E+02  0.62500002250E+02  0.10000042794E+02 0.  0.
    3000022    2    5    5    0    0 -0.25095699921E+02 -0.32426641345E+02  0.40045930471E+02  0.57315096338E+02  0.24999485187E+00 0.  0.
        -13    1    4    4    0    0  0.11663676296E+02  0.13700158212E+02 -0.13650508876E+02  0.22585019312E+02  0.10500000000E+00 0.  1.
         13    1    4    4    0    0  0.12890448853E+02  0.14922675309E+02 -0.14956706414E+02  0.24750030339E+02  0.10500000000E+00 0. -1.
    3000001    1    5    5    0    0 -0.32412642708E+01 -0.37614779532E+01  0.11084849337E+01  0.51849059118E+01  0.10000000000E+01 0. -1.
        -13    1    6    6    0    0 -0.97937511708E+01 -0.12578387232E+02  0.15512704255E+02  0.22243839723E+02  0.10500000000E+00 0.  1.
         13    1    6    6    0    0 -0.15301948750E+02 -0.19848254114E+02  0.24533226217E+02  0.35071256615E+02  0.10500000000E+00 0. -1.
</event>
<event>
11    0  0.3485800E-009  0.9118800E+02  0.7816531E-02  0.1126479E+00
         25   -1    0    0    0    0  0.00000000000E+00  0.00000000000E+00  0.99999998245E-14  0.12500000000E+03  0.12500000000E+03 0.  0.
    3000001    1    3    3    0    0  0.27441514025E+01 -0.32094351534E+02 -0.15278337514E+02  0.35665184207E+02  0.10000000000E+01 0.  1.
    1000022    2    1    0    0    0  0.40685357251E+01 -0.58692092507E+02 -0.18572433880E+02  0.62500000994E+02  0.10000005909E+02 0.  0.
    3000022    2    3    3    0    0  0.13243843226E+01 -0.26597740973E+02 -0.32940963653E+01  0.26834816787E+02  0.25000481488E+00 0.  0.
    1000022    2    1    0    0    0 -0.40685357251E+01  0.58692092507E+02  0.18572433880E+02  0.62499999006E+02  0.99999934877E+01 0.  0.
    3000022    2    5    5    0    0 -0.44845607534E+01  0.17433355854E+02  0.23585704987E+01  0.18156501255E+02  0.25000311986E+00 0.  0.
        -13    1    4    4    0    0  0.61282903924E+00 -0.13661394125E+02 -0.16840036906E+01  0.13778829496E+02  0.10500000000E+00 0.  1.
         13    1    4    4    0    0  0.71155528339E+00 -0.12936346849E+02 -0.16100926747E+01  0.13055987291E+02  0.10500000000E+00 0. -1.
    3000001    1    5    5    0    0  0.41602502825E+00  0.41258736653E+02  0.16213863381E+02  0.44343497751E+02  0.10000000000E+01 0.  1.
        -13    1    6    6    0    0 -0.21979555224E+01  0.85324546670E+01  0.10861776626E+01  0.88783218030E+01  0.10500000000E+00 0. -1.
         13    1    6    6    0    0 -0.22866052309E+01  0.89009011868E+01  0.12723928361E+01  0.92781794523E+01  0.10500000000E+00 0.  1.
</event>
<event>
11    0  0.3485800E-009  0.9118800E+02  0.7816531E-02  0.1126479E+00
         25   -1    0    0    0    0  0.00000000000E+00  0.00000000000E+00  0.99999998245E-14  0.12500000000E+03  0.12500000000E+03 0.  0.
    3000001    1    3    3    0    0 -0.18002498278E+02  0.20328907958E+02  0.42311407844E+01  0.27500127188E+02  0.10000000000E+01 0. -1.
    1000022    2    1    0    0    0 -0.32076291823E+02  0.52285941437E+02  0.65986195331E+01  0.62500000218E+02  0.10000003920E+02 0.  0.
    3000022    2    3    3    0    0 -0.14073793545E+02  0.31957033479E+02  0.23674787487E+01  0.34999873030E+02  0.25000589903E+00 0.  0.
    1000022    2    1    0    0    0  0.32076291823E+02 -0.52285941437E+02 -0.65986195331E+01  0.62499999782E+02  0.10000001197E+02 0.  0.
    3000022    2    5    5    0    0  0.13507474065E+02 -0.18767457542E+02  0.20179528376E+01  0.23212150834E+02  0.24998894842E+00 0.  0.
        -13    1    4    4    0    0 -0.50100385143E+01  0.11295456697E+02  0.88488582919E+00  0.12388780240E+02  0.10500000000E+00 0. -1.
         13    1    4    4    0    0 -0.90637550309E+01  0.20661576782E+02  0.14825929195E+01  0.22611092790E+02  0.10500000000E+00 0.  1.
    3000001    1    5    5    0    0  0.18568817758E+02 -0.33518483895E+02 -0.86165723707E+01  0.39287848949E+02  0.10000000000E+01 0.  1.
        -13    1    6    6    0    0  0.74217089124E+01 -0.10422110164E+02  0.11330592412E+01  0.12845115480E+02  0.10500000000E+00 0.  1.
         13    1    6    6    0    0  0.60857651524E+01 -0.83453473782E+01  0.88489359641E+00  0.10367035354E+02  0.10500000000E+00 0. -1.
</event>
<event>
11    0  0.3485800E-009  0.9118800E+02  0.7816531E-02  0.1126479E+00
         25   -1    0    0    0    0  0.00000000000E+00  0.00000000000E+00  0.99999998245E-14  0.12500000000E+03  0.12500000000E+03 0.  0.
    3000001    1    3    3    0    0  0.45336012251E+01  0.36885457081E+02 -0.14246496333E+02  0.39812725879E+02  0.10000000000E+01 0.  1.
    1000022    2    1    0    0    0  0.64274082049E+01  0.54172840636E+02 -0.28813918882E+02  0.62500000490E+02  0.99999950562E+01 0.  0.
    3000022    2    3    3    0    0  0.18938069798E+01  0.17287383555E+02 -0.14567422548E+02  0.22687274611E+02  0.24998903252E+00 0.  0.
    1000022    2    1    0    0    0 -0.64274082049E+01 -0.54172840636E+02  0.28813918882E+02  0.62499999510E+02  0.99999889357E+01 0.  0.
    3000022    2    5    5    0    0  0.25949855240E+01 -0.10978831332E+02  0.49220154337E+01  0.12310866437E+02  0.25001841197E+00 0.  0.
        -13    1    4    4    0    0  0.49845454427E+00  0.49246754482E+01 -0.41389120606E+01  0.64531002819E+01  0.10500000000E+00 0.  1.
         13    1    4    4    0    0  0.13953524356E+01  0.12362708107E+02 -0.10428510488E+02  0.16234174329E+02  0.10500000000E+00 0. -1.
    3000001    1    5    5    0    0 -0.90223937290E+01 -0.43194009303E+02  0.23891903448E+02  0.50189133074E+02  0.10000000000E+01 0.  1.
        -13    1    6    6    0    0  0.92164082108E+00 -0.37250139782E+01  0.16337085360E+01  0.41719515243E+01  0.10500000000E+00 0.  1.
         13    1    6    6    0    0  0.16733447029E+01 -0.72538173539E+01  0.32883068977E+01  0.81389149125E+01  0.10500000000E+00 0. -1.
</event>
<event>
11    0  0.3485800E-009  0.9118800E+02  0.7816531E-02  0.1126479E+00
         25   -1    0    0    0    0  0.00000000000E+00  0.00000000000E+00  0.99999998245E-14  0.12500000000E+03  0.12500000000E+03 0.  0.
    3000001    1    3    3    0    0  0.29836753574E+02  0.72518635740E+01 -0.39544944987E+02  0.50076182594E+02  0.10000000000E+01 0. -1.
    1000022    2    1    0    0    0  0.36817255358E+02  0.41272551739E+01 -0.49332599382E+02  0.62500000890E+02  0.10000011103E+02 0.  0.
    3000022    2    3    3    0    0  0.69805017844E+01 -0.31246084001E+01 -0.97876543949E+01  0.12423818296E+02  0.24999937071E+00 0.  0.
    1000022    2    1    0    0    0 -0.36817255358E+02 -0.41272551739E+01  0.49332599382E+02  0.62499999110E+02  0.99999999781E+01 0.  0.
    3000022    2    5    5    0    0 -0.33378692375E+02 -0.55912882866E+01  0.47206883698E+02  0.58085729576E+02  0.25000518706E+00 0.  0.
        -13    1    4    4    0    0  0.46195524521E+01 -0.21042236680E+01 -0.64253132928E+01  0.81892428230E+01  0.10500000000E+00 0. -1.
         13    1    4    4    0    0  0.23609493323E+01 -0.10203847321E+01 -0.33623411020E+01  0.42345754731E+01  0.10500000000E+00 0.  1.
    3000001    1    5    5    0    0 -0.34385629837E+01  0.14640331127E+01  0.21257156847E+01  0.44142695341E+01  0.10000000000E+01 0.  1.
        -13    1    6    6    0    0 -0.10415042990E+02 -0.17698071103E+01  0.14808474484E+02  0.18190857023E+02  0.10500000000E+00 0. -1.
         13    1    6    6    0    0 -0.22963649385E+02 -0.38214811763E+01  0.32398409213E+02  0.39894872553E+02  0.10500000000E+00 0.  1.
</event>
<event>
11    0  0.3485800E-009  0.9118800E+02  0.7816531E-02  0.1126479E+00
         25   -1    0    0    0    0  0.00000000000E+00  0.00000000000E+00  0.99999998245E-14  0.12500000000E+03  0.12500000000E+03 0.  0.
    3000001    1    3    3    0    0  0.25719988662E+02  0.25421061622E+02  0.18151372107E+02  0.40474936691E+02  0.10000000000E+01 0.  1.
    1000022    2    1    0    0    0  0.33747532324E+02  0.43477448446E+02  0.27875894863E+02  0.62499999784E+02  0.99999998607E+01 0.  0.
    3000022    2    3    3    0    0  0.80275436615E+01  0.18056386824E+02  0.97245227560E+01  0.22025063092E+02  0.24999805289E+00 0.  0.
    1000022    2    1    0    0    0 -0.33747532324E+02 -0.43477448446E+02 -0.27875894863E+02  0.62500000216E+02  0.10000002566E+02 0.  0.
    3000022    2    5    5    0    0 -0.32342123402E+02 -0.37708296603E+02 -0.26572547136E+02  0.56339074756E+02  0.25000848264E+00 0.  0.
        -13    1    4    4    0    0  0.43288865624E+01  0.96747787334E+01  0.52853705202E+01  0.11844271567E+02  0.10500000000E+00 0.  1.
         13    1    4    4    0    0  0.36986570991E+01  0.83816080904E+01  0.44391522357E+01  0.10180791526E+02  0.10500000000E+00 0. -1.
    3000001    1    5    5    0    0 -0.14054089212E+01 -0.57691518432E+01 -0.13033477270E+01  0.61609254599E+01  0.10000000000E+01 0.  1.
        -13    1    6    6    0    0 -0.14616735929E+02 -0.17008588130E+02 -0.12067289413E+02  0.25467067719E+02  0.10500000000E+00 0. -1.
         13    1    6    6    0    0 -0.17725387473E+02 -0.20699708473E+02 -0.14505257723E+02  0.30872007038E+02  0.10500000000E+00 0.  1.
</event>
<event>
11    0  0.3485800E-009  0.9118800E+02  0.7816531E-02  0.1126479E+00
         25   -1    0    0    0    0  0.00000000000E+00  0.00000000000E+00  0.99999998245E-14  0.12500000000E+03  0.12500000000E+03 0.  0.
    3000001    1    3    3    0    0  0.45466695824E+02 -0.46634592888E+01 -0.31779208467E+02  0.55676623214E+02  0.10000000000E+01 0. -1.
    1000022    2    1    0    0    0  0.51295759352E+02 -0.20964408800E+01 -0.34214033177E+02  0.62500000668E+02  0.10000001269E+02 0.  0.
    3000022    2    3    3    0    0  0.58290635276E+01  0.25670184088E+01 -0.24348247107E+01  0.68233774542E+01  0.25008676704E+00 0.  0.
    1000022    2    1    0    0    0 -0.51295759352E+02  0.20964408800E+01  0.34214033177E+02  0.62499999332E+02  0.99999929210E+01 0.  0.
    3000022    2    5    5    0    0 -0.19095876679E+02 -0.20025113432E+01  0.81548026020E+01  0.20862067688E+02  0.25000979839E+00 0.  0.
        -13    1    4    4    0    0  0.44862144737E+01  0.19720957032E+01 -0.18635292365E+01  0.52439534687E+01  0.10500000000E+00 0.  1.
         13    1    4    4    0    0  0.13428490539E+01  0.59492270566E+00 -0.57129547421E+00  0.15794239855E+01  0.10500000000E+00 0. -1.
    3000001    1    5    5    0    0 -0.32199882673E+02  0.40989522232E+01  0.26059230575E+02  0.41637931645E+02  0.10000000000E+01 0. -1.
        -13    1    6    6    0    0 -0.10822243987E+02 -0.10777913298E+01  0.45829165224E+01  0.11802404328E+02  0.10500000000E+00 0. -1.
         13    1    6    6    0    0 -0.82736326917E+01 -0.92472001338E+00  0.35718860797E+01  0.90596633595E+01  0.10500000000E+00 0.  1.
</event>
<event>
11    0  0.3485800E-009  0.9118800E+02  0.7816531E-02  0.1126479E+00
         25   -1    0    0    0    0  0.00000000000E+00  0.00000000000E+00  0.99999998245E-14  0.12500000000E+03  0.12500000000E+03 0.  0.
    3000001    1    3    3    0    0 -0.25662632567E+02 -0.38312397042E+02 -0.35489493227E+01  0.46260193673E+02  0.10000000000E+01 0. -1.
    1000022    2    1    0    0    0 -0.29280825027E+02 -0.54040704674E+02 -0.53371989359E+01  0.62500000076E+02  0.99999920588E+01 0.  0.
    3000022    2    3    3    0    0 -0.36181924600E+01 -0.15728307632E+02 -0.17882496133E+01  0.16239806403E+02  0.24999540891E+00 0.  0.
    1000022    2    1    0    0    0  0.29280825027E+02  0.54040704674E+02  0.53371989359E+01  0.62499999924E+02  0.99999911028E+01 0.  0.
    3000022    2    5    5    0    0  0.16006409382E+02  0.27759502059E+02  0.76625673636E+01  0.32948027741E+02  0.24999500899E+00 0.  0.
        -13    1    4    4    0    0 -0.22955445721E+01 -0.97830269787E+01 -0.11552620622E+01  0.10115473157E+02  0.10500000000E+00 0. -1.
         13    1    4    4    0    0 -0.13226478880E+01 -0.59452806529E+01 -0.63298755108E+00  0.61243332467E+01  0.10500000000E+00 0.  1.
    3000001    1    5    5    0    0  0.13274415645E+02  0.26281202614E+02 -0.23253684276E+01  0.29551972183E+02  0.10000000000E+01 0.  1.
        -13    1    6    6    0    0  0.76033035879E+01  0.13075048789E+02  0.35774468608E+01  0.15542724257E+02  0.10500000000E+00 0. -1.
         13    1    6    6    0    0  0.84031057943E+01  0.14684453271E+02  0.40851205028E+01  0.17405303484E+02  0.10500000000E+00 0.  1.
</event>
<event>
11    0  0.3485800E-009  0.9118800E+02  0.7816531E-02  0.1126479E+00
         25   -1    0    0    0    0  0.00000000000E+00  0.00000000000E+00  0.99999998245E-14  0.12500000000E+03  0.12500000000E+03 0.  0.
    3000001    1    3    3    0    0  0.77402257346E+01  0.38199041646E+02  0.42855056910E+02  0.57936463301E+02  0.10000000000E+01 0. -1.
    1000022    2    1    0    0    0  0.10832663206E+02  0.40684065531E+02  0.45096675393E+02  0.62500000088E+02  0.10000004965E+02 0.  0.
    3000022    2    3    3    0    0  0.30924374709E+01  0.24850238849E+01  0.22416184830E+01  0.45635367871E+01  0.25000272841E+00 0.  0.
    1000022    2    1    0    0    0 -0.10832663206E+02 -0.40684065531E+02 -0.45096675393E+02  0.62499999912E+02  0.10000003861E+02 0.  0.
    3000022    2    5    5    0    0 -0.34301303577E+01 -0.69813538908E+01 -0.14100672215E+02  0.16105792542E+02  0.25000014179E+00 0.  0.
        -13    1    4    4    0    0  0.10100513768E+01  0.79157373855E+00  0.67019877209E+00  0.14515454390E+01  0.10500000000E+00 0. -1.
         13    1    4    4    0    0  0.20823860941E+01  0.16934501464E+01  0.15714197109E+01  0.31119913481E+01  0.10500000000E+00 0.  1.
    3000001    1    5    5    0    0 -0.74025328478E+01 -0.33702711640E+02 -0.30996003178E+02  0.46394207370E+02  0.10000000000E+01 0. -1.
        -13    1    6    6    0    0 -0.20755256665E+01 -0.41498439651E+01 -0.82973341943E+01  0.95071442326E+01  0.10500000000E+00 0.  1.
         13    1    6    6    0    0 -0.13546046912E+01 -0.28315099257E+01 -0.58033380203E+01  0.65986483091E+01  0.10500000000E+00 0. -1.
</event>
<event>
11    0  0.3485800E-009  0.9118800E+02  0.7816531E-02  0.1126479E+00
         25   -1    0    0    0    0  0.00000000000E+00  0.00000000000E+00  0.99999998245E-14  0.12500000000E+03  0.12500000000E+03 0.  0.
    3000001    1    3    3    0    0  0.22863078610E+01  0.41707117999E+01 -0.43590513670E+01  0.65286575476E+01  0.10000000000E+01 0.  1.
    1000022    2    1    0    0    0  0.19224000785E+01  0.54471365502E+02 -0.28903712448E+02  0.62499999194E+02  0.10000001212E+02 0.  0.
    3000022    2    3    3    0    0 -0.36390778251E+00  0.50300653702E+02 -0.24544661081E+02  0.55971341646E+02  0.25001275727E+00 0.  0.
    1000022    2    1    0    0    0 -0.19224000785E+01 -0.54471365502E+02  0.28903712448E+02  0.62500000806E+02  0.10000011290E+02 0.  0.
    3000022    2    5    5    0    0  0.35074865489E+00 -0.51514702270E+02  0.27456719805E+02  0.58376549541E+02  0.24999846858E+00 0.  0.
        -13    1    4    4    0    0 -0.20379134679E+00  0.28594079554E+02 -0.14025645601E+02  0.31849531802E+02  0.10500000000E+00 0.  1.
         13    1    4    4    0    0 -0.16011643572E+00  0.21706574148E+02 -0.10519015480E+02  0.24121809845E+02  0.10500000000E+00 0. -1.
    3000001    1    5    5    0    0 -0.22731487334E+01 -0.29566632319E+01  0.14469926424E+01  0.41234512654E+01  0.10000000000E+01 0. -1.
        -13    1    6    6    0    0  0.27063093901E+00 -0.36384360112E+02  0.19349742422E+02  0.41210659527E+02  0.10500000000E+00 0. -1.
         13    1    6    6    0    0  0.80117715881E-01 -0.15130342158E+02  0.81069773839E+01  0.17165890014E+02  0.10500000000E+00 0.  1.
</event>
<event>
11    0  0.3485800E-009  0.9118800E+02  0.7816531E-02  0.1126479E+00
         25   -1    0    0    0    0  0.00000000000E+00  0.00000000000E+00  0.99999998245E-14  0.12500000000E+03  0.12500000000E+03 0.  0.
    3000001    1    3    3    0    0  0.12791538353E+02  0.23033978041E+02 -0.36316806342E+02  0.44878703421E+02  0.10000000000E+01 0. -1.
    1000022    2    1    0    0    0  0.16703259676E+02  0.26525265882E+02 -0.53138133382E+02  0.62500002898E+02  0.10000026452E+02 0.  0.
    3000022    2    3    3    0    0  0.39117213222E+01  0.34912878404E+01 -0.16821327039E+02  0.17621299477E+02  0.24999479111E+00 0.  0.
    1000022    2    1    0    0    0 -0.16703259676E+02 -0.26525265882E+02  0.53138133382E+02  0.62499997102E+02  0.99999902305E+01 0.  0.
    3000022    2    5    5    0    0 -0.17220899247E+02 -0.20586808970E+02  0.44142225793E+02  0.51662120255E+02  0.24999365525E+00 0.  0.
        -13    1    4    4    0    0  0.99848653146E+00  0.85824376147E+00 -0.41943011842E+01  0.43973566073E+01  0.10500000000E+00 0.  1.
         13    1    4    4    0    0  0.29132347907E+01  0.26330440789E+01 -0.12627025855E+02  0.13223942869E+02  0.10500000000E+00 0. -1.
    3000001    1    5    5    0    0  0.51763957120E+00 -0.59384569113E+01  0.89959075889E+01  0.10837876847E+02  0.10000000000E+01 0.  1.
        -13    1    6    6    0    0 -0.78863118600E+01 -0.93515123782E+01  0.20206853547E+02  0.23621444786E+02  0.10500000000E+00 0.  1.
         13    1    6    6    0    0 -0.93345873868E+01 -0.11235296592E+02  0.23935372245E+02  0.28040675468E+02  0.10500000000E+00 0. -1.
</event>
<event>
11    0  0.3485800E-009  0.9118800E+02  0.7816531E-02  0.1126479E+00
         25   -1    0    0    0    0  0.00000000000E+00  0.00000000000E+00  0.99999998245E-14  0.12500000000E+03  0.12500000000E+03 0.  0.
    3000001    1    3    3    0    0 -0.31303439726E+02  0.42877691013E+02 -0.29706845486E+02  0.60843228005E+02  0.10000000000E+01 0.  1.
    1000022    2    1    0    0    0 -0.32867253474E+02  0.43191185396E+02 -0.29334542270E+02  0.62500003223E+02  0.10000009290E+02 0.  0.
    3000022    2    3    3    0    0 -0.15638137483E+01  0.31349438290E+00  0.37230321562E+00  0.16567752183E+01  0.25000454373E+00 0.  0.
    1000022    2    1    0    0    0  0.32867253474E+02 -0.43191185396E+02  0.29334542270E+02  0.62499996777E+02  0.99999690015E+01 0.  0.
    3000022    2    5    5    0    0  0.31528645323E+02 -0.43179157950E+02  0.28886878062E+02  0.60770135602E+02  0.24999948459E+00 0.  0.
        -13    1    4    4    0    0 -0.40625292273E+00  0.79033871678E-01  0.65246010214E-01  0.43193730095E+00  0.10500000000E+00 0. -1.
         13    1    4    4    0    0 -0.11575608256E+01  0.23446051122E+00  0.30705720541E+00  0.12248379173E+01  0.10500000000E+00 0.  1.
    3000001    1    5    5    0    0  0.13386081511E+01 -0.12027446665E-01  0.44766420813E+00  0.17298611750E+01  0.10000000000E+01 0. -1.
        -13    1    6    6    0    0  0.15720435856E+02 -0.21481241562E+02  0.14452163624E+02  0.30289468482E+02  0.10500000000E+00 0.  1.
         13    1    6    6    0    0  0.15808209468E+02 -0.21697916388E+02  0.14434714438E+02  0.30480667119E+02  0.10500000000E+00 0. -1.
</event>
<event>
11    0  0.3485800E-009  0.9118800E+02  0.7816531E-02  0.1126479E+00
         25   -1    0    0    0    0  0.00000000000E+00  0.00000000000E+00  0.99999998245E-14  0.12500000000E+03  0.12500000000E+03 0.  0.
    3000001    1    3    3    0    0  0.26875312731E+02 -0.30725581042E+02  0.24967851167E+02  0.47861648077E+02  0.10000000000E+01 0. -1.
    1000022    2    1    0    0    0  0.35012677004E+02 -0.42580566819E+02  0.27699417653E+02  0.62500000298E+02  0.10000003866E+02 0.  0.
    3000022    2    3    3    0    0  0.81373642727E+01 -0.11854985777E+02  0.27315664858E+01  0.14638352221E+02  0.25003038151E+00 0.  0.
    1000022    2    1    0    0    0 -0.35012677004E+02  0.42580566819E+02 -0.27699417653E+02  0.62499999702E+02  0.10000000144E+02 0.  0.
    3000022    2    5    5    0    0 -0.11992448246E+02  0.15301427813E+02 -0.15158522041E+02  0.24653514796E+02  0.24998661658E+00 0.  0.
        -13    1    4    4    0    0  0.52151835943E+01 -0.75080982337E+01  0.17666127945E+01  0.93113707248E+01  0.10500000000E+00 0. -1.
         13    1    4    4    0    0  0.29221806784E+01 -0.43468875431E+01  0.96495369129E+00  0.53269814957E+01  0.10500000000E+00 0.  1.
    3000001    1    5    5    0    0 -0.23020228758E+02  0.27279139006E+02 -0.12540895612E+02  0.37846484906E+02  0.10000000000E+01 0. -1.
        -13    1    6    6    0    0 -0.62756521425E+01  0.79299962167E+01 -0.78241607364E+01  0.12786601035E+02  0.10500000000E+00 0. -1.
         13    1    6    6    0    0 -0.57167961030E+01  0.73714315963E+01 -0.73343613046E+01  0.11866913761E+02  0.10500000000E+00 0.  1.
</event>
<event>
11    0  0.3485800E-009  0.9118800E+02  0.7816531E-02  0.1126479E+00
         25   -1    0    0    0    0  0.00000000000E+00  0.00000000000E+00  0.99999998245E-14  0.12500000000E+03  0.12500000000E+03 0.  0.
    3000001    1    3    3    0    0  0.14104851214E+02  0.24125645057E+02  0.43395649983E+02  0.51625342756E+02  0.10000000000E+01 0.  1.
    1000022    2    1    0    0    0  0.20995523361E+02  0.27338204196E+02  0.51166984055E+02  0.62499993662E+02  0.99999770324E+01 0.  0.
    3000022    2    3    3    0    0  0.68906721474E+01  0.32125591387E+01  0.77713340718E+01  0.10874650907E+02  0.25000044622E+00 0.  0.
    1000022    2    1    0    0    0 -0.20995523361E+02 -0.27338204196E+02 -0.51166984055E+02  0.62500006338E+02  0.10000056256E+02 0.  0.
    3000022    2    5    5    0    0 -0.36747866373E+01 -0.11546583302E+02 -0.13673592492E+02  0.18271761719E+02  0.25000387062E+00 0.  0.
        -13    1    4    4    0    0  0.25107584477E+01  0.12206628649E+01  0.29085805661E+01  0.40329631441E+01  0.10500000000E+00 0.  1.
         13    1    4    4    0    0  0.43799136997E+01  0.19918962738E+01  0.48627535056E+01  0.68416877624E+01  0.10500000000E+00 0. -1.
    3000001    1    5    5    0    0 -0.17320736724E+02 -0.15791620894E+02 -0.37493391563E+02  0.44228244618E+02  0.10000000000E+01 0.  1.
        -13    1    6    6    0    0 -0.14696279509E+01 -0.47966947313E+01 -0.56092419615E+01  0.75261349338E+01  0.10500000000E+00 0. -1.
         13    1    6    6    0    0 -0.22051586864E+01 -0.67498885703E+01 -0.80643505302E+01  0.10745626786E+02  0.10500000000E+00 0.  1.
</event>
<event>
11    0  0.3485800E-009  0.9118800E+02  0.7816531E-02  0.1126479E+00
         25   -1    0    0    0    0  0.00000000000E+00  0.00000000000E+00  0.99999998245E-14  0.12500000000E+03  0.12500000000E+03 0.  0.
    3000001    1    3    3    0    0 -0.16706839551E+02 -0.17970502723E+02 -0.90445657807E+00  0.24573878359E+02  0.10000000000E+01 0. -1.
    1000022    2    1    0    0    0 -0.46332121217E+02 -0.38989210010E+02 -0.11807902022E+02  0.62500003985E+02  0.99999997134E+01 0.  0.
    3000022    2    3    3    0    0 -0.29625281665E+02 -0.21018707287E+02 -0.10903445444E+02  0.37926125625E+02  0.25002527046E+00 0.  0.
    1000022    2    1    0    0    0  0.46332121217E+02  0.38989210010E+02  0.11807902022E+02  0.62499996015E+02  0.99999499051E+01 0.  0.
    3000022    2    5    5    0    0  0.12083021556E+02  0.86441168489E+01  0.71643598240E+01  0.16495778919E+02  0.25000885292E+00 0.  0.
        -13    1    4    4    0    0 -0.14590395644E+02 -0.10410219785E+02 -0.53298038551E+01  0.18699469381E+02  0.10500000000E+00 0. -1.
         13    1    4    4    0    0 -0.15034886021E+02 -0.10608487502E+02 -0.55736415888E+01  0.19226656244E+02  0.10500000000E+00 0.  1.
    3000001    1    5    5    0    0  0.34249099661E+02  0.30345093161E+02  0.46435421980E+01  0.46004217097E+02  0.10000000000E+01 0.  1.
        -13    1    6    6    0    0  0.47829849728E+01  0.34109238278E+01  0.27643480652E+01  0.64933806168E+01  0.10500000000E+00 0.  1.
         13    1    6    6    0    0  0.73000365832E+01  0.52331930211E+01  0.44000117588E+01  0.10002398302E+02  0.10500000000E+00 0. -1.
</event>
<event>
11    0  0.3485800E-009  0.9118800E+02  0.7816531E-02  0.1126479E+00
         25   -1    0    0    0    0  0.00000000000E+00  0.00000000000E+00  0.99999998245E-14  0.12500000000E+03  0.12500000000E+03 0.  0.
    3000001    1    3    3    0    0 -0.10427840922E+02  0.44801636118E+02 -0.17437267417E+02  0.49203503535E+02  0.10000000000E+01 0. -1.
    1000022    2    1    0    0    0 -0.81336553181E+01  0.57234013088E+02 -0.21549063913E+02  0.62499994007E+02  0.99999246199E+01 0.  0.
    3000022    2    3    3    0    0  0.22941856039E+01  0.12432376970E+02 -0.41117964964E+01  0.13296490473E+02  0.25000749704E+00 0.  0.
    1000022    2    1    0    0    0  0.81336553181E+01 -0.57234013088E+02  0.21549063913E+02  0.62500005993E+02  0.99999995320E+01 0.  0.
    3000022    2    5    5    0    0  0.16130851012E+01 -0.63629622634E+01  0.60037841849E+01  0.88992842652E+01  0.25000716703E+00 0.  0.
        -13    1    4    4    0    0  0.17644301498E+01  0.94625057431E+01 -0.31270555657E+01  0.10121350216E+02  0.10500000000E+00 0. -1.
         13    1    4    4    0    0  0.52975545417E+00  0.29698712269E+01 -0.98474093067E+00  0.31751402562E+01  0.10500000000E+00 0.  1.
    3000001    1    5    5    0    0  0.65205702169E+01 -0.50871050824E+02  0.15545279728E+02  0.53600721728E+02  0.10000000000E+01 0. -1.
        -13    1    6    6    0    0  0.51251192433E+00 -0.18655654447E+01  0.18011816129E+01  0.26454268283E+01  0.10500000000E+00 0.  1.
         13    1    6    6    0    0  0.11005731769E+01 -0.44973968187E+01  0.42026025721E+01  0.62538574369E+01  0.10500000000E+00 0. -1.
</event>
<event>
11    0  0.3485800E-009  0.9118800E+02  0.7816531E-02  0.1126479E+00
         25   -1    0    0    0    0  0.00000000000E+00  0.00000000000E+00  0.99999998245E-14  0.12500000000E+03  0.12500000000E+03 0.  0.
    3000001    1    3    3    0    0 -0.43313022584E+01  0.29776849108E+01 -0.23581069726E+01  0.58470039487E+01  0.10000000000E+01 0. -1.
    1000022    2    1    0    0    0 -0.33008942391E+02  0.51522658699E+02 -0.78787978188E+01  0.62500000786E+02  0.10000000298E+02 0.  0.
    3000022    2    3    3    0    0 -0.28677640133E+02  0.48544973788E+02 -0.55206908461E+01  0.56652996837E+02  0.24999905293E+00 0.  0.
    1000022    2    1    0    0    0  0.33008942391E+02 -0.51522658699E+02  0.78787978188E+01  0.62499999214E+02  0.99999904749E+01 0.  0.
    3000022    2    5    5    0    0  0.16980915733E+02 -0.22441897458E+02  0.80755147713E+01  0.29279117070E+02  0.24999379497E+00 0.  0.
        -13    1    4    4    0    0 -0.17216447775E+02  0.29043113085E+02 -0.32685899424E+01  0.33920542402E+02  0.10500000000E+00 0. -1.
         13    1    4    4    0    0 -0.11461192358E+02  0.19501860703E+02 -0.22521009037E+01  0.22732454435E+02  0.10500000000E+00 0.  1.
    3000001    1    5    5    0    0  0.16028026658E+02 -0.29080761241E+02 -0.19671695254E+00  0.33220882144E+02  0.10000000000E+01 0. -1.
        -13    1    6    6    0    0  0.10286557651E+02 -0.13578890439E+02  0.48239797931E+01  0.17705404257E+02  0.10500000000E+00 0. -1.
         13    1    6    6    0    0  0.66943580827E+01 -0.88630070195E+01  0.32515349782E+01  0.11573712813E+02  0.10500000000E+00 0.  1.
</event>
<event>
11    0  0.3485800E-009  0.9118800E+02  0.7816531E-02  0.1126479E+00
         25   -1    0    0    0    0  0.00000000000E+00  0.00000000000E+00  0.99999998245E-14  0.12500000000E+03  0.12500000000E+03 0.  0.
    3000001    1    3    3    0    0  0.85862968459E+01 -0.13434838408E+02  0.11599290107E+02  0.19742413925E+02  0.10000000000E+01 0.  1.
    1000022    2    1    0    0    0  0.33868202632E+02 -0.45517914697E+02  0.24234574238E+02  0.62500003281E+02  0.10000005687E+02 0.  0.
    3000022    2    3    3    0    0  0.25281905786E+02 -0.32083076289E+02  0.12635284131E+02  0.42757589356E+02  0.24999634236E+00 0.  0.
    1000022    2    1    0    0    0 -0.33868202632E+02  0.45517914697E+02 -0.24234574238E+02  0.62499996719E+02  0.99999646761E+01 0.  0.
    3000022    2    5    5    0    0 -0.90279516451E+00  0.14796949598E+01 -0.31018746769E+01  0.35621152010E+01  0.25000382174E+00 0.  0.
        -13    1    4    4    0    0  0.74685232173E+01 -0.95474461952E+01  0.37367358926E+01  0.12684903942E+02  0.10500000000E+00 0.  1.
         13    1    4    4    0    0  0.17813382568E+02 -0.22535630094E+02  0.88985482383E+01  0.30072685414E+02  0.10500000000E+00 0. -1.
    3000001    1    5    5    0    0 -0.32965407467E+02  0.44038219737E+02 -0.21132699561E+02  0.58937881518E+02  0.10000000000E+01 0.  1.
        -13    1    6    6    0    0 -0.30925471584E+00  0.42190724717E+00 -0.97485235551E+00  0.11113083818E+01  0.10500000000E+00 0.  1.
         13    1    6    6    0    0 -0.59354044868E+00  0.10577877126E+01 -0.21270223214E+01  0.24508068192E+01  0.10500000000E+00 0. -1.
</event>
<event>
11    0  0.3485800E-009  0.9118800E+02  0.7816531E-02  0.1126479E+00
         25   -1    0    0    0    0  0.00000000000E+00  0.00000000000E+00  0.99999998245E-14  0.12500000000E+03  0.12500000000E+03 0.  0.
    3000001    1    3    3    0    0  0.26910866204E+02  0.24643981381E+02  0.75024944920E+01  0.37266713858E+02  0.10000000000E+01 0. -1.
    1000022    2    1    0    0    0  0.46167804561E+02  0.40673488109E+02  0.45223276495E+01  0.62499998528E+02  0.99999777855E+01 0.  0.
    3000022    2    3    3    0    0  0.19256938357E+02  0.16029506728E+02 -0.29801668424E+01  0.25233284670E+02  0.25000003491E+00 0.  0.
    1000022    2    1    0    0    0 -0.46167804561E+02 -0.40673488109E+02 -0.45223276495E+01  0.62500001472E+02  0.99999961865E+01 0.  0.
    3000022    2    5    5    0    0 -0.53811382833E+00 -0.30855087568E+01  0.40813626118E+00  0.31684386873E+01  0.24999545320E+00 0.  0.
        -13    1    4    4    0    0  0.95385855105E+01  0.78746691573E+01 -0.15171524905E+01  0.12462255195E+02  0.10500000000E+00 0. -1.
         13    1    4    4    0    0  0.97183528462E+01  0.81548375709E+01 -0.14630143520E+01  0.12771029475E+02  0.10500000000E+00 0.  1.
    3000001    1    5    5    0    0 -0.45629690732E+02 -0.37587979352E+02 -0.49304639107E+01  0.59331562785E+02  0.10000000000E+01 0. -1.
        -13    1    6    6    0    0 -0.18203904907E+00 -0.12722807840E+01  0.21862487937E+00  0.13079214222E+01  0.10500000000E+00 0. -1.
         13    1    6    6    0    0 -0.35607477925E+00 -0.18132279729E+01  0.18951138181E+00  0.18605172651E+01  0.10500000000E+00 0.  1.
</event>
<event>
11    0  0.3485800E-009  0.9118800E+02  0.7816531E-02  0.1126479E+00
         25   -1    0    0    0    0  0.00000000000E+00  0.00000000000E+00  0.99999998245E-14  0.12500000000E+03  0.12500000000E+03 0.  0.
    3000001    1    3    3    0    0 -0.31740662376E+02  0.47241753156E+02  0.22461987610E+02  0.61194720170E+02  0.10000000000E+01 0. -1.
    1000022    2    1    0    0    0 -0.31484616385E+02  0.47470603305E+02  0.23696215177E+02  0.62500000126E+02  0.10000007748E+02 0.  0.
    3000022    2    3    3    0    0  0.25604599100E+00  0.22885014964E+00  0.12342275669E+01  0.13052799560E+01  0.25001227198E+00 0.  0.
    1000022    2    1    0    0    0  0.31484616385E+02 -0.47470603305E+02 -0.23696215177E+02  0.62499999874E+02  0.10000006173E+02 0.  0.
    3000022    2    5    5    0    0  0.19978509921E+00 -0.53260513669E+01 -0.23107469025E+01  0.58145327773E+01  0.25000584282E+00 0.  0.
        -13    1    4    4    0    0  0.93517747346E-01  0.16614898257E+00  0.55152649521E+00  0.59292286884E+00  0.10500000000E+00 0. -1.
         13    1    4    4    0    0  0.16252824366E+00  0.62701167068E-01  0.68270107166E+00  0.71235708713E+00  0.10500000000E+00 0.  1.
    3000001    1    5    5    0    0  0.31284831286E+02 -0.42144551938E+02 -0.21385468274E+02  0.56685467097E+02  0.10000000000E+01 0. -1.
        -13    1    6    6    0    0  0.11981972861E+00 -0.25229894220E+01 -0.11634324644E+01  0.27828820474E+01  0.10500000000E+00 0.  1.
         13    1    6    6    0    0  0.79965370606E-01 -0.28030619450E+01 -0.11473144381E+01  0.30316507298E+01  0.10500000000E+00 0. -1.
</event>
<event>
11    0  0.3485800E-009  0.9118800E+02  0.7816531E-02  0.1126479E+00
         25   -1    0    0    0    0  0.00000000000E+00  0.00000000000E+00  0.99999998245E-14  0.12500000000E+03  0.12500000000E+03 0.  0.
    3000001    1    3    3    0    0  0.22001987067E+02 -0.17163153568E+02 -0.33414967162E+01  0.28121644255E+02  0.10000000000E+01 0. -1.
    1000022    2    1    0    0    0  0.43250436330E+02 -0.43995831554E+02 -0.12908336127E+00  0.62499999450E+02  0.99999915930E+01 0.  0.
    3000022    2    3    3    0    0  0.21248449262E+02 -0.26832677986E+02  0.32124133549E+01  0.34378355195E+02  0.25000472643E+00 0.  0.
    1000022    2    1    0    0    0 -0.43250436330E+02  0.43995831554E+02  0.12908336127E+00  0.62500000550E+02  0.99999984693E+01 0.  0.
    3000022    2    5    5    0    0 -0.58886708451E+01  0.88938055131E+01 -0.31388991718E+01  0.11121664044E+02  0.25000452871E+00 0.  0.
        -13    1    4    4    0    0  0.82874003003E+01 -0.10435571307E+02  0.11913837778E+01  0.13379558010E+02  0.10500000000E+00 0. -1.
         13    1    4    4    0    0  0.12961048962E+02 -0.16397106679E+02  0.20210295771E+01  0.20998797184E+02  0.10500000000E+00 0.  1.
    3000001    1    5    5    0    0 -0.37361765485E+02  0.35102026041E+02  0.32679825331E+01  0.51378336506E+02  0.10000000000E+01 0.  1.
        -13    1    6    6    0    0 -0.15670295839E+01  0.23087431628E+01 -0.81626682413E+00  0.29091567914E+01  0.10500000000E+00 0.  1.
         13    1    6    6    0    0 -0.43216412612E+01  0.65850623503E+01 -0.23226323477E+01  0.82125072524E+01  0.10500000000E+00 0. -1.
</event>
<event>
11    0  0.3485800E-009  0.9118800E+02  0.7816531E-02  0.1126479E+00
         25   -1    0    0    0    0  0.00000000000E+00  0.00000000000E+00  0.99999998245E-14  0.12500000000E+03  0.12500000000E+03 0.  0.
    3000001    1    3    3    0    0 -0.14848944832E+02  0.19364875017E+02 -0.15844200518E+02  0.29112338228E+02  0.10000000000E+01 0. -1.
    1000022    2    1    0    0    0 -0.39782149216E+02  0.37970309080E+02 -0.27962225714E+02  0.62499998844E+02  0.10000001033E+02 0.  0.
    3000022    2    3    3    0    0 -0.24933204384E+02  0.18605434064E+02 -0.12118025196E+02  0.33387660616E+02  0.24997837959E+00 0.  0.
    1000022    2    1    0    0    0  0.39782149216E+02 -0.37970309080E+02  0.27962225714E+02  0.62500001156E+02  0.10000015487E+02 0.  0.
    3000022    2    5    5    0    0  0.15186618518E+02 -0.17975460090E+02  0.16657625418E+02  0.28832092039E+02  0.24999866823E+00 0.  0.
        -13    1    4    4    0    0 -0.11923814252E+02  0.88346425286E+01 -0.58286730192E+01  0.15944049332E+02  0.10500000000E+00 0. -1.
         13    1    4    4    0    0 -0.13009390132E+02  0.97707915350E+01 -0.62893521772E+01  0.17443611284E+02  0.10500000000E+00 0.  1.
    3000001    1    5    5    0    0  0.24595530698E+02 -0.19994848990E+02  0.11304600297E+02  0.33667909117E+02  0.10000000000E+01 0. -1.
        -13    1    6    6    0    0  0.62983880936E+01 -0.73888720953E+01  0.69316249859E+01  0.11929944399E+02  0.10500000000E+00 0. -1.
         13    1    6    6    0    0  0.88882304243E+01 -0.10586587995E+02  0.97260004318E+01  0.16902147640E+02  0.10500000000E+00 0.  1.
</event>
