<event>
 4    1  0.2488810E-002  0.5087552E+03  0.7818608E-02  0.1011519E+00
         -2   -1    0    0    0  501 -0.00000000000E+00  0.00000000000E+00  0.24630573627E+03  0.24630573627E+03  0.00000000000E+00 0.  1.
          2   -1    0    0  502    0  0.00000000000E+00 -0.00000000000E+00 -0.16322261206E+04  0.16322261206E+04  0.00000000000E+00 0. -1.
    9000007    1    1    2  502    0  0.92009713716E+02  0.30060942230E+03 -0.12535237158E+04  0.13528316666E+04  0.40000000000E+03 0. -1.
   -9000007    1    1    2    0  501 -0.92009713716E+02 -0.30060942230E+03 -0.13239666858E+03  0.52570019027E+03  0.40000000000E+03 0.  1.
<mgrwt>
<rscale>  2 0.50875516E+03</rscale>
<asrwt>0</asrwt>
<pdfrwt beam="1">  1        2 0.25111171E+00 0.50875516E+03</pdfrwt>
<pdfrwt beam="2">  1       -2 0.37893190E-01 0.50875516E+03</pdfrwt>
<totfact> 0.74011731E+01</totfact>
</mgrwt>
</event>
<event>
 4    1  0.2488810E-002  0.4208053E+03  0.7818608E-02  0.1036805E+00
         -1   -1    0    0    0  501 -0.00000000000E+00  0.00000000000E+00  0.56906457284E+03  0.56906457284E+03  0.00000000000E+00 0.  1.
          1   -1    0    0  502    0  0.00000000000E+00 -0.00000000000E+00 -0.32722474576E+03  0.32722474576E+03  0.00000000000E+00 0. -1.
    9000007    1    1    2  502    0  0.12275599212E+03  0.44811778930E+02  0.22017798412E+03  0.47492680891E+03  0.40000000000E+03 0.  1.
   -9000007    1    1    2    0  501 -0.12275599212E+03 -0.44811778930E+02  0.21661842968E+02  0.42136250969E+03  0.40000000000E+03 0.  1.
<mgrwt>
<rscale>  2 0.42080533E+03</rscale>
<asrwt>0</asrwt>
<pdfrwt beam="1">  1        1 0.50342269E-01 0.42080533E+03</pdfrwt>
<pdfrwt beam="2">  1       -1 0.87548396E-01 0.42080533E+03</pdfrwt>
<totfact> 0.10482304E+02</totfact>
</mgrwt>
</event>
<event>
 4    1  0.2488810E-002  0.4546248E+03  0.7818608E-02  0.1026352E+00
         -3   -1    0    0    0  501 -0.00000000000E+00  0.00000000000E+00  0.78520635495E+03  0.78520635495E+03  0.00000000000E+00 0.  1.
          3   -1    0    0  502    0  0.00000000000E+00 -0.00000000000E+00 -0.26893646412E+03  0.26893646412E+03  0.00000000000E+00 0. -1.
    9000007    1    1    2  502    0  0.45695359864E+02 -0.21117672490E+03  0.18130542624E+03  0.48944390142E+03  0.40000000000E+03 0. -1.
   -9000007    1    1    2    0  501 -0.45695359864E+02  0.21117672490E+03  0.33496446459E+03  0.56469891764E+03  0.40000000000E+03 0.  1.
<mgrwt>
<rscale>  2 0.45462476E+03</rscale>
<asrwt>0</asrwt>
<pdfrwt beam="1">  1        3 0.41374841E-01 0.45462476E+03</pdfrwt>
<pdfrwt beam="2">  1       -3 0.12080098E+00 0.45462476E+03</pdfrwt>
<totfact> 0.84418950E+00</totfact>
</mgrwt>
</event>
<event>
 4    1  0.2488810E-002  0.4144662E+03  0.7818608E-02  0.1038883E+00
          2   -1    0    0  502    0  0.00000000000E+00  0.00000000000E+00  0.23884105974E+04  0.23884105974E+04  0.00000000000E+00 0. -1.
         -2   -1    0    0    0  501 -0.00000000000E+00 -0.00000000000E+00 -0.73272054389E+02  0.73272054389E+02  0.00000000000E+00 0.  1.
    9000007    1    1    2  502    0  0.81981214672E+01 -0.10823613091E+03  0.13245653385E+04  0.13878961075E+04  0.40000000000E+03 0.  1.
   -9000007    1    1    2    0  501 -0.81981214672E+01  0.10823613091E+03  0.99057320458E+03  0.10737865444E+04  0.40000000000E+03 0.  1.
<mgrwt>
<rscale>  2 0.41446625E+03</rscale>
<asrwt>0</asrwt>
<pdfrwt beam="1">  1        2 0.36744773E+00 0.41446625E+03</pdfrwt>
<pdfrwt beam="2">  1       -2 0.11272626E-01 0.41446625E+03</pdfrwt>
<totfact> 0.24568596E+02</totfact>
</mgrwt>
</event>
<event>
 4    1  0.2488810E-002  0.5264149E+03  0.7818608E-02  0.1007105E+00
          1   -1    0    0  502    0  0.00000000000E+00  0.00000000000E+00  0.47563036992E+03  0.47563036992E+03  0.00000000000E+00 0. -1.
         -1   -1    0    0    0  501 -0.00000000000E+00 -0.00000000000E+00 -0.58629687534E+03  0.58629687534E+03  0.00000000000E+00 0.  1.
    9000007    1    1    2  502    0  0.92645556473E+02 -0.32943812509E+03 -0.13296200745E+02  0.52658282003E+03  0.40000000000E+03 0. -1.
   -9000007    1    1    2    0  501 -0.92645556473E+02  0.32943812509E+03 -0.97370304671E+02  0.53534442523E+03  0.40000000000E+03 0.  1.
<mgrwt>
<rscale>  2 0.52641493E+03</rscale>
<asrwt>0</asrwt>
<pdfrwt beam="1">  1        1 0.73173903E-01 0.52641493E+03</pdfrwt>
<pdfrwt beam="2">  1       -1 0.90199519E-01 0.52641493E+03</pdfrwt>
<totfact> 0.59480372E+01</totfact>
</mgrwt>
</event>
<event>
 4    1  0.2488810E-002  0.4274473E+03  0.7818608E-02  0.1034669E+00
          1   -1    0    0  502    0  0.00000000000E+00  0.00000000000E+00  0.11175737460E+04  0.11175737460E+04  0.00000000000E+00 0. -1.
         -1   -1    0    0    0  501 -0.00000000000E+00 -0.00000000000E+00 -0.17056700906E+03  0.17056700906E+03  0.00000000000E+00 0.  1.
    9000007    1    1    2  502    0 -0.99215494089E+02 -0.11343500931E+03  0.60470397272E+03  0.74052556352E+03  0.40000000000E+03 0. -1.
   -9000007    1    1    2    0  501  0.99215494089E+02  0.11343500931E+03  0.34230276421E+03  0.54761519153E+03  0.40000000000E+03 0.  1.
<mgrwt>
<rscale>  2 0.42744732E+03</rscale>
<asrwt>0</asrwt>
<pdfrwt beam="1">  1        1 0.17193442E+00 0.42744732E+03</pdfrwt>
<pdfrwt beam="2">  1       -1 0.26241079E-01 0.42744732E+03</pdfrwt>
<totfact> 0.16585213E+02</totfact>
</mgrwt>
</event>
<event>
 4    1  0.2488810E-002  0.4464809E+03  0.7818608E-02  0.1028777E+00
         -1   -1    0    0    0  501 -0.00000000000E+00  0.00000000000E+00  0.11802132541E+03  0.11802132541E+03  0.00000000000E+00 0. -1.
          1   -1    0    0  502    0  0.00000000000E+00 -0.00000000000E+00 -0.23460402530E+04  0.23460402530E+04  0.00000000000E+00 0.  1.
    9000007    1    1    2  502    0 -0.11690924435E+03  0.16024175392E+03 -0.17659826490E+04  0.18215487662E+04  0.40000000000E+03 0. -1.
   -9000007    1    1    2    0  501  0.11690924435E+03 -0.16024175392E+03 -0.46203627862E+03  0.64251281222E+03  0.40000000000E+03 0. -1.
<mgrwt>
<rscale>  2 0.44648090E+03</rscale>
<asrwt>0</asrwt>
<pdfrwt beam="1">  1        1 0.36092925E+00 0.44648090E+03</pdfrwt>
<pdfrwt beam="2">  1       -1 0.18157128E-01 0.44648090E+03</pdfrwt>
<totfact> 0.45430273E+01</totfact>
</mgrwt>
</event>
<event>
 4    1  0.2488810E-002  0.4069197E+03  0.7818608E-02  0.1041410E+00
         -2   -1    0    0    0  501 -0.00000000000E+00  0.00000000000E+00  0.93211039459E+02  0.93211039459E+02  0.00000000000E+00 0.  1.
          2   -1    0    0  502    0  0.00000000000E+00 -0.00000000000E+00 -0.21478291142E+04  0.21478291142E+04  0.00000000000E+00 0. -1.
    9000007    1    1    2  502    0  0.46195641840E+02  0.58733610150E+02 -0.14932546987E+04  0.15477058085E+04  0.40000000000E+03 0. -1.
   -9000007    1    1    2    0  501 -0.46195641840E+02 -0.58733610150E+02 -0.56136337598E+03  0.69333434516E+03  0.40000000000E+03 0.  1.
<mgrwt>
<rscale>  2 0.40691974E+03</rscale>
<asrwt>0</asrwt>
<pdfrwt beam="1">  1        2 0.33043524E+00 0.40691974E+03</pdfrwt>
<pdfrwt beam="2">  1       -2 0.14340160E-01 0.40691974E+03</pdfrwt>
<totfact> 0.22370939E+02</totfact>
</mgrwt>
</event>
<event>
 4    1  0.2488810E-002  0.5642627E+03  0.7818608E-02  0.9982455E-01
         -2   -1    0    0    0  501 -0.00000000000E+00  0.00000000000E+00  0.54474026793E+03  0.54474026793E+03  0.00000000000E+00 0. -1.
          2   -1    0    0  502    0  0.00000000000E+00 -0.00000000000E+00 -0.20975813755E+04  0.20975813755E+04  0.00000000000E+00 0.  1.
    9000007    1    1    2  502    0  0.16966396592E+02 -0.39762357754E+03  0.34567440612E+03  0.66172740843E+03  0.40000000000E+03 0. -1.
   -9000007    1    1    2    0  501 -0.16966396592E+02  0.39762357754E+03 -0.18985155136E+04  0.19805942350E+04  0.40000000000E+03 0.  1.
<mgrwt>
<rscale>  2 0.56426268E+03</rscale>
<asrwt>0</asrwt>
<pdfrwt beam="1">  1        2 0.32270482E+00 0.56426268E+03</pdfrwt>
<pdfrwt beam="2">  1       -2 0.83806197E-01 0.56426268E+03</pdfrwt>
<totfact> 0.78802845E+00</totfact>
</mgrwt>
</event>
<event>
 4    1  0.2488810E-002  0.4720615E+03  0.7818608E-02  0.1021340E+00
          2   -1    0    0  502    0  0.00000000000E+00  0.00000000000E+00  0.11872000009E+04  0.11872000009E+04  0.00000000000E+00 0. -1.
         -2   -1    0    0    0  501 -0.00000000000E+00 -0.00000000000E+00 -0.19505613427E+03  0.19505613427E+03  0.00000000000E+00 0.  1.
    9000007    1    1    2  502    0  0.18759392303E+03 -0.16628449691E+03  0.63025255348E+03  0.78743907386E+03  0.40000000000E+03 0.  1.
   -9000007    1    1    2    0  501 -0.18759392303E+03  0.16628449691E+03  0.36189131312E+03  0.59481706128E+03  0.40000000000E+03 0. -1.
<mgrwt>
<rscale>  2 0.47206145E+03</rscale>
<asrwt>0</asrwt>
<pdfrwt beam="1">  1        2 0.18264615E+00 0.47206145E+03</pdfrwt>
<pdfrwt beam="2">  1       -2 0.30008637E-01 0.47206145E+03</pdfrwt>
<totfact> 0.20430054E+02</totfact>
</mgrwt>
</event>
<event>
 4    1  0.2488810E-002  0.4593156E+03  0.7818608E-02  0.1024980E+00
         -1   -1    0    0    0  501 -0.00000000000E+00  0.00000000000E+00  0.14916183920E+03  0.14916183920E+03  0.00000000000E+00 0. -1.
          1   -1    0    0  502    0  0.00000000000E+00 -0.00000000000E+00 -0.18658853891E+04  0.18658853891E+04  0.00000000000E+00 0.  1.
    9000007    1    1    2  502    0  0.19845392059E+03  0.10764223737E+03 -0.36274440632E+03  0.58528139744E+03  0.40000000000E+03 0.  1.
   -9000007    1    1    2    0  501 -0.19845392059E+03 -0.10764223737E+03 -0.13539791436E+04  0.14297658309E+04  0.40000000000E+03 0.  1.
<mgrwt>
<rscale>  2 0.45931559E+03</rscale>
<asrwt>0</asrwt>
<pdfrwt beam="1">  1        1 0.28705930E+00 0.45931559E+03</pdfrwt>
<pdfrwt beam="2">  1       -1 0.22947975E-01 0.45931559E+03</pdfrwt>
<totfact> 0.63938562E+01</totfact>
</mgrwt>
</event>
<event>
 4    1  0.2488810E-002  0.6084348E+03  0.7818608E-02  0.9888060E-01
          1   -1    0    0  502    0  0.00000000000E+00  0.00000000000E+00  0.94045316215E+03  0.94045316215E+03  0.00000000000E+00 0.  1.
         -1   -1    0    0    0  501 -0.00000000000E+00 -0.00000000000E+00 -0.44851264917E+03  0.44851264917E+03  0.00000000000E+00 0. -1.
    9000007    1    1    2  502    0  0.44253250997E+03 -0.11982415461E+03  0.30396770258E+01  0.60844234735E+03  0.40000000000E+03 0. -1.
   -9000007    1    1    2    0  501 -0.44253250997E+03  0.11982415461E+03  0.48890083595E+03  0.78052346397E+03  0.40000000000E+03 0. -1.
<mgrwt>
<rscale>  2 0.60843475E+03</rscale>
<asrwt>0</asrwt>
<pdfrwt beam="1">  1        1 0.14468510E+00 0.60843475E+03</pdfrwt>
<pdfrwt beam="2">  1       -1 0.69001946E-01 0.60843475E+03</pdfrwt>
<totfact> 0.37367765E+01</totfact>
</mgrwt>
</event>
<event>
 4    1  0.2488810E-002  0.5618149E+03  0.7818608E-02  0.9987956E-01
         -1   -1    0    0    0  501 -0.00000000000E+00  0.00000000000E+00  0.50865100958E+03  0.50865100958E+03  0.00000000000E+00 0. -1.
          1   -1    0    0  502    0  0.00000000000E+00 -0.00000000000E+00 -0.12799250702E+04  0.12799250702E+04  0.00000000000E+00 0.  1.
    9000007    1    1    2  502    0 -0.39385004311E+03 -0.22763168210E+02  0.25624642254E+03  0.61749352009E+03  0.40000000000E+03 0. -1.
   -9000007    1    1    2    0  501  0.39385004311E+03  0.22763168210E+02 -0.10275204831E+04  0.11710825596E+04  0.40000000000E+03 0.  1.
<mgrwt>
<rscale>  2 0.56181493E+03</rscale>
<asrwt>0</asrwt>
<pdfrwt beam="1">  1        1 0.19691155E+00 0.56181493E+03</pdfrwt>
<pdfrwt beam="2">  1       -1 0.78254003E-01 0.56181493E+03</pdfrwt>
<totfact> 0.16261274E+01</totfact>
</mgrwt>
</event>
<event>
 4    1  0.2488810E-002  0.4660771E+03  0.7818608E-02  0.1023033E+00
         -2   -1    0    0    0  501 -0.00000000000E+00  0.00000000000E+00  0.45910076069E+03  0.45910076069E+03  0.00000000000E+00 0. -1.
          2   -1    0    0  502    0  0.00000000000E+00 -0.00000000000E+00 -0.71529990531E+03  0.71529990531E+03  0.00000000000E+00 0.  1.
    9000007    1    1    2  502    0 -0.18926321064E+03  0.14631239210E+03  0.21354604695E+03  0.51266928244E+03  0.40000000000E+03 0. -1.
   -9000007    1    1    2    0  501  0.18926321064E+03 -0.14631239210E+03 -0.46974519158E+03  0.66173138356E+03  0.40000000000E+03 0.  1.
<mgrwt>
<rscale>  2 0.46607712E+03</rscale>
<asrwt>0</asrwt>
<pdfrwt beam="1">  1        2 0.11004614E+00 0.46607712E+03</pdfrwt>
<pdfrwt beam="2">  1       -2 0.70630887E-01 0.46607712E+03</pdfrwt>
<totfact> 0.75366320E+01</totfact>
</mgrwt>
</event>
<event>
 4    1  0.2488810E-002  0.4055785E+03  0.7818608E-02  0.1041865E+00
         -1   -1    0    0    0  501 -0.00000000000E+00  0.00000000000E+00  0.47604296171E+03  0.47604296171E+03  0.00000000000E+00 0. -1.
          1   -1    0    0  502    0  0.00000000000E+00 -0.00000000000E+00 -0.35251730449E+03  0.35251730449E+03  0.00000000000E+00 0.  1.
    9000007    1    1    2  502    0  0.41898144833E+02  0.52330622245E+02  0.12002850250E+03  0.42296665350E+03  0.40000000000E+03 0. -1.
   -9000007    1    1    2    0  501 -0.41898144833E+02 -0.52330622245E+02  0.34971547252E+01  0.40559361269E+03  0.40000000000E+03 0.  1.
<mgrwt>
<rscale>  2 0.40557854E+03</rscale>
<asrwt>0</asrwt>
<pdfrwt beam="1">  1        1 0.54233432E-01 0.40557854E+03</pdfrwt>
<pdfrwt beam="2">  1       -1 0.73237379E-01 0.40557854E+03</pdfrwt>
<totfact> 0.13875860E+02</totfact>
</mgrwt>
</event>
<event>
 4    1  0.2488810E-002  0.4357877E+03  0.7818608E-02  0.1032047E+00
          1   -1    0    0  502    0  0.00000000000E+00  0.00000000000E+00  0.88322703607E+03  0.88322703607E+03  0.00000000000E+00 0.  1.
         -1   -1    0    0    0  501 -0.00000000000E+00 -0.00000000000E+00 -0.21617784204E+03  0.21617784204E+03  0.00000000000E+00 0. -1.
    9000007    1    1    2  502    0  0.76819791306E+02 -0.15495053227E+03  0.37376470516E+03  0.57411758605E+03  0.40000000000E+03 0. -1.
   -9000007    1    1    2    0  501 -0.76819791306E+02  0.15495053227E+03  0.29328448886E+03  0.52528729205E+03  0.40000000000E+03 0. -1.
<mgrwt>
<rscale>  2 0.43578773E+03</rscale>
<asrwt>0</asrwt>
<pdfrwt beam="1">  1        1 0.13588108E+00 0.43578773E+03</pdfrwt>
<pdfrwt beam="2">  1       -1 0.33258130E-01 0.43578773E+03</pdfrwt>
<totfact> 0.16642921E+02</totfact>
</mgrwt>
</event>
<event>
 4    1  0.2488810E-002  0.4031886E+03  0.7818608E-02  0.1042681E+00
          2   -1    0    0  502    0  0.00000000000E+00  0.00000000000E+00  0.17221527143E+04  0.17221527143E+04  0.00000000000E+00 0. -1.
         -2   -1    0    0    0  501 -0.00000000000E+00 -0.00000000000E+00 -0.11165116418E+03  0.11165116418E+03  0.00000000000E+00 0.  1.
    9000007    1    1    2  502    0 -0.43648244911E+02  0.25609503545E+02  0.44477589198E+03  0.60032208858E+03  0.40000000000E+03 0.  1.
   -9000007    1    1    2    0  501  0.43648244911E+02 -0.25609503545E+02  0.11657256581E+04  0.12334817899E+04  0.40000000000E+03 0. -1.
<mgrwt>
<rscale>  2 0.40318856E+03</rscale>
<asrwt>0</asrwt>
<pdfrwt beam="1">  1        2 0.26494655E+00 0.40318856E+03</pdfrwt>
<pdfrwt beam="2">  1       -2 0.17177103E-01 0.40318856E+03</pdfrwt>
<totfact> 0.27907473E+02</totfact>
</mgrwt>
</event>
<event>
 4    1  0.2488810E-002  0.5073738E+03  0.7818608E-02  0.1011872E+00
          1   -1    0    0  502    0  0.00000000000E+00  0.00000000000E+00  0.11317664809E+04  0.11317664809E+04  0.00000000000E+00 0. -1.
         -1   -1    0    0    0  501 -0.00000000000E+00 -0.00000000000E+00 -0.22747432068E+03  0.22747432068E+03  0.00000000000E+00 0.  1.
    9000007    1    1    2  502    0 -0.30451756698E+03  0.68536575783E+02  0.44621605888E+03  0.67567520453E+03  0.40000000000E+03 0.  1.
   -9000007    1    1    2    0  501  0.30451756698E+03 -0.68536575783E+02  0.45807610130E+03  0.68356559700E+03  0.40000000000E+03 0.  1.
<mgrwt>
<rscale>  2 0.50737384E+03</rscale>
<asrwt>0</asrwt>
<pdfrwt beam="1">  1        1 0.17411792E+00 0.50737384E+03</pdfrwt>
<pdfrwt beam="2">  1       -1 0.34996050E-01 0.50737384E+03</pdfrwt>
<totfact> 0.97422111E+01</totfact>
</mgrwt>
</event>
<event>
 4    1  0.2488810E-002  0.4152617E+03  0.7818608E-02  0.1038620E+00
          3   -1    0    0  502    0  0.00000000000E+00  0.00000000000E+00  0.65577844647E+03  0.65577844647E+03  0.00000000000E+00 0. -1.
         -3   -1    0    0    0  501 -0.00000000000E+00 -0.00000000000E+00 -0.27234794690E+03  0.27234794690E+03  0.00000000000E+00 0.  1.
    9000007    1    1    2  502    0  0.51237571425E+02 -0.99080692826E+02  0.10554771037E+03  0.42846539134E+03  0.40000000000E+03 0.  1.
   -9000007    1    1    2    0  501 -0.51237571425E+02  0.99080692826E+02  0.27788278920E+03  0.49966100203E+03  0.40000000000E+03 0. -1.
<mgrwt>
<rscale>  2 0.41526169E+03</rscale>
<asrwt>0</asrwt>
<pdfrwt beam="1">  1        3 0.10088899E+00 0.41526169E+03</pdfrwt>
<pdfrwt beam="2">  1       -3 0.41899684E-01 0.41526169E+03</pdfrwt>
<totfact> 0.12633739E+01</totfact>
</mgrwt>
</event>
<event>
 4    1  0.2488810E-002  0.4057143E+03  0.7818608E-02  0.1041819E+00
          2   -1    0    0  502    0  0.00000000000E+00  0.00000000000E+00  0.10814645855E+04  0.10814645855E+04  0.00000000000E+00 0. -1.
         -2   -1    0    0    0  501 -0.00000000000E+00 -0.00000000000E+00 -0.16612662911E+03  0.16612662911E+03  0.00000000000E+00 0.  1.
    9000007    1    1    2  502    0 -0.47665488982E+02  0.48291922699E+02  0.63824942536E+03  0.75628462738E+03  0.40000000000E+03 0. -1.
   -9000007    1    1    2    0  501  0.47665488982E+02 -0.48291922699E+02  0.27708853105E+03  0.49130658725E+03  0.40000000000E+03 0.  1.
<mgrwt>
<rscale>  2 0.40571432E+03</rscale>
<asrwt>0</asrwt>
<pdfrwt beam="1">  1        2 0.16637916E+00 0.40571432E+03</pdfrwt>
<pdfrwt beam="2">  1       -2 0.25557944E-01 0.40571432E+03</pdfrwt>
<totfact> 0.31798453E+02</totfact>
</mgrwt>
</event>
<event>
 4    1  0.2488810E-002  0.5864041E+03  0.7818608E-02  0.9934022E-01
         -2   -1    0    0    0  501 -0.00000000000E+00  0.00000000000E+00  0.46178959021E+03  0.46178959021E+03  0.00000000000E+00 0. -1.
          2   -1    0    0  502    0  0.00000000000E+00 -0.00000000000E+00 -0.86103693702E+03  0.86103693702E+03  0.00000000000E+00 0.  1.
    9000007    1    1    2  502    0 -0.34501969603E+03 -0.25461958213E+03  0.43552930247E+02  0.58801920036E+03  0.40000000000E+03 0. -1.
   -9000007    1    1    2    0  501  0.34501969603E+03  0.25461958213E+03 -0.44280027706E+03  0.73480732687E+03  0.40000000000E+03 0. -1.
<mgrwt>
<rscale>  2 0.58640406E+03</rscale>
<asrwt>0</asrwt>
<pdfrwt beam="1">  1        2 0.13246722E+00 0.58640406E+03</pdfrwt>
<pdfrwt beam="2">  1       -2 0.71044553E-01 0.58640406E+03</pdfrwt>
<totfact> 0.57733534E+01</totfact>
</mgrwt>
</event>
<event>
 4    1  0.2488810E-002  0.5085175E+03  0.7818608E-02  0.1011579E+00
         -1   -1    0    0    0  501 -0.00000000000E+00  0.00000000000E+00  0.18545438429E+03  0.18545438429E+03  0.00000000000E+00 0.  1.
          1   -1    0    0  502    0  0.00000000000E+00 -0.00000000000E+00 -0.14064328927E+04  0.14064328927E+04  0.00000000000E+00 0. -1.
    9000007    1    1    2  502    0 -0.54303775748E+02  0.30925905967E+03 -0.68423535657E+03  0.85250694380E+03  0.40000000000E+03 0.  1.
   -9000007    1    1    2    0  501  0.54303775748E+02 -0.30925905967E+03 -0.53674315184E+03  0.73938033318E+03  0.40000000000E+03 0.  1.
<mgrwt>
<rscale>  2 0.50851752E+03</rscale>
<asrwt>0</asrwt>
<pdfrwt beam="1">  1        1 0.21637429E+00 0.50851752E+03</pdfrwt>
<pdfrwt beam="2">  1       -1 0.28531444E-01 0.50851752E+03</pdfrwt>
<totfact> 0.89024866E+01</totfact>
</mgrwt>
</event>
<event>
 4    1  0.2488810E-002  0.4493962E+03  0.7818608E-02  0.1027902E+00
         -2   -1    0    0    0  501 -0.00000000000E+00  0.00000000000E+00  0.79544619479E+02  0.79544619479E+02  0.00000000000E+00 0. -1.
          2   -1    0    0  502    0  0.00000000000E+00 -0.00000000000E+00 -0.25561303384E+04  0.25561303384E+04  0.00000000000E+00 0.  1.
    9000007    1    1    2  502    0 -0.12362398507E+03 -0.16332187851E+03 -0.13464472846E+04  0.14194637072E+04  0.40000000000E+03 0. -1.
   -9000007    1    1    2    0  501  0.12362398507E+03  0.16332187851E+03 -0.11301384343E+04  0.12162112507E+04  0.40000000000E+03 0. -1.
<mgrwt>
<rscale>  2 0.44939618E+03</rscale>
<asrwt>0</asrwt>
<pdfrwt beam="1">  1        2 0.39325082E+00 0.44939618E+03</pdfrwt>
<pdfrwt beam="2">  1       -2 0.12237634E-01 0.44939618E+03</pdfrwt>
<totfact> 0.17231191E+02</totfact>
</mgrwt>
</event>
<event>
 4    1  0.2488810E-002  0.4278239E+03  0.7818608E-02  0.1034550E+00
          1   -1    0    0  502    0  0.00000000000E+00  0.00000000000E+00  0.34004546371E+03  0.34004546371E+03  0.00000000000E+00 0. -1.
         -1   -1    0    0    0  501 -0.00000000000E+00 -0.00000000000E+00 -0.81276967266E+03  0.81276967266E+03  0.00000000000E+00 0.  1.
    9000007    1    1    2  502    0 -0.15075603192E+03  0.17489160520E+02 -0.57134595469E+03  0.71377128818E+03  0.40000000000E+03 0.  1.
   -9000007    1    1    2    0  501  0.15075603192E+03 -0.17489160520E+02  0.98621745748E+02  0.43904384819E+03  0.40000000000E+03 0. -1.
<mgrwt>
<rscale>  2 0.42782386E+03</rscale>
<asrwt>0</asrwt>
<pdfrwt beam="1">  1        1 0.52314687E-01 0.42782386E+03</pdfrwt>
<pdfrwt beam="2">  1       -1 0.12504149E+00 0.42782386E+03</pdfrwt>
<totfact> 0.43995413E+01</totfact>
</mgrwt>
</event>
<event>
 4    1  0.2488810E-002  0.4261292E+03  0.7818608E-02  0.1035090E+00
          2   -1    0    0  502    0  0.00000000000E+00  0.00000000000E+00  0.39545725862E+03  0.39545725862E+03  0.00000000000E+00 0. -1.
         -2   -1    0    0    0  501 -0.00000000000E+00 -0.00000000000E+00 -0.47483305038E+03  0.47483305038E+03  0.00000000000E+00 0.  1.
    9000007    1    1    2  502    0 -0.44289677502E+02 -0.14008757614E+03 -0.11869420114E+03  0.44235101210E+03  0.40000000000E+03 0.  1.
   -9000007    1    1    2    0  501  0.44289677502E+02  0.14008757614E+03  0.39318409381E+02  0.42793929691E+03  0.40000000000E+03 0. -1.
<mgrwt>
<rscale>  2 0.42612921E+03</rscale>
<asrwt>0</asrwt>
<pdfrwt beam="1">  1        2 0.60839579E-01 0.42612921E+03</pdfrwt>
<pdfrwt beam="2">  1       -2 0.73051238E-01 0.42612921E+03</pdfrwt>
<totfact> 0.14012357E+02</totfact>
</mgrwt>
</event>
<event>
 4    1  0.2488810E-002  0.4137233E+03  0.7818608E-02  0.1039129E+00
         -2   -1    0    0    0  501 -0.00000000000E+00  0.00000000000E+00  0.72777743580E+02  0.72777743580E+02  0.00000000000E+00 0. -1.
          2   -1    0    0  502    0  0.00000000000E+00 -0.00000000000E+00 -0.29120529937E+04  0.29120529937E+04  0.00000000000E+00 0.  1.
    9000007    1    1    2  502    0  0.10304016001E+03  0.23445105695E+02 -0.76509455889E+03  0.86979114252E+03  0.40000000000E+03 0. -1.
   -9000007    1    1    2    0  501 -0.10304016001E+03 -0.23445105695E+02 -0.20741806913E+04  0.21150395948E+04  0.40000000000E+03 0.  1.
<mgrwt>
<rscale>  2 0.41372327E+03</rscale>
<asrwt>0</asrwt>
<pdfrwt beam="1">  1        2 0.44800803E+00 0.41372327E+03</pdfrwt>
<pdfrwt beam="2">  1       -2 0.11196579E-01 0.41372327E+03</pdfrwt>
<totfact> 0.12519926E+02</totfact>
</mgrwt>
</event>
<event>
 4    1  0.2488810E-002  0.4386725E+03  0.7818608E-02  0.1031155E+00
         -2   -1    0    0    0  501 -0.00000000000E+00  0.00000000000E+00  0.32540718479E+03  0.32540718479E+03  0.00000000000E+00 0. -1.
          2   -1    0    0  502    0  0.00000000000E+00 -0.00000000000E+00 -0.76911758505E+03  0.76911758505E+03  0.00000000000E+00 0.  1.
    9000007    1    1    2  502    0  0.12712044579E+03 -0.12756931982E+03  0.41238529286E+02  0.44060657666E+03  0.40000000000E+03 0. -1.
   -9000007    1    1    2    0  501 -0.12712044579E+03  0.12756931982E+03 -0.48494892954E+03  0.65391819317E+03  0.40000000000E+03 0.  1.
<mgrwt>
<rscale>  2 0.43867247E+03</rscale>
<asrwt>0</asrwt>
<pdfrwt beam="1">  1        2 0.11832578E+00 0.43867247E+03</pdfrwt>
<pdfrwt beam="2">  1       -2 0.50062644E-01 0.43867247E+03</pdfrwt>
<totfact> 0.14171294E+02</totfact>
</mgrwt>
</event>
<event>
 4    1  0.2488810E-002  0.4955425E+03  0.7818608E-02  0.1014949E+00
         -1   -1    0    0    0  501 -0.00000000000E+00  0.00000000000E+00  0.28844941249E+03  0.28844941249E+03  0.00000000000E+00 0. -1.
          1   -1    0    0  502    0  0.00000000000E+00 -0.00000000000E+00 -0.89849621008E+03  0.89849621008E+03  0.00000000000E+00 0.  1.
    9000007    1    1    2  502    0 -0.12626923361E+03 -0.26385313126E+03 -0.44101433556E+03  0.66336719726E+03  0.40000000000E+03 0. -1.
   -9000007    1    1    2    0  501  0.12626923361E+03  0.26385313126E+03 -0.16903246204E+03  0.52357842532E+03  0.40000000000E+03 0. -1.
<mgrwt>
<rscale>  2 0.49554253E+03</rscale>
<asrwt>0</asrwt>
<pdfrwt beam="1">  1        1 0.13823019E+00 0.49554253E+03</pdfrwt>
<pdfrwt beam="2">  1       -1 0.44376833E-01 0.49554253E+03</pdfrwt>
<totfact> 0.95838468E+01</totfact>
</mgrwt>
</event>
<event>
 4    1  0.2488810E-002  0.4169520E+03  0.7818608E-02  0.1038063E+00
          1   -1    0    0  502    0  0.00000000000E+00  0.00000000000E+00  0.46467335956E+03  0.46467335956E+03  0.00000000000E+00 0.  1.
         -1   -1    0    0    0  501 -0.00000000000E+00 -0.00000000000E+00 -0.37676372634E+03  0.37676372634E+03  0.00000000000E+00 0. -1.
    9000007    1    1    2  502    0  0.11636122360E+03  0.17578580377E+02  0.87891577399E+01  0.41704459011E+03  0.40000000000E+03 0.  1.
   -9000007    1    1    2    0  501 -0.11636122360E+03 -0.17578580377E+02  0.79120475484E+02  0.42439249579E+03  0.40000000000E+03 0.  1.
<mgrwt>
<rscale>  2 0.41695196E+03</rscale>
<asrwt>0</asrwt>
<pdfrwt beam="1">  1        1 0.71488209E-01 0.41695196E+03</pdfrwt>
<pdfrwt beam="2">  1       -1 0.57963650E-01 0.41695196E+03</pdfrwt>
<totfact> 0.15370897E+02</totfact>
</mgrwt>
</event>
<event>
 4    1  0.2488810E-002  0.4051880E+03  0.7818608E-02  0.1041998E+00
         -1   -1    0    0    0  501 -0.00000000000E+00  0.00000000000E+00  0.20810117020E+03  0.20810117020E+03  0.00000000000E+00 0. -1.
          1   -1    0    0  502    0  0.00000000000E+00 -0.00000000000E+00 -0.78893184345E+03  0.78893184345E+03  0.00000000000E+00 0.  1.
    9000007    1    1    2  502    0  0.39165052591E+02  0.51413751808E+02 -0.29115824969E+03  0.49894929761E+03  0.40000000000E+03 0. -1.
   -9000007    1    1    2    0  501 -0.39165052591E+02 -0.51413751808E+02 -0.28967242356E+03  0.49808371605E+03  0.40000000000E+03 0. -1.
<mgrwt>
<rscale>  2 0.40518795E+03</rscale>
<asrwt>0</asrwt>
<pdfrwt beam="1">  1        1 0.12137413E+00 0.40518795E+03</pdfrwt>
<pdfrwt beam="2">  1       -1 0.32015565E-01 0.40518795E+03</pdfrwt>
<totfact> 0.21371938E+02</totfact>
</mgrwt>
</event>
<event>
 4    1  0.2488810E-002  0.5914415E+03  0.7818608E-02  0.9923323E-01
          2   -1    0    0  502    0  0.00000000000E+00  0.00000000000E+00  0.15979049296E+04  0.15979049296E+04  0.00000000000E+00 0.  1.
         -2   -1    0    0    0  501 -0.00000000000E+00 -0.00000000000E+00 -0.23863155387E+03  0.23863155387E+03  0.00000000000E+00 0. -1.
    9000007    1    1    2  502    0  0.43555480836E+03 -0.97526598148E+01  0.94359579905E+03  0.11136319578E+04  0.40000000000E+03 0.  1.
   -9000007    1    1    2    0  501 -0.43555480836E+03  0.97526598148E+01  0.41567757663E+03  0.72290452562E+03  0.40000000000E+03 0. -1.
<mgrwt>
<rscale>  2 0.59144155E+03</rscale>
<asrwt>0</asrwt>
<pdfrwt beam="1">  1        2 0.24583152E+00 0.59144155E+03</pdfrwt>
<pdfrwt beam="2">  1       -2 0.36712548E-01 0.59144155E+03</pdfrwt>
<totfact> 0.81173689E+01</totfact>
</mgrwt>
</event>
<event>
 4    1  0.2488810E-002  0.6512658E+03  0.7818608E-02  0.9804407E-01
          1   -1    0    0  502    0  0.00000000000E+00  0.00000000000E+00  0.50216173658E+03  0.50216173658E+03  0.00000000000E+00 0.  1.
         -1   -1    0    0    0  501 -0.00000000000E+00 -0.00000000000E+00 -0.84840433854E+03  0.84840433854E+03  0.00000000000E+00 0. -1.
    9000007    1    1    2  502    0 -0.47249063175E+03 -0.20223684219E+03 -0.12815519303E+03  0.66375514381E+03  0.40000000000E+03 0. -1.
   -9000007    1    1    2    0  501  0.47249063175E+03  0.20223684219E+03 -0.21808740893E+03  0.68681093131E+03  0.40000000000E+03 0.  1.
<mgrwt>
<rscale>  2 0.65126580E+03</rscale>
<asrwt>0</asrwt>
<pdfrwt beam="1">  1        1 0.77255652E-01 0.65126580E+03</pdfrwt>
<pdfrwt beam="2">  1       -1 0.13052374E+00 0.65126580E+03</pdfrwt>
<totfact> 0.22929380E+01</totfact>
</mgrwt>
</event>
<event>
 4    1  0.2488810E-002  0.5204162E+03  0.7818608E-02  0.1008583E+00
          1   -1    0    0  502    0  0.00000000000E+00  0.00000000000E+00  0.16661525410E+04  0.16661525410E+04  0.00000000000E+00 0. -1.
         -1   -1    0    0    0  501 -0.00000000000E+00 -0.00000000000E+00 -0.21942187698E+03  0.21942187698E+03  0.00000000000E+00 0.  1.
    9000007    1    1    2  502    0 -0.10251364757E+03  0.31673960144E+03  0.24338585761E+03  0.57451692642E+03  0.40000000000E+03 0.  1.
   -9000007    1    1    2    0  501  0.10251364757E+03 -0.31673960144E+03  0.12033448064E+04  0.13110574915E+04  0.40000000000E+03 0. -1.
<mgrwt>
<rscale>  2 0.52041620E+03</rscale>
<asrwt>0</asrwt>
<pdfrwt beam="1">  1        1 0.25633115E+00 0.52041620E+03</pdfrwt>
<pdfrwt beam="2">  1       -1 0.33757213E-01 0.52041620E+03</pdfrwt>
<totfact> 0.44288885E+01</totfact>
</mgrwt>
</event>
<event>
 4    1  0.2488810E-002  0.4747271E+03  0.7818608E-02  0.1020594E+00
          2   -1    0    0  502    0  0.00000000000E+00  0.00000000000E+00  0.18712048640E+04  0.18712048640E+04  0.00000000000E+00 0.  1.
         -2   -1    0    0    0  501 -0.00000000000E+00 -0.00000000000E+00 -0.12288116506E+03  0.12288116506E+03  0.00000000000E+00 0. -1.
    9000007    1    1    2  502    0  0.13579142578E+03 -0.21662532741E+03  0.10147239343E+04  0.11202814408E+04  0.40000000000E+03 0.  1.
   -9000007    1    1    2    0  501 -0.13579142578E+03  0.21662532741E+03  0.73359976470E+03  0.87380458832E+03  0.40000000000E+03 0. -1.
<mgrwt>
<rscale>  2 0.47472713E+03</rscale>
<asrwt>0</asrwt>
<pdfrwt beam="1">  1        2 0.28787765E+00 0.47472713E+03</pdfrwt>
<pdfrwt beam="2">  1       -2 0.18904796E-01 0.47472713E+03</pdfrwt>
<totfact> 0.19520168E+02</totfact>
</mgrwt>
</event>
<event>
 4    1  0.2488810E-002  0.4552936E+03  0.7818608E-02  0.1026155E+00
         -4   -1    0    0    0  501 -0.00000000000E+00  0.00000000000E+00  0.17992179815E+04  0.17992179815E+04  0.00000000000E+00 0. -1.
          4   -1    0    0  502    0  0.00000000000E+00 -0.00000000000E+00 -0.14072904689E+03  0.14072904689E+03  0.00000000000E+00 0.  1.
    9000007    1    1    2  502    0  0.44596376735E+02 -0.21284606360E+03  0.12422724841E+04  0.13230771740E+04  0.40000000000E+03 0. -1.
   -9000007    1    1    2    0  501 -0.44596376735E+02  0.21284606360E+03  0.41621645057E+03  0.61686985446E+03  0.40000000000E+03 0.  1.
<mgrwt>
<rscale>  2 0.45529362E+03</rscale>
<asrwt>0</asrwt>
<pdfrwt beam="1">  1        4 0.21650624E-01 0.45529362E+03</pdfrwt>
<pdfrwt beam="2">  1       -4 0.27680275E+00 0.45529362E+03</pdfrwt>
<totfact> 0.17560685E+00</totfact>
</mgrwt>
</event>
<event>
 4    1  0.2488810E-002  0.4353719E+03  0.7818608E-02  0.1032176E+00
          1   -1    0    0  502    0  0.00000000000E+00  0.00000000000E+00  0.25411501646E+04  0.25411501646E+04  0.00000000000E+00 0.  1.
         -1   -1    0    0    0  501 -0.00000000000E+00 -0.00000000000E+00 -0.75305190751E+02  0.75305190751E+02  0.00000000000E+00 0. -1.
    9000007    1    1    2  502    0  0.21915712654E+01  0.17188347452E+03  0.13602618074E+04  0.14282369959E+04  0.40000000000E+03 0. -1.
   -9000007    1    1    2    0  501 -0.21915712654E+01 -0.17188347452E+03  0.11055831665E+04  0.11882183595E+04  0.40000000000E+03 0. -1.
<mgrwt>
<rscale>  2 0.43537195E+03</rscale>
<asrwt>0</asrwt>
<pdfrwt beam="1">  1        1 0.39094611E+00 0.43537195E+03</pdfrwt>
<pdfrwt beam="2">  1       -1 0.11585416E-01 0.43537195E+03</pdfrwt>
<totfact> 0.69324841E+01</totfact>
</mgrwt>
</event>
<event>
 4    1  0.2488810E-002  0.4851736E+03  0.7818608E-02  0.1017723E+00
         -2   -1    0    0    0  501 -0.00000000000E+00  0.00000000000E+00  0.30004399709E+03  0.30004399709E+03  0.00000000000E+00 0.  1.
          2   -1    0    0  502    0  0.00000000000E+00 -0.00000000000E+00 -0.79626950698E+03  0.79626950698E+03  0.00000000000E+00 0. -1.
    9000007    1    1    2  502    0  0.27386841138E+03 -0.19736002188E+02 -0.31467161119E+03  0.57828335565E+03  0.40000000000E+03 0. -1.
   -9000007    1    1    2    0  501 -0.27386841138E+03  0.19736002188E+02 -0.18155389870E+03  0.51803014841E+03  0.40000000000E+03 0. -1.
<mgrwt>
<rscale>  2 0.48517359E+03</rscale>
<asrwt>0</asrwt>
<pdfrwt beam="1">  1        2 0.12250300E+00 0.48517359E+03</pdfrwt>
<pdfrwt beam="2">  1       -2 0.46160615E-01 0.48517359E+03</pdfrwt>
<totfact> 0.15876539E+02</totfact>
</mgrwt>
</event>
<event>
 4    1  0.2488810E-002  0.6234956E+03  0.7818608E-02  0.9857824E-01
          2   -1    0    0  502    0  0.00000000000E+00  0.00000000000E+00  0.60459136384E+03  0.60459136384E+03  0.00000000000E+00 0. -1.
         -2   -1    0    0    0  501 -0.00000000000E+00 -0.00000000000E+00 -0.64309186776E+03  0.64309186776E+03  0.00000000000E+00 0.  1.
    9000007    1    1    2  502    0  0.54242934235E+02 -0.47518889737E+03 -0.11435941243E+02  0.62360048497E+03  0.40000000000E+03 0. -1.
   -9000007    1    1    2    0  501 -0.54242934235E+02  0.47518889737E+03 -0.27064562680E+02  0.62408274664E+03  0.40000000000E+03 0.  1.
<mgrwt>
<rscale>  2 0.62349562E+03</rscale>
<asrwt>0</asrwt>
<pdfrwt beam="1">  1        2 0.93014056E-01 0.62349562E+03</pdfrwt>
<pdfrwt beam="2">  1       -2 0.98937210E-01 0.62349562E+03</pdfrwt>
<totfact> 0.42584528E+01</totfact>
</mgrwt>
</event>
<event>
 4    1  0.2488810E-002  0.4666491E+03  0.7818608E-02  0.1022870E+00
          2   -1    0    0  502    0  0.00000000000E+00  0.00000000000E+00  0.14125400566E+04  0.14125400566E+04  0.00000000000E+00 0.  1.
         -2   -1    0    0    0  501 -0.00000000000E+00 -0.00000000000E+00 -0.19970428445E+03  0.19970428445E+03  0.00000000000E+00 0. -1.
    9000007    1    1    2  502    0 -0.14652171985E+03 -0.19050649883E+03  0.99137296688E+03  0.10957105913E+04  0.40000000000E+03 0.  1.
   -9000007    1    1    2    0  501  0.14652171985E+03  0.19050649883E+03  0.22146280529E+03  0.51653374973E+03  0.40000000000E+03 0. -1.
<mgrwt>
<rscale>  2 0.46664905E+03</rscale>
<asrwt>0</asrwt>
<pdfrwt beam="1">  1        2 0.21731385E+00 0.46664905E+03</pdfrwt>
<pdfrwt beam="2">  1       -2 0.30723737E-01 0.46664905E+03</pdfrwt>
<totfact> 0.14577217E+02</totfact>
</mgrwt>
</event>
<event>
 4    1  0.2488810E-002  0.4281315E+03  0.7818608E-02  0.1034452E+00
          1   -1    0    0  502    0  0.00000000000E+00  0.00000000000E+00  0.10501983942E+04  0.10501983942E+04  0.00000000000E+00 0.  1.
         -1   -1    0    0    0  501 -0.00000000000E+00 -0.00000000000E+00 -0.28376396735E+03  0.28376396735E+03  0.00000000000E+00 0. -1.
    9000007    1    1    2  502    0 -0.50000257864E+01 -0.15255025556E+03 -0.30595171335E+02  0.42922330463E+03  0.40000000000E+03 0. -1.
   -9000007    1    1    2    0  501  0.50000257864E+01  0.15255025556E+03  0.79702959814E+03  0.90473905687E+03  0.40000000000E+03 0.  1.
<mgrwt>
<rscale>  2 0.42813150E+03</rscale>
<asrwt>0</asrwt>
<pdfrwt beam="1">  1        1 0.16156898E+00 0.42813150E+03</pdfrwt>
<pdfrwt beam="2">  1       -1 0.43655996E-01 0.42813150E+03</pdfrwt>
<totfact> 0.76073583E+01</totfact>
</mgrwt>
</event>
<event>
 4    1  0.2488810E-002  0.6354083E+03  0.7818608E-02  0.9834551E-01
          1   -1    0    0  502    0  0.00000000000E+00  0.00000000000E+00  0.21392646540E+04  0.21392646540E+04  0.00000000000E+00 0. -1.
         -1   -1    0    0    0  501 -0.00000000000E+00 -0.00000000000E+00 -0.21702329485E+03  0.21702329485E+03  0.00000000000E+00 0.  1.
    9000007    1    1    2  502    0 -0.22753347856E+02  0.49317950860E+03  0.53573213640E+03  0.83111531361E+03  0.40000000000E+03 0.  1.
   -9000007    1    1    2    0  501  0.22753347856E+02 -0.49317950860E+03  0.13865092228E+04  0.15251726353E+04  0.40000000000E+03 0. -1.
<mgrwt>
<rscale>  2 0.63540833E+03</rscale>
<asrwt>0</asrwt>
<pdfrwt beam="1">  1        1 0.32911762E+00 0.63540833E+03</pdfrwt>
<pdfrwt beam="2">  1       -1 0.33388201E-01 0.63540833E+03</pdfrwt>
<totfact> 0.21459915E+01</totfact>
</mgrwt>
</event>
<event>
 4    1  0.2488810E-002  0.6042017E+03  0.7818608E-02  0.9896727E-01
         -2   -1    0    0    0  501 -0.00000000000E+00  0.00000000000E+00  0.11154646628E+03  0.11154646628E+03  0.00000000000E+00 0.  1.
          2   -1    0    0  502    0  0.00000000000E+00 -0.00000000000E+00 -0.33076462140E+04  0.33076462140E+04  0.00000000000E+00 0. -1.
    9000007    1    1    2  502    0 -0.29246186498E+03  0.34572496960E+03 -0.17737395578E+04  0.18738227547E+04  0.40000000000E+03 0. -1.
   -9000007    1    1    2    0  501  0.29246186498E+03 -0.34572496960E+03 -0.14223601899E+04  0.15453699256E+04  0.40000000000E+03 0. -1.
<mgrwt>
<rscale>  2 0.60420170E+03</rscale>
<asrwt>0</asrwt>
<pdfrwt beam="1">  1        2 0.50886864E+00 0.60420170E+03</pdfrwt>
<pdfrwt beam="2">  1       -2 0.17160995E-01 0.60420170E+03</pdfrwt>
<totfact> 0.33598665E+01</totfact>
</mgrwt>
</event>
<event>
 4    1  0.2488810E-002  0.5105578E+03  0.7818608E-02  0.1011059E+00
         -1   -1    0    0    0  501 -0.00000000000E+00  0.00000000000E+00  0.32831451031E+03  0.32831451031E+03  0.00000000000E+00 0. -1.
          1   -1    0    0  502    0  0.00000000000E+00 -0.00000000000E+00 -0.79414027303E+03  0.79414027303E+03  0.00000000000E+00 0.  1.
    9000007    1    1    2  502    0  0.18290357383E+03  0.25925963585E+03 -0.24131944537E+03  0.56471616837E+03  0.40000000000E+03 0.  1.
   -9000007    1    1    2    0  501 -0.18290357383E+03 -0.25925963585E+03 -0.22450631735E+03  0.55773861497E+03  0.40000000000E+03 0.  1.
<mgrwt>
<rscale>  2 0.51055781E+03</rscale>
<asrwt>0</asrwt>
<pdfrwt beam="1">  1        1 0.12217542E+00 0.51055781E+03</pdfrwt>
<pdfrwt beam="2">  1       -1 0.50509926E-01 0.51055781E+03</pdfrwt>
<totfact> 0.91807514E+01</totfact>
</mgrwt>
</event>
<event>
 4    1  0.2488810E-002  0.7357804E+03  0.7818608E-02  0.9657927E-01
         -2   -1    0    0    0  501 -0.00000000000E+00  0.00000000000E+00  0.39691745046E+03  0.39691745046E+03  0.00000000000E+00 0.  1.
          2   -1    0    0  502    0  0.00000000000E+00 -0.00000000000E+00 -0.27770124133E+04  0.27770124133E+04  0.00000000000E+00 0. -1.
    9000007    1    1    2  502    0 -0.30599002884E+03  0.53641670171E+03 -0.58011663139E+02  0.73806377007E+03  0.40000000000E+03 0.  1.
   -9000007    1    1    2    0  501  0.30599002884E+03 -0.53641670171E+03 -0.23220832997E+04  0.24358660937E+04  0.40000000000E+03 0. -1.
<mgrwt>
<rscale>  2 0.73578039E+03</rscale>
<asrwt>0</asrwt>
<pdfrwt beam="1">  1        2 0.42723267E+00 0.73578039E+03</pdfrwt>
<pdfrwt beam="2">  1       -2 0.61064225E-01 0.73578039E+03</pdfrwt>
<totfact> 0.63196482E+00</totfact>
</mgrwt>
</event>
<event>
 4    1  0.2488810E-002  0.4403752E+03  0.7818608E-02  0.1030632E+00
         -1   -1    0    0    0  501 -0.00000000000E+00  0.00000000000E+00  0.26361922786E+03  0.26361922786E+03  0.00000000000E+00 0.  1.
          1   -1    0    0  502    0  0.00000000000E+00 -0.00000000000E+00 -0.74259640243E+03  0.74259640243E+03  0.00000000000E+00 0. -1.
    9000007    1    1    2  502    0 -0.15693338704E+03 -0.96447835601E+02 -0.19081332642E+03  0.47993749437E+03  0.40000000000E+03 0.  1.
   -9000007    1    1    2    0  501  0.15693338704E+03  0.96447835601E+02 -0.28816384815E+03  0.52627813591E+03  0.40000000000E+03 0. -1.
<mgrwt>
<rscale>  2 0.44037515E+03</rscale>
<asrwt>0</asrwt>
<pdfrwt beam="1">  1        1 0.11424560E+00 0.44037515E+03</pdfrwt>
<pdfrwt beam="2">  1       -1 0.40556805E-01 0.44037515E+03</pdfrwt>
<totfact> 0.15380888E+02</totfact>
</mgrwt>
</event>
<event>
 4    1  0.2488810E-002  0.4032164E+03  0.7818608E-02  0.1042672E+00
         -1   -1    0    0    0  501 -0.00000000000E+00  0.00000000000E+00  0.30936491532E+03  0.30936491532E+03  0.00000000000E+00 0. -1.
          1   -1    0    0  502    0  0.00000000000E+00 -0.00000000000E+00 -0.52700485044E+03  0.52700485044E+03  0.00000000000E+00 0.  1.
    9000007    1    1    2  502    0  0.72914538450E+01  0.50301798393E+02 -0.13087227998E+03  0.42392333020E+03  0.40000000000E+03 0. -1.
   -9000007    1    1    2    0  501 -0.72914538450E+01 -0.50301798393E+02 -0.86767655139E+02  0.41244643555E+03  0.40000000000E+03 0. -1.
<mgrwt>
<rscale>  2 0.40321636E+03</rscale>
<asrwt>0</asrwt>
<pdfrwt beam="1">  1        1 0.81077670E-01 0.40321636E+03</pdfrwt>
<pdfrwt beam="2">  1       -1 0.47594602E-01 0.40321636E+03</pdfrwt>
<totfact> 0.18853095E+02</totfact>
</mgrwt>
</event>
<event>
 4    1  0.2488810E-002  0.4325236E+03  0.7818608E-02  0.1033066E+00
          2   -1    0    0  502    0  0.00000000000E+00  0.00000000000E+00  0.26714579643E+04  0.26714579643E+04  0.00000000000E+00 0.  1.
         -2   -1    0    0    0  501 -0.00000000000E+00 -0.00000000000E+00 -0.12102709816E+03  0.12102709816E+03  0.00000000000E+00 0. -1.
    9000007    1    1    2  502    0  0.16208313755E+03  0.28384669491E+02  0.21815763293E+04  0.22240395485E+04  0.40000000000E+03 0.  1.
   -9000007    1    1    2    0  501 -0.16208313755E+03 -0.28384669491E+02  0.36885453684E+03  0.56844551391E+03  0.40000000000E+03 0. -1.
<mgrwt>
<rscale>  2 0.43252356E+03</rscale>
<asrwt>0</asrwt>
<pdfrwt beam="1">  1        2 0.41099349E+00 0.43252356E+03</pdfrwt>
<pdfrwt beam="2">  1       -2 0.18619556E-01 0.43252356E+03</pdfrwt>
<totfact> 0.73591146E+01</totfact>
</mgrwt>
</event>
<event>
 4    1  0.2488810E-002  0.4913861E+03  0.7818608E-02  0.1016052E+00
          2   -1    0    0  502    0  0.00000000000E+00  0.00000000000E+00  0.32254980225E+04  0.32254980225E+04  0.00000000000E+00 0.  1.
         -2   -1    0    0    0  501 -0.00000000000E+00 -0.00000000000E+00 -0.10686644918E+03  0.10686644918E+03  0.00000000000E+00 0. -1.
    9000007    1    1    2  502    0 -0.73827003854E+02 -0.27569881499E+03  0.64746946718E+03  0.81282038238E+03  0.40000000000E+03 0. -1.
   -9000007    1    1    2    0  501  0.73827003854E+02  0.27569881499E+03  0.24711621062E+04  0.25195440893E+04  0.40000000000E+03 0.  1.
<mgrwt>
<rscale>  2 0.49138606E+03</rscale>
<asrwt>0</asrwt>
<pdfrwt beam="1">  1        2 0.49623039E+00 0.49138606E+03</pdfrwt>
<pdfrwt beam="2">  1       -2 0.16440995E-01 0.49138606E+03</pdfrwt>
<totfact> 0.41817266E+01</totfact>
</mgrwt>
</event>
<event>
 4    1  0.2488810E-002  0.4732182E+03  0.7818608E-02  0.1021016E+00
          2   -1    0    0  502    0  0.00000000000E+00  0.00000000000E+00  0.90229060899E+03  0.90229060899E+03  0.00000000000E+00 0. -1.
         -2   -1    0    0    0  501 -0.00000000000E+00 -0.00000000000E+00 -0.25508478554E+03  0.25508478554E+03  0.00000000000E+00 0.  1.
    9000007    1    1    2  502    0  0.22295193501E+03  0.11928060184E+03  0.22843190103E+03  0.52546794451E+03  0.40000000000E+03 0.  1.
   -9000007    1    1    2    0  501 -0.22295193501E+03 -0.11928060184E+03  0.41877392242E+03  0.63190745003E+03  0.40000000000E+03 0. -1.
<mgrwt>
<rscale>  2 0.47321816E+03</rscale>
<asrwt>0</asrwt>
<pdfrwt beam="1">  1        2 0.13881394E+00 0.47321816E+03</pdfrwt>
<pdfrwt beam="2">  1       -2 0.39243814E-01 0.47321816E+03</pdfrwt>
<totfact> 0.18480629E+02</totfact>
</mgrwt>
</event>
<event>
 4    1  0.2488810E-002  0.4708124E+03  0.7818608E-02  0.1021691E+00
          2   -1    0    0  502    0  0.00000000000E+00  0.00000000000E+00  0.33317281093E+04  0.33317281093E+04  0.00000000000E+00 0.  1.
         -2   -1    0    0    0  501 -0.00000000000E+00 -0.00000000000E+00 -0.69795705459E+02  0.69795705459E+02  0.00000000000E+00 0. -1.
    9000007    1    1    2  502    0 -0.34224367110E+02  0.24595319779E+03  0.12631510540E+04  0.13480411225E+04  0.40000000000E+03 0. -1.
   -9000007    1    1    2    0  501  0.34224367110E+02 -0.24595319779E+03  0.19987813499E+04  0.20534826922E+04  0.40000000000E+03 0. -1.
<mgrwt>
<rscale>  2 0.47081236E+03</rscale>
<asrwt>0</asrwt>
<pdfrwt beam="1">  1        2 0.51257343E+00 0.47081236E+03</pdfrwt>
<pdfrwt beam="2">  1       -2 0.10737803E-01 0.47081236E+03</pdfrwt>
<totfact> 0.72835072E+01</totfact>
</mgrwt>
</event>
<event>
 4    1  0.2488810E-002  0.1271626E+04  0.7818608E-02  0.9052374E-01
          1   -1    0    0  502    0  0.00000000000E+00  0.00000000000E+00  0.60758048084E+03  0.60758048084E+03  0.00000000000E+00 0. -1.
         -1   -1    0    0    0  501 -0.00000000000E+00 -0.00000000000E+00 -0.26981317502E+04  0.26981317502E+04  0.00000000000E+00 0.  1.
    9000007    1    1    2  502    0  0.10390593608E+04  0.61431909437E+03 -0.85249968955E+03  0.15309435083E+04  0.40000000000E+03 0. -1.
   -9000007    1    1    2    0  501 -0.10390593608E+04 -0.61431909437E+03 -0.12380515798E+04  0.17747687228E+04  0.40000000000E+03 0.  1.
<mgrwt>
<rscale>  2 0.12716259E+04</rscale>
<asrwt>0</asrwt>
<pdfrwt beam="1">  1        1 0.93473920E-01 0.12716259E+04</pdfrwt>
<pdfrwt beam="2">  1       -1 0.41509719E+00 0.12716259E+04</pdfrwt>
<totfact> 0.18703633E-01</totfact>
</mgrwt>
</event>
<event>
 4    1  0.2488810E-002  0.4229742E+03  0.7818608E-02  0.1036103E+00
         -2   -1    0    0    0  501 -0.00000000000E+00  0.00000000000E+00  0.13484065446E+03  0.13484065446E+03  0.00000000000E+00 0.  1.
          2   -1    0    0  502    0  0.00000000000E+00 -0.00000000000E+00 -0.13304250313E+04  0.13304250313E+04  0.00000000000E+00 0. -1.
    9000007    1    1    2  502    0 -0.12206173018E+03 -0.63309707613E+02 -0.63601109461E+03  0.76381758131E+03  0.40000000000E+03 0. -1.
   -9000007    1    1    2    0  501  0.12206173018E+03  0.63309707613E+02 -0.55957328226E+03  0.70144810447E+03  0.40000000000E+03 0. -1.
<mgrwt>
<rscale>  2 0.42297421E+03</rscale>
<asrwt>0</asrwt>
<pdfrwt beam="1">  1        2 0.20468077E+00 0.42297421E+03</pdfrwt>
<pdfrwt beam="2">  1       -2 0.20744716E-01 0.42297421E+03</pdfrwt>
<totfact> 0.32910378E+02</totfact>
</mgrwt>
</event>
<event>
 4    1  0.2488810E-002  0.5049550E+03  0.7818608E-02  0.1012494E+00
          4   -1    0    0  502    0  0.00000000000E+00  0.00000000000E+00  0.15035071703E+04  0.15035071703E+04  0.00000000000E+00 0. -1.
         -4   -1    0    0    0  501 -0.00000000000E+00 -0.00000000000E+00 -0.20194317294E+03  0.20194317294E+03  0.00000000000E+00 0.  1.
    9000007    1    1    2  502    0 -0.24667862991E+03 -0.18474080259E+03  0.99209602971E+03  0.11132088945E+04  0.40000000000E+03 0. -1.
   -9000007    1    1    2    0  501  0.24667862991E+03  0.18474080259E+03  0.30946796760E+03  0.59224144870E+03  0.40000000000E+03 0.  1.
<mgrwt>
<rscale>  2 0.50495496E+03</rscale>
<asrwt>0</asrwt>
<pdfrwt beam="1">  1        4 0.23130879E+00 0.50495496E+03</pdfrwt>
<pdfrwt beam="2">  1       -4 0.31068181E-01 0.50495496E+03</pdfrwt>
<totfact> 0.16664790E+00</totfact>
</mgrwt>
</event>
<event>
 4    1  0.2488810E-002  0.4488635E+03  0.7818608E-02  0.1028062E+00
          2   -1    0    0  502    0  0.00000000000E+00  0.00000000000E+00  0.69654269934E+03  0.69654269934E+03  0.00000000000E+00 0. -1.
         -2   -1    0    0    0  501 -0.00000000000E+00 -0.00000000000E+00 -0.55286571458E+03  0.55286571458E+03  0.00000000000E+00 0.  1.
    9000007    1    1    2  502    0  0.19035213491E+03 -0.72418752938E+02 -0.35952778120E+03  0.57509880586E+03  0.40000000000E+03 0. -1.
   -9000007    1    1    2    0  501 -0.19035213491E+03  0.72418752938E+02  0.50320476596E+03  0.67430960806E+03  0.40000000000E+03 0. -1.
<mgrwt>
<rscale>  2 0.44886347E+03</rscale>
<asrwt>0</asrwt>
<pdfrwt beam="1">  1        2 0.10716042E+00 0.44886347E+03</pdfrwt>
<pdfrwt beam="2">  1       -2 0.85056264E-01 0.44886347E+03</pdfrwt>
<totfact> 0.51703794E+01</totfact>
</mgrwt>
</event>
<event>
 4    1  0.2488810E-002  0.4685960E+03  0.7818608E-02  0.1022317E+00
          2   -1    0    0  502    0  0.00000000000E+00  0.00000000000E+00  0.40679091715E+03  0.40679091715E+03  0.00000000000E+00 0. -1.
         -2   -1    0    0    0  501 -0.00000000000E+00 -0.00000000000E+00 -0.11062916828E+04  0.11062916828E+04  0.00000000000E+00 0.  1.
    9000007    1    1    2  502    0 -0.10921980885E+03  0.21829615411E+03 -0.89112506384E+03  0.10068197738E+04  0.40000000000E+03 0.  1.
   -9000007    1    1    2    0  501  0.10921980885E+03 -0.21829615411E+03  0.19162429814E+03  0.50626282619E+03  0.40000000000E+03 0. -1.
<mgrwt>
<rscale>  2 0.46859596E+03</rscale>
<asrwt>0</asrwt>
<pdfrwt beam="1">  1        2 0.62583218E-01 0.46859596E+03</pdfrwt>
<pdfrwt beam="2">  1       -2 0.17019872E+00 0.46859596E+03</pdfrwt>
<totfact> 0.17350727E+01</totfact>
</mgrwt>
</event>
<event>
 4    1  0.2488810E-002  0.5960366E+03  0.7818608E-02  0.9913663E-01
          1   -1    0    0  502    0  0.00000000000E+00  0.00000000000E+00  0.10236546455E+04  0.10236546455E+04  0.00000000000E+00 0. -1.
         -1   -1    0    0    0  501 -0.00000000000E+00 -0.00000000000E+00 -0.40103785924E+03  0.40103785924E+03  0.00000000000E+00 0.  1.
    9000007    1    1    2  502    0  0.37611963119E+03  0.23193452567E+03  0.57267223355E+03  0.82656705006E+03  0.40000000000E+03 0. -1.
   -9000007    1    1    2    0  501 -0.37611963119E+03 -0.23193452567E+03  0.49944552700E+02  0.59812545466E+03  0.40000000000E+03 0.  1.
<mgrwt>
<rscale>  2 0.59603658E+03</rscale>
<asrwt>0</asrwt>
<pdfrwt beam="1">  1        1 0.15748533E+00 0.59603658E+03</pdfrwt>
<pdfrwt beam="2">  1       -1 0.61698133E-01 0.59603658E+03</pdfrwt>
<totfact> 0.40352891E+01</totfact>
</mgrwt>
</event>
<event>
 4    1  0.2488810E-002  0.5307774E+03  0.7818608E-02  0.1006044E+00
          2   -1    0    0  502    0  0.00000000000E+00  0.00000000000E+00  0.15851792489E+04  0.15851792489E+04  0.00000000000E+00 0.  1.
         -2   -1    0    0    0  501 -0.00000000000E+00 -0.00000000000E+00 -0.19293172449E+03  0.19293172449E+03  0.00000000000E+00 0. -1.
    9000007    1    1    2  502    0  0.23177571477E+03  0.26077701681E+03  0.94573091194E+03  0.10844960084E+04  0.40000000000E+03 0.  1.
   -9000007    1    1    2    0  501 -0.23177571477E+03 -0.26077701681E+03  0.44651661249E+03  0.69361496501E+03  0.40000000000E+03 0. -1.
<mgrwt>
<rscale>  2 0.53077739E+03</rscale>
<asrwt>0</asrwt>
<pdfrwt beam="1">  1        2 0.24387372E+00 0.53077739E+03</pdfrwt>
<pdfrwt beam="2">  1       -2 0.29681805E-01 0.53077739E+03</pdfrwt>
<totfact> 0.12386834E+02</totfact>
</mgrwt>
</event>
<event>
 4    1  0.2488810E-002  0.4856556E+03  0.7818608E-02  0.1017592E+00
         -2   -1    0    0    0  501 -0.00000000000E+00  0.00000000000E+00  0.31948474777E+03  0.31948474777E+03  0.00000000000E+00 0. -1.
          2   -1    0    0  502    0  0.00000000000E+00 -0.00000000000E+00 -0.91554975362E+03  0.91554975362E+03  0.00000000000E+00 0.  1.
    9000007    1    1    2  502    0 -0.25481136896E+03  0.10455860781E+03 -0.56977376437E+03  0.74866780269E+03  0.40000000000E+03 0.  1.
   -9000007    1    1    2    0  501  0.25481136896E+03 -0.10455860781E+03 -0.26291241473E+02  0.48636669869E+03  0.40000000000E+03 0. -1.
<mgrwt>
<rscale>  2 0.48565557E+03</rscale>
<asrwt>0</asrwt>
<pdfrwt beam="1">  1        2 0.14085381E+00 0.48565557E+03</pdfrwt>
<pdfrwt beam="2">  1       -2 0.49151500E-01 0.48565557E+03</pdfrwt>
<totfact> 0.11607541E+02</totfact>
</mgrwt>
</event>
<event>
 4    1  0.2488810E-002  0.4460651E+03  0.7818608E-02  0.1028902E+00
         -2   -1    0    0    0  501 -0.00000000000E+00  0.00000000000E+00  0.14983353558E+03  0.14983353558E+03  0.00000000000E+00 0. -1.
          2   -1    0    0  502    0  0.00000000000E+00 -0.00000000000E+00 -0.16154414088E+04  0.16154414088E+04  0.00000000000E+00 0.  1.
    9000007    1    1    2  502    0 -0.19514843735E+03 -0.29852981377E+02 -0.11051405411E+04  0.11917674809E+04  0.40000000000E+03 0.  1.
   -9000007    1    1    2    0  501  0.19514843735E+03  0.29852981377E+02 -0.36046733217E+03  0.57350746347E+03  0.40000000000E+03 0. -1.
<mgrwt>
<rscale>  2 0.44606514E+03</rscale>
<asrwt>0</asrwt>
<pdfrwt beam="1">  1        2 0.24852944E+00 0.44606514E+03</pdfrwt>
<pdfrwt beam="2">  1       -2 0.23051314E-01 0.44606514E+03</pdfrwt>
<totfact> 0.19025983E+02</totfact>
</mgrwt>
</event>
<event>
 4    1  0.2488810E-002  0.5365095E+03  0.7818608E-02  0.1004666E+00
         -2   -1    0    0    0  501 -0.00000000000E+00  0.00000000000E+00  0.16688933599E+03  0.16688933599E+03  0.00000000000E+00 0.  1.
          2   -1    0    0  502    0  0.00000000000E+00 -0.00000000000E+00 -0.22710831043E+04  0.22710831043E+04  0.00000000000E+00 0. -1.
    9000007    1    1    2  502    0 -0.57810819792E+02  0.35284613850E+03 -0.16499724278E+04  0.17350076371E+04  0.40000000000E+03 0. -1.
   -9000007    1    1    2    0  501  0.57810819792E+02 -0.35284613850E+03 -0.45422134051E+03  0.70296480318E+03  0.40000000000E+03 0.  1.
<mgrwt>
<rscale>  2 0.53650954E+03</rscale>
<asrwt>0</asrwt>
<pdfrwt beam="1">  1        2 0.34939736E+00 0.53650954E+03</pdfrwt>
<pdfrwt beam="2">  1       -2 0.25675285E-01 0.53650954E+03</pdfrwt>
<totfact> 0.68539929E+01</totfact>
</mgrwt>
</event>
<event>
 4    1  0.2488810E-002  0.4577233E+03  0.7818608E-02  0.1025444E+00
         -2   -1    0    0    0  501 -0.00000000000E+00  0.00000000000E+00  0.10235050079E+03  0.10235050079E+03  0.00000000000E+00 0. -1.
          2   -1    0    0  502    0  0.00000000000E+00 -0.00000000000E+00 -0.20470267293E+04  0.20470267293E+04  0.00000000000E+00 0.  1.
    9000007    1    1    2  502    0  0.11032419753E+03 -0.19323362852E+03 -0.96791616319E+03  0.10706877989E+04  0.40000000000E+03 0. -1.
   -9000007    1    1    2    0  501 -0.11032419753E+03  0.19323362852E+03 -0.97676006537E+03  0.10786894312E+04  0.40000000000E+03 0. -1.
<mgrwt>
<rscale>  2 0.45772335E+03</rscale>
<asrwt>0</asrwt>
<pdfrwt beam="1">  1        2 0.31492720E+00 0.45772335E+03</pdfrwt>
<pdfrwt beam="2">  1       -2 0.15746230E-01 0.45772335E+03</pdfrwt>
<totfact> 0.21499797E+02</totfact>
</mgrwt>
</event>
<event>
 4    1  0.2488810E-002  0.6941367E+03  0.7818608E-02  0.9727312E-01
         -2   -1    0    0    0  501 -0.00000000000E+00  0.00000000000E+00  0.42802652030E+03  0.42802652030E+03  0.00000000000E+00 0. -1.
          2   -1    0    0  502    0  0.00000000000E+00 -0.00000000000E+00 -0.12661105443E+04  0.12661105443E+04  0.00000000000E+00 0.  1.
    9000007    1    1    2  502    0  0.22188541772E+03  0.52210401068E+03 -0.70113742733E+03  0.98662020483E+03  0.40000000000E+03 0.  1.
   -9000007    1    1    2    0  501 -0.22188541772E+03 -0.52210401068E+03 -0.13694659672E+03  0.70751685981E+03  0.40000000000E+03 0. -1.
<mgrwt>
<rscale>  2 0.69413668E+03</rscale>
<asrwt>0</asrwt>
<pdfrwt beam="1">  1        2 0.19478624E+00 0.69413668E+03</pdfrwt>
<pdfrwt beam="2">  1       -2 0.65850234E-01 0.69413668E+03</pdfrwt>
<totfact> 0.37665137E+01</totfact>
</mgrwt>
</event>
<event>
 4    1  0.2488810E-002  0.4698661E+03  0.7818608E-02  0.1021958E+00
         -2   -1    0    0    0  501 -0.00000000000E+00  0.00000000000E+00  0.23657955447E+03  0.23657955447E+03  0.00000000000E+00 0.  1.
          2   -1    0    0  502    0  0.00000000000E+00 -0.00000000000E+00 -0.98397740345E+03  0.98397740345E+03  0.00000000000E+00 0. -1.
    9000007    1    1    2  502    0  0.13627483939E+03  0.20543455218E+03 -0.51234393094E+03  0.69517658954E+03  0.40000000000E+03 0. -1.
   -9000007    1    1    2    0  501 -0.13627483939E+03 -0.20543455218E+03 -0.23505391804E+03  0.52538036837E+03  0.40000000000E+03 0.  1.
<mgrwt>
<rscale>  2 0.46986614E+03</rscale>
<asrwt>0</asrwt>
<pdfrwt beam="1">  1        2 0.15138114E+00 0.46986614E+03</pdfrwt>
<pdfrwt beam="2">  1       -2 0.36396854E-01 0.46986614E+03</pdfrwt>
<totfact> 0.18910350E+02</totfact>
</mgrwt>
</event>
<event>
 4    1  0.2488810E-002  0.4844668E+03  0.7818608E-02  0.1017915E+00
          1   -1    0    0  502    0  0.00000000000E+00  0.00000000000E+00  0.16884101320E+04  0.16884101320E+04  0.00000000000E+00 0. -1.
         -1   -1    0    0    0  501 -0.00000000000E+00 -0.00000000000E+00 -0.14768798808E+03  0.14768798808E+03  0.00000000000E+00 0.  1.
    9000007    1    1    2  502    0  0.20907513358E+03 -0.17605590537E+03  0.54784047929E+03  0.73132570312E+03  0.40000000000E+03 0.  1.
   -9000007    1    1    2    0  501 -0.20907513358E+03  0.17605590537E+03  0.99288166463E+03  0.11047724170E+04  0.40000000000E+03 0. -1.
<mgrwt>
<rscale>  2 0.48446681E+03</rscale>
<asrwt>0</asrwt>
<pdfrwt beam="1">  1        1 0.25975539E+00 0.48446681E+03</pdfrwt>
<pdfrwt beam="2">  1       -1 0.22721230E-01 0.48446681E+03</pdfrwt>
<totfact> 0.84853073E+01</totfact>
</mgrwt>
</event>
<event>
 4    1  0.2488810E-002  0.4331067E+03  0.7818608E-02  0.1032883E+00
         -2   -1    0    0    0  501 -0.00000000000E+00  0.00000000000E+00  0.34173902544E+03  0.34173902544E+03  0.00000000000E+00 0.  1.
          2   -1    0    0  502    0  0.00000000000E+00 -0.00000000000E+00 -0.61082487266E+03  0.61082487266E+03  0.00000000000E+00 0. -1.
    9000007    1    1    2  502    0 -0.80157631489E+02 -0.14545173075E+03 -0.28618826855E+03  0.51911961716E+03  0.40000000000E+03 0. -1.
   -9000007    1    1    2    0  501  0.80157631489E+02  0.14545173075E+03  0.17102421326E+02  0.43344428094E+03  0.40000000000E+03 0.  1.
<mgrwt>
<rscale>  2 0.43310674E+03</rscale>
<asrwt>0</asrwt>
<pdfrwt beam="1">  1        2 0.93973056E-01 0.43310674E+03</pdfrwt>
<pdfrwt beam="2">  1       -2 0.52575236E-01 0.43310674E+03</pdfrwt>
<totfact> 0.17058547E+02</totfact>
</mgrwt>
</event>
<event>
 4    1  0.2488810E-002  0.4518966E+03  0.7818608E-02  0.1027158E+00
          2   -1    0    0  502    0  0.00000000000E+00  0.00000000000E+00  0.10913131076E+04  0.10913131076E+04  0.00000000000E+00 0. -1.
         -2   -1    0    0    0  501 -0.00000000000E+00 -0.00000000000E+00 -0.19684428505E+03  0.19684428505E+03  0.00000000000E+00 0.  1.
    9000007    1    1    2  502    0  0.15806023656E+03  0.13866310056E+03  0.59036247981E+03  0.74346375259E+03  0.40000000000E+03 0. -1.
   -9000007    1    1    2    0  501 -0.15806023656E+03 -0.13866310056E+03  0.30410634272E+03  0.54469364006E+03  0.40000000000E+03 0. -1.
<mgrwt>
<rscale>  2 0.45189655E+03</rscale>
<asrwt>0</asrwt>
<pdfrwt beam="1">  1        2 0.16789432E+00 0.45189655E+03</pdfrwt>
<pdfrwt beam="2">  1       -2 0.30283737E-01 0.45189655E+03</pdfrwt>
<totfact> 0.22946938E+02</totfact>
</mgrwt>
</event>
<event>
 4    1  0.2488810E-002  0.4662384E+03  0.7818608E-02  0.1022987E+00
         -2   -1    0    0    0  501 -0.00000000000E+00  0.00000000000E+00  0.79962520775E+02  0.79962520775E+02  0.00000000000E+00 0.  1.
          2   -1    0    0  502    0  0.00000000000E+00 -0.00000000000E+00 -0.28713313880E+04  0.28713313880E+04  0.00000000000E+00 0. -1.
    9000007    1    1    2  502    0  0.10793041656E+03 -0.21384393970E+03 -0.10552406259E+04  0.11536511535E+04  0.40000000000E+03 0.  1.
   -9000007    1    1    2    0  501 -0.10793041656E+03  0.21384393970E+03 -0.17361282414E+04  0.17976427553E+04  0.40000000000E+03 0. -1.
<mgrwt>
<rscale>  2 0.46623836E+03</rscale>
<asrwt>0</asrwt>
<pdfrwt beam="1">  1        2 0.44174332E+00 0.46623836E+03</pdfrwt>
<pdfrwt beam="2">  1       -2 0.12301926E-01 0.46623836E+03</pdfrwt>
<totfact> 0.11220032E+02</totfact>
</mgrwt>
</event>
<event>
 4    1  0.2488810E-002  0.4855284E+03  0.7818608E-02  0.1017627E+00
          2   -1    0    0  502    0  0.00000000000E+00  0.00000000000E+00  0.39131382295E+03  0.39131382295E+03  0.00000000000E+00 0.  1.
         -2   -1    0    0    0  501 -0.00000000000E+00 -0.00000000000E+00 -0.77108441652E+03  0.77108441652E+03  0.00000000000E+00 0. -1.
    9000007    1    1    2  502    0  0.14447020871E+03 -0.23423539416E+03 -0.46170266576E+03  0.67000538256E+03  0.40000000000E+03 0.  1.
   -9000007    1    1    2    0  501 -0.14447020871E+03  0.23423539416E+03  0.81932072197E+02  0.49239285691E+03  0.40000000000E+03 0.  1.
<mgrwt>
<rscale>  2 0.48552843E+03</rscale>
<asrwt>0</asrwt>
<pdfrwt beam="1">  1        2 0.60202127E-01 0.48552843E+03</pdfrwt>
<pdfrwt beam="2">  1       -2 0.11862837E+00 0.48552843E+03</pdfrwt>
<totfact> 0.45984410E+01</totfact>
</mgrwt>
</event>
<event>
 4    1  0.2488810E-002  0.8284881E+03  0.7818608E-02  0.9519673E-01
         -1   -1    0    0    0  501 -0.00000000000E+00  0.00000000000E+00  0.31944322436E+03  0.31944322436E+03  0.00000000000E+00 0. -1.
          1   -1    0    0  502    0  0.00000000000E+00 -0.00000000000E+00 -0.23230075776E+04  0.23230075776E+04  0.00000000000E+00 0.  1.
    9000007    1    1    2  502    0 -0.23795035481E+03  0.68539932574E+03 -0.63988064044E+03  0.10468236915E+04  0.40000000000E+03 0. -1.
   -9000007    1    1    2    0  501  0.23795035481E+03 -0.68539932574E+03 -0.13636837128E+04  0.15956271105E+04  0.40000000000E+03 0.  1.
<mgrwt>
<rscale>  2 0.82848815E+03</rscale>
<asrwt>0</asrwt>
<pdfrwt beam="1">  1        1 0.35738578E+00 0.82848815E+03</pdfrwt>
<pdfrwt beam="2">  1       -1 0.49145112E-01 0.82848815E+03</pdfrwt>
<totfact> 0.77388524E+00</totfact>
</mgrwt>
</event>
<event>
 4    1  0.2488810E-002  0.4086518E+03  0.7818608E-02  0.1040824E+00
          2   -1    0    0  502    0  0.00000000000E+00  0.00000000000E+00  0.45756601940E+03  0.45756601940E+03  0.00000000000E+00 0. -1.
         -2   -1    0    0    0  501 -0.00000000000E+00 -0.00000000000E+00 -0.44546775192E+03  0.44546775192E+03  0.00000000000E+00 0.  1.
    9000007    1    1    2  502    0 -0.79232938284E+02 -0.26803847169E+02  0.19798978573E+03  0.45408838345E+03  0.40000000000E+03 0. -1.
   -9000007    1    1    2    0  501  0.79232938284E+02  0.26803847169E+02 -0.18589151825E+03  0.44894538787E+03  0.40000000000E+03 0.  1.
<mgrwt>
<rscale>  2 0.40865181E+03</rscale>
<asrwt>0</asrwt>
<pdfrwt beam="1">  1        2 0.70394772E-01 0.40865181E+03</pdfrwt>
<pdfrwt beam="2">  1       -2 0.68533500E-01 0.40865181E+03</pdfrwt>
<totfact> 0.13693967E+02</totfact>
</mgrwt>
</event>
<event>
 4    1  0.2488810E-002  0.4714759E+03  0.7818608E-02  0.1021504E+00
          1   -1    0    0  502    0  0.00000000000E+00  0.00000000000E+00  0.81550410872E+03  0.81550410872E+03  0.00000000000E+00 0. -1.
         -1   -1    0    0    0  501 -0.00000000000E+00 -0.00000000000E+00 -0.28254016599E+03  0.28254016599E+03  0.00000000000E+00 0.  1.
    9000007    1    1    2  502    0 -0.24528689484E+03  0.46085319414E+02  0.16339616184E+03  0.49898679657E+03  0.40000000000E+03 0.  1.
   -9000007    1    1    2    0  501  0.24528689484E+03 -0.46085319414E+02  0.36956778089E+03  0.59905747814E+03  0.40000000000E+03 0. -1.
<mgrwt>
<rscale>  2 0.47147589E+03</rscale>
<asrwt>0</asrwt>
<pdfrwt beam="1">  1        1 0.12546217E+00 0.47147589E+03</pdfrwt>
<pdfrwt beam="2">  1       -1 0.43467718E-01 0.47147589E+03</pdfrwt>
<totfact> 0.11684795E+02</totfact>
</mgrwt>
</event>
<event>
 4    1  0.2488810E-002  0.4887188E+03  0.7818608E-02  0.1016766E+00
         -2   -1    0    0    0  501 -0.00000000000E+00  0.00000000000E+00  0.39470598668E+03  0.39470598668E+03  0.00000000000E+00 0. -1.
          2   -1    0    0  502    0  0.00000000000E+00 -0.00000000000E+00 -0.67565869888E+03  0.67565869888E+03  0.00000000000E+00 0.  1.
    9000007    1    1    2  502    0 -0.22239884850E+03 -0.17141989981E+03 -0.31339418587E+03  0.58057036232E+03  0.40000000000E+03 0.  1.
   -9000007    1    1    2    0  501  0.22239884850E+03  0.17141989981E+03  0.32441473665E+02  0.48979432324E+03  0.40000000000E+03 0. -1.
<mgrwt>
<rscale>  2 0.48871876E+03</rscale>
<asrwt>0</asrwt>
<pdfrwt beam="1">  1        2 0.10394749E+00 0.48871876E+03</pdfrwt>
<pdfrwt beam="2">  1       -2 0.60723999E-01 0.48871876E+03</pdfrwt>
<totfact> 0.11149385E+02</totfact>
</mgrwt>
</event>
<event>
 4    1  0.2488810E-002  0.4584935E+03  0.7818608E-02  0.1025219E+00
         -1   -1    0    0    0  501 -0.00000000000E+00  0.00000000000E+00  0.65542412307E+03  0.65542412307E+03  0.00000000000E+00 0.  1.
          1   -1    0    0  502    0  0.00000000000E+00 -0.00000000000E+00 -0.32644297185E+03  0.32644297185E+03  0.00000000000E+00 0. -1.
    9000007    1    1    2  502    0 -0.12835047351E+03 -0.18369110729E+03  0.99563032123E+02  0.46917913883E+03  0.40000000000E+03 0. -1.
   -9000007    1    1    2    0  501  0.12835047351E+03  0.18369110729E+03  0.22941811909E+03  0.51268795609E+03  0.40000000000E+03 0. -1.
<mgrwt>
<rscale>  2 0.45849348E+03</rscale>
<asrwt>0</asrwt>
<pdfrwt beam="1">  1        1 0.50221996E-01 0.45849348E+03</pdfrwt>
<pdfrwt beam="2">  1       -1 0.10083448E+00 0.45849348E+03</pdfrwt>
<totfact> 0.76647391E+01</totfact>
</mgrwt>
</event>
<event>
 4    1  0.2488810E-002  0.5103433E+03  0.7818608E-02  0.1011114E+00
         -2   -1    0    0    0  501 -0.00000000000E+00  0.00000000000E+00  0.25457202610E+03  0.25457202610E+03  0.00000000000E+00 0. -1.
          2   -1    0    0  502    0  0.00000000000E+00 -0.00000000000E+00 -0.11634000906E+04  0.11634000906E+04  0.00000000000E+00 0.  1.
    9000007    1    1    2  502    0 -0.95667183209E+02 -0.30215574156E+03 -0.20819799507E+03  0.55117756418E+03  0.40000000000E+03 0. -1.
   -9000007    1    1    2    0  501  0.95667183209E+02  0.30215574156E+03 -0.70063006946E+03  0.86679455255E+03  0.40000000000E+03 0.  1.
<mgrwt>
<rscale>  2 0.51034332E+03</rscale>
<asrwt>0</asrwt>
<pdfrwt beam="1">  1        2 0.17898463E+00 0.51034332E+03</pdfrwt>
<pdfrwt beam="2">  1       -2 0.39164927E-01 0.51034332E+03</pdfrwt>
<totfact> 0.12719864E+02</totfact>
</mgrwt>
</event>
<event>
 4    1  0.2488810E-002  0.4163309E+03  0.7818608E-02  0.1038267E+00
          1   -1    0    0  502    0  0.00000000000E+00  0.00000000000E+00  0.16396431511E+03  0.16396431511E+03  0.00000000000E+00 0. -1.
         -1   -1    0    0    0  501 -0.00000000000E+00 -0.00000000000E+00 -0.12606825272E+04  0.12606825272E+04  0.00000000000E+00 0.  1.
    9000007    1    1    2  502    0 -0.15582987023E+02 -0.11440544413E+03 -0.83458812113E+03  0.93266755442E+03  0.40000000000E+03 0.  1.
   -9000007    1    1    2    0  501  0.15582987023E+02  0.11440544413E+03 -0.26213009098E+03  0.49197928790E+03  0.40000000000E+03 0. -1.
<mgrwt>
<rscale>  2 0.41633092E+03</rscale>
<asrwt>0</asrwt>
<pdfrwt beam="1">  1        1 0.25225278E-01 0.41633092E+03</pdfrwt>
<pdfrwt beam="2">  1       -1 0.19395117E+00 0.41633092E+03</pdfrwt>
<totfact> 0.34003519E+01</totfact>
</mgrwt>
</event>
<event>
 4    1  0.2488810E-002  0.4356688E+03  0.7818608E-02  0.1032084E+00
         -2   -1    0    0    0  501 -0.00000000000E+00  0.00000000000E+00  0.59628847986E+03  0.59628847986E+03  0.00000000000E+00 0.  1.
          2   -1    0    0  502    0  0.00000000000E+00 -0.00000000000E+00 -0.41367614546E+03  0.41367614546E+03  0.00000000000E+00 0. -1.
    9000007    1    1    2  502    0 -0.15216513525E+03 -0.81566580044E+02  0.33376194824E+03  0.54882089379E+03  0.40000000000E+03 0.  1.
   -9000007    1    1    2    0  501  0.15216513525E+03  0.81566580044E+02 -0.15114961384E+03  0.46114373153E+03  0.40000000000E+03 0. -1.
<mgrwt>
<rscale>  2 0.43566884E+03</rscale>
<asrwt>0</asrwt>
<pdfrwt beam="1">  1        2 0.63642484E-01 0.43566884E+03</pdfrwt>
<pdfrwt beam="2">  1       -2 0.91736689E-01 0.43566884E+03</pdfrwt>
<totfact> 0.79942100E+01</totfact>
</mgrwt>
</event>
<event>
 4    1  0.2488810E-002  0.4083585E+03  0.7818608E-02  0.1040923E+00
          1   -1    0    0  502    0  0.00000000000E+00  0.00000000000E+00  0.54805880201E+03  0.54805880201E+03  0.00000000000E+00 0. -1.
         -1   -1    0    0    0  501 -0.00000000000E+00 -0.00000000000E+00 -0.30648261836E+03  0.30648261836E+03  0.00000000000E+00 0.  1.
    9000007    1    1    2  502    0  0.27404245614E+02 -0.77496043104E+02  0.15711029828E+03  0.43753888422E+03  0.40000000000E+03 0. -1.
   -9000007    1    1    2    0  501 -0.27404245614E+02  0.77496043104E+02  0.84465885367E+02  0.41700253616E+03  0.40000000000E+03 0.  1.
<mgrwt>
<rscale>  2 0.40835846E+03</rscale>
<asrwt>0</asrwt>
<pdfrwt beam="1">  1        1 0.84316739E-01 0.40835846E+03</pdfrwt>
<pdfrwt beam="2">  1       -1 0.47151172E-01 0.40835846E+03</pdfrwt>
<totfact> 0.18169634E+02</totfact>
</mgrwt>
</event>
<event>
 4    1  0.2488810E-002  0.4045464E+03  0.7818608E-02  0.1042217E+00
         -2   -1    0    0    0  501 -0.00000000000E+00  0.00000000000E+00  0.13354090466E+03  0.13354090466E+03  0.00000000000E+00 0. -1.
          2   -1    0    0  502    0  0.00000000000E+00 -0.00000000000E+00 -0.12326528272E+04  0.12326528272E+04  0.00000000000E+00 0.  1.
    9000007    1    1    2  502    0 -0.53951023690E+02 -0.27332823754E+02 -0.60149841443E+03  0.72488491416E+03  0.40000000000E+03 0.  1.
   -9000007    1    1    2    0  501  0.53951023690E+02  0.27332823754E+02 -0.49761350816E+03  0.64130881774E+03  0.40000000000E+03 0. -1.
<mgrwt>
<rscale>  2 0.40454641E+03</rscale>
<asrwt>0</asrwt>
<pdfrwt beam="1">  1        2 0.18963890E+00 0.40454641E+03</pdfrwt>
<pdfrwt beam="2">  1       -2 0.20544754E-01 0.40454641E+03</pdfrwt>
<totfact> 0.38095332E+02</totfact>
</mgrwt>
</event>
<event>
 4    1  0.2488810E-002  0.4844445E+03  0.7818608E-02  0.1017921E+00
          2   -1    0    0  502    0  0.00000000000E+00  0.00000000000E+00  0.43681058745E+03  0.43681058745E+03  0.00000000000E+00 0.  1.
         -2   -1    0    0    0  501 -0.00000000000E+00 -0.00000000000E+00 -0.65359131778E+03  0.65359131778E+03  0.00000000000E+00 0. -1.
    9000007    1    1    2  502    0  0.27327992686E+03  0.21399137546E+01 -0.33839028448E+03  0.59092679943E+03  0.40000000000E+03 0. -1.
   -9000007    1    1    2    0  501 -0.27327992686E+03 -0.21399137546E+01  0.12160955415E+03  0.49947510580E+03  0.40000000000E+03 0.  1.
<mgrwt>
<rscale>  2 0.48444452E+03</rscale>
<asrwt>0</asrwt>
<pdfrwt beam="1">  1        2 0.67201629E-01 0.48444452E+03</pdfrwt>
<pdfrwt beam="2">  1       -2 0.10055251E+00 0.48444452E+03</pdfrwt>
<totfact> 0.60495946E+01</totfact>
</mgrwt>
</event>
<event>
 4    1  0.2488810E-002  0.5209348E+03  0.7818608E-02  0.1008455E+00
         -2   -1    0    0    0  501 -0.00000000000E+00  0.00000000000E+00  0.33656564970E+03  0.33656564970E+03  0.00000000000E+00 0.  1.
          2   -1    0    0  502    0  0.00000000000E+00 -0.00000000000E+00 -0.83978151677E+03  0.83978151677E+03  0.00000000000E+00 0. -1.
    9000007    1    1    2  502    0  0.13098925867E+01  0.33372350830E+03 -0.13416663969E+03  0.53793473862E+03  0.40000000000E+03 0.  1.
   -9000007    1    1    2    0  501 -0.13098925867E+01 -0.33372350830E+03 -0.36904922738E+03  0.63841242785E+03  0.40000000000E+03 0. -1.
<mgrwt>
<rscale>  2 0.52093483E+03</rscale>
<asrwt>0</asrwt>
<pdfrwt beam="1">  1        2 0.12919716E+00 0.52093483E+03</pdfrwt>
<pdfrwt beam="2">  1       -2 0.51779330E-01 0.52093483E+03</pdfrwt>
<totfact> 0.11706256E+02</totfact>
</mgrwt>
</event>
<event>
 4    1  0.2488810E-002  0.4101934E+03  0.7818608E-02  0.1040306E+00
         -1   -1    0    0    0  501 -0.00000000000E+00  0.00000000000E+00  0.54642078799E+03  0.54642078799E+03  0.00000000000E+00 0. -1.
          1   -1    0    0  502    0  0.00000000000E+00 -0.00000000000E+00 -0.30793129215E+03  0.30793129215E+03  0.00000000000E+00 0.  1.
    9000007    1    1    2  502    0 -0.25692019524E+02 -0.87169427773E+02  0.11798199298E+03  0.42682354630E+03  0.40000000000E+03 0. -1.
   -9000007    1    1    2    0  501  0.25692019524E+02  0.87169427773E+02  0.12050750286E+03  0.42752853384E+03  0.40000000000E+03 0.  1.
<mgrwt>
<rscale>  2 0.41019336E+03</rscale>
<asrwt>0</asrwt>
<pdfrwt beam="1">  1        1 0.47374045E-01 0.41019336E+03</pdfrwt>
<pdfrwt beam="2">  1       -1 0.84064737E-01 0.41019336E+03</pdfrwt>
<totfact> 0.12375082E+02</totfact>
</mgrwt>
</event>
<event>
 4    1  0.2488810E-002  0.4309648E+03  0.7818608E-02  0.1033556E+00
         -2   -1    0    0    0  501 -0.00000000000E+00  0.00000000000E+00  0.85157764258E+02  0.85157764258E+02  0.00000000000E+00 0. -1.
          2   -1    0    0  502    0  0.00000000000E+00 -0.00000000000E+00 -0.21835091928E+04  0.21835091928E+04  0.00000000000E+00 0.  1.
    9000007    1    1    2  502    0  0.15911463159E+03 -0.20326358615E+02 -0.10874896279E+04  0.11697710535E+04  0.40000000000E+03 0.  1.
   -9000007    1    1    2    0  501 -0.15911463159E+03  0.20326358615E+02 -0.10108618006E+04  0.10988959035E+04  0.40000000000E+03 0.  1.
<mgrwt>
<rscale>  2 0.43096476E+03</rscale>
<asrwt>0</asrwt>
<pdfrwt beam="1">  1        2 0.33592453E+00 0.43096476E+03</pdfrwt>
<pdfrwt beam="2">  1       -2 0.13101193E-01 0.43096476E+03</pdfrwt>
<totfact> 0.24765439E+02</totfact>
</mgrwt>
</event>
<event>
 4    1  0.2488810E-002  0.4595988E+03  0.7818608E-02  0.1024898E+00
         -2   -1    0    0    0  501 -0.00000000000E+00  0.00000000000E+00  0.39990899543E+03  0.39990899543E+03  0.00000000000E+00 0. -1.
          2   -1    0    0  502    0  0.00000000000E+00 -0.00000000000E+00 -0.11788008845E+04  0.11788008845E+04  0.00000000000E+00 0.  1.
    9000007    1    1    2  502    0  0.21062042603E+03  0.82886150503E+02  0.19697590289E+03  0.50003058319E+03  0.40000000000E+03 0. -1.
   -9000007    1    1    2    0  501 -0.21062042603E+03 -0.82886150503E+02 -0.97586779195E+03  0.10786792967E+04  0.40000000000E+03 0.  1.
<mgrwt>
<rscale>  2 0.45959882E+03</rscale>
<asrwt>0</asrwt>
<pdfrwt beam="1">  1        2 0.18135398E+00 0.45959882E+03</pdfrwt>
<pdfrwt beam="2">  1       -2 0.61524461E-01 0.45959882E+03</pdfrwt>
<totfact> 0.50447569E+01</totfact>
</mgrwt>
</event>
<event>
 4    1  0.2488810E-002  0.4863634E+03  0.7818608E-02  0.1017401E+00
          2   -1    0    0  502    0  0.00000000000E+00  0.00000000000E+00  0.47191429579E+03  0.47191429579E+03  0.00000000000E+00 0. -1.
         -2   -1    0    0    0  501 -0.00000000000E+00 -0.00000000000E+00 -0.50869118744E+03  0.50869118744E+03  0.00000000000E+00 0.  1.
    9000007    1    1    2  502    0 -0.19908489471E+03  0.19213161878E+03  0.40892514614E+02  0.48807945254E+03  0.40000000000E+03 0. -1.
   -9000007    1    1    2    0  501  0.19908489471E+03 -0.19213161878E+03 -0.77669406261E+02  0.49252603069E+03  0.40000000000E+03 0.  1.
<mgrwt>
<rscale>  2 0.48636340E+03</rscale>
<asrwt>0</asrwt>
<pdfrwt beam="1">  1        2 0.72602199E-01 0.48636340E+03</pdfrwt>
<pdfrwt beam="2">  1       -2 0.78260183E-01 0.48636340E+03</pdfrwt>
<totfact> 0.98313220E+01</totfact>
</mgrwt>
</event>
<event>
 4    1  0.2488810E-002  0.7630383E+03  0.7818608E-02  0.9615114E-01
          2   -1    0    0  502    0  0.00000000000E+00  0.00000000000E+00  0.54426121343E+03  0.54426121343E+03  0.00000000000E+00 0. -1.
         -2   -1    0    0    0  501 -0.00000000000E+00 -0.00000000000E+00 -0.10724694208E+04  0.10724694208E+04  0.00000000000E+00 0.  1.
    9000007    1    1    2  502    0 -0.43738955331E+03  0.48053909728E+03 -0.30475442337E+03  0.82164633750E+03  0.40000000000E+03 0.  1.
   -9000007    1    1    2    0  501  0.43738955331E+03 -0.48053909728E+03 -0.22345378401E+03  0.79508429676E+03  0.40000000000E+03 0. -1.
<mgrwt>
<rscale>  2 0.76303830E+03</rscale>
<asrwt>0</asrwt>
<pdfrwt beam="1">  1        2 0.83732496E-01 0.76303830E+03</pdfrwt>
<pdfrwt beam="2">  1       -2 0.16499529E+00 0.76303830E+03</pdfrwt>
<totfact> 0.13086269E+01</totfact>
</mgrwt>
</event>
<event>
 4    1  0.2488810E-002  0.5284561E+03  0.7818608E-02  0.1006607E+00
         -2   -1    0    0    0  501 -0.00000000000E+00  0.00000000000E+00  0.78229880789E+03  0.78229880789E+03  0.00000000000E+00 0. -1.
          2   -1    0    0  502    0  0.00000000000E+00 -0.00000000000E+00 -0.95185117304E+03  0.95185117304E+03  0.00000000000E+00 0.  1.
    9000007    1    1    2  502    0  0.42021055548E+02 -0.34278281647E+03 -0.77023793001E+03  0.93409437274E+03  0.40000000000E+03 0.  1.
   -9000007    1    1    2    0  501 -0.42021055548E+02  0.34278281647E+03  0.60068556485E+03  0.80005560819E+03  0.40000000000E+03 0. -1.
<mgrwt>
<rscale>  2 0.52845608E+03</rscale>
<asrwt>0</asrwt>
<pdfrwt beam="1">  1        2 0.14643864E+00 0.52845608E+03</pdfrwt>
<pdfrwt beam="2">  1       -2 0.12035366E+00 0.52845608E+03</pdfrwt>
<totfact> 0.14929569E+01</totfact>
</mgrwt>
</event>
<event>
 4    1  0.2488810E-002  0.4970384E+03  0.7818608E-02  0.1014555E+00
         -1   -1    0    0    0  501 -0.00000000000E+00  0.00000000000E+00  0.28943291936E+04  0.28943291936E+04  0.00000000000E+00 0. -1.
          1   -1    0    0  502    0  0.00000000000E+00 -0.00000000000E+00 -0.14478490350E+03  0.14478490350E+03  0.00000000000E+00 0.  1.
    9000007    1    1    2  502    0 -0.27581075956E+03 -0.10476455168E+03  0.23483164319E+04  0.24003410697E+04  0.40000000000E+03 0. -1.
   -9000007    1    1    2    0  501  0.27581075956E+03  0.10476455168E+03  0.40122785819E+03  0.63877302742E+03  0.40000000000E+03 0.  1.
<mgrwt>
<rscale>  2 0.49703842E+03</rscale>
<asrwt>0</asrwt>
<pdfrwt beam="1">  1        1 0.22274603E-01 0.49703842E+03</pdfrwt>
<pdfrwt beam="2">  1       -1 0.44528137E+00 0.49703842E+03</pdfrwt>
<totfact> 0.89188109E-01</totfact>
</mgrwt>
</event>
<event>
 4    1  0.2488810E-002  0.4022815E+03  0.7818608E-02  0.1042993E+00
          1   -1    0    0  502    0  0.00000000000E+00  0.00000000000E+00  0.17964149792E+03  0.17964149792E+03  0.00000000000E+00 0.  1.
         -1   -1    0    0    0  501 -0.00000000000E+00 -0.00000000000E+00 -0.90099784168E+03  0.90099784168E+03  0.00000000000E+00 0. -1.
    9000007    1    1    2  502    0  0.33798476082E+02  0.26231461330E+02 -0.35380698412E+03  0.53573296386E+03  0.40000000000E+03 0.  1.
   -9000007    1    1    2    0  501 -0.33798476082E+02 -0.26231461330E+02 -0.36754935964E+03  0.54490637574E+03  0.40000000000E+03 0. -1.
<mgrwt>
<rscale>  2 0.40228153E+03</rscale>
<asrwt>0</asrwt>
<pdfrwt beam="1">  1        1 0.27637154E-01 0.40228153E+03</pdfrwt>
<pdfrwt beam="2">  1       -1 0.13861505E+00 0.40228153E+03</pdfrwt>
<totfact> 0.77165965E+01</totfact>
</mgrwt>
</event>
<event>
 4    1  0.2488810E-002  0.4806477E+03  0.7818608E-02  0.1018957E+00
          2   -1    0    0  502    0  0.00000000000E+00  0.00000000000E+00  0.12588755629E+04  0.12588755629E+04  0.00000000000E+00 0.  1.
         -2   -1    0    0    0  501 -0.00000000000E+00 -0.00000000000E+00 -0.18653792679E+03  0.18653792679E+03  0.00000000000E+00 0. -1.
    9000007    1    1    2  502    0 -0.23988927455E+03  0.11608356646E+03  0.62817328731E+03  0.79096392923E+03  0.40000000000E+03 0. -1.
   -9000007    1    1    2    0  501  0.23988927455E+03 -0.11608356646E+03  0.44416434877E+03  0.65444956044E+03  0.40000000000E+03 0. -1.
<mgrwt>
<rscale>  2 0.48064775E+03</rscale>
<asrwt>0</asrwt>
<pdfrwt beam="1">  1        2 0.19367316E+00 0.48064775E+03</pdfrwt>
<pdfrwt beam="2">  1       -2 0.28698143E-01 0.48064775E+03</pdfrwt>
<totfact> 0.20137351E+02</totfact>
</mgrwt>
</event>
<event>
 4    1  0.2488810E-002  0.4035530E+03  0.7818608E-02  0.1042556E+00
          2   -1    0    0  502    0  0.00000000000E+00  0.00000000000E+00  0.35009246491E+04  0.35009246491E+04  0.00000000000E+00 0.  1.
         -2   -1    0    0    0  501 -0.00000000000E+00 -0.00000000000E+00 -0.62078837079E+02  0.62078837079E+02  0.00000000000E+00 0. -1.
    9000007    1    1    2  502    0  0.50060227780E+02  0.18682193860E+02  0.82748467824E+03  0.92064430889E+03  0.40000000000E+03 0. -1.
   -9000007    1    1    2    0  501 -0.50060227780E+02 -0.18682193860E+02  0.26113611338E+04  0.26423591773E+04  0.40000000000E+03 0.  1.
<mgrwt>
<rscale>  2 0.40355303E+03</rscale>
<asrwt>0</asrwt>
<pdfrwt beam="1">  1        2 0.53860364E+00 0.40355303E+03</pdfrwt>
<pdfrwt beam="2">  1       -2 0.95505930E-02 0.40355303E+03</pdfrwt>
<totfact> 0.69266218E+01</totfact>
</mgrwt>
</event>
<event>
 4    1  0.2488810E-002  0.4395163E+03  0.7818608E-02  0.1030895E+00
          1   -1    0    0  502    0  0.00000000000E+00  0.00000000000E+00  0.12155245769E+04  0.12155245769E+04  0.00000000000E+00 0. -1.
         -1   -1    0    0    0  501 -0.00000000000E+00 -0.00000000000E+00 -0.16162546968E+03  0.16162546968E+03  0.00000000000E+00 0.  1.
    9000007    1    1    2  502    0 -0.15078318969E+03 -0.10217153889E+03  0.43790830610E+03  0.62043394346E+03  0.40000000000E+03 0.  1.
   -9000007    1    1    2    0  501  0.15078318969E+03  0.10217153889E+03  0.61599080111E+03  0.75671610311E+03  0.40000000000E+03 0.  1.
<mgrwt>
<rscale>  2 0.43951632E+03</rscale>
<asrwt>0</asrwt>
<pdfrwt beam="1">  1        1 0.18700378E+00 0.43951632E+03</pdfrwt>
<pdfrwt beam="2">  1       -1 0.24865458E-01 0.43951632E+03</pdfrwt>
<totfact> 0.15423445E+02</totfact>
</mgrwt>
</event>
<event>
 4    1  0.2488810E-002  0.4106461E+03  0.7818608E-02  0.1040154E+00
         -2   -1    0    0    0  501 -0.00000000000E+00  0.00000000000E+00  0.27335587792E+03  0.27335587792E+03  0.00000000000E+00 0. -1.
          2   -1    0    0  502    0  0.00000000000E+00 -0.00000000000E+00 -0.75486503684E+03  0.75486503684E+03  0.00000000000E+00 0.  1.
    9000007    1    1    2  502    0  0.17328018224E+02 -0.91268705189E+02 -0.20956648052E+02  0.41118051736E+03  0.40000000000E+03 0. -1.
   -9000007    1    1    2    0  501 -0.17328018224E+02  0.91268705189E+02 -0.46055251087E+03  0.61704039740E+03  0.40000000000E+03 0.  1.
<mgrwt>
<rscale>  2 0.41064612E+03</rscale>
<asrwt>0</asrwt>
<pdfrwt beam="1">  1        2 0.11613308E+00 0.41064612E+03</pdfrwt>
<pdfrwt beam="2">  1       -2 0.42054751E-01 0.41064612E+03</pdfrwt>
<totfact> 0.20561899E+02</totfact>
</mgrwt>
</event>
<event>
 4    1  0.2488810E-002  0.6145931E+03  0.7818608E-02  0.9875584E-01
          4   -1    0    0  502    0  0.00000000000E+00  0.00000000000E+00  0.18652262439E+04  0.18652262439E+04  0.00000000000E+00 0.  1.
         -4   -1    0    0    0  501 -0.00000000000E+00 -0.00000000000E+00 -0.20255498274E+03  0.20255498274E+03  0.00000000000E+00 0. -1.
    9000007    1    1    2  502    0  0.16193237805E+02  0.46632872015E+03  0.81572127349E+03  0.10213353476E+04  0.40000000000E+03 0.  1.
   -9000007    1    1    2    0  501 -0.16193237805E+02 -0.46632872015E+03  0.84694998768E+03  0.10464458791E+04  0.40000000000E+03 0. -1.
<mgrwt>
<rscale>  2 0.61459311E+03</rscale>
<asrwt>0</asrwt>
<pdfrwt beam="1">  1        4 0.28695787E+00 0.61459311E+03</pdfrwt>
<pdfrwt beam="2">  1       -4 0.31162306E-01 0.61459311E+03</pdfrwt>
<totfact> 0.75813993E-01</totfact>
</mgrwt>
</event>
<event>
 4    1  0.2488810E-002  0.4016163E+03  0.7818608E-02  0.1043221E+00
         -2   -1    0    0    0  501 -0.00000000000E+00  0.00000000000E+00  0.20316917076E+03  0.20316917076E+03  0.00000000000E+00 0.  1.
          2   -1    0    0  502    0  0.00000000000E+00 -0.00000000000E+00 -0.91370890005E+03  0.91370890005E+03  0.00000000000E+00 0. -1.
    9000007    1    1    2  502    0  0.22450354064E+02 -0.28135727530E+02 -0.55748779258E+03  0.68708680415E+03  0.40000000000E+03 0. -1.
   -9000007    1    1    2    0  501 -0.22450354064E+02  0.28135727530E+02 -0.15305193671E+03  0.42979126665E+03  0.40000000000E+03 0.  1.
<mgrwt>
<rscale>  2 0.40161628E+03</rscale>
<asrwt>0</asrwt>
<pdfrwt beam="1">  1        2 0.14057060E+00 0.40161628E+03</pdfrwt>
<pdfrwt beam="2">  1       -2 0.31256795E-01 0.40161628E+03</pdfrwt>
<totfact> 0.28088803E+02</totfact>
</mgrwt>
</event>
<event>
 4    1  0.2488810E-002  0.4011709E+03  0.7818608E-02  0.1043375E+00
         -2   -1    0    0    0  501 -0.00000000000E+00  0.00000000000E+00  0.15550986015E+03  0.15550986015E+03  0.00000000000E+00 0. -1.
          2   -1    0    0  502    0  0.00000000000E+00 -0.00000000000E+00 -0.10513674492E+04  0.10513674492E+04  0.00000000000E+00 0.  1.
    9000007    1    1    2  502    0  0.28590919688E+02  0.10983581855E+02 -0.37242121687E+03  0.54738984512E+03  0.40000000000E+03 0. -1.
   -9000007    1    1    2    0  501 -0.28590919688E+02 -0.10983581855E+02 -0.52343637219E+03  0.65948746424E+03  0.40000000000E+03 0.  1.
<mgrwt>
<rscale>  2 0.40117089E+03</rscale>
<asrwt>0</asrwt>
<pdfrwt beam="1">  1        2 0.16174884E+00 0.40117089E+03</pdfrwt>
<pdfrwt beam="2">  1       -2 0.23924594E-01 0.40117089E+03</pdfrwt>
<totfact> 0.37319891E+02</totfact>
</mgrwt>
</event>
<event>
 4    1  0.2488810E-002  0.4024080E+03  0.7818608E-02  0.1042949E+00
         -2   -1    0    0    0  501 -0.00000000000E+00  0.00000000000E+00  0.46964094216E+03  0.46964094216E+03  0.00000000000E+00 0. -1.
          2   -1    0    0  502    0  0.00000000000E+00 -0.00000000000E+00 -0.34663792917E+03  0.34663792917E+03  0.00000000000E+00 0.  1.
    9000007    1    1    2  502    0 -0.42003922449E+02  0.12956972010E+02  0.31782729202E+02  0.40366118776E+03  0.40000000000E+03 0.  1.
   -9000007    1    1    2    0  501  0.42003922449E+02 -0.12956972010E+02  0.91220283791E+02  0.41261768358E+03  0.40000000000E+03 0. -1.
<mgrwt>
<rscale>  2 0.40240802E+03</rscale>
<asrwt>0</asrwt>
<pdfrwt beam="1">  1        2 0.53328912E-01 0.40240802E+03</pdfrwt>
<pdfrwt beam="2">  1       -2 0.72252453E-01 0.40240802E+03</pdfrwt>
<totfact> 0.16622706E+02</totfact>
</mgrwt>
</event>
<event>
 4    1  0.2488810E-002  0.4272238E+03  0.7818608E-02  0.1034741E+00
          2   -1    0    0  502    0  0.00000000000E+00  0.00000000000E+00  0.15941134122E+04  0.15941134122E+04  0.00000000000E+00 0. -1.
         -2   -1    0    0    0  501 -0.00000000000E+00 -0.00000000000E+00 -0.11803366720E+03  0.11803366720E+03  0.00000000000E+00 0.  1.
    9000007    1    1    2  502    0 -0.10715797972E+03  0.10505876663E+03  0.58984105245E+03  0.72830806958E+03  0.40000000000E+03 0.  1.
   -9000007    1    1    2    0  501  0.10715797972E+03 -0.10505876663E+03  0.88623869258E+03  0.98383900985E+03  0.40000000000E+03 0.  1.
<mgrwt>
<rscale>  2 0.42722380E+03</rscale>
<asrwt>0</asrwt>
<pdfrwt beam="1">  1        2 0.24524820E+00 0.42722380E+03</pdfrwt>
<pdfrwt beam="2">  1       -2 0.18159027E-01 0.42722380E+03</pdfrwt>
<totfact> 0.29652580E+02</totfact>
</mgrwt>
</event>
<event>
 4    1  0.2488810E-002  0.9722036E+03  0.7818608E-02  0.9339568E-01
          2   -1    0    0  502    0  0.00000000000E+00  0.00000000000E+00  0.17891968136E+04  0.17891968136E+04  0.00000000000E+00 0.  1.
         -2   -1    0    0    0  501 -0.00000000000E+00 -0.00000000000E+00 -0.53343446846E+03  0.53343446846E+03  0.00000000000E+00 0. -1.
    9000007    1    1    2  502    0 -0.76946077003E+03  0.43944288121E+03  0.51361941743E+03  0.10995384615E+04  0.40000000000E+03 0.  1.
   -9000007    1    1    2    0  501  0.76946077003E+03 -0.43944288121E+03  0.74214292776E+03  0.12230928206E+04  0.40000000000E+03 0.  1.
<mgrwt>
<rscale>  2 0.97220364E+03</rscale>
<asrwt>0</asrwt>
<pdfrwt beam="1">  1        2 0.27526105E+00 0.97220364E+03</pdfrwt>
<pdfrwt beam="2">  1       -2 0.82066842E-01 0.97220364E+03</pdfrwt>
<totfact> 0.11444652E+01</totfact>
</mgrwt>
</event>
<event>
 4    1  0.2488810E-002  0.5427004E+03  0.7818608E-02  0.1003198E+00
         -2   -1    0    0    0  501 -0.00000000000E+00  0.00000000000E+00  0.50395349574E+03  0.50395349574E+03  0.00000000000E+00 0. -1.
          2   -1    0    0  502    0  0.00000000000E+00 -0.00000000000E+00 -0.67029107975E+03  0.67029107975E+03  0.00000000000E+00 0.  1.
    9000007    1    1    2  502    0 -0.26807745485E+03 -0.25031622977E+03  0.12696895762E+03  0.55735523043E+03  0.40000000000E+03 0. -1.
   -9000007    1    1    2    0  501  0.26807745485E+03  0.25031622977E+03 -0.29330654163E+03  0.61688934506E+03  0.40000000000E+03 0.  1.
<mgrwt>
<rscale>  2 0.54270041E+03</rscale>
<asrwt>0</asrwt>
<pdfrwt beam="1">  1        2 0.10312170E+00 0.54270041E+03</pdfrwt>
<pdfrwt beam="2">  1       -2 0.77531307E-01 0.54270041E+03</pdfrwt>
<totfact> 0.66061416E+01</totfact>
</mgrwt>
</event>
<event>
 4    1  0.2488810E-002  0.5204376E+03  0.7818608E-02  0.1008578E+00
         -2   -1    0    0    0  501 -0.00000000000E+00  0.00000000000E+00  0.39717538950E+03  0.39717538950E+03  0.00000000000E+00 0. -1.
          2   -1    0    0  502    0  0.00000000000E+00 -0.00000000000E+00 -0.76229694497E+03  0.76229694497E+03  0.00000000000E+00 0.  1.
    9000007    1    1    2  502    0 -0.21256728483E+03 -0.25626244998E+03 -0.37077070666E+03  0.63900407727E+03  0.40000000000E+03 0. -1.
   -9000007    1    1    2    0  501  0.21256728483E+03  0.25626244998E+03  0.56491511859E+01  0.52046825720E+03  0.40000000000E+03 0. -1.
<mgrwt>
<rscale>  2 0.52043760E+03</rscale>
<asrwt>0</asrwt>
<pdfrwt beam="1">  1        2 0.11727645E+00 0.52043760E+03</pdfrwt>
<pdfrwt beam="2">  1       -2 0.61103906E-01 0.52043760E+03</pdfrwt>
<totfact> 0.94278958E+01</totfact>
</mgrwt>
</event>
<event>
 4    1  0.2488810E-002  0.5038892E+03  0.7818608E-02  0.1012769E+00
          2   -1    0    0  502    0  0.00000000000E+00  0.00000000000E+00  0.47599241230E+03  0.47599241230E+03  0.00000000000E+00 0. -1.
         -2   -1    0    0    0  501 -0.00000000000E+00 -0.00000000000E+00 -0.56410934084E+03  0.56410934084E+03  0.00000000000E+00 0.  1.
    9000007    1    1    2  502    0  0.18760685717E+03  0.24229731412E+03  0.77238881348E+02  0.50977462283E+03  0.40000000000E+03 0. -1.
   -9000007    1    1    2    0  501 -0.18760685717E+03 -0.24229731412E+03 -0.16535580989E+03  0.53032713032E+03  0.40000000000E+03 0. -1.
<mgrwt>
<rscale>  2 0.50388920E+03</rscale>
<asrwt>0</asrwt>
<pdfrwt beam="1">  1        2 0.73229602E-01 0.50388920E+03</pdfrwt>
<pdfrwt beam="2">  1       -2 0.86786052E-01 0.50388920E+03</pdfrwt>
<totfact> 0.77046139E+01</totfact>
</mgrwt>
</event>
<event>
 4    1  0.2488810E-002  0.4370940E+03  0.7818608E-02  0.1031642E+00
         -4   -1    0    0    0  501 -0.00000000000E+00  0.00000000000E+00  0.10453507898E+03  0.10453507898E+03  0.00000000000E+00 0. -1.
          4   -1    0    0  502    0  0.00000000000E+00 -0.00000000000E+00 -0.22062140094E+04  0.22062140094E+04  0.00000000000E+00 0.  1.
    9000007    1    1    2  502    0  0.14490648897E+03 -0.10026590252E+03 -0.15294494784E+04  0.15906812530E+04  0.40000000000E+03 0.  1.
   -9000007    1    1    2    0  501 -0.14490648897E+03  0.10026590252E+03 -0.57222945200E+03  0.72006783534E+03  0.40000000000E+03 0. -1.
<mgrwt>
<rscale>  2 0.43709397E+03</rscale>
<asrwt>0</asrwt>
<pdfrwt beam="1">  1        4 0.33941752E+00 0.43709397E+03</pdfrwt>
<pdfrwt beam="2">  1       -4 0.16082321E-01 0.43709397E+03</pdfrwt>
<totfact> 0.12566350E+00</totfact>
</mgrwt>
</event>
<event>
 4    1  0.2488810E-002  0.5919445E+03  0.7818608E-02  0.9922261E-01
         -2   -1    0    0    0  501 -0.00000000000E+00  0.00000000000E+00  0.13108483385E+04  0.13108483385E+04  0.00000000000E+00 0. -1.
          2   -1    0    0  502    0  0.00000000000E+00 -0.00000000000E+00 -0.26794088796E+03  0.26794088796E+03  0.00000000000E+00 0.  1.
    9000007    1    1    2  502    0  0.12882226576E+03  0.41689700239E+03  0.48304315775E+03  0.76402158282E+03  0.40000000000E+03 0.  1.
   -9000007    1    1    2    0  501 -0.12882226576E+03 -0.41689700239E+03  0.55986429274E+03  0.81476764359E+03  0.40000000000E+03 0. -1.
<mgrwt>
<rscale>  2 0.59194450E+03</rscale>
<asrwt>0</asrwt>
<pdfrwt beam="1">  1        2 0.41221676E-01 0.59194450E+03</pdfrwt>
<pdfrwt beam="2">  1       -2 0.20166897E+00 0.59194450E+03</pdfrwt>
<totfact> 0.16687487E+01</totfact>
</mgrwt>
</event>
<event>
 4    1  0.2488810E-002  0.4288065E+03  0.7818608E-02  0.1034238E+00
         -1   -1    0    0    0  501 -0.00000000000E+00  0.00000000000E+00  0.32265460919E+03  0.32265460919E+03  0.00000000000E+00 0.  1.
          1   -1    0    0  502    0  0.00000000000E+00 -0.00000000000E+00 -0.65726118552E+03  0.65726118552E+03  0.00000000000E+00 0. -1.
    9000007    1    1    2  502    0  0.14482702883E+03  0.53852994431E+02  0.11343033697E+02  0.42895649861E+03  0.40000000000E+03 0.  1.
   -9000007    1    1    2    0  501 -0.14482702883E+03 -0.53852994431E+02 -0.34594961003E+03  0.55095929611E+03  0.40000000000E+03 0. -1.
<mgrwt>
<rscale>  2 0.42880650E+03</rscale>
<asrwt>0</asrwt>
<pdfrwt beam="1">  1        1 0.10111710E+00 0.42880650E+03</pdfrwt>
<pdfrwt beam="2">  1       -1 0.49639171E-01 0.42880650E+03</pdfrwt>
<totfact> 0.12740324E+02</totfact>
</mgrwt>
</event>
<event>
 4    1  0.2488810E-002  0.4115853E+03  0.7818608E-02  0.1039840E+00
         -2   -1    0    0    0  501 -0.00000000000E+00  0.00000000000E+00  0.85095547122E+02  0.85095547122E+02  0.00000000000E+00 0. -1.
          2   -1    0    0  502    0  0.00000000000E+00 -0.00000000000E+00 -0.21469161435E+04  0.21469161435E+04  0.00000000000E+00 0.  1.
    9000007    1    1    2  502    0  0.91033449728E+02 -0.33397390156E+02 -0.72990326149E+03  0.83795062251E+03  0.40000000000E+03 0. -1.
   -9000007    1    1    2    0  501 -0.91033449728E+02  0.33397390156E+02 -0.13319173349E+04  0.13940610681E+04  0.40000000000E+03 0.  1.
<mgrwt>
<rscale>  2 0.41158532E+03</rscale>
<asrwt>0</asrwt>
<pdfrwt beam="1">  1        2 0.33029478E+00 0.41158532E+03</pdfrwt>
<pdfrwt beam="2">  1       -2 0.13091623E-01 0.41158532E+03</pdfrwt>
<totfact> 0.26026270E+02</totfact>
</mgrwt>
</event>
<event>
 4    1  0.2488810E-002  0.4493006E+03  0.7818608E-02  0.1027931E+00
          3   -1    0    0  502    0  0.00000000000E+00  0.00000000000E+00  0.18601648125E+04  0.18601648125E+04  0.00000000000E+00 0.  1.
         -3   -1    0    0    0  501 -0.00000000000E+00 -0.00000000000E+00 -0.10888273940E+03  0.10888273940E+03  0.00000000000E+00 0. -1.
    9000007    1    1    2  502    0 -0.17987197439E+03  0.97555854296E+02  0.81906807317E+03  0.93420746110E+03  0.40000000000E+03 0.  1.
   -9000007    1    1    2    0  501  0.17987197439E+03 -0.97555854296E+02  0.93221399991E+03  0.10348400908E+04  0.40000000000E+03 0. -1.
<mgrwt>
<rscale>  2 0.44930065E+03</rscale>
<asrwt>0</asrwt>
<pdfrwt beam="1">  1        3 0.28617918E+00 0.44930065E+03</pdfrwt>
<pdfrwt beam="2">  1       -3 0.16751192E-01 0.44930065E+03</pdfrwt>
<totfact> 0.39591284E+00</totfact>
</mgrwt>
</event>
<event>
 4    1  0.2488810E-002  0.4323024E+03  0.7818608E-02  0.1033135E+00
          2   -1    0    0  502    0  0.00000000000E+00  0.00000000000E+00  0.15880307729E+03  0.15880307729E+03  0.00000000000E+00 0.  1.
         -2   -1    0    0    0  501 -0.00000000000E+00 -0.00000000000E+00 -0.11980284887E+04  0.11980284887E+04  0.00000000000E+00 0. -1.
    9000007    1    1    2  502    0  0.33170348120E+01 -0.16393400884E+03 -0.42938467118E+03  0.60930826173E+03  0.40000000000E+03 0.  1.
   -9000007    1    1    2    0  501 -0.33170348120E+01  0.16393400884E+03 -0.60984074023E+03  0.74752330427E+03  0.40000000000E+03 0. -1.
<mgrwt>
<rscale>  2 0.43230240E+03</rscale>
<asrwt>0</asrwt>
<pdfrwt beam="1">  1        2 0.24431242E-01 0.43230240E+03</pdfrwt>
<pdfrwt beam="2">  1       -2 0.18431208E+00 0.43230240E+03</pdfrwt>
<totfact> 0.39629869E+01</totfact>
</mgrwt>
</event>
<event>
 4    1  0.2488810E-002  0.4749585E+03  0.7818608E-02  0.1020530E+00
          1   -1    0    0  502    0  0.00000000000E+00  0.00000000000E+00  0.21986978544E+04  0.21986978544E+04  0.00000000000E+00 0.  1.
         -1   -1    0    0    0  501 -0.00000000000E+00 -0.00000000000E+00 -0.18704025076E+03  0.18704025076E+03  0.00000000000E+00 0. -1.
    9000007    1    1    2  502    0 -0.92703097770E+02  0.23872942685E+03  0.20433360881E+03  0.51704721957E+03  0.40000000000E+03 0. -1.
   -9000007    1    1    2    0  501  0.92703097770E+02 -0.23872942685E+03  0.18073239948E+04  0.18686908856E+04  0.40000000000E+03 0. -1.
<mgrwt>
<rscale>  2 0.47495853E+03</rscale>
<asrwt>0</asrwt>
<pdfrwt beam="1">  1        1 0.33826119E+00 0.47495853E+03</pdfrwt>
<pdfrwt beam="2">  1       -1 0.28775425E-01 0.47495853E+03</pdfrwt>
<totfact> 0.26172868E+01</totfact>
</mgrwt>
</event>
<event>
 4    1  0.2488810E-002  0.4073198E+03  0.7818608E-02  0.1041274E+00
          2   -1    0    0  502    0  0.00000000000E+00  0.00000000000E+00  0.97838491004E+03  0.97838491004E+03  0.00000000000E+00 0. -1.
         -2   -1    0    0    0  501 -0.00000000000E+00 -0.00000000000E+00 -0.27878724436E+03  0.27878724436E+03  0.00000000000E+00 0.  1.
    9000007    1    1    2  502    0  0.57535229005E+02 -0.50981188980E+02 -0.43628433613E+02  0.40964963618E+03  0.40000000000E+03 0.  1.
   -9000007    1    1    2    0  501 -0.57535229005E+02  0.50981188980E+02  0.74322609929E+03  0.84752251821E+03  0.40000000000E+03 0. -1.
<mgrwt>
<rscale>  2 0.40731976E+03</rscale>
<asrwt>0</asrwt>
<pdfrwt beam="1">  1        2 0.15052075E+00 0.40731976E+03</pdfrwt>
<pdfrwt beam="2">  1       -2 0.42890346E-01 0.40731976E+03</pdfrwt>
<totfact> 0.13981212E+02</totfact>
</mgrwt>
</event>
<event>
 4    1  0.2488810E-002  0.5685021E+03  0.7818608E-02  0.9972999E-01
         -1   -1    0    0    0  501 -0.00000000000E+00  0.00000000000E+00  0.11067533844E+03  0.11067533844E+03  0.00000000000E+00 0.  1.
          1   -1    0    0  502    0  0.00000000000E+00 -0.00000000000E+00 -0.32699328821E+04  0.32699328821E+04  0.00000000000E+00 0. -1.
    9000007    1    1    2  502    0 -0.59913855207E+02 -0.39950591985E+03 -0.10268380988E+04  0.11737082820E+04  0.40000000000E+03 0.  1.
   -9000007    1    1    2    0  501  0.59913855207E+02  0.39950591985E+03 -0.21324194449E+04  0.22068999386E+04  0.40000000000E+03 0.  1.
<mgrwt>
<rscale>  2 0.56850211E+03</rscale>
<asrwt>0</asrwt>
<pdfrwt beam="1">  1        1 0.50306656E+00 0.56850211E+03</pdfrwt>
<pdfrwt beam="2">  1       -1 0.17026976E-01 0.56850211E+03</pdfrwt>
<totfact> 0.11127339E+01</totfact>
</mgrwt>
</event>
<event>
 4    1  0.2488810E-002  0.4153792E+03  0.7818608E-02  0.1038581E+00
         -2   -1    0    0    0  501 -0.00000000000E+00  0.00000000000E+00  0.12809364028E+04  0.12809364028E+04  0.00000000000E+00 0.  1.
          2   -1    0    0  502    0  0.00000000000E+00 -0.00000000000E+00 -0.14426975563E+03  0.14426975563E+03  0.00000000000E+00 0. -1.
    9000007    1    1    2  502    0  0.10167823270E+03 -0.46919463043E+02  0.75188148920E+03  0.85899107843E+03  0.40000000000E+03 0.  1.
   -9000007    1    1    2    0  501 -0.10167823270E+03  0.46919463043E+02  0.38478515792E+03  0.56621507996E+03  0.40000000000E+03 0. -1.
<mgrwt>
<rscale>  2 0.41537922E+03</rscale>
<asrwt>0</asrwt>
<pdfrwt beam="1">  1        2 0.22195348E-01 0.41537922E+03</pdfrwt>
<pdfrwt beam="2">  1       -2 0.19706713E+00 0.41537922E+03</pdfrwt>
<totfact> 0.36539806E+01</totfact>
</mgrwt>
</event>
<event>
 4    1  0.2488810E-002  0.5381719E+03  0.7818608E-02  0.1004269E+00
          2   -1    0    0  502    0  0.00000000000E+00  0.00000000000E+00  0.40328048178E+03  0.40328048178E+03  0.00000000000E+00 0.  1.
         -2   -1    0    0    0  501 -0.00000000000E+00 -0.00000000000E+00 -0.16421373376E+04  0.16421373376E+04  0.00000000000E+00 0. -1.
    9000007    1    1    2  502    0  0.10853691772E+03 -0.34329108304E+03 -0.13865649280E+04  0.14873437161E+04  0.40000000000E+03 0. -1.
   -9000007    1    1    2    0  501 -0.10853691772E+03  0.34329108304E+03  0.14770807217E+03  0.55807410332E+03  0.40000000000E+03 0.  1.
<mgrwt>
<rscale>  2 0.53817193E+03</rscale>
<asrwt>0</asrwt>
<pdfrwt beam="1">  1        2 0.62043151E-01 0.53817193E+03</pdfrwt>
<pdfrwt beam="2">  1       -2 0.25263651E+00 0.53817193E+03</pdfrwt>
<totfact> 0.51795475E+00</totfact>
</mgrwt>
</event>
<event>
 4    1  0.2488810E-002  0.4994077E+03  0.7818608E-02  0.1013934E+00
          1   -1    0    0  502    0  0.00000000000E+00  0.00000000000E+00  0.63767273352E+03  0.63767273352E+03  0.00000000000E+00 0.  1.
         -1   -1    0    0    0  501 -0.00000000000E+00 -0.00000000000E+00 -0.47665426137E+03  0.47665426137E+03  0.00000000000E+00 0. -1.
    9000007    1    1    2  502    0  0.25004193348E+03  0.16397282643E+03 -0.15550870178E+03  0.52305928214E+03  0.40000000000E+03 0. -1.
   -9000007    1    1    2    0  501 -0.25004193348E+03 -0.16397282643E+03  0.31652717393E+03  0.59126771275E+03  0.40000000000E+03 0.  1.
<mgrwt>
<rscale>  2 0.49940771E+03</rscale>
<asrwt>0</asrwt>
<pdfrwt beam="1">  1        1 0.98103498E-01 0.49940771E+03</pdfrwt>
<pdfrwt beam="2">  1       -1 0.73331425E-01 0.49940771E+03</pdfrwt>
<totfact> 0.61498359E+01</totfact>
</mgrwt>
</event>
<event>
 4    1  0.2488810E-002  0.4905083E+03  0.7818608E-02  0.1016287E+00
          2   -1    0    0  502    0  0.00000000000E+00  0.00000000000E+00  0.18127057718E+04  0.18127057718E+04  0.00000000000E+00 0. -1.
         -2   -1    0    0    0  501 -0.00000000000E+00 -0.00000000000E+00 -0.13418973664E+03  0.13418973664E+03  0.00000000000E+00 0.  1.
    9000007    1    1    2  502    0 -0.26921081540E+03  0.90132965844E+02  0.94082584350E+03  0.10610144591E+04  0.40000000000E+03 0.  1.
   -9000007    1    1    2    0  501  0.26921081540E+03 -0.90132965844E+02  0.73769019161E+03  0.88588104928E+03  0.40000000000E+03 0.  1.
<mgrwt>
<rscale>  2 0.49050832E+03</rscale>
<asrwt>0</asrwt>
<pdfrwt beam="1">  1        2 0.27887779E+00 0.49050832E+03</pdfrwt>
<pdfrwt beam="2">  1       -2 0.20644576E-01 0.49050832E+03</pdfrwt>
<totfact> 0.17974575E+02</totfact>
</mgrwt>
</event>
<event>
 4    1  0.2488810E-002  0.5223496E+03  0.7818608E-02  0.1008105E+00
         -2   -1    0    0    0  501 -0.00000000000E+00  0.00000000000E+00  0.44564981022E+03  0.44564981022E+03  0.00000000000E+00 0. -1.
          2   -1    0    0  502    0  0.00000000000E+00 -0.00000000000E+00 -0.63534897343E+03  0.63534897343E+03  0.00000000000E+00 0.  1.
    9000007    1    1    2  502    0  0.28487131237E+03  0.17803779869E+03 -0.19790832269E+03  0.55858466374E+03  0.40000000000E+03 0.  1.
   -9000007    1    1    2    0  501 -0.28487131237E+03 -0.17803779869E+03  0.82091594800E+01  0.52241411991E+03  0.40000000000E+03 0. -1.
<mgrwt>
<rscale>  2 0.52234962E+03</rscale>
<asrwt>0</asrwt>
<pdfrwt beam="1">  1        2 0.97745996E-01 0.52234962E+03</pdfrwt>
<pdfrwt beam="2">  1       -2 0.68561509E-01 0.52234962E+03</pdfrwt>
<totfact> 0.92512355E+01</totfact>
</mgrwt>
</event>
<event>
 4    1  0.2488810E-002  0.4348680E+03  0.7818608E-02  0.1032333E+00
         -2   -1    0    0    0  501 -0.00000000000E+00  0.00000000000E+00  0.74604879316E+03  0.74604879316E+03  0.00000000000E+00 0.  1.
          2   -1    0    0  502    0  0.00000000000E+00 -0.00000000000E+00 -0.27289472356E+03  0.27289472356E+03  0.00000000000E+00 0. -1.
    9000007    1    1    2  502    0  0.14029742014E+03 -0.97091821293E+02  0.37245907751E+03  0.57256960475E+03  0.40000000000E+03 0.  1.
   -9000007    1    1    2    0  501 -0.14029742014E+03  0.97091821293E+02  0.10069499209E+03  0.44637391197E+03  0.40000000000E+03 0. -1.
<mgrwt>
<rscale>  2 0.43486801E+03</rscale>
<asrwt>0</asrwt>
<pdfrwt beam="1">  1        2 0.41983804E-01 0.43486801E+03</pdfrwt>
<pdfrwt beam="2">  1       -2 0.11477674E+00 0.43486801E+03</pdfrwt>
<totfact> 0.74442812E+01</totfact>
</mgrwt>
</event>
<event>
 4    1  0.2488810E-002  0.5542439E+03  0.7818608E-02  0.1000516E+00
          1   -1    0    0  502    0  0.00000000000E+00  0.00000000000E+00  0.48278435898E+03  0.48278435898E+03  0.00000000000E+00 0. -1.
         -1   -1    0    0    0  501 -0.00000000000E+00 -0.00000000000E+00 -0.64257942184E+03  0.64257942184E+03  0.00000000000E+00 0.  1.
    9000007    1    1    2  502    0 -0.15783312389E+03  0.34967842224E+03 -0.24187787023E+02  0.55477143313E+03  0.40000000000E+03 0.  1.
   -9000007    1    1    2    0  501  0.15783312389E+03 -0.34967842224E+03 -0.13560727583E+03  0.57059234769E+03  0.40000000000E+03 0. -1.
<mgrwt>
<rscale>  2 0.55424389E+03</rscale>
<asrwt>0</asrwt>
<pdfrwt beam="1">  1        1 0.74274517E-01 0.55424389E+03</pdfrwt>
<pdfrwt beam="2">  1       -1 0.98858373E-01 0.55424389E+03</pdfrwt>
<totfact> 0.47406183E+01</totfact>
</mgrwt>
</event>
<event>
 4    1  0.2488810E-002  0.5507338E+03  0.7818608E-02  0.1001324E+00
          3   -1    0    0  502    0  0.00000000000E+00  0.00000000000E+00  0.22329059663E+03  0.22329059663E+03  0.00000000000E+00 0.  1.
         -3   -1    0    0    0  501 -0.00000000000E+00 -0.00000000000E+00 -0.14242104983E+04  0.14242104983E+04  0.00000000000E+00 0. -1.
    9000007    1    1    2  502    0 -0.96805434655E+02  0.36597328574E+03 -0.42332387772E+03  0.69463000475E+03  0.40000000000E+03 0. -1.
   -9000007    1    1    2    0  501  0.96805434655E+02 -0.36597328574E+03 -0.77759602398E+03  0.95287109021E+03  0.40000000000E+03 0. -1.
<mgrwt>
<rscale>  2 0.55073382E+03</rscale>
<asrwt>0</asrwt>
<pdfrwt beam="1">  1        3 0.34352399E-01 0.55073382E+03</pdfrwt>
<pdfrwt beam="2">  1       -3 0.21910931E+00 0.55073382E+03</pdfrwt>
<totfact> 0.24777567E+00</totfact>
</mgrwt>
</event>
<event>
 4    1  0.2488810E-002  0.4710697E+03  0.7818608E-02  0.1021619E+00
          4   -1    0    0  502    0  0.00000000000E+00  0.00000000000E+00  0.23783068231E+04  0.23783068231E+04  0.00000000000E+00 0.  1.
         -4   -1    0    0    0  501 -0.00000000000E+00 -0.00000000000E+00 -0.11852804566E+03  0.11852804566E+03  0.00000000000E+00 0. -1.
    9000007    1    1    2  502    0  0.24639435504E+03  0.34590422206E+02  0.55398216725E+03  0.72718836427E+03  0.40000000000E+03 0. -1.
   -9000007    1    1    2    0  501 -0.24639435504E+03 -0.34590422206E+02  0.17057966102E+04  0.17696465045E+04  0.40000000000E+03 0.  1.
<mgrwt>
<rscale>  2 0.47106971E+03</rscale>
<asrwt>0</asrwt>
<pdfrwt beam="1">  1        4 0.36589332E+00 0.47106971E+03</pdfrwt>
<pdfrwt beam="2">  1       -4 0.18235086E-01 0.47106971E+03</pdfrwt>
<totfact> 0.67770105E-01</totfact>
</mgrwt>
</event>
<event>
 4    1  0.2488810E-002  0.4857115E+03  0.7818608E-02  0.1017577E+00
         -2   -1    0    0    0  501 -0.00000000000E+00  0.00000000000E+00  0.57972356544E+03  0.57972356544E+03  0.00000000000E+00 0. -1.
          2   -1    0    0  502    0  0.00000000000E+00 -0.00000000000E+00 -0.27179334802E+04  0.27179334802E+04  0.00000000000E+00 0.  1.
    9000007    1    1    2  502    0 -0.27551802936E+03  0.23382797133E+01 -0.25894948115E+04  0.26346534935E+04  0.40000000000E+03 0.  1.
   -9000007    1    1    2    0  501  0.27551802936E+03 -0.23382797133E+01  0.45128489677E+03  0.66300355211E+03  0.40000000000E+03 0. -1.
<mgrwt>
<rscale>  2 0.48571149E+03</rscale>
<asrwt>0</asrwt>
<pdfrwt beam="1">  1        2 0.41814361E+00 0.48571149E+03</pdfrwt>
<pdfrwt beam="2">  1       -2 0.89188241E-01 0.48571149E+03</pdfrwt>
<totfact> 0.31536211E+00</totfact>
</mgrwt>
</event>
<event>
 4    1  0.2488810E-002  0.4293736E+03  0.7818608E-02  0.1034058E+00
         -2   -1    0    0    0  501 -0.00000000000E+00  0.00000000000E+00  0.28733932612E+03  0.28733932612E+03  0.00000000000E+00 0. -1.
          2   -1    0    0  502    0  0.00000000000E+00 -0.00000000000E+00 -0.25603572644E+04  0.25603572644E+04  0.00000000000E+00 0.  1.
    9000007    1    1    2  502    0 -0.15539181081E+03  0.14665560463E+02  0.96089346468E+02  0.43999415455E+03  0.40000000000E+03 0. -1.
   -9000007    1    1    2    0  501  0.15539181081E+03 -0.14665560463E+02 -0.23691072848E+04  0.24077024360E+04  0.40000000000E+03 0.  1.
<mgrwt>
<rscale>  2 0.42937361E+03</rscale>
<asrwt>0</asrwt>
<pdfrwt beam="1">  1        2 0.39390109E+00 0.42937361E+03</pdfrwt>
<pdfrwt beam="2">  1       -2 0.44206053E-01 0.42937361E+03</pdfrwt>
<totfact> 0.17467321E+01</totfact>
</mgrwt>
</event>
<event>
 4    1  0.2488810E-002  0.4541702E+03  0.7818608E-02  0.1026486E+00
         -1   -1    0    0    0  501 -0.00000000000E+00  0.00000000000E+00  0.12892946925E+04  0.12892946925E+04  0.00000000000E+00 0. -1.
          1   -1    0    0  502    0  0.00000000000E+00 -0.00000000000E+00 -0.18815514780E+03  0.18815514780E+03  0.00000000000E+00 0.  1.
    9000007    1    1    2  502    0  0.20801784140E+03 -0.54764248314E+02  0.83639655078E+03  0.95175087885E+03  0.40000000000E+03 0. -1.
   -9000007    1    1    2    0  501 -0.20801784140E+03  0.54764248314E+02  0.26474299392E+03  0.52569896144E+03  0.40000000000E+03 0.  1.
<mgrwt>
<rscale>  2 0.45417017E+03</rscale>
<asrwt>0</asrwt>
<pdfrwt beam="1">  1        1 0.28946947E-01 0.45417017E+03</pdfrwt>
<pdfrwt beam="2">  1       -1 0.19835302E+00 0.45417017E+03</pdfrwt>
<totfact> 0.26420995E+01</totfact>
</mgrwt>
</event>
<event>
 4    1  0.2488810E-002  0.4325557E+03  0.7818608E-02  0.1033056E+00
         -2   -1    0    0    0  501 -0.00000000000E+00  0.00000000000E+00  0.15708656819E+03  0.15708656819E+03  0.00000000000E+00 0.  1.
          2   -1    0    0  502    0  0.00000000000E+00 -0.00000000000E+00 -0.11915378609E+04  0.11915378609E+04  0.00000000000E+00 0. -1.
    9000007    1    1    2  502    0  0.15737536221E+03  0.48347373876E+02 -0.53027711251E+03  0.68432323448E+03  0.40000000000E+03 0. -1.
   -9000007    1    1    2    0  501 -0.15737536221E+03 -0.48347373876E+02 -0.50417418018E+03  0.66430119460E+03  0.40000000000E+03 0. -1.
<mgrwt>
<rscale>  2 0.43255575E+03</rscale>
<asrwt>0</asrwt>
<pdfrwt beam="1">  1        2 0.18331351E+00 0.43255575E+03</pdfrwt>
<pdfrwt beam="2">  1       -2 0.24167165E-01 0.43255575E+03</pdfrwt>
<totfact> 0.30167807E+02</totfact>
</mgrwt>
</event>
<event>
 4    1  0.2488810E-002  0.4340000E+03  0.7818608E-02  0.1032604E+00
          2   -1    0    0  502    0  0.00000000000E+00  0.00000000000E+00  0.71172293141E+03  0.71172293141E+03  0.00000000000E+00 0.  1.
         -2   -1    0    0    0  501 -0.00000000000E+00 -0.00000000000E+00 -0.32647986204E+03  0.32647986204E+03  0.00000000000E+00 0. -1.
    9000007    1    1    2  502    0 -0.23981368345E+02  0.16667602047E+03 -0.33285835732E+02  0.43527456701E+03  0.40000000000E+03 0. -1.
   -9000007    1    1    2    0  501  0.23981368345E+02 -0.16667602047E+03  0.41852890510E+03  0.60292822643E+03  0.40000000000E+03 0.  1.
<mgrwt>
<rscale>  2 0.43400000E+03</rscale>
<asrwt>0</asrwt>
<pdfrwt beam="1">  1        2 0.10949584E+00 0.43400000E+03</pdfrwt>
<pdfrwt beam="2">  1       -2 0.50227671E-01 0.43400000E+03</pdfrwt>
<totfact> 0.15533977E+02</totfact>
</mgrwt>
</event>
<event>
 4    1  0.2488810E-002  0.4133809E+03  0.7818608E-02  0.1039242E+00
         -1   -1    0    0    0  501 -0.00000000000E+00  0.00000000000E+00  0.55160618205E+02  0.55160618205E+02  0.00000000000E+00 0.  1.
          1   -1    0    0  502    0  0.00000000000E+00 -0.00000000000E+00 -0.41846684966E+04  0.41846684966E+04  0.00000000000E+00 0. -1.
    9000007    1    1    2  502    0  0.41698394458E+02 -0.95629773101E+02 -0.31450681258E+04  0.31721187439E+04  0.40000000000E+03 0. -1.
   -9000007    1    1    2    0  501 -0.41698394458E+02  0.95629773101E+02 -0.98443975258E+03  0.10677103709E+04  0.40000000000E+03 0.  1.
<mgrwt>
<rscale>  2 0.41338095E+03</rscale>
<asrwt>0</asrwt>
<pdfrwt beam="1">  1        1 0.64379535E+00 0.41338095E+03</pdfrwt>
<pdfrwt beam="2">  1       -1 0.84862463E-02 0.41338095E+03</pdfrwt>
<totfact> 0.64281993E+00</totfact>
</mgrwt>
</event>
<event>
 4    1  0.2488810E-002  0.5344582E+03  0.7818608E-02  0.1005157E+00
         -2   -1    0    0    0  501 -0.00000000000E+00  0.00000000000E+00  0.61159679051E+03  0.61159679051E+03  0.00000000000E+00 0.  1.
          2   -1    0    0  502    0  0.00000000000E+00 -0.00000000000E+00 -0.49811762909E+03  0.49811762909E+03  0.00000000000E+00 0. -1.
    9000007    1    1    2  502    0 -0.14698001314E+03 -0.32255610839E+03 -0.81833058753E+02  0.54068680105E+03  0.40000000000E+03 0. -1.
   -9000007    1    1    2    0  501  0.14698001314E+03  0.32255610839E+03  0.19531222017E+03  0.56902761855E+03  0.40000000000E+03 0.  1.
<mgrwt>
<rscale>  2 0.53445820E+03</rscale>
<asrwt>0</asrwt>
<pdfrwt beam="1">  1        2 0.76633481E-01 0.53445820E+03</pdfrwt>
<pdfrwt beam="2">  1       -2 0.94091814E-01 0.53445820E+03</pdfrwt>
<totfact> 0.60592049E+01</totfact>
</mgrwt>
</event>
<event>
 4    1  0.2488810E-002  0.6369196E+03  0.7818608E-02  0.9831638E-01
          2   -1    0    0  502    0  0.00000000000E+00  0.00000000000E+00  0.39510152663E+04  0.39510152663E+04  0.00000000000E+00 0. -1.
         -2   -1    0    0    0  501 -0.00000000000E+00 -0.00000000000E+00 -0.10271159522E+03  0.10271159522E+03  0.00000000000E+00 0.  1.
    9000007    1    1    2  502    0 -0.41880944934E+03  0.26507586154E+03  0.19629260840E+04  0.20636727887E+04  0.40000000000E+03 0.  1.
   -9000007    1    1    2    0  501  0.41880944934E+03 -0.26507586154E+03  0.18853775871E+04  0.19900540729E+04  0.40000000000E+03 0. -1.
<mgrwt>
<rscale>  2 0.63691959E+03</rscale>
<asrwt>0</asrwt>
<pdfrwt beam="1">  1        2 0.60784839E+00 0.63691959E+03</pdfrwt>
<pdfrwt beam="2">  1       -2 0.15801787E-01 0.63691959E+03</pdfrwt>
<totfact> 0.13518099E+01</totfact>
</mgrwt>
</event>
<event>
 4    1  0.2488810E-002  0.4213059E+03  0.7818608E-02  0.1036642E+00
         -2   -1    0    0    0  501 -0.00000000000E+00  0.00000000000E+00  0.68279907717E+02  0.68279907717E+02  0.00000000000E+00 0. -1.
          2   -1    0    0  502    0  0.00000000000E+00 -0.00000000000E+00 -0.26289368047E+04  0.26289368047E+04  0.00000000000E+00 0.  1.
    9000007    1    1    2  502    0 -0.31434571016E+02  0.12849321684E+03 -0.11378011014E+04  0.12132971546E+04  0.40000000000E+03 0. -1.
   -9000007    1    1    2    0  501  0.31434571016E+02 -0.12849321684E+03 -0.14228557955E+04  0.14839195578E+04  0.40000000000E+03 0. -1.
<mgrwt>
<rscale>  2 0.42130587E+03</rscale>
<asrwt>0</asrwt>
<pdfrwt beam="1">  1        2 0.40445187E+00 0.42130587E+03</pdfrwt>
<pdfrwt beam="2">  1       -2 0.10504600E-01 0.42130587E+03</pdfrwt>
<totfact> 0.20208418E+02</totfact>
</mgrwt>
</event>
<event>
 4    1  0.2488810E-002  0.5716762E+03  0.7818608E-02  0.9965976E-01
          1   -1    0    0  502    0  0.00000000000E+00  0.00000000000E+00  0.91073562868E+03  0.91073562868E+03  0.00000000000E+00 0.  1.
         -1   -1    0    0    0  501 -0.00000000000E+00 -0.00000000000E+00 -0.45604839076E+03  0.45604839076E+03  0.00000000000E+00 0. -1.
    9000007    1    1    2  502    0  0.73164502384E+02  0.40182157616E+03 -0.88159335948E+02  0.57843382680E+03  0.40000000000E+03 0. -1.
   -9000007    1    1    2    0  501 -0.73164502384E+02 -0.40182157616E+03  0.54284657386E+03  0.78835019264E+03  0.40000000000E+03 0.  1.
<mgrwt>
<rscale>  2 0.57167615E+03</rscale>
<asrwt>0</asrwt>
<pdfrwt beam="1">  1        1 0.14011317E+00 0.57167615E+03</pdfrwt>
<pdfrwt beam="2">  1       -1 0.70161291E-01 0.57167615E+03</pdfrwt>
<totfact> 0.38334650E+01</totfact>
</mgrwt>
</event>
<event>
 4    1  0.2488810E-002  0.4369678E+03  0.7818608E-02  0.1031681E+00
         -2   -1    0    0    0  501 -0.00000000000E+00  0.00000000000E+00  0.23646457879E+03  0.23646457879E+03  0.00000000000E+00 0.  1.
          2   -1    0    0  502    0  0.00000000000E+00 -0.00000000000E+00 -0.96679332773E+03  0.96679332773E+03  0.00000000000E+00 0. -1.
    9000007    1    1    2  502    0  0.14226768817E+03  0.10344433650E+03 -0.60938683945E+03  0.74986208462E+03  0.40000000000E+03 0. -1.
   -9000007    1    1    2    0  501 -0.14226768817E+03 -0.10344433650E+03 -0.12094190949E+03  0.45339582191E+03  0.40000000000E+03 0. -1.
<mgrwt>
<rscale>  2 0.43696776E+03</rscale>
<asrwt>0</asrwt>
<pdfrwt beam="1">  1        2 0.14873744E+00 0.43696776E+03</pdfrwt>
<pdfrwt beam="2">  1       -2 0.36379165E-01 0.43696776E+03</pdfrwt>
<totfact> 0.19470086E+02</totfact>
</mgrwt>
</event>
<event>
 4    1  0.2488810E-002  0.4196924E+03  0.7818608E-02  0.1037166E+00
          1   -1    0    0  502    0  0.00000000000E+00  0.00000000000E+00  0.33442170074E+03  0.33442170074E+03  0.00000000000E+00 0.  1.
         -1   -1    0    0    0  501 -0.00000000000E+00 -0.00000000000E+00 -0.62004256251E+03  0.62004256251E+03  0.00000000000E+00 0. -1.
    9000007    1    1    2  502    0  0.10568475565E+03  0.70515496150E+02  0.42349202429E+02  0.42182360972E+03  0.40000000000E+03 0.  1.
   -9000007    1    1    2    0  501 -0.10568475565E+03 -0.70515496150E+02 -0.32797006420E+03  0.53264065353E+03  0.40000000000E+03 0. -1.
<mgrwt>
<rscale>  2 0.41969239E+03</rscale>
<asrwt>0</asrwt>
<pdfrwt beam="1">  1        1 0.51449493E-01 0.41969239E+03</pdfrwt>
<pdfrwt beam="2">  1       -1 0.95391162E-01 0.41969239E+03</pdfrwt>
<totfact> 0.84511361E+01</totfact>
</mgrwt>
</event>
<event>
 4    1  0.2488810E-002  0.4688937E+03  0.7818608E-02  0.1022233E+00
          1   -1    0    0  502    0  0.00000000000E+00  0.00000000000E+00  0.41440207545E+04  0.41440207545E+04  0.00000000000E+00 0.  1.
         -1   -1    0    0    0  501 -0.00000000000E+00 -0.00000000000E+00 -0.68741439243E+02  0.68741439243E+02  0.00000000000E+00 0. -1.
    9000007    1    1    2  502    0 -0.22935434154E+03 -0.85192971785E+02  0.10314287100E+04  0.11330076965E+04  0.40000000000E+03 0. -1.
   -9000007    1    1    2    0  501  0.22935434154E+03  0.85192971785E+02  0.30438506053E+04  0.30797544973E+04  0.40000000000E+03 0.  1.
<mgrwt>
<rscale>  2 0.46889365E+03</rscale>
<asrwt>0</asrwt>
<pdfrwt beam="1">  1        1 0.63754146E+00 0.46889365E+03</pdfrwt>
<pdfrwt beam="2">  1       -1 0.10575609E-01 0.46889365E+03</pdfrwt>
<totfact> 0.48625976E+00</totfact>
</mgrwt>
</event>
<event>
 4    1  0.2488810E-002  0.6950261E+03  0.7818608E-02  0.9725776E-01
         -2   -1    0    0    0  501 -0.00000000000E+00  0.00000000000E+00  0.43794743891E+03  0.43794743891E+03  0.00000000000E+00 0. -1.
          2   -1    0    0  502    0  0.00000000000E+00 -0.00000000000E+00 -0.25478332610E+04  0.25478332610E+04  0.00000000000E+00 0.  1.
    9000007    1    1    2  502    0  0.51736910134E+03  0.23535174901E+03  0.69272378796E+02  0.69846968098E+03  0.40000000000E+03 0. -1.
   -9000007    1    1    2    0  501 -0.51736910134E+03 -0.23535174901E+03 -0.21791582009E+04  0.22873110189E+04  0.40000000000E+03 0.  1.
<mgrwt>
<rscale>  2 0.69502607E+03</rscale>
<asrwt>0</asrwt>
<pdfrwt beam="1">  1        2 0.39197434E+00 0.69502607E+03</pdfrwt>
<pdfrwt beam="2">  1       -2 0.67376530E-01 0.69502607E+03</pdfrwt>
<totfact> 0.70005461E+00</totfact>
</mgrwt>
</event>
<event>
 4    1  0.2488810E-002  0.4042710E+03  0.7818608E-02  0.1042311E+00
         -1   -1    0    0    0  501 -0.00000000000E+00  0.00000000000E+00  0.28789997920E+03  0.28789997920E+03  0.00000000000E+00 0.  1.
          1   -1    0    0  502    0  0.00000000000E+00 -0.00000000000E+00 -0.70558747450E+03  0.70558747450E+03  0.00000000000E+00 0. -1.
    9000007    1    1    2  502    0  0.12648740625E+02 -0.57228255169E+02 -0.42845310585E+03  0.58907310900E+03  0.40000000000E+03 0.  1.
   -9000007    1    1    2    0  501 -0.12648740625E+02  0.57228255169E+02  0.10765610551E+02  0.40441434470E+03  0.40000000000E+03 0.  1.
<mgrwt>
<rscale>  2 0.40427103E+03</rscale>
<asrwt>0</asrwt>
<pdfrwt beam="1">  1        1 0.10855192E+00 0.40427103E+03</pdfrwt>
<pdfrwt beam="2">  1       -1 0.44292305E-01 0.40427103E+03</pdfrwt>
<totfact> 0.14210440E+02</totfact>
</mgrwt>
</event>
<event>
 4    1  0.2488810E-002  0.4949945E+03  0.7818608E-02  0.1015094E+00
         -2   -1    0    0    0  501 -0.00000000000E+00  0.00000000000E+00  0.30762545702E+03  0.30762545702E+03  0.00000000000E+00 0.  1.
          2   -1    0    0  502    0  0.00000000000E+00 -0.00000000000E+00 -0.12921670132E+04  0.12921670132E+04  0.00000000000E+00 0. -1.
    9000007    1    1    2  502    0  0.27441253046E+03 -0.98576325845E+02  0.31511702863E+01  0.49500450378E+03  0.40000000000E+03 0.  1.
   -9000007    1    1    2    0  501 -0.27441253046E+03  0.98576325845E+02 -0.98769272650E+03  0.11047879665E+04  0.40000000000E+03 0. -1.
<mgrwt>
<rscale>  2 0.49499447E+03</rscale>
<asrwt>0</asrwt>
<pdfrwt beam="1">  1        2 0.19879493E+00 0.49499447E+03</pdfrwt>
<pdfrwt beam="2">  1       -2 0.47326993E-01 0.49499447E+03</pdfrwt>
<totfact> 0.73984661E+01</totfact>
</mgrwt>
</event>
<event>
 4    1  0.2488810E-002  0.4243725E+03  0.7818608E-02  0.1035653E+00
         -1   -1    0    0    0  501 -0.00000000000E+00  0.00000000000E+00  0.14059196423E+03  0.14059196423E+03  0.00000000000E+00 0. -1.
          1   -1    0    0  502    0  0.00000000000E+00 -0.00000000000E+00 -0.12984361253E+04  0.12984361253E+04  0.00000000000E+00 0.  1.
    9000007    1    1    2  502    0  0.12734148457E+03 -0.62258831180E+02 -0.49543669165E+03  0.65234157555E+03  0.40000000000E+03 0. -1.
   -9000007    1    1    2    0  501 -0.12734148457E+03  0.62258831180E+02 -0.66240746941E+03  0.78668651398E+03  0.40000000000E+03 0. -1.
<mgrwt>
<rscale>  2 0.42437250E+03</rscale>
<asrwt>0</asrwt>
<pdfrwt beam="1">  1        1 0.19975939E+00 0.42437250E+03</pdfrwt>
<pdfrwt beam="2">  1       -1 0.21629534E-01 0.42437250E+03</pdfrwt>
<totfact> 0.17065437E+02</totfact>
</mgrwt>
</event>
<event>
 4    1  0.2488810E-002  0.4241495E+03  0.7818608E-02  0.1035724E+00
         -1   -1    0    0    0  501 -0.00000000000E+00  0.00000000000E+00  0.40337949462E+03  0.40337949462E+03  0.00000000000E+00 0.  1.
          1   -1    0    0  502    0  0.00000000000E+00 -0.00000000000E+00 -0.46152522378E+03  0.46152522378E+03  0.00000000000E+00 0. -1.
    9000007    1    1    2  502    0 -0.57096550609E+02  0.12900677260E+03  0.50271329564E+02  0.42711821554E+03  0.40000000000E+03 0. -1.
   -9000007    1    1    2    0  501  0.57096550609E+02 -0.12900677260E+03 -0.10841705872E+03  0.43778650286E+03  0.40000000000E+03 0. -1.
<mgrwt>
<rscale>  2 0.42414946E+03</rscale>
<asrwt>0</asrwt>
<pdfrwt beam="1">  1        1 0.71003880E-01 0.42414946E+03</pdfrwt>
<pdfrwt beam="2">  1       -1 0.62058384E-01 0.42414946E+03</pdfrwt>
<totfact> 0.13569360E+02</totfact>
</mgrwt>
</event>
<event>
 4    1  0.2488810E-002  0.6622928E+03  0.7818608E-02  0.9783982E-01
          1   -1    0    0  502    0  0.00000000000E+00  0.00000000000E+00  0.11649056967E+04  0.11649056967E+04  0.00000000000E+00 0. -1.
         -1   -1    0    0    0  501 -0.00000000000E+00 -0.00000000000E+00 -0.37838906716E+03  0.37838906716E+03  0.00000000000E+00 0.  1.
    9000007    1    1    2  502    0 -0.52563465491E+03 -0.48373153360E+02  0.44722319502E+03  0.79914975979E+03  0.40000000000E+03 0. -1.
   -9000007    1    1    2    0  501  0.52563465491E+03  0.48373153360E+02  0.33929343457E+03  0.74414500411E+03  0.40000000000E+03 0.  1.
<mgrwt>
<rscale>  2 0.66229280E+03</rscale>
<asrwt>0</asrwt>
<pdfrwt beam="1">  1        1 0.17921626E+00 0.66229280E+03</pdfrwt>
<pdfrwt beam="2">  1       -1 0.58213703E-01 0.66229280E+03</pdfrwt>
<totfact> 0.35205511E+01</totfact>
</mgrwt>
</event>
<event>
 4    1  0.2488810E-002  0.4683472E+03  0.7818608E-02  0.1022388E+00
          2   -1    0    0  502    0  0.00000000000E+00  0.00000000000E+00  0.35371770668E+03  0.35371770668E+03  0.00000000000E+00 0.  1.
         -2   -1    0    0    0  501 -0.00000000000E+00 -0.00000000000E+00 -0.65615052876E+03  0.65615052876E+03  0.00000000000E+00 0. -1.
    9000007    1    1    2  502    0 -0.58739628125E+02  0.23642908830E+03 -0.32901233502E+02  0.46950138325E+03  0.40000000000E+03 0.  1.
   -9000007    1    1    2    0  501  0.58739628125E+02 -0.23642908830E+03 -0.26953158858E+03  0.54036685219E+03  0.40000000000E+03 0.  1.
<mgrwt>
<rscale>  2 0.46834716E+03</rscale>
<asrwt>0</asrwt>
<pdfrwt beam="1">  1        2 0.54418109E-01 0.46834716E+03</pdfrwt>
<pdfrwt beam="2">  1       -2 0.10094623E+00 0.46834716E+03</pdfrwt>
<totfact> 0.75896041E+01</totfact>
</mgrwt>
</event>
<event>
 4    1  0.2488810E-002  0.4105918E+03  0.7818608E-02  0.1040173E+00
         -2   -1    0    0    0  501 -0.00000000000E+00  0.00000000000E+00  0.66361611702E+02  0.66361611702E+02  0.00000000000E+00 0.  1.
          2   -1    0    0  502    0  0.00000000000E+00 -0.00000000000E+00 -0.34728615567E+04  0.34728615567E+04  0.00000000000E+00 0. -1.
    9000007    1    1    2  502    0 -0.94500457087E+01  0.92175466094E+02 -0.78629577190E+03  0.88704377616E+03  0.40000000000E+03 0.  1.
   -9000007    1    1    2    0  501  0.94500457087E+01 -0.92175466094E+02 -0.26202041731E+04  0.26521793922E+04  0.40000000000E+03 0. -1.
<mgrwt>
<rscale>  2 0.41059179E+03</rscale>
<asrwt>0</asrwt>
<pdfrwt beam="1">  1        2 0.53428655E+00 0.41059179E+03</pdfrwt>
<pdfrwt beam="2">  1       -2 0.10209476E-01 0.41059179E+03</pdfrwt>
<totfact> 0.64834870E+01</totfact>
</mgrwt>
</event>
<event>
 4    1  0.2488810E-002  0.4045415E+03  0.7818608E-02  0.1042218E+00
         -1   -1    0    0    0  501 -0.00000000000E+00  0.00000000000E+00  0.19603724445E+03  0.19603724445E+03  0.00000000000E+00 0.  1.
          1   -1    0    0  502    0  0.00000000000E+00 -0.00000000000E+00 -0.84461219154E+03  0.84461219154E+03  0.00000000000E+00 0. -1.
    9000007    1    1    2  502    0  0.39315718162E+01 -0.60319099239E+02 -0.38034158795E+03  0.55525991618E+03  0.40000000000E+03 0. -1.
   -9000007    1    1    2    0  501 -0.39315718162E+01  0.60319099239E+02 -0.26823335913E+03  0.48538951981E+03  0.40000000000E+03 0.  1.
<mgrwt>
<rscale>  2 0.40454153E+03</rscale>
<asrwt>0</asrwt>
<pdfrwt beam="1">  1        1 0.12994034E+00 0.40454153E+03</pdfrwt>
<pdfrwt beam="2">  1       -1 0.30159576E-01 0.40454153E+03</pdfrwt>
<totfact> 0.21279123E+02</totfact>
</mgrwt>
</event>
<event>
 4    1  0.2488810E-002  0.4156560E+03  0.7818608E-02  0.1038489E+00
         -1   -1    0    0    0  501 -0.00000000000E+00  0.00000000000E+00  0.80195824853E+03  0.80195824853E+03  0.00000000000E+00 0. -1.
          1   -1    0    0  502    0  0.00000000000E+00 -0.00000000000E+00 -0.22319176304E+03  0.22319176304E+03  0.00000000000E+00 0.  1.
    9000007    1    1    2  502    0  0.93378868567E+02 -0.63642218630E+02  0.19382763723E+03  0.45862740655E+03  0.40000000000E+03 0.  1.
   -9000007    1    1    2    0  501 -0.93378868567E+02  0.63642218630E+02  0.38493884826E+03  0.56652260501E+03  0.40000000000E+03 0. -1.
<mgrwt>
<rscale>  2 0.41565604E+03</rscale>
<asrwt>0</asrwt>
<pdfrwt beam="1">  1        1 0.34337195E-01 0.41565604E+03</pdfrwt>
<pdfrwt beam="2">  1       -1 0.12337819E+00 0.41565604E+03</pdfrwt>
<totfact> 0.78010876E+01</totfact>
</mgrwt>
</event>
<event>
 4    1  0.2488810E-002  0.4191665E+03  0.7818608E-02  0.1037338E+00
          1   -1    0    0  502    0  0.00000000000E+00  0.00000000000E+00  0.31950568988E+03  0.31950568988E+03  0.00000000000E+00 0. -1.
         -1   -1    0    0    0  501 -0.00000000000E+00 -0.00000000000E+00 -0.62287321288E+03  0.62287321288E+03  0.00000000000E+00 0.  1.
    9000007    1    1    2  502    0  0.11408624533E+03 -0.51816117044E+02 -0.31294740199E+03  0.52310291317E+03  0.40000000000E+03 0. -1.
   -9000007    1    1    2    0  501 -0.11408624533E+03  0.51816117044E+02  0.95798789879E+01  0.41927598958E+03  0.40000000000E+03 0. -1.
<mgrwt>
<rscale>  2 0.41916653E+03</rscale>
<asrwt>0</asrwt>
<pdfrwt beam="1">  1        1 0.49154722E-01 0.41916653E+03</pdfrwt>
<pdfrwt beam="2">  1       -1 0.95826647E-01 0.41916653E+03</pdfrwt>
<totfact> 0.88716274E+01</totfact>
</mgrwt>
</event>
<event>
 4    1  0.2488810E-002  0.5555715E+03  0.7818608E-02  0.1000213E+00
         -1   -1    0    0    0  501 -0.00000000000E+00  0.00000000000E+00  0.36774920855E+03  0.36774920855E+03  0.00000000000E+00 0.  1.
          1   -1    0    0  502    0  0.00000000000E+00 -0.00000000000E+00 -0.12296551273E+04  0.12296551273E+04  0.00000000000E+00 0. -1.
    9000007    1    1    2  502    0 -0.33627400790E+03 -0.18862517013E+03 -0.88095182356E+03  0.10415064948E+04  0.40000000000E+03 0. -1.
   -9000007    1    1    2    0  501  0.33627400790E+03  0.18862517013E+03  0.19045904843E+02  0.55589784105E+03  0.40000000000E+03 0.  1.
<mgrwt>
<rscale>  2 0.55557147E+03</rscale>
<asrwt>0</asrwt>
<pdfrwt beam="1">  1        1 0.18917772E+00 0.55557147E+03</pdfrwt>
<pdfrwt beam="2">  1       -1 0.56576800E-01 0.55557147E+03</pdfrwt>
<totfact> 0.33924768E+01</totfact>
</mgrwt>
</event>
<event>
 4    1  0.2488810E-002  0.5896239E+03  0.7818608E-02  0.9927170E-01
          2   -1    0    0  502    0  0.00000000000E+00  0.00000000000E+00  0.18863251187E+04  0.18863251187E+04  0.00000000000E+00 0. -1.
         -2   -1    0    0    0  501 -0.00000000000E+00 -0.00000000000E+00 -0.20767724032E+03  0.20767724032E+03  0.00000000000E+00 0.  1.
    9000007    1    1    2  502    0 -0.42804861407E+03  0.66563396992E+02  0.11905744165E+04  0.13285795961E+04  0.40000000000E+03 0. -1.
   -9000007    1    1    2    0  501  0.42804861407E+03 -0.66563396992E+02  0.48807346179E+03  0.76542276288E+03  0.40000000000E+03 0.  1.
<mgrwt>
<rscale>  2 0.58962386E+03</rscale>
<asrwt>0</asrwt>
<pdfrwt beam="1">  1        2 0.29020385E+00 0.58962386E+03</pdfrwt>
<pdfrwt beam="2">  1       -2 0.31950346E-01 0.58962386E+03</pdfrwt>
<totfact> 0.73640193E+01</totfact>
</mgrwt>
</event>
<event>
 4    1  0.2488810E-002  0.4115298E+03  0.7818608E-02  0.1039859E+00
         -2   -1    0    0    0  501 -0.00000000000E+00  0.00000000000E+00  0.21748203733E+03  0.21748203733E+03  0.00000000000E+00 0.  1.
          2   -1    0    0  502    0  0.00000000000E+00 -0.00000000000E+00 -0.78476189359E+03  0.78476189359E+03  0.00000000000E+00 0. -1.
    9000007    1    1    2  502    0 -0.96544867973E+02  0.59867386712E+01 -0.32762476844E+03  0.52601781478E+03  0.40000000000E+03 0. -1.
   -9000007    1    1    2    0  501  0.96544867973E+02 -0.59867386712E+01 -0.23965508782E+03  0.47622611614E+03  0.40000000000E+03 0.  1.
<mgrwt>
<rscale>  2 0.41152977E+03</rscale>
<asrwt>0</asrwt>
<pdfrwt beam="1">  1        2 0.12073260E+00 0.41152977E+03</pdfrwt>
<pdfrwt beam="2">  1       -2 0.33458775E-01 0.41152977E+03</pdfrwt>
<totfact> 0.30273098E+02</totfact>
</mgrwt>
</event>
<event>
 4    1  0.2488810E-002  0.5761513E+03  0.7818608E-02  0.9956158E-01
          2   -1    0    0  502    0  0.00000000000E+00  0.00000000000E+00  0.11008345194E+04  0.11008345194E+04  0.00000000000E+00 0. -1.
         -2   -1    0    0    0  501 -0.00000000000E+00 -0.00000000000E+00 -0.43951993468E+03  0.43951993468E+03  0.00000000000E+00 0.  1.
    9000007    1    1    2  502    0  0.83384705268E+02 -0.40619864047E+03 -0.10086439504E+03  0.58491364387E+03  0.40000000000E+03 0. -1.
   -9000007    1    1    2    0  501 -0.83384705268E+02  0.40619864047E+03  0.76217897972E+03  0.95544081016E+03  0.40000000000E+03 0. -1.
<mgrwt>
<rscale>  2 0.57615132E+03</rscale>
<asrwt>0</asrwt>
<pdfrwt beam="1">  1        2 0.16935916E+00 0.57615132E+03</pdfrwt>
<pdfrwt beam="2">  1       -2 0.67618452E-01 0.57615132E+03</pdfrwt>
<totfact> 0.45174769E+01</totfact>
</mgrwt>
</event>
<event>
 4    1  0.2488810E-002  0.4168246E+03  0.7818608E-02  0.1038105E+00
         -2   -1    0    0    0  501 -0.00000000000E+00  0.00000000000E+00  0.37313527085E+03  0.37313527085E+03  0.00000000000E+00 0.  1.
          2   -1    0    0  502    0  0.00000000000E+00 -0.00000000000E+00 -0.47718076661E+03  0.47718076661E+03  0.00000000000E+00 0. -1.
    9000007    1    1    2  502    0  0.11708172307E+03 -0.58844970989E+01 -0.11817206213E+03  0.43325211304E+03  0.40000000000E+03 0. -1.
   -9000007    1    1    2    0  501 -0.11708172307E+03  0.58844970989E+01  0.14126566373E+02  0.41706392443E+03  0.40000000000E+03 0.  1.
<mgrwt>
<rscale>  2 0.41682461E+03</rscale>
<asrwt>0</asrwt>
<pdfrwt beam="1">  1        2 0.73412425E-01 0.41682461E+03</pdfrwt>
<pdfrwt beam="2">  1       -2 0.57405427E-01 0.41682461E+03</pdfrwt>
<totfact> 0.18979883E+02</totfact>
</mgrwt>
</event>
<event>
 4    1  0.2488810E-002  0.4289394E+03  0.7818608E-02  0.1034196E+00
          2   -1    0    0  502    0  0.00000000000E+00  0.00000000000E+00  0.77761363127E+03  0.77761363127E+03  0.00000000000E+00 0.  1.
         -2   -1    0    0    0  501 -0.00000000000E+00 -0.00000000000E+00 -0.23871148751E+03  0.23871148751E+03  0.00000000000E+00 0. -1.
    9000007    1    1    2  502    0  0.15155105403E+03  0.31958121303E+02  0.22174093692E+03  0.48286445986E+03  0.40000000000E+03 0. -1.
   -9000007    1    1    2    0  501 -0.15155105403E+03 -0.31958121303E+02  0.31716120684E+03  0.53346065892E+03  0.40000000000E+03 0.  1.
<mgrwt>
<rscale>  2 0.42893944E+03</rscale>
<asrwt>0</asrwt>
<pdfrwt beam="1">  1        2 0.11963287E+00 0.42893944E+03</pdfrwt>
<pdfrwt beam="2">  1       -2 0.36724844E-01 0.42893944E+03</pdfrwt>
<totfact> 0.25661948E+02</totfact>
</mgrwt>
</event>
<event>
 4    1  0.2488810E-002  0.4658588E+03  0.7818608E-02  0.1023096E+00
         -1   -1    0    0    0  501 -0.00000000000E+00  0.00000000000E+00  0.80262673371E+02  0.80262673371E+02  0.00000000000E+00 0. -1.
          1   -1    0    0  502    0  0.00000000000E+00 -0.00000000000E+00 -0.32830741693E+04  0.32830741693E+04  0.00000000000E+00 0.  1.
    9000007    1    1    2  502    0 -0.17576369024E+03  0.16165248866E+03 -0.89509709473E+03  0.10090704687E+04  0.40000000000E+03 0. -1.
   -9000007    1    1    2    0  501  0.17576369024E+03 -0.16165248866E+03 -0.23077144012E+04  0.23542663739E+04  0.40000000000E+03 0.  1.
<mgrwt>
<rscale>  2 0.46585878E+03</rscale>
<asrwt>0</asrwt>
<pdfrwt beam="1">  1        1 0.50508831E+00 0.46585878E+03</pdfrwt>
<pdfrwt beam="2">  1       -1 0.12348104E-01 0.46585878E+03</pdfrwt>
<totfact> 0.18714170E+01</totfact>
</mgrwt>
</event>
<event>
 4    1  0.2488810E-002  0.4495096E+03  0.7818608E-02  0.1027868E+00
         -1   -1    0    0    0  501 -0.00000000000E+00  0.00000000000E+00  0.98066738596E+03  0.98066738596E+03  0.00000000000E+00 0. -1.
          1   -1    0    0  502    0  0.00000000000E+00 -0.00000000000E+00 -0.21610618574E+03  0.21610618574E+03  0.00000000000E+00 0.  1.
    9000007    1    1    2  502    0  0.10076531654E+03  0.17862031908E+03  0.25314875294E+03  0.51589064590E+03  0.40000000000E+03 0.  1.
   -9000007    1    1    2    0  501 -0.10076531654E+03 -0.17862031908E+03  0.51141244728E+03  0.68088292580E+03  0.40000000000E+03 0. -1.
<mgrwt>
<rscale>  2 0.44950959E+03</rscale>
<asrwt>0</asrwt>
<pdfrwt beam="1">  1        1 0.33247106E-01 0.44950959E+03</pdfrwt>
<pdfrwt beam="2">  1       -1 0.15087190E+00 0.44950959E+03</pdfrwt>
<totfact> 0.48514126E+01</totfact>
</mgrwt>
</event>
<event>
 4    1  0.2488810E-002  0.4180990E+03  0.7818608E-02  0.1037687E+00
          1   -1    0    0  502    0  0.00000000000E+00  0.00000000000E+00  0.18422936471E+04  0.18422936471E+04  0.00000000000E+00 0. -1.
         -1   -1    0    0    0  501 -0.00000000000E+00 -0.00000000000E+00 -0.95295178992E+02  0.95295178992E+02  0.00000000000E+00 0.  1.
    9000007    1    1    2  502    0 -0.29673080277E+02 -0.11800959478E+03  0.93702865271E+03  0.10260747790E+04  0.40000000000E+03 0.  1.
   -9000007    1    1    2    0  501  0.29673080277E+02  0.11800959478E+03  0.80996981544E+03  0.91151404711E+03  0.40000000000E+03 0.  1.
<mgrwt>
<rscale>  2 0.41809898E+03</rscale>
<asrwt>0</asrwt>
<pdfrwt beam="1">  1        1 0.28342977E+00 0.41809898E+03</pdfrwt>
<pdfrwt beam="2">  1       -1 0.14660798E-01 0.41809898E+03</pdfrwt>
<totfact> 0.13899128E+02</totfact>
</mgrwt>
</event>
<event>
 4    1  0.2488810E-002  0.5292178E+03  0.7818608E-02  0.1006422E+00
         -2   -1    0    0    0  501 -0.00000000000E+00  0.00000000000E+00  0.90876983347E+02  0.90876983347E+02  0.00000000000E+00 0.  1.
          2   -1    0    0  502    0  0.00000000000E+00 -0.00000000000E+00 -0.32142792531E+04  0.32142792531E+04  0.00000000000E+00 0. -1.
    9000007    1    1    2  502    0  0.27833637032E+03 -0.20639842443E+03 -0.18971082084E+04  0.19695408092E+04  0.40000000000E+03 0.  1.
   -9000007    1    1    2    0  501 -0.27833637032E+03  0.20639842443E+03 -0.12262940614E+04  0.13356154273E+04  0.40000000000E+03 0. -1.
<mgrwt>
<rscale>  2 0.52921777E+03</rscale>
<asrwt>0</asrwt>
<pdfrwt beam="1">  1        2 0.49450447E+00 0.52921777E+03</pdfrwt>
<pdfrwt beam="2">  1       -2 0.13981075E-01 0.52921777E+03</pdfrwt>
<totfact> 0.55357211E+01</totfact>
</mgrwt>
</event>
<event>
 4    1  0.2488810E-002  0.4032078E+03  0.7818608E-02  0.1042675E+00
         -2   -1    0    0    0  501 -0.00000000000E+00  0.00000000000E+00  0.24033917555E+03  0.24033917555E+03  0.00000000000E+00 0.  1.
          2   -1    0    0  502    0  0.00000000000E+00 -0.00000000000E+00 -0.94672494803E+03  0.94672494803E+03  0.00000000000E+00 0. -1.
    9000007    1    1    2  502    0  0.31167868859E+02 -0.40063137034E+02 -0.36062157157E+02  0.40481720588E+03  0.40000000000E+03 0.  1.
   -9000007    1    1    2    0  501 -0.31167868859E+02  0.40063137034E+02 -0.67032361532E+03  0.78224691770E+03  0.40000000000E+03 0. -1.
<mgrwt>
<rscale>  2 0.40320775E+03</rscale>
<asrwt>0</asrwt>
<pdfrwt beam="1">  1        2 0.14564999E+00 0.40320775E+03</pdfrwt>
<pdfrwt beam="2">  1       -2 0.36975257E-01 0.40320775E+03</pdfrwt>
<totfact> 0.19509282E+02</totfact>
</mgrwt>
</event>
<event>
 4    1  0.2488810E-002  0.4085735E+03  0.7818608E-02  0.1040851E+00
          2   -1    0    0  502    0  0.00000000000E+00  0.00000000000E+00  0.38609658393E+03  0.38609658393E+03  0.00000000000E+00 0. -1.
         -2   -1    0    0    0  501 -0.00000000000E+00 -0.00000000000E+00 -0.46011780735E+03  0.46011780735E+03  0.00000000000E+00 0.  1.
    9000007    1    1    2  502    0 -0.34586188642E+02  0.75737242135E+02 -0.14093470987E+03  0.43219778659E+03  0.40000000000E+03 0.  1.
   -9000007    1    1    2    0  501  0.34586188642E+02 -0.75737242135E+02  0.66913486444E+02  0.41401660469E+03  0.40000000000E+03 0. -1.
<mgrwt>
<rscale>  2 0.40857354E+03</rscale>
<asrwt>0</asrwt>
<pdfrwt beam="1">  1        2 0.59399474E-01 0.40857354E+03</pdfrwt>
<pdfrwt beam="2">  1       -2 0.70787355E-01 0.40857354E+03</pdfrwt>
<totfact> 0.15427783E+02</totfact>
</mgrwt>
</event>
<event>
 4    1  0.2488810E-002  0.4452777E+03  0.7818608E-02  0.1029140E+00
         -1   -1    0    0    0  501 -0.00000000000E+00  0.00000000000E+00  0.79157254156E+03  0.79157254156E+03  0.00000000000E+00 0.  1.
          1   -1    0    0  502    0  0.00000000000E+00 -0.00000000000E+00 -0.30552396145E+03  0.30552396145E+03  0.00000000000E+00 0. -1.
    9000007    1    1    2  502    0 -0.60926472659E+02  0.18590372654E+03  0.10187650955E+02  0.44539422857E+03  0.40000000000E+03 0. -1.
   -9000007    1    1    2    0  501  0.60926472659E+02 -0.18590372654E+03  0.47586092915E+03  0.65170227444E+03  0.40000000000E+03 0.  1.
<mgrwt>
<rscale>  2 0.44527770E+03</rscale>
<asrwt>0</asrwt>
<pdfrwt beam="1">  1        1 0.47003687E-01 0.44527770E+03</pdfrwt>
<pdfrwt beam="2">  1       -1 0.12178039E+00 0.44527770E+03</pdfrwt>
<totfact> 0.53717938E+01</totfact>
</mgrwt>
</event>
<event>
 4    1  0.2488810E-002  0.4893810E+03  0.7818608E-02  0.1016588E+00
          1   -1    0    0  502    0  0.00000000000E+00  0.00000000000E+00  0.98796685273E+03  0.98796685273E+03  0.00000000000E+00 0. -1.
         -1   -1    0    0    0  501 -0.00000000000E+00 -0.00000000000E+00 -0.43962091483E+03  0.43962091483E+03  0.00000000000E+00 0.  1.
    9000007    1    1    2  502    0 -0.27163112907E+03 -0.75566664082E+02  0.75225045456E+03  0.89742661950E+03  0.40000000000E+03 0. -1.
   -9000007    1    1    2    0  501  0.27163112907E+03  0.75566664082E+02 -0.20390451666E+03  0.53016114806E+03  0.40000000000E+03 0.  1.
<mgrwt>
<rscale>  2 0.48938103E+03</rscale>
<asrwt>0</asrwt>
<pdfrwt beam="1">  1        1 0.15199490E+00 0.48938103E+03</pdfrwt>
<pdfrwt beam="2">  1       -1 0.67633987E-01 0.48938103E+03</pdfrwt>
<totfact> 0.36351301E+01</totfact>
</mgrwt>
</event>
<event>
 4    1  0.2488810E-002  0.7349011E+03  0.7818608E-02  0.9659340E-01
         -2   -1    0    0    0  501 -0.00000000000E+00  0.00000000000E+00  0.49521409100E+03  0.49521409100E+03  0.00000000000E+00 0. -1.
          2   -1    0    0  502    0  0.00000000000E+00 -0.00000000000E+00 -0.19155954506E+04  0.19155954506E+04  0.00000000000E+00 0.  1.
    9000007    1    1    2  502    0  0.42116433582E+02  0.61506570617E+03 -0.15012467131E+04  0.16714727968E+04  0.40000000000E+03 0.  1.
   -9000007    1    1    2    0  501 -0.42116433582E+02 -0.61506570617E+03  0.80865353447E+02  0.73933674484E+03  0.40000000000E+03 0. -1.
<mgrwt>
<rscale>  2 0.73490109E+03</rscale>
<asrwt>0</asrwt>
<pdfrwt beam="1">  1        2 0.29470699E+00 0.73490109E+03</pdfrwt>
<pdfrwt beam="2">  1       -2 0.76186784E-01 0.73490109E+03</pdfrwt>
<totfact> 0.11885300E+01</totfact>
</mgrwt>
</event>
<event>
 4    1  0.2488810E-002  0.4454257E+03  0.7818608E-02  0.1029095E+00
         -2   -1    0    0    0  501 -0.00000000000E+00  0.00000000000E+00  0.18913376509E+03  0.18913376509E+03  0.00000000000E+00 0. -1.
          2   -1    0    0  502    0  0.00000000000E+00 -0.00000000000E+00 -0.14055959211E+04  0.14055959211E+04  0.00000000000E+00 0.  1.
    9000007    1    1    2  502    0 -0.19403441530E+03  0.27471439848E+02 -0.10098427109E+04  0.11037147888E+04  0.40000000000E+03 0.  1.
   -9000007    1    1    2    0  501  0.19403441530E+03 -0.27471439848E+02 -0.20661944513E+03  0.49101489736E+03  0.40000000000E+03 0. -1.
<mgrwt>
<rscale>  2 0.44542568E+03</rscale>
<asrwt>0</asrwt>
<pdfrwt beam="1">  1        2 0.21624552E+00 0.44542568E+03</pdfrwt>
<pdfrwt beam="2">  1       -2 0.29097503E-01 0.44542568E+03</pdfrwt>
<totfact> 0.16298985E+02</totfact>
</mgrwt>
</event>
<event>
 4    1  0.2488810E-002  0.4996092E+03  0.7818608E-02  0.1013881E+00
          1   -1    0    0  502    0  0.00000000000E+00  0.00000000000E+00  0.76809750191E+03  0.76809750191E+03  0.00000000000E+00 0.  1.
         -1   -1    0    0    0  501 -0.00000000000E+00 -0.00000000000E+00 -0.34696693013E+03  0.34696693013E+03  0.00000000000E+00 0. -1.
    9000007    1    1    2  502    0 -0.21842992489E+03  0.20468943094E+03  0.70187844130E+02  0.50451534039E+03  0.40000000000E+03 0. -1.
   -9000007    1    1    2    0  501  0.21842992489E+03 -0.20468943094E+03  0.35094272765E+03  0.61054909165E+03  0.40000000000E+03 0. -1.
<mgrwt>
<rscale>  2 0.49960924E+03</rscale>
<asrwt>0</asrwt>
<pdfrwt beam="1">  1        1 0.11816885E+00 0.49960924E+03</pdfrwt>
<pdfrwt beam="2">  1       -1 0.53379528E-01 0.49960924E+03</pdfrwt>
<totfact> 0.87211933E+01</totfact>
</mgrwt>
</event>
<event>
 4    1  0.2488810E-002  0.7048735E+03  0.7818608E-02  0.9708934E-01
         -2   -1    0    0    0  501 -0.00000000000E+00  0.00000000000E+00  0.23058067232E+03  0.23058067232E+03  0.00000000000E+00 0. -1.
          2   -1    0    0  502    0  0.00000000000E+00 -0.00000000000E+00 -0.25821158977E+04  0.25821158977E+04  0.00000000000E+00 0.  1.
    9000007    1    1    2  502    0  0.57142175232E+03 -0.10160615492E+03 -0.17479025994E+04  0.18846777249E+04  0.40000000000E+03 0.  1.
   -9000007    1    1    2    0  501 -0.57142175232E+03  0.10160615492E+03 -0.60363262594E+03  0.92801884509E+03  0.40000000000E+03 0. -1.
<mgrwt>
<rscale>  2 0.70487348E+03</rscale>
<asrwt>0</asrwt>
<pdfrwt beam="1">  1        2 0.39724860E+00 0.70487348E+03</pdfrwt>
<pdfrwt beam="2">  1       -2 0.35473949E-01 0.70487348E+03</pdfrwt>
<totfact> 0.24532485E+01</totfact>
</mgrwt>
</event>
<event>
 4    1  0.2488810E-002  0.6962851E+03  0.7818608E-02  0.9723606E-01
         -2   -1    0    0    0  501 -0.00000000000E+00  0.00000000000E+00  0.37771775354E+03  0.37771775354E+03  0.00000000000E+00 0. -1.
          2   -1    0    0  502    0  0.00000000000E+00 -0.00000000000E+00 -0.13598461558E+04  0.13598461558E+04  0.00000000000E+00 0.  1.
    9000007    1    1    2  502    0 -0.27902574906E+03 -0.49694829129E+03 -0.28525379446E+03  0.75245112805E+03  0.40000000000E+03 0. -1.
   -9000007    1    1    2    0  501  0.27902574906E+03  0.49694829129E+03 -0.69687460782E+03  0.98511278130E+03  0.40000000000E+03 0.  1.
<mgrwt>
<rscale>  2 0.69628512E+03</rscale>
<asrwt>0</asrwt>
<pdfrwt beam="1">  1        2 0.20920710E+00 0.69628512E+03</pdfrwt>
<pdfrwt beam="2">  1       -2 0.58110423E-01 0.69628512E+03</pdfrwt>
<totfact> 0.43387511E+01</totfact>
</mgrwt>
</event>
<event>
 4    1  0.2488810E-002  0.4109796E+03  0.7818608E-02  0.1040043E+00
          2   -1    0    0  502    0  0.00000000000E+00  0.00000000000E+00  0.34550174366E+03  0.34550174366E+03  0.00000000000E+00 0. -1.
         -2   -1    0    0    0  501 -0.00000000000E+00 -0.00000000000E+00 -0.63819475197E+03  0.63819475197E+03  0.00000000000E+00 0.  1.
    9000007    1    1    2  502    0  0.94338997145E+02 -0.21035112818E+01  0.91570413158E+02  0.42105749216E+03  0.40000000000E+03 0. -1.
   -9000007    1    1    2    0  501 -0.94338997145E+02  0.21035112818E+01 -0.38426342147E+03  0.56263900346E+03  0.40000000000E+03 0.  1.
<mgrwt>
<rscale>  2 0.41097965E+03</rscale>
<asrwt>0</asrwt>
<pdfrwt beam="1">  1        2 0.53154115E-01 0.41097965E+03</pdfrwt>
<pdfrwt beam="2">  1       -2 0.98183808E-01 0.41097965E+03</pdfrwt>
<totfact> 0.83524859E+01</totfact>
</mgrwt>
</event>
<event>
 4    1  0.2488810E-002  0.5686041E+03  0.7818608E-02  0.9972772E-01
         -1   -1    0    0    0  501 -0.00000000000E+00  0.00000000000E+00  0.74687468392E+03  0.74687468392E+03  0.00000000000E+00 0.  1.
          1   -1    0    0  502    0  0.00000000000E+00 -0.00000000000E+00 -0.13287657427E+04  0.13287657427E+04  0.00000000000E+00 0. -1.
    9000007    1    1    2  502    0 -0.37345186613E+03 -0.15441605655E+03 -0.11431093460E+04  0.12767182899E+04  0.40000000000E+03 0. -1.
   -9000007    1    1    2    0  501  0.37345186613E+03  0.15441605655E+03  0.56121828715E+03  0.79892213680E+03  0.40000000000E+03 0.  1.
<mgrwt>
<rscale>  2 0.56860409E+03</rscale>
<asrwt>0</asrwt>
<pdfrwt beam="1">  1        1 0.20442550E+00 0.56860409E+03</pdfrwt>
<pdfrwt beam="2">  1       -1 0.11490380E+00 0.56860409E+03</pdfrwt>
<totfact> 0.63702671E+00</totfact>
</mgrwt>
</event>
<event>
 4    1  0.2488810E-002  0.4044492E+03  0.7818608E-02  0.1042250E+00
          2   -1    0    0  502    0  0.00000000000E+00  0.00000000000E+00  0.23170385589E+03  0.23170385589E+03  0.00000000000E+00 0. -1.
         -2   -1    0    0    0  501 -0.00000000000E+00 -0.00000000000E+00 -0.90102898180E+03  0.90102898180E+03  0.00000000000E+00 0.  1.
    9000007    1    1    2  502    0  0.22318647554E+02 -0.55506718022E+02 -0.71153247590E+02  0.41066032486E+03  0.40000000000E+03 0. -1.
   -9000007    1    1    2    0  501 -0.22318647554E+02  0.55506718022E+02 -0.59817187832E+03  0.72207251283E+03  0.40000000000E+03 0.  1.
<mgrwt>
<rscale>  2 0.40444915E+03</rscale>
<asrwt>0</asrwt>
<pdfrwt beam="1">  1        2 0.35646748E-01 0.40444915E+03</pdfrwt>
<pdfrwt beam="2">  1       -2 0.13861984E+00 0.40444915E+03</pdfrwt>
<totfact> 0.55895479E+01</totfact>
</mgrwt>
</event>
<event>
 4    1  0.2488810E-002  0.4013959E+03  0.7818608E-02  0.1043297E+00
          1   -1    0    0  502    0  0.00000000000E+00  0.00000000000E+00  0.14933600070E+04  0.14933600070E+04  0.00000000000E+00 0.  1.
         -1   -1    0    0    0  501 -0.00000000000E+00 -0.00000000000E+00 -0.13835681289E+03  0.13835681289E+03  0.00000000000E+00 0. -1.
    9000007    1    1    2  502    0  0.32731753462E+02  0.68786582234E+01  0.29465244738E+03  0.49793448201E+03  0.40000000000E+03 0. -1.
   -9000007    1    1    2    0  501 -0.32731753462E+02 -0.68786582234E+01  0.10603507467E+04  0.11337823379E+04  0.40000000000E+03 0.  1.
<mgrwt>
<rscale>  2 0.40139592E+03</rscale>
<asrwt>0</asrwt>
<pdfrwt beam="1">  1        1 0.22974768E+00 0.40139592E+03</pdfrwt>
<pdfrwt beam="2">  1       -1 0.21285665E-01 0.40139592E+03</pdfrwt>
<totfact> 0.12940438E+02</totfact>
</mgrwt>
</event>
<event>
 4    1  0.2488810E-002  0.4027664E+03  0.7818608E-02  0.1042826E+00
          1   -1    0    0  502    0  0.00000000000E+00  0.00000000000E+00  0.13617812696E+04  0.13617812696E+04  0.00000000000E+00 0.  1.
         -1   -1    0    0    0  501 -0.00000000000E+00 -0.00000000000E+00 -0.11962272530E+03  0.11962272530E+03  0.00000000000E+00 0. -1.
    9000007    1    1    2  502    0  0.26459898758E+02  0.38994976157E+02  0.57324947288E+03  0.70059666897E+03  0.40000000000E+03 0.  1.
   -9000007    1    1    2    0  501 -0.26459898758E+02 -0.38994976157E+02  0.66890907145E+03  0.78080732596E+03  0.40000000000E+03 0.  1.
<mgrwt>
<rscale>  2 0.40276635E+03</rscale>
<asrwt>0</asrwt>
<pdfrwt beam="1">  1        1 0.20950480E+00 0.40276635E+03</pdfrwt>
<pdfrwt beam="2">  1       -1 0.18403497E-01 0.40276635E+03</pdfrwt>
<totfact> 0.20190002E+02</totfact>
</mgrwt>
</event>
<event>
 4    1  0.2488810E-002  0.4102668E+03  0.7818608E-02  0.1040282E+00
          2   -1    0    0  502    0  0.00000000000E+00  0.00000000000E+00  0.10357566724E+04  0.10357566724E+04  0.00000000000E+00 0. -1.
         -2   -1    0    0    0  501 -0.00000000000E+00 -0.00000000000E+00 -0.16590920272E+03  0.16590920272E+03  0.00000000000E+00 0.  1.
    9000007    1    1    2  502    0 -0.21623146350E+02  0.88607413181E+02  0.34889782420E+03  0.53856153396E+03  0.40000000000E+03 0.  1.
   -9000007    1    1    2    0  501  0.21623146350E+02 -0.88607413181E+02  0.52094964547E+03  0.66310434114E+03  0.40000000000E+03 0. -1.
<mgrwt>
<rscale>  2 0.41026678E+03</rscale>
<asrwt>0</asrwt>
<pdfrwt beam="1">  1        2 0.15934718E+00 0.41026678E+03</pdfrwt>
<pdfrwt beam="2">  1       -2 0.25524493E-01 0.41026678E+03</pdfrwt>
<totfact> 0.33968265E+02</totfact>
</mgrwt>
</event>
<event>
 4    1  0.2488810E-002  0.4266825E+03  0.7818608E-02  0.1034913E+00
         -2   -1    0    0    0  501 -0.00000000000E+00  0.00000000000E+00  0.33628738990E+03  0.33628738990E+03  0.00000000000E+00 0.  1.
          2   -1    0    0  502    0  0.00000000000E+00 -0.00000000000E+00 -0.61331807355E+03  0.61331807355E+03  0.00000000000E+00 0. -1.
    9000007    1    1    2  502    0 -0.89567899290E+02  0.11847161437E+03  0.24100073740E+02  0.42736254580E+03  0.40000000000E+03 0.  1.
   -9000007    1    1    2    0  501  0.89567899290E+02 -0.11847161437E+03 -0.30113075739E+03  0.52224291766E+03  0.40000000000E+03 0. -1.
<mgrwt>
<rscale>  2 0.42668247E+03</rscale>
<asrwt>0</asrwt>
<pdfrwt beam="1">  1        2 0.94356625E-01 0.42668247E+03</pdfrwt>
<pdfrwt beam="2">  1       -2 0.51736522E-01 0.42668247E+03</pdfrwt>
<totfact> 0.17549590E+02</totfact>
</mgrwt>
</event>
<event>
 4    1  0.2488810E-002  0.5102183E+03  0.7818608E-02  0.1011146E+00
         -1   -1    0    0    0  501 -0.00000000000E+00  0.00000000000E+00  0.26809188247E+03  0.26809188247E+03  0.00000000000E+00 0.  1.
          1   -1    0    0  502    0  0.00000000000E+00 -0.00000000000E+00 -0.10671188853E+04  0.10671188853E+04  0.00000000000E+00 0. -1.
    9000007    1    1    2  502    0 -0.78486729020E+02 -0.30685910650E+03 -0.59985539537E+03  0.78749550680E+03  0.40000000000E+03 0. -1.
   -9000007    1    1    2    0  501  0.78486729020E+02  0.30685910650E+03 -0.19917160745E+03  0.54771526096E+03  0.40000000000E+03 0.  1.
<mgrwt>
<rscale>  2 0.51021826E+03</rscale>
<asrwt>0</asrwt>
<pdfrwt beam="1">  1        1 0.16417213E+00 0.51021826E+03</pdfrwt>
<pdfrwt beam="2">  1       -1 0.41244906E-01 0.51021826E+03</pdfrwt>
<totfact> 0.80991939E+01</totfact>
</mgrwt>
</event>
<event>
 4    1  0.2488810E-002  0.6624821E+03  0.7818608E-02  0.9783635E-01
         -2   -1    0    0    0  501 -0.00000000000E+00  0.00000000000E+00  0.21778078744E+03  0.21778078744E+03  0.00000000000E+00 0. -1.
          2   -1    0    0  502    0  0.00000000000E+00 -0.00000000000E+00 -0.20205580593E+04  0.20205580593E+04  0.00000000000E+00 0.  1.
    9000007    1    1    2  502    0  0.36397177647E+03  0.38263176144E+03 -0.84402085463E+03  0.10729649211E+04  0.40000000000E+03 0. -1.
   -9000007    1    1    2    0  501 -0.36397177647E+03 -0.38263176144E+03 -0.95875641726E+03  0.11653739256E+04  0.40000000000E+03 0. -1.
<mgrwt>
<rscale>  2 0.66248209E+03</rscale>
<asrwt>0</asrwt>
<pdfrwt beam="1">  1        2 0.31085507E+00 0.66248209E+03</pdfrwt>
<pdfrwt beam="2">  1       -2 0.33504738E-01 0.66248209E+03</pdfrwt>
<totfact> 0.56404934E+01</totfact>
</mgrwt>
</event>
<event>
 4    1  0.2488810E-002  0.5520047E+03  0.7818608E-02  0.1001031E+00
         -1   -1    0    0    0  501 -0.00000000000E+00  0.00000000000E+00  0.48261950674E+03  0.48261950674E+03  0.00000000000E+00 0.  1.
          1   -1    0    0  502    0  0.00000000000E+00 -0.00000000000E+00 -0.72799043450E+03  0.72799043450E+03  0.00000000000E+00 0. -1.
    9000007    1    1    2  502    0 -0.29943045261E+03  0.23462868728E+03 -0.34320975060E+03  0.65000165366E+03  0.40000000000E+03 0. -1.
   -9000007    1    1    2    0  501  0.29943045261E+03 -0.23462868728E+03  0.97838822842E+02  0.56060828758E+03  0.40000000000E+03 0.  1.
<mgrwt>
<rscale>  2 0.55200473E+03</rscale>
<asrwt>0</asrwt>
<pdfrwt beam="1">  1        1 0.11199853E+00 0.55200473E+03</pdfrwt>
<pdfrwt beam="2">  1       -1 0.74249155E-01 0.55200473E+03</pdfrwt>
<totfact> 0.48928013E+01</totfact>
</mgrwt>
</event>
<event>
 4    1  0.2488810E-002  0.4777932E+03  0.7818608E-02  0.1019743E+00
          2   -1    0    0  502    0  0.00000000000E+00  0.00000000000E+00  0.19833463223E+04  0.19833463223E+04  0.00000000000E+00 0. -1.
         -2   -1    0    0    0  501 -0.00000000000E+00 -0.00000000000E+00 -0.12679514523E+03  0.12679514523E+03  0.00000000000E+00 0.  1.
    9000007    1    1    2  502    0  0.44639291625E+02  0.25747553110E+03  0.60786744403E+03  0.77316825141E+03  0.40000000000E+03 0.  1.
   -9000007    1    1    2    0  501 -0.44639291625E+02 -0.25747553110E+03  0.12486837330E+04  0.13369732161E+04  0.40000000000E+03 0. -1.
<mgrwt>
<rscale>  2 0.47779317E+03</rscale>
<asrwt>0</asrwt>
<pdfrwt beam="1">  1        2 0.30513018E+00 0.47779317E+03</pdfrwt>
<pdfrwt beam="2">  1       -2 0.19506947E-01 0.47779317E+03</pdfrwt>
<totfact> 0.16090877E+02</totfact>
</mgrwt>
</event>
<event>
 4    1  0.2488810E-002  0.8608841E+03  0.7818608E-02  0.9475844E-01
          2   -1    0    0  502    0  0.00000000000E+00  0.00000000000E+00  0.25022530650E+04  0.25022530650E+04  0.00000000000E+00 0.  1.
         -2   -1    0    0    0  501 -0.00000000000E+00 -0.00000000000E+00 -0.45838209920E+03  0.45838209920E+03  0.00000000000E+00 0. -1.
    9000007    1    1    2  502    0  0.70116227163E+03 -0.29915366671E+03  0.19025119924E+04  0.20882225285E+04  0.40000000000E+03 0.  1.
   -9000007    1    1    2    0  501 -0.70116227163E+03  0.29915366671E+03  0.14135897338E+03  0.87241263564E+03  0.40000000000E+03 0. -1.
<mgrwt>
<rscale>  2 0.86088411E+03</rscale>
<asrwt>0</asrwt>
<pdfrwt beam="1">  1        2 0.38496200E+00 0.86088411E+03</pdfrwt>
<pdfrwt beam="2">  1       -2 0.70520324E-01 0.86088411E+03</pdfrwt>
<totfact> 0.65434121E+00</totfact>
</mgrwt>
</event>
<event>
 4    1  0.2488810E-002  0.4474642E+03  0.7818608E-02  0.1028481E+00
          1   -1    0    0  502    0  0.00000000000E+00  0.00000000000E+00  0.11321297619E+04  0.11321297619E+04  0.00000000000E+00 0.  1.
         -1   -1    0    0    0  501 -0.00000000000E+00 -0.00000000000E+00 -0.17760728997E+03  0.17760728997E+03  0.00000000000E+00 0. -1.
    9000007    1    1    2  502    0  0.65865922492E+02 -0.18943581056E+03  0.51984555117E+03  0.68590352320E+03  0.40000000000E+03 0.  1.
   -9000007    1    1    2    0  501 -0.65865922492E+02  0.18943581056E+03  0.43467692078E+03  0.62383352869E+03  0.40000000000E+03 0. -1.
<mgrwt>
<rscale>  2 0.44746424E+03</rscale>
<asrwt>0</asrwt>
<pdfrwt beam="1">  1        1 0.17417381E+00 0.44746424E+03</pdfrwt>
<pdfrwt beam="2">  1       -1 0.27324199E-01 0.44746424E+03</pdfrwt>
<totfact> 0.15072404E+02</totfact>
</mgrwt>
</event>
<event>
 4    1  0.2488810E-002  0.4118726E+03  0.7818608E-02  0.1039744E+00
          2   -1    0    0  502    0  0.00000000000E+00  0.00000000000E+00  0.21258901535E+04  0.21258901535E+04  0.00000000000E+00 0.  1.
         -2   -1    0    0    0  501 -0.00000000000E+00 -0.00000000000E+00 -0.82361902840E+02  0.82361902840E+02  0.00000000000E+00 0. -1.
    9000007    1    1    2  502    0 -0.66162969764E+02 -0.72536462994E+02  0.82690802811E+03  0.92380515478E+03  0.40000000000E+03 0.  1.
   -9000007    1    1    2    0  501  0.66162969764E+02  0.72536462994E+02  0.12166202226E+04  0.12844469016E+04  0.40000000000E+03 0. -1.
<mgrwt>
<rscale>  2 0.41187265E+03</rscale>
<asrwt>0</asrwt>
<pdfrwt beam="1">  1        2 0.32705998E+00 0.41187265E+03</pdfrwt>
<pdfrwt beam="2">  1       -2 0.12671064E-01 0.41187265E+03</pdfrwt>
<totfact> 0.28187786E+02</totfact>
</mgrwt>
</event>
<event>
 4    1  0.2488810E-002  0.4553183E+03  0.7818608E-02  0.1026148E+00
          2   -1    0    0  502    0  0.00000000000E+00  0.00000000000E+00  0.13482675352E+04  0.13482675352E+04  0.00000000000E+00 0.  1.
         -2   -1    0    0    0  501 -0.00000000000E+00 -0.00000000000E+00 -0.26550156010E+03  0.26550156010E+03  0.00000000000E+00 0. -1.
    9000007    1    1    2  502    0 -0.20861334228E+03  0.61605713224E+02  0.17929898345E+02  0.45567123207E+03  0.40000000000E+03 0. -1.
   -9000007    1    1    2    0  501  0.20861334228E+03 -0.61605713224E+02  0.10648360768E+04  0.11580978632E+04  0.40000000000E+03 0.  1.
<mgrwt>
<rscale>  2 0.45531834E+03</rscale>
<asrwt>0</asrwt>
<pdfrwt beam="1">  1        2 0.20742577E+00 0.45531834E+03</pdfrwt>
<pdfrwt beam="2">  1       -2 0.40846395E-01 0.45531834E+03</pdfrwt>
<totfact> 0.92456015E+01</totfact>
</mgrwt>
</event>
<event>
 4    1  0.2488810E-002  0.4777656E+03  0.7818608E-02  0.1019751E+00
          2   -1    0    0  502    0  0.00000000000E+00  0.00000000000E+00  0.16217768999E+04  0.16217768999E+04  0.00000000000E+00 0. -1.
         -2   -1    0    0    0  501 -0.00000000000E+00 -0.00000000000E+00 -0.14109227136E+03  0.14109227136E+03  0.00000000000E+00 0.  1.
    9000007    1    1    2  502    0  0.13792307763E+03  0.22189462911E+03  0.78395456818E+03  0.91806577474E+03  0.40000000000E+03 0. -1.
   -9000007    1    1    2    0  501 -0.13792307763E+03 -0.22189462911E+03  0.69673006033E+03  0.84480339650E+03  0.40000000000E+03 0.  1.
<mgrwt>
<rscale>  2 0.47776563E+03</rscale>
<asrwt>0</asrwt>
<pdfrwt beam="1">  1        2 0.24950413E+00 0.47776563E+03</pdfrwt>
<pdfrwt beam="2">  1       -2 0.21706504E-01 0.47776563E+03</pdfrwt>
<totfact> 0.20899793E+02</totfact>
</mgrwt>
</event>
<event>
 4    1  0.2488810E-002  0.4079438E+03  0.7818608E-02  0.1041063E+00
         -1   -1    0    0    0  501 -0.00000000000E+00  0.00000000000E+00  0.54380292265E+03  0.54380292265E+03  0.00000000000E+00 0. -1.
          1   -1    0    0  502    0  0.00000000000E+00 -0.00000000000E+00 -0.37480693805E+03  0.37480693805E+03  0.00000000000E+00 0.  1.
    9000007    1    1    2  502    0 -0.45463164961E+01 -0.79984260733E+02 -0.11225869371E+03  0.42310774665E+03  0.40000000000E+03 0.  1.
   -9000007    1    1    2    0  501  0.45463164961E+01  0.79984260733E+02  0.28125467831E+03  0.49550211405E+03  0.40000000000E+03 0. -1.
<mgrwt>
<rscale>  2 0.40794381E+03</rscale>
<asrwt>0</asrwt>
<pdfrwt beam="1">  1        1 0.57662606E-01 0.40794381E+03</pdfrwt>
<pdfrwt beam="2">  1       -1 0.83661987E-01 0.40794381E+03</pdfrwt>
<totfact> 0.97103249E+01</totfact>
</mgrwt>
</event>
<event>
 4    1  0.2488810E-002  0.4065801E+03  0.7818608E-02  0.1041525E+00
         -1   -1    0    0    0  501 -0.00000000000E+00  0.00000000000E+00  0.68174057366E+02  0.68174057366E+02  0.00000000000E+00 0.  1.
          1   -1    0    0  502    0  0.00000000000E+00 -0.00000000000E+00 -0.24639717749E+04  0.24639717749E+04  0.00000000000E+00 0. -1.
    9000007    1    1    2  502    0  0.17702801089E+02 -0.70668084220E+02 -0.10382316072E+04  0.11150032455E+04  0.40000000000E+03 0. -1.
   -9000007    1    1    2    0  501 -0.17702801089E+02  0.70668084220E+02 -0.13575661104E+04  0.14171425868E+04  0.40000000000E+03 0.  1.
<mgrwt>
<rscale>  2 0.40658009E+03</rscale>
<asrwt>0</asrwt>
<pdfrwt beam="1">  1        1 0.37907259E+00 0.40658009E+03</pdfrwt>
<pdfrwt beam="2">  1       -1 0.10488316E-01 0.40658009E+03</pdfrwt>
<totfact> 0.91923419E+01</totfact>
</mgrwt>
</event>
<event>
 4    1  0.2488810E-002  0.4888517E+03  0.7818608E-02  0.1016730E+00
         -1   -1    0    0    0  501 -0.00000000000E+00  0.00000000000E+00  0.30911497648E+03  0.30911497648E+03  0.00000000000E+00 0. -1.
          1   -1    0    0  502    0  0.00000000000E+00 -0.00000000000E+00 -0.88618645506E+03  0.88618645506E+03  0.00000000000E+00 0.  1.
    9000007    1    1    2  502    0  0.17786222941E+03  0.21757982183E+03 -0.75036966353E+02  0.49457708988E+03  0.40000000000E+03 0. -1.
   -9000007    1    1    2    0  501 -0.17786222941E+03 -0.21757982183E+03 -0.50203451223E+03  0.70072434166E+03  0.40000000000E+03 0.  1.
<mgrwt>
<rscale>  2 0.48885167E+03</rscale>
<asrwt>0</asrwt>
<pdfrwt beam="1">  1        1 0.13633638E+00 0.48885167E+03</pdfrwt>
<pdfrwt beam="2">  1       -1 0.47556150E-01 0.48885167E+03</pdfrwt>
<totfact> 0.86352119E+01</totfact>
</mgrwt>
</event>
<event>
 4    1  0.2488810E-002  0.4281352E+03  0.7818608E-02  0.1034451E+00
          2   -1    0    0  502    0  0.00000000000E+00  0.00000000000E+00  0.28547807219E+03  0.28547807219E+03  0.00000000000E+00 0.  1.
         -2   -1    0    0    0  501 -0.00000000000E+00 -0.00000000000E+00 -0.91685572103E+03  0.91685572103E+03  0.00000000000E+00 0. -1.
    9000007    1    1    2  502    0  0.12216188591E+03 -0.91521910647E+02  0.13415557471E+02  0.42834537896E+03  0.40000000000E+03 0.  1.
   -9000007    1    1    2    0  501 -0.12216188591E+03  0.91521910647E+02 -0.64479320631E+03  0.77398841425E+03  0.40000000000E+03 0. -1.
<mgrwt>
<rscale>  2 0.42813524E+03</rscale>
<asrwt>0</asrwt>
<pdfrwt beam="1">  1        2 0.43919704E-01 0.42813524E+03</pdfrwt>
<pdfrwt beam="2">  1       -2 0.14105473E+00 0.42813524E+03</pdfrwt>
<totfact> 0.42398274E+01</totfact>
</mgrwt>
</event>
<event>
 4    1  0.2488810E-002  0.5212771E+03  0.7818608E-02  0.1008370E+00
          2   -1    0    0  502    0  0.00000000000E+00  0.00000000000E+00  0.16970222717E+04  0.16970222717E+04  0.00000000000E+00 0.  1.
         -2   -1    0    0    0  501 -0.00000000000E+00 -0.00000000000E+00 -0.23756860894E+03  0.23756860894E+03  0.00000000000E+00 0. -1.
    9000007    1    1    2  502    0 -0.20991965819E+03 -0.26012210505E+03  0.12820168369E+04  0.13839425359E+04  0.40000000000E+03 0.  1.
   -9000007    1    1    2    0  501  0.20991965819E+03  0.26012210505E+03  0.17743682583E+03  0.55064834476E+03  0.40000000000E+03 0. -1.
<mgrwt>
<rscale>  2 0.52127706E+03</rscale>
<asrwt>0</asrwt>
<pdfrwt beam="1">  1        2 0.26108034E+00 0.52127706E+03</pdfrwt>
<pdfrwt beam="2">  1       -2 0.36549018E-01 0.52127706E+03</pdfrwt>
<totfact> 0.73016402E+01</totfact>
</mgrwt>
</event>
<event>
 4    1  0.2488810E-002  0.4670864E+03  0.7818608E-02  0.1022746E+00
         -1   -1    0    0    0  501 -0.00000000000E+00  0.00000000000E+00  0.18927899694E+03  0.18927899694E+03  0.00000000000E+00 0. -1.
          1   -1    0    0  502    0  0.00000000000E+00 -0.00000000000E+00 -0.11622124850E+04  0.11622124850E+04  0.00000000000E+00 0.  1.
    9000007    1    1    2  502    0  0.22069595996E+03 -0.97277758693E+02 -0.54780869892E+03  0.71990557693E+03  0.40000000000E+03 0.  1.
   -9000007    1    1    2    0  501 -0.22069595996E+03  0.97277758693E+02 -0.42512478913E+03  0.63158590502E+03  0.40000000000E+03 0. -1.
<mgrwt>
<rscale>  2 0.46708636E+03</rscale>
<asrwt>0</asrwt>
<pdfrwt beam="1">  1        1 0.17880193E+00 0.46708636E+03</pdfrwt>
<pdfrwt beam="2">  1       -1 0.29119845E-01 0.46708636E+03</pdfrwt>
<totfact> 0.12822467E+02</totfact>
</mgrwt>
</event>
<event>
 4    1  0.2488810E-002  0.5606501E+03  0.7818608E-02  0.9990585E-01
          1   -1    0    0  502    0  0.00000000000E+00  0.00000000000E+00  0.34180767592E+04  0.34180767592E+04  0.00000000000E+00 0. -1.
         -1   -1    0    0    0  501 -0.00000000000E+00 -0.00000000000E+00 -0.10299246875E+03  0.10299246875E+03  0.00000000000E+00 0.  1.
    9000007    1    1    2  502    0 -0.37211108489E+03 -0.12594401025E+03  0.10813525190E+04  0.12180524716E+04  0.40000000000E+03 0.  1.
   -9000007    1    1    2    0  501  0.37211108489E+03  0.12594401025E+03  0.22337317715E+04  0.23030167564E+04  0.40000000000E+03 0. -1.
<mgrwt>
<rscale>  2 0.56065012E+03</rscale>
<asrwt>0</asrwt>
<pdfrwt beam="1">  1        1 0.52585788E+00 0.56065012E+03</pdfrwt>
<pdfrwt beam="2">  1       -1 0.15844998E-01 0.56065012E+03</pdfrwt>
<totfact> 0.97091293E+00</totfact>
</mgrwt>
</event>
<event>
 4    1  0.2488810E-002  0.4098090E+03  0.7818608E-02  0.1040435E+00
         -2   -1    0    0    0  501 -0.00000000000E+00  0.00000000000E+00  0.29034075666E+03  0.29034075666E+03  0.00000000000E+00 0. -1.
          2   -1    0    0  502    0  0.00000000000E+00 -0.00000000000E+00 -0.65953946311E+03  0.65953946311E+03  0.00000000000E+00 0.  1.
    9000007    1    1    2  502    0  0.88999798055E+02  0.47342659011E+01 -0.35114746349E+03  0.53967390010E+03  0.40000000000E+03 0.  1.
   -9000007    1    1    2    0  501 -0.88999798055E+02 -0.47342659011E+01 -0.18051242965E+02  0.41020631967E+03  0.40000000000E+03 0. -1.
<mgrwt>
<rscale>  2 0.40980895E+03</rscale>
<asrwt>0</asrwt>
<pdfrwt beam="1">  1        2 0.10146761E+00 0.40980895E+03</pdfrwt>
<pdfrwt beam="2">  1       -2 0.44667809E-01 0.40980895E+03</pdfrwt>
<totfact> 0.21605080E+02</totfact>
</mgrwt>
</event>
<event>
 4    1  0.2488810E-002  0.5631176E+03  0.7818608E-02  0.9985025E-01
         -1   -1    0    0    0  501 -0.00000000000E+00  0.00000000000E+00  0.30736103410E+03  0.30736103410E+03  0.00000000000E+00 0. -1.
          1   -1    0    0  502    0  0.00000000000E+00 -0.00000000000E+00 -0.10774880093E+04  0.10774880093E+04  0.00000000000E+00 0.  1.
    9000007    1    1    2  502    0  0.37365836126E+03  0.13221516457E+03 -0.24230966816E+03  0.61303784219E+03  0.40000000000E+03 0. -1.
   -9000007    1    1    2    0  501 -0.37365836126E+03 -0.13221516457E+03 -0.52781730704E+03  0.77181120119E+03  0.40000000000E+03 0. -1.
<mgrwt>
<rscale>  2 0.56311759E+03</rscale>
<asrwt>0</asrwt>
<pdfrwt beam="1">  1        1 0.16576739E+00 0.56311759E+03</pdfrwt>
<pdfrwt beam="2">  1       -1 0.47286312E-01 0.56311759E+03</pdfrwt>
<totfact> 0.61457738E+01</totfact>
</mgrwt>
</event>
<event>
 4    1  0.2488810E-002  0.4003555E+03  0.7818608E-02  0.1043657E+00
          1   -1    0    0  502    0  0.00000000000E+00  0.00000000000E+00  0.43743528146E+03  0.43743528146E+03  0.00000000000E+00 0. -1.
         -1   -1    0    0    0  501 -0.00000000000E+00 -0.00000000000E+00 -0.36774916774E+03  0.36774916774E+03  0.00000000000E+00 0.  1.
    9000007    1    1    2  502    0  0.45346411202E+01 -0.16245810883E+02  0.10628114739E+02  0.40049649957E+03  0.40000000000E+03 0.  1.
   -9000007    1    1    2    0  501 -0.45346411202E+01  0.16245810883E+02  0.59057998980E+02  0.40468794964E+03  0.40000000000E+03 0. -1.
<mgrwt>
<rscale>  2 0.40035545E+03</rscale>
<asrwt>0</asrwt>
<pdfrwt beam="1">  1        1 0.67297735E-01 0.40035545E+03</pdfrwt>
<pdfrwt beam="2">  1       -1 0.56576795E-01 0.40035545E+03</pdfrwt>
<totfact> 0.17475674E+02</totfact>
</mgrwt>
</event>
<event>
 4    1  0.2488810E-002  0.4186188E+03  0.7818608E-02  0.1037517E+00
         -2   -1    0    0    0  501 -0.00000000000E+00  0.00000000000E+00  0.27399526869E+03  0.27399526869E+03  0.00000000000E+00 0.  1.
          2   -1    0    0  502    0  0.00000000000E+00 -0.00000000000E+00 -0.10643007942E+04  0.10643007942E+04  0.00000000000E+00 0. -1.
    9000007    1    1    2  502    0  0.72836577270E+02  0.99681964330E+02 -0.81786245750E+03  0.91877127752E+03  0.40000000000E+03 0. -1.
   -9000007    1    1    2    0  501 -0.72836577270E+02 -0.99681964330E+02  0.27556932027E+02  0.41952478533E+03  0.40000000000E+03 0.  1.
<mgrwt>
<rscale>  2 0.41861875E+03</rscale>
<asrwt>0</asrwt>
<pdfrwt beam="1">  1        2 0.16373858E+00 0.41861875E+03</pdfrwt>
<pdfrwt beam="2">  1       -2 0.42153119E-01 0.41861875E+03</pdfrwt>
<totfact> 0.12778421E+02</totfact>
</mgrwt>
</event>
<event>
 4    1  0.2488810E-002  0.4023762E+03  0.7818608E-02  0.1042960E+00
         -2   -1    0    0    0  501 -0.00000000000E+00  0.00000000000E+00  0.50193232031E+03  0.50193232031E+03  0.00000000000E+00 0. -1.
          2   -1    0    0  502    0  0.00000000000E+00 -0.00000000000E+00 -0.45330246095E+03  0.45330246095E+03  0.00000000000E+00 0.  1.
    9000007    1    1    2  502    0  0.10816250379E+02 -0.42303771207E+02 -0.23218276391E+03  0.46455940006E+03  0.40000000000E+03 0.  1.
   -9000007    1    1    2    0  501 -0.10816250379E+02  0.42303771207E+02  0.28081262326E+03  0.49067538120E+03  0.40000000000E+03 0. -1.
<mgrwt>
<rscale>  2 0.40237619E+03</rscale>
<asrwt>0</asrwt>
<pdfrwt beam="1">  1        2 0.69738840E-01 0.40237619E+03</pdfrwt>
<pdfrwt beam="2">  1       -2 0.77220357E-01 0.40237619E+03</pdfrwt>
<totfact> 0.10672049E+02</totfact>
</mgrwt>
</event>
<event>
 4    1  0.2488810E-002  0.4111057E+03  0.7818608E-02  0.1040001E+00
         -2   -1    0    0    0  501 -0.00000000000E+00  0.00000000000E+00  0.25800557308E+03  0.25800557308E+03  0.00000000000E+00 0.  1.
          2   -1    0    0  502    0  0.00000000000E+00 -0.00000000000E+00 -0.69750255087E+03  0.69750255087E+03  0.00000000000E+00 0. -1.
    9000007    1    1    2  502    0  0.25571457938E+02 -0.91400128622E+02 -0.33760591929E+03  0.53196394588E+03  0.40000000000E+03 0. -1.
   -9000007    1    1    2    0  501 -0.25571457938E+02  0.91400128622E+02 -0.10189105850E+03  0.42354417807E+03  0.40000000000E+03 0.  1.
<mgrwt>
<rscale>  2 0.41110568E+03</rscale>
<asrwt>0</asrwt>
<pdfrwt beam="1">  1        2 0.10730808E+00 0.41110568E+03</pdfrwt>
<pdfrwt beam="2">  1       -2 0.39693166E-01 0.41110568E+03</pdfrwt>
<totfact> 0.25393540E+02</totfact>
</mgrwt>
</event>
<event>
 4    1  0.2488810E-002  0.6698863E+03  0.7818608E-02  0.9770163E-01
         -2   -1    0    0    0  501 -0.00000000000E+00  0.00000000000E+00  0.39712892427E+03  0.39712892427E+03  0.00000000000E+00 0.  1.
          2   -1    0    0  502    0  0.00000000000E+00 -0.00000000000E+00 -0.12272483295E+04  0.12272483295E+04  0.00000000000E+00 0. -1.
    9000007    1    1    2  502    0 -0.88679707982E+02  0.52998449248E+03 -0.64371270470E+03  0.92903912677E+03  0.40000000000E+03 0. -1.
   -9000007    1    1    2    0  501  0.88679707982E+02 -0.52998449248E+03 -0.18640670055E+03  0.69533812702E+03  0.40000000000E+03 0.  1.
<mgrwt>
<rscale>  2 0.66988630E+03</rscale>
<asrwt>0</asrwt>
<pdfrwt beam="1">  1        2 0.18880744E+00 0.66988630E+03</pdfrwt>
<pdfrwt beam="2">  1       -2 0.61096758E-01 0.66988630E+03</pdfrwt>
<totfact> 0.46683764E+01</totfact>
</mgrwt>
</event>
<event>
 4    1  0.2488810E-002  0.4197256E+03  0.7818608E-02  0.1037156E+00
          2   -1    0    0  502    0  0.00000000000E+00  0.00000000000E+00  0.74823999871E+03  0.74823999871E+03  0.00000000000E+00 0.  1.
         -2   -1    0    0    0  501 -0.00000000000E+00 -0.00000000000E+00 -0.25639881029E+03  0.25639881029E+03  0.00000000000E+00 0. -1.
    9000007    1    1    2  502    0 -0.10326624504E+03  0.74200007393E+02  0.10232179859E+03  0.43201771831E+03  0.40000000000E+03 0. -1.
   -9000007    1    1    2    0  501  0.10326624504E+03 -0.74200007393E+02  0.38951938983E+03  0.57262109070E+03  0.40000000000E+03 0.  1.
<mgrwt>
<rscale>  2 0.41972558E+03</rscale>
<asrwt>0</asrwt>
<pdfrwt beam="1">  1        2 0.11511385E+00 0.41972558E+03</pdfrwt>
<pdfrwt beam="2">  1       -2 0.39445971E-01 0.41972558E+03</pdfrwt>
<totfact> 0.23523626E+02</totfact>
</mgrwt>
</event>
<event>
 4    1  0.2488810E-002  0.1138487E+04  0.7818608E-02  0.9168471E-01
         -1   -1    0    0    0  501 -0.00000000000E+00  0.00000000000E+00  0.65588824590E+03  0.65588824590E+03  0.00000000000E+00 0.  1.
          1   -1    0    0  502    0  0.00000000000E+00 -0.00000000000E+00 -0.19806816085E+04  0.19806816085E+04  0.00000000000E+00 0. -1.
    9000007    1    1    2  502    0 -0.45101721020E+03  0.96578236275E+03 -0.59953739155E+03  0.12867001127E+04  0.40000000000E+03 0. -1.
   -9000007    1    1    2    0  501  0.45101721020E+03 -0.96578236275E+03 -0.72525597104E+03  0.13498697417E+04  0.40000000000E+03 0.  1.
<mgrwt>
<rscale>  2 0.11384868E+04</rscale>
<asrwt>0</asrwt>
<pdfrwt beam="1">  1        1 0.30472025E+00 0.11384868E+04</pdfrwt>
<pdfrwt beam="2">  1       -1 0.10090588E+00 0.11384868E+04</pdfrwt>
<totfact> 0.28475664E+00</totfact>
</mgrwt>
</event>
<event>
 4    1  0.2488810E-002  0.5098139E+03  0.7818608E-02  0.1011249E+00
         -2   -1    0    0    0  501 -0.00000000000E+00  0.00000000000E+00  0.37276793704E+03  0.37276793704E+03  0.00000000000E+00 0.  1.
          2   -1    0    0  502    0  0.00000000000E+00 -0.00000000000E+00 -0.86407509267E+03  0.86407509267E+03  0.00000000000E+00 0. -1.
    9000007    1    1    2  502    0 -0.31199430422E+03  0.50692443427E+02 -0.51738976420E+03  0.72636240113E+03  0.40000000000E+03 0. -1.
   -9000007    1    1    2    0  501  0.31199430422E+03 -0.50692443427E+02  0.26082608569E+02  0.51048062858E+03  0.40000000000E+03 0.  1.
<mgrwt>
<rscale>  2 0.50981386E+03</rscale>
<asrwt>0</asrwt>
<pdfrwt beam="1">  1        2 0.13293463E+00 0.50981386E+03</pdfrwt>
<pdfrwt beam="2">  1       -2 0.57348914E-01 0.50981386E+03</pdfrwt>
<totfact> 0.91382906E+01</totfact>
</mgrwt>
</event>
<event>
 4    1  0.2488810E-002  0.5177284E+03  0.7818608E-02  0.1009252E+00
          2   -1    0    0  502    0  0.00000000000E+00  0.00000000000E+00  0.71629844148E+03  0.71629844148E+03  0.00000000000E+00 0.  1.
         -2   -1    0    0    0  501 -0.00000000000E+00 -0.00000000000E+00 -0.37982824971E+03  0.37982824971E+03  0.00000000000E+00 0. -1.
    9000007    1    1    2  502    0 -0.31680010167E+03 -0.87637734042E+02  0.10155149729E+03  0.52759395698E+03  0.40000000000E+03 0.  1.
   -9000007    1    1    2    0  501  0.31680010167E+03  0.87637734042E+02  0.23491869449E+03  0.56853273421E+03  0.40000000000E+03 0. -1.
<mgrwt>
<rscale>  2 0.51772838E+03</rscale>
<asrwt>0</asrwt>
<pdfrwt beam="1">  1        2 0.11019976E+00 0.51772838E+03</pdfrwt>
<pdfrwt beam="2">  1       -2 0.58435116E-01 0.51772838E+03</pdfrwt>
<totfact> 0.11209102E+02</totfact>
</mgrwt>
</event>
<event>
 4    1  0.2488810E-002  0.4089156E+03  0.7818608E-02  0.1040736E+00
          2   -1    0    0  502    0  0.00000000000E+00  0.00000000000E+00  0.63197366162E+03  0.63197366162E+03  0.00000000000E+00 0.  1.
         -2   -1    0    0    0  501 -0.00000000000E+00 -0.00000000000E+00 -0.27037164226E+03  0.27037164226E+03  0.00000000000E+00 0. -1.
    9000007    1    1    2  502    0  0.35192449462E+02 -0.77288050287E+02  0.24679497912E+03  0.47761879458E+03  0.40000000000E+03 0.  1.
   -9000007    1    1    2    0  501 -0.35192449462E+02  0.77288050287E+02  0.11480704025E+03  0.42472650931E+03  0.40000000000E+03 0. -1.
<mgrwt>
<rscale>  2 0.40891558E+03</rscale>
<asrwt>0</asrwt>
<pdfrwt beam="1">  1        2 0.97226717E-01 0.40891558E+03</pdfrwt>
<pdfrwt beam="2">  1       -2 0.41595637E-01 0.40891558E+03</pdfrwt>
<totfact> 0.26157674E+02</totfact>
</mgrwt>
</event>
<event>
 4    1  0.2488810E-002  0.4348955E+03  0.7818608E-02  0.1032325E+00
         -2   -1    0    0    0  501 -0.00000000000E+00  0.00000000000E+00  0.30700772996E+03  0.30700772996E+03  0.00000000000E+00 0. -1.
          2   -1    0    0  502    0  0.00000000000E+00 -0.00000000000E+00 -0.14148705818E+04  0.14148705818E+04  0.00000000000E+00 0.  1.
    9000007    1    1    2  502    0 -0.16413538413E+03 -0.46837078667E+02  0.92968248387E+02  0.44472152126E+03  0.40000000000E+03 0. -1.
   -9000007    1    1    2    0  501  0.16413538413E+03  0.46837078667E+02 -0.12008311002E+04  0.12771567905E+04  0.40000000000E+03 0.  1.
<mgrwt>
<rscale>  2 0.43489555E+03</rscale>
<asrwt>0</asrwt>
<pdfrwt beam="1">  1        2 0.21767239E+00 0.43489555E+03</pdfrwt>
<pdfrwt beam="2">  1       -2 0.47231959E-01 0.43489555E+03</pdfrwt>
<totfact> 0.63981479E+01</totfact>
</mgrwt>
</event>
<event>
 4    1  0.2488810E-002  0.4092460E+03  0.7818608E-02  0.1040624E+00
          2   -1    0    0  502    0  0.00000000000E+00  0.00000000000E+00  0.36812798658E+03  0.36812798658E+03  0.00000000000E+00 0. -1.
         -2   -1    0    0    0  501 -0.00000000000E+00 -0.00000000000E+00 -0.45671871600E+03  0.45671871600E+03  0.00000000000E+00 0.  1.
    9000007    1    1    2  502    0 -0.78850526731E+02  0.35564974170E+02 -0.69912513857E+02  0.41517470124E+03  0.40000000000E+03 0. -1.
   -9000007    1    1    2    0  501  0.78850526731E+02 -0.35564974170E+02 -0.18678215560E+02  0.40967200135E+03  0.40000000000E+03 0. -1.
<mgrwt>
<rscale>  2 0.40924598E+03</rscale>
<asrwt>0</asrwt>
<pdfrwt beam="1">  1        2 0.56635075E-01 0.40924598E+03</pdfrwt>
<pdfrwt beam="2">  1       -2 0.70264418E-01 0.40924598E+03</pdfrwt>
<totfact> 0.16523048E+02</totfact>
</mgrwt>
</event>
<event>
 4    1  0.2488810E-002  0.4304949E+03  0.7818608E-02  0.1033704E+00
         -2   -1    0    0    0  501 -0.00000000000E+00  0.00000000000E+00  0.49064796126E+02  0.49064796126E+02  0.00000000000E+00 0.  1.
          2   -1    0    0  502    0  0.00000000000E+00 -0.00000000000E+00 -0.45889703542E+04  0.45889703542E+04  0.00000000000E+00 0. -1.
    9000007    1    1    2  502    0 -0.13111136413E+03  0.90198052669E+02 -0.12945766810E+04  0.13642780734E+04  0.40000000000E+03 0.  1.
   -9000007    1    1    2    0  501  0.13111136413E+03 -0.90198052669E+02 -0.32453288771E+04  0.32737570770E+04  0.40000000000E+03 0. -1.
<mgrwt>
<rscale>  2 0.43049492E+03</rscale>
<asrwt>0</asrwt>
<pdfrwt beam="1">  1        2 0.70599551E+00 0.43049492E+03</pdfrwt>
<pdfrwt beam="2">  1       -2 0.75484294E-02 0.43049492E+03</pdfrwt>
<totfact> 0.13461438E+01</totfact>
</mgrwt>
</event>
<event>
 4    1  0.2488810E-002  0.4260427E+03  0.7818608E-02  0.1035117E+00
          2   -1    0    0  502    0  0.00000000000E+00  0.00000000000E+00  0.64567500914E+03  0.64567500914E+03  0.00000000000E+00 0.  1.
         -2   -1    0    0    0  501 -0.00000000000E+00 -0.00000000000E+00 -0.28212629753E+03  0.28212629753E+03  0.00000000000E+00 0. -1.
    9000007    1    1    2  502    0 -0.86341153367E+02  0.11856484901E+03  0.15407436532E+03  0.45304671750E+03  0.40000000000E+03 0.  1.
   -9000007    1    1    2    0  501  0.86341153367E+02 -0.11856484901E+03  0.20947434630E+03  0.47475458917E+03  0.40000000000E+03 0. -1.
<mgrwt>
<rscale>  2 0.42604274E+03</rscale>
<asrwt>0</asrwt>
<pdfrwt beam="1">  1        2 0.99334616E-01 0.42604274E+03</pdfrwt>
<pdfrwt beam="2">  1       -2 0.43404046E-01 0.42604274E+03</pdfrwt>
<totfact> 0.23428466E+02</totfact>
</mgrwt>
</event>
<event>
 4    1  0.2488810E-002  0.4679858E+03  0.7818608E-02  0.1022490E+00
          2   -1    0    0  502    0  0.00000000000E+00  0.00000000000E+00  0.43827326976E+03  0.43827326976E+03  0.00000000000E+00 0.  1.
         -2   -1    0    0    0  501 -0.00000000000E+00 -0.00000000000E+00 -0.82402897364E+03  0.82402897364E+03  0.00000000000E+00 0. -1.
    9000007    1    1    2  502    0  0.11944994393E+03  0.21152405736E+03  0.20307775084E+03  0.51014830082E+03  0.40000000000E+03 0.  1.
   -9000007    1    1    2    0  501 -0.11944994393E+03 -0.21152405736E+03 -0.58883345472E+03  0.75215394258E+03  0.40000000000E+03 0. -1.
<mgrwt>
<rscale>  2 0.46798581E+03</rscale>
<asrwt>0</asrwt>
<pdfrwt beam="1">  1        2 0.67426658E-01 0.46798581E+03</pdfrwt>
<pdfrwt beam="2">  1       -2 0.12677369E+00 0.46798581E+03</pdfrwt>
<totfact> 0.34435151E+01</totfact>
</mgrwt>
</event>
<event>
 4    1  0.2488810E-002  0.4613994E+03  0.7818608E-02  0.1024376E+00
         -2   -1    0    0    0  501 -0.00000000000E+00  0.00000000000E+00  0.27845626116E+03  0.27845626116E+03  0.00000000000E+00 0.  1.
          2   -1    0    0  502    0  0.00000000000E+00 -0.00000000000E+00 -0.76498679035E+03  0.76498679035E+03  0.00000000000E+00 0. -1.
    9000007    1    1    2  502    0  0.16268915562E+03  0.16254746728E+03 -0.23058050091E+03  0.51580694826E+03  0.40000000000E+03 0.  1.
   -9000007    1    1    2    0  501 -0.16268915562E+03 -0.16254746728E+03 -0.25595002828E+03  0.52763610325E+03  0.40000000000E+03 0. -1.
<mgrwt>
<rscale>  2 0.46139944E+03</rscale>
<asrwt>0</asrwt>
<pdfrwt beam="1">  1        2 0.11769027E+00 0.46139944E+03</pdfrwt>
<pdfrwt beam="2">  1       -2 0.42839426E-01 0.46139944E+03</pdfrwt>
<totfact> 0.19415825E+02</totfact>
</mgrwt>
</event>
<event>
 4    1  0.2488810E-002  0.4202631E+03  0.7818608E-02  0.1036981E+00
          2   -1    0    0  502    0  0.00000000000E+00  0.00000000000E+00  0.27917164591E+04  0.27917164591E+04  0.00000000000E+00 0. -1.
         -2   -1    0    0    0  501 -0.00000000000E+00 -0.00000000000E+00 -0.67773733868E+02  0.67773733868E+02  0.00000000000E+00 0.  1.
    9000007    1    1    2  502    0 -0.78345282234E+02 -0.10238708479E+03  0.17306948027E+04  0.17809900613E+04  0.40000000000E+03 0. -1.
   -9000007    1    1    2    0  501  0.78345282234E+02  0.10238708479E+03  0.99324792253E+03  0.10785001317E+04  0.40000000000E+03 0. -1.
<mgrwt>
<rscale>  2 0.42026313E+03</rscale>
<asrwt>0</asrwt>
<pdfrwt beam="1">  1        2 0.42949475E+00 0.42026313E+03</pdfrwt>
<pdfrwt beam="2">  1       -2 0.10426730E-01 0.42026313E+03</pdfrwt>
<totfact> 0.16505085E+02</totfact>
</mgrwt>
</event>
<event>
 4    1  0.2488810E-002  0.4198093E+03  0.7818608E-02  0.1037128E+00
          2   -1    0    0  502    0  0.00000000000E+00  0.00000000000E+00  0.11980966768E+04  0.11980966768E+04  0.00000000000E+00 0.  1.
         -2   -1    0    0    0  501 -0.00000000000E+00 -0.00000000000E+00 -0.14784949454E+03  0.14784949454E+03  0.00000000000E+00 0. -1.
    9000007    1    1    2  502    0 -0.22724017485E+01  0.12741543694E+03  0.57304301773E+03  0.71036480596E+03  0.40000000000E+03 0.  1.
   -9000007    1    1    2    0  501  0.22724017485E+01 -0.12741543694E+03  0.47720416453E+03  0.63558136539E+03  0.40000000000E+03 0. -1.
<mgrwt>
<rscale>  2 0.41980931E+03</rscale>
<asrwt>0</asrwt>
<pdfrwt beam="1">  1        2 0.18432256E+00 0.41980931E+03</pdfrwt>
<pdfrwt beam="2">  1       -2 0.22746077E-01 0.41980931E+03</pdfrwt>
<totfact> 0.33330893E+02</totfact>
</mgrwt>
</event>
<event>
 4    1  0.2488810E-002  0.4670685E+03  0.7818608E-02  0.1022751E+00
          1   -1    0    0  502    0  0.00000000000E+00  0.00000000000E+00  0.40561415862E+03  0.40561415862E+03  0.00000000000E+00 0.  1.
         -1   -1    0    0    0  501 -0.00000000000E+00 -0.00000000000E+00 -0.85300848534E+03  0.85300848534E+03  0.00000000000E+00 0. -1.
    9000007    1    1    2  502    0  0.17765841207E+03 -0.16306593146E+03  0.15883197730E+03  0.49333620017E+03  0.40000000000E+03 0.  1.
   -9000007    1    1    2    0  501 -0.17765841207E+03  0.16306593146E+03 -0.60622630402E+03  0.76528644380E+03  0.40000000000E+03 0. -1.
<mgrwt>
<rscale>  2 0.46706853E+03</rscale>
<asrwt>0</asrwt>
<pdfrwt beam="1">  1        1 0.62402178E-01 0.46706853E+03</pdfrwt>
<pdfrwt beam="2">  1       -1 0.13123208E+00 0.46706853E+03</pdfrwt>
<totfact> 0.30861677E+01</totfact>
</mgrwt>
</event>
<event>
 4    1  0.2488810E-002  0.6384684E+03  0.7818608E-02  0.9828661E-01
         -1   -1    0    0    0  501 -0.00000000000E+00  0.00000000000E+00  0.17540872387E+03  0.17540872387E+03  0.00000000000E+00 0.  1.
          1   -1    0    0  502    0  0.00000000000E+00 -0.00000000000E+00 -0.23888821698E+04  0.23888821698E+04  0.00000000000E+00 0. -1.
    9000007    1    1    2  502    0 -0.19973400266E+03  0.45579405789E+03 -0.13181122983E+04  0.14646029926E+04  0.40000000000E+03 0.  1.
   -9000007    1    1    2    0  501  0.19973400266E+03 -0.45579405789E+03 -0.89536114760E+03  0.10996879010E+04  0.40000000000E+03 0. -1.
<mgrwt>
<rscale>  2 0.63846840E+03</rscale>
<asrwt>0</asrwt>
<pdfrwt beam="1">  1        1 0.36752033E+00 0.63846840E+03</pdfrwt>
<pdfrwt beam="2">  1       -1 0.26985958E-01 0.63846840E+03</pdfrwt>
<totfact> 0.21123017E+01</totfact>
</mgrwt>
</event>
<event>
 4    1  0.2488810E-002  0.4239633E+03  0.7818608E-02  0.1035784E+00
          3   -1    0    0  502    0  0.00000000000E+00  0.00000000000E+00  0.45024301091E+03  0.45024301091E+03  0.00000000000E+00 0. -1.
         -3   -1    0    0    0  501 -0.00000000000E+00 -0.00000000000E+00 -0.49634589004E+03  0.49634589004E+03  0.00000000000E+00 0.  1.
    9000007    1    1    2  502    0 -0.12798273600E+03 -0.58011302812E+02 -0.23242039127E+03  0.48349160308E+03  0.40000000000E+03 0.  1.
   -9000007    1    1    2    0  501  0.12798273600E+03  0.58011302812E+02  0.18631751213E+03  0.46309729787E+03  0.40000000000E+03 0. -1.
<mgrwt>
<rscale>  2 0.42396331E+03</rscale>
<asrwt>0</asrwt>
<pdfrwt beam="1">  1        3 0.69268155E-01 0.42396331E+03</pdfrwt>
<pdfrwt beam="2">  1       -3 0.76360906E-01 0.42396331E+03</pdfrwt>
<totfact> 0.83828138E+00</totfact>
</mgrwt>
</event>
<event>
 4    1  0.2488810E-002  0.4004319E+03  0.7818608E-02  0.1043630E+00
          1   -1    0    0  502    0  0.00000000000E+00  0.00000000000E+00  0.12754237252E+04  0.12754237252E+04  0.00000000000E+00 0.  1.
         -1   -1    0    0    0  501 -0.00000000000E+00 -0.00000000000E+00 -0.12775895102E+03  0.12775895102E+03  0.00000000000E+00 0. -1.
    9000007    1    1    2  502    0 -0.10063862942E+02  0.15633619046E+02  0.66247454457E+03  0.77409186379E+03  0.40000000000E+03 0.  1.
   -9000007    1    1    2    0  501  0.10063862942E+02 -0.15633619046E+02  0.48519022966E+03  0.62909081248E+03  0.40000000000E+03 0. -1.
<mgrwt>
<rscale>  2 0.40043188E+03</rscale>
<asrwt>0</asrwt>
<pdfrwt beam="1">  1        1 0.19621903E+00 0.40043188E+03</pdfrwt>
<pdfrwt beam="2">  1       -1 0.19655224E-01 0.40043188E+03</pdfrwt>
<totfact> 0.20804432E+02</totfact>
</mgrwt>
</event>
<event>
 4    1  0.2488810E-002  0.4879836E+03  0.7818608E-02  0.1016964E+00
         -1   -1    0    0    0  501 -0.00000000000E+00  0.00000000000E+00  0.40277395865E+03  0.40277395865E+03  0.00000000000E+00 0. -1.
          1   -1    0    0  502    0  0.00000000000E+00 -0.00000000000E+00 -0.72589672426E+03  0.72589672426E+03  0.00000000000E+00 0.  1.
    9000007    1    1    2  502    0 -0.11449587628E+03  0.25498766949E+03  0.81516873871E+02  0.49474540726E+03  0.40000000000E+03 0. -1.
   -9000007    1    1    2    0  501  0.11449587628E+03 -0.25498766949E+03 -0.40463963948E+03  0.63392527566E+03  0.40000000000E+03 0.  1.
<mgrwt>
<rscale>  2 0.48798362E+03</rscale>
<asrwt>0</asrwt>
<pdfrwt beam="1">  1        1 0.11167642E+00 0.48798362E+03</pdfrwt>
<pdfrwt beam="2">  1       -1 0.61965225E-01 0.48798362E+03</pdfrwt>
<totfact> 0.71340595E+01</totfact>
</mgrwt>
</event>
<event>
 4    1  0.2488810E-002  0.4473047E+03  0.7818608E-02  0.1028529E+00
         -2   -1    0    0    0  501 -0.00000000000E+00  0.00000000000E+00  0.86588756172E+02  0.86588756172E+02  0.00000000000E+00 0.  1.
          2   -1    0    0  502    0  0.00000000000E+00 -0.00000000000E+00 -0.23250678032E+04  0.23250678032E+04  0.00000000000E+00 0. -1.
    9000007    1    1    2  502    0  0.19924016966E+03  0.19618644702E+02 -0.10244836536E+04  0.11178766895E+04  0.40000000000E+03 0.  1.
   -9000007    1    1    2    0  501 -0.19924016966E+03 -0.19618644702E+02 -0.12139953934E+04  0.12937798698E+04  0.40000000000E+03 0. -1.
<mgrwt>
<rscale>  2 0.44730475E+03</rscale>
<asrwt>0</asrwt>
<pdfrwt beam="1">  1        2 0.35770271E+00 0.44730475E+03</pdfrwt>
<pdfrwt beam="2">  1       -2 0.13321348E-01 0.44730475E+03</pdfrwt>
<totfact> 0.20126650E+02</totfact>
</mgrwt>
</event>
<event>
 4    1  0.2488810E-002  0.4259507E+03  0.7818608E-02  0.1035147E+00
          1   -1    0    0  502    0  0.00000000000E+00  0.00000000000E+00  0.46723370911E+03  0.46723370911E+03  0.00000000000E+00 0. -1.
         -1   -1    0    0    0  501 -0.00000000000E+00 -0.00000000000E+00 -0.74345316312E+03  0.74345316312E+03  0.00000000000E+00 0.  1.
    9000007    1    1    2  502    0  0.10152844726E+03 -0.10547988403E+03  0.28027273905E+03  0.50988904655E+03  0.40000000000E+03 0. -1.
   -9000007    1    1    2    0  501 -0.10152844726E+03  0.10547988403E+03 -0.55649219306E+03  0.70079782568E+03  0.40000000000E+03 0.  1.
<mgrwt>
<rscale>  2 0.42595074E+03</rscale>
<asrwt>0</asrwt>
<pdfrwt beam="1">  1        1 0.71882110E-01 0.42595074E+03</pdfrwt>
<pdfrwt beam="2">  1       -1 0.11437741E+00 0.42595074E+03</pdfrwt>
<totfact> 0.35994490E+01</totfact>
</mgrwt>
</event>
<event>
 4    1  0.2488810E-002  0.4305051E+03  0.7818608E-02  0.1033701E+00
          1   -1    0    0  502    0  0.00000000000E+00  0.00000000000E+00  0.23549023596E+04  0.23549023596E+04  0.00000000000E+00 0. -1.
         -1   -1    0    0    0  501 -0.00000000000E+00 -0.00000000000E+00 -0.78872095031E+02  0.78872095031E+02  0.00000000000E+00 0.  1.
    9000007    1    1    2  502    0  0.11224538940E+03 -0.11285217554E+03  0.11945886849E+04  0.12697939861E+04  0.40000000000E+03 0. -1.
   -9000007    1    1    2    0  501 -0.11224538940E+03  0.11285217554E+03  0.10814415797E+04  0.11639804686E+04  0.40000000000E+03 0.  1.
<mgrwt>
<rscale>  2 0.43050510E+03</rscale>
<asrwt>0</asrwt>
<pdfrwt beam="1">  1        1 0.36229262E+00 0.43050510E+03</pdfrwt>
<pdfrwt beam="2">  1       -1 0.12134170E-01 0.43050510E+03</pdfrwt>
<totfact> 0.85997929E+01</totfact>
</mgrwt>
</event>
<event>
 4    1  0.2488810E-002  0.4090615E+03  0.7818608E-02  0.1040686E+00
          1   -1    0    0  502    0  0.00000000000E+00  0.00000000000E+00  0.67596390369E+03  0.67596390369E+03  0.00000000000E+00 0.  1.
         -1   -1    0    0    0  501 -0.00000000000E+00 -0.00000000000E+00 -0.30089393316E+03  0.30089393316E+03  0.00000000000E+00 0. -1.
    9000007    1    1    2  502    0 -0.60869987605E+02 -0.60217551740E+02  0.39319912848E+03  0.56739480396E+03  0.40000000000E+03 0.  1.
   -9000007    1    1    2    0  501  0.60869987605E+02  0.60217551740E+02 -0.18129157953E+02  0.40946303288E+03  0.40000000000E+03 0. -1.
<mgrwt>
<rscale>  2 0.40906150E+03</rscale>
<asrwt>0</asrwt>
<pdfrwt beam="1">  1        1 0.10399445E+00 0.40906150E+03</pdfrwt>
<pdfrwt beam="2">  1       -1 0.46291374E-01 0.40906150E+03</pdfrwt>
<totfact> 0.13953357E+02</totfact>
</mgrwt>
</event>
<event>
 4    1  0.2488810E-002  0.4336179E+03  0.7818608E-02  0.1032723E+00
         -1   -1    0    0    0  501 -0.00000000000E+00  0.00000000000E+00  0.40573269612E+03  0.40573269612E+03  0.00000000000E+00 0. -1.
          1   -1    0    0  502    0  0.00000000000E+00 -0.00000000000E+00 -0.47468301893E+03  0.47468301893E+03  0.00000000000E+00 0.  1.
    9000007    1    1    2  502    0 -0.84948773824E+02 -0.14425046011E+03 -0.10228470034E+03  0.44551840516E+03  0.40000000000E+03 0. -1.
   -9000007    1    1    2    0  501  0.84948773824E+02  0.14425046011E+03  0.33334377523E+02  0.43489730988E+03  0.40000000000E+03 0. -1.
<mgrwt>
<rscale>  2 0.43361791E+03</rscale>
<asrwt>0</asrwt>
<pdfrwt beam="1">  1        1 0.73028157E-01 0.43361791E+03</pdfrwt>
<pdfrwt beam="2">  1       -1 0.62420415E-01 0.43361791E+03</pdfrwt>
<totfact> 0.12907986E+02</totfact>
</mgrwt>
</event>
<event>
 4    1  0.2488810E-002  0.7360776E+03  0.7818608E-02  0.9657449E-01
         -2   -1    0    0    0  501 -0.00000000000E+00  0.00000000000E+00  0.85272425404E+03  0.85272425404E+03  0.00000000000E+00 0.  1.
          2   -1    0    0  502    0  0.00000000000E+00 -0.00000000000E+00 -0.64992454032E+03  0.64992454032E+03  0.00000000000E+00 0. -1.
    9000007    1    1    2  502    0  0.51014776332E+03 -0.34865390897E+03 -0.10966106557E+02  0.73615931982E+03  0.40000000000E+03 0. -1.
   -9000007    1    1    2    0  501 -0.51014776332E+03  0.34865390897E+03  0.21376582027E+03  0.76648947454E+03  0.40000000000E+03 0.  1.
<mgrwt>
<rscale>  2 0.73607764E+03</rscale>
<asrwt>0</asrwt>
<pdfrwt beam="1">  1        2 0.99988390E-01 0.73607764E+03</pdfrwt>
<pdfrwt beam="2">  1       -2 0.13118835E+00 0.73607764E+03</pdfrwt>
<totfact> 0.19371983E+01</totfact>
</mgrwt>
</event>
<event>
 4    1  0.2488810E-002  0.4522488E+03  0.7818608E-02  0.1027054E+00
         -1   -1    0    0    0  501 -0.00000000000E+00  0.00000000000E+00  0.11872059014E+03  0.11872059014E+03  0.00000000000E+00 0.  1.
          1   -1    0    0  502    0  0.00000000000E+00 -0.00000000000E+00 -0.17227759835E+04  0.17227759835E+04  0.00000000000E+00 0. -1.
    9000007    1    1    2  502    0  0.20914525705E+03 -0.28057847409E+02 -0.80204677184E+03  0.92076490244E+03  0.40000000000E+03 0.  1.
   -9000007    1    1    2    0  501 -0.20914525705E+03  0.28057847409E+02 -0.80200862154E+03  0.92073167121E+03  0.40000000000E+03 0. -1.
<mgrwt>
<rscale>  2 0.45224880E+03</rscale>
<asrwt>0</asrwt>
<pdfrwt beam="1">  1        1 0.26504244E+00 0.45224880E+03</pdfrwt>
<pdfrwt beam="2">  1       -1 0.18264707E-01 0.45224880E+03</pdfrwt>
<totfact> 0.11612240E+02</totfact>
</mgrwt>
</event>
<event>
 4    1  0.2488810E-002  0.4365013E+03  0.7818608E-02  0.1031826E+00
         -1   -1    0    0    0  501 -0.00000000000E+00  0.00000000000E+00  0.21448902435E+04  0.21448902435E+04  0.00000000000E+00 0. -1.
          1   -1    0    0  502    0  0.00000000000E+00 -0.00000000000E+00 -0.98175508078E+02  0.98175508078E+02  0.00000000000E+00 0.  1.
    9000007    1    1    2  502    0  0.10956693215E+03 -0.13611942217E+03  0.67735310237E+03  0.80581675026E+03  0.40000000000E+03 0.  1.
   -9000007    1    1    2    0  501 -0.10956693215E+03  0.13611942217E+03  0.13693616331E+04  0.14372490013E+04  0.40000000000E+03 0. -1.
<mgrwt>
<rscale>  2 0.43650133E+03</rscale>
<asrwt>0</asrwt>
<pdfrwt beam="1">  1        1 0.15103926E-01 0.43650133E+03</pdfrwt>
<pdfrwt beam="2">  1       -1 0.32998308E+00 0.43650133E+03</pdfrwt>
<totfact> 0.88699666E+00</totfact>
</mgrwt>
</event>
<event>
 4    1  0.2488810E-002  0.4713532E+03  0.7818608E-02  0.1021539E+00
         -1   -1    0    0    0  501 -0.00000000000E+00  0.00000000000E+00  0.35563616005E+03  0.35563616005E+03  0.00000000000E+00 0.  1.
          1   -1    0    0  502    0  0.00000000000E+00 -0.00000000000E+00 -0.75215338187E+03  0.75215338187E+03  0.00000000000E+00 0. -1.
    9000007    1    1    2  502    0  0.20215797251E+03  0.14596579077E+03 -0.42624643701E+03  0.63549971124E+03  0.40000000000E+03 0. -1.
   -9000007    1    1    2    0  501 -0.20215797251E+03 -0.14596579077E+03  0.29729215188E+02  0.47228983067E+03  0.40000000000E+03 0.  1.
<mgrwt>
<rscale>  2 0.47135322E+03</rscale>
<asrwt>0</asrwt>
<pdfrwt beam="1">  1        1 0.11571591E+00 0.47135322E+03</pdfrwt>
<pdfrwt beam="2">  1       -1 0.54713255E-01 0.47135322E+03</pdfrwt>
<totfact> 0.86225783E+01</totfact>
</mgrwt>
</event>
<event>
 4    1  0.2488810E-002  0.4007422E+03  0.7818608E-02  0.1043523E+00
         -2   -1    0    0    0  501 -0.00000000000E+00  0.00000000000E+00  0.17642505368E+03  0.17642505368E+03  0.00000000000E+00 0. -1.
          2   -1    0    0  502    0  0.00000000000E+00 -0.00000000000E+00 -0.11653980927E+04  0.11653980927E+04  0.00000000000E+00 0.  1.
    9000007    1    1    2  502    0  0.52359682973E+01 -0.23810110790E+02 -0.80839839123E+03  0.90227617484E+03  0.40000000000E+03 0.  1.
   -9000007    1    1    2    0  501 -0.52359682973E+01  0.23810110790E+02 -0.18057464775E+03  0.43954697150E+03  0.40000000000E+03 0. -1.
<mgrwt>
<rscale>  2 0.40074223E+03</rscale>
<asrwt>0</asrwt>
<pdfrwt beam="1">  1        2 0.17929202E+00 0.40074223E+03</pdfrwt>
<pdfrwt beam="2">  1       -2 0.27142315E-01 0.40074223E+03</pdfrwt>
<totfact> 0.25457292E+02</totfact>
</mgrwt>
</event>
<event>
 4    1  0.2488810E-002  0.5117490E+03  0.7818608E-02  0.1010757E+00
         -1   -1    0    0    0  501 -0.00000000000E+00  0.00000000000E+00  0.10624932769E+03  0.10624932769E+03  0.00000000000E+00 0.  1.
          1   -1    0    0  502    0  0.00000000000E+00 -0.00000000000E+00 -0.25114675399E+04  0.25114675399E+04  0.00000000000E+00 0. -1.
    9000007    1    1    2  502    0 -0.49972982202E+02 -0.31526139786E+03 -0.10242587317E+04  0.11449860249E+04  0.40000000000E+03 0.  1.
   -9000007    1    1    2    0  501  0.49972982202E+02  0.31526139786E+03 -0.13809594805E+04  0.14727308426E+04  0.40000000000E+03 0.  1.
<mgrwt>
<rscale>  2 0.51174901E+03</rscale>
<asrwt>0</asrwt>
<pdfrwt beam="1">  1        1 0.38637960E+00 0.51174901E+03</pdfrwt>
<pdfrwt beam="2">  1       -1 0.16346051E-01 0.51174901E+03</pdfrwt>
<totfact> 0.41193652E+01</totfact>
</mgrwt>
</event>
<event>
 4    1  0.2488810E-002  0.4066480E+03  0.7818608E-02  0.1041502E+00
          2   -1    0    0  502    0  0.00000000000E+00  0.00000000000E+00  0.14269816482E+04  0.14269816482E+04  0.00000000000E+00 0. -1.
         -2   -1    0    0    0  501 -0.00000000000E+00 -0.00000000000E+00 -0.13636551180E+03  0.13636551180E+03  0.00000000000E+00 0.  1.
    9000007    1    1    2  502    0 -0.46502203382E+02  0.56569724901E+02  0.94825543799E+03  0.10317707906E+04  0.40000000000E+03 0. -1.
   -9000007    1    1    2    0  501  0.46502203382E+02 -0.56569724901E+02  0.34236069845E+03  0.53157636943E+03  0.40000000000E+03 0.  1.
<mgrwt>
<rscale>  2 0.40664799E+03</rscale>
<asrwt>0</asrwt>
<pdfrwt beam="1">  1        2 0.21953563E+00 0.40664799E+03</pdfrwt>
<pdfrwt beam="2">  1       -2 0.20979310E-01 0.40664799E+03</pdfrwt>
<totfact> 0.28572371E+02</totfact>
</mgrwt>
</event>
<event>
 4    1  0.2488810E-002  0.4173351E+03  0.7818608E-02  0.1037937E+00
          2   -1    0    0  502    0  0.00000000000E+00  0.00000000000E+00  0.29020261902E+04  0.29020261902E+04  0.00000000000E+00 0. -1.
         -2   -1    0    0    0  501 -0.00000000000E+00 -0.00000000000E+00 -0.67521842634E+02  0.67521842634E+02  0.00000000000E+00 0.  1.
    9000007    1    1    2  502    0 -0.30261661242E+02  0.11512094990E+03  0.19122827081E+04  0.19572924556E+04  0.40000000000E+03 0. -1.
   -9000007    1    1    2    0  501  0.30261661242E+02 -0.11512094990E+03  0.92222163950E+03  0.10122555772E+04  0.40000000000E+03 0.  1.
<mgrwt>
<rscale>  2 0.41733512E+03</rscale>
<asrwt>0</asrwt>
<pdfrwt beam="1">  1        2 0.44646547E+00 0.41733512E+03</pdfrwt>
<pdfrwt beam="2">  1       -2 0.10387978E-01 0.41733512E+03</pdfrwt>
<totfact> 0.14320191E+02</totfact>
</mgrwt>
</event>
<event>
 4    1  0.2488810E-002  0.4633169E+03  0.7818608E-02  0.1023824E+00
          1   -1    0    0  502    0  0.00000000000E+00  0.00000000000E+00  0.17321311829E+04  0.17321311829E+04  0.00000000000E+00 0. -1.
         -1   -1    0    0    0  501 -0.00000000000E+00 -0.00000000000E+00 -0.14107212144E+03  0.14107212144E+03  0.00000000000E+00 0.  1.
    9000007    1    1    2  502    0  0.11925094888E+02 -0.23349596374E+03  0.11220195093E+04  0.12139152986E+04  0.40000000000E+03 0.  1.
   -9000007    1    1    2    0  501 -0.11925094888E+02  0.23349596374E+03  0.46903955213E+03  0.65928800568E+03  0.40000000000E+03 0.  1.
<mgrwt>
<rscale>  2 0.46331692E+03</rscale>
<asrwt>0</asrwt>
<pdfrwt beam="1">  1        1 0.26648170E+00 0.46331692E+03</pdfrwt>
<pdfrwt beam="2">  1       -1 0.21703405E-01 0.46331692E+03</pdfrwt>
<totfact> 0.85965297E+01</totfact>
</mgrwt>
</event>
<event>
 4    1  0.2488810E-002  0.4888941E+03  0.7818608E-02  0.1016719E+00
         -2   -1    0    0    0  501 -0.00000000000E+00  0.00000000000E+00  0.86713603582E+02  0.86713603582E+02  0.00000000000E+00 0.  1.
          2   -1    0    0  502    0  0.00000000000E+00 -0.00000000000E+00 -0.27578873904E+04  0.27578873904E+04  0.00000000000E+00 0. -1.
    9000007    1    1    2  502    0 -0.75696645747E+02  0.27071654008E+03 -0.13686109807E+04  0.14533111999E+04  0.40000000000E+03 0.  1.
   -9000007    1    1    2    0  501  0.75696645747E+02 -0.27071654008E+03 -0.13025628062E+04  0.13912897941E+04  0.40000000000E+03 0. -1.
<mgrwt>
<rscale>  2 0.48889409E+03</rscale>
<asrwt>0</asrwt>
<pdfrwt beam="1">  1        2 0.42429032E+00 0.48889409E+03</pdfrwt>
<pdfrwt beam="2">  1       -2 0.13340556E-01 0.48889409E+03</pdfrwt>
<totfact> 0.11382784E+02</totfact>
</mgrwt>
</event>
<event>
 4    1  0.2488810E-002  0.4241838E+03  0.7818608E-02  0.1035713E+00
         -1   -1    0    0    0  501 -0.00000000000E+00  0.00000000000E+00  0.28354206790E+04  0.28354206790E+04  0.00000000000E+00 0. -1.
          1   -1    0    0  502    0  0.00000000000E+00 -0.00000000000E+00 -0.70505555432E+02  0.70505555432E+02  0.00000000000E+00 0.  1.
    9000007    1    1    2  502    0 -0.10131955328E+03  0.98317175174E+02  0.18418064636E+04  0.18900219491E+04  0.40000000000E+03 0. -1.
   -9000007    1    1    2    0  501  0.10131955328E+03 -0.98317175174E+02  0.92310866004E+03  0.10159042854E+04  0.40000000000E+03 0.  1.
<mgrwt>
<rscale>  2 0.42418383E+03</rscale>
<asrwt>0</asrwt>
<pdfrwt beam="1">  1        1 0.10847011E-01 0.42418383E+03</pdfrwt>
<pdfrwt beam="2">  1       -1 0.43621848E+00 0.42418383E+03</pdfrwt>
<totfact> 0.27378721E+00</totfact>
</mgrwt>
</event>
<event>
 4    1  0.2488810E-002  0.5161475E+03  0.7818608E-02  0.1009648E+00
          1   -1    0    0  502    0  0.00000000000E+00  0.00000000000E+00  0.39981109022E+03  0.39981109022E+03  0.00000000000E+00 0.  1.
         -1   -1    0    0    0  501 -0.00000000000E+00 -0.00000000000E+00 -0.66821543432E+03  0.66821543432E+03  0.00000000000E+00 0. -1.
    9000007    1    1    2  502    0 -0.16650958695E+02  0.32577757144E+03 -0.10587668873E+03  0.52689482223E+03  0.40000000000E+03 0.  1.
   -9000007    1    1    2    0  501  0.16650958695E+02 -0.32577757144E+03 -0.16252765537E+03  0.54113170230E+03  0.40000000000E+03 0. -1.
<mgrwt>
<rscale>  2 0.51614754E+03</rscale>
<asrwt>0</asrwt>
<pdfrwt beam="1">  1        1 0.61509400E-01 0.51614754E+03</pdfrwt>
<pdfrwt beam="2">  1       -1 0.10280237E+00 0.51614754E+03</pdfrwt>
<totfact> 0.55999611E+01</totfact>
</mgrwt>
</event>
<event>
 4    1  0.2488810E-002  0.6647627E+03  0.7818608E-02  0.9779466E-01
          2   -1    0    0  502    0  0.00000000000E+00  0.00000000000E+00  0.19685743497E+04  0.19685743497E+04  0.00000000000E+00 0.  1.
         -2   -1    0    0    0  501 -0.00000000000E+00 -0.00000000000E+00 -0.24782264623E+03  0.24782264623E+03  0.00000000000E+00 0. -1.
    9000007    1    1    2  502    0  0.48158860026E+03  0.22356622097E+03  0.12004736662E+04  0.13722413994E+04  0.40000000000E+03 0. -1.
   -9000007    1    1    2    0  501 -0.48158860026E+03 -0.22356622097E+03  0.52027803731E+03  0.84415559654E+03  0.40000000000E+03 0.  1.
<mgrwt>
<rscale>  2 0.66476269E+03</rscale>
<asrwt>0</asrwt>
<pdfrwt beam="1">  1        2 0.30285758E+00 0.66476269E+03</pdfrwt>
<pdfrwt beam="2">  1       -2 0.38126562E-01 0.66476269E+03</pdfrwt>
<totfact> 0.47029828E+01</totfact>
</mgrwt>
</event>
<event>
 4    1  0.2488810E-002  0.5257742E+03  0.7818608E-02  0.1007262E+00
         -2   -1    0    0    0  501 -0.00000000000E+00  0.00000000000E+00  0.35207793855E+03  0.35207793855E+03  0.00000000000E+00 0.  1.
          2   -1    0    0  502    0  0.00000000000E+00 -0.00000000000E+00 -0.82133968394E+03  0.82133968394E+03  0.00000000000E+00 0. -1.
    9000007    1    1    2  502    0  0.50878700862E+02 -0.33741647160E+03 -0.35776444745E+03  0.63595119102E+03  0.40000000000E+03 0. -1.
   -9000007    1    1    2    0  501 -0.50878700862E+02  0.33741647160E+03 -0.11149729795E+03  0.53746643147E+03  0.40000000000E+03 0. -1.
<mgrwt>
<rscale>  2 0.52577421E+03</rscale>
<asrwt>0</asrwt>
<pdfrwt beam="1">  1        2 0.12635995E+00 0.52577421E+03</pdfrwt>
<pdfrwt beam="2">  1       -2 0.54165837E-01 0.52577421E+03</pdfrwt>
<totfact> 0.10989288E+02</totfact>
</mgrwt>
</event>
<event>
 4    1  0.2488810E-002  0.4173966E+03  0.7818608E-02  0.1037917E+00
         -2   -1    0    0    0  501 -0.00000000000E+00  0.00000000000E+00  0.73717955172E+02  0.73717955172E+02  0.00000000000E+00 0.  1.
          2   -1    0    0  502    0  0.00000000000E+00 -0.00000000000E+00 -0.24061540283E+04  0.24061540283E+04  0.00000000000E+00 0. -1.
    9000007    1    1    2  502    0 -0.10416064168E+03 -0.58056083778E+02 -0.10008030303E+04  0.10843554092E+04  0.40000000000E+03 0.  1.
   -9000007    1    1    2    0  501  0.10416064168E+03  0.58056083778E+02 -0.13316330429E+04  0.13955165742E+04  0.40000000000E+03 0. -1.
<mgrwt>
<rscale>  2 0.41739663E+03</rscale>
<asrwt>0</asrwt>
<pdfrwt beam="1">  1        2 0.37017753E+00 0.41739663E+03</pdfrwt>
<pdfrwt beam="2">  1       -2 0.11341224E-01 0.41739663E+03</pdfrwt>
<totfact> 0.23774930E+02</totfact>
</mgrwt>
</event>
<event>
 4    1  0.2488810E-002  0.5173661E+03  0.7818608E-02  0.1009343E+00
         -2   -1    0    0    0  501 -0.00000000000E+00  0.00000000000E+00  0.36884958594E+03  0.36884958594E+03  0.00000000000E+00 0. -1.
          2   -1    0    0  502    0  0.00000000000E+00 -0.00000000000E+00 -0.85848064127E+03  0.85848064127E+03  0.00000000000E+00 0.  1.
    9000007    1    1    2  502    0  0.30689284231E+02  0.32668926294E+03 -0.34573021459E+01  0.51737767600E+03  0.40000000000E+03 0. -1.
   -9000007    1    1    2    0  501 -0.30689284231E+02 -0.32668926294E+03 -0.48617375318E+03  0.70995255121E+03  0.40000000000E+03 0.  1.
<mgrwt>
<rscale>  2 0.51736612E+03</rscale>
<asrwt>0</asrwt>
<pdfrwt beam="1">  1        2 0.13207394E+00 0.51736612E+03</pdfrwt>
<pdfrwt beam="2">  1       -2 0.56746090E-01 0.51736612E+03</pdfrwt>
<totfact> 0.94163181E+01</totfact>
</mgrwt>
</event>
<event>
 4    1  0.2488810E-002  0.4125748E+03  0.7818608E-02  0.1039510E+00
         -1   -1    0    0    0  501 -0.00000000000E+00  0.00000000000E+00  0.21159770724E+03  0.21159770724E+03  0.00000000000E+00 0.  1.
          1   -1    0    0  502    0  0.00000000000E+00 -0.00000000000E+00 -0.87929833326E+03  0.87929833326E+03  0.00000000000E+00 0. -1.
    9000007    1    1    2  502    0 -0.35436112611E+02 -0.94669205285E+02 -0.17470238930E+03  0.44803895069E+03  0.40000000000E+03 0.  1.
   -9000007    1    1    2    0  501  0.35436112611E+02  0.94669205285E+02 -0.49299823672E+03  0.64285708981E+03  0.40000000000E+03 0. -1.
<mgrwt>
<rscale>  2 0.41257481E+03</rscale>
<asrwt>0</asrwt>
<pdfrwt beam="1">  1        1 0.13527667E+00 0.41257481E+03</pdfrwt>
<pdfrwt beam="2">  1       -1 0.32553493E-01 0.41257481E+03</pdfrwt>
<totfact> 0.17448855E+02</totfact>
</mgrwt>
</event>
<event>
 4    1  0.2488810E-002  0.4536379E+03  0.7818608E-02  0.1026643E+00
          3   -1    0    0  502    0  0.00000000000E+00  0.00000000000E+00  0.17161403623E+03  0.17161403623E+03  0.00000000000E+00 0.  1.
         -3   -1    0    0    0  501 -0.00000000000E+00 -0.00000000000E+00 -0.12843567105E+04  0.12843567105E+04  0.00000000000E+00 0. -1.
    9000007    1    1    2  502    0  0.17306153317E+02 -0.21327884187E+03 -0.74390111529E+03  0.87130719994E+03  0.40000000000E+03 0.  1.
   -9000007    1    1    2    0  501 -0.17306153317E+02  0.21327884187E+03 -0.36884155900E+03  0.58466354682E+03  0.40000000000E+03 0.  1.
<mgrwt>
<rscale>  2 0.45363793E+03</rscale>
<asrwt>0</asrwt>
<pdfrwt beam="1">  1        3 0.26402160E-01 0.45363793E+03</pdfrwt>
<pdfrwt beam="2">  1       -3 0.19759334E+00 0.45363793E+03</pdfrwt>
<totfact> 0.55386881E+00</totfact>
</mgrwt>
</event>
<event>
 4    1  0.2488810E-002  0.5104499E+03  0.7818608E-02  0.1011087E+00
          2   -1    0    0  502    0  0.00000000000E+00  0.00000000000E+00  0.31306579222E+04  0.31306579222E+04  0.00000000000E+00 0.  1.
         -2   -1    0    0    0  501 -0.00000000000E+00 -0.00000000000E+00 -0.84700856336E+02  0.84700856336E+02  0.00000000000E+00 0. -1.
    9000007    1    1    2  502    0 -0.13692683624E+03  0.28602472426E+03  0.13109947737E+04  0.14068640297E+04  0.40000000000E+03 0.  1.
   -9000007    1    1    2    0  501  0.13692683624E+03 -0.28602472426E+03  0.17349622922E+04  0.18084947489E+04  0.40000000000E+03 0. -1.
<mgrwt>
<rscale>  2 0.51044990E+03</rscale>
<asrwt>0</asrwt>
<pdfrwt beam="1">  1        2 0.48163959E+00 0.51044990E+03</pdfrwt>
<pdfrwt beam="2">  1       -2 0.13030903E-01 0.51044990E+03</pdfrwt>
<totfact> 0.70477816E+01</totfact>
</mgrwt>
</event>
<event>
 4    1  0.2488810E-002  0.4067108E+03  0.7818608E-02  0.1041480E+00
          1   -1    0    0  502    0  0.00000000000E+00  0.00000000000E+00  0.72635186922E+03  0.72635186922E+03  0.00000000000E+00 0.  1.
         -1   -1    0    0    0  501 -0.00000000000E+00 -0.00000000000E+00 -0.28677877124E+03  0.28677877124E+03  0.00000000000E+00 0. -1.
    9000007    1    1    2  502    0  0.98860578235E+01 -0.72910545618E+02  0.44964444916E+03  0.60629515292E+03  0.40000000000E+03 0.  1.
   -9000007    1    1    2    0  501 -0.98860578235E+01  0.72910545618E+02 -0.10071351178E+02  0.40683548753E+03  0.40000000000E+03 0. -1.
<mgrwt>
<rscale>  2 0.40671081E+03</rscale>
<asrwt>0</asrwt>
<pdfrwt beam="1">  1        1 0.11174644E+00 0.40671081E+03</pdfrwt>
<pdfrwt beam="2">  1       -1 0.44119811E-01 0.40671081E+03</pdfrwt>
<totfact> 0.13700295E+02</totfact>
</mgrwt>
</event>
<event>
 4    1  0.2488810E-002  0.4343335E+03  0.7818608E-02  0.1032500E+00
         -2   -1    0    0    0  501 -0.00000000000E+00  0.00000000000E+00  0.76289916300E+03  0.76289916300E+03  0.00000000000E+00 0. -1.
          2   -1    0    0  502    0  0.00000000000E+00 -0.00000000000E+00 -0.27086268956E+03  0.27086268956E+03  0.00000000000E+00 0.  1.
    9000007    1    1    2  502    0 -0.12947674382E+03  0.10900149870E+03  0.39855083799E+03  0.58948140290E+03  0.40000000000E+03 0. -1.
   -9000007    1    1    2    0  501  0.12947674382E+03 -0.10900149870E+03  0.93485635449E+02  0.44428044965E+03  0.40000000000E+03 0.  1.
<mgrwt>
<rscale>  2 0.43433346E+03</rscale>
<asrwt>0</asrwt>
<pdfrwt beam="1">  1        2 0.41671183E-01 0.43433346E+03</pdfrwt>
<pdfrwt beam="2">  1       -2 0.11736910E+00 0.43433346E+03</pdfrwt>
<totfact> 0.71102387E+01</totfact>
</mgrwt>
</event>
<event>
 4    1  0.2488810E-002  0.4150066E+03  0.7818608E-02  0.1038704E+00
          1   -1    0    0  502    0  0.00000000000E+00  0.00000000000E+00  0.49750542778E+03  0.49750542778E+03  0.00000000000E+00 0. -1.
         -1   -1    0    0    0  501 -0.00000000000E+00 -0.00000000000E+00 -0.34624887010E+03  0.34624887010E+03  0.00000000000E+00 0.  1.
    9000007    1    1    2  502    0  0.10896210778E+03  0.18913669772E+02  0.81216476454E+02  0.42287892343E+03  0.40000000000E+03 0.  1.
   -9000007    1    1    2    0  501 -0.10896210778E+03 -0.18913669772E+02  0.70040081231E+02  0.42087537444E+03  0.40000000000E+03 0. -1.
<mgrwt>
<rscale>  2 0.41500659E+03</rscale>
<asrwt>0</asrwt>
<pdfrwt beam="1">  1        1 0.76539297E-01 0.41500659E+03</pdfrwt>
<pdfrwt beam="2">  1       -1 0.53269057E-01 0.41500659E+03</pdfrwt>
<totfact> 0.16488812E+02</totfact>
</mgrwt>
</event>
<event>
 4    1  0.2488810E-002  0.5203217E+03  0.7818608E-02  0.1008607E+00
          2   -1    0    0  502    0  0.00000000000E+00  0.00000000000E+00  0.67919856054E+03  0.67919856054E+03  0.00000000000E+00 0.  1.
         -2   -1    0    0    0  501 -0.00000000000E+00 -0.00000000000E+00 -0.46963638266E+03  0.46963638266E+03  0.00000000000E+00 0. -1.
    9000007    1    1    2  502    0 -0.18666621046E+03  0.27548212223E+03  0.32816897226E+03  0.61516627683E+03  0.40000000000E+03 0.  1.
   -9000007    1    1    2    0  501  0.18666621046E+03 -0.27548212223E+03 -0.11860679438E+03  0.53366866638E+03  0.40000000000E+03 0. -1.
<mgrwt>
<rscale>  2 0.52032170E+03</rscale>
<asrwt>0</asrwt>
<pdfrwt beam="1">  1        2 0.10449209E+00 0.52032170E+03</pdfrwt>
<pdfrwt beam="2">  1       -2 0.72251751E-01 0.52032170E+03</pdfrwt>
<totfact> 0.76086125E+01</totfact>
</mgrwt>
</event>
<event>
 4    1  0.2488810E-002  0.4467183E+03  0.7818608E-02  0.1028705E+00
         -1   -1    0    0    0  501 -0.00000000000E+00  0.00000000000E+00  0.34035290248E+03  0.34035290248E+03  0.00000000000E+00 0. -1.
          1   -1    0    0  502    0  0.00000000000E+00 -0.00000000000E+00 -0.58659687579E+03  0.58659687579E+03  0.00000000000E+00 0.  1.
    9000007    1    1    2  502    0  0.19521604149E+03  0.38052175150E+02 -0.11313623380E+03  0.46082217643E+03  0.40000000000E+03 0. -1.
   -9000007    1    1    2    0  501 -0.19521604149E+03 -0.38052175150E+02 -0.13310773950E+03  0.46612760185E+03  0.40000000000E+03 0.  1.
<mgrwt>
<rscale>  2 0.44671834E+03</rscale>
<asrwt>0</asrwt>
<pdfrwt beam="1">  1        1 0.90245673E-01 0.44671834E+03</pdfrwt>
<pdfrwt beam="2">  1       -1 0.52361985E-01 0.44671834E+03</pdfrwt>
<totfact> 0.13532598E+02</totfact>
</mgrwt>
</event>
<event>
 4    1  0.2488810E-002  0.4134862E+03  0.7818608E-02  0.1039207E+00
          1   -1    0    0  502    0  0.00000000000E+00  0.00000000000E+00  0.62018926745E+03  0.62018926745E+03  0.00000000000E+00 0. -1.
         -1   -1    0    0    0  501 -0.00000000000E+00 -0.00000000000E+00 -0.29110945565E+03  0.29110945565E+03  0.00000000000E+00 0.  1.
    9000007    1    1    2  502    0  0.81805175760E+02  0.65412355749E+02  0.26945646333E+03  0.49353586364E+03  0.40000000000E+03 0. -1.
   -9000007    1    1    2    0  501 -0.81805175760E+02 -0.65412355749E+02  0.59623348470E+02  0.41776285947E+03  0.40000000000E+03 0.  1.
<mgrwt>
<rscale>  2 0.41348623E+03</rscale>
<asrwt>0</asrwt>
<pdfrwt beam="1">  1        1 0.95413733E-01 0.41348623E+03</pdfrwt>
<pdfrwt beam="2">  1       -1 0.44786070E-01 0.41348623E+03</pdfrwt>
<totfact> 0.16787295E+02</totfact>
</mgrwt>
</event>
<event>
 4    1  0.2488810E-002  0.4218665E+03  0.7818608E-02  0.1036461E+00
          1   -1    0    0  502    0  0.00000000000E+00  0.00000000000E+00  0.49494889930E+03  0.49494889930E+03  0.00000000000E+00 0.  1.
         -1   -1    0    0    0  501 -0.00000000000E+00 -0.00000000000E+00 -0.38700616780E+03  0.38700616780E+03  0.00000000000E+00 0. -1.
    9000007    1    1    2  502    0 -0.90134685319E+02  0.99232369415E+02  0.17137417337E+03  0.45534649657E+03  0.40000000000E+03 0.  1.
   -9000007    1    1    2    0  501  0.90134685319E+02 -0.99232369415E+02 -0.63431441873E+02  0.42660857054E+03  0.40000000000E+03 0. -1.
<mgrwt>
<rscale>  2 0.42186648E+03</rscale>
<asrwt>0</asrwt>
<pdfrwt beam="1">  1        1 0.76145984E-01 0.42186648E+03</pdfrwt>
<pdfrwt beam="2">  1       -1 0.59539411E-01 0.42186648E+03</pdfrwt>
<totfact> 0.13400252E+02</totfact>
</mgrwt>
</event>
<event>
 4    1  0.2488810E-002  0.4463565E+03  0.7818608E-02  0.1028814E+00
         -2   -1    0    0    0  501 -0.00000000000E+00  0.00000000000E+00  0.20399908539E+03  0.20399908539E+03  0.00000000000E+00 0.  1.
          2   -1    0    0  502    0  0.00000000000E+00 -0.00000000000E+00 -0.97840741350E+03  0.97840741350E+03  0.00000000000E+00 0. -1.
    9000007    1    1    2  502    0  0.19393025258E+03  0.40313857838E+02 -0.36209369702E+03  0.57475733612E+03  0.40000000000E+03 0.  1.
   -9000007    1    1    2    0  501 -0.19393025258E+03 -0.40313857838E+02 -0.41231463109E+03  0.60764916277E+03  0.40000000000E+03 0.  1.
<mgrwt>
<rscale>  2 0.44635653E+03</rscale>
<asrwt>0</asrwt>
<pdfrwt beam="1">  1        2 0.15052421E+00 0.44635653E+03</pdfrwt>
<pdfrwt beam="2">  1       -2 0.31384476E-01 0.44635653E+03</pdfrwt>
<totfact> 0.25233873E+02</totfact>
</mgrwt>
</event>
<event>
 4    1  0.2488810E-002  0.4396042E+03  0.7818608E-02  0.1030868E+00
         -2   -1    0    0    0  501 -0.00000000000E+00  0.00000000000E+00  0.21352523637E+03  0.21352523637E+03  0.00000000000E+00 0.  1.
          2   -1    0    0  502    0  0.00000000000E+00 -0.00000000000E+00 -0.90519706998E+03  0.90519706998E+03  0.00000000000E+00 0. -1.
    9000007    1    1    2  502    0 -0.54276539505E+02 -0.17408599378E+03 -0.35286740766E+03  0.56370850922E+03  0.40000000000E+03 0. -1.
   -9000007    1    1    2    0  501  0.54276539505E+02  0.17408599378E+03 -0.33880442595E+03  0.55501379714E+03  0.40000000000E+03 0.  1.
<mgrwt>
<rscale>  2 0.43960423E+03</rscale>
<asrwt>0</asrwt>
<pdfrwt beam="1">  1        2 0.13926109E+00 0.43960423E+03</pdfrwt>
<pdfrwt beam="2">  1       -2 0.32850036E-01 0.43960423E+03</pdfrwt>
<totfact> 0.25858843E+02</totfact>
</mgrwt>
</event>
<event>
 4    1  0.2488810E-002  0.4073098E+03  0.7818608E-02  0.1041278E+00
          2   -1    0    0  502    0  0.00000000000E+00  0.00000000000E+00  0.38164857124E+03  0.38164857124E+03  0.00000000000E+00 0.  1.
         -2   -1    0    0    0  501 -0.00000000000E+00 -0.00000000000E+00 -0.71174854467E+03  0.71174854467E+03  0.00000000000E+00 0. -1.
    9000007    1    1    2  502    0  0.46947102954E+02 -0.60805137565E+02  0.17603713344E+03  0.44372330070E+03  0.40000000000E+03 0.  1.
   -9000007    1    1    2    0  501 -0.46947102954E+02  0.60805137565E+02 -0.50613710687E+03  0.64967381522E+03  0.40000000000E+03 0. -1.
<mgrwt>
<rscale>  2 0.40730983E+03</rscale>
<asrwt>0</asrwt>
<pdfrwt beam="1">  1        2 0.58715165E-01 0.40730983E+03</pdfrwt>
<pdfrwt beam="2">  1       -2 0.10949978E+00 0.40730983E+03</pdfrwt>
<totfact> 0.57828509E+01</totfact>
</mgrwt>
</event>
<event>
 4    1  0.2488810E-002  0.4985695E+03  0.7818608E-02  0.1014153E+00
          2   -1    0    0  502    0  0.00000000000E+00  0.00000000000E+00  0.16665334046E+04  0.16665334046E+04  0.00000000000E+00 0.  1.
         -2   -1    0    0    0  501 -0.00000000000E+00 -0.00000000000E+00 -0.16204483234E+03  0.16204483234E+03  0.00000000000E+00 0. -1.
    9000007    1    1    2  502    0 -0.17747854007E+03  0.23889944496E+03  0.10101088977E+04  0.11264508698E+04  0.40000000000E+03 0.  1.
   -9000007    1    1    2    0  501  0.17747854007E+03 -0.23889944496E+03  0.49437967459E+03  0.70212736710E+03  0.40000000000E+03 0. -1.
<mgrwt>
<rscale>  2 0.49856953E+03</rscale>
<asrwt>0</asrwt>
<pdfrwt beam="1">  1        2 0.25638974E+00 0.49856953E+03</pdfrwt>
<pdfrwt beam="2">  1       -2 0.24929975E-01 0.49856953E+03</pdfrwt>
<totfact> 0.15423506E+02</totfact>
</mgrwt>
</event>
<event>
 4    1  0.2488810E-002  0.4708989E+03  0.7818608E-02  0.1021667E+00
         -1   -1    0    0    0  501 -0.00000000000E+00  0.00000000000E+00  0.20932712273E+03  0.20932712273E+03  0.00000000000E+00 0. -1.
          1   -1    0    0  502    0  0.00000000000E+00 -0.00000000000E+00 -0.13529029273E+04  0.13529029273E+04  0.00000000000E+00 0.  1.
    9000007    1    1    2  502    0  0.83065389443E+02  0.23419196266E+03 -0.93565466252E+03  0.10474709456E+04  0.40000000000E+03 0.  1.
   -9000007    1    1    2    0  501 -0.83065389443E+02 -0.23419196266E+03 -0.20792114202E+03  0.51475910443E+03  0.40000000000E+03 0. -1.
<mgrwt>
<rscale>  2 0.47089886E+03</rscale>
<asrwt>0</asrwt>
<pdfrwt beam="1">  1        1 0.20813891E+00 0.47089886E+03</pdfrwt>
<pdfrwt beam="2">  1       -1 0.32204173E-01 0.47089886E+03</pdfrwt>
<totfact> 0.79003113E+01</totfact>
</mgrwt>
</event>
<event>
 4    1  0.2488810E-002  0.4617788E+03  0.7818608E-02  0.1024267E+00
          2   -1    0    0  502    0  0.00000000000E+00  0.00000000000E+00  0.10310909715E+04  0.10310909715E+04  0.00000000000E+00 0.  1.
         -2   -1    0    0    0  501 -0.00000000000E+00 -0.00000000000E+00 -0.40905000682E+03  0.40905000682E+03  0.00000000000E+00 0. -1.
    9000007    1    1    2  502    0 -0.12432081981E+03  0.19438094097E+03  0.81733533331E+03  0.93876336929E+03  0.40000000000E+03 0.  1.
   -9000007    1    1    2    0  501  0.12432081981E+03 -0.19438094097E+03 -0.19529436860E+03  0.50137760905E+03  0.40000000000E+03 0. -1.
<mgrwt>
<rscale>  2 0.46177875E+03</rscale>
<asrwt>0</asrwt>
<pdfrwt beam="1">  1        2 0.15862938E+00 0.46177875E+03</pdfrwt>
<pdfrwt beam="2">  1       -2 0.62930771E-01 0.46177875E+03</pdfrwt>
<totfact> 0.58982537E+01</totfact>
</mgrwt>
</event>
<event>
 4    1  0.2488810E-002  0.4402395E+03  0.7818608E-02  0.1030673E+00
          2   -1    0    0  502    0  0.00000000000E+00  0.00000000000E+00  0.38276728809E+04  0.38276728809E+04  0.00000000000E+00 0.  1.
         -2   -1    0    0    0  501 -0.00000000000E+00 -0.00000000000E+00 -0.50979628312E+02  0.50979628312E+02  0.00000000000E+00 0. -1.
    9000007    1    1    2  502    0 -0.18317588568E+03 -0.16043348625E+02  0.17286886444E+04  0.17838652481E+04  0.40000000000E+03 0. -1.
   -9000007    1    1    2    0  501  0.18317588568E+03  0.16043348625E+02  0.20480046082E+04  0.20947872611E+04  0.40000000000E+03 0. -1.
<mgrwt>
<rscale>  2 0.44023947E+03</rscale>
<asrwt>0</asrwt>
<pdfrwt beam="1">  1        2 0.58887252E+00 0.44023947E+03</pdfrwt>
<pdfrwt beam="2">  1       -2 0.78430228E-02 0.44023947E+03</pdfrwt>
<totfact> 0.55340842E+01</totfact>
</mgrwt>
</event>
<event>
 4    1  0.2488810E-002  0.6309351E+03  0.7818608E-02  0.9843226E-01
          1   -1    0    0  502    0  0.00000000000E+00  0.00000000000E+00  0.33681780959E+03  0.33681780959E+03  0.00000000000E+00 0. -1.
         -1   -1    0    0    0  501 -0.00000000000E+00 -0.00000000000E+00 -0.14276589717E+04  0.14276589717E+04  0.00000000000E+00 0.  1.
    9000007    1    1    2  502    0  0.46129254241E+03  0.15902306482E+03 -0.17936782433E+03  0.65593594293E+03  0.40000000000E+03 0.  1.
   -9000007    1    1    2    0  501 -0.46129254241E+03 -0.15902306482E+03 -0.91147333783E+03  0.11085408384E+04  0.40000000000E+03 0.  1.
<mgrwt>
<rscale>  2 0.63093514E+03</rscale>
<asrwt>0</asrwt>
<pdfrwt beam="1">  1        1 0.51818125E-01 0.63093514E+03</pdfrwt>
<pdfrwt beam="2">  1       -1 0.21963984E+00 0.63093514E+03</pdfrwt>
<totfact> 0.87565033E+00</totfact>
</mgrwt>
</event>
<event>
 4    1  0.2488810E-002  0.5638693E+03  0.7818608E-02  0.9983338E-01
          2   -1    0    0  502    0  0.00000000000E+00  0.00000000000E+00  0.15608379231E+04  0.15608379231E+04  0.00000000000E+00 0. -1.
         -2   -1    0    0    0  501 -0.00000000000E+00 -0.00000000000E+00 -0.21703965784E+03  0.21703965784E+03  0.00000000000E+00 0.  1.
    9000007    1    1    2  502    0 -0.24797237709E+03  0.31057729185E+03  0.89224932626E+03  0.10554891824E+04  0.40000000000E+03 0. -1.
   -9000007    1    1    2    0  501  0.24797237709E+03 -0.31057729185E+03  0.45154893902E+03  0.72238839854E+03  0.40000000000E+03 0. -1.
<mgrwt>
<rscale>  2 0.56386927E+03</rscale>
<asrwt>0</asrwt>
<pdfrwt beam="1">  1        2 0.24012890E+00 0.56386927E+03</pdfrwt>
<pdfrwt beam="2">  1       -2 0.33390718E-01 0.56386927E+03</pdfrwt>
<totfact> 0.10216570E+02</totfact>
</mgrwt>
</event>
<event>
 4    1  0.2488810E-002  0.5305587E+03  0.7818608E-02  0.1006097E+00
          2   -1    0    0  502    0  0.00000000000E+00  0.00000000000E+00  0.54239602154E+03  0.54239602154E+03  0.00000000000E+00 0. -1.
         -2   -1    0    0    0  501 -0.00000000000E+00 -0.00000000000E+00 -0.61750814202E+03  0.61750814202E+03  0.00000000000E+00 0.  1.
    9000007    1    1    2  502    0 -0.30035919644E+02 -0.34726131700E+03  0.19410410140E+03  0.56495042343E+03  0.40000000000E+03 0. -1.
   -9000007    1    1    2    0  501  0.30035919644E+02  0.34726131700E+03 -0.26921622189E+03  0.59495374012E+03  0.40000000000E+03 0.  1.
<mgrwt>
<rscale>  2 0.53055874E+03</rscale>
<asrwt>0</asrwt>
<pdfrwt beam="1">  1        2 0.83445542E-01 0.53055874E+03</pdfrwt>
<pdfrwt beam="2">  1       -2 0.95001253E-01 0.53055874E+03</pdfrwt>
<totfact> 0.53707572E+01</totfact>
</mgrwt>
</event>
<event>
 4    1  0.2488810E-002  0.6720002E+03  0.7818608E-02  0.9766351E-01
          2   -1    0    0  502    0  0.00000000000E+00  0.00000000000E+00  0.52063133741E+03  0.52063133741E+03  0.00000000000E+00 0. -1.
         -2   -1    0    0    0  501 -0.00000000000E+00 -0.00000000000E+00 -0.86745241883E+03  0.86745241883E+03  0.00000000000E+00 0.  1.
    9000007    1    1    2  502    0  0.25525450229E+03 -0.47584597843E+03 -0.17983166093E+03  0.69564623366E+03  0.40000000000E+03 0.  1.
   -9000007    1    1    2    0  501 -0.25525450229E+03  0.47584597843E+03 -0.16698942049E+03  0.69243752258E+03  0.40000000000E+03 0. -1.
<mgrwt>
<rscale>  2 0.67200019E+03</rscale>
<asrwt>0</asrwt>
<pdfrwt beam="1">  1        2 0.80097129E-01 0.67200019E+03</pdfrwt>
<pdfrwt beam="2">  1       -2 0.13345422E+00 0.67200019E+03</pdfrwt>
<totfact> 0.24336024E+01</totfact>
</mgrwt>
</event>
<event>
 4    1  0.2488810E-002  0.5022301E+03  0.7818608E-02  0.1013198E+00
         -1   -1    0    0    0  501 -0.00000000000E+00  0.00000000000E+00  0.22663548351E+03  0.22663548351E+03  0.00000000000E+00 0. -1.
          1   -1    0    0  502    0  0.00000000000E+00 -0.00000000000E+00 -0.18450681169E+04  0.18450681169E+04  0.00000000000E+00 0.  1.
    9000007    1    1    2  502    0  0.29964483424E+03  0.49477256470E+02 -0.15671617960E+03  0.52611309292E+03  0.40000000000E+03 0. -1.
   -9000007    1    1    2    0  501 -0.29964483424E+03 -0.49477256470E+02 -0.14617164538E+04  0.15455905075E+04  0.40000000000E+03 0.  1.
<mgrwt>
<rscale>  2 0.50223005E+03</rscale>
<asrwt>0</asrwt>
<pdfrwt beam="1">  1        1 0.28385663E+00 0.50223005E+03</pdfrwt>
<pdfrwt beam="2">  1       -1 0.34866998E-01 0.50223005E+03</pdfrwt>
<totfact> 0.31921325E+01</totfact>
</mgrwt>
</event>
<event>
 4    1  0.2488810E-002  0.4151851E+03  0.7818608E-02  0.1038645E+00
         -1   -1    0    0    0  501 -0.00000000000E+00  0.00000000000E+00  0.27913062821E+03  0.27913062821E+03  0.00000000000E+00 0. -1.
          1   -1    0    0  502    0  0.00000000000E+00 -0.00000000000E+00 -0.62699413833E+03  0.62699413833E+03  0.00000000000E+00 0.  1.
    9000007    1    1    2  502    0 -0.68299867337E+02 -0.87828328464E+02 -0.22951939803E+03  0.47440261512E+03  0.40000000000E+03 0. -1.
   -9000007    1    1    2    0  501  0.68299867337E+02  0.87828328464E+02 -0.11834411208E+03  0.43172215142E+03  0.40000000000E+03 0.  1.
<mgrwt>
<rscale>  2 0.41518512E+03</rscale>
<asrwt>0</asrwt>
<pdfrwt beam="1">  1        1 0.96460635E-01 0.41518512E+03</pdfrwt>
<pdfrwt beam="2">  1       -1 0.42943174E-01 0.41518512E+03</pdfrwt>
<totfact> 0.17843207E+02</totfact>
</mgrwt>
</event>
<event>
 4    1  0.2488810E-002  0.4731752E+03  0.7818608E-02  0.1021028E+00
          1   -1    0    0  502    0  0.00000000000E+00  0.00000000000E+00  0.13267833476E+04  0.13267833476E+04  0.00000000000E+00 0. -1.
         -1   -1    0    0    0  501 -0.00000000000E+00 -0.00000000000E+00 -0.24571651060E+03  0.24571651060E+03  0.00000000000E+00 0.  1.
    9000007    1    1    2  502    0 -0.11185141377E+03 -0.22668047842E+03  0.98057544996E+03  0.10887713218E+04  0.40000000000E+03 0.  1.
   -9000007    1    1    2    0  501  0.11185141377E+03  0.22668047842E+03  0.10049138700E+03  0.48372853639E+03  0.40000000000E+03 0.  1.
<mgrwt>
<rscale>  2 0.47317521E+03</rscale>
<asrwt>0</asrwt>
<pdfrwt beam="1">  1        1 0.20412051E+00 0.47317521E+03</pdfrwt>
<pdfrwt beam="2">  1       -1 0.37802541E-01 0.47317521E+03</pdfrwt>
<totfact> 0.62049345E+01</totfact>
</mgrwt>
</event>
<event>
 4    1  0.2488810E-002  0.4255282E+03  0.7818608E-02  0.1035282E+00
          2   -1    0    0  502    0  0.00000000000E+00  0.00000000000E+00  0.10299894557E+04  0.10299894557E+04  0.00000000000E+00 0.  1.
         -2   -1    0    0    0  501 -0.00000000000E+00 -0.00000000000E+00 -0.32055207538E+03  0.32055207538E+03  0.00000000000E+00 0. -1.
    9000007    1    1    2  502    0 -0.13676155765E+03 -0.48687931607E+02  0.80849101414E+03  0.91363666645E+03  0.40000000000E+03 0.  1.
   -9000007    1    1    2    0  501  0.13676155765E+03  0.48687931607E+02 -0.99053633852E+02  0.43690486460E+03  0.40000000000E+03 0. -1.
<mgrwt>
<rscale>  2 0.42552819E+03</rscale>
<asrwt>0</asrwt>
<pdfrwt beam="1">  1        2 0.15845991E+00 0.42552819E+03</pdfrwt>
<pdfrwt beam="2">  1       -2 0.49315704E-01 0.42552819E+03</pdfrwt>
<totfact> 0.98191565E+01</totfact>
</mgrwt>
</event>
<event>
 4    1  0.2488810E-002  0.5569375E+03  0.7818608E-02  0.9999008E-01
          2   -1    0    0  502    0  0.00000000000E+00  0.00000000000E+00  0.21697259901E+03  0.21697259901E+03  0.00000000000E+00 0. -1.
         -2   -1    0    0    0  501 -0.00000000000E+00 -0.00000000000E+00 -0.14379318376E+04  0.14379318376E+04  0.00000000000E+00 0.  1.
    9000007    1    1    2  502    0 -0.29170510404E+03 -0.25512259144E+03 -0.67354612800E+03  0.87398157356E+03  0.40000000000E+03 0. -1.
   -9000007    1    1    2    0  501  0.29170510404E+03  0.25512259144E+03 -0.54741311058E+03  0.78092286304E+03  0.40000000000E+03 0.  1.
<mgrwt>
<rscale>  2 0.55693752E+03</rscale>
<asrwt>0</asrwt>
<pdfrwt beam="1">  1        2 0.33380400E-01 0.55693752E+03</pdfrwt>
<pdfrwt beam="2">  1       -2 0.22122028E+00 0.55693752E+03</pdfrwt>
<totfact> 0.15939799E+01</totfact>
</mgrwt>
</event>
<event>
 4    1  0.2488810E-002  0.5148809E+03  0.7818608E-02  0.1009966E+00
          1   -1    0    0  502    0  0.00000000000E+00  0.00000000000E+00  0.11507318589E+04  0.11507318589E+04  0.00000000000E+00 0.  1.
         -1   -1    0    0    0  501 -0.00000000000E+00 -0.00000000000E+00 -0.23141787972E+03  0.23141787972E+03  0.00000000000E+00 0. -1.
    9000007    1    1    2  502    0  0.25584359070E+03 -0.19911413558E+03  0.50600013453E+03  0.72189924369E+03  0.40000000000E+03 0.  1.
   -9000007    1    1    2    0  501 -0.25584359070E+03  0.19911413558E+03  0.41331384468E+03  0.66025049496E+03  0.40000000000E+03 0.  1.
<mgrwt>
<rscale>  2 0.51488094E+03</rscale>
<asrwt>0</asrwt>
<pdfrwt beam="1">  1        1 0.17703567E+00 0.51488094E+03</pdfrwt>
<pdfrwt beam="2">  1       -1 0.35602751E-01 0.51488094E+03</pdfrwt>
<totfact> 0.91459357E+01</totfact>
</mgrwt>
</event>
<event>
 4    1  0.2488810E-002  0.4218083E+03  0.7818608E-02  0.1036479E+00
          2   -1    0    0  502    0  0.00000000000E+00  0.00000000000E+00  0.22745022948E+04  0.22745022948E+04  0.00000000000E+00 0. -1.
         -2   -1    0    0    0  501 -0.00000000000E+00 -0.00000000000E+00 -0.78764499526E+02  0.78764499526E+02  0.00000000000E+00 0.  1.
    9000007    1    1    2  502    0 -0.66340823016E+02 -0.11628038029E+03  0.11952774562E+04  0.12675213721E+04  0.40000000000E+03 0. -1.
   -9000007    1    1    2    0  501  0.66340823016E+02  0.11628038029E+03  0.10004603391E+04  0.10857454221E+04  0.40000000000E+03 0.  1.
<mgrwt>
<rscale>  2 0.42180829E+03</rscale>
<asrwt>0</asrwt>
<pdfrwt beam="1">  1        2 0.34992338E+00 0.42180829E+03</pdfrwt>
<pdfrwt beam="2">  1       -2 0.12117617E-01 0.42180829E+03</pdfrwt>
<totfact> 0.25169474E+02</totfact>
</mgrwt>
</event>
<event>
 4    1  0.2488810E-002  0.4401868E+03  0.7818608E-02  0.1030690E+00
          2   -1    0    0  502    0  0.00000000000E+00  0.00000000000E+00  0.21189766432E+03  0.21189766432E+03  0.00000000000E+00 0. -1.
         -2   -1    0    0    0  501 -0.00000000000E+00 -0.00000000000E+00 -0.95335872822E+03  0.95335872822E+03  0.00000000000E+00 0.  1.
    9000007    1    1    2  502    0 -0.10756292783E+03  0.14897870013E+03 -0.25298930344E+03  0.50770860165E+03  0.40000000000E+03 0.  1.
   -9000007    1    1    2    0  501  0.10756292783E+03 -0.14897870013E+03 -0.48847176045E+03  0.65754779089E+03  0.40000000000E+03 0.  1.
<mgrwt>
<rscale>  2 0.44018682E+03</rscale>
<asrwt>0</asrwt>
<pdfrwt beam="1">  1        2 0.32599641E-01 0.44018682E+03</pdfrwt>
<pdfrwt beam="2">  1       -2 0.14667057E+00 0.44018682E+03</pdfrwt>
<totfact> 0.53177405E+01</totfact>
</mgrwt>
</event>
<event>
 4    1  0.2488810E-002  0.4100769E+03  0.7818608E-02  0.1040345E+00
         -1   -1    0    0    0  501 -0.00000000000E+00  0.00000000000E+00  0.30089143037E+03  0.30089143037E+03  0.00000000000E+00 0.  1.
          1   -1    0    0  502    0  0.00000000000E+00 -0.00000000000E+00 -0.57830646667E+03  0.57830646667E+03  0.00000000000E+00 0. -1.
    9000007    1    1    2  502    0 -0.26822974988E+02  0.86276450591E+02 -0.21927156376E+03  0.46501947979E+03  0.40000000000E+03 0. -1.
   -9000007    1    1    2    0  501  0.26822974988E+02 -0.86276450591E+02 -0.58143472551E+02  0.41417841725E+03  0.40000000000E+03 0. -1.
<mgrwt>
<rscale>  2 0.41007694E+03</rscale>
<asrwt>0</asrwt>
<pdfrwt beam="1">  1        1 0.88970225E-01 0.41007694E+03</pdfrwt>
<pdfrwt beam="2">  1       -1 0.46290990E-01 0.41007694E+03</pdfrwt>
<totfact> 0.17443458E+02</totfact>
</mgrwt>
</event>
<event>
 4    1  0.2488810E-002  0.5126521E+03  0.7818608E-02  0.1010528E+00
         -2   -1    0    0    0  501 -0.00000000000E+00  0.00000000000E+00  0.31506600576E+03  0.31506600576E+03  0.00000000000E+00 0. -1.
          2   -1    0    0  502    0  0.00000000000E+00 -0.00000000000E+00 -0.95847870830E+03  0.95847870830E+03  0.00000000000E+00 0.  1.
    9000007    1    1    2  502    0  0.30754804689E+03  0.90699148620E+02 -0.55104625785E+03  0.75263810361E+03  0.40000000000E+03 0.  1.
   -9000007    1    1    2    0  501 -0.30754804689E+03 -0.90699148620E+02 -0.92366444687E+02  0.52090661045E+03  0.40000000000E+03 0. -1.
<mgrwt>
<rscale>  2 0.51265206E+03</rscale>
<asrwt>0</asrwt>
<pdfrwt beam="1">  1        2 0.14745826E+00 0.51265206E+03</pdfrwt>
<pdfrwt beam="2">  1       -2 0.48471693E-01 0.51265206E+03</pdfrwt>
<totfact> 0.11164197E+02</totfact>
</mgrwt>
</event>
<event>
 4    1  0.2488810E-002  0.4013597E+03  0.7818608E-02  0.1043310E+00
          2   -1    0    0  502    0  0.00000000000E+00  0.00000000000E+00  0.15637918979E+04  0.15637918979E+04  0.00000000000E+00 0.  1.
         -2   -1    0    0    0  501 -0.00000000000E+00 -0.00000000000E+00 -0.13498273146E+03  0.13498273146E+03  0.00000000000E+00 0. -1.
    9000007    1    1    2  502    0 -0.30768050345E+02  0.11955235954E+02  0.30103189422E+03  0.50170688846E+03  0.40000000000E+03 0. -1.
   -9000007    1    1    2    0  501  0.30768050345E+02 -0.11955235954E+02  0.11277772723E+04  0.11970677409E+04  0.40000000000E+03 0.  1.
<mgrwt>
<rscale>  2 0.40135969E+03</rscale>
<asrwt>0</asrwt>
<pdfrwt beam="1">  1        2 0.24058336E+00 0.40135969E+03</pdfrwt>
<pdfrwt beam="2">  1       -2 0.20766575E-01 0.40135969E+03</pdfrwt>
<totfact> 0.24509760E+02</totfact>
</mgrwt>
</event>
<event>
 4    1  0.2488810E-002  0.4104729E+03  0.7818608E-02  0.1040212E+00
         -1   -1    0    0    0  501 -0.00000000000E+00  0.00000000000E+00  0.12832318466E+04  0.12832318466E+04  0.00000000000E+00 0. -1.
          1   -1    0    0  502    0  0.00000000000E+00 -0.00000000000E+00 -0.15649826393E+03  0.15649826393E+03  0.00000000000E+00 0.  1.
    9000007    1    1    2  502    0  0.90427571402E+02 -0.17632116040E+02  0.27450926790E+03  0.49380499729E+03  0.40000000000E+03 0.  1.
   -9000007    1    1    2    0  501 -0.90427571402E+02  0.17632116040E+02  0.85222431477E+03  0.94592511325E+03  0.40000000000E+03 0. -1.
<mgrwt>
<rscale>  2 0.41047294E+03</rscale>
<asrwt>0</asrwt>
<pdfrwt beam="1">  1        1 0.24076657E-01 0.41047294E+03</pdfrwt>
<pdfrwt beam="2">  1       -1 0.19742028E+00 0.41047294E+03</pdfrwt>
<totfact> 0.34234342E+01</totfact>
</mgrwt>
</event>
<event>
 4    1  0.2488810E-002  0.4866985E+03  0.7818608E-02  0.1017310E+00
         -1   -1    0    0    0  501 -0.00000000000E+00  0.00000000000E+00  0.45096603388E+03  0.45096603388E+03  0.00000000000E+00 0. -1.
          1   -1    0    0  502    0  0.00000000000E+00 -0.00000000000E+00 -0.78153284998E+03  0.78153284998E+03  0.00000000000E+00 0.  1.
    9000007    1    1    2  502    0  0.14900223300E+03 -0.23382412447E+03  0.18760094450E+03  0.52160281920E+03  0.40000000000E+03 0. -1.
   -9000007    1    1    2    0  501 -0.14900223300E+03  0.23382412447E+03 -0.51816776060E+03  0.71089606466E+03  0.40000000000E+03 0.  1.
<mgrwt>
<rscale>  2 0.48669846E+03</rscale>
<asrwt>0</asrwt>
<pdfrwt beam="1">  1        1 0.12023582E+00 0.48669846E+03</pdfrwt>
<pdfrwt beam="2">  1       -1 0.69379390E-01 0.48669846E+03</pdfrwt>
<totfact> 0.50836490E+01</totfact>
</mgrwt>
</event>
<event>
 4    1  0.2488810E-002  0.4085166E+03  0.7818608E-02  0.1040870E+00
          2   -1    0    0  502    0  0.00000000000E+00  0.00000000000E+00  0.17511456060E+04  0.17511456060E+04  0.00000000000E+00 0.  1.
         -2   -1    0    0    0  501 -0.00000000000E+00 -0.00000000000E+00 -0.11733697479E+03  0.11733697479E+03  0.00000000000E+00 0. -1.
    9000007    1    1    2  502    0 -0.79587349136E+02  0.23487515730E+02  0.41204101533E+03  0.58022720365E+03  0.40000000000E+03 0. -1.
   -9000007    1    1    2    0  501  0.79587349136E+02 -0.23487515730E+02  0.12217676159E+04  0.12882553771E+04  0.40000000000E+03 0.  1.
<mgrwt>
<rscale>  2 0.40851660E+03</rscale>
<asrwt>0</asrwt>
<pdfrwt beam="1">  1        2 0.26940700E+00 0.40851660E+03</pdfrwt>
<pdfrwt beam="2">  1       -2 0.18051844E-01 0.40851660E+03</pdfrwt>
<totfact> 0.24725978E+02</totfact>
</mgrwt>
</event>
<event>
 4    1  0.2488810E-002  0.4957459E+03  0.7818608E-02  0.1014895E+00
         -2   -1    0    0    0  501 -0.00000000000E+00  0.00000000000E+00  0.23307108273E+03  0.23307108273E+03  0.00000000000E+00 0.  1.
          2   -1    0    0  502    0  0.00000000000E+00 -0.00000000000E+00 -0.22679589744E+04  0.22679589744E+04  0.00000000000E+00 0. -1.
    9000007    1    1    2  502    0 -0.45206326466E+02 -0.28934481273E+03 -0.19321701128E+04  0.19947544655E+04  0.40000000000E+03 0. -1.
   -9000007    1    1    2    0  501  0.45206326466E+02  0.28934481273E+03 -0.10271777883E+03  0.50627559164E+03  0.40000000000E+03 0.  1.
<mgrwt>
<rscale>  2 0.49574594E+03</rscale>
<asrwt>0</asrwt>
<pdfrwt beam="1">  1        2 0.34891674E+00 0.49574594E+03</pdfrwt>
<pdfrwt beam="2">  1       -2 0.35857092E-01 0.49574594E+03</pdfrwt>
<totfact> 0.37391051E+01</totfact>
</mgrwt>
</event>
<event>
 4    1  0.2488810E-002  0.4159129E+03  0.7818608E-02  0.1038405E+00
          2   -1    0    0  502    0  0.00000000000E+00  0.00000000000E+00  0.79385472956E+03  0.79385472956E+03  0.00000000000E+00 0. -1.
         -2   -1    0    0    0  501 -0.00000000000E+00 -0.00000000000E+00 -0.25925975300E+03  0.25925975300E+03  0.00000000000E+00 0.  1.
    9000007    1    1    2  502    0 -0.14025606096E+02 -0.11307889513E+03  0.56992412953E+02  0.41979958228E+03  0.40000000000E+03 0.  1.
   -9000007    1    1    2    0  501  0.14025606096E+02  0.11307889513E+03  0.47760256361E+03  0.63331490028E+03  0.40000000000E+03 0. -1.
<mgrwt>
<rscale>  2 0.41591292E+03</rscale>
<asrwt>0</asrwt>
<pdfrwt beam="1">  1        2 0.12213150E+00 0.41591292E+03</pdfrwt>
<pdfrwt beam="2">  1       -2 0.39886116E-01 0.41591292E+03</pdfrwt>
<totfact> 0.21351348E+02</totfact>
</mgrwt>
</event>
<event>
 4    1  0.2488810E-002  0.5264452E+03  0.7818608E-02  0.1007098E+00
          1   -1    0    0  502    0  0.00000000000E+00  0.00000000000E+00  0.60476128849E+03  0.60476128849E+03  0.00000000000E+00 0. -1.
         -1   -1    0    0    0  501 -0.00000000000E+00 -0.00000000000E+00 -0.93178218050E+03  0.93178218050E+03  0.00000000000E+00 0.  1.
    9000007    1    1    2  502    0 -0.23820326637E+03  0.24577181137E+03 -0.71118524765E+03  0.88483277282E+03  0.40000000000E+03 0.  1.
   -9000007    1    1    2    0  501  0.23820326637E+03 -0.24577181137E+03  0.38416435564E+03  0.65171069618E+03  0.40000000000E+03 0. -1.
<mgrwt>
<rscale>  2 0.52644523E+03</rscale>
<asrwt>0</asrwt>
<pdfrwt beam="1">  1        1 0.93040198E-01 0.52644523E+03</pdfrwt>
<pdfrwt beam="2">  1       -1 0.14335111E+00 0.52644523E+03</pdfrwt>
<totfact> 0.14160369E+01</totfact>
</mgrwt>
</event>
<event>
 4    1  0.2488810E-002  0.4324920E+03  0.7818608E-02  0.1033076E+00
         -2   -1    0    0    0  501 -0.00000000000E+00  0.00000000000E+00  0.15457183012E+03  0.15457183012E+03  0.00000000000E+00 0.  1.
          2   -1    0    0  502    0  0.00000000000E+00 -0.00000000000E+00 -0.12372541219E+04  0.12372541219E+04  0.00000000000E+00 0. -1.
    9000007    1    1    2  502    0 -0.47551342014E+02 -0.15744265785E+03 -0.64441357364E+03  0.77609160190E+03  0.40000000000E+03 0. -1.
   -9000007    1    1    2    0  501  0.47551342014E+02  0.15744265785E+03 -0.43826871815E+03  0.61573435014E+03  0.40000000000E+03 0. -1.
<mgrwt>
<rscale>  2 0.43249199E+03</rscale>
<asrwt>0</asrwt>
<pdfrwt beam="1">  1        2 0.19034679E+00 0.43249199E+03</pdfrwt>
<pdfrwt beam="2">  1       -2 0.23780282E-01 0.43249199E+03</pdfrwt>
<totfact> 0.29212671E+02</totfact>
</mgrwt>
</event>
<event>
 4    1  0.2488810E-002  0.5036192E+03  0.7818608E-02  0.1012839E+00
          2   -1    0    0  502    0  0.00000000000E+00  0.00000000000E+00  0.32898379720E+03  0.32898379720E+03  0.00000000000E+00 0.  1.
         -2   -1    0    0    0  501 -0.00000000000E+00 -0.00000000000E+00 -0.85467676313E+03  0.85467676313E+03  0.00000000000E+00 0. -1.
    9000007    1    1    2  502    0 -0.24693227201E+03 -0.18071176409E+03 -0.77616706844E+02  0.50956514973E+03  0.40000000000E+03 0.  1.
   -9000007    1    1    2    0  501  0.24693227201E+03  0.18071176409E+03 -0.44807625909E+03  0.67409541060E+03  0.40000000000E+03 0. -1.
<mgrwt>
<rscale>  2 0.50361919E+03</rscale>
<asrwt>0</asrwt>
<pdfrwt beam="1">  1        2 0.50612892E-01 0.50361919E+03</pdfrwt>
<pdfrwt beam="2">  1       -2 0.13148873E+00 0.50361919E+03</pdfrwt>
<totfact> 0.43051611E+01</totfact>
</mgrwt>
</event>
<event>
 4    1  0.2488810E-002  0.4120210E+03  0.7818608E-02  0.1039695E+00
          2   -1    0    0  502    0  0.00000000000E+00  0.00000000000E+00  0.24040494979E+04  0.24040494979E+04  0.00000000000E+00 0.  1.
         -2   -1    0    0    0  501 -0.00000000000E+00 -0.00000000000E+00 -0.84518425778E+02  0.84518425778E+02  0.00000000000E+00 0. -1.
    9000007    1    1    2  502    0  0.41389086623E+02  0.89712185044E+02  0.16644370133E+04  0.17146754515E+04  0.40000000000E+03 0.  1.
   -9000007    1    1    2    0  501 -0.41389086623E+02 -0.89712185044E+02  0.65509405883E+03  0.77389247221E+03  0.40000000000E+03 0. -1.
<mgrwt>
<rscale>  2 0.41202103E+03</rscale>
<asrwt>0</asrwt>
<pdfrwt beam="1">  1        2 0.36985372E+00 0.41202103E+03</pdfrwt>
<pdfrwt beam="2">  1       -2 0.13002837E-01 0.41202103E+03</pdfrwt>
<totfact> 0.19073614E+02</totfact>
</mgrwt>
</event>
<event>
 4    1  0.2488810E-002  0.6779705E+03  0.7818608E-02  0.9755665E-01
         -2   -1    0    0    0  501 -0.00000000000E+00  0.00000000000E+00  0.32244959328E+03  0.32244959328E+03  0.00000000000E+00 0.  1.
          2   -1    0    0  502    0  0.00000000000E+00 -0.00000000000E+00 -0.16858085686E+04  0.16858085686E+04  0.00000000000E+00 0. -1.
    9000007    1    1    2  502    0  0.50703055791E+03 -0.20631053134E+03 -0.28708590678E+03  0.73624883013E+03  0.40000000000E+03 0. -1.
   -9000007    1    1    2    0  501 -0.50703055791E+03  0.20631053134E+03 -0.10762730685E+04  0.12720093317E+04  0.40000000000E+03 0.  1.
<mgrwt>
<rscale>  2 0.67797052E+03</rscale>
<asrwt>0</asrwt>
<pdfrwt beam="1">  1        2 0.25935517E+00 0.67797052E+03</pdfrwt>
<pdfrwt beam="2">  1       -2 0.49607629E-01 0.67797052E+03</pdfrwt>
<totfact> 0.39734303E+01</totfact>
</mgrwt>
</event>
<event>
 4    1  0.2488810E-002  0.4384085E+03  0.7818608E-02  0.1031236E+00
          2   -1    0    0  502    0  0.00000000000E+00  0.00000000000E+00  0.19307364283E+04  0.19307364283E+04  0.00000000000E+00 0. -1.
         -2   -1    0    0    0  501 -0.00000000000E+00 -0.00000000000E+00 -0.10517219742E+03  0.10517219742E+03  0.00000000000E+00 0.  1.
    9000007    1    1    2  502    0  0.12582945271E+03  0.12794136710E+03  0.67739309551E+03  0.80688502925E+03  0.40000000000E+03 0. -1.
   -9000007    1    1    2    0  501 -0.12582945271E+03 -0.12794136710E+03  0.11481711354E+04  0.12290235965E+04  0.40000000000E+03 0. -1.
<mgrwt>
<rscale>  2 0.43840854E+03</rscale>
<asrwt>0</asrwt>
<pdfrwt beam="1">  1        2 0.29703635E+00 0.43840854E+03</pdfrwt>
<pdfrwt beam="2">  1       -2 0.16180339E-01 0.43840854E+03</pdfrwt>
<totfact> 0.23772471E+02</totfact>
</mgrwt>
</event>
<event>
 4    1  0.2488810E-002  0.4048210E+03  0.7818608E-02  0.1042123E+00
         -2   -1    0    0    0  501 -0.00000000000E+00  0.00000000000E+00  0.21498436289E+03  0.21498436289E+03  0.00000000000E+00 0.  1.
          2   -1    0    0  502    0  0.00000000000E+00 -0.00000000000E+00 -0.78236590110E+03  0.78236590110E+03  0.00000000000E+00 0. -1.
    9000007    1    1    2  502    0 -0.14593614163E+02 -0.60556557612E+02 -0.20380519204E+03  0.45322911043E+03  0.40000000000E+03 0.  1.
   -9000007    1    1    2    0  501  0.14593614163E+02  0.60556557612E+02 -0.36357634618E+03  0.54412115356E+03  0.40000000000E+03 0.  1.
<mgrwt>
<rscale>  2 0.40482103E+03</rscale>
<asrwt>0</asrwt>
<pdfrwt beam="1">  1        2 0.12036398E+00 0.40482103E+03</pdfrwt>
<pdfrwt beam="2">  1       -2 0.33074517E-01 0.40482103E+03</pdfrwt>
<totfact> 0.31070655E+02</totfact>
</mgrwt>
</event>
<event>
 4    1  0.2488810E-002  0.4530389E+03  0.7818608E-02  0.1026820E+00
         -2   -1    0    0    0  501 -0.00000000000E+00  0.00000000000E+00  0.38548263708E+03  0.38548263708E+03  0.00000000000E+00 0.  1.
          2   -1    0    0  502    0  0.00000000000E+00 -0.00000000000E+00 -0.54057478113E+03  0.54057478113E+03  0.00000000000E+00 0. -1.
    9000007    1    1    2  502    0 -0.17092825880E+03  0.12660088935E+03 -0.13436587858E+03  0.47254464780E+03  0.40000000000E+03 0.  1.
   -9000007    1    1    2    0  501  0.17092825880E+03 -0.12660088935E+03 -0.20726265467E+02  0.45351277040E+03  0.40000000000E+03 0. -1.
<mgrwt>
<rscale>  2 0.45303891E+03</rscale>
<asrwt>0</asrwt>
<pdfrwt beam="1">  1        2 0.83165350E-01 0.45303891E+03</pdfrwt>
<pdfrwt beam="2">  1       -2 0.59305021E-01 0.45303891E+03</pdfrwt>
<totfact> 0.15334011E+02</totfact>
</mgrwt>
</event>
<event>
 4    1  0.2488810E-002  0.7139926E+03  0.7818608E-02  0.9693598E-01
          2   -1    0    0  502    0  0.00000000000E+00  0.00000000000E+00  0.45763684693E+03  0.45763684693E+03  0.00000000000E+00 0.  1.
         -2   -1    0    0    0  501 -0.00000000000E+00 -0.00000000000E+00 -0.11927008219E+04  0.11927008219E+04  0.00000000000E+00 0. -1.
    9000007    1    1    2  502    0  0.59130224553E+03 -0.12126826725E+02 -0.15550089810E+03  0.73072972761E+03  0.40000000000E+03 0.  1.
   -9000007    1    1    2    0  501 -0.59130224553E+03  0.12126826725E+02 -0.57956307689E+03  0.91960794124E+03  0.40000000000E+03 0. -1.
<mgrwt>
<rscale>  2 0.71399258E+03</rscale>
<asrwt>0</asrwt>
<pdfrwt beam="1">  1        2 0.70405669E-01 0.71399258E+03</pdfrwt>
<pdfrwt beam="2">  1       -2 0.18349243E+00 0.71399258E+03</pdfrwt>
<totfact> 0.11943273E+01</totfact>
</mgrwt>
</event>
<event>
 4    1  0.2488810E-002  0.5667604E+03  0.7818608E-02  0.9976873E-01
         -1   -1    0    0    0  501 -0.00000000000E+00  0.00000000000E+00  0.36976064114E+03  0.36976064114E+03  0.00000000000E+00 0.  1.
          1   -1    0    0  502    0  0.00000000000E+00 -0.00000000000E+00 -0.17444686646E+04  0.17444686646E+04  0.00000000000E+00 0. -1.
    9000007    1    1    2  502    0  0.69635451930E+02 -0.39543421640E+03 -0.14363526331E+04  0.15441263557E+04  0.40000000000E+03 0. -1.
   -9000007    1    1    2    0  501 -0.69635451930E+02  0.39543421640E+03  0.61644609725E+02  0.57010294998E+03  0.40000000000E+03 0.  1.
<mgrwt>
<rscale>  2 0.56676037E+03</rscale>
<asrwt>0</asrwt>
<pdfrwt beam="1">  1        1 0.26837980E+00 0.56676037E+03</pdfrwt>
<pdfrwt beam="2">  1       -1 0.56886252E-01 0.56676037E+03</pdfrwt>
<totfact> 0.14906246E+01</totfact>
</mgrwt>
</event>
<event>
 4    1  0.2488810E-002  0.4541136E+03  0.7818608E-02  0.1026502E+00
          1   -1    0    0  502    0  0.00000000000E+00  0.00000000000E+00  0.18455461673E+04  0.18455461673E+04  0.00000000000E+00 0. -1.
         -1   -1    0    0    0  501 -0.00000000000E+00 -0.00000000000E+00 -0.11494724520E+03  0.11494724520E+03  0.00000000000E+00 0.  1.
    9000007    1    1    2  502    0  0.10269568205E+03 -0.18887232525E+03  0.70153042326E+03  0.83568181332E+03  0.40000000000E+03 0.  1.
   -9000007    1    1    2    0  501 -0.10269568205E+03  0.18887232525E+03  0.10290684988E+04  0.11248115992E+04  0.40000000000E+03 0.  1.
<mgrwt>
<rscale>  2 0.45411360E+03</rscale>
<asrwt>0</asrwt>
<pdfrwt beam="1">  1        1 0.28393016E+00 0.45411360E+03</pdfrwt>
<pdfrwt beam="2">  1       -1 0.17684193E-01 0.45411360E+03</pdfrwt>
<totfact> 0.10151519E+02</totfact>
</mgrwt>
</event>
<event>
 4    1  0.2488810E-002  0.1008594E+04  0.7818608E-02  0.9299168E-01
          2   -1    0    0  502    0  0.00000000000E+00  0.00000000000E+00  0.11369556636E+04  0.11369556636E+04  0.00000000000E+00 0.  1.
         -2   -1    0    0    0  501 -0.00000000000E+00 -0.00000000000E+00 -0.91824733827E+03  0.91824733827E+03  0.00000000000E+00 0. -1.
    9000007    1    1    2  502    0  0.25327261283E+03  0.89057050394E+03  0.27382301123E+03  0.10451037654E+04  0.40000000000E+03 0.  1.
   -9000007    1    1    2    0  501 -0.25327261283E+03 -0.89057050394E+03 -0.55114685947E+02  0.10100992365E+04  0.40000000000E+03 0. -1.
<mgrwt>
<rscale>  2 0.10085945E+04</rscale>
<asrwt>0</asrwt>
<pdfrwt beam="1">  1        2 0.17491626E+00 0.10085945E+04</pdfrwt>
<pdfrwt beam="2">  1       -2 0.14126882E+00 0.10085945E+04</pdfrwt>
<totfact> 0.71864611E+00</totfact>
</mgrwt>
</event>
<event>
 4    1  0.2488810E-002  0.5315694E+03  0.7818608E-02  0.1005852E+00
         -1   -1    0    0    0  501 -0.00000000000E+00  0.00000000000E+00  0.65323347149E+03  0.65323347149E+03  0.00000000000E+00 0.  1.
          1   -1    0    0  502    0  0.00000000000E+00 -0.00000000000E+00 -0.44767829829E+03  0.44767829829E+03  0.00000000000E+00 0. -1.
    9000007    1    1    2  502    0 -0.26408240593E+03  0.22984018521E+03  0.16389446575E+01  0.53157192740E+03  0.40000000000E+03 0. -1.
   -9000007    1    1    2    0  501  0.26408240593E+03 -0.22984018521E+03  0.20391622855E+03  0.56933984238E+03  0.40000000000E+03 0.  1.
<mgrwt>
<rscale>  2 0.53156940E+03</rscale>
<asrwt>0</asrwt>
<pdfrwt beam="1">  1        1 0.68873584E-01 0.53156940E+03</pdfrwt>
<pdfrwt beam="2">  1       -1 0.10049746E+00 0.53156940E+03</pdfrwt>
<totfact> 0.50685667E+01</totfact>
</mgrwt>
</event>
<event>
 4    1  0.2488810E-002  0.5364322E+03  0.7818608E-02  0.1004684E+00
          1   -1    0    0  502    0  0.00000000000E+00  0.00000000000E+00  0.57212323413E+03  0.57212323413E+03  0.00000000000E+00 0.  1.
         -1   -1    0    0    0  501 -0.00000000000E+00 -0.00000000000E+00 -0.54534007541E+03  0.54534007541E+03  0.00000000000E+00 0. -1.
    9000007    1    1    2  502    0  0.27890417502E+03  0.22354407004E+03  0.16913550914E+03  0.56246449714E+03  0.40000000000E+03 0.  1.
   -9000007    1    1    2    0  501 -0.27890417502E+03 -0.22354407004E+03 -0.14235235042E+03  0.55499881240E+03  0.40000000000E+03 0. -1.
<mgrwt>
<rscale>  2 0.53643219E+03</rscale>
<asrwt>0</asrwt>
<pdfrwt beam="1">  1        1 0.88018959E-01 0.53643219E+03</pdfrwt>
<pdfrwt beam="2">  1       -1 0.83898473E-01 0.53643219E+03</pdfrwt>
<totfact> 0.53894951E+01</totfact>
</mgrwt>
</event>
<event>
 4    1  0.2488810E-002  0.7299508E+03  0.7818608E-02  0.9667340E-01
          1   -1    0    0  502    0  0.00000000000E+00  0.00000000000E+00  0.69297003337E+03  0.69297003337E+03  0.00000000000E+00 0. -1.
         -1   -1    0    0    0  501 -0.00000000000E+00 -0.00000000000E+00 -0.79174604146E+03  0.79174604146E+03  0.00000000000E+00 0.  1.
    9000007    1    1    2  502    0  0.82547757576E+02 -0.60499094628E+03  0.76701134303E+02  0.73396950983E+03  0.40000000000E+03 0. -1.
   -9000007    1    1    2    0  501 -0.82547757576E+02  0.60499094628E+03 -0.17547714239E+03  0.75074656500E+03  0.40000000000E+03 0.  1.
<mgrwt>
<rscale>  2 0.72995080E+03</rscale>
<asrwt>0</asrwt>
<pdfrwt beam="1">  1        1 0.10661077E+00 0.72995080E+03</pdfrwt>
<pdfrwt beam="2">  1       -1 0.12180708E+00 0.72995080E+03</pdfrwt>
<totfact> 0.17006078E+01</totfact>
</mgrwt>
</event>
<event>
 4    1  0.2488810E-002  0.4682434E+03  0.7818608E-02  0.1022417E+00
         -1   -1    0    0    0  501 -0.00000000000E+00  0.00000000000E+00  0.21703797916E+04  0.21703797916E+04  0.00000000000E+00 0. -1.
          1   -1    0    0  502    0  0.00000000000E+00 -0.00000000000E+00 -0.11763653230E+03  0.11763653230E+03  0.00000000000E+00 0.  1.
    9000007    1    1    2  502    0 -0.21001152871E+03  0.12307335210E+03  0.14563310390E+04  0.15297555319E+04  0.40000000000E+03 0.  1.
   -9000007    1    1    2    0  501  0.21001152871E+03 -0.12307335210E+03  0.59641222030E+03  0.75826079202E+03  0.40000000000E+03 0.  1.
<mgrwt>
<rscale>  2 0.46824341E+03</rscale>
<asrwt>0</asrwt>
<pdfrwt beam="1">  1        1 0.18097930E-01 0.46824341E+03</pdfrwt>
<pdfrwt beam="2">  1       -1 0.33390455E+00 0.46824341E+03</pdfrwt>
<totfact> 0.65407180E+00</totfact>
</mgrwt>
</event>
<event>
 4    1  0.2488810E-002  0.4674291E+03  0.7818608E-02  0.1022648E+00
          2   -1    0    0  502    0  0.00000000000E+00  0.00000000000E+00  0.16189967142E+04  0.16189967142E+04  0.00000000000E+00 0. -1.
         -2   -1    0    0    0  501 -0.00000000000E+00 -0.00000000000E+00 -0.42748444092E+03  0.42748444092E+03  0.00000000000E+00 0.  1.
    9000007    1    1    2  502    0 -0.21824140266E+03 -0.10421455688E+03  0.14422097752E+04  0.15160669574E+04  0.40000000000E+03 0. -1.
   -9000007    1    1    2    0  501  0.21824140266E+03  0.10421455688E+03 -0.25069750188E+03  0.53041419773E+03  0.40000000000E+03 0.  1.
<mgrwt>
<rscale>  2 0.46742912E+03</rscale>
<asrwt>0</asrwt>
<pdfrwt beam="1">  1        2 0.24907641E+00 0.46742912E+03</pdfrwt>
<pdfrwt beam="2">  1       -2 0.65766838E-01 0.46742912E+03</pdfrwt>
<totfact> 0.24831190E+01</totfact>
</mgrwt>
</event>
<event>
 4    1  0.2488810E-002  0.4543090E+03  0.7818608E-02  0.1026445E+00
         -1   -1    0    0    0  501 -0.00000000000E+00  0.00000000000E+00  0.18386046659E+03  0.18386046659E+03  0.00000000000E+00 0. -1.
          1   -1    0    0  502    0  0.00000000000E+00 -0.00000000000E+00 -0.13091074314E+04  0.13091074314E+04  0.00000000000E+00 0.  1.
    9000007    1    1    2  502    0 -0.17692428525E+03  0.12285959790E+03 -0.28084161488E+03  0.53410551032E+03  0.40000000000E+03 0. -1.
   -9000007    1    1    2    0  501  0.17692428525E+03 -0.12285959790E+03 -0.84440534997E+03  0.95886238771E+03  0.40000000000E+03 0.  1.
<mgrwt>
<rscale>  2 0.45430902E+03</rscale>
<asrwt>0</asrwt>
<pdfrwt beam="1">  1        1 0.20140113E+00 0.45430902E+03</pdfrwt>
<pdfrwt beam="2">  1       -1 0.28286227E-01 0.45430902E+03</pdfrwt>
<totfact> 0.10628066E+02</totfact>
</mgrwt>
</event>
<event>
 4    1  0.2488810E-002  0.4086596E+03  0.7818608E-02  0.1040822E+00
          1   -1    0    0  502    0  0.00000000000E+00  0.00000000000E+00  0.11316416497E+04  0.11316416497E+04  0.00000000000E+00 0.  1.
         -1   -1    0    0    0  501 -0.00000000000E+00 -0.00000000000E+00 -0.15110084715E+03  0.15110084715E+03  0.00000000000E+00 0. -1.
    9000007    1    1    2  502    0 -0.25607289990E+02 -0.79667456115E+02  0.58823609332E+03  0.71625717333E+03  0.40000000000E+03 0.  1.
   -9000007    1    1    2    0  501  0.25607289990E+02  0.79667456115E+02  0.39230470921E+03  0.56648532349E+03  0.40000000000E+03 0. -1.
<mgrwt>
<rscale>  2 0.40865956E+03</rscale>
<asrwt>0</asrwt>
<pdfrwt beam="1">  1        1 0.17409871E+00 0.40865956E+03</pdfrwt>
<pdfrwt beam="2">  1       -1 0.23246285E-01 0.40865956E+03</pdfrwt>
<totfact> 0.19910348E+02</totfact>
</mgrwt>
</event>
<event>
 4    1  0.2488810E-002  0.4497466E+03  0.7818608E-02  0.1027798E+00
         -2   -1    0    0    0  501 -0.00000000000E+00  0.00000000000E+00  0.14767897152E+03  0.14767897152E+03  0.00000000000E+00 0.  1.
          2   -1    0    0  502    0  0.00000000000E+00 -0.00000000000E+00 -0.16160336328E+04  0.16160336328E+04  0.00000000000E+00 0. -1.
    9000007    1    1    2  502    0  0.15396582957E+03 -0.13625888841E+03 -0.38986076767E+03  0.59520028521E+03  0.40000000000E+03 0. -1.
   -9000007    1    1    2    0  501 -0.15396582957E+03  0.13625888841E+03 -0.10784938936E+04  0.11685123191E+04  0.40000000000E+03 0.  1.
<mgrwt>
<rscale>  2 0.44974655E+03</rscale>
<asrwt>0</asrwt>
<pdfrwt beam="1">  1        2 0.24862057E+00 0.44974655E+03</pdfrwt>
<pdfrwt beam="2">  1       -2 0.22719840E-01 0.44974655E+03</pdfrwt>
<totfact> 0.19494991E+02</totfact>
</mgrwt>
</event>
<event>
 4    1  0.2488810E-002  0.4540115E+03  0.7818608E-02  0.1026532E+00
         -1   -1    0    0    0  501 -0.00000000000E+00  0.00000000000E+00  0.35319237004E+03  0.35319237004E+03  0.00000000000E+00 0. -1.
          1   -1    0    0  502    0  0.00000000000E+00 -0.00000000000E+00 -0.16022284525E+04  0.16022284525E+04  0.00000000000E+00 0.  1.
    9000007    1    1    2  502    0 -0.11796028980E+03 -0.17947647972E+03 -0.14040858327E+04  0.14756637362E+04  0.40000000000E+03 0.  1.
   -9000007    1    1    2    0  501  0.11796028980E+03  0.17947647972E+03  0.15504975032E+03  0.47975708626E+03  0.40000000000E+03 0. -1.
<mgrwt>
<rscale>  2 0.45401149E+03</rscale>
<asrwt>0</asrwt>
<pdfrwt beam="1">  1        1 0.24649669E+00 0.45401149E+03</pdfrwt>
<pdfrwt beam="2">  1       -1 0.54337287E-01 0.45401149E+03</pdfrwt>
<totfact> 0.20737747E+01</totfact>
</mgrwt>
</event>
<event>
 4    1  0.2488810E-002  0.4702252E+03  0.7818608E-02  0.1021857E+00
         -2   -1    0    0    0  501 -0.00000000000E+00  0.00000000000E+00  0.81579762719E+03  0.81579762719E+03  0.00000000000E+00 0.  1.
          2   -1    0    0  502    0  0.00000000000E+00 -0.00000000000E+00 -0.29041540759E+03  0.29041540759E+03  0.00000000000E+00 0. -1.
    9000007    1    1    2  502    0  0.23523044532E+03 -0.76015421677E+02  0.40556503458E+03  0.62096272353E+03  0.40000000000E+03 0.  1.
   -9000007    1    1    2    0  501 -0.23523044532E+03  0.76015421677E+02  0.11981718502E+03  0.48525031125E+03  0.40000000000E+03 0. -1.
<mgrwt>
<rscale>  2 0.47022517E+03</rscale>
<asrwt>0</asrwt>
<pdfrwt beam="1">  1        2 0.44679294E-01 0.47022517E+03</pdfrwt>
<pdfrwt beam="2">  1       -2 0.12550733E+00 0.47022517E+03</pdfrwt>
<totfact> 0.55656318E+01</totfact>
</mgrwt>
</event>
<event>
 4    1  0.2488810E-002  0.4697756E+03  0.7818608E-02  0.1021984E+00
         -2   -1    0    0    0  501 -0.00000000000E+00  0.00000000000E+00  0.13422644115E+04  0.13422644115E+04  0.00000000000E+00 0.  1.
          2   -1    0    0  502    0  0.00000000000E+00 -0.00000000000E+00 -0.16730034071E+03  0.16730034071E+03  0.00000000000E+00 0. -1.
    9000007    1    1    2  502    0 -0.23289915902E+03 -0.80293745262E+02  0.48836858266E+03  0.67763779140E+03  0.40000000000E+03 0. -1.
   -9000007    1    1    2    0  501  0.23289915902E+03  0.80293745262E+02  0.68659548809E+03  0.83192696077E+03  0.40000000000E+03 0.  1.
<mgrwt>
<rscale>  2 0.46977559E+03</rscale>
<asrwt>0</asrwt>
<pdfrwt beam="1">  1        2 0.25738515E-01 0.46977559E+03</pdfrwt>
<pdfrwt beam="2">  1       -2 0.20650221E+00 0.46977559E+03</pdfrwt>
<totfact> 0.26681038E+01</totfact>
</mgrwt>
</event>
<event>
 4    1  0.2488810E-002  0.4250364E+03  0.7818608E-02  0.1035439E+00
         -2   -1    0    0    0  501 -0.00000000000E+00  0.00000000000E+00  0.12037001349E+03  0.12037001349E+03  0.00000000000E+00 0. -1.
          2   -1    0    0  502    0  0.00000000000E+00 -0.00000000000E+00 -0.15051037036E+04  0.15051037036E+04  0.00000000000E+00 0.  1.
    9000007    1    1    2  502    0  0.14123410662E+03  0.26624847044E+02 -0.64910205749E+03  0.77587978218E+03  0.40000000000E+03 0.  1.
   -9000007    1    1    2    0  501 -0.14123410662E+03 -0.26624847044E+02 -0.73563163267E+03  0.84959393497E+03  0.40000000000E+03 0.  1.
<mgrwt>
<rscale>  2 0.42503642E+03</rscale>
<asrwt>0</asrwt>
<pdfrwt beam="1">  1        2 0.23155441E+00 0.42503642E+03</pdfrwt>
<pdfrwt beam="2">  1       -2 0.18518464E-01 0.42503642E+03</pdfrwt>
<totfact> 0.32055869E+02</totfact>
</mgrwt>
</event>
<event>
 4    1  0.2488810E-002  0.4005241E+03  0.7818608E-02  0.1043598E+00
          2   -1    0    0  502    0  0.00000000000E+00  0.00000000000E+00  0.77692767265E+03  0.77692767265E+03  0.00000000000E+00 0.  1.
         -2   -1    0    0    0  501 -0.00000000000E+00 -0.00000000000E+00 -0.29282764047E+03  0.29282764047E+03  0.00000000000E+00 0. -1.
    9000007    1    1    2  502    0 -0.96362303270E+01 -0.18075519256E+02  0.53250250249E+03  0.66631711406E+03  0.40000000000E+03 0.  1.
   -9000007    1    1    2    0  501  0.96362303270E+01  0.18075519256E+02 -0.48402470300E+02  0.40343819906E+03  0.40000000000E+03 0. -1.
<mgrwt>
<rscale>  2 0.40052413E+03</rscale>
<asrwt>0</asrwt>
<pdfrwt beam="1">  1        2 0.11952733E+00 0.40052413E+03</pdfrwt>
<pdfrwt beam="2">  1       -2 0.45050407E-01 0.40052413E+03</pdfrwt>
<totfact> 0.17332398E+02</totfact>
</mgrwt>
</event>
<event>
 4    1  0.2488810E-002  0.4195810E+03  0.7818608E-02  0.1037203E+00
          2   -1    0    0  502    0  0.00000000000E+00  0.00000000000E+00  0.17188536875E+04  0.17188536875E+04  0.00000000000E+00 0.  1.
         -2   -1    0    0    0  501 -0.00000000000E+00 -0.00000000000E+00 -0.24167832091E+03  0.24167832091E+03  0.00000000000E+00 0. -1.
    9000007    1    1    2  502    0 -0.12413844741E+03  0.25255666013E+02 -0.55148118935E+01  0.41961722551E+03  0.40000000000E+03 0. -1.
   -9000007    1    1    2    0  501  0.12413844741E+03 -0.25255666013E+02  0.14826901784E+04  0.15409147829E+04  0.40000000000E+03 0.  1.
<mgrwt>
<rscale>  2 0.41958098E+03</rscale>
<asrwt>0</asrwt>
<pdfrwt beam="1">  1        2 0.26443902E+00 0.41958098E+03</pdfrwt>
<pdfrwt beam="2">  1       -2 0.37181281E-01 0.41958098E+03</pdfrwt>
<totfact> 0.69968279E+01</totfact>
</mgrwt>
</event>
<event>
 4    1  0.2488810E-002  0.4288549E+03  0.7818608E-02  0.1034222E+00
         -1   -1    0    0    0  501 -0.00000000000E+00  0.00000000000E+00  0.51496824208E+02  0.51496824208E+02  0.00000000000E+00 0. -1.
          1   -1    0    0  502    0  0.00000000000E+00 -0.00000000000E+00 -0.37121070752E+04  0.37121070752E+04  0.00000000000E+00 0.  1.
    9000007    1    1    2  502    0  0.14365984424E+03  0.57257152071E+02 -0.14639532424E+04  0.15254755417E+04  0.40000000000E+03 0. -1.
   -9000007    1    1    2    0  501 -0.14365984424E+03 -0.57257152071E+02 -0.21966570086E+04  0.22381283578E+04  0.40000000000E+03 0.  1.
<mgrwt>
<rscale>  2 0.42885491E+03</rscale>
<asrwt>0</asrwt>
<pdfrwt beam="1">  1        1 0.57109355E+00 0.42885491E+03</pdfrwt>
<pdfrwt beam="2">  1       -1 0.79225862E-02 0.42885491E+03</pdfrwt>
<totfact> 0.17794015E+01</totfact>
</mgrwt>
</event>
<event>
 4    1  0.2488810E-002  0.4198816E+03  0.7818608E-02  0.1037105E+00
          2   -1    0    0  502    0  0.00000000000E+00  0.00000000000E+00  0.20528726875E+04  0.20528726875E+04  0.00000000000E+00 0. -1.
         -2   -1    0    0    0  501 -0.00000000000E+00 -0.00000000000E+00 -0.85957653340E+02  0.85957653340E+02  0.00000000000E+00 0.  1.
    9000007    1    1    2  502    0  0.68970736859E+02  0.10744131435E+03  0.95130381565E+03  0.10398459252E+04  0.40000000000E+03 0. -1.
   -9000007    1    1    2    0  501 -0.68970736859E+02 -0.10744131435E+03  0.10156112185E+04  0.10989844156E+04  0.40000000000E+03 0. -1.
<mgrwt>
<rscale>  2 0.41988165E+03</rscale>
<asrwt>0</asrwt>
<pdfrwt beam="1">  1        2 0.31582653E+00 0.41988165E+03</pdfrwt>
<pdfrwt beam="2">  1       -2 0.13224256E-01 0.41988165E+03</pdfrwt>
<totfact> 0.28718650E+02</totfact>
</mgrwt>
</event>
<event>
 4    1  0.2488810E-002  0.4405020E+03  0.7818608E-02  0.1030593E+00
          4   -1    0    0  502    0  0.00000000000E+00  0.00000000000E+00  0.41276475163E+03  0.41276475163E+03  0.00000000000E+00 0. -1.
         -4   -1    0    0    0  501 -0.00000000000E+00 -0.00000000000E+00 -0.12861451768E+04  0.12861451768E+04  0.00000000000E+00 0.  1.
    9000007    1    1    2  502    0 -0.23549359403E+02 -0.18299570828E+03  0.23994038094E+03  0.50161079333E+03  0.40000000000E+03 0. -1.
   -9000007    1    1    2    0  501  0.23549359403E+02  0.18299570828E+03 -0.11133208061E+04  0.11972991351E+04  0.40000000000E+03 0.  1.
<mgrwt>
<rscale>  2 0.44050199E+03</rscale>
<asrwt>0</asrwt>
<pdfrwt beam="1">  1        4 0.63502269E-01 0.44050199E+03</pdfrwt>
<pdfrwt beam="2">  1       -4 0.19786849E+00 0.44050199E+03</pdfrwt>
<totfact> 0.62543843E-01</totfact>
</mgrwt>
</event>
<event>
 4    1  0.2488810E-002  0.4510798E+03  0.7818608E-02  0.1027401E+00
          2   -1    0    0  502    0  0.00000000000E+00  0.00000000000E+00  0.92906437154E+03  0.92906437154E+03  0.00000000000E+00 0. -1.
         -2   -1    0    0    0  501 -0.00000000000E+00 -0.00000000000E+00 -0.22691657869E+03  0.22691657869E+03  0.00000000000E+00 0.  1.
    9000007    1    1    2  502    0 -0.20219012676E+03 -0.50913153391E+02  0.45897428189E+03  0.64352963256E+03  0.40000000000E+03 0. -1.
   -9000007    1    1    2    0  501  0.20219012676E+03  0.50913153391E+02  0.24317351096E+03  0.51245131767E+03  0.40000000000E+03 0.  1.
<mgrwt>
<rscale>  2 0.45107981E+03</rscale>
<asrwt>0</asrwt>
<pdfrwt beam="1">  1        2 0.14293298E+00 0.45107981E+03</pdfrwt>
<pdfrwt beam="2">  1       -2 0.34910243E-01 0.45107981E+03</pdfrwt>
<totfact> 0.22231677E+02</totfact>
</mgrwt>
</event>
<event>
 4    1  0.2488810E-002  0.6023766E+03  0.7818608E-02  0.9900488E-01
          2   -1    0    0  502    0  0.00000000000E+00  0.00000000000E+00  0.15923607932E+03  0.15923607932E+03  0.00000000000E+00 0. -1.
         -2   -1    0    0    0  501 -0.00000000000E+00 -0.00000000000E+00 -0.24064396301E+04  0.24064396301E+04  0.00000000000E+00 0.  1.
    9000007    1    1    2  502    0 -0.41238663207E+03  0.18109349873E+03 -0.82808682178E+03  0.10240045771E+04  0.40000000000E+03 0. -1.
   -9000007    1    1    2    0  501  0.41238663207E+03 -0.18109349873E+03 -0.14191167290E+04  0.15416711323E+04  0.40000000000E+03 0. -1.
<mgrwt>
<rscale>  2 0.60237662E+03</rscale>
<asrwt>0</asrwt>
<pdfrwt beam="1">  1        2 0.24497858E-01 0.60237662E+03</pdfrwt>
<pdfrwt beam="2">  1       -2 0.37022149E+00 0.60237662E+03</pdfrwt>
<totfact> 0.28060083E+00</totfact>
</mgrwt>
</event>
<event>
 4    1  0.2488810E-002  0.4419304E+03  0.7818608E-02  0.1030156E+00
         -2   -1    0    0    0  501 -0.00000000000E+00  0.00000000000E+00  0.39837933375E+03  0.39837933375E+03  0.00000000000E+00 0.  1.
          2   -1    0    0  502    0  0.00000000000E+00 -0.00000000000E+00 -0.49024598553E+03  0.49024598553E+03  0.00000000000E+00 0. -1.
    9000007    1    1    2  502    0  0.17477297883E+03 -0.68970169569E+02 -0.44747706221E+02  0.44419008953E+03  0.40000000000E+03 0.  1.
   -9000007    1    1    2    0  501 -0.17477297883E+03  0.68970169569E+02 -0.47118945562E+02  0.44443522976E+03  0.40000000000E+03 0. -1.
<mgrwt>
<rscale>  2 0.44193040E+03</rscale>
<asrwt>0</asrwt>
<pdfrwt beam="1">  1        2 0.75422459E-01 0.44193040E+03</pdfrwt>
<pdfrwt beam="2">  1       -2 0.61289129E-01 0.44193040E+03</pdfrwt>
<totfact> 0.16026060E+02</totfact>
</mgrwt>
</event>
<event>
 4    1  0.2488810E-002  0.4336961E+03  0.7818608E-02  0.1032699E+00
          1   -1    0    0  502    0  0.00000000000E+00  0.00000000000E+00  0.13515455234E+04  0.13515455234E+04  0.00000000000E+00 0. -1.
         -1   -1    0    0    0  501 -0.00000000000E+00 -0.00000000000E+00 -0.14119105510E+03  0.14119105510E+03  0.00000000000E+00 0.  1.
    9000007    1    1    2  502    0  0.18863467215E+02  0.16654276098E+03  0.51584278670E+03  0.67393330695E+03  0.40000000000E+03 0. -1.
   -9000007    1    1    2    0  501 -0.18863467215E+02 -0.16654276098E+03  0.69451168165E+03  0.81880327160E+03  0.40000000000E+03 0.  1.
<mgrwt>
<rscale>  2 0.43369612E+03</rscale>
<asrwt>0</asrwt>
<pdfrwt beam="1">  1        1 0.20793007E+00 0.43369612E+03</pdfrwt>
<pdfrwt beam="2">  1       -1 0.21721702E-01 0.43369612E+03</pdfrwt>
<totfact> 0.15551182E+02</totfact>
</mgrwt>
</event>
<event>
 4    1  0.2488810E-002  0.4048120E+03  0.7818608E-02  0.1042126E+00
         -1   -1    0    0    0  501 -0.00000000000E+00  0.00000000000E+00  0.36408680925E+03  0.36408680925E+03  0.00000000000E+00 0. -1.
          1   -1    0    0  502    0  0.00000000000E+00 -0.00000000000E+00 -0.48693540662E+03  0.48693540662E+03  0.00000000000E+00 0.  1.
    9000007    1    1    2  502    0  0.61273589436E+02 -0.10876409271E+02  0.55620483095E+02  0.40861520674E+03  0.40000000000E+03 0. -1.
   -9000007    1    1    2    0  501 -0.61273589436E+02  0.10876409271E+02 -0.17846908046E+03  0.44240700912E+03  0.40000000000E+03 0.  1.
<mgrwt>
<rscale>  2 0.40481199E+03</rscale>
<asrwt>0</asrwt>
<pdfrwt beam="1">  1        1 0.74913140E-01 0.40481199E+03</pdfrwt>
<pdfrwt beam="2">  1       -1 0.56013355E-01 0.40481199E+03</pdfrwt>
<totfact> 0.15438481E+02</totfact>
</mgrwt>
</event>
<event>
 4    1  0.2488810E-002  0.4727168E+03  0.7818608E-02  0.1021156E+00
         -2   -1    0    0    0  501 -0.00000000000E+00  0.00000000000E+00  0.19857362744E+03  0.19857362744E+03  0.00000000000E+00 0.  1.
          2   -1    0    0  502    0  0.00000000000E+00 -0.00000000000E+00 -0.11320011192E+04  0.11320011192E+04  0.00000000000E+00 0. -1.
    9000007    1    1    2  502    0 -0.23850671036E+03  0.81090536729E+02 -0.41564659647E+03  0.62946264320E+03  0.40000000000E+03 0. -1.
   -9000007    1    1    2    0  501  0.23850671036E+03 -0.81090536729E+02 -0.51778089526E+03  0.70111210340E+03  0.40000000000E+03 0. -1.
<mgrwt>
<rscale>  2 0.47271675E+03</rscale>
<asrwt>0</asrwt>
<pdfrwt beam="1">  1        2 0.17415402E+00 0.47271675E+03</pdfrwt>
<pdfrwt beam="2">  1       -2 0.30549789E-01 0.47271675E+03</pdfrwt>
<totfact> 0.21304515E+02</totfact>
</mgrwt>
</event>
<event>
 4    1  0.2488810E-002  0.4297650E+03  0.7818608E-02  0.1033934E+00
          2   -1    0    0  502    0  0.00000000000E+00  0.00000000000E+00  0.18807852168E+04  0.18807852168E+04  0.00000000000E+00 0. -1.
         -2   -1    0    0    0  501 -0.00000000000E+00 -0.00000000000E+00 -0.12142189480E+03  0.12142189480E+03  0.00000000000E+00 0.  1.
    9000007    1    1    2  502    0 -0.31877821960E+02  0.15388879117E+03  0.13174609649E+04  0.13857854631E+04  0.40000000000E+03 0. -1.
   -9000007    1    1    2    0  501  0.31877821960E+02 -0.15388879117E+03  0.44190235707E+03  0.61642164852E+03  0.40000000000E+03 0.  1.
<mgrwt>
<rscale>  2 0.42976500E+03</rscale>
<asrwt>0</asrwt>
<pdfrwt beam="1">  1        2 0.28935155E+00 0.42976500E+03</pdfrwt>
<pdfrwt beam="2">  1       -2 0.18680293E-01 0.42976500E+03</pdfrwt>
<totfact> 0.19819041E+02</totfact>
</mgrwt>
</event>
<event>
 4    1  0.2488810E-002  0.4117833E+03  0.7818608E-02  0.1039774E+00
          1   -1    0    0  502    0  0.00000000000E+00  0.00000000000E+00  0.16161851725E+04  0.16161851725E+04  0.00000000000E+00 0.  1.
         -1   -1    0    0    0  501 -0.00000000000E+00 -0.00000000000E+00 -0.12288750620E+03  0.12288750620E+03  0.00000000000E+00 0. -1.
    9000007    1    1    2  502    0  0.80842911201E+02 -0.55044436487E+02  0.41413265418E+03  0.58401311761E+03  0.40000000000E+03 0. -1.
   -9000007    1    1    2    0  501 -0.80842911201E+02  0.55044436487E+02  0.10791650122E+04  0.11550595611E+04  0.40000000000E+03 0.  1.
<mgrwt>
<rscale>  2 0.41178328E+03</rscale>
<asrwt>0</asrwt>
<pdfrwt beam="1">  1        1 0.24864386E+00 0.41178328E+03</pdfrwt>
<pdfrwt beam="2">  1       -1 0.18905771E-01 0.41178328E+03</pdfrwt>
<totfact> 0.12998623E+02</totfact>
</mgrwt>
</event>
<event>
 4    1  0.2488810E-002  0.4862579E+03  0.7818608E-02  0.1017429E+00
         -1   -1    0    0    0  501 -0.00000000000E+00  0.00000000000E+00  0.23479285043E+03  0.23479285043E+03  0.00000000000E+00 0.  1.
          1   -1    0    0  502    0  0.00000000000E+00 -0.00000000000E+00 -0.10656708607E+04  0.10656708607E+04  0.00000000000E+00 0. -1.
    9000007    1    1    2  502    0  0.21609506059E+03  0.17248100119E+03 -0.26292687380E+03  0.55279047744E+03  0.40000000000E+03 0. -1.
   -9000007    1    1    2    0  501 -0.21609506059E+03 -0.17248100119E+03 -0.56795113651E+03  0.74767323374E+03  0.40000000000E+03 0.  1.
<mgrwt>
<rscale>  2 0.48625793E+03</rscale>
<asrwt>0</asrwt>
<pdfrwt beam="1">  1        1 0.16394936E+00 0.48625793E+03</pdfrwt>
<pdfrwt beam="2">  1       -1 0.36121978E-01 0.48625793E+03</pdfrwt>
<totfact> 0.10332358E+02</totfact>
</mgrwt>
</event>
<event>
 4    1  0.2488810E-002  0.6419133E+03  0.7818608E-02  0.9822073E-01
          2   -1    0    0  502    0  0.00000000000E+00  0.00000000000E+00  0.75369697508E+03  0.75369697508E+03  0.00000000000E+00 0. -1.
         -2   -1    0    0    0  501 -0.00000000000E+00 -0.00000000000E+00 -0.61383558050E+03  0.61383558050E+03  0.00000000000E+00 0.  1.
    9000007    1    1    2  502    0 -0.45836916701E+03  0.20481797966E+03 -0.15618455701E+03  0.66064083578E+03  0.40000000000E+03 0. -1.
   -9000007    1    1    2    0  501  0.45836916701E+03 -0.20481797966E+03  0.29604595159E+03  0.70689171979E+03  0.40000000000E+03 0. -1.
<mgrwt>
<rscale>  2 0.64191331E+03</rscale>
<asrwt>0</asrwt>
<pdfrwt beam="1">  1        2 0.11595338E+00 0.64191331E+03</pdfrwt>
<pdfrwt beam="2">  1       -2 0.94436243E-01 0.64191331E+03</pdfrwt>
<totfact> 0.36044792E+01</totfact>
</mgrwt>
</event>
<event>
 4    1  0.2488810E-002  0.6702032E+03  0.7818608E-02  0.9769591E-01
          2   -1    0    0  502    0  0.00000000000E+00  0.00000000000E+00  0.20070559526E+04  0.20070559526E+04  0.00000000000E+00 0. -1.
         -2   -1    0    0    0  501 -0.00000000000E+00 -0.00000000000E+00 -0.56832442418E+03  0.56832442418E+03  0.00000000000E+00 0.  1.
    9000007    1    1    2  502    0  0.89253883044E+02  0.53028872640E+03 -0.28322880654E+03  0.72759256857E+03  0.40000000000E+03 0.  1.
   -9000007    1    1    2    0  501 -0.89253883044E+02 -0.53028872640E+03  0.17219603350E+04  0.18477878082E+04  0.40000000000E+03 0. -1.
<mgrwt>
<rscale>  2 0.67020324E+03</rscale>
<asrwt>0</asrwt>
<pdfrwt beam="1">  1        2 0.30877784E+00 0.67020324E+03</pdfrwt>
<pdfrwt beam="2">  1       -2 0.87434528E-01 0.67020324E+03</pdfrwt>
<totfact> 0.78505732E+00</totfact>
</mgrwt>
</event>
<event>
 4    1  0.2488810E-002  0.7399862E+03  0.7818608E-02  0.9651193E-01
         -2   -1    0    0    0  501 -0.00000000000E+00  0.00000000000E+00  0.41715271679E+03  0.41715271679E+03  0.00000000000E+00 0.  1.
          2   -1    0    0  502    0  0.00000000000E+00 -0.00000000000E+00 -0.13585244651E+04  0.13585244651E+04  0.00000000000E+00 0. -1.
    9000007    1    1    2  502    0  0.33189726079E+03  0.52671040134E+03 -0.63381780710E+03  0.97432266278E+03  0.40000000000E+03 0.  1.
   -9000007    1    1    2    0  501 -0.33189726079E+03 -0.52671040134E+03 -0.30755394124E+03  0.80135451916E+03  0.40000000000E+03 0. -1.
<mgrwt>
<rscale>  2 0.73998624E+03</rscale>
<asrwt>0</asrwt>
<pdfrwt beam="1">  1        2 0.20900376E+00 0.73998624E+03</pdfrwt>
<pdfrwt beam="2">  1       -2 0.64177341E-01 0.73998624E+03</pdfrwt>
<totfact> 0.35048842E+01</totfact>
</mgrwt>
</event>
<event>
 4    1  0.2488810E-002  0.4027956E+03  0.7818608E-02  0.1042816E+00
         -2   -1    0    0    0  501 -0.00000000000E+00  0.00000000000E+00  0.48424068467E+02  0.48424068467E+02  0.00000000000E+00 0.  1.
          2   -1    0    0  502    0  0.00000000000E+00 -0.00000000000E+00 -0.34357126081E+04  0.34357126081E+04  0.00000000000E+00 0. -1.
    9000007    1    1    2  502    0  0.23679283644E+01  0.47314645500E+02 -0.14192733380E+04  0.14753240630E+04  0.40000000000E+03 0.  1.
   -9000007    1    1    2    0  501 -0.23679283644E+01 -0.47314645500E+02 -0.19680152016E+04  0.20088126136E+04  0.40000000000E+03 0. -1.
<mgrwt>
<rscale>  2 0.40279558E+03</rscale>
<asrwt>0</asrwt>
<pdfrwt beam="1">  1        2 0.52857125E+00 0.40279558E+03</pdfrwt>
<pdfrwt beam="2">  1       -2 0.74498555E-02 0.40279558E+03</pdfrwt>
<totfact> 0.11359781E+02</totfact>
</mgrwt>
</event>
<event>
 4    1  0.2488810E-002  0.4017579E+03  0.7818608E-02  0.1043173E+00
          2   -1    0    0  502    0  0.00000000000E+00  0.00000000000E+00  0.11492439955E+04  0.11492439955E+04  0.00000000000E+00 0. -1.
         -2   -1    0    0    0  501 -0.00000000000E+00 -0.00000000000E+00 -0.20019950993E+03  0.20019950993E+03  0.00000000000E+00 0.  1.
    9000007    1    1    2  502    0 -0.32014794206E+02 -0.19608492066E+02  0.84313157230E+03  0.93395946818E+03  0.40000000000E+03 0. -1.
   -9000007    1    1    2    0  501  0.32014794206E+02  0.19608492066E+02  0.10591291328E+03  0.41548403725E+03  0.40000000000E+03 0.  1.
<mgrwt>
<rscale>  2 0.40175794E+03</rscale>
<asrwt>0</asrwt>
<pdfrwt beam="1">  1        2 0.17680677E+00 0.40175794E+03</pdfrwt>
<pdfrwt beam="2">  1       -2 0.30799925E-01 0.40175794E+03</pdfrwt>
<totfact> 0.20653380E+02</totfact>
</mgrwt>
</event>
<event>
 4    1  0.2488810E-002  0.4690702E+03  0.7818608E-02  0.1022183E+00
         -1   -1    0    0    0  501 -0.00000000000E+00  0.00000000000E+00  0.10463806366E+03  0.10463806366E+03  0.00000000000E+00 0. -1.
          1   -1    0    0  502    0  0.00000000000E+00 -0.00000000000E+00 -0.23416394611E+04  0.23416394611E+04  0.00000000000E+00 0.  1.
    9000007    1    1    2  502    0 -0.17028046172E+03 -0.17615740991E+03 -0.15091808354E+04  0.15803966789E+04  0.40000000000E+03 0. -1.
   -9000007    1    1    2    0  501  0.17028046172E+03  0.17615740991E+03 -0.72782056201E+03  0.86588084584E+03  0.40000000000E+03 0. -1.
<mgrwt>
<rscale>  2 0.46907022E+03</rscale>
<asrwt>0</asrwt>
<pdfrwt beam="1">  1        1 0.36025222E+00 0.46907022E+03</pdfrwt>
<pdfrwt beam="2">  1       -1 0.16098164E-01 0.46907022E+03</pdfrwt>
<totfact> 0.55381301E+01</totfact>
</mgrwt>
</event>
<event>
 4    1  0.2488810E-002  0.4823088E+03  0.7818608E-02  0.1018503E+00
          4   -1    0    0  502    0  0.00000000000E+00  0.00000000000E+00  0.26273934435E+03  0.26273934435E+03  0.00000000000E+00 0.  1.
         -4   -1    0    0    0  501 -0.00000000000E+00 -0.00000000000E+00 -0.10407777716E+04  0.10407777716E+04  0.00000000000E+00 0. -1.
    9000007    1    1    2  502    0  0.40499308745E+02 -0.26642375016E+03 -0.13716881623E+03  0.50143503348E+03  0.40000000000E+03 0. -1.
   -9000007    1    1    2    0  501 -0.40499308745E+02  0.26642375016E+03 -0.64086961101E+03  0.80208208245E+03  0.40000000000E+03 0.  1.
<mgrwt>
<rscale>  2 0.48230883E+03</rscale>
<asrwt>0</asrwt>
<pdfrwt beam="1">  1        4 0.40421437E-01 0.48230883E+03</pdfrwt>
<pdfrwt beam="2">  1       -4 0.16011966E+00 0.48230883E+03</pdfrwt>
<totfact> 0.29254363E+00</totfact>
</mgrwt>
</event>
<event>
 4    1  0.2488810E-002  0.5162881E+03  0.7818608E-02  0.1009613E+00
          1   -1    0    0  502    0  0.00000000000E+00  0.00000000000E+00  0.16508427611E+04  0.16508427611E+04  0.00000000000E+00 0.  1.
         -1   -1    0    0    0  501 -0.00000000000E+00 -0.00000000000E+00 -0.16896763515E+03  0.16896763515E+03  0.00000000000E+00 0. -1.
    9000007    1    1    2  502    0  0.10723938626E+03 -0.30830690875E+03  0.54920345523E+03  0.75377574330E+03  0.40000000000E+03 0. -1.
   -9000007    1    1    2    0  501 -0.10723938626E+03  0.30830690875E+03  0.93267167073E+03  0.10660346530E+04  0.40000000000E+03 0.  1.
<mgrwt>
<rscale>  2 0.51628813E+03</rscale>
<asrwt>0</asrwt>
<pdfrwt beam="1">  1        1 0.25397580E+00 0.51628813E+03</pdfrwt>
<pdfrwt beam="2">  1       -1 0.25995022E-01 0.51628813E+03</pdfrwt>
<totfact> 0.71285173E+01</totfact>
</mgrwt>
</event>
<event>
 4    1  0.2488810E-002  0.4154657E+03  0.7818608E-02  0.1038552E+00
         -2   -1    0    0    0  501 -0.00000000000E+00  0.00000000000E+00  0.97834735971E+02  0.97834735971E+02  0.00000000000E+00 0. -1.
          2   -1    0    0  502    0  0.00000000000E+00 -0.00000000000E+00 -0.17699759673E+04  0.17699759673E+04  0.00000000000E+00 0.  1.
    9000007    1    1    2  502    0 -0.16275199152E+02  0.11111644391E+03 -0.88886484062E+03  0.98116892078E+03  0.40000000000E+03 0. -1.
   -9000007    1    1    2    0  501  0.16275199152E+02 -0.11111644391E+03 -0.78327639069E+03  0.88664178248E+03  0.40000000000E+03 0.  1.
<mgrwt>
<rscale>  2 0.41546570E+03</rscale>
<asrwt>0</asrwt>
<pdfrwt beam="1">  1        2 0.27230399E+00 0.41546570E+03</pdfrwt>
<pdfrwt beam="2">  1       -2 0.15051498E-01 0.41546570E+03</pdfrwt>
<totfact> 0.32821711E+02</totfact>
</mgrwt>
</event>
<event>
 4    1  0.2488810E-002  0.4495007E+03  0.7818608E-02  0.1027871E+00
         -4   -1    0    0    0  501 -0.00000000000E+00  0.00000000000E+00  0.29493211820E+03  0.29493211820E+03  0.00000000000E+00 0. -1.
          4   -1    0    0  502    0  0.00000000000E+00 -0.00000000000E+00 -0.83382364394E+03  0.83382364394E+03  0.00000000000E+00 0.  1.
    9000007    1    1    2  502    0 -0.17104854123E+02  0.20434858823E+03 -0.31072302427E+02  0.45057342301E+03  0.40000000000E+03 0.  1.
   -9000007    1    1    2    0  501  0.17104854123E+02 -0.20434858823E+03 -0.50781922331E+03  0.67818233913E+03  0.40000000000E+03 0.  1.
<mgrwt>
<rscale>  2 0.44950075E+03</rscale>
<asrwt>0</asrwt>
<pdfrwt beam="1">  1        4 0.12828056E+00 0.44950075E+03</pdfrwt>
<pdfrwt beam="2">  1       -4 0.45374173E-01 0.44950075E+03</pdfrwt>
<totfact> 0.41084700E+00</totfact>
</mgrwt>
</event>
<event>
 4    1  0.2488810E-002  0.4156863E+03  0.7818608E-02  0.1038479E+00
         -2   -1    0    0    0  501 -0.00000000000E+00  0.00000000000E+00  0.21550038510E+03  0.21550038510E+03  0.00000000000E+00 0. -1.
          2   -1    0    0  502    0  0.00000000000E+00 -0.00000000000E+00 -0.11713735582E+04  0.11713735582E+04  0.00000000000E+00 0.  1.
    9000007    1    1    2  502    0  0.11128751112E+03  0.20253112684E+02 -0.86742177283E+03  0.96188129760E+03  0.40000000000E+03 0.  1.
   -9000007    1    1    2    0  501 -0.11128751112E+03 -0.20253112684E+02 -0.88451400295E+02  0.42499264572E+03  0.40000000000E+03 0. -1.
<mgrwt>
<rscale>  2 0.41568630E+03</rscale>
<asrwt>0</asrwt>
<pdfrwt beam="1">  1        2 0.18021131E+00 0.41568630E+03</pdfrwt>
<pdfrwt beam="2">  1       -2 0.33153907E-01 0.41568630E+03</pdfrwt>
<totfact> 0.17455200E+02</totfact>
</mgrwt>
</event>
<event>
 4    1  0.2488810E-002  0.4018353E+03  0.7818608E-02  0.1043146E+00
          2   -1    0    0  502    0  0.00000000000E+00  0.00000000000E+00  0.10986151797E+04  0.10986151797E+04  0.00000000000E+00 0.  1.
         -2   -1    0    0    0  501 -0.00000000000E+00 -0.00000000000E+00 -0.43896322148E+03  0.43896322148E+03  0.00000000000E+00 0. -1.
    9000007    1    1    2  502    0 -0.32606033076E+02  0.20211092884E+02  0.95683539393E+03  0.10377888093E+04  0.40000000000E+03 0.  1.
   -9000007    1    1    2    0  501  0.32606033076E+02 -0.20211092884E+02 -0.29718343571E+03  0.49978959186E+03  0.40000000000E+03 0. -1.
<mgrwt>
<rscale>  2 0.40183534E+03</rscale>
<asrwt>0</asrwt>
<pdfrwt beam="1">  1        2 0.16901772E+00 0.40183534E+03</pdfrwt>
<pdfrwt beam="2">  1       -2 0.67532803E-01 0.40183534E+03</pdfrwt>
<totfact> 0.46593512E+01</totfact>
</mgrwt>
</event>
<event>
 4    1  0.2488810E-002  0.5379612E+03  0.7818608E-02  0.1004319E+00
          2   -1    0    0  502    0  0.00000000000E+00  0.00000000000E+00  0.11505671409E+04  0.11505671409E+04  0.00000000000E+00 0.  1.
         -2   -1    0    0    0  501 -0.00000000000E+00 -0.00000000000E+00 -0.28543474445E+03  0.28543474445E+03  0.00000000000E+00 0. -1.
    9000007    1    1    2  502    0  0.13836127522E+03  0.33205183875E+03  0.18510836600E+03  0.56891772100E+03  0.40000000000E+03 0. -1.
   -9000007    1    1    2    0  501 -0.13836127522E+03 -0.33205183875E+03  0.68002403047E+03  0.86708416438E+03  0.40000000000E+03 0.  1.
<mgrwt>
<rscale>  2 0.53796121E+03</rscale>
<asrwt>0</asrwt>
<pdfrwt beam="1">  1        2 0.17701033E+00 0.53796121E+03</pdfrwt>
<pdfrwt beam="2">  1       -2 0.43913038E-01 0.53796121E+03</pdfrwt>
<totfact> 0.10321711E+02</totfact>
</mgrwt>
</event>
<event>
 4    1  0.2488810E-002  0.5115669E+03  0.7818608E-02  0.1010803E+00
         -1   -1    0    0    0  501 -0.00000000000E+00  0.00000000000E+00  0.96945883587E+02  0.96945883587E+02  0.00000000000E+00 0.  1.
          1   -1    0    0  502    0  0.00000000000E+00 -0.00000000000E+00 -0.26994520231E+04  0.26994520231E+04  0.00000000000E+00 0. -1.
    9000007    1    1    2  502    0 -0.14236036073E+03  0.28536681834E+03 -0.13019671812E+04  0.13988635510E+04  0.40000000000E+03 0. -1.
   -9000007    1    1    2    0  501  0.14236036073E+03 -0.28536681834E+03 -0.13005389584E+04  0.13975343558E+04  0.40000000000E+03 0.  1.
<mgrwt>
<rscale>  2 0.51156690E+03</rscale>
<asrwt>0</asrwt>
<pdfrwt beam="1">  1        1 0.41530025E+00 0.51156690E+03</pdfrwt>
<pdfrwt beam="2">  1       -1 0.14914753E-01 0.51156690E+03</pdfrwt>
<totfact> 0.35567449E+01</totfact>
</mgrwt>
</event>
<event>
 4    1  0.2488810E-002  0.4459682E+03  0.7818608E-02  0.1028931E+00
          1   -1    0    0  502    0  0.00000000000E+00  0.00000000000E+00  0.17729506773E+04  0.17729506773E+04  0.00000000000E+00 0.  1.
         -1   -1    0    0    0  501 -0.00000000000E+00 -0.00000000000E+00 -0.12949871286E+03  0.12949871286E+03  0.00000000000E+00 0. -1.
    9000007    1    1    2  502    0  0.25087844559E+02  0.19559703661E+03  0.47385165076E+03  0.65070960313E+03  0.40000000000E+03 0.  1.
   -9000007    1    1    2    0  501 -0.25087844559E+02 -0.19559703661E+03  0.11696003137E+04  0.12517397871E+04  0.40000000000E+03 0.  1.
<mgrwt>
<rscale>  2 0.44596816E+03</rscale>
<asrwt>0</asrwt>
<pdfrwt beam="1">  1        1 0.27276163E+00 0.44596816E+03</pdfrwt>
<pdfrwt beam="2">  1       -1 0.19922880E-01 0.44596816E+03</pdfrwt>
<totfact> 0.93355659E+01</totfact>
</mgrwt>
</event>
<event>
 4    1  0.2488810E-002  0.4249125E+03  0.7818608E-02  0.1035479E+00
         -1   -1    0    0    0  501 -0.00000000000E+00  0.00000000000E+00  0.50593225295E+03  0.50593225295E+03  0.00000000000E+00 0. -1.
          1   -1    0    0  502    0  0.00000000000E+00 -0.00000000000E+00 -0.38927523692E+03  0.38927523692E+03  0.00000000000E+00 0.  1.
    9000007    1    1    2  502    0  0.12618944980E+03  0.68020781351E+02 -0.70820770367E+02  0.43077393776E+03  0.40000000000E+03 0.  1.
   -9000007    1    1    2    0  501 -0.12618944980E+03 -0.68020781351E+02  0.18747778639E+03  0.46443355211E+03  0.40000000000E+03 0.  1.
<mgrwt>
<rscale>  2 0.42491247E+03</rscale>
<asrwt>0</asrwt>
<pdfrwt beam="1">  1        1 0.59888498E-01 0.42491247E+03</pdfrwt>
<pdfrwt beam="2">  1       -1 0.77835731E-01 0.42491247E+03</pdfrwt>
<totfact> 0.10739851E+02</totfact>
</mgrwt>
</event>
<event>
 4    1  0.2488810E-002  0.6186391E+03  0.7818608E-02  0.9867473E-01
          1   -1    0    0  502    0  0.00000000000E+00  0.00000000000E+00  0.11667009809E+04  0.11667009809E+04  0.00000000000E+00 0. -1.
         -1   -1    0    0    0  501 -0.00000000000E+00 -0.00000000000E+00 -0.51071703890E+03  0.51071703890E+03  0.00000000000E+00 0.  1.
    9000007    1    1    2  502    0 -0.22391147858E+03  0.41542499503E+03 -0.17362661966E+03  0.64254220078E+03  0.40000000000E+03 0. -1.
   -9000007    1    1    2    0  501  0.22391147858E+03 -0.41542499503E+03  0.82961056163E+03  0.10348758190E+04  0.40000000000E+03 0. -1.
<mgrwt>
<rscale>  2 0.61863905E+03</rscale>
<asrwt>0</asrwt>
<pdfrwt beam="1">  1        1 0.17949246E+00 0.61863905E+03</pdfrwt>
<pdfrwt beam="2">  1       -1 0.78571852E-01 0.61863905E+03</pdfrwt>
<totfact> 0.19243133E+01</totfact>
</mgrwt>
</event>
<event>
 4    1  0.2488810E-002  0.5742664E+03  0.7818608E-02  0.9960282E-01
         -1   -1    0    0    0  501 -0.00000000000E+00  0.00000000000E+00  0.46853416275E+03  0.46853416275E+03  0.00000000000E+00 0.  1.
          1   -1    0    0  502    0  0.00000000000E+00 -0.00000000000E+00 -0.81816801960E+03  0.81816801960E+03  0.00000000000E+00 0. -1.
    9000007    1    1    2  502    0 -0.26967945857E+03  0.31153642216E+03 -0.41529040494E+03  0.70869462616E+03  0.40000000000E+03 0. -1.
   -9000007    1    1    2    0  501  0.26967945857E+03 -0.31153642216E+03  0.65656548095E+02  0.57800755619E+03  0.40000000000E+03 0.  1.
<mgrwt>
<rscale>  2 0.57426645E+03</rscale>
<asrwt>0</asrwt>
<pdfrwt beam="1">  1        1 0.12587200E+00 0.57426645E+03</pdfrwt>
<pdfrwt beam="2">  1       -1 0.72082180E-01 0.57426645E+03</pdfrwt>
<totfact> 0.43230577E+01</totfact>
</mgrwt>
</event>
<event>
 4    1  0.2488810E-002  0.5497910E+03  0.7818608E-02  0.1001542E+00
         -2   -1    0    0    0  501 -0.00000000000E+00  0.00000000000E+00  0.10848903258E+03  0.10848903258E+03  0.00000000000E+00 0.  1.
          2   -1    0    0  502    0  0.00000000000E+00 -0.00000000000E+00 -0.28308527225E+04  0.28308527225E+04  0.00000000000E+00 0. -1.
    9000007    1    1    2  502    0 -0.35214194189E+03 -0.13515240385E+03 -0.11765629753E+04  0.12986803126E+04  0.40000000000E+03 0. -1.
   -9000007    1    1    2    0  501  0.35214194189E+03  0.13515240385E+03 -0.15458007147E+04  0.16406614425E+04  0.40000000000E+03 0. -1.
<mgrwt>
<rscale>  2 0.54979098E+03</rscale>
<asrwt>0</asrwt>
<pdfrwt beam="1">  1        2 0.43551569E+00 0.54979098E+03</pdfrwt>
<pdfrwt beam="2">  1       -2 0.16690625E-01 0.54979098E+03</pdfrwt>
<totfact> 0.70032790E+01</totfact>
</mgrwt>
</event>
<event>
 4    1  0.2488810E-002  0.4507409E+03  0.7818608E-02  0.1027501E+00
          3   -1    0    0  502    0  0.00000000000E+00  0.00000000000E+00  0.11469199306E+04  0.11469199306E+04  0.00000000000E+00 0.  1.
         -3   -1    0    0    0  501 -0.00000000000E+00 -0.00000000000E+00 -0.26179228115E+03  0.26179228115E+03  0.00000000000E+00 0. -1.
    9000007    1    1    2  502    0 -0.68213116947E+01  0.20765548078E+03  0.42039519543E+02  0.45269708437E+03  0.40000000000E+03 0. -1.
   -9000007    1    1    2    0  501  0.68213116947E+01 -0.20765548078E+03  0.84308812994E+03  0.95601512741E+03  0.40000000000E+03 0.  1.
<mgrwt>
<rscale>  2 0.45074087E+03</rscale>
<asrwt>0</asrwt>
<pdfrwt beam="1">  1        3 0.17644922E+00 0.45074087E+03</pdfrwt>
<pdfrwt beam="2">  1       -3 0.40275736E-01 0.45074087E+03</pdfrwt>
<totfact> 0.33951915E+00</totfact>
</mgrwt>
</event>
<event>
 4    1  0.2488810E-002  0.4420883E+03  0.7818608E-02  0.1030108E+00
         -2   -1    0    0    0  501 -0.00000000000E+00  0.00000000000E+00  0.18667474823E+03  0.18667474823E+03  0.00000000000E+00 0. -1.
          2   -1    0    0  502    0  0.00000000000E+00 -0.00000000000E+00 -0.11355380065E+04  0.11355380065E+04  0.00000000000E+00 0.  1.
    9000007    1    1    2  502    0  0.18794431557E+03 -0.10908299946E+02 -0.28979430029E+03  0.52860457172E+03  0.40000000000E+03 0.  1.
   -9000007    1    1    2    0  501 -0.18794431557E+03  0.10908299946E+02 -0.65906895796E+03  0.79360818299E+03  0.40000000000E+03 0.  1.
<mgrwt>
<rscale>  2 0.44208829E+03</rscale>
<asrwt>0</asrwt>
<pdfrwt beam="1">  1        2 0.17469816E+00 0.44208829E+03</pdfrwt>
<pdfrwt beam="2">  1       -2 0.28719192E-01 0.44208829E+03</pdfrwt>
<totfact> 0.23821769E+02</totfact>
</mgrwt>
</event>
<event>
 4    1  0.2488810E-002  0.4033468E+03  0.7818608E-02  0.1042627E+00
         -1   -1    0    0    0  501 -0.00000000000E+00  0.00000000000E+00  0.12312772122E+03  0.12312772122E+03  0.00000000000E+00 0. -1.
          1   -1    0    0  502    0  0.00000000000E+00 -0.00000000000E+00 -0.15504753868E+04  0.15504753868E+04  0.00000000000E+00 0.  1.
    9000007    1    1    2  502    0  0.30756551017E+02  0.41745239200E+02 -0.10353910021E+04  0.11111809743E+04  0.40000000000E+03 0.  1.
   -9000007    1    1    2    0  501 -0.30756551017E+02 -0.41745239200E+02 -0.39195666343E+03  0.56242213366E+03  0.40000000000E+03 0. -1.
<mgrwt>
<rscale>  2 0.40334679E+03</rscale>
<asrwt>0</asrwt>
<pdfrwt beam="1">  1        1 0.23853470E+00 0.40334679E+03</pdfrwt>
<pdfrwt beam="2">  1       -1 0.18942725E-01 0.40334679E+03</pdfrwt>
<totfact> 0.14352288E+02</totfact>
</mgrwt>
</event>
<event>
 4    1  0.2488810E-002  0.4557040E+03  0.7818608E-02  0.1026035E+00
         -2   -1    0    0    0  501 -0.00000000000E+00  0.00000000000E+00  0.33772178201E+03  0.33772178201E+03  0.00000000000E+00 0.  1.
          2   -1    0    0  502    0  0.00000000000E+00 -0.00000000000E+00 -0.62882895312E+03  0.62882895312E+03  0.00000000000E+00 0. -1.
    9000007    1    1    2  502    0 -0.16968557197E+03 -0.13737873323E+03 -0.21747233337E+03  0.50493596174E+03  0.40000000000E+03 0.  1.
   -9000007    1    1    2    0  501  0.16968557197E+03  0.13737873323E+03 -0.73634837736E+02  0.46161477339E+03  0.40000000000E+03 0. -1.
<mgrwt>
<rscale>  2 0.45570397E+03</rscale>
<asrwt>0</asrwt>
<pdfrwt beam="1">  1        2 0.96742916E-01 0.45570397E+03</pdfrwt>
<pdfrwt beam="2">  1       -2 0.51957197E-01 0.45570397E+03</pdfrwt>
<totfact> 0.16847391E+02</totfact>
</mgrwt>
</event>
<event>
 4    1  0.2488810E-002  0.4737812E+03  0.7818608E-02  0.1020858E+00
          2   -1    0    0  502    0  0.00000000000E+00  0.00000000000E+00  0.15727942573E+04  0.15727942573E+04  0.00000000000E+00 0.  1.
         -2   -1    0    0    0  501 -0.00000000000E+00 -0.00000000000E+00 -0.15232047359E+03  0.15232047359E+03  0.00000000000E+00 0. -1.
    9000007    1    1    2  502    0  0.24388986141E+03 -0.70613857316E+02  0.92678980023E+03  0.10408688271E+04  0.40000000000E+03 0.  1.
   -9000007    1    1    2    0  501 -0.24388986141E+03  0.70613857316E+02  0.49368398348E+03  0.68424590381E+03  0.40000000000E+03 0.  1.
<mgrwt>
<rscale>  2 0.47378115E+03</rscale>
<asrwt>0</asrwt>
<pdfrwt beam="1">  1        2 0.24196834E+00 0.47378115E+03</pdfrwt>
<pdfrwt beam="2">  1       -2 0.23433920E-01 0.47378115E+03</pdfrwt>
<totfact> 0.19420342E+02</totfact>
</mgrwt>
</event>
<event>
 4    1  0.2488810E-002  0.7991681E+03  0.7818608E-02  0.9561222E-01
         -2   -1    0    0    0  501 -0.00000000000E+00  0.00000000000E+00  0.10220899214E+04  0.10220899214E+04  0.00000000000E+00 0. -1.
          2   -1    0    0  502    0  0.00000000000E+00 -0.00000000000E+00 -0.62702041544E+03  0.62702041544E+03  0.00000000000E+00 0.  1.
    9000007    1    1    2  502    0  0.60769902972E+03  0.33071357953E+03  0.14920551819E+03  0.81297716393E+03  0.40000000000E+03 0. -1.
   -9000007    1    1    2    0  501 -0.60769902972E+03 -0.33071357953E+03  0.24586398781E+03  0.83613317295E+03  0.40000000000E+03 0. -1.
<mgrwt>
<rscale>  2 0.79916806E+03</rscale>
<asrwt>0</asrwt>
<pdfrwt beam="1">  1        2 0.96464679E-01 0.79916806E+03</pdfrwt>
<pdfrwt beam="2">  1       -2 0.15724460E+00 0.79916806E+03</pdfrwt>
<totfact> 0.12539450E+01</totfact>
</mgrwt>
</event>
<event>
 4    1  0.2488810E-002  0.4430115E+03  0.7818608E-02  0.1029827E+00
          2   -1    0    0  502    0  0.00000000000E+00  0.00000000000E+00  0.78880870614E+03  0.78880870614E+03  0.00000000000E+00 0.  1.
         -2   -1    0    0    0  501 -0.00000000000E+00 -0.00000000000E+00 -0.28512847026E+03  0.28512847026E+03  0.00000000000E+00 0. -1.
    9000007    1    1    2  502    0 -0.56740536255E+02 -0.18176832787E+03  0.44349717139E+03  0.62685640660E+03  0.40000000000E+03 0.  1.
   -9000007    1    1    2    0  501  0.56740536255E+02  0.18176832787E+03  0.60183064497E+02  0.44708076980E+03  0.40000000000E+03 0. -1.
<mgrwt>
<rscale>  2 0.44301153E+03</rscale>
<asrwt>0</asrwt>
<pdfrwt beam="1">  1        2 0.12135518E+00 0.44301153E+03</pdfrwt>
<pdfrwt beam="2">  1       -2 0.43865919E-01 0.44301153E+03</pdfrwt>
<totfact> 0.17843166E+02</totfact>
</mgrwt>
</event>
<event>
 4    1  0.2488810E-002  0.5214937E+03  0.7818608E-02  0.1008316E+00
         -2   -1    0    0    0  501 -0.00000000000E+00  0.00000000000E+00  0.12523896488E+03  0.12523896488E+03  0.00000000000E+00 0. -1.
          2   -1    0    0  502    0  0.00000000000E+00 -0.00000000000E+00 -0.24361111949E+04  0.24361111949E+04  0.00000000000E+00 0.  1.
    9000007    1    1    2  502    0 -0.43169338175E+02  0.33180133369E+03 -0.15775202892E+04  0.16614830663E+04  0.40000000000E+03 0.  1.
   -9000007    1    1    2    0  501  0.43169338175E+02 -0.33180133369E+03 -0.73335194074E+03  0.89986709340E+03  0.40000000000E+03 0. -1.
<mgrwt>
<rscale>  2 0.52149374E+03</rscale>
<asrwt>0</asrwt>
<pdfrwt beam="1">  1        2 0.37478634E+00 0.52149374E+03</pdfrwt>
<pdfrwt beam="2">  1       -2 0.19267533E-01 0.52149374E+03</pdfrwt>
<totfact> 0.92469867E+01</totfact>
</mgrwt>
</event>
<event>
 4    1  0.2488810E-002  0.4092959E+03  0.7818608E-02  0.1040608E+00
          1   -1    0    0  502    0  0.00000000000E+00  0.00000000000E+00  0.28362484372E+04  0.28362484372E+04  0.00000000000E+00 0. -1.
         -1   -1    0    0    0  501 -0.00000000000E+00 -0.00000000000E+00 -0.95828047044E+02  0.95828047044E+02  0.00000000000E+00 0.  1.
    9000007    1    1    2  502    0  0.86570245723E+02 -0.53598050013E+01  0.22782491464E+04  0.23147229441E+04  0.40000000000E+03 0. -1.
   -9000007    1    1    2    0  501 -0.86570245723E+02  0.53598050013E+01  0.46217124377E+03  0.61735354014E+03  0.40000000000E+03 0.  1.
<mgrwt>
<rscale>  2 0.40929590E+03</rscale>
<asrwt>0</asrwt>
<pdfrwt beam="1">  1        1 0.43634585E+00 0.40929590E+03</pdfrwt>
<pdfrwt beam="2">  1       -1 0.14742779E-01 0.40929590E+03</pdfrwt>
<totfact> 0.29841295E+01</totfact>
</mgrwt>
</event>
<event>
 4    1  0.2488810E-002  0.4519965E+03  0.7818608E-02  0.1027128E+00
          2   -1    0    0  502    0  0.00000000000E+00  0.00000000000E+00  0.36808723933E+04  0.36808723933E+04  0.00000000000E+00 0.  1.
         -2   -1    0    0    0  501 -0.00000000000E+00 -0.00000000000E+00 -0.55537272382E+02  0.55537272382E+02  0.00000000000E+00 0. -1.
    9000007    1    1    2  502    0 -0.34503598726E+02  0.20763036406E+03  0.17665176700E+04  0.18234268685E+04  0.40000000000E+03 0.  1.
   -9000007    1    1    2    0  501  0.34503598726E+02 -0.20763036406E+03  0.18588174509E+04  0.19129827972E+04  0.40000000000E+03 0.  1.
<mgrwt>
<rscale>  2 0.45199653E+03</rscale>
<asrwt>0</asrwt>
<pdfrwt beam="1">  1        2 0.56628787E+00 0.45199653E+03</pdfrwt>
<pdfrwt beam="2">  1       -2 0.85441986E-02 0.45199653E+03</pdfrwt>
<totfact> 0.61431887E+01</totfact>
</mgrwt>
</event>
<event>
 4    1  0.2488810E-002  0.4075180E+03  0.7818608E-02  0.1041207E+00
         -2   -1    0    0    0  501 -0.00000000000E+00  0.00000000000E+00  0.10273425387E+03  0.10273425387E+03  0.00000000000E+00 0.  1.
          2   -1    0    0  502    0  0.00000000000E+00 -0.00000000000E+00 -0.17578086318E+04  0.17578086318E+04  0.00000000000E+00 0. -1.
    9000007    1    1    2  502    0  0.43141509705E+02  0.64882534528E+02 -0.10912875752E+04  0.11648946326E+04  0.40000000000E+03 0. -1.
   -9000007    1    1    2    0  501 -0.43141509705E+02 -0.64882534528E+02 -0.56378680270E+03  0.69564825310E+03  0.40000000000E+03 0.  1.
<mgrwt>
<rscale>  2 0.40751802E+03</rscale>
<asrwt>0</asrwt>
<pdfrwt beam="1">  1        2 0.27043208E+00 0.40751802E+03</pdfrwt>
<pdfrwt beam="2">  1       -2 0.15805271E-01 0.40751802E+03</pdfrwt>
<totfact> 0.30725245E+02</totfact>
</mgrwt>
</event>
<event>
 4    1  0.2488810E-002  0.4528521E+03  0.7818608E-02  0.1026875E+00
         -1   -1    0    0    0  501 -0.00000000000E+00  0.00000000000E+00  0.45216954587E+03  0.45216954587E+03  0.00000000000E+00 0.  1.
          1   -1    0    0  502    0  0.00000000000E+00 -0.00000000000E+00 -0.59108797462E+03  0.59108797462E+03  0.00000000000E+00 0. -1.
    9000007    1    1    2  502    0  0.20854030183E+03  0.39823782781E+02  0.18217488659E+03  0.48812158369E+03  0.40000000000E+03 0.  1.
   -9000007    1    1    2    0  501 -0.20854030183E+03 -0.39823782781E+02 -0.32109331535E+03  0.55513593680E+03  0.40000000000E+03 0. -1.
<mgrwt>
<rscale>  2 0.45285206E+03</rscale>
<asrwt>0</asrwt>
<pdfrwt beam="1">  1        1 0.90936611E-01 0.45285206E+03</pdfrwt>
<pdfrwt beam="2">  1       -1 0.69564546E-01 0.45285206E+03</pdfrwt>
<totfact> 0.76772230E+01</totfact>
</mgrwt>
</event>
<event>
 4    1  0.2488810E-002  0.4995191E+03  0.7818608E-02  0.1013905E+00
          1   -1    0    0  502    0  0.00000000000E+00  0.00000000000E+00  0.18262303584E+04  0.18262303584E+04  0.00000000000E+00 0. -1.
         -1   -1    0    0    0  501 -0.00000000000E+00 -0.00000000000E+00 -0.14482880668E+03  0.14482880668E+03  0.00000000000E+00 0.  1.
    9000007    1    1    2  502    0  0.28984640516E+03 -0.74218644294E+02  0.60622613756E+03  0.78551223772E+03  0.40000000000E+03 0.  1.
   -9000007    1    1    2    0  501 -0.28984640516E+03  0.74218644294E+02  0.10751754142E+04  0.11855469273E+04  0.40000000000E+03 0. -1.
<mgrwt>
<rscale>  2 0.49951911E+03</rscale>
<asrwt>0</asrwt>
<pdfrwt beam="1">  1        1 0.28095850E+00 0.49951911E+03</pdfrwt>
<pdfrwt beam="2">  1       -1 0.22281356E-01 0.49951911E+03</pdfrwt>
<totfact> 0.70856631E+01</totfact>
</mgrwt>
</event>
<event>
 4    1  0.2488810E-002  0.4116776E+03  0.7818608E-02  0.1039810E+00
         -2   -1    0    0    0  501 -0.00000000000E+00  0.00000000000E+00  0.92315937558E+02  0.92315937558E+02  0.00000000000E+00 0. -1.
          2   -1    0    0  502    0  0.00000000000E+00 -0.00000000000E+00 -0.20710161098E+04  0.20710161098E+04  0.00000000000E+00 0.  1.
    9000007    1    1    2  502    0  0.83211470046E+02 -0.50539657087E+02 -0.62485901034E+03  0.74828282653E+03  0.40000000000E+03 0. -1.
   -9000007    1    1    2    0  501 -0.83211470046E+02  0.50539657087E+02 -0.13538411619E+04  0.14150492208E+04  0.40000000000E+03 0.  1.
<mgrwt>
<rscale>  2 0.41167755E+03</rscale>
<asrwt>0</asrwt>
<pdfrwt beam="1">  1        2 0.31861784E+00 0.41167755E+03</pdfrwt>
<pdfrwt beam="2">  1       -2 0.14202453E-01 0.41167755E+03</pdfrwt>
<totfact> 0.24979615E+02</totfact>
</mgrwt>
</event>
<event>
 4    1  0.2488810E-002  0.6518024E+03  0.7818608E-02  0.9803403E-01
          3   -1    0    0  502    0  0.00000000000E+00  0.00000000000E+00  0.10134631338E+04  0.10134631338E+04  0.00000000000E+00 0. -1.
         -3   -1    0    0    0  501 -0.00000000000E+00 -0.00000000000E+00 -0.46630678840E+03  0.46630678840E+03  0.00000000000E+00 0.  1.
    9000007    1    1    2  502    0  0.38387399326E+03 -0.34276395802E+03  0.38421056373E+02  0.65293380307E+03  0.40000000000E+03 0.  1.
   -9000007    1    1    2    0  501 -0.38387399326E+03  0.34276395802E+03  0.50873528908E+03  0.82683611917E+03  0.40000000000E+03 0. -1.
<mgrwt>
<rscale>  2 0.65180240E+03</rscale>
<asrwt>0</asrwt>
<pdfrwt beam="1">  1        3 0.15591740E+00 0.65180240E+03</pdfrwt>
<pdfrwt beam="2">  1       -3 0.71739506E-01 0.65180240E+03</pdfrwt>
<totfact> 0.14139597E+00</totfact>
</mgrwt>
</event>
<event>
 4    1  0.2488810E-002  0.4974684E+03  0.7818608E-02  0.1014442E+00
          1   -1    0    0  502    0  0.00000000000E+00  0.00000000000E+00  0.23440856413E+04  0.23440856413E+04  0.00000000000E+00 0.  1.
         -1   -1    0    0    0  501 -0.00000000000E+00 -0.00000000000E+00 -0.11996664905E+03  0.11996664905E+03  0.00000000000E+00 0. -1.
    9000007    1    1    2  502    0 -0.79232596047E+02 -0.28495094769E+03  0.68532497276E+03  0.84684423902E+03  0.40000000000E+03 0. -1.
   -9000007    1    1    2    0  501  0.79232596047E+02  0.28495094769E+03  0.15387940195E+04  0.16172080514E+04  0.40000000000E+03 0.  1.
<mgrwt>
<rscale>  2 0.49746844E+03</rscale>
<asrwt>0</asrwt>
<pdfrwt beam="1">  1        1 0.36062853E+00 0.49746844E+03</pdfrwt>
<pdfrwt beam="2">  1       -1 0.18456409E-01 0.49746844E+03</pdfrwt>
<totfact> 0.43904025E+01</totfact>
</mgrwt>
</event>
<event>
 4    1  0.2488810E-002  0.4168519E+03  0.7818608E-02  0.1038096E+00
         -1   -1    0    0    0  501 -0.00000000000E+00  0.00000000000E+00  0.13771001073E+03  0.13771001073E+03  0.00000000000E+00 0.  1.
          1   -1    0    0  502    0  0.00000000000E+00 -0.00000000000E+00 -0.12627882604E+04  0.12627882604E+04  0.00000000000E+00 0. -1.
    9000007    1    1    2  502    0  0.11490129515E+03 -0.23731972808E+02 -0.54316840166E+03  0.68468783159E+03  0.40000000000E+03 0. -1.
   -9000007    1    1    2    0  501 -0.11490129515E+03  0.23731972808E+02 -0.58190984801E+03  0.71581043955E+03  0.40000000000E+03 0.  1.
<mgrwt>
<rscale>  2 0.41685191E+03</rscale>
<asrwt>0</asrwt>
<pdfrwt beam="1">  1        1 0.19427512E+00 0.41685191E+03</pdfrwt>
<pdfrwt beam="2">  1       -1 0.21186155E-01 0.41685191E+03</pdfrwt>
<totfact> 0.18721161E+02</totfact>
</mgrwt>
</event>
<event>
 4    1  0.2488810E-002  0.6401347E+03  0.7818608E-02  0.9825469E-01
         -2   -1    0    0    0  501 -0.00000000000E+00  0.00000000000E+00  0.29685290338E+03  0.29685290338E+03  0.00000000000E+00 0. -1.
          2   -1    0    0  502    0  0.00000000000E+00 -0.00000000000E+00 -0.13922087545E+04  0.13922087545E+04  0.00000000000E+00 0.  1.
    9000007    1    1    2  502    0 -0.24606147251E+03  0.43500133331E+03 -0.62549450723E+03  0.89499485295E+03  0.40000000000E+03 0.  1.
   -9000007    1    1    2    0  501  0.24606147251E+03 -0.43500133331E+03 -0.46986134393E+03  0.79406680497E+03  0.40000000000E+03 0. -1.
<mgrwt>
<rscale>  2 0.64013468E+03</rscale>
<asrwt>0</asrwt>
<pdfrwt beam="1">  1        2 0.21418596E+00 0.64013468E+03</pdfrwt>
<pdfrwt beam="2">  1       -2 0.45669678E-01 0.64013468E+03</pdfrwt>
<totfact> 0.68501483E+01</totfact>
</mgrwt>
</event>
<event>
 4    1  0.2488810E-002  0.4030134E+03  0.7818608E-02  0.1042741E+00
          1   -1    0    0  502    0  0.00000000000E+00  0.00000000000E+00  0.11024439490E+04  0.11024439490E+04  0.00000000000E+00 0. -1.
         -1   -1    0    0    0  501 -0.00000000000E+00 -0.00000000000E+00 -0.20905236697E+03  0.20905236697E+03  0.00000000000E+00 0.  1.
    9000007    1    1    2  502    0 -0.23346263917E+02  0.43298249285E+02  0.90374896745E+02  0.41302228559E+03  0.40000000000E+03 0.  1.
   -9000007    1    1    2    0  501  0.23346263917E+02 -0.43298249285E+02  0.80301668527E+03  0.89847403037E+03  0.40000000000E+03 0. -1.
<mgrwt>
<rscale>  2 0.40301338E+03</rscale>
<asrwt>0</asrwt>
<pdfrwt beam="1">  1        1 0.16960676E+00 0.40301338E+03</pdfrwt>
<pdfrwt beam="2">  1       -1 0.32161903E-01 0.40301338E+03</pdfrwt>
<totfact> 0.12036887E+02</totfact>
</mgrwt>
</event>
<event>
 4    1  0.2488810E-002  0.4687074E+03  0.7818608E-02  0.1022286E+00
          3   -1    0    0  502    0  0.00000000000E+00  0.00000000000E+00  0.32507100163E+03  0.32507100163E+03  0.00000000000E+00 0.  1.
         -3   -1    0    0    0  501 -0.00000000000E+00 -0.00000000000E+00 -0.93670981008E+03  0.93670981008E+03  0.00000000000E+00 0. -1.
    9000007    1    1    2  502    0 -0.21834624666E+03 -0.10959737756E+03 -0.63877564266E+03  0.79228845142E+03  0.40000000000E+03 0. -1.
   -9000007    1    1    2    0  501  0.21834624666E+03  0.10959737756E+03  0.27136834203E+02  0.46949236029E+03  0.40000000000E+03 0.  1.
<mgrwt>
<rscale>  2 0.46870744E+03</rscale>
<asrwt>0</asrwt>
<pdfrwt beam="1">  1        3 0.50010923E-01 0.46870744E+03</pdfrwt>
<pdfrwt beam="2">  1       -3 0.14410920E+00 0.46870744E+03</pdfrwt>
<totfact> 0.37203995E+00</totfact>
</mgrwt>
</event>
<event>
 4    1  0.2488810E-002  0.4238711E+03  0.7818608E-02  0.1035814E+00
          2   -1    0    0  502    0  0.00000000000E+00  0.00000000000E+00  0.88478930788E+03  0.88478930788E+03  0.00000000000E+00 0.  1.
         -2   -1    0    0    0  501 -0.00000000000E+00 -0.00000000000E+00 -0.24498126473E+03  0.24498126473E+03  0.00000000000E+00 0. -1.
    9000007    1    1    2  502    0 -0.58528975123E+02  0.12744057208E+03  0.55357387226E+03  0.69721644587E+03  0.40000000000E+03 0.  1.
   -9000007    1    1    2    0  501  0.58528975123E+02 -0.12744057208E+03  0.86234170895E+02  0.43255412675E+03  0.40000000000E+03 0. -1.
<mgrwt>
<rscale>  2 0.42387114E+03</rscale>
<asrwt>0</asrwt>
<pdfrwt beam="1">  1        2 0.13612143E+00 0.42387114E+03</pdfrwt>
<pdfrwt beam="2">  1       -2 0.37689426E-01 0.42387114E+03</pdfrwt>
<totfact> 0.20605069E+02</totfact>
</mgrwt>
</event>
<event>
 4    1  0.2488810E-002  0.4589193E+03  0.7818608E-02  0.1025095E+00
         -2   -1    0    0    0  501 -0.00000000000E+00  0.00000000000E+00  0.27812405078E+03  0.27812405078E+03  0.00000000000E+00 0.  1.
          2   -1    0    0  502    0  0.00000000000E+00 -0.00000000000E+00 -0.76371078110E+03  0.76371078110E+03  0.00000000000E+00 0. -1.
    9000007    1    1    2  502    0 -0.94421061620E+02  0.20418508973E+03 -0.29073963584E+03  0.54326459814E+03  0.40000000000E+03 0. -1.
   -9000007    1    1    2    0  501  0.94421061620E+02 -0.20418508973E+03 -0.19484709448E+03  0.49857023374E+03  0.40000000000E+03 0.  1.
<mgrwt>
<rscale>  2 0.45891926E+03</rscale>
<asrwt>0</asrwt>
<pdfrwt beam="1">  1        2 0.11749396E+00 0.45891926E+03</pdfrwt>
<pdfrwt beam="2">  1       -2 0.42788316E-01 0.45891926E+03</pdfrwt>
<totfact> 0.19506835E+02</totfact>
</mgrwt>
</event>
<event>
 4    1  0.2488810E-002  0.5675276E+03  0.7818608E-02  0.9975165E-01
         -1   -1    0    0    0  501 -0.00000000000E+00  0.00000000000E+00  0.28528244245E+03  0.28528244245E+03  0.00000000000E+00 0.  1.
          1   -1    0    0  502    0  0.00000000000E+00 -0.00000000000E+00 -0.11315281273E+04  0.11315281273E+04  0.00000000000E+00 0. -1.
    9000007    1    1    2  502    0 -0.27782267952E+03  0.29137978000E+03 -0.38972490513E+03  0.68845705685E+03  0.40000000000E+03 0.  1.
   -9000007    1    1    2    0  501  0.27782267952E+03 -0.29137978000E+03 -0.45652077972E+03  0.72835351290E+03  0.40000000000E+03 0. -1.
<mgrwt>
<rscale>  2 0.56752764E+03</rscale>
<asrwt>0</asrwt>
<pdfrwt beam="1">  1        1 0.17408125E+00 0.56752764E+03</pdfrwt>
<pdfrwt beam="2">  1       -1 0.43889606E-01 0.56752764E+03</pdfrwt>
<totfact> 0.64317820E+01</totfact>
</mgrwt>
</event>
<event>
 4    1  0.2488810E-002  0.4737834E+03  0.7818608E-02  0.1020858E+00
          2   -1    0    0  502    0  0.00000000000E+00  0.00000000000E+00  0.13390682587E+04  0.13390682587E+04  0.00000000000E+00 0.  1.
         -2   -1    0    0    0  501 -0.00000000000E+00 -0.00000000000E+00 -0.18410163113E+03  0.18410163113E+03  0.00000000000E+00 0. -1.
    9000007    1    1    2  502    0  0.85461498384E+02 -0.23909627014E+03  0.80527162314E+03  0.93430887887E+03  0.40000000000E+03 0.  1.
   -9000007    1    1    2    0  501 -0.85461498384E+02  0.23909627014E+03  0.34969500442E+03  0.58886101095E+03  0.40000000000E+03 0. -1.
<mgrwt>
<rscale>  2 0.47378338E+03</rscale>
<asrwt>0</asrwt>
<pdfrwt beam="1">  1        2 0.20601050E+00 0.47378338E+03</pdfrwt>
<pdfrwt beam="2">  1       -2 0.28323329E-01 0.47378338E+03</pdfrwt>
<totfact> 0.18587852E+02</totfact>
</mgrwt>
</event>
<event>
 4    1  0.2488810E-002  0.4537556E+03  0.7818608E-02  0.1026608E+00
         -2   -1    0    0    0  501 -0.00000000000E+00  0.00000000000E+00  0.25239361477E+03  0.25239361477E+03  0.00000000000E+00 0. -1.
          2   -1    0    0  502    0  0.00000000000E+00 -0.00000000000E+00 -0.13834909743E+04  0.13834909743E+04  0.00000000000E+00 0.  1.
    9000007    1    1    2  502    0 -0.11698249549E+03  0.17946935572E+03 -0.41582249699E+02  0.45565692948E+03  0.40000000000E+03 0. -1.
   -9000007    1    1    2    0  501  0.11698249549E+03 -0.17946935572E+03 -0.10895151098E+04  0.11802276596E+04  0.40000000000E+03 0.  1.
<mgrwt>
<rscale>  2 0.45375561E+03</rscale>
<asrwt>0</asrwt>
<pdfrwt beam="1">  1        2 0.21284476E+00 0.45375561E+03</pdfrwt>
<pdfrwt beam="2">  1       -2 0.38829788E-01 0.45375561E+03</pdfrwt>
<totfact> 0.97467159E+01</totfact>
</mgrwt>
</event>
<event>
 4    1  0.2488810E-002  0.4042407E+03  0.7818608E-02  0.1042321E+00
          2   -1    0    0  502    0  0.00000000000E+00  0.00000000000E+00  0.32120073159E+03  0.32120073159E+03  0.00000000000E+00 0.  1.
         -2   -1    0    0    0  501 -0.00000000000E+00 -0.00000000000E+00 -0.54782003653E+03  0.54782003653E+03  0.00000000000E+00 0. -1.
    9000007    1    1    2  502    0  0.41071555050E+02  0.41517046196E+02 -0.22934996745E+03  0.46477085250E+03  0.40000000000E+03 0. -1.
   -9000007    1    1    2    0  501 -0.41071555050E+02 -0.41517046196E+02  0.27306625113E+01  0.40424991562E+03  0.40000000000E+03 0.  1.
<mgrwt>
<rscale>  2 0.40424069E+03</rscale>
<asrwt>0</asrwt>
<pdfrwt beam="1">  1        2 0.49415498E-01 0.40424069E+03</pdfrwt>
<pdfrwt beam="2">  1       -2 0.84280005E-01 0.40424069E+03</pdfrwt>
<totfact> 0.12847027E+02</totfact>
</mgrwt>
</event>
<event>
 4    1  0.2488810E-002  0.5619661E+03  0.7818608E-02  0.9987616E-01
          2   -1    0    0  502    0  0.00000000000E+00  0.00000000000E+00  0.11770591160E+04  0.11770591160E+04  0.00000000000E+00 0. -1.
         -2   -1    0    0    0  501 -0.00000000000E+00 -0.00000000000E+00 -0.27018999954E+03  0.27018999954E+03  0.00000000000E+00 0.  1.
    9000007    1    1    2  502    0  0.34006344647E+03 -0.20040646314E+03  0.39292583286E+03  0.68570883633E+03  0.40000000000E+03 0.  1.
   -9000007    1    1    2    0  501 -0.34006344647E+03  0.20040646314E+03  0.51394328358E+03  0.76154027919E+03  0.40000000000E+03 0. -1.
<mgrwt>
<rscale>  2 0.56196610E+03</rscale>
<asrwt>0</asrwt>
<pdfrwt beam="1">  1        2 0.18108601E+00 0.56196610E+03</pdfrwt>
<pdfrwt beam="2">  1       -2 0.41567693E-01 0.56196610E+03</pdfrwt>
<totfact> 0.11061078E+02</totfact>
</mgrwt>
</event>
<event>
 4    1  0.2488810E-002  0.6918963E+03  0.7818608E-02  0.9731192E-01
         -2   -1    0    0    0  501 -0.00000000000E+00  0.00000000000E+00  0.47285691577E+03  0.47285691577E+03  0.00000000000E+00 0. -1.
          2   -1    0    0  502    0  0.00000000000E+00 -0.00000000000E+00 -0.12715961497E+04  0.12715961497E+04  0.00000000000E+00 0.  1.
    9000007    1    1    2  502    0  0.31977307674E+03  0.46525866737E+03 -0.79316332748E+03  0.10525343283E+04  0.40000000000E+03 0. -1.
   -9000007    1    1    2    0  501 -0.31977307674E+03 -0.46525866737E+03 -0.55759064814E+01  0.69191873721E+03  0.40000000000E+03 0.  1.
<mgrwt>
<rscale>  2 0.69189627E+03</rscale>
<asrwt>0</asrwt>
<pdfrwt beam="1">  1        2 0.19563018E+00 0.69189627E+03</pdfrwt>
<pdfrwt beam="2">  1       -2 0.72747217E-01 0.69189627E+03</pdfrwt>
<totfact> 0.30114337E+01</totfact>
</mgrwt>
</event>
<event>
 4    1  0.2488810E-002  0.4064570E+03  0.7818608E-02  0.1041567E+00
         -1   -1    0    0    0  501 -0.00000000000E+00  0.00000000000E+00  0.21409558662E+04  0.21409558662E+04  0.00000000000E+00 0.  1.
          1   -1    0    0  502    0  0.00000000000E+00 -0.00000000000E+00 -0.86144061419E+02  0.86144061419E+02  0.00000000000E+00 0. -1.
    9000007    1    1    2  502    0 -0.66463573957E+02  0.28104937143E+02  0.13869131059E+04  0.14452457429E+04  0.40000000000E+03 0.  1.
   -9000007    1    1    2    0  501  0.66463573957E+02 -0.28104937143E+02  0.66789869895E+03  0.78185418475E+03  0.40000000000E+03 0. -1.
<mgrwt>
<rscale>  2 0.40645700E+03</rscale>
<asrwt>0</asrwt>
<pdfrwt beam="1">  1        1 0.13252934E-01 0.40645700E+03</pdfrwt>
<pdfrwt beam="2">  1       -1 0.32937779E+00 0.40645700E+03</pdfrwt>
<totfact> 0.10728340E+01</totfact>
</mgrwt>
</event>
<event>
 4    1  0.2488810E-002  0.4073391E+03  0.7818608E-02  0.1041268E+00
          2   -1    0    0  502    0  0.00000000000E+00  0.00000000000E+00  0.21163859006E+04  0.21163859006E+04  0.00000000000E+00 0. -1.
         -2   -1    0    0    0  501 -0.00000000000E+00 -0.00000000000E+00 -0.99801808085E+02  0.99801808085E+02  0.00000000000E+00 0.  1.
    9000007    1    1    2  502    0 -0.37749923846E+02 -0.67082972553E+02  0.49515892738E+03  0.64117668807E+03  0.40000000000E+03 0.  1.
   -9000007    1    1    2    0  501  0.37749923846E+02  0.67082972553E+02  0.15214251651E+04  0.15750110206E+04  0.40000000000E+03 0. -1.
<mgrwt>
<rscale>  2 0.40733915E+03</rscale>
<asrwt>0</asrwt>
<pdfrwt beam="1">  1        2 0.32559780E+00 0.40733915E+03</pdfrwt>
<pdfrwt beam="2">  1       -2 0.15354126E-01 0.40733915E+03</pdfrwt>
<totfact> 0.20748379E+02</totfact>
</mgrwt>
</event>
<event>
 4    1  0.2488810E-002  0.4731600E+03  0.7818608E-02  0.1021032E+00
          1   -1    0    0  502    0  0.00000000000E+00  0.00000000000E+00  0.11423198871E+04  0.11423198871E+04  0.00000000000E+00 0.  1.
         -1   -1    0    0    0  501 -0.00000000000E+00 -0.00000000000E+00 -0.19860559749E+03  0.19860559749E+03  0.00000000000E+00 0. -1.
    9000007    1    1    2  502    0  0.15979672796E+03  0.19581971803E+03  0.54883687103E+03  0.72463940497E+03  0.40000000000E+03 0. -1.
   -9000007    1    1    2    0  501 -0.15979672796E+03 -0.19581971803E+03  0.39487741861E+03  0.61628607965E+03  0.40000000000E+03 0. -1.
<mgrwt>
<rscale>  2 0.47315997E+03</rscale>
<asrwt>0</asrwt>
<pdfrwt beam="1">  1        1 0.17574152E+00 0.47315997E+03</pdfrwt>
<pdfrwt beam="2">  1       -1 0.30554708E-01 0.47315997E+03</pdfrwt>
<totfact> 0.12188951E+02</totfact>
</mgrwt>
</event>
<event>
 4    1  0.2488810E-002  0.4585055E+03  0.7818608E-02  0.1025216E+00
          1   -1    0    0  502    0  0.00000000000E+00  0.00000000000E+00  0.30317163811E+03  0.30317163811E+03  0.00000000000E+00 0.  1.
         -1   -1    0    0    0  501 -0.00000000000E+00 -0.00000000000E+00 -0.69373441179E+03  0.69373441179E+03  0.00000000000E+00 0. -1.
    9000007    1    1    2  502    0 -0.19182660246E+03  0.11588719950E+03 -0.20578035272E+03  0.50256625631E+03  0.40000000000E+03 0. -1.
   -9000007    1    1    2    0  501  0.19182660246E+03 -0.11588719950E+03 -0.18478242096E+03  0.49433979358E+03  0.40000000000E+03 0.  1.
<mgrwt>
<rscale>  2 0.45850549E+03</rscale>
<asrwt>0</asrwt>
<pdfrwt beam="1">  1        1 0.46641791E-01 0.45850549E+03</pdfrwt>
<pdfrwt beam="2">  1       -1 0.10672837E+00 0.45850549E+03</pdfrwt>
<totfact> 0.74004678E+01</totfact>
</mgrwt>
</event>
<event>
 4    1  0.2488810E-002  0.4083275E+03  0.7818608E-02  0.1040934E+00
          2   -1    0    0  502    0  0.00000000000E+00  0.00000000000E+00  0.16687463089E+04  0.16687463089E+04  0.00000000000E+00 0.  1.
         -2   -1    0    0    0  501 -0.00000000000E+00 -0.00000000000E+00 -0.10181068733E+03  0.10181068733E+03  0.00000000000E+00 0. -1.
    9000007    1    1    2  502    0  0.75603573962E+02 -0.31865689511E+02  0.90429567997E+03  0.99221066280E+03  0.40000000000E+03 0.  1.
   -9000007    1    1    2    0  501 -0.75603573962E+02  0.31865689511E+02  0.66263994165E+03  0.77834633347E+03  0.40000000000E+03 0. -1.
<mgrwt>
<rscale>  2 0.40832747E+03</rscale>
<asrwt>0</asrwt>
<pdfrwt beam="1">  1        2 0.25673018E+00 0.40832747E+03</pdfrwt>
<pdfrwt beam="2">  1       -2 0.15663184E-01 0.40832747E+03</pdfrwt>
<totfact> 0.34812423E+02</totfact>
</mgrwt>
</event>
<event>
 4    1  0.2488810E-002  0.6616123E+03  0.7818608E-02  0.9785230E-01
         -1   -1    0    0    0  501 -0.00000000000E+00  0.00000000000E+00  0.10647283256E+04  0.10647283256E+04  0.00000000000E+00 0. -1.
          1   -1    0    0  502    0  0.00000000000E+00 -0.00000000000E+00 -0.41164772413E+03  0.41164772413E+03  0.00000000000E+00 0.  1.
    9000007    1    1    2  502    0  0.28848934027E+03 -0.44102691816E+03  0.30010338016E+03  0.72649355178E+03  0.40000000000E+03 0.  1.
   -9000007    1    1    2    0  501 -0.28848934027E+03  0.44102691816E+03  0.35297722133E+03  0.74988249797E+03  0.40000000000E+03 0. -1.
<mgrwt>
<rscale>  2 0.66161230E+03</rscale>
<asrwt>0</asrwt>
<pdfrwt beam="1">  1        1 0.63330420E-01 0.66161230E+03</pdfrwt>
<pdfrwt beam="2">  1       -1 0.16380436E+00 0.66161230E+03</pdfrwt>
<totfact> 0.16394334E+01</totfact>
</mgrwt>
</event>
<event>
 4    1  0.2488810E-002  0.4295478E+03  0.7818608E-02  0.1034003E+00
          1   -1    0    0  502    0  0.00000000000E+00  0.00000000000E+00  0.56234590922E+03  0.56234590922E+03  0.00000000000E+00 0. -1.
         -1   -1    0    0    0  501 -0.00000000000E+00 -0.00000000000E+00 -0.35561145723E+03  0.35561145723E+03  0.00000000000E+00 0.  1.
    9000007    1    1    2  502    0 -0.12507217116E+03 -0.94171398862E+02  0.23100602819E+03  0.48772439494E+03  0.40000000000E+03 0. -1.
   -9000007    1    1    2    0  501  0.12507217116E+03  0.94171398862E+02 -0.24271576195E+02  0.43023297151E+03  0.40000000000E+03 0.  1.
<mgrwt>
<rscale>  2 0.42954779E+03</rscale>
<asrwt>0</asrwt>
<pdfrwt beam="1">  1        1 0.86514755E-01 0.42954779E+03</pdfrwt>
<pdfrwt beam="2">  1       -1 0.54709455E-01 0.42954779E+03</pdfrwt>
<totfact> 0.13231850E+02</totfact>
</mgrwt>
</event>
<event>
 4    1  0.2488810E-002  0.4048360E+03  0.7818608E-02  0.1042118E+00
          2   -1    0    0  502    0  0.00000000000E+00  0.00000000000E+00  0.16081393713E+04  0.16081393713E+04  0.00000000000E+00 0.  1.
         -2   -1    0    0    0  501 -0.00000000000E+00 -0.00000000000E+00 -0.12839554123E+03  0.12839554123E+03  0.00000000000E+00 0. -1.
    9000007    1    1    2  502    0 -0.41089627307E+02 -0.46944993334E+02  0.11341918958E+04  0.12042771468E+04  0.40000000000E+03 0.  1.
   -9000007    1    1    2    0  501  0.41089627307E+02  0.46944993334E+02  0.34555193424E+03  0.53225776568E+03  0.40000000000E+03 0. -1.
<mgrwt>
<rscale>  2 0.40483600E+03</rscale>
<asrwt>0</asrwt>
<pdfrwt beam="1">  1        2 0.24740604E+00 0.40483600E+03</pdfrwt>
<pdfrwt beam="2">  1       -2 0.19753161E-01 0.40483600E+03</pdfrwt>
<totfact> 0.25285470E+02</totfact>
</mgrwt>
</event>
<event>
 4    1  0.2488810E-002  0.4907437E+03  0.7818608E-02  0.1016224E+00
          2   -1    0    0  502    0  0.00000000000E+00  0.00000000000E+00  0.95832901161E+03  0.95832901161E+03  0.00000000000E+00 0. -1.
         -2   -1    0    0    0  501 -0.00000000000E+00 -0.00000000000E+00 -0.25193637405E+03  0.25193637405E+03  0.00000000000E+00 0.  1.
    9000007    1    1    2  502    0  0.93049406795E+02  0.26864692540E+03  0.38357748580E+03  0.62286519428E+03  0.40000000000E+03 0. -1.
   -9000007    1    1    2    0  501 -0.93049406795E+02 -0.26864692540E+03  0.32281515175E+03  0.58740019138E+03  0.40000000000E+03 0.  1.
<mgrwt>
<rscale>  2 0.49074368E+03</rscale>
<asrwt>0</asrwt>
<pdfrwt beam="1">  1        2 0.14743523E+00 0.49074368E+03</pdfrwt>
<pdfrwt beam="2">  1       -2 0.38759443E-01 0.49074368E+03</pdfrwt>
<totfact> 0.17375036E+02</totfact>
</mgrwt>
</event>
<event>
 4    1  0.2488810E-002  0.4218364E+03  0.7818608E-02  0.1036470E+00
          1   -1    0    0  502    0  0.00000000000E+00  0.00000000000E+00  0.32901607743E+03  0.32901607743E+03  0.00000000000E+00 0.  1.
         -1   -1    0    0    0  501 -0.00000000000E+00 -0.00000000000E+00 -0.60542975572E+03  0.60542975572E+03  0.00000000000E+00 0. -1.
    9000007    1    1    2  502    0 -0.37960320535E+02 -0.12847160339E+03 -0.29081053377E+03  0.51236384080E+03  0.40000000000E+03 0. -1.
   -9000007    1    1    2    0  501  0.37960320535E+02  0.12847160339E+03  0.14396855481E+02  0.42208199234E+03  0.40000000000E+03 0.  1.
<mgrwt>
<rscale>  2 0.42183639E+03</rscale>
<asrwt>0</asrwt>
<pdfrwt beam="1">  1        1 0.50617859E-01 0.42183639E+03</pdfrwt>
<pdfrwt beam="2">  1       -1 0.93143038E-01 0.42183639E+03</pdfrwt>
<totfact> 0.90944381E+01</totfact>
</mgrwt>
</event>
<event>
 4    1  0.2488810E-002  0.4667258E+03  0.7818608E-02  0.1022848E+00
          1   -1    0    0  502    0  0.00000000000E+00  0.00000000000E+00  0.27116063320E+03  0.27116063320E+03  0.00000000000E+00 0. -1.
         -1   -1    0    0    0  501 -0.00000000000E+00 -0.00000000000E+00 -0.82757327631E+03  0.82757327631E+03  0.00000000000E+00 0.  1.
    9000007    1    1    2  502    0  0.43381780137E+02  0.23653959910E+03 -0.37222318491E+03  0.59697827445E+03  0.40000000000E+03 0.  1.
   -9000007    1    1    2    0  501 -0.43381780137E+02 -0.23653959910E+03 -0.18418945820E+03  0.50175563505E+03  0.40000000000E+03 0.  1.
<mgrwt>
<rscale>  2 0.46672579E+03</rscale>
<asrwt>0</asrwt>
<pdfrwt beam="1">  1        1 0.41717021E-01 0.46672579E+03</pdfrwt>
<pdfrwt beam="2">  1       -1 0.12731896E+00 0.46672579E+03</pdfrwt>
<totfact> 0.55969110E+01</totfact>
</mgrwt>
</event>
<event>
 4    1  0.2488810E-002  0.5422128E+03  0.7818608E-02  0.1003313E+00
         -1   -1    0    0    0  501 -0.00000000000E+00  0.00000000000E+00  0.73362102075E+03  0.73362102075E+03  0.00000000000E+00 0. -1.
          1   -1    0    0  502    0  0.00000000000E+00 -0.00000000000E+00 -0.88778941102E+03  0.88778941102E+03  0.00000000000E+00 0.  1.
    9000007    1    1    2  502    0 -0.36197804526E+03 -0.54466186668E+02  0.52338736394E+03  0.75361064448E+03  0.40000000000E+03 0. -1.
   -9000007    1    1    2    0  501  0.36197804526E+03  0.54466186668E+02 -0.67755575421E+03  0.86779978728E+03  0.40000000000E+03 0.  1.
<mgrwt>
<rscale>  2 0.54221275E+03</rscale>
<asrwt>0</asrwt>
<pdfrwt beam="1">  1        1 0.13658299E+00 0.54221275E+03</pdfrwt>
<pdfrwt beam="2">  1       -1 0.11286477E+00 0.54221275E+03</pdfrwt>
<totfact> 0.14207662E+01</totfact>
</mgrwt>
</event>
<event>
 4    1  0.2488810E-002  0.4020770E+03  0.7818608E-02  0.1043063E+00
          1   -1    0    0  502    0  0.00000000000E+00  0.00000000000E+00  0.10494269515E+04  0.10494269515E+04  0.00000000000E+00 0.  1.
         -1   -1    0    0    0  501 -0.00000000000E+00 -0.00000000000E+00 -0.16029967748E+03  0.16029967748E+03  0.00000000000E+00 0. -1.
    9000007    1    1    2  502    0  0.45545556769E+01  0.40561180571E+02  0.56397960095E+03  0.69263189620E+03  0.40000000000E+03 0.  1.
   -9000007    1    1    2    0  501 -0.45545556769E+01 -0.40561180571E+02  0.32514767303E+03  0.51709473274E+03  0.40000000000E+03 0. -1.
<mgrwt>
<rscale>  2 0.40207705E+03</rscale>
<asrwt>0</asrwt>
<pdfrwt beam="1">  1        1 0.16145030E+00 0.40207705E+03</pdfrwt>
<pdfrwt beam="2">  1       -1 0.24661490E-01 0.40207705E+03</pdfrwt>
<totfact> 0.20739796E+02</totfact>
</mgrwt>
</event>
<event>
 4    1  0.2488810E-002  0.4914690E+03  0.7818608E-02  0.1016030E+00
          1   -1    0    0  502    0  0.00000000000E+00  0.00000000000E+00  0.19173036509E+04  0.19173036509E+04  0.00000000000E+00 0.  1.
         -1   -1    0    0    0  501 -0.00000000000E+00 -0.00000000000E+00 -0.13818493854E+03  0.13818493854E+03  0.00000000000E+00 0. -1.
    9000007    1    1    2  502    0  0.54791140649E+02 -0.28024929997E+03  0.58412060221E+03  0.76337318341E+03  0.40000000000E+03 0. -1.
   -9000007    1    1    2    0  501 -0.54791140649E+02  0.28024929997E+03  0.11949981102E+04  0.12921154060E+04  0.40000000000E+03 0.  1.
<mgrwt>
<rscale>  2 0.49146896E+03</rscale>
<asrwt>0</asrwt>
<pdfrwt beam="1">  1        1 0.29496977E+00 0.49146896E+03</pdfrwt>
<pdfrwt beam="2">  1       -1 0.21259223E-01 0.49146896E+03</pdfrwt>
<totfact> 0.66790133E+01</totfact>
</mgrwt>
</event>
<event>
 4    1  0.2488810E-002  0.4008653E+03  0.7818608E-02  0.1043480E+00
          1   -1    0    0  502    0  0.00000000000E+00  0.00000000000E+00  0.16865092891E+04  0.16865092891E+04  0.00000000000E+00 0. -1.
         -1   -1    0    0    0  501 -0.00000000000E+00 -0.00000000000E+00 -0.98203188193E+02  0.98203188193E+02  0.00000000000E+00 0.  1.
    9000007    1    1    2  502    0 -0.19978811425E+02 -0.17142502459E+02  0.94807393071E+03  0.10293382323E+04  0.40000000000E+03 0. -1.
   -9000007    1    1    2    0  501  0.19978811425E+02  0.17142502459E+02  0.64023217015E+03  0.75537424498E+03  0.40000000000E+03 0.  1.
<mgrwt>
<rscale>  2 0.40086534E+03</rscale>
<asrwt>0</asrwt>
<pdfrwt beam="1">  1        1 0.25946295E+00 0.40086534E+03</pdfrwt>
<pdfrwt beam="2">  1       -1 0.15108184E-01 0.40086534E+03</pdfrwt>
<totfact> 0.16826281E+02</totfact>
</mgrwt>
</event>
<event>
 4    1  0.2488810E-002  0.4230690E+03  0.7818608E-02  0.1036072E+00
          1   -1    0    0  502    0  0.00000000000E+00  0.00000000000E+00  0.33085596405E+03  0.33085596405E+03  0.00000000000E+00 0.  1.
         -1   -1    0    0    0  501 -0.00000000000E+00 -0.00000000000E+00 -0.54400100988E+03  0.54400100988E+03  0.00000000000E+00 0. -1.
    9000007    1    1    2  502    0  0.64014032136E+02  0.12202291525E+03 -0.73990246651E+02  0.42949033139E+03  0.40000000000E+03 0.  1.
   -9000007    1    1    2    0  501 -0.64014032136E+02 -0.12202291525E+03 -0.13915479918E+03  0.44536664254E+03  0.40000000000E+03 0.  1.
<mgrwt>
<rscale>  2 0.42306901E+03</rscale>
<asrwt>0</asrwt>
<pdfrwt beam="1">  1        1 0.50900918E-01 0.42306901E+03</pdfrwt>
<pdfrwt beam="2">  1       -1 0.83692462E-01 0.42306901E+03</pdfrwt>
<totfact> 0.11378750E+02</totfact>
</mgrwt>
</event>
<event>
 4    1  0.2488810E-002  0.4721997E+03  0.7818608E-02  0.1021301E+00
         -2   -1    0    0    0  501 -0.00000000000E+00  0.00000000000E+00  0.31968049545E+03  0.31968049545E+03  0.00000000000E+00 0.  1.
          2   -1    0    0  502    0  0.00000000000E+00 -0.00000000000E+00 -0.90483079263E+03  0.90483079263E+03  0.00000000000E+00 0. -1.
    9000007    1    1    2  502    0 -0.24654513707E+03  0.46776832826E+02  0.51146542864E+00  0.47219999820E+03  0.40000000000E+03 0.  1.
   -9000007    1    1    2    0  501  0.24654513707E+03 -0.46776832826E+02 -0.58566176261E+03  0.75231128988E+03  0.40000000000E+03 0. -1.
<mgrwt>
<rscale>  2 0.47219972E+03</rscale>
<asrwt>0</asrwt>
<pdfrwt beam="1">  1        2 0.13920474E+00 0.47219972E+03</pdfrwt>
<pdfrwt beam="2">  1       -2 0.49181615E-01 0.47219972E+03</pdfrwt>
<totfact> 0.11799641E+02</totfact>
</mgrwt>
</event>
<event>
 4    1  0.2488810E-002  0.5072521E+03  0.7818608E-02  0.1011903E+00
          2   -1    0    0  502    0  0.00000000000E+00  0.00000000000E+00  0.14685453786E+04  0.14685453786E+04  0.00000000000E+00 0. -1.
         -2   -1    0    0    0  501 -0.00000000000E+00 -0.00000000000E+00 -0.17521064897E+03  0.17521064897E+03  0.00000000000E+00 0.  1.
    9000007    1    1    2  502    0 -0.23969311476E+03 -0.19962939014E+03  0.64613945108E+03  0.82146264243E+03  0.40000000000E+03 0. -1.
   -9000007    1    1    2    0  501  0.23969311476E+03  0.19962939014E+03  0.64719527853E+03  0.82229338512E+03  0.40000000000E+03 0.  1.
<mgrwt>
<rscale>  2 0.50725209E+03</rscale>
<asrwt>0</asrwt>
<pdfrwt beam="1">  1        2 0.22593005E+00 0.50725209E+03</pdfrwt>
<pdfrwt beam="2">  1       -2 0.26955485E-01 0.50725209E+03</pdfrwt>
<totfact> 0.17163126E+02</totfact>
</mgrwt>
</event>
<event>
 4    1  0.2488810E-002  0.4273160E+03  0.7818608E-02  0.1034711E+00
          2   -1    0    0  502    0  0.00000000000E+00  0.00000000000E+00  0.14806376964E+04  0.14806376964E+04  0.00000000000E+00 0. -1.
         -2   -1    0    0    0  501 -0.00000000000E+00 -0.00000000000E+00 -0.12374016583E+03  0.12374016583E+03  0.00000000000E+00 0.  1.
    9000007    1    1    2  502    0  0.93067636013E+02  0.11805662494E+03  0.72494058531E+03  0.84150924166E+03  0.40000000000E+03 0. -1.
   -9000007    1    1    2    0  501 -0.93067636013E+02 -0.11805662494E+03  0.63195694522E+03  0.76286862052E+03  0.40000000000E+03 0.  1.
<mgrwt>
<rscale>  2 0.42731599E+03</rscale>
<asrwt>0</asrwt>
<pdfrwt beam="1">  1        2 0.22779040E+00 0.42731599E+03</pdfrwt>
<pdfrwt beam="2">  1       -2 0.19036950E-01 0.42731599E+03</pdfrwt>
<totfact> 0.31517759E+02</totfact>
</mgrwt>
</event>
<event>
 4    1  0.2488810E-002  0.4025990E+03  0.7818608E-02  0.1042883E+00
          2   -1    0    0  502    0  0.00000000000E+00  0.00000000000E+00  0.37303231487E+03  0.37303231487E+03  0.00000000000E+00 0.  1.
         -2   -1    0    0    0  501 -0.00000000000E+00 -0.00000000000E+00 -0.56584641447E+03  0.56584641447E+03  0.00000000000E+00 0. -1.
    9000007    1    1    2  502    0 -0.43602031869E+02 -0.13594695525E+02  0.12975733133E+03  0.42299281077E+03  0.40000000000E+03 0.  1.
   -9000007    1    1    2    0  501  0.43602031869E+02  0.13594695525E+02 -0.32257143092E+03  0.51588591857E+03  0.40000000000E+03 0. -1.
<mgrwt>
<rscale>  2 0.40259900E+03</rscale>
<asrwt>0</asrwt>
<pdfrwt beam="1">  1        2 0.57389587E-01 0.40259900E+03</pdfrwt>
<pdfrwt beam="2">  1       -2 0.87053295E-01 0.40259900E+03</pdfrwt>
<totfact> 0.10131942E+02</totfact>
</mgrwt>
</event>
<event>
 4    1  0.2488810E-002  0.4979450E+03  0.7818608E-02  0.1014317E+00
          1   -1    0    0  502    0  0.00000000000E+00  0.00000000000E+00  0.17215012048E+04  0.17215012048E+04  0.00000000000E+00 0. -1.
         -1   -1    0    0    0  501 -0.00000000000E+00 -0.00000000000E+00 -0.15135018577E+03  0.15135018577E+03  0.00000000000E+00 0.  1.
    9000007    1    1    2  502    0 -0.17377747744E+03  0.24031358224E+03  0.99100501656E+03  0.11090717616E+04  0.40000000000E+03 0. -1.
   -9000007    1    1    2    0  501  0.17377747744E+03 -0.24031358224E+03  0.57914600246E+03  0.76377962898E+03  0.40000000000E+03 0. -1.
<mgrwt>
<rscale>  2 0.49794501E+03</rscale>
<asrwt>0</asrwt>
<pdfrwt beam="1">  1        1 0.26484633E+00 0.49794501E+03</pdfrwt>
<pdfrwt beam="2">  1       -1 0.23284645E-01 0.49794501E+03</pdfrwt>
<totfact> 0.77252970E+01</totfact>
</mgrwt>
</event>
<event>
 4    1  0.2488810E-002  0.4037245E+03  0.7818608E-02  0.1042498E+00
          2   -1    0    0  502    0  0.00000000000E+00  0.00000000000E+00  0.33272016432E+04  0.33272016432E+04  0.00000000000E+00 0. -1.
         -2   -1    0    0    0  501 -0.00000000000E+00 -0.00000000000E+00 -0.49017094456E+02  0.49017094456E+02  0.00000000000E+00 0.  1.
    9000007    1    1    2  502    0 -0.54671953896E+02  0.21053189410E+01  0.16801132124E+04  0.17279391949E+04  0.40000000000E+03 0. -1.
   -9000007    1    1    2    0  501  0.54671953896E+02 -0.21053189410E+01  0.15980713364E+04  0.16482795427E+04  0.40000000000E+03 0. -1.
<mgrwt>
<rscale>  2 0.40372448E+03</rscale>
<asrwt>0</asrwt>
<pdfrwt beam="1">  1        2 0.51187700E+00 0.40372448E+03</pdfrwt>
<pdfrwt beam="2">  1       -2 0.75410941E-02 0.40372448E+03</pdfrwt>
<totfact> 0.13110077E+02</totfact>
</mgrwt>
</event>
<event>
 4    1  0.2488810E-002  0.4647087E+03  0.7818608E-02  0.1023424E+00
         -2   -1    0    0    0  501 -0.00000000000E+00  0.00000000000E+00  0.25035276888E+04  0.25035276888E+04  0.00000000000E+00 0. -1.
          2   -1    0    0  502    0  0.00000000000E+00 -0.00000000000E+00 -0.87504170557E+02  0.87504170557E+02  0.00000000000E+00 0.  1.
    9000007    1    1    2  502    0  0.99136746375E+02  0.21476994013E+03  0.10535312497E+04  0.11514696330E+04  0.40000000000E+03 0.  1.
   -9000007    1    1    2    0  501 -0.99136746375E+02 -0.21476994013E+03  0.13624922686E+04  0.14395622264E+04  0.40000000000E+03 0. -1.
<mgrwt>
<rscale>  2 0.46470875E+03</rscale>
<asrwt>0</asrwt>
<pdfrwt beam="1">  1        2 0.13462182E-01 0.46470875E+03</pdfrwt>
<pdfrwt beam="2">  1       -2 0.38515805E+00 0.46470875E+03</pdfrwt>
<totfact> 0.47147702E+00</totfact>
</mgrwt>
</event>
<event>
 4    1  0.2488810E-002  0.4155411E+03  0.7818608E-02  0.1038527E+00
          2   -1    0    0  502    0  0.00000000000E+00  0.00000000000E+00  0.18347459969E+04  0.18347459969E+04  0.00000000000E+00 0. -1.
         -2   -1    0    0    0  501 -0.00000000000E+00 -0.00000000000E+00 -0.98035749585E+02  0.98035749585E+02  0.00000000000E+00 0.  1.
    9000007    1    1    2  502    0 -0.48377680244E+02  0.10165636611E+03  0.67505741451E+03  0.79270229570E+03  0.40000000000E+03 0.  1.
   -9000007    1    1    2    0  501  0.48377680244E+02 -0.10165636611E+03  0.10616528328E+04  0.11400794508E+04  0.40000000000E+03 0. -1.
<mgrwt>
<rscale>  2 0.41554111E+03</rscale>
<asrwt>0</asrwt>
<pdfrwt beam="1">  1        2 0.28226859E+00 0.41554111E+03</pdfrwt>
<pdfrwt beam="2">  1       -2 0.15082424E-01 0.41554111E+03</pdfrwt>
<totfact> 0.30203731E+02</totfact>
</mgrwt>
</event>
<event>
 4    1  0.2488810E-002  0.4401753E+03  0.7818608E-02  0.1030693E+00
         -2   -1    0    0    0  501 -0.00000000000E+00  0.00000000000E+00  0.34117539472E+03  0.34117539472E+03  0.00000000000E+00 0. -1.
          2   -1    0    0  502    0  0.00000000000E+00 -0.00000000000E+00 -0.69153685580E+03  0.69153685580E+03  0.00000000000E+00 0.  1.
    9000007    1    1    2  502    0  0.16822040756E+03  0.73865962322E+02 -0.39350983439E+03  0.59042719761E+03  0.40000000000E+03 0.  1.
   -9000007    1    1    2    0  501 -0.16822040756E+03 -0.73865962322E+02  0.43148373311E+02  0.44228505291E+03  0.40000000000E+03 0. -1.
<mgrwt>
<rscale>  2 0.44017529E+03</rscale>
<asrwt>0</asrwt>
<pdfrwt beam="1">  1        2 0.10639028E+00 0.44017529E+03</pdfrwt>
<pdfrwt beam="2">  1       -2 0.52488523E-01 0.44017529E+03</pdfrwt>
<totfact> 0.14714692E+02</totfact>
</mgrwt>
</event>
<event>
 4    1  0.2488810E-002  0.4571654E+03  0.7818608E-02  0.1025607E+00
         -2   -1    0    0    0  501 -0.00000000000E+00  0.00000000000E+00  0.45249728346E+03  0.45249728346E+03  0.00000000000E+00 0.  1.
          2   -1    0    0  502    0  0.00000000000E+00 -0.00000000000E+00 -0.46232283982E+03  0.46232283982E+03  0.00000000000E+00 0. -1.
    9000007    1    1    2  502    0 -0.22135447957E+03  0.15545974274E+01  0.92162604796E+01  0.45725830977E+03  0.40000000000E+03 0. -1.
   -9000007    1    1    2    0  501  0.22135447957E+03 -0.15545974274E+01 -0.19041816837E+02  0.45756181351E+03  0.40000000000E+03 0. -1.
<mgrwt>
<rscale>  2 0.45716542E+03</rscale>
<asrwt>0</asrwt>
<pdfrwt beam="1">  1        2 0.71126591E-01 0.45716542E+03</pdfrwt>
<pdfrwt beam="2">  1       -2 0.69614967E-01 0.45716542E+03</pdfrwt>
<totfact> 0.13037540E+02</totfact>
</mgrwt>
</event>
<event>
 4    1  0.2488810E-002  0.4090030E+03  0.7818608E-02  0.1040706E+00
         -2   -1    0    0    0  501 -0.00000000000E+00  0.00000000000E+00  0.13889967744E+04  0.13889967744E+04  0.00000000000E+00 0.  1.
          2   -1    0    0  502    0  0.00000000000E+00 -0.00000000000E+00 -0.18035980752E+03  0.18035980752E+03  0.00000000000E+00 0. -1.
    9000007    1    1    2  502    0  0.68797394179E+02  0.50501286438E+02  0.15201906181E+03  0.43634075736E+03  0.40000000000E+03 0. -1.
   -9000007    1    1    2    0  501 -0.68797394179E+02 -0.50501286438E+02  0.10566179051E+04  0.11330158246E+04  0.40000000000E+03 0.  1.
<mgrwt>
<rscale>  2 0.40900301E+03</rscale>
<asrwt>0</asrwt>
<pdfrwt beam="1">  1        2 0.27747664E-01 0.40900301E+03</pdfrwt>
<pdfrwt beam="2">  1       -2 0.21369180E+00 0.40900301E+03</pdfrwt>
<totfact> 0.22256661E+01</totfact>
</mgrwt>
</event>
<event>
 4    1  0.2488810E-002  0.6649391E+03  0.7818608E-02  0.9779144E-01
         -1   -1    0    0    0  501 -0.00000000000E+00  0.00000000000E+00  0.41595831448E+03  0.41595831448E+03  0.00000000000E+00 0. -1.
          1   -1    0    0  502    0  0.00000000000E+00 -0.00000000000E+00 -0.10828372159E+04  0.10828372159E+04  0.00000000000E+00 0.  1.
    9000007    1    1    2  502    0 -0.24257606397E+03  0.47254718168E+03 -0.43499158284E+03  0.79458269731E+03  0.40000000000E+03 0. -1.
   -9000007    1    1    2    0  501  0.24257606397E+03 -0.47254718168E+03 -0.23188731855E+03  0.70421283305E+03  0.40000000000E+03 0. -1.
<mgrwt>
<rscale>  2 0.66493908E+03</rscale>
<asrwt>0</asrwt>
<pdfrwt beam="1">  1        1 0.16659034E+00 0.66493908E+03</pdfrwt>
<pdfrwt beam="2">  1       -1 0.63993587E-01 0.66493908E+03</pdfrwt>
<totfact> 0.33562486E+01</totfact>
</mgrwt>
</event>
<event>
 4    1  0.2488810E-002  0.4259213E+03  0.7818608E-02  0.1035156E+00
          2   -1    0    0  502    0  0.00000000000E+00  0.00000000000E+00  0.18109543194E+04  0.18109543194E+04  0.00000000000E+00 0. -1.
         -2   -1    0    0    0  501 -0.00000000000E+00 -0.00000000000E+00 -0.12060323825E+03  0.12060323825E+03  0.00000000000E+00 0.  1.
    9000007    1    1    2  502    0 -0.30789250255E+02 -0.14304195567E+03  0.12426721336E+04  0.13136373208E+04  0.40000000000E+03 0. -1.
   -9000007    1    1    2    0  501  0.30789250255E+02  0.14304195567E+03  0.44767894753E+03  0.61792023682E+03  0.40000000000E+03 0.  1.
<mgrwt>
<rscale>  2 0.42592133E+03</rscale>
<asrwt>0</asrwt>
<pdfrwt beam="1">  1        2 0.27860834E+00 0.42592133E+03</pdfrwt>
<pdfrwt beam="2">  1       -2 0.18554346E-01 0.42592133E+03</pdfrwt>
<totfact> 0.21862271E+02</totfact>
</mgrwt>
</event>
<event>
 4    1  0.2488810E-002  0.4769798E+03  0.7818608E-02  0.1019969E+00
          2   -1    0    0  502    0  0.00000000000E+00  0.00000000000E+00  0.31510247191E+04  0.31510247191E+04  0.00000000000E+00 0. -1.
         -2   -1    0    0    0  501 -0.00000000000E+00 -0.00000000000E+00 -0.72656009217E+02  0.72656009217E+02  0.00000000000E+00 0.  1.
    9000007    1    1    2  502    0  0.24240898651E+03 -0.93528802379E+02  0.14117461915E+04  0.14901466582E+04  0.40000000000E+03 0.  1.
   -9000007    1    1    2    0  501 -0.24240898651E+03  0.93528802379E+02  0.16666225184E+04  0.17335340702E+04  0.40000000000E+03 0. -1.
<mgrwt>
<rscale>  2 0.47697983E+03</rscale>
<asrwt>0</asrwt>
<pdfrwt beam="1">  1        2 0.48477293E+00 0.47697983E+03</pdfrwt>
<pdfrwt beam="2">  1       -2 0.11177850E-01 0.47697983E+03</pdfrwt>
<totfact> 0.88695569E+01</totfact>
</mgrwt>
</event>
<event>
 4    1  0.2488810E-002  0.4152678E+03  0.7818608E-02  0.1038618E+00
          2   -1    0    0  502    0  0.00000000000E+00  0.00000000000E+00  0.60516058294E+03  0.60516058294E+03  0.00000000000E+00 0.  1.
         -2   -1    0    0    0  501 -0.00000000000E+00 -0.00000000000E+00 -0.51046590400E+03  0.51046590400E+03  0.00000000000E+00 0. -1.
    9000007    1    1    2  502    0  0.68120363471E+02  0.88357044768E+02  0.41809903871E+03  0.58928274831E+03  0.40000000000E+03 0.  1.
   -9000007    1    1    2    0  501 -0.68120363471E+02 -0.88357044768E+02 -0.32340435977E+03  0.52634373863E+03  0.40000000000E+03 0. -1.
<mgrwt>
<rscale>  2 0.41526781E+03</rscale>
<asrwt>0</asrwt>
<pdfrwt beam="1">  1        2 0.93101628E-01 0.41526781E+03</pdfrwt>
<pdfrwt beam="2">  1       -2 0.78533216E-01 0.41526781E+03</pdfrwt>
<totfact> 0.73610907E+01</totfact>
</mgrwt>
</event>
<event>
 4    1  0.2488810E-002  0.4624676E+03  0.7818608E-02  0.1024068E+00
         -1   -1    0    0    0  501 -0.00000000000E+00  0.00000000000E+00  0.23619130945E+03  0.23619130945E+03  0.00000000000E+00 0.  1.
          1   -1    0    0  502    0  0.00000000000E+00 -0.00000000000E+00 -0.96429794940E+03  0.96429794940E+03  0.00000000000E+00 0. -1.
    9000007    1    1    2  502    0  0.42435662376E+02  0.22820055240E+03 -0.51224534209E+03  0.69012431348E+03  0.40000000000E+03 0. -1.
   -9000007    1    1    2    0  501 -0.42435662376E+02 -0.22820055240E+03 -0.21586129786E+03  0.51036494538E+03  0.40000000000E+03 0.  1.
<mgrwt>
<rscale>  2 0.46246760E+03</rscale>
<asrwt>0</asrwt>
<pdfrwt beam="1">  1        1 0.14835353E+00 0.46246760E+03</pdfrwt>
<pdfrwt beam="2">  1       -1 0.36337125E-01 0.46246760E+03</pdfrwt>
<totfact> 0.12245263E+02</totfact>
</mgrwt>
</event>
<event>
 4    1  0.2488810E-002  0.4289535E+03  0.7818608E-02  0.1034191E+00
         -2   -1    0    0    0  501 -0.00000000000E+00  0.00000000000E+00  0.26149208475E+03  0.26149208475E+03  0.00000000000E+00 0. -1.
          2   -1    0    0  502    0  0.00000000000E+00 -0.00000000000E+00 -0.79294299784E+03  0.79294299784E+03  0.00000000000E+00 0.  1.
    9000007    1    1    2  502    0 -0.15289972592E+03  0.24954709203E+02 -0.44263753978E+03  0.61638385388E+03  0.40000000000E+03 0.  1.
   -9000007    1    1    2    0  501  0.15289972592E+03 -0.24954709203E+02 -0.88813373310E+02  0.43805122871E+03  0.40000000000E+03 0. -1.
<mgrwt>
<rscale>  2 0.42895345E+03</rscale>
<asrwt>0</asrwt>
<pdfrwt beam="1">  1        2 0.12199123E+00 0.42895345E+03</pdfrwt>
<pdfrwt beam="2">  1       -2 0.40229552E-01 0.42895345E+03</pdfrwt>
<totfact> 0.21008216E+02</totfact>
</mgrwt>
</event>
<event>
 4    1  0.2488810E-002  0.5442406E+03  0.7818608E-02  0.1002836E+00
          2   -1    0    0  502    0  0.00000000000E+00  0.00000000000E+00  0.18031360118E+04  0.18031360118E+04  0.00000000000E+00 0. -1.
         -2   -1    0    0    0  501 -0.00000000000E+00 -0.00000000000E+00 -0.18238607018E+03  0.18238607018E+03  0.00000000000E+00 0.  1.
    9000007    1    1    2  502    0 -0.12918138436E+03 -0.34570221713E+03  0.11232729971E+04  0.12481746989E+04  0.40000000000E+03 0. -1.
   -9000007    1    1    2    0  501  0.12918138436E+03  0.34570221713E+03  0.49747694453E+03  0.73734738308E+03  0.40000000000E+03 0.  1.
<mgrwt>
<rscale>  2 0.54424062E+03</rscale>
<asrwt>0</asrwt>
<pdfrwt beam="1">  1        2 0.27740553E+00 0.54424062E+03</pdfrwt>
<pdfrwt beam="2">  1       -2 0.28059397E-01 0.54424062E+03</pdfrwt>
<totfact> 0.10445629E+02</totfact>
</mgrwt>
</event>
<event>
 4    1  0.2488810E-002  0.4024613E+03  0.7818608E-02  0.1042931E+00
         -4   -1    0    0    0  501 -0.00000000000E+00  0.00000000000E+00  0.55994301326E+03  0.55994301326E+03  0.00000000000E+00 0. -1.
          4   -1    0    0  502    0  0.00000000000E+00 -0.00000000000E+00 -0.33525358122E+03  0.33525358122E+03  0.00000000000E+00 0.  1.
    9000007    1    1    2  502    0  0.41613523583E+02  0.15600453613E+02 -0.53423096643E+02  0.40599148606E+03  0.40000000000E+03 0.  1.
   -9000007    1    1    2    0  501 -0.41613523583E+02 -0.15600453613E+02  0.27811252868E+03  0.48920510842E+03  0.40000000000E+03 0. -1.
<mgrwt>
<rscale>  2 0.40246125E+03</rscale>
<asrwt>0</asrwt>
<pdfrwt beam="1">  1        4 0.51577474E-01 0.40246125E+03</pdfrwt>
<pdfrwt beam="2">  1       -4 0.86145079E-01 0.40246125E+03</pdfrwt>
<totfact> 0.81500241E+00</totfact>
</mgrwt>
</event>
<event>
 4    1  0.2488810E-002  0.4196110E+03  0.7818608E-02  0.1037193E+00
         -2   -1    0    0    0  501 -0.00000000000E+00  0.00000000000E+00  0.60670915408E+03  0.60670915408E+03  0.00000000000E+00 0.  1.
          2   -1    0    0  502    0  0.00000000000E+00 -0.00000000000E+00 -0.31804019328E+03  0.31804019328E+03  0.00000000000E+00 0. -1.
    9000007    1    1    2  502    0  0.11649798359E+03  0.50016105786E+02  0.28110954673E+03  0.50507026073E+03  0.40000000000E+03 0. -1.
   -9000007    1    1    2    0  501 -0.11649798359E+03 -0.50016105786E+02  0.75594140742E+01  0.41967908663E+03  0.40000000000E+03 0. -1.
<mgrwt>
<rscale>  2 0.41961100E+03</rscale>
<asrwt>0</asrwt>
<pdfrwt beam="1">  1        2 0.48929261E-01 0.41961100E+03</pdfrwt>
<pdfrwt beam="2">  1       -2 0.93339869E-01 0.41961100E+03</pdfrwt>
<totfact> 0.10279673E+02</totfact>
</mgrwt>
</event>
<event>
 4    1  0.2488810E-002  0.4243422E+03  0.7818608E-02  0.1035662E+00
         -2   -1    0    0    0  501 -0.00000000000E+00  0.00000000000E+00  0.36154335420E+03  0.36154335420E+03  0.00000000000E+00 0.  1.
          2   -1    0    0  502    0  0.00000000000E+00 -0.00000000000E+00 -0.57355295371E+03  0.57355295371E+03  0.00000000000E+00 0. -1.
    9000007    1    1    2  502    0  0.10735389276E+03  0.92420049724E+02 -0.27564324796E+03  0.50600941101E+03  0.40000000000E+03 0. -1.
   -9000007    1    1    2    0  501 -0.10735389276E+03 -0.92420049724E+02  0.63633648445E+02  0.42908689691E+03  0.40000000000E+03 0. -1.
<mgrwt>
<rscale>  2 0.42434222E+03</rscale>
<asrwt>0</asrwt>
<pdfrwt beam="1">  1        2 0.88238915E-01 0.42434222E+03</pdfrwt>
<pdfrwt beam="2">  1       -2 0.55622055E-01 0.42434222E+03</pdfrwt>
<totfact> 0.16383635E+02</totfact>
</mgrwt>
</event>
<event>
 4    1  0.2488810E-002  0.4346059E+03  0.7818608E-02  0.1032415E+00
          2   -1    0    0  502    0  0.00000000000E+00  0.00000000000E+00  0.60580248296E+03  0.60580248296E+03  0.00000000000E+00 0.  1.
         -2   -1    0    0    0  501 -0.00000000000E+00 -0.00000000000E+00 -0.45506288975E+03  0.45506288975E+03  0.00000000000E+00 0. -1.
    9000007    1    1    2  502    0  0.11113032190E+03  0.12857818578E+03  0.37300118114E+03  0.57272347554E+03  0.40000000000E+03 0.  1.
   -9000007    1    1    2    0  501 -0.11113032190E+03 -0.12857818578E+03 -0.22226158793E+03  0.48814189717E+03  0.40000000000E+03 0. -1.
<mgrwt>
<rscale>  2 0.43460591E+03</rscale>
<asrwt>0</asrwt>
<pdfrwt beam="1">  1        2 0.93200382E-01 0.43460591E+03</pdfrwt>
<pdfrwt beam="2">  1       -2 0.70009675E-01 0.43460591E+03</pdfrwt>
<totfact> 0.94384456E+01</totfact>
</mgrwt>
</event>
<event>
 4    1  0.2488810E-002  0.5206184E+03  0.7818608E-02  0.1008533E+00
         -2   -1    0    0    0  501 -0.00000000000E+00  0.00000000000E+00  0.18021463340E+03  0.18021463340E+03  0.00000000000E+00 0. -1.
          2   -1    0    0  502    0  0.00000000000E+00 -0.00000000000E+00 -0.20676911896E+04  0.20676911896E+04  0.00000000000E+00 0.  1.
    9000007    1    1    2  502    0  0.13342344609E+03  0.30535504505E+03 -0.35689196295E+03  0.63120154683E+03  0.40000000000E+03 0. -1.
   -9000007    1    1    2    0  501 -0.13342344609E+03 -0.30535504505E+03 -0.15305845932E+04  0.16167042762E+04  0.40000000000E+03 0.  1.
<mgrwt>
<rscale>  2 0.52061840E+03</rscale>
<asrwt>0</asrwt>
<pdfrwt beam="1">  1        2 0.31810633E+00 0.52061840E+03</pdfrwt>
<pdfrwt beam="2">  1       -2 0.27725329E-01 0.52061840E+03</pdfrwt>
<totfact> 0.77146066E+01</totfact>
</mgrwt>
</event>
<event>
 4    1  0.2488810E-002  0.4111319E+03  0.7818608E-02  0.1039992E+00
         -1   -1    0    0    0  501 -0.00000000000E+00  0.00000000000E+00  0.14610710833E+03  0.14610710833E+03  0.00000000000E+00 0. -1.
          1   -1    0    0  502    0  0.00000000000E+00 -0.00000000000E+00 -0.11724237580E+04  0.11724237580E+04  0.00000000000E+00 0.  1.
    9000007    1    1    2  502    0 -0.53777874671E+02 -0.78341286127E+02 -0.43726598465E+03  0.60019243435E+03  0.40000000000E+03 0. -1.
   -9000007    1    1    2    0  501  0.53777874671E+02  0.78341286127E+02 -0.58905066506E+03  0.71833843203E+03  0.40000000000E+03 0.  1.
<mgrwt>
<rscale>  2 0.41113187E+03</rscale>
<asrwt>0</asrwt>
<pdfrwt beam="1">  1        1 0.18037288E+00 0.41113187E+03</pdfrwt>
<pdfrwt beam="2">  1       -1 0.22478017E-01 0.41113187E+03</pdfrwt>
<totfact> 0.19675146E+02</totfact>
</mgrwt>
</event>
<event>
 4    1  0.2488810E-002  0.4616874E+03  0.7818608E-02  0.1024293E+00
         -2   -1    0    0    0  501 -0.00000000000E+00  0.00000000000E+00  0.12941001438E+03  0.12941001438E+03  0.00000000000E+00 0.  1.
          2   -1    0    0  502    0  0.00000000000E+00 -0.00000000000E+00 -0.16536693578E+04  0.16536693578E+04  0.00000000000E+00 0. -1.
    9000007    1    1    2  502    0 -0.23007775124E+03  0.14816292789E+02 -0.81818777853E+03  0.93946076825E+03  0.40000000000E+03 0.  1.
   -9000007    1    1    2    0  501  0.23007775124E+03 -0.14816292789E+02 -0.70607156491E+03  0.84361860395E+03  0.40000000000E+03 0. -1.
<mgrwt>
<rscale>  2 0.46168744E+03</rscale>
<asrwt>0</asrwt>
<pdfrwt beam="1">  1        2 0.25441066E+00 0.46168744E+03</pdfrwt>
<pdfrwt beam="2">  1       -2 0.19909234E-01 0.46168744E+03</pdfrwt>
<totfact> 0.23401701E+02</totfact>
</mgrwt>
</event>
<event>
 4    1  0.2488810E-002  0.8148436E+03  0.7818608E-02  0.9538777E-01
          1   -1    0    0  502    0  0.00000000000E+00  0.00000000000E+00  0.65704822437E+03  0.65704822437E+03  0.00000000000E+00 0. -1.
         -1   -1    0    0    0  501 -0.00000000000E+00 -0.00000000000E+00 -0.10843401423E+04  0.10843401423E+04  0.00000000000E+00 0.  1.
    9000007    1    1    2  502    0  0.52389813452E+03  0.47906246017E+03  0.13511380941E+02  0.81495561444E+03  0.40000000000E+03 0. -1.
   -9000007    1    1    2    0  501 -0.52389813452E+03 -0.47906246017E+03 -0.44080329886E+03  0.92643275222E+03  0.40000000000E+03 0.  1.
<mgrwt>
<rscale>  2 0.81484360E+03</rscale>
<asrwt>0</asrwt>
<pdfrwt beam="1">  1        1 0.10108434E+00 0.81484360E+03</pdfrwt>
<pdfrwt beam="2">  1       -1 0.16682156E+00 0.81484360E+03</pdfrwt>
<totfact> 0.79685855E+00</totfact>
</mgrwt>
</event>
<event>
 4    1  0.2488810E-002  0.5565949E+03  0.7818608E-02  0.9999789E-01
         -2   -1    0    0    0  501 -0.00000000000E+00  0.00000000000E+00  0.41941770707E+03  0.41941770707E+03  0.00000000000E+00 0. -1.
          2   -1    0    0  502    0  0.00000000000E+00 -0.00000000000E+00 -0.82600347890E+03  0.82600347890E+03  0.00000000000E+00 0.  1.
    9000007    1    1    2  502    0  0.36867630732E+03 -0.11779484474E+03 -0.40581167092E+03  0.68882578152E+03  0.40000000000E+03 0.  1.
   -9000007    1    1    2    0  501 -0.36867630732E+03  0.11779484474E+03 -0.77410090421E+00  0.55659540445E+03  0.40000000000E+03 0. -1.
<mgrwt>
<rscale>  2 0.55659487E+03</rscale>
<asrwt>0</asrwt>
<pdfrwt beam="1">  1        2 0.12707746E+00 0.55659487E+03</pdfrwt>
<pdfrwt beam="2">  1       -2 0.64525802E-01 0.55659487E+03</pdfrwt>
<totfact> 0.75361881E+01</totfact>
</mgrwt>
</event>
<event>
 4    1  0.2488810E-002  0.4353656E+03  0.7818608E-02  0.1032178E+00
          2   -1    0    0  502    0  0.00000000000E+00  0.00000000000E+00  0.24600770909E+03  0.24600770909E+03  0.00000000000E+00 0. -1.
         -2   -1    0    0    0  501 -0.00000000000E+00 -0.00000000000E+00 -0.91995208274E+03  0.91995208274E+03  0.00000000000E+00 0.  1.
    9000007    1    1    2  502    0 -0.40877309263E+02 -0.16694983615E+03 -0.57196568450E+03  0.71881009067E+03  0.40000000000E+03 0.  1.
   -9000007    1    1    2    0  501  0.40877309263E+02  0.16694983615E+03 -0.10197868914E+03  0.44714970116E+03  0.40000000000E+03 0.  1.
<mgrwt>
<rscale>  2 0.43536560E+03</rscale>
<asrwt>0</asrwt>
<pdfrwt beam="1">  1        2 0.37847339E-01 0.43536560E+03</pdfrwt>
<pdfrwt beam="2">  1       -2 0.14153109E+00 0.43536560E+03</pdfrwt>
<totfact> 0.49460824E+01</totfact>
</mgrwt>
</event>
<event>
 4    1  0.2488810E-002  0.5759955E+03  0.7818608E-02  0.9956498E-01
         -2   -1    0    0    0  501 -0.00000000000E+00  0.00000000000E+00  0.13285308450E+03  0.13285308450E+03  0.00000000000E+00 0. -1.
          2   -1    0    0  502    0  0.00000000000E+00 -0.00000000000E+00 -0.25266833345E+04  0.25266833345E+04  0.00000000000E+00 0.  1.
    9000007    1    1    2  502    0  0.66830881566E+02  0.40902869244E+03 -0.10534562770E+04  0.12006418973E+04  0.40000000000E+03 0. -1.
   -9000007    1    1    2    0  501 -0.66830881566E+02 -0.40902869244E+03 -0.13403739730E+04  0.14588945217E+04  0.40000000000E+03 0. -1.
<mgrwt>
<rscale>  2 0.57599552E+03</rscale>
<asrwt>0</asrwt>
<pdfrwt beam="1">  1        2 0.38872049E+00 0.57599552E+03</pdfrwt>
<pdfrwt beam="2">  1       -2 0.20438937E-01 0.57599552E+03</pdfrwt>
<totfact> 0.73569399E+01</totfact>
</mgrwt>
</event>
<event>
 4    1  0.2488810E-002  0.4155341E+03  0.7818608E-02  0.1038530E+00
         -2   -1    0    0    0  501 -0.00000000000E+00  0.00000000000E+00  0.12377896096E+03  0.12377896096E+03  0.00000000000E+00 0.  1.
          2   -1    0    0  502    0  0.00000000000E+00 -0.00000000000E+00 -0.14094795723E+04  0.14094795723E+04  0.00000000000E+00 0. -1.
    9000007    1    1    2  502    0  0.23987614934E+02 -0.10996884781E+03 -0.72061971779E+03  0.83184213095E+03  0.40000000000E+03 0. -1.
   -9000007    1    1    2    0  501 -0.23987614934E+02  0.10996884781E+03 -0.56508089351E+03  0.70141640227E+03  0.40000000000E+03 0.  1.
<mgrwt>
<rscale>  2 0.41553406E+03</rscale>
<asrwt>0</asrwt>
<pdfrwt beam="1">  1        2 0.21684300E+00 0.41553406E+03</pdfrwt>
<pdfrwt beam="2">  1       -2 0.19042918E-01 0.41553406E+03</pdfrwt>
<totfact> 0.34514030E+02</totfact>
</mgrwt>
</event>
<event>
 4    1  0.2488810E-002  0.4362249E+03  0.7818608E-02  0.1031911E+00
         -1   -1    0    0    0  501 -0.00000000000E+00  0.00000000000E+00  0.25595441860E+03  0.25595441860E+03  0.00000000000E+00 0. -1.
          1   -1    0    0  502    0  0.00000000000E+00 -0.00000000000E+00 -0.12946448422E+04  0.12946448422E+04  0.00000000000E+00 0.  1.
    9000007    1    1    2  502    0 -0.15032288774E+03 -0.87722125768E+02 -0.10252193432E+04  0.11141664344E+04  0.40000000000E+03 0.  1.
   -9000007    1    1    2    0  501  0.15032288774E+03  0.87722125768E+02 -0.13471080411E+02  0.43643282637E+03  0.40000000000E+03 0. -1.
<mgrwt>
<rscale>  2 0.43622488E+03</rscale>
<asrwt>0</asrwt>
<pdfrwt beam="1">  1        1 0.19917613E+00 0.43622488E+03</pdfrwt>
<pdfrwt beam="2">  1       -1 0.39377603E-01 0.43622488E+03</pdfrwt>
<totfact> 0.61100003E+01</totfact>
</mgrwt>
</event>
<event>
 4    1  0.2488810E-002  0.4717530E+03  0.7818608E-02  0.1021427E+00
         -1   -1    0    0    0  501 -0.00000000000E+00  0.00000000000E+00  0.35489965974E+03  0.35489965974E+03  0.00000000000E+00 0.  1.
          1   -1    0    0  502    0  0.00000000000E+00 -0.00000000000E+00 -0.73788278455E+03  0.73788278455E+03  0.00000000000E+00 0. -1.
    9000007    1    1    2  502    0  0.24450005083E+03  0.52636630170E+02 -0.40322190105E+03  0.62059551334E+03  0.40000000000E+03 0. -1.
   -9000007    1    1    2    0  501 -0.24450005083E+03 -0.52636630170E+02  0.20238776236E+02  0.47218693095E+03  0.40000000000E+03 0.  1.
<mgrwt>
<rscale>  2 0.47175300E+03</rscale>
<asrwt>0</asrwt>
<pdfrwt beam="1">  1        1 0.11352043E+00 0.47175300E+03</pdfrwt>
<pdfrwt beam="2">  1       -1 0.54599948E-01 0.47175300E+03</pdfrwt>
<totfact> 0.89132364E+01</totfact>
</mgrwt>
</event>
<event>
 4    1  0.2488810E-002  0.4905804E+03  0.7818608E-02  0.1016267E+00
          2   -1    0    0  502    0  0.00000000000E+00  0.00000000000E+00  0.38356265333E+04  0.38356265333E+04  0.00000000000E+00 0.  1.
         -2   -1    0    0    0  501 -0.00000000000E+00 -0.00000000000E+00 -0.63477474028E+02  0.63477474028E+02  0.00000000000E+00 0. -1.
    9000007    1    1    2  502    0 -0.17434991710E+03 -0.22421244906E+03  0.20953942219E+04  0.21520562402E+04  0.40000000000E+03 0.  1.
   -9000007    1    1    2    0  501  0.17434991710E+03  0.22421244906E+03  0.16767548374E+04  0.17470477671E+04  0.40000000000E+03 0. -1.
<mgrwt>
<rscale>  2 0.49058039E+03</rscale>
<asrwt>0</asrwt>
<pdfrwt beam="1">  1        2 0.59009621E+00 0.49058039E+03</pdfrwt>
<pdfrwt beam="2">  1       -2 0.97657682E-02 0.49058039E+03</pdfrwt>
<totfact> 0.37939477E+01</totfact>
</mgrwt>
</event>
<event>
 4    1  0.2488810E-002  0.5816940E+03  0.7818608E-02  0.9944130E-01
         -2   -1    0    0    0  501 -0.00000000000E+00  0.00000000000E+00  0.92771654015E+03  0.92771654015E+03  0.00000000000E+00 0.  1.
          2   -1    0    0  502    0  0.00000000000E+00 -0.00000000000E+00 -0.36967386033E+03  0.36967386033E+03  0.00000000000E+00 0. -1.
    9000007    1    1    2  502    0  0.22040799069E+03 -0.36026140498E+03  0.35402354450E+03  0.68095567575E+03  0.40000000000E+03 0.  1.
   -9000007    1    1    2    0  501 -0.22040799069E+03  0.36026140498E+03  0.20401913533E+03  0.61643472473E+03  0.40000000000E+03 0.  1.
<mgrwt>
<rscale>  2 0.58169405E+03</rscale>
<asrwt>0</asrwt>
<pdfrwt beam="1">  1        2 0.56872902E-01 0.58169405E+03</pdfrwt>
<pdfrwt beam="2">  1       -2 0.14272562E+00 0.58169405E+03</pdfrwt>
<totfact> 0.30458917E+01</totfact>
</mgrwt>
</event>
<event>
 4    1  0.2488810E-002  0.7504406E+03  0.7818608E-02  0.9634659E-01
         -2   -1    0    0    0  501 -0.00000000000E+00  0.00000000000E+00  0.12806203702E+04  0.12806203702E+04  0.00000000000E+00 0.  1.
          2   -1    0    0  502    0  0.00000000000E+00 -0.00000000000E+00 -0.60351365375E+03  0.60351365375E+03  0.00000000000E+00 0. -1.
    9000007    1    1    2  502    0 -0.48206494110E+03 -0.41324872343E+03  0.82927860806E+03  0.11184203703E+04  0.40000000000E+03 0.  1.
   -9000007    1    1    2    0  501  0.48206494110E+03  0.41324872343E+03 -0.15217189160E+03  0.76571365369E+03  0.40000000000E+03 0. -1.
<mgrwt>
<rscale>  2 0.75044061E+03</rscale>
<asrwt>0</asrwt>
<pdfrwt beam="1">  1        2 0.92848255E-01 0.75044061E+03</pdfrwt>
<pdfrwt beam="2">  1       -2 0.19701852E+00 0.75044061E+03</pdfrwt>
<totfact> 0.69878238E+00</totfact>
</mgrwt>
</event>
<event>
 4    1  0.2488810E-002  0.4188403E+03  0.7818608E-02  0.1037444E+00
          1   -1    0    0  502    0  0.00000000000E+00  0.00000000000E+00  0.50344026554E+03  0.50344026554E+03  0.00000000000E+00 0. -1.
         -1   -1    0    0    0  501 -0.00000000000E+00 -0.00000000000E+00 -0.42068151288E+03  0.42068151288E+03  0.00000000000E+00 0.  1.
    9000007    1    1    2  502    0 -0.98604349832E+02 -0.75527450116E+02 -0.15007497053E+03  0.44491539680E+03  0.40000000000E+03 0.  1.
   -9000007    1    1    2    0  501  0.98604349832E+02  0.75527450116E+02  0.23283372320E+03  0.47920638162E+03  0.40000000000E+03 0. -1.
<mgrwt>
<rscale>  2 0.41884032E+03</rscale>
<asrwt>0</asrwt>
<pdfrwt beam="1">  1        1 0.77452349E-01 0.41884032E+03</pdfrwt>
<pdfrwt beam="2">  1       -1 0.64720233E-01 0.41884032E+03</pdfrwt>
<totfact> 0.11119459E+02</totfact>
</mgrwt>
</event>
<event>
 4    1  0.2488810E-002  0.4155491E+03  0.7818608E-02  0.1038525E+00
          1   -1    0    0  502    0  0.00000000000E+00  0.00000000000E+00  0.28255984731E+04  0.28255984731E+04  0.00000000000E+00 0.  1.
         -1   -1    0    0    0  501 -0.00000000000E+00 -0.00000000000E+00 -0.64177393102E+02  0.64177393102E+02  0.00000000000E+00 0. -1.
    9000007    1    1    2  502    0  0.47689760474E+02 -0.10201360388E+03  0.10649861631E+04  0.11431870435E+04  0.40000000000E+03 0. -1.
   -9000007    1    1    2    0  501 -0.47689760474E+02  0.10201360388E+03  0.16964349168E+04  0.17465888227E+04  0.40000000000E+03 0.  1.
<mgrwt>
<rscale>  2 0.41554914E+03</rscale>
<asrwt>0</asrwt>
<pdfrwt beam="1">  1        1 0.43470736E+00 0.41554914E+03</pdfrwt>
<pdfrwt beam="2">  1       -1 0.98734473E-02 0.41554914E+03</pdfrwt>
<totfact> 0.57195753E+01</totfact>
</mgrwt>
</event>
<event>
 4    1  0.2488810E-002  0.5260351E+03  0.7818608E-02  0.1007198E+00
         -1   -1    0    0    0  501 -0.00000000000E+00  0.00000000000E+00  0.26969224461E+03  0.26969224461E+03  0.00000000000E+00 0.  1.
          1   -1    0    0  502    0  0.00000000000E+00 -0.00000000000E+00 -0.11684770833E+04  0.11684770833E+04  0.00000000000E+00 0. -1.
    9000007    1    1    2  502    0  0.29712356425E+03  0.16861346726E+03 -0.70046161359E+03  0.87599051701E+03  0.40000000000E+03 0. -1.
   -9000007    1    1    2    0  501 -0.29712356425E+03 -0.16861346726E+03 -0.19832322506E+03  0.56217881085E+03  0.40000000000E+03 0.  1.
<mgrwt>
<rscale>  2 0.52603509E+03</rscale>
<asrwt>0</asrwt>
<pdfrwt beam="1">  1        1 0.17976571E+00 0.52603509E+03</pdfrwt>
<pdfrwt beam="2">  1       -1 0.41491114E-01 0.52603509E+03</pdfrwt>
<totfact> 0.67366475E+01</totfact>
</mgrwt>
</event>
<event>
 4    1  0.2488810E-002  0.4471631E+03  0.7818608E-02  0.1028571E+00
          1   -1    0    0  502    0  0.00000000000E+00  0.00000000000E+00  0.34092106813E+03  0.34092106813E+03  0.00000000000E+00 0.  1.
         -1   -1    0    0    0  501 -0.00000000000E+00 -0.00000000000E+00 -0.64979640689E+03  0.64979640689E+03  0.00000000000E+00 0. -1.
    9000007    1    1    2  502    0  0.10799608731E+03  0.16820130682E+03  0.14974295782E+00  0.44716312115E+03  0.40000000000E+03 0.  1.
   -9000007    1    1    2    0  501 -0.10799608731E+03 -0.16820130682E+03 -0.30902508171E+03  0.54355435388E+03  0.40000000000E+03 0. -1.
<mgrwt>
<rscale>  2 0.44716310E+03</rscale>
<asrwt>0</asrwt>
<pdfrwt beam="1">  1        1 0.52449396E-01 0.44716310E+03</pdfrwt>
<pdfrwt beam="2">  1       -1 0.99968677E-01 0.44716310E+03</pdfrwt>
<totfact> 0.74003725E+01</totfact>
</mgrwt>
</event>
<event>
 4    1  0.2488810E-002  0.4525765E+03  0.7818608E-02  0.1026956E+00
         -2   -1    0    0    0  501 -0.00000000000E+00  0.00000000000E+00  0.17475663381E+03  0.17475663381E+03  0.00000000000E+00 0.  1.
          2   -1    0    0  502    0  0.00000000000E+00 -0.00000000000E+00 -0.12065213397E+04  0.12065213397E+04  0.00000000000E+00 0. -1.
    9000007    1    1    2  502    0  0.72812817878E+02  0.19880578311E+03 -0.39916297285E+03  0.60345382983E+03  0.40000000000E+03 0. -1.
   -9000007    1    1    2    0  501 -0.72812817878E+02 -0.19880578311E+03 -0.63260173307E+03  0.77782414370E+03  0.40000000000E+03 0. -1.
<mgrwt>
<rscale>  2 0.45257645E+03</rscale>
<asrwt>0</asrwt>
<pdfrwt beam="1">  1        2 0.18561866E+00 0.45257645E+03</pdfrwt>
<pdfrwt beam="2">  1       -2 0.26885637E-01 0.45257645E+03</pdfrwt>
<totfact> 0.24377046E+02</totfact>
</mgrwt>
</event>
<event>
 4    1  0.2488810E-002  0.5143759E+03  0.7818608E-02  0.1010093E+00
          2   -1    0    0  502    0  0.00000000000E+00  0.00000000000E+00  0.73493972746E+03  0.73493972746E+03  0.00000000000E+00 0.  1.
         -2   -1    0    0    0  501 -0.00000000000E+00 -0.00000000000E+00 -0.37945101652E+03  0.37945101652E+03  0.00000000000E+00 0. -1.
    9000007    1    1    2  502    0 -0.27242125977E+03  0.17426773516E+03  0.51609329368E+02  0.51695851784E+03  0.40000000000E+03 0. -1.
   -9000007    1    1    2    0  501  0.27242125977E+03 -0.17426773516E+03  0.30387938157E+03  0.59743222614E+03  0.40000000000E+03 0.  1.
<mgrwt>
<rscale>  2 0.51437592E+03</rscale>
<asrwt>0</asrwt>
<pdfrwt beam="1">  1        2 0.11306765E+00 0.51437592E+03</pdfrwt>
<pdfrwt beam="2">  1       -2 0.58377080E-01 0.51437592E+03</pdfrwt>
<totfact> 0.10877102E+02</totfact>
</mgrwt>
</event>
<event>
 4    1  0.2488810E-002  0.4647990E+03  0.7818608E-02  0.1023398E+00
          2   -1    0    0  502    0  0.00000000000E+00  0.00000000000E+00  0.24191975282E+04  0.24191975282E+04  0.00000000000E+00 0.  1.
         -2   -1    0    0    0  501 -0.00000000000E+00 -0.00000000000E+00 -0.10950625572E+03  0.10950625572E+03  0.00000000000E+00 0. -1.
    9000007    1    1    2  502    0 -0.85389277195E+02 -0.22078678037E+03  0.61175217262E+03  0.76829607037E+03  0.40000000000E+03 0. -1.
   -9000007    1    1    2    0  501  0.85389277195E+02  0.22078678037E+03  0.16979390998E+04  0.17604077135E+04  0.40000000000E+03 0.  1.
<mgrwt>
<rscale>  2 0.46479902E+03</rscale>
<asrwt>0</asrwt>
<pdfrwt beam="1">  1        2 0.37218419E+00 0.46479902E+03</pdfrwt>
<pdfrwt beam="2">  1       -2 0.16847118E-01 0.46479902E+03</pdfrwt>
<totfact> 0.12014034E+02</totfact>
</mgrwt>
</event>
<event>
 4    1  0.2488810E-002  0.4176394E+03  0.7818608E-02  0.1037837E+00
         -1   -1    0    0    0  501 -0.00000000000E+00  0.00000000000E+00  0.90807826916E+02  0.90807826916E+02  0.00000000000E+00 0.  1.
          1   -1    0    0  502    0  0.00000000000E+00 -0.00000000000E+00 -0.21007270167E+04  0.21007270167E+04  0.00000000000E+00 0. -1.
    9000007    1    1    2  502    0 -0.85849041264E+01 -0.11978705117E+03 -0.13256570609E+04  0.13898882262E+04  0.40000000000E+03 0. -1.
   -9000007    1    1    2    0  501  0.85849041264E+01  0.11978705117E+03 -0.68426212894E+03  0.80164661747E+03  0.40000000000E+03 0.  1.
<mgrwt>
<rscale>  2 0.41763936E+03</rscale>
<asrwt>0</asrwt>
<pdfrwt beam="1">  1        1 0.32318877E+00 0.41763936E+03</pdfrwt>
<pdfrwt beam="2">  1       -1 0.13970435E-01 0.41763936E+03</pdfrwt>
<totfact> 0.10150415E+02</totfact>
</mgrwt>
</event>
<event>
 4    1  0.2488810E-002  0.6531143E+03  0.7818608E-02  0.9800953E-01
         -1   -1    0    0    0  501 -0.00000000000E+00  0.00000000000E+00  0.33516678908E+03  0.33516678908E+03  0.00000000000E+00 0.  1.
          1   -1    0    0  502    0  0.00000000000E+00 -0.00000000000E+00 -0.17284375873E+04  0.17284375873E+04  0.00000000000E+00 0. -1.
    9000007    1    1    2  502    0 -0.91166642489E+02  0.50818004481E+03 -0.12264684442E+04  0.13895262356E+04  0.40000000000E+03 0. -1.
   -9000007    1    1    2    0  501  0.91166642489E+02 -0.50818004481E+03 -0.16680235402E+03  0.67407814083E+03  0.40000000000E+03 0. -1.
<mgrwt>
<rscale>  2 0.65311432E+03</rscale>
<asrwt>0</asrwt>
<pdfrwt beam="1">  1        1 0.26591347E+00 0.65311432E+03</pdfrwt>
<pdfrwt beam="2">  1       -1 0.51564122E-01 0.65311432E+03</pdfrwt>
<totfact> 0.18166877E+01</totfact>
</mgrwt>
</event>
<event>
 4    1  0.2488810E-002  0.4383042E+03  0.7818608E-02  0.1031268E+00
         -1   -1    0    0    0  501 -0.00000000000E+00  0.00000000000E+00  0.27783943411E+03  0.27783943411E+03  0.00000000000E+00 0.  1.
          1   -1    0    0  502    0  0.00000000000E+00 -0.00000000000E+00 -0.72032473971E+03  0.72032473971E+03  0.00000000000E+00 0. -1.
    9000007    1    1    2  502    0  0.14033127099E+03 -0.11143467483E+03 -0.12130983999E+03  0.45478195836E+03  0.40000000000E+03 0.  1.
   -9000007    1    1    2    0  501 -0.14033127099E+03  0.11143467483E+03 -0.32117546560E+03  0.54338221546E+03  0.40000000000E+03 0. -1.
<mgrwt>
<rscale>  2 0.43830418E+03</rscale>
<asrwt>0</asrwt>
<pdfrwt beam="1">  1        1 0.11081919E+00 0.43830418E+03</pdfrwt>
<pdfrwt beam="2">  1       -1 0.42744529E-01 0.43830418E+03</pdfrwt>
<totfact> 0.14645846E+02</totfact>
</mgrwt>
</event>
<event>
 4    1  0.2488810E-002  0.4226086E+03  0.7818608E-02  0.1036221E+00
         -2   -1    0    0    0  501 -0.00000000000E+00  0.00000000000E+00  0.35480070217E+03  0.35480070217E+03  0.00000000000E+00 0. -1.
          2   -1    0    0  502    0  0.00000000000E+00 -0.00000000000E+00 -0.50415245999E+03  0.50415245999E+03  0.00000000000E+00 0.  1.
    9000007    1    1    2  502    0 -0.10356888815E+03  0.88721630475E+02 -0.91534011266E+02  0.43240781390E+03  0.40000000000E+03 0.  1.
   -9000007    1    1    2    0  501  0.10356888815E+03 -0.88721630475E+02 -0.57817746555E+02  0.42654534826E+03  0.40000000000E+03 0. -1.
<mgrwt>
<rscale>  2 0.42260862E+03</rscale>
<asrwt>0</asrwt>
<pdfrwt beam="1">  1        2 0.77561916E-01 0.42260862E+03</pdfrwt>
<pdfrwt beam="2">  1       -2 0.54584724E-01 0.42260862E+03</pdfrwt>
<totfact> 0.19775507E+02</totfact>
</mgrwt>
</event>
<event>
 4    1  0.2488810E-002  0.5301467E+03  0.7818608E-02  0.1006197E+00
         -3   -1    0    0    0  501 -0.00000000000E+00  0.00000000000E+00  0.72026163582E+03  0.72026163582E+03  0.00000000000E+00 0.  1.
          3   -1    0    0  502    0  0.00000000000E+00 -0.00000000000E+00 -0.43219754838E+03  0.43219754838E+03  0.00000000000E+00 0. -1.
    9000007    1    1    2  502    0 -0.66637855713E+02 -0.34148934378E+03  0.32362871159E+03  0.62112085675E+03  0.40000000000E+03 0. -1.
   -9000007    1    1    2    0  501  0.66637855713E+02  0.34148934378E+03 -0.35564624151E+02  0.53133832745E+03  0.40000000000E+03 0. -1.
<mgrwt>
<rscale>  2 0.53014675E+03</rscale>
<asrwt>0</asrwt>
<pdfrwt beam="1">  1        3 0.66491931E-01 0.53014675E+03</pdfrwt>
<pdfrwt beam="2">  1       -3 0.11080948E+00 0.53014675E+03</pdfrwt>
<totfact> 0.39079418E+00</totfact>
</mgrwt>
</event>
<event>
 4    1  0.2488810E-002  0.4949766E+03  0.7818608E-02  0.1015098E+00
         -1   -1    0    0    0  501 -0.00000000000E+00  0.00000000000E+00  0.10186917192E+03  0.10186917192E+03  0.00000000000E+00 0. -1.
          1   -1    0    0  502    0  0.00000000000E+00 -0.00000000000E+00 -0.33672056472E+04  0.33672056472E+04  0.00000000000E+00 0.  1.
    9000007    1    1    2  502    0 -0.26414104660E+02 -0.29035172611E+03 -0.70547882398E+03  0.86180171784E+03  0.40000000000E+03 0.  1.
   -9000007    1    1    2    0  501  0.26414104660E+02  0.29035172611E+03 -0.25598576513E+04  0.26072731013E+04  0.40000000000E+03 0.  1.
<mgrwt>
<rscale>  2 0.49497660E+03</rscale>
<asrwt>0</asrwt>
<pdfrwt beam="1">  1        1 0.51803164E+00 0.49497660E+03</pdfrwt>
<pdfrwt beam="2">  1       -1 0.15672180E-01 0.49497660E+03</pdfrwt>
<totfact> 0.10970230E+01</totfact>
</mgrwt>
</event>
<event>
 4    1  0.2488810E-002  0.4406362E+03  0.7818608E-02  0.1030552E+00
          2   -1    0    0  502    0  0.00000000000E+00  0.00000000000E+00  0.11595418542E+04  0.11595418542E+04  0.00000000000E+00 0. -1.
         -2   -1    0    0    0  501 -0.00000000000E+00 -0.00000000000E+00 -0.20090697930E+03  0.20090697930E+03  0.00000000000E+00 0.  1.
    9000007    1    1    2  502    0 -0.14278208358E+03  0.11736084966E+03  0.20171325588E+03  0.48461173120E+03  0.40000000000E+03 0.  1.
   -9000007    1    1    2    0  501  0.14278208358E+03 -0.11736084966E+03  0.75692161898E+03  0.87583710226E+03  0.40000000000E+03 0. -1.
<mgrwt>
<rscale>  2 0.44063624E+03</rscale>
<asrwt>0</asrwt>
<pdfrwt beam="1">  1        2 0.17839105E+00 0.44063624E+03</pdfrwt>
<pdfrwt beam="2">  1       -2 0.30908767E-01 0.44063624E+03</pdfrwt>
<totfact> 0.20147707E+02</totfact>
</mgrwt>
</event>
<event>
 4    1  0.2488810E-002  0.4720526E+03  0.7818608E-02  0.1021342E+00
          2   -1    0    0  502    0  0.00000000000E+00  0.00000000000E+00  0.71769093607E+03  0.71769093607E+03  0.00000000000E+00 0.  1.
         -2   -1    0    0    0  501 -0.00000000000E+00 -0.00000000000E+00 -0.31772012029E+03  0.31772012029E+03  0.00000000000E+00 0. -1.
    9000007    1    1    2  502    0  0.25039408204E+03  0.11682382068E+02  0.27809863788E+03  0.54788002954E+03  0.40000000000E+03 0. -1.
   -9000007    1    1    2    0  501 -0.25039408204E+03 -0.11682382068E+02  0.12187217790E+03  0.48753102683E+03  0.40000000000E+03 0. -1.
<mgrwt>
<rscale>  2 0.47205262E+03</rscale>
<asrwt>0</asrwt>
<pdfrwt beam="1">  1        2 0.11041399E+00 0.47205262E+03</pdfrwt>
<pdfrwt beam="2">  1       -2 0.48880019E-01 0.47205262E+03</pdfrwt>
<totfact> 0.16186480E+02</totfact>
</mgrwt>
</event>
<event>
 4    1  0.2488810E-002  0.5012257E+03  0.7818608E-02  0.1013459E+00
          1   -1    0    0  502    0  0.00000000000E+00  0.00000000000E+00  0.17132426508E+04  0.17132426508E+04  0.00000000000E+00 0.  1.
         -1   -1    0    0    0  501 -0.00000000000E+00 -0.00000000000E+00 -0.17368678188E+03  0.17368678188E+03  0.00000000000E+00 0. -1.
    9000007    1    1    2  502    0  0.30149256042E+03  0.18149089412E+02  0.39746085480E+03  0.63968920933E+03  0.40000000000E+03 0. -1.
   -9000007    1    1    2    0  501 -0.30149256042E+03 -0.18149089412E+02  0.11420950141E+04  0.12472402233E+04  0.40000000000E+03 0.  1.
<mgrwt>
<rscale>  2 0.50122565E+03</rscale>
<asrwt>0</asrwt>
<pdfrwt beam="1">  1        1 0.26357578E+00 0.50122565E+03</pdfrwt>
<pdfrwt beam="2">  1       -1 0.26721045E-01 0.50122565E+03</pdfrwt>
<totfact> 0.61952528E+01</totfact>
</mgrwt>
</event>
<event>
 4    1  0.2488810E-002  0.4137589E+03  0.7818608E-02  0.1039117E+00
         -2   -1    0    0    0  501 -0.00000000000E+00  0.00000000000E+00  0.31059314918E+03  0.31059314918E+03  0.00000000000E+00 0.  1.
          2   -1    0    0  502    0  0.00000000000E+00 -0.00000000000E+00 -0.55274140447E+03  0.55274140447E+03  0.00000000000E+00 0. -1.
    9000007    1    1    2  502    0 -0.10570089610E+03  0.48693119009E+01 -0.14393021392E+03  0.43807795666E+03  0.40000000000E+03 0. -1.
   -9000007    1    1    2    0  501  0.10570089610E+03 -0.48693119009E+01 -0.98218041370E+02  0.42525659699E+03  0.40000000000E+03 0.  1.
<mgrwt>
<rscale>  2 0.41375885E+03</rscale>
<asrwt>0</asrwt>
<pdfrwt beam="1">  1        2 0.85037139E-01 0.41375885E+03</pdfrwt>
<pdfrwt beam="2">  1       -2 0.47783562E-01 0.41375885E+03</pdfrwt>
<totfact> 0.23302393E+02</totfact>
</mgrwt>
</event>
<event>
 4    1  0.2488810E-002  0.4655337E+03  0.7818608E-02  0.1023188E+00
          2   -1    0    0  502    0  0.00000000000E+00  0.00000000000E+00  0.33026887156E+03  0.33026887156E+03  0.00000000000E+00 0.  1.
         -2   -1    0    0    0  501 -0.00000000000E+00 -0.00000000000E+00 -0.77760360134E+03  0.77760360134E+03  0.00000000000E+00 0. -1.
    9000007    1    1    2  502    0 -0.23693376653E+03 -0.24166942676E+02 -0.44254463731E+03  0.64231410296E+03  0.40000000000E+03 0. -1.
   -9000007    1    1    2    0  501  0.23693376653E+03  0.24166942676E+02 -0.47900924635E+01  0.46555836995E+03  0.40000000000E+03 0.  1.
<mgrwt>
<rscale>  2 0.46553373E+03</rscale>
<asrwt>0</asrwt>
<pdfrwt beam="1">  1        2 0.50810597E-01 0.46553373E+03</pdfrwt>
<pdfrwt beam="2">  1       -2 0.11963132E+00 0.46553373E+03</pdfrwt>
<totfact> 0.54432112E+01</totfact>
</mgrwt>
</event>
<event>
 4    1  0.2488810E-002  0.8477827E+03  0.7818608E-02  0.9493318E-01
          1   -1    0    0  502    0  0.00000000000E+00  0.00000000000E+00  0.13657498028E+04  0.13657498028E+04  0.00000000000E+00 0.  1.
         -1   -1    0    0    0  501 -0.00000000000E+00 -0.00000000000E+00 -0.54437975373E+03  0.54437975373E+03  0.00000000000E+00 0. -1.
    9000007    1    1    2  502    0  0.59951681829E+03 -0.44644711086E+03  0.58494335673E+03  0.10299971693E+04  0.40000000000E+03 0. -1.
   -9000007    1    1    2    0  501 -0.59951681829E+03  0.44644711086E+03  0.23642669237E+03  0.88013238725E+03  0.40000000000E+03 0. -1.
<mgrwt>
<rscale>  2 0.84778266E+03</rscale>
<asrwt>0</asrwt>
<pdfrwt beam="1">  1        1 0.21011535E+00 0.84778266E+03</pdfrwt>
<pdfrwt beam="2">  1       -1 0.83750732E-01 0.84778266E+03</pdfrwt>
<totfact> 0.11739387E+01</totfact>
</mgrwt>
</event>
<event>
 4    1  0.2488810E-002  0.4303795E+03  0.7818608E-02  0.1033740E+00
          2   -1    0    0  502    0  0.00000000000E+00  0.00000000000E+00  0.43060881634E+03  0.43060881634E+03  0.00000000000E+00 0. -1.
         -2   -1    0    0    0  501 -0.00000000000E+00 -0.00000000000E+00 -0.46290174242E+03  0.46290174242E+03  0.00000000000E+00 0.  1.
    9000007    1    1    2  502    0  0.12649112181E+02 -0.15832406886E+03  0.10268748126E+03  0.44246042719E+03  0.40000000000E+03 0. -1.
   -9000007    1    1    2    0  501 -0.12649112181E+02  0.15832406886E+03 -0.13498040735E+03  0.45105013157E+03  0.40000000000E+03 0.  1.
<mgrwt>
<rscale>  2 0.43037950E+03</rscale>
<asrwt>0</asrwt>
<pdfrwt beam="1">  1        2 0.66247510E-01 0.43037950E+03</pdfrwt>
<pdfrwt beam="2">  1       -2 0.71215653E-01 0.43037950E+03</pdfrwt>
<totfact> 0.13468397E+02</totfact>
</mgrwt>
</event>
<event>
 4    1  0.2488810E-002  0.4120793E+03  0.7818608E-02  0.1039676E+00
         -4   -1    0    0    0  501 -0.00000000000E+00  0.00000000000E+00  0.16348548495E+03  0.16348548495E+03  0.00000000000E+00 0. -1.
          4   -1    0    0  502    0  0.00000000000E+00 -0.00000000000E+00 -0.10790404730E+04  0.10790404730E+04  0.00000000000E+00 0.  1.
    9000007    1    1    2  502    0  0.92133361025E+02 -0.36342397625E+02 -0.33762648941E+03  0.53272973676E+03  0.40000000000E+03 0. -1.
   -9000007    1    1    2    0  501 -0.92133361025E+02  0.36342397625E+02 -0.57792849863E+03  0.70979622118E+03  0.40000000000E+03 0.  1.
<mgrwt>
<rscale>  2 0.41207927E+03</rscale>
<asrwt>0</asrwt>
<pdfrwt beam="1">  1        4 0.16600623E+00 0.41207927E+03</pdfrwt>
<pdfrwt beam="2">  1       -4 0.25151613E-01 0.41207927E+03</pdfrwt>
<totfact> 0.66547571E+00</totfact>
</mgrwt>
</event>
<event>
 4    1  0.2488810E-002  0.4510246E+03  0.7818608E-02  0.1027417E+00
         -2   -1    0    0    0  501 -0.00000000000E+00  0.00000000000E+00  0.15240915415E+03  0.15240915415E+03  0.00000000000E+00 0. -1.
          2   -1    0    0  502    0  0.00000000000E+00 -0.00000000000E+00 -0.13985944006E+04  0.13985944006E+04  0.00000000000E+00 0.  1.
    9000007    1    1    2  502    0 -0.20780662447E+03 -0.15479359301E+02 -0.45736001584E+03  0.64234055440E+03  0.40000000000E+03 0. -1.
   -9000007    1    1    2    0  501  0.20780662447E+03  0.15479359301E+02 -0.78882523059E+03  0.90866300032E+03  0.40000000000E+03 0.  1.
<mgrwt>
<rscale>  2 0.45102462E+03</rscale>
<asrwt>0</asrwt>
<pdfrwt beam="1">  1        2 0.21516837E+00 0.45102462E+03</pdfrwt>
<pdfrwt beam="2">  1       -2 0.23447563E-01 0.45102462E+03</pdfrwt>
<totfact> 0.24242369E+02</totfact>
</mgrwt>
</event>
<event>
 4    1  0.2488810E-002  0.7815654E+03  0.7818608E-02  0.9587090E-01
          1   -1    0    0  502    0  0.00000000000E+00  0.00000000000E+00  0.65908597449E+03  0.65908597449E+03  0.00000000000E+00 0. -1.
         -1   -1    0    0    0  501 -0.00000000000E+00 -0.00000000000E+00 -0.16754937793E+04  0.16754937793E+04  0.00000000000E+00 0.  1.
    9000007    1    1    2  502    0  0.25347711079E+03  0.62176672348E+03 -0.12884971116E+04  0.15070067388E+04  0.40000000000E+03 0.  1.
   -9000007    1    1    2    0  501 -0.25347711079E+03 -0.62176672348E+03  0.27208930688E+03  0.82757301493E+03  0.40000000000E+03 0.  1.
<mgrwt>
<rscale>  2 0.78156542E+03</rscale>
<asrwt>0</asrwt>
<pdfrwt beam="1">  1        1 0.10139784E+00 0.78156542E+03</pdfrwt>
<pdfrwt beam="2">  1       -1 0.25776827E+00 0.78156542E+03</pdfrwt>
<totfact> 0.19276753E+00</totfact>
</mgrwt>
</event>
<event>
 4    1  0.2488810E-002  0.5161821E+03  0.7818608E-02  0.1009639E+00
         -2   -1    0    0    0  501 -0.00000000000E+00  0.00000000000E+00  0.13910048506E+03  0.13910048506E+03  0.00000000000E+00 0.  1.
          2   -1    0    0  502    0  0.00000000000E+00 -0.00000000000E+00 -0.19156892853E+04  0.19156892853E+04  0.00000000000E+00 0. -1.
    9000007    1    1    2  502    0 -0.28917524565E+03  0.15106836812E+03 -0.89907388991E+03  0.10367149242E+04  0.40000000000E+03 0.  1.
   -9000007    1    1    2    0  501  0.28917524565E+03 -0.15106836812E+03 -0.87751491035E+03  0.10180748462E+04  0.40000000000E+03 0. -1.
<mgrwt>
<rscale>  2 0.51618211E+03</rscale>
<asrwt>0</asrwt>
<pdfrwt beam="1">  1        2 0.29472141E+00 0.51618211E+03</pdfrwt>
<pdfrwt beam="2">  1       -2 0.21400076E-01 0.51618211E+03</pdfrwt>
<totfact> 0.14807783E+02</totfact>
</mgrwt>
</event>
<event>
 4    1  0.2488810E-002  0.4169416E+03  0.7818608E-02  0.1038066E+00
          1   -1    0    0  502    0  0.00000000000E+00  0.00000000000E+00  0.57379020038E+03  0.57379020038E+03  0.00000000000E+00 0. -1.
         -1   -1    0    0    0  501 -0.00000000000E+00 -0.00000000000E+00 -0.33436789382E+03  0.33436789382E+03  0.00000000000E+00 0.  1.
    9000007    1    1    2  502    0  0.10614849874E+03  0.50722662993E+02 -0.19438004125E+02  0.41739445172E+03  0.40000000000E+03 0.  1.
   -9000007    1    1    2    0  501 -0.10614849874E+03 -0.50722662993E+02  0.25886031068E+03  0.49076364247E+03  0.40000000000E+03 0. -1.
<mgrwt>
<rscale>  2 0.41694159E+03</rscale>
<asrwt>0</asrwt>
<pdfrwt beam="1">  1        1 0.88275415E-01 0.41694159E+03</pdfrwt>
<pdfrwt beam="2">  1       -1 0.51441214E-01 0.41694159E+03</pdfrwt>
<totfact> 0.14478149E+02</totfact>
</mgrwt>
</event>
<event>
 4    1  0.2488810E-002  0.5629204E+03  0.7818608E-02  0.9985468E-01
          2   -1    0    0  502    0  0.00000000000E+00  0.00000000000E+00  0.20260547961E+04  0.20260547961E+04  0.00000000000E+00 0.  1.
         -2   -1    0    0    0  501 -0.00000000000E+00 -0.00000000000E+00 -0.18561487050E+03  0.18561487050E+03  0.00000000000E+00 0. -1.
    9000007    1    1    2  502    0  0.68846235279E+02  0.39005073179E+03  0.13589220451E+04  0.14709005752E+04  0.40000000000E+03 0.  1.
   -9000007    1    1    2    0  501 -0.68846235279E+02 -0.39005073179E+03  0.48151788044E+03  0.74076909133E+03  0.40000000000E+03 0. -1.
<mgrwt>
<rscale>  2 0.56292040E+03</rscale>
<asrwt>0</asrwt>
<pdfrwt beam="1">  1        2 0.31170072E+00 0.56292040E+03</pdfrwt>
<pdfrwt beam="2">  1       -2 0.28556135E-01 0.56292040E+03</pdfrwt>
<totfact> 0.76474280E+01</totfact>
</mgrwt>
</event>
<event>
 4    1  0.2488810E-002  0.6841438E+03  0.7818608E-02  0.9744739E-01
         -2   -1    0    0    0  501 -0.00000000000E+00  0.00000000000E+00  0.57214846289E+03  0.57214846289E+03  0.00000000000E+00 0. -1.
          2   -1    0    0  502    0  0.00000000000E+00 -0.00000000000E+00 -0.16031629124E+04  0.16031629124E+04  0.00000000000E+00 0.  1.
    9000007    1    1    2  502    0  0.33777524959E+03  0.44040962388E+03 -0.12766487652E+04  0.14484076863E+04  0.40000000000E+03 0.  1.
   -9000007    1    1    2    0  501 -0.33777524959E+03 -0.44040962388E+03  0.24563431567E+03  0.72690368900E+03  0.40000000000E+03 0. -1.
<mgrwt>
<rscale>  2 0.68414381E+03</rscale>
<asrwt>0</asrwt>
<pdfrwt beam="1">  1        2 0.24664045E+00 0.68414381E+03</pdfrwt>
<pdfrwt beam="2">  1       -2 0.88022841E-01 0.68414381E+03</pdfrwt>
<totfact> 0.12798496E+01</totfact>
</mgrwt>
</event>
<event>
 4    1  0.2488810E-002  0.5089149E+03  0.7818608E-02  0.1011478E+00
         -2   -1    0    0    0  501 -0.00000000000E+00  0.00000000000E+00  0.13638508667E+04  0.13638508667E+04  0.00000000000E+00 0.  1.
          2   -1    0    0  502    0  0.00000000000E+00 -0.00000000000E+00 -0.21127430391E+03  0.21127430391E+03  0.00000000000E+00 0. -1.
    9000007    1    1    2  502    0 -0.30841379504E+03 -0.62251765045E+02  0.82679226786E+03  0.97086549295E+03  0.40000000000E+03 0.  1.
   -9000007    1    1    2    0  501  0.30841379504E+03  0.62251765045E+02  0.32578429492E+03  0.60425967765E+03  0.40000000000E+03 0. -1.
<mgrwt>
<rscale>  2 0.50891488E+03</rscale>
<asrwt>0</asrwt>
<pdfrwt beam="1">  1        2 0.32503740E-01 0.50891488E+03</pdfrwt>
<pdfrwt beam="2">  1       -2 0.20982321E+00 0.50891488E+03</pdfrwt>
<totfact> 0.19461793E+01</totfact>
</mgrwt>
</event>
<event>
 4    1  0.2488810E-002  0.4077966E+03  0.7818608E-02  0.1041113E+00
         -1   -1    0    0    0  501 -0.00000000000E+00  0.00000000000E+00  0.32651356690E+03  0.32651356690E+03  0.00000000000E+00 0.  1.
          1   -1    0    0  502    0  0.00000000000E+00 -0.00000000000E+00 -0.52655567258E+03  0.52655567258E+03  0.00000000000E+00 0. -1.
    9000007    1    1    2  502    0 -0.58688028526E+02 -0.53421126175E+02 -0.22839190284E+02  0.40843571101E+03  0.40000000000E+03 0.  1.
   -9000007    1    1    2    0  501  0.58688028526E+02  0.53421126175E+02 -0.17720291540E+03  0.44463352847E+03  0.40000000000E+03 0. -1.
<mgrwt>
<rscale>  2 0.40779664E+03</rscale>
<asrwt>0</asrwt>
<pdfrwt beam="1">  1        1 0.81008563E-01 0.40779664E+03</pdfrwt>
<pdfrwt beam="2">  1       -1 0.50232857E-01 0.40779664E+03</pdfrwt>
<totfact> 0.17062550E+02</totfact>
</mgrwt>
</event>
<event>
 4    1  0.2488810E-002  0.4524496E+03  0.7818608E-02  0.1026994E+00
          2   -1    0    0  502    0  0.00000000000E+00  0.00000000000E+00  0.45392503392E+03  0.45392503392E+03  0.00000000000E+00 0. -1.
         -2   -1    0    0    0  501 -0.00000000000E+00 -0.00000000000E+00 -0.53161959632E+03  0.53161959632E+03  0.00000000000E+00 0.  1.
    9000007    1    1    2  502    0  0.10580103741E+03  0.18307580711E+03 -0.23076848325E+03  0.50790225785E+03  0.40000000000E+03 0.  1.
   -9000007    1    1    2    0  501 -0.10580103741E+03 -0.18307580711E+03  0.15307392085E+03  0.47764237240E+03  0.40000000000E+03 0.  1.
<mgrwt>
<rscale>  2 0.45244957E+03</rscale>
<asrwt>0</asrwt>
<pdfrwt beam="1">  1        2 0.69834621E-01 0.45244957E+03</pdfrwt>
<pdfrwt beam="2">  1       -2 0.81787630E-01 0.45244957E+03</pdfrwt>
<totfact> 0.93355285E+01</totfact>
</mgrwt>
</event>
<event>
 4    1  0.2488810E-002  0.4470563E+03  0.7818608E-02  0.1028604E+00
         -1   -1    0    0    0  501 -0.00000000000E+00  0.00000000000E+00  0.21781727710E+03  0.21781727710E+03  0.00000000000E+00 0. -1.
          1   -1    0    0  502    0  0.00000000000E+00 -0.00000000000E+00 -0.95133070137E+03  0.95133070137E+03  0.00000000000E+00 0.  1.
    9000007    1    1    2  502    0 -0.19846548152E+03  0.21696902964E+02 -0.25660867373E+03  0.51546805370E+03  0.40000000000E+03 0.  1.
   -9000007    1    1    2    0  501  0.19846548152E+03 -0.21696902964E+02 -0.47690475055E+03  0.65367992477E+03  0.40000000000E+03 0.  1.
<mgrwt>
<rscale>  2 0.44705626E+03</rscale>
<asrwt>0</asrwt>
<pdfrwt beam="1">  1        1 0.14635857E+00 0.44705626E+03</pdfrwt>
<pdfrwt beam="2">  1       -1 0.33510350E-01 0.44705626E+03</pdfrwt>
<totfact> 0.14483246E+02</totfact>
</mgrwt>
</event>
<event>
 4    1  0.2488810E-002  0.4921186E+03  0.7818608E-02  0.1015857E+00
          1   -1    0    0  502    0  0.00000000000E+00  0.00000000000E+00  0.35475880368E+03  0.35475880368E+03  0.00000000000E+00 0. -1.
         -1   -1    0    0    0  501 -0.00000000000E+00 -0.00000000000E+00 -0.80025961183E+03  0.80025961183E+03  0.00000000000E+00 0.  1.
    9000007    1    1    2  502    0  0.42940865241E+02  0.28343751110E+03 -0.44413158740E+03  0.66289788620E+03  0.40000000000E+03 0.  1.
   -9000007    1    1    2    0  501 -0.42940865241E+02 -0.28343751110E+03 -0.13692207502E+01  0.49212052931E+03  0.40000000000E+03 0. -1.
<mgrwt>
<rscale>  2 0.49211862E+03</rscale>
<asrwt>0</asrwt>
<pdfrwt beam="1">  1        1 0.54578277E-01 0.49211862E+03</pdfrwt>
<pdfrwt beam="2">  1       -1 0.12311686E+00 0.49211862E+03</pdfrwt>
<totfact> 0.42885624E+01</totfact>
</mgrwt>
</event>
<event>
 4    1  0.2488810E-002  0.5278864E+03  0.7818608E-02  0.1006746E+00
          1   -1    0    0  502    0  0.00000000000E+00  0.00000000000E+00  0.13585338388E+04  0.13585338388E+04  0.00000000000E+00 0.  1.
         -1   -1    0    0    0  501 -0.00000000000E+00 -0.00000000000E+00 -0.30230725912E+03  0.30230725912E+03  0.00000000000E+00 0. -1.
    9000007    1    1    2  502    0 -0.16241476090E+03  0.30378532933E+03  0.99895594761E+03  0.11298570999E+04  0.40000000000E+03 0.  1.
   -9000007    1    1    2    0  501  0.16241476090E+03 -0.30378532933E+03  0.57270632061E+02  0.53098399804E+03  0.40000000000E+03 0. -1.
<mgrwt>
<rscale>  2 0.52788643E+03</rscale>
<asrwt>0</asrwt>
<pdfrwt beam="1">  1        1 0.20900520E+00 0.52788643E+03</pdfrwt>
<pdfrwt beam="2">  1       -1 0.46508810E-01 0.52788643E+03</pdfrwt>
<totfact> 0.40093294E+01</totfact>
</mgrwt>
</event>
<event>
 4    1  0.2488810E-002  0.4672486E+03  0.7818608E-02  0.1022700E+00
         -2   -1    0    0    0  501 -0.00000000000E+00  0.00000000000E+00  0.65082534395E+03  0.65082534395E+03  0.00000000000E+00 0. -1.
          2   -1    0    0  502    0  0.00000000000E+00 -0.00000000000E+00 -0.37545428180E+03  0.37545428180E+03  0.00000000000E+00 0.  1.
    9000007    1    1    2  502    0  0.23939945782E+03  0.31767837017E+02 -0.29806553157E+02  0.46819838368E+03  0.40000000000E+03 0.  1.
   -9000007    1    1    2    0  501 -0.23939945782E+03 -0.31767837017E+02  0.30517761530E+03  0.55808124207E+03  0.40000000000E+03 0. -1.
<mgrwt>
<rscale>  2 0.46724864E+03</rscale>
<asrwt>0</asrwt>
<pdfrwt beam="1">  1        2 0.57762197E-01 0.46724864E+03</pdfrwt>
<pdfrwt beam="2">  1       -2 0.10012698E+00 0.46724864E+03</pdfrwt>
<totfact> 0.72438886E+01</totfact>
</mgrwt>
</event>
<event>
 4    1  0.2488810E-002  0.4420749E+03  0.7818608E-02  0.1030112E+00
         -2   -1    0    0    0  501 -0.00000000000E+00  0.00000000000E+00  0.79800559658E+03  0.79800559658E+03  0.00000000000E+00 0. -1.
          2   -1    0    0  502    0  0.00000000000E+00 -0.00000000000E+00 -0.27594856604E+03  0.27594856604E+03  0.00000000000E+00 0.  1.
    9000007    1    1    2  502    0  0.10941486273E+01  0.18822609627E+03  0.44115349070E+03  0.62453715889E+03  0.40000000000E+03 0. -1.
   -9000007    1    1    2    0  501 -0.10941486273E+01 -0.18822609627E+03  0.80903539842E+02  0.44941700372E+03  0.40000000000E+03 0.  1.
<mgrwt>
<rscale>  2 0.44207495E+03</rscale>
<asrwt>0</asrwt>
<pdfrwt beam="1">  1        2 0.42453626E-01 0.44207495E+03</pdfrwt>
<pdfrwt beam="2">  1       -2 0.12277009E+00 0.44207495E+03</pdfrwt>
<totfact> 0.62331199E+01</totfact>
</mgrwt>
</event>
<event>
 4    1  0.2488810E-002  0.4030663E+03  0.7818608E-02  0.1042723E+00
          4   -1    0    0  502    0  0.00000000000E+00  0.00000000000E+00  0.56744694637E+03  0.56744694637E+03  0.00000000000E+00 0.  1.
         -4   -1    0    0    0  501 -0.00000000000E+00 -0.00000000000E+00 -0.51821980522E+03  0.51821980522E+03  0.00000000000E+00 0. -1.
    9000007    1    1    2  502    0  0.33803701517E+02 -0.36328432941E+02 -0.33852679212E+03  0.52636758473E+03  0.40000000000E+03 0. -1.
   -9000007    1    1    2    0  501 -0.33803701517E+02  0.36328432941E+02  0.38775393328E+03  0.55929916686E+03  0.40000000000E+03 0.  1.
<mgrwt>
<rscale>  2 0.40306630E+03</rscale>
<asrwt>0</asrwt>
<pdfrwt beam="1">  1        4 0.87299531E-01 0.40306630E+03</pdfrwt>
<pdfrwt beam="2">  1       -4 0.79726123E-01 0.40306630E+03</pdfrwt>
<totfact> 0.30699012E+00</totfact>
</mgrwt>
</event>
<event>
 4    1  0.2488810E-002  0.4651652E+03  0.7818608E-02  0.1023294E+00
          1   -1    0    0  502    0  0.00000000000E+00  0.00000000000E+00  0.18894303316E+04  0.18894303316E+04  0.00000000000E+00 0. -1.
         -1   -1    0    0    0  501 -0.00000000000E+00 -0.00000000000E+00 -0.15363260892E+03  0.15363260892E+03  0.00000000000E+00 0.  1.
    9000007    1    1    2  502    0 -0.19223677562E+03 -0.13936890031E+03  0.13833235159E+04  0.14594391450E+04  0.40000000000E+03 0. -1.
   -9000007    1    1    2    0  501  0.19223677562E+03  0.13936890031E+03  0.35247420677E+03  0.58362379553E+03  0.40000000000E+03 0.  1.
<mgrwt>
<rscale>  2 0.46516521E+03</rscale>
<asrwt>0</asrwt>
<pdfrwt beam="1">  1        1 0.29068157E+00 0.46516521E+03</pdfrwt>
<pdfrwt beam="2">  1       -1 0.23635787E-01 0.46516521E+03</pdfrwt>
<totfact> 0.58648553E+01</totfact>
</mgrwt>
</event>
<event>
 4    1  0.2488810E-002  0.4292484E+03  0.7818608E-02  0.1034098E+00
         -2   -1    0    0    0  501 -0.00000000000E+00  0.00000000000E+00  0.24712024914E+03  0.24712024914E+03  0.00000000000E+00 0. -1.
          2   -1    0    0  502    0  0.00000000000E+00 -0.00000000000E+00 -0.77837120500E+03  0.77837120500E+03  0.00000000000E+00 0.  1.
    9000007    1    1    2  502    0  0.13068676537E+02 -0.15518817015E+03 -0.16042444706E+03  0.45824683488E+03  0.40000000000E+03 0.  1.
   -9000007    1    1    2    0  501 -0.13068676537E+02  0.15518817015E+03 -0.37082650880E+03  0.56724461927E+03  0.40000000000E+03 0.  1.
<mgrwt>
<rscale>  2 0.42924836E+03</rscale>
<asrwt>0</asrwt>
<pdfrwt beam="1">  1        2 0.11974942E+00 0.42924836E+03</pdfrwt>
<pdfrwt beam="2">  1       -2 0.38018500E-01 0.42924836E+03</pdfrwt>
<totfact> 0.23990285E+02</totfact>
</mgrwt>
</event>
<event>
 4    1  0.2488810E-002  0.5990568E+03  0.7818608E-02  0.9907365E-01
          1   -1    0    0  502    0  0.00000000000E+00  0.00000000000E+00  0.18401269463E+04  0.18401269463E+04  0.00000000000E+00 0. -1.
         -1   -1    0    0    0  501 -0.00000000000E+00 -0.00000000000E+00 -0.22574448383E+03  0.22574448383E+03  0.00000000000E+00 0.  1.
    9000007    1    1    2  502    0  0.28197943372E+03  0.34548034308E+03  0.42614456497E+03  0.73516546352E+03  0.40000000000E+03 0. -1.
   -9000007    1    1    2    0  501 -0.28197943372E+03 -0.34548034308E+03  0.11882378975E+04  0.13307059666E+04  0.40000000000E+03 0. -1.
<mgrwt>
<rscale>  2 0.59905682E+03</rscale>
<asrwt>0</asrwt>
<pdfrwt beam="1">  1        1 0.28309644E+00 0.59905682E+03</pdfrwt>
<pdfrwt beam="2">  1       -1 0.34729922E-01 0.59905682E+03</pdfrwt>
<totfact> 0.31842019E+01</totfact>
</mgrwt>
</event>
<event>
 4    1  0.2488810E-002  0.4345100E+03  0.7818608E-02  0.1032445E+00
         -2   -1    0    0    0  501 -0.00000000000E+00  0.00000000000E+00  0.12192904359E+03  0.12192904359E+03  0.00000000000E+00 0.  1.
          2   -1    0    0  502    0  0.00000000000E+00 -0.00000000000E+00 -0.16094515935E+04  0.16094515935E+04  0.00000000000E+00 0. -1.
    9000007    1    1    2  502    0  0.11769768308E+02  0.16929396004E+03 -0.91232114349E+03  0.10105091990E+04  0.40000000000E+03 0. -1.
   -9000007    1    1    2    0  501 -0.11769768308E+02 -0.16929396004E+03 -0.57520140640E+03  0.72087143811E+03  0.40000000000E+03 0.  1.
<mgrwt>
<rscale>  2 0.43451004E+03</rscale>
<asrwt>0</asrwt>
<pdfrwt beam="1">  1        2 0.24760793E+00 0.43451004E+03</pdfrwt>
<pdfrwt beam="2">  1       -2 0.18758315E-01 0.43451004E+03</pdfrwt>
<totfact> 0.27492544E+02</totfact>
</mgrwt>
</event>
<event>
 4    1  0.2488810E-002  0.4008047E+03  0.7818608E-02  0.1043501E+00
         -2   -1    0    0    0  501 -0.00000000000E+00  0.00000000000E+00  0.26011673016E+03  0.26011673016E+03  0.00000000000E+00 0. -1.
          2   -1    0    0  502    0  0.00000000000E+00 -0.00000000000E+00 -0.61882227207E+03  0.61882227207E+03  0.00000000000E+00 0.  1.
    9000007    1    1    2  502    0  0.13371573929E+02  0.21578411354E+02 -0.19899627979E+03  0.44748625252E+03  0.40000000000E+03 0.  1.
   -9000007    1    1    2    0  501 -0.13371573929E+02 -0.21578411354E+02 -0.15970926212E+03  0.43145274971E+03  0.40000000000E+03 0. -1.
<mgrwt>
<rscale>  2 0.40080472E+03</rscale>
<asrwt>0</asrwt>
<pdfrwt beam="1">  1        2 0.95203426E-01 0.40080472E+03</pdfrwt>
<pdfrwt beam="2">  1       -2 0.40017959E-01 0.40080472E+03</pdfrwt>
<totfact> 0.28926927E+02</totfact>
</mgrwt>
</event>
<event>
 4    1  0.2488810E-002  0.4300735E+03  0.7818608E-02  0.1033837E+00
         -2   -1    0    0    0  501 -0.00000000000E+00  0.00000000000E+00  0.19544697309E+03  0.19544697309E+03  0.00000000000E+00 0.  1.
          2   -1    0    0  502    0  0.00000000000E+00 -0.00000000000E+00 -0.99984232977E+03  0.99984232977E+03  0.00000000000E+00 0. -1.
    9000007    1    1    2  502    0  0.43896029680E+02  0.15177744968E+03 -0.26397438787E+03  0.50462434850E+03  0.40000000000E+03 0.  1.
   -9000007    1    1    2    0  501 -0.43896029680E+02 -0.15177744968E+03 -0.54042096881E+03  0.69066495436E+03  0.40000000000E+03 0. -1.
<mgrwt>
<rscale>  2 0.43007355E+03</rscale>
<asrwt>0</asrwt>
<pdfrwt beam="1">  1        2 0.15382189E+00 0.43007355E+03</pdfrwt>
<pdfrwt beam="2">  1       -2 0.30068766E-01 0.43007355E+03</pdfrwt>
<totfact> 0.26512773E+02</totfact>
</mgrwt>
</event>
<event>
 4    1  0.2488810E-002  0.4512570E+03  0.7818608E-02  0.1027348E+00
         -2   -1    0    0    0  501 -0.00000000000E+00  0.00000000000E+00  0.21698790173E+03  0.21698790173E+03  0.00000000000E+00 0. -1.
          2   -1    0    0  502    0  0.00000000000E+00 -0.00000000000E+00 -0.10096663014E+04  0.10096663014E+04  0.00000000000E+00 0.  1.
    9000007    1    1    2  502    0  0.11959848711E+03 -0.17125723981E+03 -0.23345262580E+03  0.50806787814E+03  0.40000000000E+03 0. -1.
   -9000007    1    1    2    0  501 -0.11959848711E+03  0.17125723981E+03 -0.55922577388E+03  0.71858632500E+03  0.40000000000E+03 0. -1.
<mgrwt>
<rscale>  2 0.45125696E+03</rscale>
<asrwt>0</asrwt>
<pdfrwt beam="1">  1        2 0.15533328E+00 0.45125696E+03</pdfrwt>
<pdfrwt beam="2">  1       -2 0.33382754E-01 0.45125696E+03</pdfrwt>
<totfact> 0.21487684E+02</totfact>
</mgrwt>
</event>
<event>
 4    1  0.2488810E-002  0.4034577E+03  0.7818608E-02  0.1042589E+00
          3   -1    0    0  502    0  0.00000000000E+00  0.00000000000E+00  0.61277659109E+03  0.61277659109E+03  0.00000000000E+00 0. -1.
         -3   -1    0    0    0  501 -0.00000000000E+00 -0.00000000000E+00 -0.37310294313E+03  0.37310294313E+03  0.00000000000E+00 0.  1.
    9000007    1    1    2  502    0  0.30948701312E+01  0.52616931524E+02 -0.14471356341E+03  0.42862586849E+03  0.40000000000E+03 0.  1.
   -9000007    1    1    2    0  501 -0.30948701312E+01 -0.52616931524E+02  0.38438721137E+03  0.55725366573E+03  0.40000000000E+03 0. -1.
<mgrwt>
<rscale>  2 0.40345770E+03</rscale>
<asrwt>0</asrwt>
<pdfrwt beam="1">  1        3 0.94273322E-01 0.40345770E+03</pdfrwt>
<pdfrwt beam="2">  1       -3 0.57400453E-01 0.40345770E+03</pdfrwt>
<totfact> 0.77839032E+00</totfact>
</mgrwt>
</event>
<event>
 4    1  0.2488810E-002  0.4066692E+03  0.7818608E-02  0.1041495E+00
          1   -1    0    0  502    0  0.00000000000E+00  0.00000000000E+00  0.17306065800E+04  0.17306065800E+04  0.00000000000E+00 0. -1.
         -1   -1    0    0    0  501 -0.00000000000E+00 -0.00000000000E+00 -0.10535908312E+03  0.10535908312E+03  0.00000000000E+00 0.  1.
    9000007    1    1    2  502    0  0.70812978369E+02  0.19113849481E+02  0.10925555248E+04  0.11657861691E+04  0.40000000000E+03 0. -1.
   -9000007    1    1    2    0  501 -0.70812978369E+02 -0.19113849481E+02  0.53269197203E+03  0.67017949402E+03  0.40000000000E+03 0.  1.
<mgrwt>
<rscale>  2 0.40666917E+03</rscale>
<asrwt>0</asrwt>
<pdfrwt beam="1">  1        1 0.26624714E+00 0.40666917E+03</pdfrwt>
<pdfrwt beam="2">  1       -1 0.16209091E-01 0.40666917E+03</pdfrwt>
<totfact> 0.14034165E+02</totfact>
</mgrwt>
</event>
<event>
 4    1  0.2488810E-002  0.4072122E+03  0.7818608E-02  0.1041311E+00
         -1   -1    0    0    0  501 -0.00000000000E+00  0.00000000000E+00  0.45939374957E+03  0.45939374957E+03  0.00000000000E+00 0.  1.
          1   -1    0    0  502    0  0.00000000000E+00 -0.00000000000E+00 -0.36183856104E+03  0.36183856104E+03  0.00000000000E+00 0. -1.
    9000007    1    1    2  502    0  0.59371458516E+00 -0.76298060316E+02  0.28518809700E+02  0.40820958956E+03  0.40000000000E+03 0. -1.
   -9000007    1    1    2    0  501 -0.59371458516E+00  0.76298060316E+02  0.69036378832E+02  0.41302272105E+03  0.40000000000E+03 0.  1.
<mgrwt>
<rscale>  2 0.40721216E+03</rscale>
<asrwt>0</asrwt>
<pdfrwt beam="1">  1        1 0.55667471E-01 0.40721216E+03</pdfrwt>
<pdfrwt beam="2">  1       -1 0.70675962E-01 0.40721216E+03</pdfrwt>
<totfact> 0.14422731E+02</totfact>
</mgrwt>
</event>
<event>
 4    1  0.2488810E-002  0.4052552E+03  0.7818608E-02  0.1041975E+00
          1   -1    0    0  502    0  0.00000000000E+00  0.00000000000E+00  0.34028385654E+03  0.34028385654E+03  0.00000000000E+00 0. -1.
         -1   -1    0    0    0  501 -0.00000000000E+00 -0.00000000000E+00 -0.51473014956E+03  0.51473014956E+03  0.00000000000E+00 0.  1.
    9000007    1    1    2  502    0 -0.52991966706E+02  0.37730654915E+02  0.19533755052E+02  0.40572566895E+03  0.40000000000E+03 0. -1.
   -9000007    1    1    2    0  501  0.52991966706E+02 -0.37730654915E+02 -0.19398004807E+03  0.44928833716E+03  0.40000000000E+03 0.  1.
<mgrwt>
<rscale>  2 0.40525517E+03</rscale>
<asrwt>0</asrwt>
<pdfrwt beam="1">  1        1 0.52351363E-01 0.40525517E+03</pdfrwt>
<pdfrwt beam="2">  1       -1 0.79189253E-01 0.40525517E+03</pdfrwt>
<totfact> 0.12355098E+02</totfact>
</mgrwt>
</event>
<event>
 4    1  0.2488810E-002  0.4996981E+03  0.7818608E-02  0.1013858E+00
          2   -1    0    0  502    0  0.00000000000E+00  0.00000000000E+00  0.59576574820E+03  0.59576574820E+03  0.00000000000E+00 0. -1.
         -2   -1    0    0    0  501 -0.00000000000E+00 -0.00000000000E+00 -0.42359580632E+03  0.42359580632E+03  0.00000000000E+00 0.  1.
    9000007    1    1    2  502    0 -0.27859570135E+03  0.10992081577E+03  0.13846817826E+03  0.51852828943E+03  0.40000000000E+03 0.  1.
   -9000007    1    1    2    0  501  0.27859570135E+03 -0.10992081577E+03  0.33701763616E+02  0.50083326509E+03  0.40000000000E+03 0. -1.
<mgrwt>
<rscale>  2 0.49969806E+03</rscale>
<asrwt>0</asrwt>
<pdfrwt beam="1">  1        2 0.91656269E-01 0.49969806E+03</pdfrwt>
<pdfrwt beam="2">  1       -2 0.65168586E-01 0.49969806E+03</pdfrwt>
<totfact> 0.11167192E+02</totfact>
</mgrwt>
</event>
<event>
 4    1  0.2488810E-002  0.5093496E+03  0.7818608E-02  0.1011367E+00
          1   -1    0    0  502    0  0.00000000000E+00  0.00000000000E+00  0.18836656350E+04  0.18836656350E+04  0.00000000000E+00 0. -1.
         -1   -1    0    0    0  501 -0.00000000000E+00 -0.00000000000E+00 -0.59210114379E+03  0.59210114379E+03  0.00000000000E+00 0.  1.
    9000007    1    1    2  502    0 -0.29851811363E+03 -0.10160682737E+03 -0.43861204318E+03  0.67217373941E+03  0.40000000000E+03 0.  1.
   -9000007    1    1    2    0  501  0.29851811363E+03  0.10160682737E+03  0.17301765343E+04  0.18035930393E+04  0.40000000000E+03 0. -1.
<mgrwt>
<rscale>  2 0.50934960E+03</rscale>
<asrwt>0</asrwt>
<pdfrwt beam="1">  1        1 0.28979471E+00 0.50934960E+03</pdfrwt>
<pdfrwt beam="2">  1       -1 0.91092485E-01 0.50934960E+03</pdfrwt>
<totfact> 0.46419418E+00</totfact>
</mgrwt>
</event>
<event>
 4    1  0.2488810E-002  0.4144870E+03  0.7818608E-02  0.1038876E+00
          2   -1    0    0  502    0  0.00000000000E+00  0.00000000000E+00  0.17441991851E+04  0.17441991851E+04  0.00000000000E+00 0. -1.
         -2   -1    0    0    0  501 -0.00000000000E+00 -0.00000000000E+00 -0.16317294470E+03  0.16317294470E+03  0.00000000000E+00 0.  1.
    9000007    1    1    2  502    0 -0.71281291357E+02 -0.81966067128E+02  0.13909269529E+04  0.14513708165E+04  0.40000000000E+03 0. -1.
   -9000007    1    1    2    0  501  0.71281291357E+02  0.81966067128E+02  0.19009928756E+03  0.45600131336E+03  0.40000000000E+03 0.  1.
<mgrwt>
<rscale>  2 0.41448698E+03</rscale>
<asrwt>0</asrwt>
<pdfrwt beam="1">  1        2 0.26833832E+00 0.41448698E+03</pdfrwt>
<pdfrwt beam="2">  1       -2 0.25103531E-01 0.41448698E+03</pdfrwt>
<totfact> 0.14007244E+02</totfact>
</mgrwt>
</event>
<event>
 4    1  0.2488810E-002  0.4294597E+03  0.7818608E-02  0.1034031E+00
          2   -1    0    0  502    0  0.00000000000E+00  0.00000000000E+00  0.23403474078E+04  0.23403474078E+04  0.00000000000E+00 0. -1.
         -2   -1    0    0    0  501 -0.00000000000E+00 -0.00000000000E+00 -0.11829920289E+03  0.11829920289E+03  0.00000000000E+00 0.  1.
    9000007    1    1    2  502    0  0.37835183471E+02 -0.15167118380E+03  0.18213066469E+04  0.18712545394E+04  0.40000000000E+03 0. -1.
   -9000007    1    1    2    0  501 -0.37835183471E+02  0.15167118380E+03  0.40074155795E+03  0.58739207125E+03  0.40000000000E+03 0.  1.
<mgrwt>
<rscale>  2 0.42945972E+03</rscale>
<asrwt>0</asrwt>
<pdfrwt beam="1">  1        2 0.36005341E+00 0.42945972E+03</pdfrwt>
<pdfrwt beam="2">  1       -2 0.18199879E-01 0.42945972E+03</pdfrwt>
<totfact> 0.11716031E+02</totfact>
</mgrwt>
</event>
<event>
 4    1  0.2488810E-002  0.7597003E+03  0.7818608E-02  0.9620254E-01
         -2   -1    0    0    0  501 -0.00000000000E+00  0.00000000000E+00  0.29797273557E+03  0.29797273557E+03  0.00000000000E+00 0.  1.
          2   -1    0    0  502    0  0.00000000000E+00 -0.00000000000E+00 -0.22223557288E+04  0.22223557288E+04  0.00000000000E+00 0. -1.
    9000007    1    1    2  502    0 -0.17110208114E+03 -0.62279105478E+03 -0.51055752134E+03  0.91532158430E+03  0.40000000000E+03 0.  1.
   -9000007    1    1    2    0  501  0.17110208114E+03  0.62279105478E+03 -0.14138254719E+04  0.16050068801E+04  0.40000000000E+03 0. -1.
<mgrwt>
<rscale>  2 0.75970035E+03</rscale>
<asrwt>0</asrwt>
<pdfrwt beam="1">  1        2 0.34190089E+00 0.75970035E+03</pdfrwt>
<pdfrwt beam="2">  1       -2 0.45841958E-01 0.75970035E+03</pdfrwt>
<totfact> 0.23470724E+01</totfact>
</mgrwt>
</event>
<event>
 4    1  0.2488810E-002  0.4412067E+03  0.7818608E-02  0.1030377E+00
          2   -1    0    0  502    0  0.00000000000E+00  0.00000000000E+00  0.52038132369E+03  0.52038132369E+03  0.00000000000E+00 0. -1.
         -2   -1    0    0    0  501 -0.00000000000E+00 -0.00000000000E+00 -0.41588697003E+03  0.41588697003E+03  0.00000000000E+00 0.  1.
    9000007    1    1    2  502    0 -0.16758981588E+03  0.81098709895E+02  0.20067522540E+03  0.48469979701E+03  0.40000000000E+03 0. -1.
   -9000007    1    1    2    0  501  0.16758981588E+03 -0.81098709895E+02 -0.96180871742E+02  0.45156849671E+03  0.40000000000E+03 0.  1.
<mgrwt>
<rscale>  2 0.44120669E+03</rscale>
<asrwt>0</asrwt>
<pdfrwt beam="1">  1        2 0.80058665E-01 0.44120669E+03</pdfrwt>
<pdfrwt beam="2">  1       -2 0.63982611E-01 0.44120669E+03</pdfrwt>
<totfact> 0.13667403E+02</totfact>
</mgrwt>
</event>
<event>
 4    1  0.2488810E-002  0.4022751E+03  0.7818608E-02  0.1042995E+00
         -1   -1    0    0    0  501 -0.00000000000E+00  0.00000000000E+00  0.27812568347E+03  0.27812568347E+03  0.00000000000E+00 0. -1.
          1   -1    0    0  502    0  0.00000000000E+00 -0.00000000000E+00 -0.59132559431E+03  0.59132559431E+03  0.00000000000E+00 0.  1.
    9000007    1    1    2  502    0  0.31933883490E+02  0.28380842953E+02 -0.21165346436E+03  0.45455740466E+03  0.40000000000E+03 0.  1.
   -9000007    1    1    2    0  501 -0.31933883490E+02 -0.28380842953E+02 -0.10154644648E+03  0.41489387312E+03  0.40000000000E+03 0. -1.
<mgrwt>
<rscale>  2 0.40227509E+03</rscale>
<asrwt>0</asrwt>
<pdfrwt beam="1">  1        1 0.90973168E-01 0.40227509E+03</pdfrwt>
<pdfrwt beam="2">  1       -1 0.42788567E-01 0.40227509E+03</pdfrwt>
<totfact> 0.19541603E+02</totfact>
</mgrwt>
</event>
<event>
 4    1  0.2488810E-002  0.4151690E+03  0.7818608E-02  0.1038650E+00
          2   -1    0    0  502    0  0.00000000000E+00  0.00000000000E+00  0.60450728627E+03  0.60450728627E+03  0.00000000000E+00 0. -1.
         -2   -1    0    0    0  501 -0.00000000000E+00 -0.00000000000E+00 -0.28627825174E+03  0.28627825174E+03  0.00000000000E+00 0.  1.
    9000007    1    1    2  502    0  0.72905852263E+02  0.83964379827E+02  0.13094989097E+03  0.43533108586E+03  0.40000000000E+03 0. -1.
   -9000007    1    1    2    0  501 -0.72905852263E+02 -0.83964379827E+02  0.18727914356E+03  0.45545445215E+03  0.40000000000E+03 0. -1.
<mgrwt>
<rscale>  2 0.41516898E+03</rscale>
<asrwt>0</asrwt>
<pdfrwt beam="1">  1        2 0.93001121E-01 0.41516898E+03</pdfrwt>
<pdfrwt beam="2">  1       -2 0.44042808E-01 0.41516898E+03</pdfrwt>
<totfact> 0.24654030E+02</totfact>
</mgrwt>
</event>
<event>
 4    1  0.2488810E-002  0.7440056E+03  0.7818608E-02  0.9644802E-01
          2   -1    0    0  502    0  0.00000000000E+00  0.00000000000E+00  0.14303570666E+04  0.14303570666E+04  0.00000000000E+00 0. -1.
         -2   -1    0    0    0  501 -0.00000000000E+00 -0.00000000000E+00 -0.50258984777E+03  0.50258984777E+03  0.00000000000E+00 0.  1.
    9000007    1    1    2  502    0 -0.62642585154E+03  0.33688625865E+02  0.38539913991E+00  0.74400565826E+03  0.40000000000E+03 0.  1.
   -9000007    1    1    2    0  501  0.62642585154E+03 -0.33688625865E+02  0.92738181967E+03  0.11889412561E+04  0.40000000000E+03 0. -1.
<mgrwt>
<rscale>  2 0.74400556E+03</rscale>
<asrwt>0</asrwt>
<pdfrwt beam="1">  1        2 0.22005493E+00 0.74400556E+03</pdfrwt>
<pdfrwt beam="2">  1       -2 0.77321516E-01 0.74400556E+03</pdfrwt>
<totfact> 0.21229961E+01</totfact>
</mgrwt>
</event>
<event>
 4    1  0.2488810E-002  0.4924263E+03  0.7818608E-02  0.1015775E+00
          1   -1    0    0  502    0  0.00000000000E+00  0.00000000000E+00  0.21826189577E+04  0.21826189577E+04  0.00000000000E+00 0. -1.
         -1   -1    0    0    0  501 -0.00000000000E+00 -0.00000000000E+00 -0.12374165487E+03  0.12374165487E+03  0.00000000000E+00 0.  1.
    9000007    1    1    2  502    0  0.27533918040E+03  0.81681995240E+02  0.66081486959E+03  0.82411158497E+03  0.40000000000E+03 0.  1.
   -9000007    1    1    2    0  501 -0.27533918040E+03 -0.81681995240E+02  0.13980624333E+04  0.14822490276E+04  0.40000000000E+03 0. -1.
<mgrwt>
<rscale>  2 0.49242625E+03</rscale>
<asrwt>0</asrwt>
<pdfrwt beam="1">  1        1 0.33578750E+00 0.49242625E+03</pdfrwt>
<pdfrwt beam="2">  1       -1 0.19037179E-01 0.49242625E+03</pdfrwt>
<totfact> 0.53502979E+01</totfact>
</mgrwt>
</event>
<event>
 4    1  0.2488810E-002  0.4967086E+03  0.7818608E-02  0.1014642E+00
         -2   -1    0    0    0  501 -0.00000000000E+00  0.00000000000E+00  0.15625096561E+03  0.15625096561E+03  0.00000000000E+00 0.  1.
          2   -1    0    0  502    0  0.00000000000E+00 -0.00000000000E+00 -0.15846078182E+04  0.15846078182E+04  0.00000000000E+00 0. -1.
    9000007    1    1    2  502    0  0.23164377360E+03 -0.18182572009E+03 -0.66237258145E+03  0.82792322530E+03  0.40000000000E+03 0.  1.
   -9000007    1    1    2    0  501 -0.23164377360E+03  0.18182572009E+03 -0.76598427112E+03  0.91293555848E+03  0.40000000000E+03 0. -1.
<mgrwt>
<rscale>  2 0.49670860E+03</rscale>
<asrwt>0</asrwt>
<pdfrwt beam="1">  1        2 0.24378581E+00 0.49670860E+03</pdfrwt>
<pdfrwt beam="2">  1       -2 0.24038611E-01 0.49670860E+03</pdfrwt>
<totfact> 0.18236803E+02</totfact>
</mgrwt>
</event>
<event>
 4    1  0.2488810E-002  0.4204114E+03  0.7818608E-02  0.1036932E+00
         -3   -1    0    0    0  501 -0.00000000000E+00  0.00000000000E+00  0.78363702739E+03  0.78363702739E+03  0.00000000000E+00 0.  1.
          3   -1    0    0  502    0  0.00000000000E+00 -0.00000000000E+00 -0.23487654305E+03  0.23487654305E+03  0.00000000000E+00 0. -1.
    9000007    1    1    2  502    0  0.93273777488E+02 -0.89698183279E+02  0.17287618780E+03  0.45456785847E+03  0.40000000000E+03 0. -1.
   -9000007    1    1    2    0  501 -0.93273777488E+02  0.89698183279E+02  0.37588429654E+03  0.56394571196E+03  0.40000000000E+03 0.  1.
<mgrwt>
<rscale>  2 0.42041142E+03</rscale>
<asrwt>0</asrwt>
<pdfrwt beam="1">  1        3 0.36134853E-01 0.42041142E+03</pdfrwt>
<pdfrwt beam="2">  1       -3 0.12055954E+00 0.42041142E+03</pdfrwt>
<totfact> 0.11047367E+01</totfact>
</mgrwt>
</event>
<event>
 4    1  0.2488810E-002  0.4134220E+03  0.7818608E-02  0.1039229E+00
         -1   -1    0    0    0  501 -0.00000000000E+00  0.00000000000E+00  0.17318359189E+03  0.17318359189E+03  0.00000000000E+00 0.  1.
          1   -1    0    0  502    0  0.00000000000E+00 -0.00000000000E+00 -0.98997987336E+03  0.98997987336E+03  0.00000000000E+00 0. -1.
    9000007    1    1    2  502    0  0.17006524968E+02 -0.10309470504E+03 -0.44075000323E+03  0.60429984730E+03  0.40000000000E+03 0. -1.
   -9000007    1    1    2    0  501 -0.17006524968E+02  0.10309470504E+03 -0.37604627823E+03  0.55886361795E+03  0.40000000000E+03 0. -1.
<mgrwt>
<rscale>  2 0.41342199E+03</rscale>
<asrwt>0</asrwt>
<pdfrwt beam="1">  1        1 0.15230459E+00 0.41342199E+03</pdfrwt>
<pdfrwt beam="2">  1       -1 0.26643630E-01 0.41342199E+03</pdfrwt>
<totfact> 0.20155524E+02</totfact>
</mgrwt>
</event>
<event>
 4    1  0.2488810E-002  0.4578572E+03  0.7818608E-02  0.1025405E+00
         -1   -1    0    0    0  501 -0.00000000000E+00  0.00000000000E+00  0.21373883929E+03  0.21373883929E+03  0.00000000000E+00 0. -1.
          1   -1    0    0  502    0  0.00000000000E+00 -0.00000000000E+00 -0.10491183043E+04  0.10491183043E+04  0.00000000000E+00 0.  1.
    9000007    1    1    2  502    0  0.22717053516E+02  0.22162396916E+03 -0.57883122513E+03  0.73802360085E+03  0.40000000000E+03 0.  1.
   -9000007    1    1    2    0  501 -0.22717053516E+02 -0.22162396916E+03 -0.25654823992E+03  0.52483354278E+03  0.40000000000E+03 0. -1.
<mgrwt>
<rscale>  2 0.45785724E+03</rscale>
<asrwt>0</asrwt>
<pdfrwt beam="1">  1        1 0.16140282E+00 0.45785724E+03</pdfrwt>
<pdfrwt beam="2">  1       -1 0.32882897E-01 0.45785724E+03</pdfrwt>
<totfact> 0.12588581E+02</totfact>
</mgrwt>
</event>
<event>
 4    1  0.2488810E-002  0.4661332E+03  0.7818608E-02  0.1023017E+00
         -1   -1    0    0    0  501 -0.00000000000E+00  0.00000000000E+00  0.14520086508E+03  0.14520086508E+03  0.00000000000E+00 0.  1.
          1   -1    0    0  502    0  0.00000000000E+00 -0.00000000000E+00 -0.23263470500E+04  0.23263470500E+04  0.00000000000E+00 0. -1.
    9000007    1    1    2  502    0 -0.88637295266E+01 -0.23916861242E+03 -0.35245803191E+03  0.58438587862E+03  0.40000000000E+03 0.  1.
   -9000007    1    1    2    0  501  0.88637295266E+01  0.23916861242E+03 -0.18286881530E+04  0.18871620364E+04  0.40000000000E+03 0. -1.
<mgrwt>
<rscale>  2 0.46613323E+03</rscale>
<asrwt>0</asrwt>
<pdfrwt beam="1">  1        1 0.35789952E+00 0.46613323E+03</pdfrwt>
<pdfrwt beam="2">  1       -1 0.22338596E-01 0.46613323E+03</pdfrwt>
<totfact> 0.33109169E+01</totfact>
</mgrwt>
</event>
<event>
 4    1  0.2488810E-002  0.4578417E+03  0.7818608E-02  0.1025409E+00
          2   -1    0    0  502    0  0.00000000000E+00  0.00000000000E+00  0.47730423885E+03  0.47730423885E+03  0.00000000000E+00 0. -1.
         -2   -1    0    0    0  501 -0.00000000000E+00 -0.00000000000E+00 -0.54453756202E+03  0.54453756202E+03  0.00000000000E+00 0.  1.
    9000007    1    1    2  502    0 -0.18653577400E+03 -0.12175167720E+03 -0.25836025833E+03  0.52570817852E+03  0.40000000000E+03 0.  1.
   -9000007    1    1    2    0  501  0.18653577400E+03  0.12175167720E+03  0.19112693516E+03  0.49613362235E+03  0.40000000000E+03 0. -1.
<mgrwt>
<rscale>  2 0.45784175E+03</rscale>
<asrwt>0</asrwt>
<pdfrwt beam="1">  1        2 0.73431422E-01 0.45784175E+03</pdfrwt>
<pdfrwt beam="2">  1       -2 0.83775009E-01 0.45784175E+03</pdfrwt>
<totfact> 0.83525519E+01</totfact>
</mgrwt>
</event>
<event>
 4    1  0.2488810E-002  0.4201770E+03  0.7818608E-02  0.1037009E+00
          2   -1    0    0  502    0  0.00000000000E+00  0.00000000000E+00  0.20026102616E+03  0.20026102616E+03  0.00000000000E+00 0.  1.
         -2   -1    0    0    0  501 -0.00000000000E+00 -0.00000000000E+00 -0.88806180626E+03  0.88806180626E+03  0.00000000000E+00 0. -1.
    9000007    1    1    2  502    0 -0.91446837943E+02 -0.90477778624E+02 -0.29745821387E+03  0.51481078232E+03  0.40000000000E+03 0.  1.
   -9000007    1    1    2    0  501  0.91446837943E+02  0.90477778624E+02 -0.39034256624E+03  0.57351205010E+03  0.40000000000E+03 0.  1.
<mgrwt>
<rscale>  2 0.42017705E+03</rscale>
<asrwt>0</asrwt>
<pdfrwt beam="1">  1        2 0.30809389E-01 0.42017705E+03</pdfrwt>
<pdfrwt beam="2">  1       -2 0.13662489E+00 0.42017705E+03</pdfrwt>
<totfact> 0.68089548E+01</totfact>
</mgrwt>
</event>
<event>
 4    1  0.2488810E-002  0.4113394E+03  0.7818608E-02  0.1039922E+00
         -2   -1    0    0    0  501 -0.00000000000E+00  0.00000000000E+00  0.25466163671E+03  0.25466163671E+03  0.00000000000E+00 0.  1.
          2   -1    0    0  502    0  0.00000000000E+00 -0.00000000000E+00 -0.69755404231E+03  0.69755404231E+03  0.00000000000E+00 0. -1.
    9000007    1    1    2  502    0 -0.49089168655E+02  0.82403691465E+02 -0.11766721132E+03  0.42783838942E+03  0.40000000000E+03 0.  1.
   -9000007    1    1    2    0  501  0.49089168655E+02 -0.82403691465E+02 -0.32522519429E+03  0.52437728960E+03  0.40000000000E+03 0. -1.
<mgrwt>
<rscale>  2 0.41133942E+03</rscale>
<asrwt>0</asrwt>
<pdfrwt beam="1">  1        2 0.10731601E+00 0.41133942E+03</pdfrwt>
<pdfrwt beam="2">  1       -2 0.39178714E-01 0.41133942E+03</pdfrwt>
<totfact> 0.26036941E+02</totfact>
</mgrwt>
</event>
<event>
 4    1  0.2488810E-002  0.4494787E+03  0.7818608E-02  0.1027878E+00
         -1   -1    0    0    0  501 -0.00000000000E+00  0.00000000000E+00  0.87770535940E+03  0.87770535940E+03  0.00000000000E+00 0.  1.
          1   -1    0    0  502    0  0.00000000000E+00 -0.00000000000E+00 -0.23081575382E+03  0.23081575382E+03  0.00000000000E+00 0. -1.
    9000007    1    1    2  502    0 -0.20499556671E+03 -0.28093131888E+01  0.35251130471E+03  0.57122263135E+03  0.40000000000E+03 0.  1.
   -9000007    1    1    2    0  501  0.20499556671E+03  0.28093131888E+01  0.29437830086E+03  0.53729848188E+03  0.40000000000E+03 0.  1.
<mgrwt>
<rscale>  2 0.44947867E+03</rscale>
<asrwt>0</asrwt>
<pdfrwt beam="1">  1        1 0.35510116E-01 0.44947867E+03</pdfrwt>
<pdfrwt beam="2">  1       -1 0.13503159E+00 0.44947867E+03</pdfrwt>
<totfact> 0.59491455E+01</totfact>
</mgrwt>
</event>
<event>
 4    1  0.2488810E-002  0.4297683E+03  0.7818608E-02  0.1033933E+00
          2   -1    0    0  502    0  0.00000000000E+00  0.00000000000E+00  0.23562581907E+04  0.23562581907E+04  0.00000000000E+00 0.  1.
         -2   -1    0    0    0  501 -0.00000000000E+00 -0.00000000000E+00 -0.78635253707E+02  0.78635253707E+02  0.00000000000E+00 0. -1.
    9000007    1    1    2  502    0 -0.62355609340E+02  0.14426564449E+03  0.10704523128E+04  0.11535029052E+04  0.40000000000E+03 0. -1.
   -9000007    1    1    2    0  501  0.62355609340E+02 -0.14426564449E+03  0.12071706241E+04  0.12813905392E+04  0.40000000000E+03 0.  1.
<mgrwt>
<rscale>  2 0.42976831E+03</rscale>
<asrwt>0</asrwt>
<pdfrwt beam="1">  1        2 0.36250121E+00 0.42976831E+03</pdfrwt>
<pdfrwt beam="2">  1       -2 0.12097733E-01 0.42976831E+03</pdfrwt>
<totfact> 0.22742519E+02</totfact>
</mgrwt>
</event>
<event>
 4    1  0.2488810E-002  0.4202828E+03  0.7818608E-02  0.1036974E+00
          2   -1    0    0  502    0  0.00000000000E+00  0.00000000000E+00  0.89444454065E+03  0.89444454065E+03  0.00000000000E+00 0.  1.
         -2   -1    0    0    0  501 -0.00000000000E+00 -0.00000000000E+00 -0.24126481673E+03  0.24126481673E+03  0.00000000000E+00 0. -1.
    9000007    1    1    2  502    0 -0.46689661204E+02  0.12024012723E+03  0.84689241756E+02  0.42873054513E+03  0.40000000000E+03 0. -1.
   -9000007    1    1    2    0  501  0.46689661204E+02 -0.12024012723E+03  0.56849048216E+03  0.70697881225E+03  0.40000000000E+03 0.  1.
<mgrwt>
<rscale>  2 0.42028278E+03</rscale>
<asrwt>0</asrwt>
<pdfrwt beam="1">  1        2 0.13760685E+00 0.42028278E+03</pdfrwt>
<pdfrwt beam="2">  1       -2 0.37117664E-01 0.42028278E+03</pdfrwt>
<totfact> 0.20911331E+02</totfact>
</mgrwt>
</event>
<event>
 4    1  0.2488810E-002  0.4636647E+03  0.7818608E-02  0.1023724E+00
         -2   -1    0    0    0  501 -0.00000000000E+00  0.00000000000E+00  0.65512394126E+03  0.65512394126E+03  0.00000000000E+00 0.  1.
          2   -1    0    0  502    0  0.00000000000E+00 -0.00000000000E+00 -0.43977482844E+03  0.43977482844E+03  0.00000000000E+00 0. -1.
    9000007    1    1    2  502    0  0.20729721818E+03 -0.10960294901E+03 -0.16812356809E+03  0.49320429565E+03  0.40000000000E+03 0.  1.
   -9000007    1    1    2    0  501 -0.20729721818E+03  0.10960294901E+03  0.38347268092E+03  0.60169447405E+03  0.40000000000E+03 0.  1.
<mgrwt>
<rscale>  2 0.46366469E+03</rscale>
<asrwt>0</asrwt>
<pdfrwt beam="1">  1        2 0.67657666E-01 0.46366469E+03</pdfrwt>
<pdfrwt beam="2">  1       -2 0.10078830E+00 0.46366469E+03</pdfrwt>
<totfact> 0.59822605E+01</totfact>
</mgrwt>
</event>
<event>
 4    1  0.2488810E-002  0.5931013E+03  0.7818608E-02  0.9919823E-01
          2   -1    0    0  502    0  0.00000000000E+00  0.00000000000E+00  0.15672376837E+04  0.15672376837E+04  0.00000000000E+00 0. -1.
         -2   -1    0    0    0  501 -0.00000000000E+00 -0.00000000000E+00 -0.48086567724E+03  0.48086567724E+03  0.00000000000E+00 0.  1.
    9000007    1    1    2  502    0 -0.36388023950E+03 -0.24363962172E+03  0.12909780973E+04  0.14207017779E+04  0.40000000000E+03 0. -1.
   -9000007    1    1    2    0  501  0.36388023950E+03  0.24363962172E+03 -0.20460609088E+03  0.62740158303E+03  0.40000000000E+03 0.  1.
<mgrwt>
<rscale>  2 0.59310125E+03</rscale>
<asrwt>0</asrwt>
<pdfrwt beam="1">  1        2 0.24111349E+00 0.59310125E+03</pdfrwt>
<pdfrwt beam="2">  1       -2 0.73979336E-01 0.59310125E+03</pdfrwt>
<totfact> 0.20070376E+01</totfact>
</mgrwt>
</event>
<event>
 4    1  0.2488810E-002  0.6102645E+03  0.7818608E-02  0.9884336E-01
          2   -1    0    0  502    0  0.00000000000E+00  0.00000000000E+00  0.53582649404E+03  0.53582649404E+03  0.00000000000E+00 0.  1.
         -2   -1    0    0    0  501 -0.00000000000E+00 -0.00000000000E+00 -0.84755356240E+03  0.84755356240E+03  0.00000000000E+00 0. -1.
    9000007    1    1    2  502    0  0.16827627436E+03  0.42907562433E+03  0.13754787040E+03  0.62557350692E+03  0.40000000000E+03 0. -1.
   -9000007    1    1    2    0  501 -0.16827627436E+03 -0.42907562433E+03 -0.44927493875E+03  0.75780654953E+03  0.40000000000E+03 0. -1.
<mgrwt>
<rscale>  2 0.61026453E+03</rscale>
<asrwt>0</asrwt>
<pdfrwt beam="1">  1        2 0.82434845E-01 0.61026453E+03</pdfrwt>
<pdfrwt beam="2">  1       -2 0.13039286E+00 0.61026453E+03</pdfrwt>
<totfact> 0.25105186E+01</totfact>
</mgrwt>
</event>
<event>
 4    1  0.2488810E-002  0.4411738E+03  0.7818608E-02  0.1030387E+00
          1   -1    0    0  502    0  0.00000000000E+00  0.00000000000E+00  0.28009308664E+04  0.28009308664E+04  0.00000000000E+00 0.  1.
         -1   -1    0    0    0  501 -0.00000000000E+00 -0.00000000000E+00 -0.74677023824E+02  0.74677023824E+02  0.00000000000E+00 0. -1.
    9000007    1    1    2  502    0 -0.14230836575E+03 -0.11992784118E+03  0.98416106621E+03  0.10785209142E+04  0.40000000000E+03 0. -1.
   -9000007    1    1    2    0  501  0.14230836575E+03  0.11992784118E+03  0.17420927764E+04  0.17970869761E+04  0.40000000000E+03 0.  1.
<mgrwt>
<rscale>  2 0.44117384E+03</rscale>
<asrwt>0</asrwt>
<pdfrwt beam="1">  1        1 0.43091236E+00 0.44117384E+03</pdfrwt>
<pdfrwt beam="2">  1       -1 0.11488775E-01 0.44117384E+03</pdfrwt>
<totfact> 0.46610476E+01</totfact>
</mgrwt>
</event>
<event>
 4    1  0.2488810E-002  0.4231282E+03  0.7818608E-02  0.1036053E+00
         -2   -1    0    0    0  501 -0.00000000000E+00  0.00000000000E+00  0.23014250363E+03  0.23014250363E+03  0.00000000000E+00 0. -1.
          2   -1    0    0  502    0  0.00000000000E+00 -0.00000000000E+00 -0.77794976994E+03  0.77794976994E+03  0.00000000000E+00 0.  1.
    9000007    1    1    2  502    0  0.27235111792E+02  0.13526170508E+03 -0.27229323089E+03  0.50317102834E+03  0.40000000000E+03 0. -1.
   -9000007    1    1    2    0  501 -0.27235111792E+02 -0.13526170508E+03 -0.27551403542E+03  0.50492124523E+03  0.40000000000E+03 0. -1.
<mgrwt>
<rscale>  2 0.42312821E+03</rscale>
<asrwt>0</asrwt>
<pdfrwt beam="1">  1        2 0.11968458E+00 0.42312821E+03</pdfrwt>
<pdfrwt beam="2">  1       -2 0.35406539E-01 0.42312821E+03</pdfrwt>
<totfact> 0.27501026E+02</totfact>
</mgrwt>
</event>
<event>
 4    1  0.2488810E-002  0.4191080E+03  0.7818608E-02  0.1037357E+00
         -1   -1    0    0    0  501 -0.00000000000E+00  0.00000000000E+00  0.14588134990E+03  0.14588134990E+03  0.00000000000E+00 0.  1.
          1   -1    0    0  502    0  0.00000000000E+00 -0.00000000000E+00 -0.12771368158E+04  0.12771368158E+04  0.00000000000E+00 0. -1.
    9000007    1    1    2  502    0  0.12508566722E+03 -0.22558732473E+01 -0.73581170126E+03  0.84680007842E+03  0.40000000000E+03 0. -1.
   -9000007    1    1    2    0  501 -0.12508566722E+03  0.22558732473E+01 -0.39544376462E+03  0.57621808726E+03  0.40000000000E+03 0.  1.
<mgrwt>
<rscale>  2 0.41910800E+03</rscale>
<asrwt>0</asrwt>
<pdfrwt beam="1">  1        1 0.19648259E+00 0.41910800E+03</pdfrwt>
<pdfrwt beam="2">  1       -1 0.22443284E-01 0.41910800E+03</pdfrwt>
<totfact> 0.16617893E+02</totfact>
</mgrwt>
</event>
<event>
 4    1  0.2488810E-002  0.4607413E+03  0.7818608E-02  0.1024566E+00
          1   -1    0    0  502    0  0.00000000000E+00  0.00000000000E+00  0.18668257754E+04  0.18668257754E+04  0.00000000000E+00 0. -1.
         -1   -1    0    0    0  501 -0.00000000000E+00 -0.00000000000E+00 -0.11385287142E+03  0.11385287142E+03  0.00000000000E+00 0.  1.
    9000007    1    1    2  502    0  0.14612451873E+03  0.17586976490E+03  0.84178731792E+03  0.95962932312E+03  0.40000000000E+03 0.  1.
   -9000007    1    1    2    0  501 -0.14612451873E+03 -0.17586976490E+03  0.91118558602E+03  0.10210493237E+04  0.40000000000E+03 0.  1.
<mgrwt>
<rscale>  2 0.46074130E+03</rscale>
<asrwt>0</asrwt>
<pdfrwt beam="1">  1        1 0.28720394E+00 0.46074130E+03</pdfrwt>
<pdfrwt beam="2">  1       -1 0.17515828E-01 0.46074130E+03</pdfrwt>
<totfact> 0.99723157E+01</totfact>
</mgrwt>
</event>
<event>
 4    1  0.2488810E-002  0.4089106E+03  0.7818608E-02  0.1040737E+00
         -2   -1    0    0    0  501 -0.00000000000E+00  0.00000000000E+00  0.62161177217E+03  0.62161177217E+03  0.00000000000E+00 0. -1.
          2   -1    0    0  502    0  0.00000000000E+00 -0.00000000000E+00 -0.28953608983E+03  0.28953608983E+03  0.00000000000E+00 0.  1.
    9000007    1    1    2  502    0 -0.24102603220E+02  0.81406248855E+02  0.28739420186E+03  0.49980330140E+03  0.40000000000E+03 0. -1.
   -9000007    1    1    2    0  501  0.24102603220E+02 -0.81406248855E+02  0.44681480478E+02  0.41134456060E+03  0.40000000000E+03 0.  1.
<mgrwt>
<rscale>  2 0.40891064E+03</rscale>
<asrwt>0</asrwt>
<pdfrwt beam="1">  1        2 0.44544014E-01 0.40891064E+03</pdfrwt>
<pdfrwt beam="2">  1       -2 0.95632580E-01 0.40891064E+03</pdfrwt>
<totfact> 0.10779971E+02</totfact>
</mgrwt>
</event>
<event>
 4    1  0.2488810E-002  0.4061899E+03  0.7818608E-02  0.1041657E+00
          2   -1    0    0  502    0  0.00000000000E+00  0.00000000000E+00  0.19575704872E+04  0.19575704872E+04  0.00000000000E+00 0.  1.
         -2   -1    0    0    0  501 -0.00000000000E+00 -0.00000000000E+00 -0.11650227963E+03  0.11650227963E+03  0.00000000000E+00 0. -1.
    9000007    1    1    2  502    0 -0.60994917582E+02  0.35635309217E+02  0.14658944011E+04  0.15211300571E+04  0.40000000000E+03 0.  1.
   -9000007    1    1    2    0  501  0.60994917582E+02 -0.35635309217E+02  0.37517380639E+03  0.55294270972E+03  0.40000000000E+03 0. -1.
<mgrwt>
<rscale>  2 0.40618993E+03</rscale>
<asrwt>0</asrwt>
<pdfrwt beam="1">  1        2 0.30116467E+00 0.40618993E+03</pdfrwt>
<pdfrwt beam="2">  1       -2 0.17923429E-01 0.40618993E+03</pdfrwt>
<totfact> 0.19427669E+02</totfact>
</mgrwt>
</event>
<event>
 4    1  0.2488810E-002  0.4528033E+03  0.7818608E-02  0.1026889E+00
          1   -1    0    0  502    0  0.00000000000E+00  0.00000000000E+00  0.10542287500E+04  0.10542287500E+04  0.00000000000E+00 0. -1.
         -1   -1    0    0    0  501 -0.00000000000E+00 -0.00000000000E+00 -0.19994609925E+03  0.19994609925E+03  0.00000000000E+00 0.  1.
    9000007    1    1    2  502    0 -0.20143770395E+03 -0.66736058296E+02  0.53078502354E+03  0.69768444964E+03  0.40000000000E+03 0. -1.
   -9000007    1    1    2    0  501  0.20143770395E+03  0.66736058296E+02  0.32349762721E+03  0.55649039961E+03  0.40000000000E+03 0.  1.
<mgrwt>
<rscale>  2 0.45280332E+03</rscale>
<asrwt>0</asrwt>
<pdfrwt beam="1">  1        1 0.16218904E+00 0.45280332E+03</pdfrwt>
<pdfrwt beam="2">  1       -1 0.30760939E-01 0.45280332E+03</pdfrwt>
<totfact> 0.14022957E+02</totfact>
</mgrwt>
</event>
<event>
 4    1  0.2488810E-002  0.6231940E+03  0.7818608E-02  0.9858421E-01
         -2   -1    0    0    0  501 -0.00000000000E+00  0.00000000000E+00  0.23747108572E+03  0.23747108572E+03  0.00000000000E+00 0.  1.
          2   -1    0    0  502    0  0.00000000000E+00 -0.00000000000E+00 -0.16502442068E+04  0.16502442068E+04  0.00000000000E+00 0. -1.
    9000007    1    1    2  502    0  0.39167978521E+03  0.27378402496E+03 -0.61700229346E+03  0.87696212951E+03  0.40000000000E+03 0. -1.
   -9000007    1    1    2    0  501 -0.39167978521E+03 -0.27378402496E+03 -0.79577082763E+03  0.10107531630E+04  0.40000000000E+03 0.  1.
<mgrwt>
<rscale>  2 0.62319399E+03</rscale>
<asrwt>0</asrwt>
<pdfrwt beam="1">  1        2 0.25388371E+00 0.62319399E+03</pdfrwt>
<pdfrwt beam="2">  1       -2 0.36534015E-01 0.62319399E+03</pdfrwt>
<totfact> 0.76417388E+01</totfact>
</mgrwt>
</event>
<event>
 4    1  0.2488810E-002  0.4885625E+03  0.7818608E-02  0.1016808E+00
         -2   -1    0    0    0  501 -0.00000000000E+00  0.00000000000E+00  0.23698292364E+03  0.23698292364E+03  0.00000000000E+00 0.  1.
          2   -1    0    0  502    0  0.00000000000E+00 -0.00000000000E+00 -0.15616027588E+04  0.15616027588E+04  0.00000000000E+00 0. -1.
    9000007    1    1    2  502    0  0.37599555084E+02 -0.27799211969E+03 -0.11981333398E+04  0.12939153161E+04  0.40000000000E+03 0. -1.
   -9000007    1    1    2    0  501 -0.37599555084E+02  0.27799211969E+03 -0.12648649528E+03  0.50467036632E+03  0.40000000000E+03 0.  1.
<mgrwt>
<rscale>  2 0.48856253E+03</rscale>
<asrwt>0</asrwt>
<pdfrwt beam="1">  1        2 0.24024658E+00 0.48856253E+03</pdfrwt>
<pdfrwt beam="2">  1       -2 0.36458912E-01 0.48856253E+03</pdfrwt>
<totfact> 0.87301859E+01</totfact>
</mgrwt>
</event>
<event>
 4    1  0.2488810E-002  0.5372602E+03  0.7818608E-02  0.1004486E+00
         -2   -1    0    0    0  501 -0.00000000000E+00  0.00000000000E+00  0.26945783005E+03  0.26945783005E+03  0.00000000000E+00 0. -1.
          2   -1    0    0  502    0  0.00000000000E+00 -0.00000000000E+00 -0.11820891634E+04  0.11820891634E+04  0.00000000000E+00 0.  1.
    9000007    1    1    2  502    0 -0.22331664833E+03 -0.28067461448E+03 -0.67858612789E+03  0.86552163323E+03  0.40000000000E+03 0.  1.
   -9000007    1    1    2    0  501  0.22331664833E+03  0.28067461448E+03 -0.23404520548E+03  0.58602536024E+03  0.40000000000E+03 0.  1.
<mgrwt>
<rscale>  2 0.53726024E+03</rscale>
<asrwt>0</asrwt>
<pdfrwt beam="1">  1        2 0.18185987E+00 0.53726024E+03</pdfrwt>
<pdfrwt beam="2">  1       -2 0.41455050E-01 0.53726024E+03</pdfrwt>
<totfact> 0.11073226E+02</totfact>
</mgrwt>
</event>
<event>
 4    1  0.2488810E-002  0.4082069E+03  0.7818608E-02  0.1040974E+00
         -1   -1    0    0    0  501 -0.00000000000E+00  0.00000000000E+00  0.14221694641E+03  0.14221694641E+03  0.00000000000E+00 0.  1.
          1   -1    0    0  502    0  0.00000000000E+00 -0.00000000000E+00 -0.12737089708E+04  0.12737089708E+04  0.00000000000E+00 0. -1.
    9000007    1    1    2  502    0  0.14955514413E+02  0.80057379398E+02 -0.76611739423E+03  0.86808335611E+03  0.40000000000E+03 0. -1.
   -9000007    1    1    2    0  501 -0.14955514413E+02 -0.80057379398E+02 -0.36537463018E+03  0.54784256113E+03  0.40000000000E+03 0.  1.
<mgrwt>
<rscale>  2 0.40820687E+03</rscale>
<asrwt>0</asrwt>
<pdfrwt beam="1">  1        1 0.19595522E+00 0.40820687E+03</pdfrwt>
<pdfrwt beam="2">  1       -1 0.21879531E-01 0.40820687E+03</pdfrwt>
<totfact> 0.17457370E+02</totfact>
</mgrwt>
</event>
<event>
 4    1  0.2488810E-002  0.5387944E+03  0.7818608E-02  0.1004121E+00
         -1   -1    0    0    0  501 -0.00000000000E+00  0.00000000000E+00  0.10295650754E+03  0.10295650754E+03  0.00000000000E+00 0.  1.
          1   -1    0    0  502    0  0.00000000000E+00 -0.00000000000E+00 -0.28860932182E+04  0.28860932182E+04  0.00000000000E+00 0. -1.
    9000007    1    1    2  502    0  0.33258639310E+03  0.14030573842E+03 -0.16183635428E+04  0.17056963288E+04  0.40000000000E+03 0.  1.
   -9000007    1    1    2    0  501 -0.33258639310E+03 -0.14030573842E+03 -0.11647731678E+04  0.12833533970E+04  0.40000000000E+03 0.  1.
<mgrwt>
<rscale>  2 0.53879440E+03</rscale>
<asrwt>0</asrwt>
<pdfrwt beam="1">  1        1 0.44401433E+00 0.53879440E+03</pdfrwt>
<pdfrwt beam="2">  1       -1 0.15839463E-01 0.53879440E+03</pdfrwt>
<totfact> 0.23806119E+01</totfact>
</mgrwt>
</event>
<event>
 4    1  0.2488810E-002  0.4413923E+03  0.7818608E-02  0.1030320E+00
         -1   -1    0    0    0  501 -0.00000000000E+00  0.00000000000E+00  0.80764423494E+02  0.80764423494E+02  0.00000000000E+00 0. -1.
          1   -1    0    0  502    0  0.00000000000E+00 -0.00000000000E+00 -0.25592051448E+04  0.25592051448E+04  0.00000000000E+00 0.  1.
    9000007    1    1    2  502    0  0.18406551944E+03 -0.30773519214E+02 -0.92295528499E+03  0.10230706637E+04  0.40000000000E+03 0.  1.
   -9000007    1    1    2    0  501 -0.18406551944E+03  0.30773519214E+02 -0.15554854364E+04  0.16168989046E+04  0.40000000000E+03 0. -1.
<mgrwt>
<rscale>  2 0.44139226E+03</rscale>
<asrwt>0</asrwt>
<pdfrwt beam="1">  1        1 0.39372383E+00 0.44139226E+03</pdfrwt>
<pdfrwt beam="2">  1       -1 0.12425297E-01 0.44139226E+03</pdfrwt>
<totfact> 0.60251736E+01</totfact>
</mgrwt>
</event>
<event>
 4    1  0.2488810E-002  0.4059941E+03  0.7818608E-02  0.1041724E+00
          2   -1    0    0  502    0  0.00000000000E+00  0.00000000000E+00  0.76796054351E+03  0.76796054351E+03  0.00000000000E+00 0.  1.
         -2   -1    0    0    0  501 -0.00000000000E+00 -0.00000000000E+00 -0.22675076584E+03  0.22675076584E+03  0.00000000000E+00 0. -1.
    9000007    1    1    2  502    0  0.69440150176E+02  0.30471065609E+01  0.38557049307E+03  0.55990697838E+03  0.40000000000E+03 0.  1.
   -9000007    1    1    2    0  501 -0.69440150176E+02 -0.30471065609E+01  0.15563928460E+03  0.43480433097E+03  0.40000000000E+03 0. -1.
<mgrwt>
<rscale>  2 0.40599411E+03</rscale>
<asrwt>0</asrwt>
<pdfrwt beam="1">  1        2 0.11814778E+00 0.40599411E+03</pdfrwt>
<pdfrwt beam="2">  1       -2 0.34884733E-01 0.40599411E+03</pdfrwt>
<totfact> 0.28791411E+02</totfact>
</mgrwt>
</event>
<event>
 4    1  0.2488810E-002  0.4171230E+03  0.7818608E-02  0.1038007E+00
         -2   -1    0    0    0  501 -0.00000000000E+00  0.00000000000E+00  0.21029501751E+03  0.21029501751E+03  0.00000000000E+00 0.  1.
          2   -1    0    0  502    0  0.00000000000E+00 -0.00000000000E+00 -0.96094200997E+03  0.96094200997E+03  0.00000000000E+00 0. -1.
    9000007    1    1    2  502    0 -0.42856116050E+02 -0.11024946390E+03 -0.15698743737E+03  0.44568671336E+03  0.40000000000E+03 0.  1.
   -9000007    1    1    2    0  501  0.42856116050E+02  0.11024946390E+03 -0.59365955509E+03  0.72555031412E+03  0.40000000000E+03 0. -1.
<mgrwt>
<rscale>  2 0.41712299E+03</rscale>
<asrwt>0</asrwt>
<pdfrwt beam="1">  1        2 0.14783723E+00 0.41712299E+03</pdfrwt>
<pdfrwt beam="2">  1       -2 0.32353079E-01 0.41712299E+03</pdfrwt>
<totfact> 0.24529888E+02</totfact>
</mgrwt>
</event>
<event>
 4    1  0.2488810E-002  0.4033374E+03  0.7818608E-02  0.1042630E+00
          1   -1    0    0  502    0  0.00000000000E+00  0.00000000000E+00  0.45448016042E+03  0.45448016042E+03  0.00000000000E+00 0.  1.
         -1   -1    0    0    0  501 -0.00000000000E+00 -0.00000000000E+00 -0.35870148565E+03  0.35870148565E+03  0.00000000000E+00 0. -1.
    9000007    1    1    2  502    0 -0.26663467391E+02 -0.44385566273E+02  0.66503756894E+02  0.40878327836E+03  0.40000000000E+03 0.  1.
   -9000007    1    1    2    0  501  0.26663467391E+02  0.44385566273E+02  0.29274917881E+02  0.40439836771E+03  0.40000000000E+03 0. -1.
<mgrwt>
<rscale>  2 0.40333735E+03</rscale>
<asrwt>0</asrwt>
<pdfrwt beam="1">  1        1 0.69920025E-01 0.40333735E+03</pdfrwt>
<pdfrwt beam="2">  1       -1 0.55184844E-01 0.40333735E+03</pdfrwt>
<totfact> 0.17420309E+02</totfact>
</mgrwt>
</event>
<event>
 4    1  0.2488810E-002  0.4127443E+03  0.7818608E-02  0.1039454E+00
         -1   -1    0    0    0  501 -0.00000000000E+00  0.00000000000E+00  0.13650526652E+03  0.13650526652E+03  0.00000000000E+00 0.  1.
          1   -1    0    0  502    0  0.00000000000E+00 -0.00000000000E+00 -0.13419342080E+04  0.13419342080E+04  0.00000000000E+00 0. -1.
    9000007    1    1    2  502    0 -0.78879523939E+02 -0.64310905784E+02 -0.79829773815E+03  0.89868634720E+03  0.40000000000E+03 0. -1.
   -9000007    1    1    2    0  501  0.78879523939E+02  0.64310905784E+02 -0.40713120330E+03  0.57975312729E+03  0.40000000000E+03 0.  1.
<mgrwt>
<rscale>  2 0.41274432E+03</rscale>
<asrwt>0</asrwt>
<pdfrwt beam="1">  1        1 0.20645141E+00 0.41274432E+03</pdfrwt>
<pdfrwt beam="2">  1       -1 0.21000811E-01 0.41274432E+03</pdfrwt>
<totfact> 0.16746378E+02</totfact>
</mgrwt>
</event>
<event>
 4    1  0.2488810E-002  0.7600428E+03  0.7818608E-02  0.9619725E-01
          2   -1    0    0  502    0  0.00000000000E+00  0.00000000000E+00  0.52365985113E+03  0.52365985113E+03  0.00000000000E+00 0.  1.
         -2   -1    0    0    0  501 -0.00000000000E+00 -0.00000000000E+00 -0.13606377384E+04  0.13606377384E+04  0.00000000000E+00 0. -1.
    9000007    1    1    2  502    0 -0.19196798201E+03 -0.61710075198E+03 -0.86217696994E+01  0.76009169126E+03  0.40000000000E+03 0.  1.
   -9000007    1    1    2    0  501  0.19196798201E+03  0.61710075198E+03 -0.82835611757E+03  0.11242058983E+04  0.40000000000E+03 0. -1.
<mgrwt>
<rscale>  2 0.76004279E+03</rscale>
<asrwt>0</asrwt>
<pdfrwt beam="1">  1        2 0.80563055E-01 0.76004279E+03</pdfrwt>
<pdfrwt beam="2">  1       -2 0.20932888E+00 0.76004279E+03</pdfrwt>
<totfact> 0.68812641E+00</totfact>
</mgrwt>
</event>
<event>
 4    1  0.2488810E-002  0.4455737E+03  0.7818608E-02  0.1029050E+00
         -1   -1    0    0    0  501 -0.00000000000E+00  0.00000000000E+00  0.47098926444E+03  0.47098926444E+03  0.00000000000E+00 0.  1.
          1   -1    0    0  502    0  0.00000000000E+00 -0.00000000000E+00 -0.45646982115E+03  0.45646982115E+03  0.00000000000E+00 0. -1.
    9000007    1    1    2  502    0 -0.14409719808E+03  0.13331152125E+03  0.13555802740E+03  0.46573806263E+03  0.40000000000E+03 0. -1.
   -9000007    1    1    2    0  501  0.14409719808E+03 -0.13331152125E+03 -0.12103858411E+03  0.46172102295E+03  0.40000000000E+03 0.  1.
<mgrwt>
<rscale>  2 0.44557375E+03</rscale>
<asrwt>0</asrwt>
<pdfrwt beam="1">  1        1 0.70226127E-01 0.44557375E+03</pdfrwt>
<pdfrwt beam="2">  1       -1 0.72459887E-01 0.44557375E+03</pdfrwt>
<totfact> 0.10072516E+02</totfact>
</mgrwt>
</event>
<event>
 4    1  0.2488810E-002  0.5416494E+03  0.7818608E-02  0.1003445E+00
         -2   -1    0    0    0  501 -0.00000000000E+00  0.00000000000E+00  0.24061097943E+03  0.24061097943E+03  0.00000000000E+00 0.  1.
          2   -1    0    0  502    0  0.00000000000E+00 -0.00000000000E+00 -0.12484955157E+04  0.12484955157E+04  0.00000000000E+00 0. -1.
    9000007    1    1    2  502    0 -0.35759040617E+03 -0.74250535913E+02 -0.39014244634E+03  0.66752915225E+03  0.40000000000E+03 0.  1.
   -9000007    1    1    2    0  501  0.35759040617E+03  0.74250535913E+02 -0.61774208994E+03  0.82157734290E+03  0.40000000000E+03 0. -1.
<mgrwt>
<rscale>  2 0.54164937E+03</rscale>
<asrwt>0</asrwt>
<pdfrwt beam="1">  1        2 0.19207624E+00 0.54164937E+03</pdfrwt>
<pdfrwt beam="2">  1       -2 0.37017073E-01 0.54164937E+03</pdfrwt>
<totfact> 0.12601586E+02</totfact>
</mgrwt>
</event>
<event>
 4    1  0.2488810E-002  0.4370959E+03  0.7818608E-02  0.1031642E+00
          1   -1    0    0  502    0  0.00000000000E+00  0.00000000000E+00  0.70660027177E+03  0.70660027177E+03  0.00000000000E+00 0.  1.
         -1   -1    0    0    0  501 -0.00000000000E+00 -0.00000000000E+00 -0.27771716846E+03  0.27771716846E+03  0.00000000000E+00 0. -1.
    9000007    1    1    2  502    0 -0.11073960037E+03  0.13707499477E+03  0.13446280986E+03  0.45731068270E+03  0.40000000000E+03 0. -1.
   -9000007    1    1    2    0  501  0.11073960037E+03 -0.13707499477E+03  0.29442029345E+03  0.52700675753E+03  0.40000000000E+03 0. -1.
<mgrwt>
<rscale>  2 0.43709589E+03</rscale>
<asrwt>0</asrwt>
<pdfrwt beam="1">  1        1 0.10870773E+00 0.43709589E+03</pdfrwt>
<pdfrwt beam="2">  1       -1 0.42725719E-01 0.43709589E+03</pdfrwt>
<totfact> 0.15088149E+02</totfact>
</mgrwt>
</event>
<event>
 4    1  0.2488810E-002  0.4657958E+03  0.7818608E-02  0.1023114E+00
          1   -1    0    0  502    0  0.00000000000E+00  0.00000000000E+00  0.20585243778E+03  0.20585243778E+03  0.00000000000E+00 0. -1.
         -1   -1    0    0    0  501 -0.00000000000E+00 -0.00000000000E+00 -0.11340515955E+04  0.11340515955E+04  0.00000000000E+00 0.  1.
    9000007    1    1    2  502    0  0.52075967192E+02 -0.23292448295E+03 -0.64211125936E+03  0.79326703607E+03  0.40000000000E+03 0. -1.
   -9000007    1    1    2    0  501 -0.52075967192E+02  0.23292448295E+03 -0.28608789833E+03  0.54663699718E+03  0.40000000000E+03 0. -1.
<mgrwt>
<rscale>  2 0.46579579E+03</rscale>
<asrwt>0</asrwt>
<pdfrwt beam="1">  1        1 0.31669605E-01 0.46579579E+03</pdfrwt>
<pdfrwt beam="2">  1       -1 0.17446948E+00 0.46579579E+03</pdfrwt>
<totfact> 0.34464380E+01</totfact>
</mgrwt>
</event>
<event>
 4    1  0.2488810E-002  0.4191669E+03  0.7818608E-02  0.1037338E+00
         -1   -1    0    0    0  501 -0.00000000000E+00  0.00000000000E+00  0.23200559582E+03  0.23200559582E+03  0.00000000000E+00 0.  1.
          1   -1    0    0  502    0  0.00000000000E+00 -0.00000000000E+00 -0.81889758277E+03  0.81889758277E+03  0.00000000000E+00 0. -1.
    9000007    1    1    2  502    0 -0.50976015150E+02  0.11446544479E+03 -0.14934952617E+03  0.44497884572E+03  0.40000000000E+03 0.  1.
   -9000007    1    1    2    0  501  0.50976015150E+02 -0.11446544479E+03 -0.43754246078E+03  0.60592433287E+03  0.40000000000E+03 0. -1.
<mgrwt>
<rscale>  2 0.41916690E+03</rscale>
<asrwt>0</asrwt>
<pdfrwt beam="1">  1        1 0.12598424E+00 0.41916690E+03</pdfrwt>
<pdfrwt beam="2">  1       -1 0.35693169E-01 0.41916690E+03</pdfrwt>
<totfact> 0.16636684E+02</totfact>
</mgrwt>
</event>
<event>
 4    1  0.2488810E-002  0.4824297E+03  0.7818608E-02  0.1018470E+00
          2   -1    0    0  502    0  0.00000000000E+00  0.00000000000E+00  0.10628445694E+04  0.10628445694E+04  0.00000000000E+00 0.  1.
         -2   -1    0    0    0  501 -0.00000000000E+00 -0.00000000000E+00 -0.23912219424E+03  0.23912219424E+03  0.00000000000E+00 0. -1.
    9000007    1    1    2  502    0 -0.14611473603E+03  0.22669129880E+03  0.22291147392E+03  0.53143954148E+03  0.40000000000E+03 0. -1.
   -9000007    1    1    2    0  501  0.14611473603E+03 -0.22669129880E+03  0.60081090123E+03  0.77052722215E+03  0.40000000000E+03 0.  1.
<mgrwt>
<rscale>  2 0.48242975E+03</rscale>
<asrwt>0</asrwt>
<pdfrwt beam="1">  1        2 0.16351455E+00 0.48242975E+03</pdfrwt>
<pdfrwt beam="2">  1       -2 0.36788030E-01 0.48242975E+03</pdfrwt>
<totfact> 0.16531190E+02</totfact>
</mgrwt>
</event>
<event>
 4    1  0.2488810E-002  0.4023338E+03  0.7818608E-02  0.1042975E+00
          1   -1    0    0  502    0  0.00000000000E+00  0.00000000000E+00  0.76059625984E+03  0.76059625984E+03  0.00000000000E+00 0. -1.
         -1   -1    0    0    0  501 -0.00000000000E+00 -0.00000000000E+00 -0.21648319059E+03  0.21648319059E+03  0.00000000000E+00 0.  1.
    9000007    1    1    2  502    0 -0.39586479548E+02  0.17476232693E+02  0.20853375660E+03  0.45316535141E+03  0.40000000000E+03 0.  1.
   -9000007    1    1    2    0  501  0.39586479548E+02 -0.17476232693E+02  0.33557931265E+03  0.52391409902E+03  0.40000000000E+03 0. -1.
<mgrwt>
<rscale>  2 0.40233383E+03</rscale>
<asrwt>0</asrwt>
<pdfrwt beam="1">  1        1 0.11701481E+00 0.40233383E+03</pdfrwt>
<pdfrwt beam="2">  1       -1 0.33305107E-01 0.40233383E+03</pdfrwt>
<totfact> 0.21116449E+02</totfact>
</mgrwt>
</event>
<event>
 4    1  0.2488810E-002  0.4147027E+03  0.7818608E-02  0.1038804E+00
          1   -1    0    0  502    0  0.00000000000E+00  0.00000000000E+00  0.65821822534E+03  0.65821822534E+03  0.00000000000E+00 0.  1.
         -1   -1    0    0    0  501 -0.00000000000E+00 -0.00000000000E+00 -0.26130261127E+03  0.26130261127E+03  0.00000000000E+00 0. -1.
    9000007    1    1    2  502    0  0.10018825831E+03  0.44052976174E+02  0.20286290535E+03  0.46166190029E+03  0.40000000000E+03 0. -1.
   -9000007    1    1    2    0  501 -0.10018825831E+03 -0.44052976174E+02  0.19405270871E+03  0.45785893632E+03  0.40000000000E+03 0. -1.
<mgrwt>
<rscale>  2 0.41470273E+03</rscale>
<asrwt>0</asrwt>
<pdfrwt beam="1">  1        1 0.10126434E+00 0.41470273E+03</pdfrwt>
<pdfrwt beam="2">  1       -1 0.40200402E-01 0.41470273E+03</pdfrwt>
<totfact> 0.18746378E+02</totfact>
</mgrwt>
</event>
<event>
 4    1  0.2488810E-002  0.5668523E+03  0.7818608E-02  0.9976668E-01
          2   -1    0    0  502    0  0.00000000000E+00  0.00000000000E+00  0.24838290467E+04  0.24838290467E+04  0.00000000000E+00 0.  1.
         -2   -1    0    0    0  501 -0.00000000000E+00 -0.00000000000E+00 -0.42223071957E+03  0.42223071957E+03  0.00000000000E+00 0. -1.
    9000007    1    1    2  502    0  0.39795305132E+03 -0.54358486508E+02 -0.17933528552E+03  0.59454404441E+03  0.40000000000E+03 0. -1.
   -9000007    1    1    2    0  501 -0.39795305132E+03  0.54358486508E+02  0.22409336127E+04  0.23115157219E+04  0.40000000000E+03 0.  1.
<mgrwt>
<rscale>  2 0.56685225E+03</rscale>
<asrwt>0</asrwt>
<pdfrwt beam="1">  1        2 0.38212754E+00 0.56685225E+03</pdfrwt>
<pdfrwt beam="2">  1       -2 0.64958574E-01 0.56685225E+03</pdfrwt>
<totfact> 0.84526352E+00</totfact>
</mgrwt>
</event>
<event>
 4    1  0.2488810E-002  0.4327798E+03  0.7818608E-02  0.1032985E+00
         -2   -1    0    0    0  501 -0.00000000000E+00  0.00000000000E+00  0.85287792250E+02  0.85287792250E+02  0.00000000000E+00 0.  1.
          2   -1    0    0  502    0  0.00000000000E+00 -0.00000000000E+00 -0.28334219761E+04  0.28334219761E+04  0.00000000000E+00 0. -1.
    9000007    1    1    2  502    0  0.86377810241E+02  0.14084483969E+03 -0.20662059393E+04  0.21110436704E+04  0.40000000000E+03 0. -1.
   -9000007    1    1    2    0  501 -0.86377810241E+02 -0.14084483969E+03 -0.68192824455E+03  0.80766609789E+03  0.40000000000E+03 0.  1.
<mgrwt>
<rscale>  2 0.43277985E+03</rscale>
<asrwt>0</asrwt>
<pdfrwt beam="1">  1        2 0.43591109E+00 0.43277985E+03</pdfrwt>
<pdfrwt beam="2">  1       -2 0.13121198E-01 0.43277985E+03</pdfrwt>
<totfact> 0.10694459E+02</totfact>
</mgrwt>
</event>
<event>
 4    1  0.2488810E-002  0.4339646E+03  0.7818608E-02  0.1032615E+00
          1   -1    0    0  502    0  0.00000000000E+00  0.00000000000E+00  0.26845018460E+03  0.26845018460E+03  0.00000000000E+00 0. -1.
         -1   -1    0    0    0  501 -0.00000000000E+00 -0.00000000000E+00 -0.74691796141E+03  0.74691796141E+03  0.00000000000E+00 0.  1.
    9000007    1    1    2  502    0 -0.89883002889E+02  0.14228949289E+03 -0.11408177437E+03  0.44870915440E+03  0.40000000000E+03 0. -1.
   -9000007    1    1    2    0  501  0.89883002889E+02 -0.14228949289E+03 -0.36438600244E+03  0.56665899161E+03  0.40000000000E+03 0.  1.
<mgrwt>
<rscale>  2 0.43396458E+03</rscale>
<asrwt>0</asrwt>
<pdfrwt beam="1">  1        1 0.41300028E-01 0.43396458E+03</pdfrwt>
<pdfrwt beam="2">  1       -1 0.11491046E+00 0.43396458E+03</pdfrwt>
<totfact> 0.72951396E+01</totfact>
</mgrwt>
</event>
<event>
 4    1  0.2488810E-002  0.5435948E+03  0.7818608E-02  0.1002987E+00
         -1   -1    0    0    0  501 -0.00000000000E+00  0.00000000000E+00  0.25277805477E+03  0.25277805477E+03  0.00000000000E+00 0.  1.
          1   -1    0    0  502    0  0.00000000000E+00 -0.00000000000E+00 -0.11689915745E+04  0.11689915745E+04  0.00000000000E+00 0. -1.
    9000007    1    1    2  502    0 -0.11576832596E+03  0.34941803670E+03 -0.45860741919E+03  0.71120744836E+03  0.40000000000E+03 0. -1.
   -9000007    1    1    2    0  501  0.11576832596E+03 -0.34941803670E+03 -0.45760610049E+03  0.71056218087E+03  0.40000000000E+03 0.  1.
<mgrwt>
<rscale>  2 0.54359477E+03</rscale>
<asrwt>0</asrwt>
<pdfrwt beam="1">  1        1 0.17984486E+00 0.54359477E+03</pdfrwt>
<pdfrwt beam="2">  1       -1 0.38888932E-01 0.54359477E+03</pdfrwt>
<totfact> 0.75500284E+01</totfact>
</mgrwt>
</event>
<event>
 4    1  0.2488810E-002  0.4726562E+03  0.7818608E-02  0.1021173E+00
         -1   -1    0    0    0  501 -0.00000000000E+00  0.00000000000E+00  0.48728183553E+03  0.48728183553E+03  0.00000000000E+00 0.  1.
          1   -1    0    0  502    0  0.00000000000E+00 -0.00000000000E+00 -0.72586250976E+03  0.72586250976E+03  0.00000000000E+00 0. -1.
    9000007    1    1    2  502    0  0.21833544855E+03  0.12543348623E+03 -0.48744491991E+03  0.67897457795E+03  0.40000000000E+03 0. -1.
   -9000007    1    1    2    0  501 -0.21833544855E+03 -0.12543348623E+03  0.24886424568E+03  0.53416976734E+03  0.40000000000E+03 0.  1.
<mgrwt>
<rscale>  2 0.47265625E+03</rscale>
<asrwt>0</asrwt>
<pdfrwt beam="1">  1        1 0.11167115E+00 0.47265625E+03</pdfrwt>
<pdfrwt beam="2">  1       -1 0.74966437E-01 0.47265625E+03</pdfrwt>
<totfact> 0.48699529E+01</totfact>
</mgrwt>
</event>
<event>
 4    1  0.2488810E-002  0.7582800E+03  0.7818608E-02  0.9622449E-01
          3   -1    0    0  502    0  0.00000000000E+00  0.00000000000E+00  0.54853971867E+03  0.54853971867E+03  0.00000000000E+00 0. -1.
         -3   -1    0    0    0  501 -0.00000000000E+00 -0.00000000000E+00 -0.10622021576E+04  0.10622021576E+04  0.00000000000E+00 0.  1.
    9000007    1    1    2  502    0 -0.47925201960E+03 -0.43047182276E+03 -0.16441869099E+03  0.77590076326E+03  0.40000000000E+03 0.  1.
   -9000007    1    1    2    0  501  0.47925201960E+03  0.43047182276E+03 -0.34924374791E+03  0.83484111298E+03  0.40000000000E+03 0. -1.
<mgrwt>
<rscale>  2 0.75827995E+03</rscale>
<asrwt>0</asrwt>
<pdfrwt beam="1">  1        3 0.84390727E-01 0.75827995E+03</pdfrwt>
<pdfrwt beam="2">  1       -3 0.16341571E+00 0.75827995E+03</pdfrwt>
<totfact> 0.86267458E-01</totfact>
</mgrwt>
</event>
<event>
 4    1  0.2488810E-002  0.4951286E+03  0.7818608E-02  0.1015058E+00
         -2   -1    0    0    0  501 -0.00000000000E+00  0.00000000000E+00  0.15380646783E+03  0.15380646783E+03  0.00000000000E+00 0.  1.
          2   -1    0    0  502    0  0.00000000000E+00 -0.00000000000E+00 -0.16293695329E+04  0.16293695329E+04  0.00000000000E+00 0. -1.
    9000007    1    1    2  502    0  0.27605756896E+03 -0.94575638505E+02 -0.60623662342E+03  0.78273570019E+03  0.40000000000E+03 0.  1.
   -9000007    1    1    2    0  501 -0.27605756896E+03  0.94575638505E+02 -0.86932644165E+03  0.10004403005E+04  0.40000000000E+03 0. -1.
<mgrwt>
<rscale>  2 0.49512860E+03</rscale>
<asrwt>0</asrwt>
<pdfrwt beam="1">  1        2 0.25067222E+00 0.49512860E+03</pdfrwt>
<pdfrwt beam="2">  1       -2 0.23662535E-01 0.49512860E+03</pdfrwt>
<totfact> 0.17738471E+02</totfact>
</mgrwt>
</event>
<event>
 4    1  0.2488810E-002  0.4079173E+03  0.7818608E-02  0.1041072E+00
          2   -1    0    0  502    0  0.00000000000E+00  0.00000000000E+00  0.73546165574E+03  0.73546165574E+03  0.00000000000E+00 0. -1.
         -2   -1    0    0    0  501 -0.00000000000E+00 -0.00000000000E+00 -0.29175389127E+03  0.29175389127E+03  0.00000000000E+00 0.  1.
    9000007    1    1    2  502    0  0.52756521458E+00 -0.79976290910E+02 -0.21514713427E+02  0.40848423265E+03  0.40000000000E+03 0.  1.
   -9000007    1    1    2    0  501 -0.52756521458E+00  0.79976290910E+02  0.46522247789E+03  0.61873131436E+03  0.40000000000E+03 0. -1.
<mgrwt>
<rscale>  2 0.40791725E+03</rscale>
<asrwt>0</asrwt>
<pdfrwt beam="1">  1        2 0.11314795E+00 0.40791725E+03</pdfrwt>
<pdfrwt beam="2">  1       -2 0.44885214E-01 0.40791725E+03</pdfrwt>
<totfact> 0.18705554E+02</totfact>
</mgrwt>
</event>
<event>
 4    1  0.2488810E-002  0.4019524E+03  0.7818608E-02  0.1043106E+00
          2   -1    0    0  502    0  0.00000000000E+00  0.00000000000E+00  0.18095474593E+04  0.18095474593E+04  0.00000000000E+00 0. -1.
         -2   -1    0    0    0  501 -0.00000000000E+00 -0.00000000000E+00 -0.89690550263E+02  0.89690550263E+02  0.00000000000E+00 0.  1.
    9000007    1    1    2  502    0  0.22792876571E+02 -0.32344710012E+02  0.92377306458E+03  0.10074335563E+04  0.40000000000E+03 0. -1.
   -9000007    1    1    2    0  501 -0.22792876571E+02  0.32344710012E+02  0.79608384450E+03  0.89180445332E+03  0.40000000000E+03 0. -1.
<mgrwt>
<rscale>  2 0.40195235E+03</rscale>
<asrwt>0</asrwt>
<pdfrwt beam="1">  1        2 0.27839189E+00 0.40195235E+03</pdfrwt>
<pdfrwt beam="2">  1       -2 0.13798548E-01 0.40195235E+03</pdfrwt>
<totfact> 0.36195927E+02</totfact>
</mgrwt>
</event>
<event>
 4    1  0.2488810E-002  0.6577728E+03  0.7818608E-02  0.9792302E-01
         -2   -1    0    0    0  501 -0.00000000000E+00  0.00000000000E+00  0.18604338088E+03  0.18604338088E+03  0.00000000000E+00 0. -1.
          2   -1    0    0  502    0  0.00000000000E+00 -0.00000000000E+00 -0.23318238177E+04  0.23318238177E+04  0.00000000000E+00 0.  1.
    9000007    1    1    2  502    0  0.17400230227E+03 -0.49232939871E+03 -0.11378589478E+04  0.13143013441E+04  0.40000000000E+03 0.  1.
   -9000007    1    1    2    0  501 -0.17400230227E+03  0.49232939871E+03 -0.10079214890E+04  0.12035658545E+04  0.40000000000E+03 0.  1.
<mgrwt>
<rscale>  2 0.65777279E+03</rscale>
<asrwt>0</asrwt>
<pdfrwt beam="1">  1        2 0.35874212E+00 0.65777279E+03</pdfrwt>
<pdfrwt beam="2">  1       -2 0.28622059E-01 0.65777279E+03</pdfrwt>
<totfact> 0.51079927E+01</totfact>
</mgrwt>
</event>
<event>
 4    1  0.2488810E-002  0.4296318E+03  0.7818608E-02  0.1033976E+00
         -2   -1    0    0    0  501 -0.00000000000E+00  0.00000000000E+00  0.77422469508E+02  0.77422469508E+02  0.00000000000E+00 0.  1.
          2   -1    0    0  502    0  0.00000000000E+00 -0.00000000000E+00 -0.24336892321E+04  0.24336892321E+04  0.00000000000E+00 0. -1.
    9000007    1    1    2  502    0  0.10154376588E+03 -0.11946685318E+03 -0.99892194219E+03  0.10873952878E+04  0.40000000000E+03 0.  1.
   -9000007    1    1    2    0  501 -0.10154376588E+03  0.11946685318E+03 -0.13573448204E+04  0.14237164138E+04  0.40000000000E+03 0. -1.
<mgrwt>
<rscale>  2 0.42963178E+03</rscale>
<asrwt>0</asrwt>
<pdfrwt beam="1">  1        2 0.37441373E+00 0.42963178E+03</pdfrwt>
<pdfrwt beam="2">  1       -2 0.11911149E-01 0.42963178E+03</pdfrwt>
<totfact> 0.21148288E+02</totfact>
</mgrwt>
</event>
<event>
 4    1  0.2488810E-002  0.4047943E+03  0.7818608E-02  0.1042132E+00
          1   -1    0    0  502    0  0.00000000000E+00  0.00000000000E+00  0.36444251249E+03  0.36444251249E+03  0.00000000000E+00 0. -1.
         -1   -1    0    0    0  501 -0.00000000000E+00 -0.00000000000E+00 -0.46109074073E+03  0.46109074073E+03  0.00000000000E+00 0.  1.
    9000007    1    1    2  502    0 -0.22139109547E+01 -0.62076955355E+02  0.16796872745E+02  0.40514267206E+03  0.40000000000E+03 0. -1.
   -9000007    1    1    2    0  501  0.22139109547E+01  0.62076955355E+02 -0.11344510099E+03  0.42039058116E+03  0.40000000000E+03 0.  1.
<mgrwt>
<rscale>  2 0.40479433E+03</rscale>
<asrwt>0</asrwt>
<pdfrwt beam="1">  1        1 0.56068079E-01 0.40479433E+03</pdfrwt>
<pdfrwt beam="2">  1       -1 0.70937037E-01 0.40479433E+03</pdfrwt>
<totfact> 0.14186446E+02</totfact>
</mgrwt>
</event>
<event>
 4    1  0.2488810E-002  0.4036624E+03  0.7818608E-02  0.1042519E+00
         -1   -1    0    0    0  501 -0.00000000000E+00  0.00000000000E+00  0.15691830200E+03  0.15691830200E+03  0.00000000000E+00 0. -1.
          1   -1    0    0  502    0  0.00000000000E+00 -0.00000000000E+00 -0.10403279463E+04  0.10403279463E+04  0.00000000000E+00 0.  1.
    9000007    1    1    2  502    0 -0.54242761523E+02 -0.10121900741E+01 -0.46750313171E+03  0.61765887014E+03  0.40000000000E+03 0. -1.
   -9000007    1    1    2    0  501  0.54242761523E+02  0.10121900741E+01 -0.41590651259E+03  0.57958737816E+03  0.40000000000E+03 0. -1.
<mgrwt>
<rscale>  2 0.40366236E+03</rscale>
<asrwt>0</asrwt>
<pdfrwt beam="1">  1        1 0.16005046E+00 0.40366236E+03</pdfrwt>
<pdfrwt beam="2">  1       -1 0.24141276E-01 0.40366236E+03</pdfrwt>
<totfact> 0.21831111E+02</totfact>
</mgrwt>
</event>
<event>
 4    1  0.2488810E-002  0.7541741E+03  0.7818608E-02  0.9628824E-01
         -2   -1    0    0    0  501 -0.00000000000E+00  0.00000000000E+00  0.48468581797E+03  0.48468581797E+03  0.00000000000E+00 0.  1.
          2   -1    0    0  502    0  0.00000000000E+00 -0.00000000000E+00 -0.12380385470E+04  0.12380385470E+04  0.00000000000E+00 0. -1.
    9000007    1    1    2  502    0  0.37545116027E+03  0.51750850441E+03 -0.18001023586E+03  0.77535947205E+03  0.40000000000E+03 0.  1.
   -9000007    1    1    2    0  501 -0.37545116027E+03 -0.51750850441E+03 -0.57334249323E+03  0.94736489297E+03  0.40000000000E+03 0. -1.
<mgrwt>
<rscale>  2 0.75417413E+03</rscale>
<asrwt>0</asrwt>
<pdfrwt beam="1">  1        2 0.19046747E+00 0.75417413E+03</pdfrwt>
<pdfrwt beam="2">  1       -2 0.74567049E-01 0.75417413E+03</pdfrwt>
<totfact> 0.29624850E+01</totfact>
</mgrwt>
</event>
<event>
 4    1  0.2488810E-002  0.4258752E+03  0.7818608E-02  0.1035171E+00
         -1   -1    0    0    0  501 -0.00000000000E+00  0.00000000000E+00  0.11900430093E+03  0.11900430093E+03  0.00000000000E+00 0. -1.
          1   -1    0    0  502    0  0.00000000000E+00 -0.00000000000E+00 -0.28085352463E+04  0.28085352463E+04  0.00000000000E+00 0.  1.
    9000007    1    1    2  502    0 -0.17877223188E+01 -0.14617269614E+03 -0.35485535156E+03  0.55433922248E+03  0.40000000000E+03 0. -1.
   -9000007    1    1    2    0  501  0.17877223188E+01  0.14617269614E+03 -0.23346755938E+04  0.23732003248E+04  0.40000000000E+03 0.  1.
<mgrwt>
<rscale>  2 0.42587516E+03</rscale>
<asrwt>0</asrwt>
<pdfrwt beam="1">  1        1 0.43208234E+00 0.42587516E+03</pdfrwt>
<pdfrwt beam="2">  1       -1 0.18308354E-01 0.42587516E+03</pdfrwt>
<totfact> 0.21866608E+01</totfact>
</mgrwt>
</event>
<event>
 4    1  0.2488810E-002  0.4317498E+03  0.7818608E-02  0.1033309E+00
          1   -1    0    0  502    0  0.00000000000E+00  0.00000000000E+00  0.56756534765E+03  0.56756534765E+03  0.00000000000E+00 0.  1.
         -1   -1    0    0    0  501 -0.00000000000E+00 -0.00000000000E+00 -0.33065885243E+03  0.33065885243E+03  0.00000000000E+00 0. -1.
    9000007    1    1    2  502    0  0.65520112000E+02  0.14871100658E+03  0.81614945353E+02  0.43939600346E+03  0.40000000000E+03 0. -1.
   -9000007    1    1    2    0  501 -0.65520112000E+02 -0.14871100658E+03  0.15529154987E+03  0.45882819662E+03  0.40000000000E+03 0.  1.
<mgrwt>
<rscale>  2 0.43174975E+03</rscale>
<asrwt>0</asrwt>
<pdfrwt beam="1">  1        1 0.87317746E-01 0.43174975E+03</pdfrwt>
<pdfrwt beam="2">  1       -1 0.50870593E-01 0.43174975E+03</pdfrwt>
<totfact> 0.14989280E+02</totfact>
</mgrwt>
</event>
<event>
 4    1  0.2488810E-002  0.4310774E+03  0.7818608E-02  0.1033520E+00
         -1   -1    0    0    0  501 -0.00000000000E+00  0.00000000000E+00  0.15936132988E+03  0.15936132988E+03  0.00000000000E+00 0.  1.
          1   -1    0    0  502    0  0.00000000000E+00 -0.00000000000E+00 -0.16659348024E+04  0.16659348024E+04  0.00000000000E+00 0. -1.
    9000007    1    1    2  502    0 -0.18133439037E+02 -0.15968369977E+03 -0.12532029666E+04  0.13252718140E+04  0.40000000000E+03 0. -1.
   -9000007    1    1    2    0  501  0.18133439037E+02  0.15968369977E+03 -0.25337050596E+03  0.50002431828E+03  0.40000000000E+03 0.  1.
<mgrwt>
<rscale>  2 0.43107738E+03</rscale>
<asrwt>0</asrwt>
<pdfrwt beam="1">  1        1 0.25629767E+00 0.43107738E+03</pdfrwt>
<pdfrwt beam="2">  1       -1 0.24517127E-01 0.43107738E+03</pdfrwt>
<totfact> 0.77989222E+01</totfact>
</mgrwt>
</event>
<event>
 4    1  0.2488810E-002  0.4798073E+03  0.7818608E-02  0.1019188E+00
          2   -1    0    0  502    0  0.00000000000E+00  0.00000000000E+00  0.12685766293E+04  0.12685766293E+04  0.00000000000E+00 0. -1.
         -2   -1    0    0    0  501 -0.00000000000E+00 -0.00000000000E+00 -0.18432554708E+03  0.18432554708E+03  0.00000000000E+00 0.  1.
    9000007    1    1    2  502    0  0.14088955797E+03 -0.22442187992E+03  0.45178733099E+03  0.65903477919E+03  0.40000000000E+03 0. -1.
   -9000007    1    1    2    0  501 -0.14088955797E+03  0.22442187992E+03  0.63246375125E+03  0.79386739723E+03  0.40000000000E+03 0.  1.
<mgrwt>
<rscale>  2 0.47980730E+03</rscale>
<asrwt>0</asrwt>
<pdfrwt beam="1">  1        2 0.19516563E+00 0.47980730E+03</pdfrwt>
<pdfrwt beam="2">  1       -2 0.28357777E-01 0.47980730E+03</pdfrwt>
<totfact> 0.20321515E+02</totfact>
</mgrwt>
</event>
<event>
 4    1  0.2488810E-002  0.4067555E+03  0.7818608E-02  0.1041465E+00
          2   -1    0    0  502    0  0.00000000000E+00  0.00000000000E+00  0.42182061648E+03  0.42182061648E+03  0.00000000000E+00 0.  1.
         -2   -1    0    0    0  501 -0.00000000000E+00 -0.00000000000E+00 -0.39338263537E+03  0.39338263537E+03  0.00000000000E+00 0. -1.
    9000007    1    1    2  502    0 -0.28726883410E+02 -0.68005690540E+02  0.36298194095E+02  0.40837184853E+03  0.40000000000E+03 0.  1.
   -9000007    1    1    2    0  501  0.28726883410E+02  0.68005690540E+02 -0.78602129834E+01  0.40683140332E+03  0.40000000000E+03 0. -1.
<mgrwt>
<rscale>  2 0.40675546E+03</rscale>
<asrwt>0</asrwt>
<pdfrwt beam="1">  1        2 0.64895480E-01 0.40675546E+03</pdfrwt>
<pdfrwt beam="2">  1       -2 0.60520405E-01 0.40675546E+03</pdfrwt>
<totfact> 0.19536070E+02</totfact>
</mgrwt>
</event>
<event>
 4    1  0.2488810E-002  0.4236155E+03  0.7818608E-02  0.1035896E+00
         -2   -1    0    0    0  501 -0.00000000000E+00  0.00000000000E+00  0.46736353005E+03  0.46736353005E+03  0.00000000000E+00 0.  1.
          2   -1    0    0  502    0  0.00000000000E+00 -0.00000000000E+00 -0.42806698251E+03  0.42806698251E+03  0.00000000000E+00 0. -1.
    9000007    1    1    2  502    0  0.97365996563E+02  0.99849718976E+02  0.16335828800E+03  0.45402206326E+03  0.40000000000E+03 0.  1.
   -9000007    1    1    2    0  501 -0.97365996563E+02 -0.99849718976E+02 -0.12406174046E+03  0.44140844930E+03  0.40000000000E+03 0. -1.
<mgrwt>
<rscale>  2 0.42361551E+03</rscale>
<asrwt>0</asrwt>
<pdfrwt beam="1">  1        2 0.65856459E-01 0.42361551E+03</pdfrwt>
<pdfrwt beam="2">  1       -2 0.71902081E-01 0.42361551E+03</pdfrwt>
<totfact> 0.13284422E+02</totfact>
</mgrwt>
</event>
<event>
 4    1  0.2488810E-002  0.4280255E+03  0.7818608E-02  0.1034486E+00
         -1   -1    0    0    0  501 -0.00000000000E+00  0.00000000000E+00  0.28094204597E+03  0.28094204597E+03  0.00000000000E+00 0. -1.
          1   -1    0    0  502    0  0.00000000000E+00 -0.00000000000E+00 -0.68328533600E+03  0.68328533600E+03  0.00000000000E+00 0.  1.
    9000007    1    1    2  502    0 -0.20915694052E+02  0.15089177461E+03 -0.98195360547E+02  0.43914476285E+03  0.40000000000E+03 0. -1.
   -9000007    1    1    2    0  501  0.20915694052E+02 -0.15089177461E+03 -0.30414792948E+03  0.52508261913E+03  0.40000000000E+03 0. -1.
<mgrwt>
<rscale>  2 0.42802546E+03</rscale>
<asrwt>0</asrwt>
<pdfrwt beam="1">  1        1 0.10512082E+00 0.42802546E+03</pdfrwt>
<pdfrwt beam="2">  1       -1 0.43221854E-01 0.42802546E+03</pdfrwt>
<totfact> 0.15543026E+02</totfact>
</mgrwt>
</event>
<event>
 4    1  0.2488810E-002  0.4889857E+03  0.7818608E-02  0.1016694E+00
          1   -1    0    0  502    0  0.00000000000E+00  0.00000000000E+00  0.77384035514E+03  0.77384035514E+03  0.00000000000E+00 0. -1.
         -1   -1    0    0    0  501 -0.00000000000E+00 -0.00000000000E+00 -0.37115111792E+03  0.37115111792E+03  0.00000000000E+00 0.  1.
    9000007    1    1    2  502    0  0.17846645321E+03  0.21738608598E+03 -0.32951483310E+02  0.49009466999E+03  0.40000000000E+03 0.  1.
   -9000007    1    1    2    0  501 -0.17846645321E+03 -0.21738608598E+03  0.43564072052E+03  0.65489680307E+03  0.40000000000E+03 0. -1.
<mgrwt>
<rscale>  2 0.48898567E+03</rscale>
<asrwt>0</asrwt>
<pdfrwt beam="1">  1        1 0.11905236E+00 0.48898567E+03</pdfrwt>
<pdfrwt beam="2">  1       -1 0.57100172E-01 0.48898567E+03</pdfrwt>
<totfact> 0.75858490E+01</totfact>
</mgrwt>
</event>
<event>
 4    1  0.2488810E-002  0.4307317E+03  0.7818608E-02  0.1033629E+00
         -3   -1    0    0    0  501 -0.00000000000E+00  0.00000000000E+00  0.22562826849E+03  0.22562826849E+03  0.00000000000E+00 0. -1.
          3   -1    0    0  502    0  0.00000000000E+00 -0.00000000000E+00 -0.82289848943E+03  0.82289848943E+03  0.00000000000E+00 0.  1.
    9000007    1    1    2  502    0 -0.15799833072E+03  0.23798192707E+02 -0.28427329075E+03  0.51608248403E+03  0.40000000000E+03 0. -1.
   -9000007    1    1    2    0  501  0.15799833072E+03 -0.23798192707E+02 -0.31299693019E+03  0.53244427389E+03  0.40000000000E+03 0. -1.
<mgrwt>
<rscale>  2 0.43073173E+03</rscale>
<asrwt>0</asrwt>
<pdfrwt beam="1">  1        3 0.12659977E+00 0.43073173E+03</pdfrwt>
<pdfrwt beam="2">  1       -3 0.34712041E-01 0.43073173E+03</pdfrwt>
<totfact> 0.10631877E+01</totfact>
</mgrwt>
</event>
<event>
 4    1  0.2488810E-002  0.5330443E+03  0.7818608E-02  0.1005497E+00
         -1   -1    0    0    0  501 -0.00000000000E+00  0.00000000000E+00  0.34978381035E+03  0.34978381035E+03  0.00000000000E+00 0. -1.
          1   -1    0    0  502    0  0.00000000000E+00 -0.00000000000E+00 -0.85614235997E+03  0.85614235997E+03  0.00000000000E+00 0.  1.
    9000007    1    1    2  502    0  0.17264284890E+03  0.30713293314E+03 -0.11676232155E+03  0.54568272066E+03  0.40000000000E+03 0. -1.
   -9000007    1    1    2    0  501 -0.17264284890E+03 -0.30713293314E+03 -0.38959622807E+03  0.66024344966E+03  0.40000000000E+03 0.  1.
<mgrwt>
<rscale>  2 0.53304427E+03</rscale>
<asrwt>0</asrwt>
<pdfrwt beam="1">  1        1 0.13171421E+00 0.53304427E+03</pdfrwt>
<pdfrwt beam="2">  1       -1 0.53812894E-01 0.53304427E+03</pdfrwt>
<totfact> 0.71996185E+01</totfact>
</mgrwt>
</event>
<event>
 4    1  0.2488810E-002  0.4140717E+03  0.7818608E-02  0.1039013E+00
          1   -1    0    0  502    0  0.00000000000E+00  0.00000000000E+00  0.82599653977E+03  0.82599653977E+03  0.00000000000E+00 0. -1.
         -1   -1    0    0    0  501 -0.00000000000E+00 -0.00000000000E+00 -0.38756108305E+03  0.38756108305E+03  0.00000000000E+00 0.  1.
    9000007    1    1    2  502    0 -0.45864543505E+02 -0.96704691420E+02  0.63272302021E+03  0.75617046623E+03  0.40000000000E+03 0. -1.
   -9000007    1    1    2    0  501  0.45864543505E+02  0.96704691420E+02 -0.19428756349E+03  0.45738715660E+03  0.40000000000E+03 0.  1.
<mgrwt>
<rscale>  2 0.41407168E+03</rscale>
<asrwt>0</asrwt>
<pdfrwt beam="1">  1        1 0.12707639E+00 0.41407168E+03</pdfrwt>
<pdfrwt beam="2">  1       -1 0.59624782E-01 0.41407168E+03</pdfrwt>
<totfact> 0.63634129E+01</totfact>
</mgrwt>
</event>
<event>
 4    1  0.2488810E-002  0.4730630E+03  0.7818608E-02  0.1021059E+00
         -1   -1    0    0    0  501 -0.00000000000E+00  0.00000000000E+00  0.35796221949E+03  0.35796221949E+03  0.00000000000E+00 0. -1.
          1   -1    0    0  502    0  0.00000000000E+00 -0.00000000000E+00 -0.65458313706E+03  0.65458313706E+03  0.00000000000E+00 0.  1.
    9000007    1    1    2  502    0 -0.24597733532E+03 -0.57304396268E+02 -0.25562135669E+03  0.53770895596E+03  0.40000000000E+03 0.  1.
   -9000007    1    1    2    0  501  0.24597733532E+03  0.57304396268E+02 -0.40999560882E+02  0.47483640058E+03  0.40000000000E+03 0. -1.
<mgrwt>
<rscale>  2 0.47306304E+03</rscale>
<asrwt>0</asrwt>
<pdfrwt beam="1">  1        1 0.10070510E+00 0.47306304E+03</pdfrwt>
<pdfrwt beam="2">  1       -1 0.55071111E-01 0.47306304E+03</pdfrwt>
<totfact> 0.10477598E+02</totfact>
</mgrwt>
</event>
<event>
 4    1  0.2488810E-002  0.5189107E+03  0.7818608E-02  0.1008958E+00
          1   -1    0    0  502    0  0.00000000000E+00  0.00000000000E+00  0.61573098442E+03  0.61573098442E+03  0.00000000000E+00 0.  1.
         -1   -1    0    0    0  501 -0.00000000000E+00 -0.00000000000E+00 -0.48585155120E+03  0.48585155120E+03  0.00000000000E+00 0. -1.
    9000007    1    1    2  502    0 -0.12488557181E+03  0.30605867370E+03 -0.10914885857E+03  0.53026577404E+03  0.40000000000E+03 0. -1.
   -9000007    1    1    2    0  501  0.12488557181E+03 -0.30605867370E+03  0.23902829178E+03  0.57131676158E+03  0.40000000000E+03 0.  1.
<mgrwt>
<rscale>  2 0.51891070E+03</rscale>
<asrwt>0</asrwt>
<pdfrwt beam="1">  1        1 0.94727844E-01 0.51891070E+03</pdfrwt>
<pdfrwt beam="2">  1       -1 0.74746392E-01 0.51891070E+03</pdfrwt>
<totfact> 0.62033458E+01</totfact>
</mgrwt>
</event>
<event>
 4    1  0.2488810E-002  0.4755046E+03  0.7818608E-02  0.1020378E+00
          2   -1    0    0  502    0  0.00000000000E+00  0.00000000000E+00  0.21349302114E+04  0.21349302114E+04  0.00000000000E+00 0.  1.
         -2   -1    0    0    0  501 -0.00000000000E+00 -0.00000000000E+00 -0.11276564034E+03  0.11276564034E+03  0.00000000000E+00 0. -1.
    9000007    1    1    2  502    0  0.15401824273E+03  0.20587126367E+03  0.12882420122E+04  0.13731977564E+04  0.40000000000E+03 0.  1.
   -9000007    1    1    2    0  501 -0.15401824273E+03 -0.20587126367E+03  0.73392255892E+03  0.87449809536E+03  0.40000000000E+03 0. -1.
<mgrwt>
<rscale>  2 0.47550457E+03</rscale>
<asrwt>0</asrwt>
<pdfrwt beam="1">  1        2 0.32845077E+00 0.47550457E+03</pdfrwt>
<pdfrwt beam="2">  1       -2 0.17348562E-01 0.47550457E+03</pdfrwt>
<totfact> 0.16312986E+02</totfact>
</mgrwt>
</event>
<event>
 4    1  0.2488810E-002  0.4574870E+03  0.7818608E-02  0.1025513E+00
         -2   -1    0    0    0  501 -0.00000000000E+00  0.00000000000E+00  0.43193391649E+03  0.43193391649E+03  0.00000000000E+00 0. -1.
          2   -1    0    0  502    0  0.00000000000E+00 -0.00000000000E+00 -0.49386537897E+03  0.49386537897E+03  0.00000000000E+00 0.  1.
    9000007    1    1    2  502    0  0.16549344504E+03  0.14800760543E+03  0.32602805499E+02  0.45864722232E+03  0.40000000000E+03 0. -1.
   -9000007    1    1    2    0  501 -0.16549344504E+03 -0.14800760543E+03 -0.94534267982E+02  0.46715207314E+03  0.40000000000E+03 0.  1.
<mgrwt>
<rscale>  2 0.45748697E+03</rscale>
<asrwt>0</asrwt>
<pdfrwt beam="1">  1        2 0.75979289E-01 0.45748697E+03</pdfrwt>
<pdfrwt beam="2">  1       -2 0.66451372E-01 0.45748697E+03</pdfrwt>
<totfact> 0.13369640E+02</totfact>
</mgrwt>
</event>
<event>
 4    1  0.2488810E-002  0.5438233E+03  0.7818608E-02  0.1002934E+00
         -2   -1    0    0    0  501 -0.00000000000E+00  0.00000000000E+00  0.13259701229E+03  0.13259701229E+03  0.00000000000E+00 0. -1.
          2   -1    0    0  502    0  0.00000000000E+00 -0.00000000000E+00 -0.23015438289E+04  0.23015438289E+04  0.00000000000E+00 0.  1.
    9000007    1    1    2  502    0  0.25671475600E+03  0.26427515907E+03 -0.12984604000E+04  0.14077440237E+04  0.40000000000E+03 0. -1.
   -9000007    1    1    2    0  501 -0.25671475600E+03 -0.26427515907E+03 -0.87048641660E+03  0.10263968176E+04  0.40000000000E+03 0.  1.
<mgrwt>
<rscale>  2 0.54382334E+03</rscale>
<asrwt>0</asrwt>
<pdfrwt beam="1">  1        2 0.35408365E+00 0.54382334E+03</pdfrwt>
<pdfrwt beam="2">  1       -2 0.20399541E-01 0.54382334E+03</pdfrwt>
<totfact> 0.99023047E+01</totfact>
</mgrwt>
</event>
<event>
 4    1  0.2488810E-002  0.6180076E+03  0.7818608E-02  0.9868735E-01
         -2   -1    0    0    0  501 -0.00000000000E+00  0.00000000000E+00  0.44100968321E+03  0.44100968321E+03  0.00000000000E+00 0. -1.
          2   -1    0    0  502    0  0.00000000000E+00 -0.00000000000E+00 -0.86899866637E+03  0.86899866637E+03  0.00000000000E+00 0.  1.
    9000007    1    1    2  502    0  0.39505077797E+03 -0.25664816302E+03 -0.17579529097E+03  0.64252422607E+03  0.40000000000E+03 0. -1.
   -9000007    1    1    2    0  501 -0.39505077797E+03  0.25664816302E+03 -0.25219369219E+03  0.66748412351E+03  0.40000000000E+03 0.  1.
<mgrwt>
<rscale>  2 0.61800760E+03</rscale>
<asrwt>0</asrwt>
<pdfrwt beam="1">  1        2 0.13369210E+00 0.61800760E+03</pdfrwt>
<pdfrwt beam="2">  1       -2 0.67847644E-01 0.61800760E+03</pdfrwt>
<totfact> 0.62819370E+01</totfact>
</mgrwt>
</event>
<event>
 4    1  0.2488810E-002  0.4835921E+03  0.7818608E-02  0.1018153E+00
         -2   -1    0    0    0  501 -0.00000000000E+00  0.00000000000E+00  0.36997032060E+03  0.36997032060E+03  0.00000000000E+00 0. -1.
          2   -1    0    0  502    0  0.00000000000E+00 -0.00000000000E+00 -0.64309158838E+03  0.64309158838E+03  0.00000000000E+00 0.  1.
    9000007    1    1    2  502    0  0.10515311552E+03 -0.25060760334E+03 -0.20275693618E+03  0.52437746302E+03  0.40000000000E+03 0.  1.
   -9000007    1    1    2    0  501 -0.10515311552E+03  0.25060760334E+03 -0.70364331602E+02  0.48868444596E+03  0.40000000000E+03 0. -1.
<mgrwt>
<rscale>  2 0.48359213E+03</rscale>
<asrwt>0</asrwt>
<pdfrwt beam="1">  1        2 0.98937167E-01 0.48359213E+03</pdfrwt>
<pdfrwt beam="2">  1       -2 0.56918511E-01 0.48359213E+03</pdfrwt>
<totfact> 0.13564012E+02</totfact>
</mgrwt>
</event>
<event>
 4    1  0.2488810E-002  0.4253132E+03  0.7818608E-02  0.1035351E+00
          1   -1    0    0  502    0  0.00000000000E+00  0.00000000000E+00  0.15883329734E+04  0.15883329734E+04  0.00000000000E+00 0.  1.
         -1   -1    0    0    0  501 -0.00000000000E+00 -0.00000000000E+00 -0.11961061230E+03  0.11961061230E+03  0.00000000000E+00 0. -1.
    9000007    1    1    2  502    0 -0.90769180607E+02 -0.11248247899E+03  0.54756289981E+03  0.69333720618E+03  0.40000000000E+03 0. -1.
   -9000007    1    1    2    0  501  0.90769180607E+02  0.11248247899E+03  0.92115946127E+03  0.10146063795E+04  0.40000000000E+03 0. -1.
<mgrwt>
<rscale>  2 0.42531324E+03</rscale>
<asrwt>0</asrwt>
<pdfrwt beam="1">  1        1 0.24435890E+00 0.42531324E+03</pdfrwt>
<pdfrwt beam="2">  1       -1 0.18401634E-01 0.42531324E+03</pdfrwt>
<totfact> 0.14150545E+02</totfact>
</mgrwt>
</event>
<event>
 4    1  0.2488810E-002  0.4104401E+03  0.7818608E-02  0.1040223E+00
          3   -1    0    0  502    0  0.00000000000E+00  0.00000000000E+00  0.18080609308E+04  0.18080609308E+04  0.00000000000E+00 0. -1.
         -3   -1    0    0    0  501 -0.00000000000E+00 -0.00000000000E+00 -0.12370380222E+03  0.12370380222E+03  0.00000000000E+00 0.  1.
    9000007    1    1    2  502    0  0.51232978887E+02 -0.76395236835E+02  0.13220306322E+04  0.13842781667E+04  0.40000000000E+03 0. -1.
   -9000007    1    1    2    0  501 -0.51232978887E+02  0.76395236835E+02  0.36232649643E+03  0.54748656637E+03  0.40000000000E+03 0.  1.
<mgrwt>
<rscale>  2 0.41044007E+03</rscale>
<asrwt>0</asrwt>
<pdfrwt beam="1">  1        3 0.27816320E+00 0.41044007E+03</pdfrwt>
<pdfrwt beam="2">  1       -3 0.19031355E-01 0.41044007E+03</pdfrwt>
<totfact> 0.34933497E+00</totfact>
</mgrwt>
</event>
<event>
 4    1  0.2488810E-002  0.4279754E+03  0.7818608E-02  0.1034501E+00
          1   -1    0    0  502    0  0.00000000000E+00  0.00000000000E+00  0.48671648685E+03  0.48671648685E+03  0.00000000000E+00 0.  1.
         -1   -1    0    0    0  501 -0.00000000000E+00 -0.00000000000E+00 -0.37669413772E+03  0.37669413772E+03  0.00000000000E+00 0. -1.
    9000007    1    1    2  502    0 -0.14795628493E+03  0.35663998928E+02  0.41474569861E+02  0.42998037515E+03  0.40000000000E+03 0.  1.
   -9000007    1    1    2    0  501  0.14795628493E+03 -0.35663998928E+02  0.68547779268E+02  0.43343024942E+03  0.40000000000E+03 0. -1.
<mgrwt>
<rscale>  2 0.42797545E+03</rscale>
<asrwt>0</asrwt>
<pdfrwt beam="1">  1        1 0.74879460E-01 0.42797545E+03</pdfrwt>
<pdfrwt beam="2">  1       -1 0.57952944E-01 0.42797545E+03</pdfrwt>
<totfact> 0.14435040E+02</totfact>
</mgrwt>
</event>
<event>
 4    1  0.2488810E-002  0.4087178E+03  0.7818608E-02  0.1040802E+00
          2   -1    0    0  502    0  0.00000000000E+00  0.00000000000E+00  0.28631299828E+04  0.28631299828E+04  0.00000000000E+00 0. -1.
         -2   -1    0    0    0  501 -0.00000000000E+00 -0.00000000000E+00 -0.58750188228E+02  0.58750188228E+02  0.00000000000E+00 0.  1.
    9000007    1    1    2  502    0  0.83359989061E+02  0.10069315415E+02  0.12809134656E+04  0.13445406596E+04  0.40000000000E+03 0. -1.
   -9000007    1    1    2    0  501 -0.83359989061E+02 -0.10069315415E+02  0.15234663289E+04  0.15773395114E+04  0.40000000000E+03 0. -1.
<mgrwt>
<rscale>  2 0.40871785E+03</rscale>
<asrwt>0</asrwt>
<pdfrwt beam="1">  1        2 0.44048143E+00 0.40871785E+03</pdfrwt>
<pdfrwt beam="2">  1       -2 0.90384927E-02 0.40871785E+03</pdfrwt>
<totfact> 0.18910013E+02</totfact>
</mgrwt>
</event>
<event>
 4    1  0.2488810E-002  0.4506364E+03  0.7818608E-02  0.1027532E+00
         -3   -1    0    0    0  501 -0.00000000000E+00  0.00000000000E+00  0.12765221801E+03  0.12765221801E+03  0.00000000000E+00 0. -1.
          3   -1    0    0  502    0  0.00000000000E+00 -0.00000000000E+00 -0.22009488974E+04  0.22009488974E+04  0.00000000000E+00 0.  1.
    9000007    1    1    2  502    0  0.20603009889E+03  0.24994514645E+02 -0.42363920281E+03  0.61850085009E+03  0.40000000000E+03 0.  1.
   -9000007    1    1    2    0  501 -0.20603009889E+03 -0.24994514645E+02 -0.16496574766E+04  0.17101002653E+04  0.40000000000E+03 0. -1.
<mgrwt>
<rscale>  2 0.45063636E+03</rscale>
<asrwt>0</asrwt>
<pdfrwt beam="1">  1        3 0.33860752E+00 0.45063636E+03</pdfrwt>
<pdfrwt beam="2">  1       -3 0.19638803E-01 0.45063636E+03</pdfrwt>
<totfact> 0.15627295E+00</totfact>
</mgrwt>
</event>
<event>
 4    1  0.2488810E-002  0.5320566E+03  0.7818608E-02  0.1005735E+00
          2   -1    0    0  502    0  0.00000000000E+00  0.00000000000E+00  0.36477730517E+04  0.36477730517E+04  0.00000000000E+00 0. -1.
         -2   -1    0    0    0  501 -0.00000000000E+00 -0.00000000000E+00 -0.78940961646E+02  0.78940961646E+02  0.00000000000E+00 0.  1.
    9000007    1    1    2  502    0 -0.34399039570E+03  0.68955259263E+02  0.15419808544E+04  0.16311925623E+04  0.40000000000E+03 0.  1.
   -9000007    1    1    2    0  501  0.34399039570E+03 -0.68955259263E+02  0.20268512356E+04  0.20955214510E+04  0.40000000000E+03 0.  1.
<mgrwt>
<rscale>  2 0.53205659E+03</rscale>
<asrwt>0</asrwt>
<pdfrwt beam="1">  1        2 0.56119572E+00 0.53205659E+03</pdfrwt>
<pdfrwt beam="2">  1       -2 0.12144766E-01 0.53205659E+03</pdfrwt>
<totfact> 0.35960540E+01</totfact>
</mgrwt>
</event>
<event>
 4    1  0.2488810E-002  0.4474620E+03  0.7818608E-02  0.1028482E+00
         -1   -1    0    0    0  501 -0.00000000000E+00  0.00000000000E+00  0.45584816744E+03  0.45584816744E+03  0.00000000000E+00 0.  1.
          1   -1    0    0  502    0  0.00000000000E+00 -0.00000000000E+00 -0.43990206117E+03  0.43990206117E+03  0.00000000000E+00 0. -1.
    9000007    1    1    2  502    0  0.12575793161E+03  0.15622812089E+03  0.25476264436E+02  0.44818670570E+03  0.40000000000E+03 0. -1.
   -9000007    1    1    2    0  501 -0.12575793161E+03 -0.15622812089E+03 -0.95301581729E+01  0.44756352291E+03  0.40000000000E+03 0.  1.
<mgrwt>
<rscale>  2 0.44746205E+03</rscale>
<asrwt>0</asrwt>
<pdfrwt beam="1">  1        1 0.67677240E-01 0.44746205E+03</pdfrwt>
<pdfrwt beam="2">  1       -1 0.70130487E-01 0.44746205E+03</pdfrwt>
<totfact> 0.11304962E+02</totfact>
</mgrwt>
</event>
<event>
 4    1  0.2488810E-002  0.4992208E+03  0.7818608E-02  0.1013983E+00
          2   -1    0    0  502    0  0.00000000000E+00  0.00000000000E+00  0.71695301819E+03  0.71695301819E+03  0.00000000000E+00 0.  1.
         -2   -1    0    0    0  501 -0.00000000000E+00 -0.00000000000E+00 -0.38720553012E+03  0.38720553012E+03  0.00000000000E+00 0. -1.
    9000007    1    1    2  502    0 -0.48358591131E+01 -0.29866032948E+03  0.34141389919E+03  0.60480147858E+03  0.40000000000E+03 0. -1.
   -9000007    1    1    2    0  501  0.48358591131E+01  0.29866032948E+03 -0.11666411125E+02  0.49935706973E+03  0.40000000000E+03 0.  1.
<mgrwt>
<rscale>  2 0.49922077E+03</rscale>
<asrwt>0</asrwt>
<pdfrwt beam="1">  1        2 0.11030046E+00 0.49922077E+03</pdfrwt>
<pdfrwt beam="2">  1       -2 0.59570081E-01 0.49922077E+03</pdfrwt>
<totfact> 0.10772150E+02</totfact>
</mgrwt>
</event>
<event>
 4    1  0.2488810E-002  0.7002891E+03  0.7818608E-02  0.9716738E-01
         -2   -1    0    0    0  501 -0.00000000000E+00  0.00000000000E+00  0.22604353694E+03  0.22604353694E+03  0.00000000000E+00 0.  1.
          2   -1    0    0  502    0  0.00000000000E+00 -0.00000000000E+00 -0.21735537311E+04  0.21735537311E+04  0.00000000000E+00 0. -1.
    9000007    1    1    2  502    0  0.41468294268E+02  0.57331078294E+03 -0.10254727362E+04  0.12417726064E+04  0.40000000000E+03 0. -1.
   -9000007    1    1    2    0  501 -0.41468294268E+02 -0.57331078294E+03 -0.92203745797E+03  0.11578246617E+04  0.40000000000E+03 0.  1.
<mgrwt>
<rscale>  2 0.70028914E+03</rscale>
<asrwt>0</asrwt>
<pdfrwt beam="1">  1        2 0.33439289E+00 0.70028914E+03</pdfrwt>
<pdfrwt beam="2">  1       -2 0.34775928E-01 0.70028914E+03</pdfrwt>
<totfact> 0.43139614E+01</totfact>
</mgrwt>
</event>
<event>
 4    1  0.2488810E-002  0.4876448E+03  0.7818608E-02  0.1017055E+00
          2   -1    0    0  502    0  0.00000000000E+00  0.00000000000E+00  0.12126053493E+04  0.12126053493E+04  0.00000000000E+00 0.  1.
         -2   -1    0    0    0  501 -0.00000000000E+00 -0.00000000000E+00 -0.27652878140E+03  0.27652878140E+03  0.00000000000E+00 0. -1.
    9000007    1    1    2  502    0  0.28934075722E+02 -0.27741717386E+03  0.66499946473E+02  0.49215821844E+03  0.40000000000E+03 0. -1.
   -9000007    1    1    2    0  501 -0.28934075722E+02  0.27741717386E+03  0.86957662146E+03  0.99697591229E+03  0.40000000000E+03 0.  1.
<mgrwt>
<rscale>  2 0.48764482E+03</rscale>
<asrwt>0</asrwt>
<pdfrwt beam="1">  1        2 0.18655467E+00 0.48764482E+03</pdfrwt>
<pdfrwt beam="2">  1       -2 0.42542890E-01 0.48764482E+03</pdfrwt>
<totfact> 0.10160775E+02</totfact>
</mgrwt>
</event>
<event>
 4    1  0.2488810E-002  0.5419003E+03  0.7818608E-02  0.1003386E+00
         -1   -1    0    0    0  501 -0.00000000000E+00  0.00000000000E+00  0.26635242984E+03  0.26635242984E+03  0.00000000000E+00 0. -1.
          1   -1    0    0  502    0  0.00000000000E+00 -0.00000000000E+00 -0.11484585125E+04  0.11484585125E+04  0.00000000000E+00 0.  1.
    9000007    1    1    2  502    0 -0.27788089314E+03  0.23756721749E+03 -0.29955487457E+03  0.61918421853E+03  0.40000000000E+03 0.  1.
   -9000007    1    1    2    0  501  0.27788089314E+03 -0.23756721749E+03 -0.58255120808E+03  0.79562672381E+03  0.40000000000E+03 0. -1.
<mgrwt>
<rscale>  2 0.54190034E+03</rscale>
<asrwt>0</asrwt>
<pdfrwt beam="1">  1        1 0.17668593E+00 0.54190034E+03</pdfrwt>
<pdfrwt beam="2">  1       -1 0.40977296E-01 0.54190034E+03</pdfrwt>
<totfact> 0.71101609E+01</totfact>
</mgrwt>
</event>
<event>
 4    1  0.2488810E-002  0.6206695E+03  0.7818608E-02  0.9863428E-01
          2   -1    0    0  502    0  0.00000000000E+00  0.00000000000E+00  0.77508224368E+03  0.77508224368E+03  0.00000000000E+00 0.  1.
         -2   -1    0    0    0  501 -0.00000000000E+00 -0.00000000000E+00 -0.64481975072E+03  0.64481975072E+03  0.00000000000E+00 0. -1.
    9000007    1    1    2  502    0 -0.26051318454E+03  0.39669071123E+03 -0.27476585083E+03  0.67876867376E+03  0.40000000000E+03 0. -1.
   -9000007    1    1    2    0  501  0.26051318454E+03 -0.39669071123E+03  0.40502834379E+03  0.74113332064E+03  0.40000000000E+03 0.  1.
<mgrwt>
<rscale>  2 0.62066951E+03</rscale>
<asrwt>0</asrwt>
<pdfrwt beam="1">  1        2 0.11924342E+00 0.62066951E+03</pdfrwt>
<pdfrwt beam="2">  1       -2 0.99203038E-01 0.62066951E+03</pdfrwt>
<totfact> 0.31043475E+01</totfact>
</mgrwt>
</event>
<event>
 4    1  0.2488810E-002  0.4865584E+03  0.7818608E-02  0.1017348E+00
          2   -1    0    0  502    0  0.00000000000E+00  0.00000000000E+00  0.43532897586E+03  0.43532897586E+03  0.00000000000E+00 0.  1.
         -2   -1    0    0    0  501 -0.00000000000E+00 -0.00000000000E+00 -0.60454914588E+03  0.60454914588E+03  0.00000000000E+00 0. -1.
    9000007    1    1    2  502    0 -0.11123033569E+03  0.25370637742E+03  0.80186218180E+02  0.49312163115E+03  0.40000000000E+03 0.  1.
   -9000007    1    1    2    0  501  0.11123033569E+03 -0.25370637742E+03 -0.24940638820E+03  0.54675649059E+03  0.40000000000E+03 0. -1.
<mgrwt>
<rscale>  2 0.48655844E+03</rscale>
<asrwt>0</asrwt>
<pdfrwt beam="1">  1        2 0.66973688E-01 0.48655844E+03</pdfrwt>
<pdfrwt beam="2">  1       -2 0.93007561E-01 0.48655844E+03</pdfrwt>
<totfact> 0.72830158E+01</totfact>
</mgrwt>
</event>
<event>
 4    1  0.2488810E-002  0.4966617E+03  0.7818608E-02  0.1014654E+00
          2   -1    0    0  502    0  0.00000000000E+00  0.00000000000E+00  0.66296234392E+03  0.66296234392E+03  0.00000000000E+00 0. -1.
         -2   -1    0    0    0  501 -0.00000000000E+00 -0.00000000000E+00 -0.40095965982E+03  0.40095965982E+03  0.00000000000E+00 0.  1.
    9000007    1    1    2  502    0 -0.26700407978E+03 -0.12402293547E+03  0.27377563173E+03  0.56712076639E+03  0.40000000000E+03 0. -1.
   -9000007    1    1    2    0  501  0.26700407978E+03  0.12402293547E+03 -0.11772947633E+02  0.49680123735E+03  0.40000000000E+03 0.  1.
<mgrwt>
<rscale>  2 0.49666172E+03</rscale>
<asrwt>0</asrwt>
<pdfrwt beam="1">  1        2 0.10199421E+00 0.49666172E+03</pdfrwt>
<pdfrwt beam="2">  1       -2 0.61686102E-01 0.49666172E+03</pdfrwt>
<totfact> 0.11032729E+02</totfact>
</mgrwt>
</event>
<event>
 4    1  0.2488810E-002  0.4794537E+03  0.7818608E-02  0.1019285E+00
         -2   -1    0    0    0  501 -0.00000000000E+00  0.00000000000E+00  0.33995803451E+03  0.33995803451E+03  0.00000000000E+00 0.  1.
          2   -1    0    0  502    0  0.00000000000E+00 -0.00000000000E+00 -0.72474025097E+03  0.72474025097E+03  0.00000000000E+00 0. -1.
    9000007    1    1    2  502    0  0.42230000824E+02  0.26094531105E+03 -0.54604723633E+02  0.48255311021E+03  0.40000000000E+03 0. -1.
   -9000007    1    1    2    0  501 -0.42230000824E+02 -0.26094531105E+03 -0.33017749283E+03  0.58214517528E+03  0.40000000000E+03 0. -1.
<mgrwt>
<rscale>  2 0.47945368E+03</rscale>
<asrwt>0</asrwt>
<pdfrwt beam="1">  1        2 0.11149850E+00 0.47945368E+03</pdfrwt>
<pdfrwt beam="2">  1       -2 0.52301237E-01 0.47945368E+03</pdfrwt>
<totfact> 0.13932490E+02</totfact>
</mgrwt>
</event>
<event>
 4    1  0.2488810E-002  0.4176019E+03  0.7818608E-02  0.1037850E+00
         -2   -1    0    0    0  501 -0.00000000000E+00  0.00000000000E+00  0.15109632927E+03  0.15109632927E+03  0.00000000000E+00 0. -1.
          2   -1    0    0  502    0  0.00000000000E+00 -0.00000000000E+00 -0.13872234550E+04  0.13872234550E+04  0.00000000000E+00 0.  1.
    9000007    1    1    2  502    0 -0.85499764180E+02 -0.84149608371E+02 -0.30280418827E+03  0.51583111839E+03  0.40000000000E+03 0. -1.
   -9000007    1    1    2    0  501  0.85499764180E+02  0.84149608371E+02 -0.93332293746E+03  0.10224886659E+04  0.40000000000E+03 0.  1.
<mgrwt>
<rscale>  2 0.41760192E+03</rscale>
<asrwt>0</asrwt>
<pdfrwt beam="1">  1        2 0.21341900E+00 0.41760192E+03</pdfrwt>
<pdfrwt beam="2">  1       -2 0.23245589E-01 0.41760192E+03</pdfrwt>
<totfact> 0.25072230E+02</totfact>
</mgrwt>
</event>
<event>
 4    1  0.2488810E-002  0.4020779E+03  0.7818608E-02  0.1043063E+00
         -2   -1    0    0    0  501 -0.00000000000E+00  0.00000000000E+00  0.36893604722E+03  0.36893604722E+03  0.00000000000E+00 0.  1.
          2   -1    0    0  502    0  0.00000000000E+00 -0.00000000000E+00 -0.45877816775E+03  0.45877816775E+03  0.00000000000E+00 0. -1.
    9000007    1    1    2  502    0 -0.31805425182E+02  0.25593377208E+02 -0.13257790951E+03  0.42337159579E+03  0.40000000000E+03 0. -1.
   -9000007    1    1    2    0  501  0.31805425182E+02 -0.25593377208E+02  0.42735788977E+02  0.40434261918E+03  0.40000000000E+03 0.  1.
<mgrwt>
<rscale>  2 0.40207786E+03</rscale>
<asrwt>0</asrwt>
<pdfrwt beam="1">  1        2 0.70581256E-01 0.40207786E+03</pdfrwt>
<pdfrwt beam="2">  1       -2 0.56759392E-01 0.40207786E+03</pdfrwt>
<totfact> 0.20331370E+02</totfact>
</mgrwt>
</event>
<event>
 4    1  0.2488810E-002  0.4149074E+03  0.7818608E-02  0.1038737E+00
         -1   -1    0    0    0  501 -0.00000000000E+00  0.00000000000E+00  0.14201992524E+03  0.14201992524E+03  0.00000000000E+00 0. -1.
          1   -1    0    0  502    0  0.00000000000E+00 -0.00000000000E+00 -0.22619213913E+04  0.22619213913E+04  0.00000000000E+00 0.  1.
    9000007    1    1    2  502    0  0.72076198900E+02  0.83385855632E+02 -0.18788006944E+04  0.19240686653E+04  0.40000000000E+03 0.  1.
   -9000007    1    1    2    0  501 -0.72076198900E+02 -0.83385855632E+02 -0.24110077168E+03  0.47987265131E+03  0.40000000000E+03 0. -1.
<mgrwt>
<rscale>  2 0.41490743E+03</rscale>
<asrwt>0</asrwt>
<pdfrwt beam="1">  1        1 0.34798788E+00 0.41490743E+03</pdfrwt>
<pdfrwt beam="2">  1       -1 0.21849221E-01 0.41490743E+03</pdfrwt>
<totfact> 0.38358508E+01</totfact>
</mgrwt>
</event>
<event>
 4    1  0.2488810E-002  0.4377318E+03  0.7818608E-02  0.1031445E+00
          1   -1    0    0  502    0  0.00000000000E+00  0.00000000000E+00  0.57095807664E+03  0.57095807664E+03  0.00000000000E+00 0. -1.
         -1   -1    0    0    0  501 -0.00000000000E+00 -0.00000000000E+00 -0.34210869609E+03  0.34210869609E+03  0.00000000000E+00 0.  1.
    9000007    1    1    2  502    0 -0.11304409601E+03 -0.13722318507E+03  0.17743217189E+03  0.47232546595E+03  0.40000000000E+03 0. -1.
   -9000007    1    1    2    0  501  0.11304409601E+03  0.13722318507E+03  0.51417208661E+02  0.44074130679E+03  0.40000000000E+03 0.  1.
<mgrwt>
<rscale>  2 0.43773185E+03</rscale>
<asrwt>0</asrwt>
<pdfrwt beam="1">  1        1 0.87839704E-01 0.43773185E+03</pdfrwt>
<pdfrwt beam="2">  1       -1 0.52632107E-01 0.43773185E+03</pdfrwt>
<totfact> 0.13931854E+02</totfact>
</mgrwt>
</event>
<event>
 4    1  0.2488810E-002  0.4193489E+03  0.7818608E-02  0.1037278E+00
         -2   -1    0    0    0  501 -0.00000000000E+00  0.00000000000E+00  0.10051923158E+04  0.10051923158E+04  0.00000000000E+00 0. -1.
          2   -1    0    0  502    0  0.00000000000E+00 -0.00000000000E+00 -0.22795322476E+03  0.22795322476E+03  0.00000000000E+00 0.  1.
    9000007    1    1    2  502    0  0.26628219945E+01 -0.12588240853E+03  0.68594540736E+03  0.80397423670E+03  0.40000000000E+03 0. -1.
   -9000007    1    1    2    0  501 -0.26628219945E+01  0.12588240853E+03  0.91293683703E+02  0.42917130389E+03  0.40000000000E+03 0.  1.
<mgrwt>
<rscale>  2 0.41934887E+03</rscale>
<asrwt>0</asrwt>
<pdfrwt beam="1">  1        2 0.35069727E-01 0.41934887E+03</pdfrwt>
<pdfrwt beam="2">  1       -2 0.15464497E+00 0.41934887E+03</pdfrwt>
<totfact> 0.42777784E+01</totfact>
</mgrwt>
</event>
<event>
 4    1  0.2488810E-002  0.4036854E+03  0.7818608E-02  0.1042511E+00
         -2   -1    0    0    0  501 -0.00000000000E+00  0.00000000000E+00  0.19999174952E+03  0.19999174952E+03  0.00000000000E+00 0. -1.
          2   -1    0    0  502    0  0.00000000000E+00 -0.00000000000E+00 -0.10525542830E+04  0.10525542830E+04  0.00000000000E+00 0.  1.
    9000007    1    1    2  502    0  0.40692625947E+02 -0.36139115588E+02 -0.72390401722E+03  0.82885399899E+03  0.40000000000E+03 0.  1.
   -9000007    1    1    2    0  501 -0.40692625947E+02  0.36139115588E+02 -0.12865851627E+03  0.42369203355E+03  0.40000000000E+03 0. -1.
<mgrwt>
<rscale>  2 0.40368543E+03</rscale>
<asrwt>0</asrwt>
<pdfrwt beam="1">  1        2 0.16193143E+00 0.40368543E+03</pdfrwt>
<pdfrwt beam="2">  1       -2 0.30767961E-01 0.40368543E+03</pdfrwt>
<totfact> 0.23637535E+02</totfact>
</mgrwt>
</event>
<event>
 4    1  0.2488810E-002  0.4657178E+03  0.7818608E-02  0.1023136E+00
          1   -1    0    0  502    0  0.00000000000E+00  0.00000000000E+00  0.51973438718E+03  0.51973438718E+03  0.00000000000E+00 0.  1.
         -1   -1    0    0    0  501 -0.00000000000E+00 -0.00000000000E+00 -0.43164916537E+03  0.43164916537E+03  0.00000000000E+00 0. -1.
    9000007    1    1    2  502    0 -0.97384706001E+02 -0.21773671117E+03 -0.42642291505E+02  0.46766592925E+03  0.40000000000E+03 0.  1.
   -9000007    1    1    2    0  501  0.97384706001E+02  0.21773671117E+03  0.13072751331E+03  0.48371762330E+03  0.40000000000E+03 0. -1.
<mgrwt>
<rscale>  2 0.46571779E+03</rscale>
<asrwt>0</asrwt>
<pdfrwt beam="1">  1        1 0.79959137E-01 0.46571779E+03</pdfrwt>
<pdfrwt beam="2">  1       -1 0.66407563E-01 0.46571779E+03</pdfrwt>
<totfact> 0.10063195E+02</totfact>
</mgrwt>
</event>
<event>
 4    1  0.2488810E-002  0.4030305E+03  0.7818608E-02  0.1042735E+00
         -2   -1    0    0    0  501 -0.00000000000E+00  0.00000000000E+00  0.18195666801E+03  0.18195666801E+03  0.00000000000E+00 0.  1.
          2   -1    0    0  502    0  0.00000000000E+00 -0.00000000000E+00 -0.20677211634E+04  0.20677211634E+04  0.00000000000E+00 0. -1.
    9000007    1    1    2  502    0 -0.49046684624E+02 -0.52910119964E+01 -0.17908245914E+04  0.18356160517E+04  0.40000000000E+03 0. -1.
   -9000007    1    1    2    0  501  0.49046684624E+02  0.52910119964E+01 -0.94939904033E+02  0.41406177976E+03  0.40000000000E+03 0.  1.
<mgrwt>
<rscale>  2 0.40303049E+03</rscale>
<asrwt>0</asrwt>
<pdfrwt beam="1">  1        2 0.31811092E+00 0.40303049E+03</pdfrwt>
<pdfrwt beam="2">  1       -2 0.27993336E-01 0.40303049E+03</pdfrwt>
<totfact> 0.77486604E+01</totfact>
</mgrwt>
</event>
<event>
 4    1  0.2488810E-002  0.5048050E+03  0.7818608E-02  0.1012532E+00
          2   -1    0    0  502    0  0.00000000000E+00  0.00000000000E+00  0.11530096692E+04  0.11530096692E+04  0.00000000000E+00 0. -1.
         -2   -1    0    0    0  501 -0.00000000000E+00 -0.00000000000E+00 -0.26251353975E+03  0.26251353975E+03  0.00000000000E+00 0.  1.
    9000007    1    1    2  502    0 -0.27825297575E+03 -0.13192192164E+03  0.16383312002E+03  0.53072535565E+03  0.40000000000E+03 0. -1.
   -9000007    1    1    2    0  501  0.27825297575E+03  0.13192192164E+03  0.72666300942E+03  0.88479785329E+03  0.40000000000E+03 0.  1.
<mgrwt>
<rscale>  2 0.50480502E+03</rscale>
<asrwt>0</asrwt>
<pdfrwt beam="1">  1        2 0.17738610E+00 0.50480502E+03</pdfrwt>
<pdfrwt beam="2">  1       -2 0.40386699E-01 0.50480502E+03</pdfrwt>
<totfact> 0.12163545E+02</totfact>
</mgrwt>
</event>
<event>
 4    1  0.2488810E-002  0.4002028E+03  0.7818608E-02  0.1043709E+00
         -2   -1    0    0    0  501 -0.00000000000E+00  0.00000000000E+00  0.15316314414E+04  0.15316314414E+04  0.00000000000E+00 0.  1.
          2   -1    0    0  502    0  0.00000000000E+00 -0.00000000000E+00 -0.11801433791E+03  0.11801433791E+03  0.00000000000E+00 0. -1.
    9000007    1    1    2  502    0 -0.12452824199E+02 -0.26903554997E+01  0.42840989910E+03  0.58625707031E+03  0.40000000000E+03 0. -1.
   -9000007    1    1    2    0  501  0.12452824199E+02  0.26903554997E+01  0.98520720436E+03  0.10633887090E+04  0.40000000000E+03 0.  1.
<mgrwt>
<rscale>  2 0.40020284E+03</rscale>
<asrwt>0</asrwt>
<pdfrwt beam="1">  1        2 0.18156053E-01 0.40020284E+03</pdfrwt>
<pdfrwt beam="2">  1       -2 0.23563559E+00 0.40020284E+03</pdfrwt>
<totfact> 0.26626599E+01</totfact>
</mgrwt>
</event>
<event>
 4    1  0.2488810E-002  0.4020435E+03  0.7818608E-02  0.1043074E+00
          2   -1    0    0  502    0  0.00000000000E+00  0.00000000000E+00  0.79550796504E+03  0.79550796504E+03  0.00000000000E+00 0. -1.
         -2   -1    0    0    0  501 -0.00000000000E+00 -0.00000000000E+00 -0.27503536525E+03  0.27503536525E+03  0.00000000000E+00 0.  1.
    9000007    1    1    2  502    0 -0.47848831482E+01  0.40200426548E+02  0.53381386475E+03  0.66827854343E+03  0.40000000000E+03 0. -1.
   -9000007    1    1    2    0  501  0.47848831482E+01 -0.40200426548E+02 -0.13341264968E+02  0.40226478687E+03  0.40000000000E+03 0.  1.
<mgrwt>
<rscale>  2 0.40204349E+03</rscale>
<asrwt>0</asrwt>
<pdfrwt beam="1">  1        2 0.12238584E+00 0.40204349E+03</pdfrwt>
<pdfrwt beam="2">  1       -2 0.42313133E-01 0.40204349E+03</pdfrwt>
<totfact> 0.19010952E+02</totfact>
</mgrwt>
</event>
<event>
 4    1  0.2488810E-002  0.5999208E+03  0.7818608E-02  0.9905570E-01
          2   -1    0    0  502    0  0.00000000000E+00  0.00000000000E+00  0.15203127718E+04  0.15203127718E+04  0.00000000000E+00 0.  1.
         -2   -1    0    0    0  501 -0.00000000000E+00 -0.00000000000E+00 -0.25506498733E+03  0.25506498733E+03  0.00000000000E+00 0. -1.
    9000007    1    1    2  502    0  0.44657113883E+03 -0.21890479898E+02  0.87061749362E+03  0.10572983474E+04  0.40000000000E+03 0.  1.
   -9000007    1    1    2    0  501 -0.44657113883E+03  0.21890479898E+02  0.39463029084E+03  0.71807941176E+03  0.40000000000E+03 0. -1.
<mgrwt>
<rscale>  2 0.59992081E+03</rscale>
<asrwt>0</asrwt>
<pdfrwt beam="1">  1        2 0.23389427E+00 0.59992081E+03</pdfrwt>
<pdfrwt beam="2">  1       -2 0.39240768E-01 0.59992081E+03</pdfrwt>
<totfact> 0.78684178E+01</totfact>
</mgrwt>
</event>
<event>
 4    1  0.2488810E-002  0.5028439E+03  0.7818608E-02  0.1013039E+00
          1   -1    0    0  502    0  0.00000000000E+00  0.00000000000E+00  0.24648003431E+04  0.24648003431E+04  0.00000000000E+00 0. -1.
         -1   -1    0    0    0  501 -0.00000000000E+00 -0.00000000000E+00 -0.15471679372E+03  0.15471679372E+03  0.00000000000E+00 0.  1.
    9000007    1    1    2  502    0 -0.14390221510E+02  0.30437633991E+03  0.19153208245E+04  0.19802287482E+04  0.40000000000E+03 0. -1.
   -9000007    1    1    2    0  501  0.14390221510E+02 -0.30437633991E+03  0.39476272489E+03  0.63928838855E+03  0.40000000000E+03 0.  1.
<mgrwt>
<rscale>  2 0.50284395E+03</rscale>
<asrwt>0</asrwt>
<pdfrwt beam="1">  1        1 0.37920002E+00 0.50284395E+03</pdfrwt>
<pdfrwt beam="2">  1       -1 0.23802585E-01 0.50284395E+03</pdfrwt>
<totfact> 0.23844955E+01</totfact>
</mgrwt>
</event>
<event>
 4    1  0.2488810E-002  0.4254238E+03  0.7818608E-02  0.1035315E+00
         -1   -1    0    0    0  501 -0.00000000000E+00  0.00000000000E+00  0.17682166263E+03  0.17682166263E+03  0.00000000000E+00 0. -1.
          1   -1    0    0  502    0  0.00000000000E+00 -0.00000000000E+00 -0.13393275115E+04  0.13393275115E+04  0.00000000000E+00 0.  1.
    9000007    1    1    2  502    0 -0.44933911830E+02  0.13771826134E+03 -0.21315714240E+03  0.47583751774E+03  0.40000000000E+03 0. -1.
   -9000007    1    1    2    0  501  0.44933911830E+02 -0.13771826134E+03 -0.94934870648E+03  0.10403116564E+04  0.40000000000E+03 0.  1.
<mgrwt>
<rscale>  2 0.42542376E+03</rscale>
<asrwt>0</asrwt>
<pdfrwt beam="1">  1        1 0.20605039E+00 0.42542376E+03</pdfrwt>
<pdfrwt beam="2">  1       -1 0.27203332E-01 0.42542376E+03</pdfrwt>
<totfact> 0.10872976E+02</totfact>
</mgrwt>
</event>
<event>
 4    1  0.2488810E-002  0.4820110E+03  0.7818608E-02  0.1018584E+00
          2   -1    0    0  502    0  0.00000000000E+00  0.00000000000E+00  0.10006996271E+04  0.10006996271E+04  0.00000000000E+00 0. -1.
         -2   -1    0    0    0  501 -0.00000000000E+00 -0.00000000000E+00 -0.25596910518E+03  0.25596910518E+03  0.00000000000E+00 0.  1.
    9000007    1    1    2  502    0 -0.57496322663E+02  0.26273329253E+03  0.56394849312E+03  0.74187095442E+03  0.40000000000E+03 0. -1.
   -9000007    1    1    2    0  501  0.57496322663E+02 -0.26273329253E+03  0.18078202875E+03  0.51479777781E+03  0.40000000000E+03 0.  1.
<mgrwt>
<rscale>  2 0.48201101E+03</rscale>
<asrwt>0</asrwt>
<pdfrwt beam="1">  1        2 0.15395379E+00 0.48201101E+03</pdfrwt>
<pdfrwt beam="2">  1       -2 0.39379863E-01 0.48201101E+03</pdfrwt>
<totfact> 0.15851883E+02</totfact>
</mgrwt>
</event>
<event>
 4    1  0.2488810E-002  0.4712311E+03  0.7818608E-02  0.1021573E+00
          4   -1    0    0  502    0  0.00000000000E+00  0.00000000000E+00  0.88573888493E+03  0.88573888493E+03  0.00000000000E+00 0.  1.
         -4   -1    0    0    0  501 -0.00000000000E+00 -0.00000000000E+00 -0.48628064904E+03  0.48628064904E+03  0.00000000000E+00 0. -1.
    9000007    1    1    2  502    0  0.13215218704E+03  0.21117424144E+03 -0.27774784870E+03  0.54699417570E+03  0.40000000000E+03 0. -1.
   -9000007    1    1    2    0  501 -0.13215218704E+03 -0.21117424144E+03  0.67720608459E+03  0.82502535828E+03  0.40000000000E+03 0.  1.
<mgrwt>
<rscale>  2 0.47123111E+03</rscale>
<asrwt>0</asrwt>
<pdfrwt beam="1">  1        4 0.13626752E+00 0.47123111E+03</pdfrwt>
<pdfrwt beam="2">  1       -4 0.74812407E-01 0.47123111E+03</pdfrwt>
<totfact> 0.12098661E+00</totfact>
</mgrwt>
</event>
<event>
 4    1  0.2488810E-002  0.5557001E+03  0.7818608E-02  0.1000183E+00
          1   -1    0    0  502    0  0.00000000000E+00  0.00000000000E+00  0.19333542043E+04  0.19333542043E+04  0.00000000000E+00 0.  1.
         -1   -1    0    0    0  501 -0.00000000000E+00 -0.00000000000E+00 -0.17725897474E+03  0.17725897474E+03  0.00000000000E+00 0. -1.
    9000007    1    1    2  502    0 -0.32121885115E+03  0.21359080174E+03  0.54613006288E+03  0.77914095419E+03  0.40000000000E+03 0. -1.
   -9000007    1    1    2    0  501  0.32121885115E+03 -0.21359080174E+03  0.12099651667E+04  0.13314722248E+04  0.40000000000E+03 0.  1.
<mgrwt>
<rscale>  2 0.55570008E+03</rscale>
<asrwt>0</asrwt>
<pdfrwt beam="1">  1        1 0.29743909E+00 0.55570008E+03</pdfrwt>
<pdfrwt beam="2">  1       -1 0.27270613E-01 0.55570008E+03</pdfrwt>
<totfact> 0.42366690E+01</totfact>
</mgrwt>
</event>
<event>
 4    1  0.2488810E-002  0.4304050E+03  0.7818608E-02  0.1033732E+00
          1   -1    0    0  502    0  0.00000000000E+00  0.00000000000E+00  0.78690328086E+03  0.78690328086E+03  0.00000000000E+00 0. -1.
         -1   -1    0    0    0  501 -0.00000000000E+00 -0.00000000000E+00 -0.24722237290E+03  0.24722237290E+03  0.00000000000E+00 0.  1.
    9000007    1    1    2  502    0  0.15821396800E+03 -0.14723700135E+02  0.38284220111E+03  0.57603524021E+03  0.40000000000E+03 0. -1.
   -9000007    1    1    2    0  501 -0.15821396800E+03  0.14723700135E+02  0.15683870685E+03  0.45809041354E+03  0.40000000000E+03 0. -1.
<mgrwt>
<rscale>  2 0.43040498E+03</rscale>
<asrwt>0</asrwt>
<pdfrwt beam="1">  1        1 0.12106204E+00 0.43040498E+03</pdfrwt>
<pdfrwt beam="2">  1       -1 0.38034211E-01 0.43040498E+03</pdfrwt>
<totfact> 0.15803391E+02</totfact>
</mgrwt>
</event>
<event>
 4    1  0.2488810E-002  0.4592314E+03  0.7818608E-02  0.1025004E+00
          2   -1    0    0  502    0  0.00000000000E+00  0.00000000000E+00  0.15449270073E+04  0.15449270073E+04  0.00000000000E+00 0.  1.
         -2   -1    0    0    0  501 -0.00000000000E+00 -0.00000000000E+00 -0.19354407101E+03  0.19354407101E+03  0.00000000000E+00 0. -1.
    9000007    1    1    2  502    0  0.15231419014E+03 -0.16641476055E+03  0.20381772110E+03  0.50242924724E+03  0.40000000000E+03 0. -1.
   -9000007    1    1    2    0  501 -0.15231419014E+03  0.16641476055E+03  0.11475652152E+04  0.12360418311E+04  0.40000000000E+03 0.  1.
<mgrwt>
<rscale>  2 0.45923141E+03</rscale>
<asrwt>0</asrwt>
<pdfrwt beam="1">  1        2 0.23768107E+00 0.45923141E+03</pdfrwt>
<pdfrwt beam="2">  1       -2 0.29776012E-01 0.45923141E+03</pdfrwt>
<totfact> 0.13076312E+02</totfact>
</mgrwt>
</event>
<event>
 4    1  0.2488810E-002  0.4298524E+03  0.7818608E-02  0.1033907E+00
          3   -1    0    0  502    0  0.00000000000E+00  0.00000000000E+00  0.17229209591E+04  0.17229209591E+04  0.00000000000E+00 0.  1.
         -3   -1    0    0    0  501 -0.00000000000E+00 -0.00000000000E+00 -0.12601902299E+03  0.12601902299E+03  0.00000000000E+00 0. -1.
    9000007    1    1    2  502    0  0.61038321631E+02  0.14507729418E+03  0.11552830641E+04  0.12326605600E+04  0.40000000000E+03 0.  1.
   -9000007    1    1    2    0  501 -0.61038321631E+02 -0.14507729418E+03  0.44161887206E+03  0.61627942214E+03  0.40000000000E+03 0. -1.
<mgrwt>
<rscale>  2 0.42985241E+03</rscale>
<asrwt>0</asrwt>
<pdfrwt beam="1">  1        3 0.26506475E+00 0.42985241E+03</pdfrwt>
<pdfrwt beam="2">  1       -3 0.19387543E-01 0.42985241E+03</pdfrwt>
<totfact> 0.39818858E+00</totfact>
</mgrwt>
</event>
<event>
 4    1  0.2488810E-002  0.4298415E+03  0.7818608E-02  0.1033910E+00
         -2   -1    0    0    0  501 -0.00000000000E+00  0.00000000000E+00  0.88975182132E+02  0.88975182132E+02  0.00000000000E+00 0. -1.
          2   -1    0    0  502    0  0.00000000000E+00 -0.00000000000E+00 -0.32728621274E+04  0.32728621274E+04  0.00000000000E+00 0.  1.
    9000007    1    1    2  502    0 -0.24327228708E+02  0.15547318766E+03 -0.57569389438E+03  0.71846168037E+03  0.40000000000E+03 0. -1.
   -9000007    1    1    2    0  501  0.24327228708E+02 -0.15547318766E+03 -0.26081930509E+04  0.26433756292E+04  0.40000000000E+03 0.  1.
<mgrwt>
<rscale>  2 0.42984151E+03</rscale>
<asrwt>0</asrwt>
<pdfrwt beam="1">  1        2 0.50351721E+00 0.42984151E+03</pdfrwt>
<pdfrwt beam="2">  1       -2 0.13688491E-01 0.42984151E+03</pdfrwt>
<totfact> 0.53895238E+01</totfact>
</mgrwt>
</event>
<event>
 4    1  0.2488810E-002  0.4379130E+03  0.7818608E-02  0.1031389E+00
          2   -1    0    0  502    0  0.00000000000E+00  0.00000000000E+00  0.10270547217E+04  0.10270547217E+04  0.00000000000E+00 0.  1.
         -2   -1    0    0    0  501 -0.00000000000E+00 -0.00000000000E+00 -0.18763529923E+03  0.18763529923E+03  0.00000000000E+00 0. -1.
    9000007    1    1    2  502    0  0.16488591686E+03  0.67678648961E+02  0.46221637637E+03  0.63671951729E+03  0.40000000000E+03 0.  1.
   -9000007    1    1    2    0  501 -0.16488591686E+03 -0.67678648961E+02  0.37720304614E+03  0.57797050368E+03  0.40000000000E+03 0.  1.
<mgrwt>
<rscale>  2 0.43791297E+03</rscale>
<asrwt>0</asrwt>
<pdfrwt beam="1">  1        2 0.15800841E+00 0.43791297E+03</pdfrwt>
<pdfrwt beam="2">  1       -2 0.28866970E-01 0.43791297E+03</pdfrwt>
<totfact> 0.27460610E+02</totfact>
</mgrwt>
</event>
<event>
 4    1  0.2488810E-002  0.7251640E+03  0.7818608E-02  0.9675140E-01
          1   -1    0    0  502    0  0.00000000000E+00  0.00000000000E+00  0.11398383689E+04  0.11398383689E+04  0.00000000000E+00 0.  1.
         -1   -1    0    0    0  501 -0.00000000000E+00 -0.00000000000E+00 -0.67369906355E+03  0.67369906355E+03  0.00000000000E+00 0. -1.
    9000007    1    1    2  502    0  0.24800007178E+03 -0.55168728707E+03  0.74215442548E+03  0.10376203976E+04  0.40000000000E+03 0.  1.
   -9000007    1    1    2    0  501 -0.24800007178E+03  0.55168728707E+03 -0.27601512017E+03  0.77591703479E+03  0.40000000000E+03 0. -1.
<mgrwt>
<rscale>  2 0.72516405E+03</rscale>
<asrwt>0</asrwt>
<pdfrwt beam="1">  1        1 0.17535975E+00 0.72516405E+03</pdfrwt>
<pdfrwt beam="2">  1       -1 0.10364601E+00 0.72516405E+03</pdfrwt>
<totfact> 0.10773171E+01</totfact>
</mgrwt>
</event>
<event>
 4    1  0.2488810E-002  0.4028944E+03  0.7818608E-02  0.1042782E+00
          1   -1    0    0  502    0  0.00000000000E+00  0.00000000000E+00  0.28368467427E+03  0.28368467427E+03  0.00000000000E+00 0. -1.
         -1   -1    0    0    0  501 -0.00000000000E+00 -0.00000000000E+00 -0.57995422305E+03  0.57995422305E+03  0.00000000000E+00 0.  1.
    9000007    1    1    2  502    0  0.32943619528E+02  0.35193872262E+02 -0.98197842725E+02  0.41468868688E+03  0.40000000000E+03 0. -1.
   -9000007    1    1    2    0  501 -0.32943619528E+02 -0.35193872262E+02 -0.19807170605E+03  0.44895021044E+03  0.40000000000E+03 0.  1.
<mgrwt>
<rscale>  2 0.40289439E+03</rscale>
<asrwt>0</asrwt>
<pdfrwt beam="1">  1        1 0.43643796E-01 0.40289439E+03</pdfrwt>
<pdfrwt beam="2">  1       -1 0.89223727E-01 0.40289439E+03</pdfrwt>
<totfact> 0.12100519E+02</totfact>
</mgrwt>
</event>
<event>
 4    1  0.2488810E-002  0.4075325E+03  0.7818608E-02  0.1041202E+00
          2   -1    0    0  502    0  0.00000000000E+00  0.00000000000E+00  0.12872835816E+04  0.12872835816E+04  0.00000000000E+00 0. -1.
         -2   -1    0    0    0  501 -0.00000000000E+00 -0.00000000000E+00 -0.17426095369E+03  0.17426095369E+03  0.00000000000E+00 0.  1.
    9000007    1    1    2  502    0 -0.70356750259E+02 -0.33654877529E+02  0.92886666694E+03  0.10143352543E+04  0.40000000000E+03 0. -1.
   -9000007    1    1    2    0  501  0.70356750259E+02  0.33654877529E+02  0.18415596099E+03  0.44720928105E+03  0.40000000000E+03 0.  1.
<mgrwt>
<rscale>  2 0.40753248E+03</rscale>
<asrwt>0</asrwt>
<pdfrwt beam="1">  1        2 0.19804362E+00 0.40753248E+03</pdfrwt>
<pdfrwt beam="2">  1       -2 0.26809378E-01 0.40753248E+03</pdfrwt>
<totfact> 0.22135369E+02</totfact>
</mgrwt>
</event>
<event>
 4    1  0.2488810E-002  0.5257656E+03  0.7818608E-02  0.1007264E+00
          1   -1    0    0  502    0  0.00000000000E+00  0.00000000000E+00  0.35788972796E+03  0.35788972796E+03  0.00000000000E+00 0. -1.
         -1   -1    0    0    0  501 -0.00000000000E+00 -0.00000000000E+00 -0.77342665311E+03  0.77342665311E+03  0.00000000000E+00 0.  1.
    9000007    1    1    2  502    0 -0.33339562486E+03 -0.72641993207E+02 -0.22850392422E+03  0.57327440658E+03  0.40000000000E+03 0. -1.
   -9000007    1    1    2    0  501  0.33339562486E+03  0.72641993207E+02 -0.18703300093E+03  0.55804197449E+03  0.40000000000E+03 0.  1.
<mgrwt>
<rscale>  2 0.52576563E+03</rscale>
<asrwt>0</asrwt>
<pdfrwt beam="1">  1        1 0.55059959E-01 0.52576563E+03</pdfrwt>
<pdfrwt beam="2">  1       -1 0.11898871E+00 0.52576563E+03</pdfrwt>
<totfact> 0.45875063E+01</totfact>
</mgrwt>
</event>
<event>
 4    1  0.2488810E-002  0.4322464E+03  0.7818608E-02  0.1033153E+00
         -2   -1    0    0    0  501 -0.00000000000E+00  0.00000000000E+00  0.63593889788E+03  0.63593889788E+03  0.00000000000E+00 0. -1.
          2   -1    0    0  502    0  0.00000000000E+00 -0.00000000000E+00 -0.71432516783E+03  0.71432516783E+03  0.00000000000E+00 0.  1.
    9000007    1    1    2  502    0  0.88519045825E+02  0.13784530970E+03 -0.55720329204E+03  0.70520384254E+03  0.40000000000E+03 0.  1.
   -9000007    1    1    2    0  501 -0.88519045825E+02 -0.13784530970E+03  0.47881702208E+03  0.64506022317E+03  0.40000000000E+03 0. -1.
<mgrwt>
<rscale>  2 0.43224640E+03</rscale>
<asrwt>0</asrwt>
<pdfrwt beam="1">  1        2 0.10989618E+00 0.43224640E+03</pdfrwt>
<pdfrwt beam="2">  1       -2 0.97836753E-01 0.43224640E+03</pdfrwt>
<totfact> 0.36411918E+01</totfact>
</mgrwt>
</event>
<event>
 4    1  0.2488810E-002  0.9972219E+03  0.7818608E-02  0.9311597E-01
         -1   -1    0    0    0  501 -0.00000000000E+00  0.00000000000E+00  0.19346285728E+04  0.19346285728E+04  0.00000000000E+00 0. -1.
          1   -1    0    0  502    0  0.00000000000E+00 -0.00000000000E+00 -0.90294377526E+03  0.90294377526E+03  0.00000000000E+00 0.  1.
    9000007    1    1    2  502    0  0.91174023156E+03 -0.56403351931E+02  0.14469821223E+04  0.17573300345E+04  0.40000000000E+03 0. -1.
   -9000007    1    1    2    0  501 -0.91174023156E+03  0.56403351931E+02 -0.41529732479E+03  0.10802423135E+04  0.40000000000E+03 0.  1.
<mgrwt>
<rscale>  2 0.99722194E+03</rscale>
<asrwt>0</asrwt>
<pdfrwt beam="1">  1        1 0.13891443E+00 0.99722194E+03</pdfrwt>
<pdfrwt beam="2">  1       -1 0.29763516E+00 0.99722194E+03</pdfrwt>
<totfact> 0.62777902E-01</totfact>
</mgrwt>
</event>
<event>
 4    1  0.2488810E-002  0.4365151E+03  0.7818608E-02  0.1031821E+00
         -2   -1    0    0    0  501 -0.00000000000E+00  0.00000000000E+00  0.13997155521E+03  0.13997155521E+03  0.00000000000E+00 0.  1.
          2   -1    0    0  502    0  0.00000000000E+00 -0.00000000000E+00 -0.13637822622E+04  0.13637822622E+04  0.00000000000E+00 0. -1.
    9000007    1    1    2  502    0 -0.14332456615E+03 -0.10001729962E+03 -0.57992574067E+03  0.72585071205E+03  0.40000000000E+03 0. -1.
   -9000007    1    1    2    0  501  0.14332456615E+03  0.10001729962E+03 -0.64388496635E+03  0.77790310539E+03  0.40000000000E+03 0. -1.
<mgrwt>
<rscale>  2 0.43651505E+03</rscale>
<asrwt>0</asrwt>
<pdfrwt beam="1">  1        2 0.20981265E+00 0.43651505E+03</pdfrwt>
<pdfrwt beam="2">  1       -2 0.21534086E-01 0.43651505E+03</pdfrwt>
<totfact> 0.29494925E+02</totfact>
</mgrwt>
</event>
<event>
 4    1  0.2488810E-002  0.4094630E+03  0.7818608E-02  0.1040551E+00
         -2   -1    0    0    0  501 -0.00000000000E+00  0.00000000000E+00  0.34168171383E+03  0.34168171383E+03  0.00000000000E+00 0.  1.
          2   -1    0    0  502    0  0.00000000000E+00 -0.00000000000E+00 -0.71144434382E+03  0.71144434382E+03  0.00000000000E+00 0. -1.
    9000007    1    1    2  502    0  0.86422438519E+02 -0.13824381472E+02  0.10843356208E+03  0.42357737049E+03  0.40000000000E+03 0.  1.
   -9000007    1    1    2    0  501 -0.86422438519E+02  0.13824381472E+02 -0.47819619208E+03  0.62954868717E+03  0.40000000000E+03 0. -1.
<mgrwt>
<rscale>  2 0.40946300E+03</rscale>
<asrwt>0</asrwt>
<pdfrwt beam="1">  1        2 0.10945298E+00 0.40946300E+03</pdfrwt>
<pdfrwt beam="2">  1       -2 0.52566418E-01 0.40946300E+03</pdfrwt>
<totfact> 0.14203562E+02</totfact>
</mgrwt>
</event>
<event>
 4    1  0.2488810E-002  0.5018040E+03  0.7818608E-02  0.1013309E+00
          1   -1    0    0  502    0  0.00000000000E+00  0.00000000000E+00  0.10232709171E+04  0.10232709171E+04  0.00000000000E+00 0.  1.
         -1   -1    0    0    0  501 -0.00000000000E+00 -0.00000000000E+00 -0.28219480996E+03  0.28219480996E+03  0.00000000000E+00 0. -1.
    9000007    1    1    2  502    0 -0.85747996892E+02 -0.29061054895E+03  0.60404483879E+03  0.78528808561E+03  0.40000000000E+03 0.  1.
   -9000007    1    1    2    0  501  0.85747996892E+02  0.29061054895E+03  0.13703126832E+03  0.52017764141E+03  0.40000000000E+03 0. -1.
<mgrwt>
<rscale>  2 0.50180396E+03</rscale>
<asrwt>0</asrwt>
<pdfrwt beam="1">  1        1 0.15742629E+00 0.50180396E+03</pdfrwt>
<pdfrwt beam="2">  1       -1 0.43414587E-01 0.50180396E+03</pdfrwt>
<totfact> 0.79673259E+01</totfact>
</mgrwt>
</event>
<event>
 4    1  0.2488810E-002  0.4322086E+03  0.7818608E-02  0.1033165E+00
          1   -1    0    0  502    0  0.00000000000E+00  0.00000000000E+00  0.37631259826E+03  0.37631259826E+03  0.00000000000E+00 0. -1.
         -1   -1    0    0    0  501 -0.00000000000E+00 -0.00000000000E+00 -0.53172016173E+03  0.53172016173E+03  0.00000000000E+00 0.  1.
    9000007    1    1    2  502    0  0.35395499142E+02  0.15984827770E+03  0.39299094764E+02  0.43399162675E+03  0.40000000000E+03 0. -1.
   -9000007    1    1    2    0  501 -0.35395499142E+02 -0.15984827770E+03 -0.19470665823E+03  0.47404113324E+03  0.40000000000E+03 0.  1.
<mgrwt>
<rscale>  2 0.43220865E+03</rscale>
<asrwt>0</asrwt>
<pdfrwt beam="1">  1        1 0.57894246E-01 0.43220865E+03</pdfrwt>
<pdfrwt beam="2">  1       -1 0.81803102E-01 0.43220865E+03</pdfrwt>
<totfact> 0.10103757E+02</totfact>
</mgrwt>
</event>
<event>
 4    1  0.2488810E-002  0.5223267E+03  0.7818608E-02  0.1008110E+00
         -2   -1    0    0    0  501 -0.00000000000E+00  0.00000000000E+00  0.56238559128E+03  0.56238559128E+03  0.00000000000E+00 0. -1.
          2   -1    0    0  502    0  0.00000000000E+00 -0.00000000000E+00 -0.52344482715E+03  0.52344482715E+03  0.00000000000E+00 0.  1.
    9000007    1    1    2  502    0  0.23569523885E+03 -0.23931754603E+03  0.16637324261E+03  0.54818353615E+03  0.40000000000E+03 0. -1.
   -9000007    1    1    2    0  501 -0.23569523885E+03  0.23931754603E+03 -0.12743247848E+03  0.53764688228E+03  0.40000000000E+03 0.  1.
<mgrwt>
<rscale>  2 0.52232665E+03</rscale>
<asrwt>0</asrwt>
<pdfrwt beam="1">  1        2 0.80529972E-01 0.52232665E+03</pdfrwt>
<pdfrwt beam="2">  1       -2 0.86520861E-01 0.52232665E+03</pdfrwt>
<totfact> 0.69453908E+01</totfact>
</mgrwt>
</event>
<event>
 4    1  0.2488810E-002  0.4520814E+03  0.7818608E-02  0.1027103E+00
         -1   -1    0    0    0  501 -0.00000000000E+00  0.00000000000E+00  0.28695753360E+03  0.28695753360E+03  0.00000000000E+00 0.  1.
          1   -1    0    0  502    0  0.00000000000E+00 -0.00000000000E+00 -0.71950047504E+03  0.71950047504E+03  0.00000000000E+00 0. -1.
    9000007    1    1    2  502    0 -0.93215383715E+02  0.18891404394E+03 -0.26688354974E+03  0.52498043095E+03  0.40000000000E+03 0. -1.
   -9000007    1    1    2    0  501  0.93215383715E+02 -0.18891404394E+03 -0.16565939170E+03  0.48147757769E+03  0.40000000000E+03 0.  1.
<mgrwt>
<rscale>  2 0.45208143E+03</rscale>
<asrwt>0</asrwt>
<pdfrwt beam="1">  1        1 0.11069238E+00 0.45208143E+03</pdfrwt>
<pdfrwt beam="2">  1       -1 0.44147313E-01 0.45208143E+03</pdfrwt>
<totfact> 0.13810364E+02</totfact>
</mgrwt>
</event>
<event>
 4    1  0.2488810E-002  0.4225676E+03  0.7818608E-02  0.1036234E+00
          1   -1    0    0  502    0  0.00000000000E+00  0.00000000000E+00  0.80735681287E+03  0.80735681287E+03  0.00000000000E+00 0.  1.
         -1   -1    0    0    0  501 -0.00000000000E+00 -0.00000000000E+00 -0.22233337031E+03  0.22233337031E+03  0.00000000000E+00 0. -1.
    9000007    1    1    2  502    0  0.13428826690E+03  0.23023023137E+02  0.25527548827E+03  0.49368914626E+03  0.40000000000E+03 0.  1.
   -9000007    1    1    2    0  501 -0.13428826690E+03 -0.23023023137E+02  0.32974795430E+03  0.53600103693E+03  0.40000000000E+03 0. -1.
<mgrwt>
<rscale>  2 0.42256763E+03</rscale>
<asrwt>0</asrwt>
<pdfrwt beam="1">  1        1 0.12420874E+00 0.42256763E+03</pdfrwt>
<pdfrwt beam="2">  1       -1 0.34205134E-01 0.42256763E+03</pdfrwt>
<totfact> 0.18331611E+02</totfact>
</mgrwt>
</event>
<event>
 4    1  0.2488810E-002  0.4239152E+03  0.7818608E-02  0.1035800E+00
         -1   -1    0    0    0  501 -0.00000000000E+00  0.00000000000E+00  0.23526156979E+03  0.23526156979E+03  0.00000000000E+00 0. -1.
          1   -1    0    0  502    0  0.00000000000E+00 -0.00000000000E+00 -0.23629470530E+04  0.23629470530E+04  0.00000000000E+00 0.  1.
    9000007    1    1    2  502    0  0.12629973223E+03  0.61257324534E+02  0.48545540652E+01  0.42394297832E+03  0.40000000000E+03 0. -1.
   -9000007    1    1    2    0  501 -0.12629973223E+03 -0.61257324534E+02 -0.21325400373E+04  0.21742656445E+04  0.40000000000E+03 0.  1.
<mgrwt>
<rscale>  2 0.42391518E+03</rscale>
<asrwt>0</asrwt>
<pdfrwt beam="1">  1        1 0.36353032E+00 0.42391518E+03</pdfrwt>
<pdfrwt beam="2">  1       -1 0.36194088E-01 0.42391518E+03</pdfrwt>
<totfact> 0.13819129E+01</totfact>
</mgrwt>
</event>
<event>
 4    1  0.2488810E-002  0.5654733E+03  0.7818608E-02  0.9979746E-01
         -2   -1    0    0    0  501 -0.00000000000E+00  0.00000000000E+00  0.38957748793E+03  0.38957748793E+03  0.00000000000E+00 0.  1.
          2   -1    0    0  502    0  0.00000000000E+00 -0.00000000000E+00 -0.83192067534E+03  0.83192067534E+03  0.00000000000E+00 0. -1.
    9000007    1    1    2  502    0  0.35959425671E+03  0.17450523570E+03 -0.29182655847E+03  0.63633548304E+03  0.40000000000E+03 0. -1.
   -9000007    1    1    2    0  501 -0.35959425671E+03 -0.17450523570E+03 -0.15051662895E+03  0.58516268023E+03  0.40000000000E+03 0.  1.
<mgrwt>
<rscale>  2 0.56547335E+03</rscale>
<asrwt>0</asrwt>
<pdfrwt beam="1">  1        2 0.12798780E+00 0.56547335E+03</pdfrwt>
<pdfrwt beam="2">  1       -2 0.59934998E-01 0.56547335E+03</pdfrwt>
<totfact> 0.87211511E+01</totfact>
</mgrwt>
</event>
<event>
 4    1  0.2488810E-002  0.4284081E+03  0.7818608E-02  0.1034364E+00
          2   -1    0    0  502    0  0.00000000000E+00  0.00000000000E+00  0.72346209581E+03  0.72346209581E+03  0.00000000000E+00 0.  1.
         -2   -1    0    0    0  501 -0.00000000000E+00 -0.00000000000E+00 -0.31933170750E+03  0.31933170750E+03  0.00000000000E+00 0. -1.
    9000007    1    1    2  502    0  0.14265008358E+03  0.56431166666E+02 -0.34333224052E+02  0.42978168084E+03  0.40000000000E+03 0. -1.
   -9000007    1    1    2    0  501 -0.14265008358E+03 -0.56431166666E+02  0.43846361236E+03  0.61301212246E+03  0.40000000000E+03 0.  1.
<mgrwt>
<rscale>  2 0.42840813E+03</rscale>
<asrwt>0</asrwt>
<pdfrwt beam="1">  1        2 0.11130186E+00 0.42840813E+03</pdfrwt>
<pdfrwt beam="2">  1       -2 0.49127955E-01 0.42840813E+03</pdfrwt>
<totfact> 0.15921985E+02</totfact>
</mgrwt>
</event>
<event>
 4    1  0.2488810E-002  0.4613551E+03  0.7818608E-02  0.1024389E+00
          1   -1    0    0  502    0  0.00000000000E+00  0.00000000000E+00  0.87874216221E+03  0.87874216221E+03  0.00000000000E+00 0.  1.
         -1   -1    0    0    0  501 -0.00000000000E+00 -0.00000000000E+00 -0.26687679890E+03  0.26687679890E+03  0.00000000000E+00 0. -1.
    9000007    1    1    2  502    0  0.22674323927E+03 -0.37894519501E+02  0.13182116553E+03  0.47981799763E+03  0.40000000000E+03 0. -1.
   -9000007    1    1    2    0  501 -0.22674323927E+03  0.37894519501E+02  0.48004419778E+03  0.66580096349E+03  0.40000000000E+03 0.  1.
<mgrwt>
<rscale>  2 0.46135506E+03</rscale>
<asrwt>0</asrwt>
<pdfrwt beam="1">  1        1 0.13519110E+00 0.46135506E+03</pdfrwt>
<pdfrwt beam="2">  1       -1 0.41057970E-01 0.46135506E+03</pdfrwt>
<totfact> 0.11504275E+02</totfact>
</mgrwt>
</event>
<event>
 4    1  0.2488810E-002  0.4581904E+03  0.7818608E-02  0.1025307E+00
          2   -1    0    0  502    0  0.00000000000E+00  0.00000000000E+00  0.80239026752E+03  0.80239026752E+03  0.00000000000E+00 0. -1.
         -2   -1    0    0    0  501 -0.00000000000E+00 -0.00000000000E+00 -0.33446468362E+03  0.33446468362E+03  0.00000000000E+00 0.  1.
    9000007    1    1    2  502    0  0.21901174298E+03  0.44411001105E+02  0.49920044557E+03  0.67759838064E+03  0.40000000000E+03 0. -1.
   -9000007    1    1    2    0  501 -0.21901174298E+03 -0.44411001105E+02 -0.31274861670E+02  0.45925657051E+03  0.40000000000E+03 0.  1.
<mgrwt>
<rscale>  2 0.45819044E+03</rscale>
<asrwt>0</asrwt>
<pdfrwt beam="1">  1        2 0.12344466E+00 0.45819044E+03</pdfrwt>
<pdfrwt beam="2">  1       -2 0.51456105E-01 0.45819044E+03</pdfrwt>
<totfact> 0.12666192E+02</totfact>
</mgrwt>
</event>
<event>
 4    1  0.2488810E-002  0.5122502E+03  0.7818608E-02  0.1010630E+00
          2   -1    0    0  502    0  0.00000000000E+00  0.00000000000E+00  0.21447176185E+04  0.21447176185E+04  0.00000000000E+00 0. -1.
         -2   -1    0    0    0  501 -0.00000000000E+00 -0.00000000000E+00 -0.12524132619E+03  0.12524132619E+03  0.00000000000E+00 0.  1.
    9000007    1    1    2  502    0  0.10329603740E+03  0.30286997335E+03  0.11822700948E+04  0.12884730766E+04  0.40000000000E+03 0. -1.
   -9000007    1    1    2    0  501 -0.10329603740E+03 -0.30286997335E+03  0.83720619753E+03  0.98148586810E+03  0.40000000000E+03 0.  1.
<mgrwt>
<rscale>  2 0.51225022E+03</rscale>
<asrwt>0</asrwt>
<pdfrwt beam="1">  1        2 0.32995653E+00 0.51225022E+03</pdfrwt>
<pdfrwt beam="2">  1       -2 0.19267898E-01 0.51225022E+03</pdfrwt>
<totfact> 0.13382244E+02</totfact>
</mgrwt>
</event>
<event>
 4    1  0.2488810E-002  0.4100755E+03  0.7818608E-02  0.1040346E+00
          2   -1    0    0  502    0  0.00000000000E+00  0.00000000000E+00  0.93695939971E+03  0.93695939971E+03  0.00000000000E+00 0. -1.
         -2   -1    0    0    0  501 -0.00000000000E+00 -0.00000000000E+00 -0.17955857255E+03  0.17955857255E+03  0.00000000000E+00 0.  1.
    9000007    1    1    2  502    0  0.73180076253E+02  0.52977143358E+02  0.36674248924E+03  0.55014721184E+03  0.40000000000E+03 0.  1.
   -9000007    1    1    2    0  501 -0.73180076253E+02 -0.52977143358E+02  0.39065833791E+03  0.56637076042E+03  0.40000000000E+03 0.  1.
<mgrwt>
<rscale>  2 0.41007548E+03</rscale>
<asrwt>0</asrwt>
<pdfrwt beam="1">  1        2 0.14414760E+00 0.41007548E+03</pdfrwt>
<pdfrwt beam="2">  1       -2 0.27624396E-01 0.41007548E+03</pdfrwt>
<totfact> 0.33992148E+02</totfact>
</mgrwt>
</event>
<event>
 4    1  0.2488810E-002  0.1038456E+04  0.7818608E-02  0.9267345E-01
         -2   -1    0    0    0  501 -0.00000000000E+00  0.00000000000E+00  0.78771401117E+03  0.78771401117E+03  0.00000000000E+00 0. -1.
          2   -1    0    0  502    0  0.00000000000E+00 -0.00000000000E+00 -0.13846592464E+04  0.13846592464E+04  0.00000000000E+00 0.  1.
    9000007    1    1    2  502    0 -0.86064473520E+03 -0.42152170295E+03 -0.41393817151E+03  0.11179153439E+04  0.40000000000E+03 0. -1.
   -9000007    1    1    2    0  501  0.86064473520E+03  0.42152170295E+03 -0.18300706369E+03  0.10544579136E+04  0.40000000000E+03 0.  1.
<mgrwt>
<rscale>  2 0.10384555E+04</rscale>
<asrwt>0</asrwt>
<pdfrwt beam="1">  1        2 0.21302450E+00 0.10384555E+04</pdfrwt>
<pdfrwt beam="2">  1       -2 0.12118677E+00 0.10384555E+04</pdfrwt>
<totfact> 0.75706097E+00</totfact>
</mgrwt>
</event>
<event>
 4    1  0.2488810E-002  0.6050690E+03  0.7818608E-02  0.9894945E-01
         -2   -1    0    0    0  501 -0.00000000000E+00  0.00000000000E+00  0.15408450978E+03  0.15408450978E+03  0.00000000000E+00 0. -1.
          2   -1    0    0  502    0  0.00000000000E+00 -0.00000000000E+00 -0.23785853095E+04  0.23785853095E+04  0.00000000000E+00 0.  1.
    9000007    1    1    2  502    0  0.43125652735E+03 -0.14186727670E+03 -0.11538038805E+04  0.13028322652E+04  0.40000000000E+03 0.  1.
   -9000007    1    1    2    0  501 -0.43125652735E+03  0.14186727670E+03 -0.10706969192E+04  0.12298375541E+04  0.40000000000E+03 0. -1.
<mgrwt>
<rscale>  2 0.60506902E+03</rscale>
<asrwt>0</asrwt>
<pdfrwt beam="1">  1        2 0.36593621E+00 0.60506902E+03</pdfrwt>
<pdfrwt beam="2">  1       -2 0.23705309E-01 0.60506902E+03</pdfrwt>
<totfact> 0.68220183E+01</totfact>
</mgrwt>
</event>
<event>
 4    1  0.2488810E-002  0.4094970E+03  0.7818608E-02  0.1040540E+00
         -2   -1    0    0    0  501 -0.00000000000E+00  0.00000000000E+00  0.38819007765E+03  0.38819007765E+03  0.00000000000E+00 0. -1.
          2   -1    0    0  502    0  0.00000000000E+00 -0.00000000000E+00 -0.50461483088E+03  0.50461483088E+03  0.00000000000E+00 0.  1.
    9000007    1    1    2  502    0 -0.87171336827E+02 -0.94293918707E+01 -0.22758336120E+03  0.46848899847E+03  0.40000000000E+03 0.  1.
   -9000007    1    1    2    0  501  0.87171336827E+02  0.94293918707E+01  0.11115860798E+03  0.42431591005E+03  0.40000000000E+03 0. -1.
<mgrwt>
<rscale>  2 0.40949695E+03</rscale>
<asrwt>0</asrwt>
<pdfrwt beam="1">  1        2 0.77633051E-01 0.40949695E+03</pdfrwt>
<pdfrwt beam="2">  1       -2 0.59721551E-01 0.40949695E+03</pdfrwt>
<totfact> 0.16411191E+02</totfact>
</mgrwt>
</event>
<event>
 4    1  0.2488810E-002  0.4287225E+03  0.7818608E-02  0.1034264E+00
         -3   -1    0    0    0  501 -0.00000000000E+00  0.00000000000E+00  0.28890888649E+03  0.28890888649E+03  0.00000000000E+00 0.  1.
          3   -1    0    0  502    0  0.00000000000E+00 -0.00000000000E+00 -0.89163184864E+03  0.89163184864E+03  0.00000000000E+00 0. -1.
    9000007    1    1    2  502    0 -0.14929881847E+03  0.38895476386E+02 -0.61729680435E+03  0.75157058214E+03  0.40000000000E+03 0. -1.
   -9000007    1    1    2    0  501  0.14929881847E+03 -0.38895476386E+02  0.14573842198E+02  0.42897015299E+03  0.40000000000E+03 0.  1.
<mgrwt>
<rscale>  2 0.42872252E+03</rscale>
<asrwt>0</asrwt>
<pdfrwt beam="1">  1        3 0.13717413E+00 0.42872252E+03</pdfrwt>
<pdfrwt beam="2">  1       -3 0.44447523E-01 0.42872252E+03</pdfrwt>
<totfact> 0.53648034E+00</totfact>
</mgrwt>
</event>
<event>
 4    1  0.2488810E-002  0.6560916E+03  0.7818608E-02  0.9795415E-01
          2   -1    0    0  502    0  0.00000000000E+00  0.00000000000E+00  0.13042961793E+04  0.13042961793E+04  0.00000000000E+00 0. -1.
         -2   -1    0    0    0  501 -0.00000000000E+00 -0.00000000000E+00 -0.33116756575E+03  0.33116756575E+03  0.00000000000E+00 0.  1.
    9000007    1    1    2  502    0  0.26937258870E+03  0.44485348397E+03  0.53450132542E+03  0.84625521009E+03  0.40000000000E+03 0. -1.
   -9000007    1    1    2    0  501 -0.26937258870E+03 -0.44485348397E+03  0.43862728810E+03  0.78920853493E+03  0.40000000000E+03 0.  1.
<mgrwt>
<rscale>  2 0.65609162E+03</rscale>
<asrwt>0</asrwt>
<pdfrwt beam="1">  1        2 0.20066095E+00 0.65609162E+03</pdfrwt>
<pdfrwt beam="2">  1       -2 0.50948857E-01 0.65609162E+03</pdfrwt>
<totfact> 0.61527620E+01</totfact>
</mgrwt>
</event>
<event>
 4    1  0.2488810E-002  0.4992205E+03  0.7818608E-02  0.1013983E+00
         -1   -1    0    0    0  501 -0.00000000000E+00  0.00000000000E+00  0.85735484290E+03  0.85735484290E+03  0.00000000000E+00 0.  1.
          1   -1    0    0  502    0  0.00000000000E+00 -0.00000000000E+00 -0.29931184173E+03  0.29931184173E+03  0.00000000000E+00 0. -1.
    9000007    1    1    2  502    0  0.13120898436E+03 -0.26833805507E+03  0.18084325284E+03  0.53096646925E+03  0.40000000000E+03 0. -1.
   -9000007    1    1    2    0  501 -0.13120898436E+03  0.26833805507E+03  0.37719974833E+03  0.62570021537E+03  0.40000000000E+03 0.  1.
<mgrwt>
<rscale>  2 0.49922050E+03</rscale>
<asrwt>0</asrwt>
<pdfrwt beam="1">  1        1 0.46047976E-01 0.49922050E+03</pdfrwt>
<pdfrwt beam="2">  1       -1 0.13190074E+00 0.49922050E+03</pdfrwt>
<totfact> 0.44977152E+01</totfact>
</mgrwt>
</event>
<event>
 4    1  0.2488810E-002  0.4147110E+03  0.7818608E-02  0.1038802E+00
         -2   -1    0    0    0  501 -0.00000000000E+00  0.00000000000E+00  0.70547902441E+02  0.70547902441E+02  0.00000000000E+00 0.  1.
          2   -1    0    0  502    0  0.00000000000E+00 -0.00000000000E+00 -0.24424988592E+04  0.24424988592E+04  0.00000000000E+00 0. -1.
    9000007    1    1    2  502    0  0.69566233755E+02 -0.84532396724E+02 -0.11311556294E+04  0.12047814096E+04  0.40000000000E+03 0. -1.
   -9000007    1    1    2    0  501 -0.69566233755E+02  0.84532396724E+02 -0.12407953273E+04  0.13082653520E+04  0.40000000000E+03 0.  1.
<mgrwt>
<rscale>  2 0.41471097E+03</rscale>
<asrwt>0</asrwt>
<pdfrwt beam="1">  1        2 0.37576907E+00 0.41471097E+03</pdfrwt>
<pdfrwt beam="2">  1       -2 0.10853523E-01 0.41471097E+03</pdfrwt>
<totfact> 0.24393960E+02</totfact>
</mgrwt>
</event>
<event>
 4    1  0.2488810E-002  0.4252361E+03  0.7818608E-02  0.1035376E+00
         -2   -1    0    0    0  501 -0.00000000000E+00  0.00000000000E+00  0.24142819628E+03  0.24142819628E+03  0.00000000000E+00 0. -1.
          2   -1    0    0  502    0  0.00000000000E+00 -0.00000000000E+00 -0.79999645052E+03  0.79999645052E+03  0.00000000000E+00 0.  1.
    9000007    1    1    2  502    0 -0.14430891366E+03 -0.81670629088E+00 -0.14779369542E+03  0.45018741206E+03  0.40000000000E+03 0. -1.
   -9000007    1    1    2    0  501  0.14430891366E+03  0.81670629088E+00 -0.41077455883E+03  0.59123723475E+03  0.40000000000E+03 0. -1.
<mgrwt>
<rscale>  2 0.42523609E+03</rscale>
<asrwt>0</asrwt>
<pdfrwt beam="1">  1        2 0.12307638E+00 0.42523609E+03</pdfrwt>
<pdfrwt beam="2">  1       -2 0.37142799E-01 0.42523609E+03</pdfrwt>
<totfact> 0.24216752E+02</totfact>
</mgrwt>
</event>
<event>
 4    1  0.2488810E-002  0.5625640E+03  0.7818608E-02  0.9986270E-01
         -1   -1    0    0    0  501 -0.00000000000E+00  0.00000000000E+00  0.45655681852E+03  0.45655681852E+03  0.00000000000E+00 0.  1.
          1   -1    0    0  502    0  0.00000000000E+00 -0.00000000000E+00 -0.70709242182E+03  0.70709242182E+03  0.00000000000E+00 0. -1.
    9000007    1    1    2  502    0 -0.39445424870E+03 -0.29733348320E+02 -0.20686610798E+03  0.59939287029E+03  0.40000000000E+03 0.  1.
   -9000007    1    1    2    0  501  0.39445424870E+03  0.29733348320E+02 -0.43669495319E+02  0.56425637005E+03  0.40000000000E+03 0. -1.
<mgrwt>
<rscale>  2 0.56256398E+03</rscale>
<asrwt>0</asrwt>
<pdfrwt beam="1">  1        1 0.10878345E+00 0.56256398E+03</pdfrwt>
<pdfrwt beam="2">  1       -1 0.70239511E-01 0.56256398E+03</pdfrwt>
<totfact> 0.57227060E+01</totfact>
</mgrwt>
</event>
<event>
 4    1  0.2488810E-002  0.4401607E+03  0.7818608E-02  0.1030698E+00
         -1   -1    0    0    0  501 -0.00000000000E+00  0.00000000000E+00  0.35644226314E+03  0.35644226314E+03  0.00000000000E+00 0. -1.
          1   -1    0    0  502    0  0.00000000000E+00 -0.00000000000E+00 -0.65725490632E+03  0.65725490632E+03  0.00000000000E+00 0.  1.
    9000007    1    1    2  502    0  0.67409299640E+02  0.17087266663E+03 -0.36122808547E+03  0.56940952891E+03  0.40000000000E+03 0.  1.
   -9000007    1    1    2    0  501 -0.67409299640E+02 -0.17087266663E+03  0.60415442285E+02  0.44428764055E+03  0.40000000000E+03 0. -1.
<mgrwt>
<rscale>  2 0.44016075E+03</rscale>
<asrwt>0</asrwt>
<pdfrwt beam="1">  1        1 0.10111614E+00 0.44016075E+03</pdfrwt>
<pdfrwt beam="2">  1       -1 0.54837272E-01 0.44016075E+03</pdfrwt>
<totfact> 0.10540422E+02</totfact>
</mgrwt>
</event>
<event>
 4    1  0.2488810E-002  0.4427370E+03  0.7818608E-02  0.1029910E+00
         -1   -1    0    0    0  501 -0.00000000000E+00  0.00000000000E+00  0.43768484682E+03  0.43768484682E+03  0.00000000000E+00 0.  1.
          1   -1    0    0  502    0  0.00000000000E+00 -0.00000000000E+00 -0.45236156255E+03  0.45236156255E+03  0.00000000000E+00 0. -1.
    9000007    1    1    2  502    0  0.74993559323E+01  0.18963080310E+03 -0.51793467418E+02  0.44575626197E+03  0.40000000000E+03 0. -1.
   -9000007    1    1    2    0  501 -0.74993559323E+01 -0.18963080310E+03  0.37116751684E+02  0.44429014740E+03  0.40000000000E+03 0.  1.
<mgrwt>
<rscale>  2 0.44273703E+03</rscale>
<asrwt>0</asrwt>
<pdfrwt beam="1">  1        1 0.69594086E-01 0.44273703E+03</pdfrwt>
<pdfrwt beam="2">  1       -1 0.67336131E-01 0.44273703E+03</pdfrwt>
<totfact> 0.11829928E+02</totfact>
</mgrwt>
</event>
<event>
 4    1  0.2488810E-002  0.4224021E+03  0.7818608E-02  0.1036287E+00
          2   -1    0    0  502    0  0.00000000000E+00  0.00000000000E+00  0.12764387013E+04  0.12764387013E+04  0.00000000000E+00 0.  1.
         -2   -1    0    0    0  501 -0.00000000000E+00 -0.00000000000E+00 -0.14479989001E+03  0.14479989001E+03  0.00000000000E+00 0. -1.
    9000007    1    1    2  502    0 -0.12240919535E+03 -0.58647438637E+02  0.69810136279E+03  0.81594671756E+03  0.40000000000E+03 0. -1.
   -9000007    1    1    2    0  501  0.12240919535E+03  0.58647438637E+02  0.43353744849E+03  0.60529187373E+03  0.40000000000E+03 0.  1.
<mgrwt>
<rscale>  2 0.42240210E+03</rscale>
<asrwt>0</asrwt>
<pdfrwt beam="1">  1        2 0.19637518E+00 0.42240210E+03</pdfrwt>
<pdfrwt beam="2">  1       -2 0.22276907E-01 0.42240210E+03</pdfrwt>
<totfact> 0.31168015E+02</totfact>
</mgrwt>
</event>
<event>
 4    1  0.2488810E-002  0.4876892E+03  0.7818608E-02  0.1017043E+00
         -2   -1    0    0    0  501 -0.00000000000E+00  0.00000000000E+00  0.31770533572E+03  0.31770533572E+03  0.00000000000E+00 0. -1.
          2   -1    0    0  502    0  0.00000000000E+00 -0.00000000000E+00 -0.81040198083E+03  0.81040198083E+03  0.00000000000E+00 0.  1.
    9000007    1    1    2  502    0 -0.98058206911E+02 -0.26119980839E+03 -0.40208792379E+03  0.63207234578E+03  0.40000000000E+03 0.  1.
   -9000007    1    1    2    0  501  0.98058206911E+02  0.26119980839E+03 -0.90608721326E+02  0.49603497077E+03  0.40000000000E+03 0. -1.
<mgrwt>
<rscale>  2 0.48768920E+03</rscale>
<asrwt>0</asrwt>
<pdfrwt beam="1">  1        2 0.12467723E+00 0.48768920E+03</pdfrwt>
<pdfrwt beam="2">  1       -2 0.48877744E-01 0.48768920E+03</pdfrwt>
<totfact> 0.13833937E+02</totfact>
</mgrwt>
</event>
<event>
 4    1  0.2488810E-002  0.5076019E+03  0.7818608E-02  0.1011814E+00
          1   -1    0    0  502    0  0.00000000000E+00  0.00000000000E+00  0.78113502049E+03  0.78113502049E+03  0.00000000000E+00 0. -1.
         -1   -1    0    0    0  501 -0.00000000000E+00 -0.00000000000E+00 -0.38665525089E+03  0.38665525089E+03  0.00000000000E+00 0.  1.
    9000007    1    1    2  502    0  0.21415590631E+03 -0.22758929791E+03 -0.26558068461E+02  0.50829614569E+03  0.40000000000E+03 0.  1.
   -9000007    1    1    2    0  501 -0.21415590631E+03  0.22758929791E+03  0.42103783807E+03  0.65949412568E+03  0.40000000000E+03 0. -1.
<mgrwt>
<rscale>  2 0.50760185E+03</rscale>
<asrwt>0</asrwt>
<pdfrwt beam="1">  1        1 0.12017462E+00 0.50760185E+03</pdfrwt>
<pdfrwt beam="2">  1       -1 0.59485423E-01 0.50760185E+03</pdfrwt>
<totfact> 0.68884088E+01</totfact>
</mgrwt>
</event>
<event>
 4    1  0.2488810E-002  0.4232061E+03  0.7818608E-02  0.1036028E+00
         -2   -1    0    0    0  501 -0.00000000000E+00  0.00000000000E+00  0.74904909646E+03  0.74904909646E+03  0.00000000000E+00 0.  1.
          2   -1    0    0  502    0  0.00000000000E+00 -0.00000000000E+00 -0.25203118558E+03  0.25203118558E+03  0.00000000000E+00 0. -1.
    9000007    1    1    2  502    0 -0.13787728414E+03 -0.96558724686E+01  0.13516400706E+03  0.44426646301E+03  0.40000000000E+03 0. -1.
   -9000007    1    1    2    0  501  0.13787728414E+03  0.96558724686E+01  0.36185390381E+03  0.55681381903E+03  0.40000000000E+03 0.  1.
<mgrwt>
<rscale>  2 0.42320607E+03</rscale>
<asrwt>0</asrwt>
<pdfrwt beam="1">  1        2 0.38774029E-01 0.42320607E+03</pdfrwt>
<pdfrwt beam="2">  1       -2 0.11523832E+00 0.42320607E+03</pdfrwt>
<totfact> 0.80527015E+01</totfact>
</mgrwt>
</event>
<event>
 4    1  0.2488810E-002  0.4267392E+03  0.7818608E-02  0.1034895E+00
         -4   -1    0    0    0  501 -0.00000000000E+00  0.00000000000E+00  0.10689659458E+04  0.10689659458E+04  0.00000000000E+00 0. -1.
          4   -1    0    0  502    0  0.00000000000E+00 -0.00000000000E+00 -0.17113540556E+03  0.17113540556E+03  0.00000000000E+00 0.  1.
    9000007    1    1    2  502    0 -0.66766347919E+02 -0.13284794101E+03  0.49072068705E+03  0.65031770186E+03  0.40000000000E+03 0.  1.
   -9000007    1    1    2    0  501  0.66766347919E+02  0.13284794101E+03  0.40710985316E+03  0.58978364947E+03  0.40000000000E+03 0. -1.
<mgrwt>
<rscale>  2 0.42673917E+03</rscale>
<asrwt>0</asrwt>
<pdfrwt beam="1">  1        4 0.26328525E-01 0.42673917E+03</pdfrwt>
<pdfrwt beam="2">  1       -4 0.16445630E+00 0.42673917E+03</pdfrwt>
<totfact> 0.62694375E+00</totfact>
</mgrwt>
</event>
<event>
 4    1  0.2488810E-002  0.4255648E+03  0.7818608E-02  0.1035270E+00
          2   -1    0    0  502    0  0.00000000000E+00  0.00000000000E+00  0.17445374925E+04  0.17445374925E+04  0.00000000000E+00 0. -1.
         -2   -1    0    0    0  501 -0.00000000000E+00 -0.00000000000E+00 -0.29080076795E+03  0.29080076795E+03  0.00000000000E+00 0.  1.
    9000007    1    1    2  502    0 -0.13703724649E+03 -0.48230300527E+02 -0.89179489965E+02  0.43480840636E+03  0.40000000000E+03 0.  1.
   -9000007    1    1    2    0  501  0.13703724649E+03  0.48230300527E+02  0.15429162145E+04  0.16005298541E+04  0.40000000000E+03 0. -1.
<mgrwt>
<rscale>  2 0.42556476E+03</rscale>
<asrwt>0</asrwt>
<pdfrwt beam="1">  1        2 0.26839038E+00 0.42556476E+03</pdfrwt>
<pdfrwt beam="2">  1       -2 0.44738581E-01 0.42556476E+03</pdfrwt>
<totfact> 0.47290124E+01</totfact>
</mgrwt>
</event>
<event>
 4    1  0.2488810E-002  0.4735489E+03  0.7818608E-02  0.1020923E+00
          2   -1    0    0  502    0  0.00000000000E+00  0.00000000000E+00  0.23316930202E+04  0.23316930202E+04  0.00000000000E+00 0. -1.
         -2   -1    0    0    0  501 -0.00000000000E+00 -0.00000000000E+00 -0.19750213629E+03  0.19750213629E+03  0.00000000000E+00 0.  1.
    9000007    1    1    2  502    0  0.27448691582E+02  0.25198243780E+03  0.16129784030E+03  0.50026550243E+03  0.40000000000E+03 0.  1.
   -9000007    1    1    2    0  501 -0.27448691582E+02 -0.25198243780E+03  0.19728930436E+04  0.20289296540E+04  0.40000000000E+03 0. -1.
<mgrwt>
<rscale>  2 0.47354892E+03</rscale>
<asrwt>0</asrwt>
<pdfrwt beam="1">  1        2 0.35872198E+00 0.47354892E+03</pdfrwt>
<pdfrwt beam="2">  1       -2 0.30384946E-01 0.47354892E+03</pdfrwt>
<totfact> 0.47264327E+01</totfact>
</mgrwt>
</event>
<event>
 4    1  0.2488810E-002  0.5100382E+03  0.7818608E-02  0.1011192E+00
         -2   -1    0    0    0  501 -0.00000000000E+00  0.00000000000E+00  0.15225772745E+03  0.15225772745E+03  0.00000000000E+00 0.  1.
          2   -1    0    0  502    0  0.00000000000E+00 -0.00000000000E+00 -0.17266731437E+04  0.17266731437E+04  0.00000000000E+00 0. -1.
    9000007    1    1    2  502    0  0.21705568582E+03  0.23027334523E+03 -0.69094286186E+03  0.85880208583E+03  0.40000000000E+03 0. -1.
   -9000007    1    1    2    0  501 -0.21705568582E+03 -0.23027334523E+03 -0.88347255439E+03  0.10201287853E+04  0.40000000000E+03 0.  1.
<mgrwt>
<rscale>  2 0.51003822E+03</rscale>
<asrwt>0</asrwt>
<pdfrwt beam="1">  1        2 0.26564204E+00 0.51003822E+03</pdfrwt>
<pdfrwt beam="2">  1       -2 0.23424264E-01 0.51003822E+03</pdfrwt>
<totfact> 0.15970496E+02</totfact>
</mgrwt>
</event>
<event>
 4    1  0.2488810E-002  0.4982380E+03  0.7818608E-02  0.1014240E+00
         -2   -1    0    0    0  501 -0.00000000000E+00  0.00000000000E+00  0.25515153066E+03  0.25515153066E+03  0.00000000000E+00 0.  1.
          2   -1    0    0  502    0  0.00000000000E+00 -0.00000000000E+00 -0.12894787483E+04  0.12894787483E+04  0.00000000000E+00 0. -1.
    9000007    1    1    2  502    0 -0.12074727461E+03  0.27140590203E+03 -0.13449997386E+03  0.51607297057E+03  0.40000000000E+03 0.  1.
   -9000007    1    1    2    0  501  0.12074727461E+03 -0.27140590203E+03 -0.89982724376E+03  0.10285573084E+04  0.40000000000E+03 0. -1.
<mgrwt>
<rscale>  2 0.49823796E+03</rscale>
<asrwt>0</asrwt>
<pdfrwt beam="1">  1        2 0.19838135E+00 0.49823796E+03</pdfrwt>
<pdfrwt beam="2">  1       -2 0.39254081E-01 0.49823796E+03</pdfrwt>
<totfact> 0.10717930E+02</totfact>
</mgrwt>
</event>
<event>
 4    1  0.2488810E-002  0.4800886E+03  0.7818608E-02  0.1019111E+00
         -2   -1    0    0    0  501 -0.00000000000E+00  0.00000000000E+00  0.24379495206E+03  0.24379495206E+03  0.00000000000E+00 0.  1.
          2   -1    0    0  502    0  0.00000000000E+00 -0.00000000000E+00 -0.10766078920E+04  0.10766078920E+04  0.00000000000E+00 0. -1.
    9000007    1    1    2  502    0  0.16034546046E+03  0.21159966111E+03 -0.64687869157E+03  0.80556633798E+03  0.40000000000E+03 0. -1.
   -9000007    1    1    2    0  501 -0.16034546046E+03 -0.21159966111E+03 -0.18593424836E+03  0.51483650607E+03  0.40000000000E+03 0.  1.
<mgrwt>
<rscale>  2 0.48008862E+03</rscale>
<asrwt>0</asrwt>
<pdfrwt beam="1">  1        2 0.16563199E+00 0.48008862E+03</pdfrwt>
<pdfrwt beam="2">  1       -2 0.37506915E-01 0.48008862E+03</pdfrwt>
<totfact> 0.15630054E+02</totfact>
</mgrwt>
</event>
<event>
 4    1  0.2488810E-002  0.4283433E+03  0.7818608E-02  0.1034385E+00
         -2   -1    0    0    0  501 -0.00000000000E+00  0.00000000000E+00  0.11533646288E+03  0.11533646288E+03  0.00000000000E+00 0.  1.
          2   -1    0    0  502    0  0.00000000000E+00 -0.00000000000E+00 -0.16271899650E+04  0.16271899650E+04  0.00000000000E+00 0. -1.
    9000007    1    1    2  502    0  0.15287993398E+03 -0.10283540915E+02 -0.62564586760E+03  0.75822871027E+03  0.40000000000E+03 0.  1.
   -9000007    1    1    2    0  501 -0.15287993398E+03  0.10283540915E+02 -0.88620763453E+03  0.98429771763E+03  0.40000000000E+03 0.  1.
<mgrwt>
<rscale>  2 0.42834335E+03</rscale>
<asrwt>0</asrwt>
<pdfrwt beam="1">  1        2 0.25033693E+00 0.42834335E+03</pdfrwt>
<pdfrwt beam="2">  1       -2 0.17744070E-01 0.42834335E+03</pdfrwt>
<totfact> 0.29600872E+02</totfact>
</mgrwt>
</event>
<event>
 4    1  0.2488810E-002  0.5384097E+03  0.7818608E-02  0.1004213E+00
         -1   -1    0    0    0  501 -0.00000000000E+00  0.00000000000E+00  0.19039318004E+03  0.19039318004E+03  0.00000000000E+00 0.  1.
          1   -1    0    0  502    0  0.00000000000E+00 -0.00000000000E+00 -0.16790166705E+04  0.16790166705E+04  0.00000000000E+00 0. -1.
    9000007    1    1    2  502    0  0.34102599386E+03 -0.11656010094E+03 -0.45898369616E+03  0.70749630314E+03  0.40000000000E+03 0.  1.
   -9000007    1    1    2    0  501 -0.34102599386E+03  0.11656010094E+03 -0.10296397944E+04  0.11619135474E+04  0.40000000000E+03 0. -1.
<mgrwt>
<rscale>  2 0.53840968E+03</rscale>
<asrwt>0</asrwt>
<pdfrwt beam="1">  1        1 0.25831025E+00 0.53840968E+03</pdfrwt>
<pdfrwt beam="2">  1       -1 0.29291259E-01 0.53840968E+03</pdfrwt>
<totfact> 0.55445030E+01</totfact>
</mgrwt>
</event>
<event>
 4    1  0.2488810E-002  0.5136638E+03  0.7818608E-02  0.1010273E+00
         -2   -1    0    0    0  501 -0.00000000000E+00  0.00000000000E+00  0.10739187226E+03  0.10739187226E+03  0.00000000000E+00 0. -1.
          2   -1    0    0  502    0  0.00000000000E+00 -0.00000000000E+00 -0.24573692314E+04  0.24573692314E+04  0.00000000000E+00 0.  1.
    9000007    1    1    2  502    0 -0.12850001797E+03  0.29553049558E+03 -0.11571695785E+04  0.12660536963E+04  0.40000000000E+03 0. -1.
   -9000007    1    1    2    0  501  0.12850001797E+03 -0.29553049558E+03 -0.11928077806E+04  0.12987074074E+04  0.40000000000E+03 0.  1.
<mgrwt>
<rscale>  2 0.51366383E+03</rscale>
<asrwt>0</asrwt>
<pdfrwt beam="1">  1        2 0.37805681E+00 0.51366383E+03</pdfrwt>
<pdfrwt beam="2">  1       -2 0.16521826E-01 0.51366383E+03</pdfrwt>
<totfact> 0.11726407E+02</totfact>
</mgrwt>
</event>
<event>
 4    1  0.2488810E-002  0.4708830E+03  0.7818608E-02  0.1021671E+00
          1   -1    0    0  502    0  0.00000000000E+00  0.00000000000E+00  0.37538916283E+04  0.37538916283E+04  0.00000000000E+00 0. -1.
         -1   -1    0    0    0  501 -0.00000000000E+00 -0.00000000000E+00 -0.59365389431E+02  0.59365389431E+02  0.00000000000E+00 0.  1.
    9000007    1    1    2  502    0  0.20151340961E+03 -0.14533788135E+03  0.19824583784E+04  0.20376142854E+04  0.40000000000E+03 0.  1.
   -9000007    1    1    2    0  501 -0.20151340961E+03  0.14533788135E+03  0.17120678605E+04  0.17756427323E+04  0.40000000000E+03 0.  1.
<mgrwt>
<rscale>  2 0.47088295E+03</rscale>
<asrwt>0</asrwt>
<pdfrwt beam="1">  1        1 0.57752161E+00 0.47088295E+03</pdfrwt>
<pdfrwt beam="2">  1       -1 0.91331397E-02 0.47088295E+03</pdfrwt>
<totfact> 0.13052833E+01</totfact>
</mgrwt>
</event>
<event>
 4    1  0.2488810E-002  0.4057708E+03  0.7818608E-02  0.1041800E+00
         -1   -1    0    0    0  501 -0.00000000000E+00  0.00000000000E+00  0.32397293157E+03  0.32397293157E+03  0.00000000000E+00 0.  1.
          1   -1    0    0  502    0  0.00000000000E+00 -0.00000000000E+00 -0.86926345050E+03  0.86926345050E+03  0.00000000000E+00 0. -1.
    9000007    1    1    2  502    0  0.54902718000E+02 -0.40443029257E+02  0.11185773827E+03  0.42090628490E+03  0.40000000000E+03 0.  1.
   -9000007    1    1    2    0  501 -0.54902718000E+02  0.40443029257E+02 -0.65714825720E+03  0.77233009717E+03  0.40000000000E+03 0. -1.
<mgrwt>
<rscale>  2 0.40577081E+03</rscale>
<asrwt>0</asrwt>
<pdfrwt beam="1">  1        1 0.13373284E+00 0.40577081E+03</pdfrwt>
<pdfrwt beam="2">  1       -1 0.49841989E-01 0.40577081E+03</pdfrwt>
<totfact> 0.82596517E+01</totfact>
</mgrwt>
</event>
<event>
 4    1  0.2488810E-002  0.4304445E+03  0.7818608E-02  0.1033720E+00
          2   -1    0    0  502    0  0.00000000000E+00  0.00000000000E+00  0.98251832297E+03  0.98251832297E+03  0.00000000000E+00 0. -1.
         -2   -1    0    0    0  501 -0.00000000000E+00 -0.00000000000E+00 -0.21600332648E+03  0.21600332648E+03  0.00000000000E+00 0.  1.
    9000007    1    1    2  502    0 -0.12425532708E+01 -0.15899987981E+03  0.59678419384E+03  0.73582190762E+03  0.40000000000E+03 0. -1.
   -9000007    1    1    2    0  501  0.12425532708E+01  0.15899987981E+03  0.16973080266E+03  0.46269974183E+03  0.40000000000E+03 0.  1.
<mgrwt>
<rscale>  2 0.43044454E+03</rscale>
<asrwt>0</asrwt>
<pdfrwt beam="1">  1        2 0.15115666E+00 0.43044454E+03</pdfrwt>
<pdfrwt beam="2">  1       -2 0.33231281E-01 0.43044454E+03</pdfrwt>
<totfact> 0.22582522E+02</totfact>
</mgrwt>
</event>
<event>
 4    1  0.2488810E-002  0.4068928E+03  0.7818608E-02  0.1041419E+00
         -2   -1    0    0    0  501 -0.00000000000E+00  0.00000000000E+00  0.18444039220E+03  0.18444039220E+03  0.00000000000E+00 0. -1.
          2   -1    0    0  502    0  0.00000000000E+00 -0.00000000000E+00 -0.10870300310E+04  0.10870300310E+04  0.00000000000E+00 0.  1.
    9000007    1    1    2  502    0 -0.43026550144E+02  0.60913291016E+02 -0.18593810685E+03  0.44736416108E+03  0.40000000000E+03 0. -1.
   -9000007    1    1    2    0  501  0.43026550144E+02 -0.60913291016E+02 -0.71665153199E+03  0.82410626217E+03  0.40000000000E+03 0.  1.
<mgrwt>
<rscale>  2 0.40689275E+03</rscale>
<asrwt>0</asrwt>
<pdfrwt beam="1">  1        2 0.16723539E+00 0.40689275E+03</pdfrwt>
<pdfrwt beam="2">  1       -2 0.28375445E-01 0.40689275E+03</pdfrwt>
<totfact> 0.26121754E+02</totfact>
</mgrwt>
</event>
<event>
 4    1  0.2488810E-002  0.7550542E+03  0.7818608E-02  0.9627454E-01
          2   -1    0    0  502    0  0.00000000000E+00  0.00000000000E+00  0.18868152242E+04  0.18868152242E+04  0.00000000000E+00 0. -1.
         -2   -1    0    0    0  501 -0.00000000000E+00 -0.00000000000E+00 -0.30802252112E+03  0.30802252112E+03  0.00000000000E+00 0.  1.
    9000007    1    1    2  502    0 -0.47186088541E+03  0.43295979853E+03  0.94088583581E+03  0.12063884276E+04  0.40000000000E+03 0.  1.
   -9000007    1    1    2    0  501  0.47186088541E+03 -0.43295979853E+03  0.63790686730E+03  0.98844931770E+03  0.40000000000E+03 0.  1.
<mgrwt>
<rscale>  2 0.75505422E+03</rscale>
<asrwt>0</asrwt>
<pdfrwt beam="1">  1        2 0.29027926E+00 0.75505422E+03</pdfrwt>
<pdfrwt beam="2">  1       -2 0.47388082E-01 0.75505422E+03</pdfrwt>
<totfact> 0.33542953E+01</totfact>
</mgrwt>
</event>
<event>
 4    1  0.2488810E-002  0.4166825E+03  0.7818608E-02  0.1038151E+00
         -1   -1    0    0    0  501 -0.00000000000E+00  0.00000000000E+00  0.65596619043E+03  0.65596619043E+03  0.00000000000E+00 0. -1.
          1   -1    0    0  502    0  0.00000000000E+00 -0.00000000000E+00 -0.34567869166E+03  0.34567869166E+03  0.00000000000E+00 0.  1.
    9000007    1    1    2  502    0 -0.99299048451E+02 -0.61351298201E+02  0.39756662441E+03  0.57591970244E+03  0.40000000000E+03 0. -1.
   -9000007    1    1    2    0  501  0.99299048451E+02  0.61351298201E+02 -0.87279125643E+02  0.42572517965E+03  0.40000000000E+03 0.  1.
<mgrwt>
<rscale>  2 0.41668247E+03</rscale>
<asrwt>0</asrwt>
<pdfrwt beam="1">  1        1 0.53181337E-01 0.41668247E+03</pdfrwt>
<pdfrwt beam="2">  1       -1 0.10091787E+00 0.41668247E+03</pdfrwt>
<totfact> 0.71418232E+01</totfact>
</mgrwt>
</event>
<event>
 4    1  0.2488810E-002  0.4325537E+03  0.7818608E-02  0.1033056E+00
          1   -1    0    0  502    0  0.00000000000E+00  0.00000000000E+00  0.63972315915E+03  0.63972315915E+03  0.00000000000E+00 0. -1.
         -1   -1    0    0    0  501 -0.00000000000E+00 -0.00000000000E+00 -0.30350249309E+03  0.30350249309E+03  0.00000000000E+00 0.  1.
    9000007    1    1    2  502    0  0.84888557874E+02 -0.14105549817E+03  0.25800882779E+03  0.50365789584E+03  0.40000000000E+03 0.  1.
   -9000007    1    1    2    0  501 -0.84888557874E+02  0.14105549817E+03  0.78211838271E+02  0.43956775640E+03  0.40000000000E+03 0.  1.
<mgrwt>
<rscale>  2 0.43255372E+03</rscale>
<asrwt>0</asrwt>
<pdfrwt beam="1">  1        1 0.98418947E-01 0.43255372E+03</pdfrwt>
<pdfrwt beam="2">  1       -1 0.46692691E-01 0.43255372E+03</pdfrwt>
<totfact> 0.14840878E+02</totfact>
</mgrwt>
</event>
<event>
 4    1  0.2488810E-002  0.8382002E+03  0.7818608E-02  0.9506313E-01
          1   -1    0    0  502    0  0.00000000000E+00  0.00000000000E+00  0.27854163537E+04  0.27854163537E+04  0.00000000000E+00 0.  1.
         -1   -1    0    0    0  501 -0.00000000000E+00 -0.00000000000E+00 -0.37865552049E+03  0.37865552049E+03  0.00000000000E+00 0. -1.
    9000007    1    1    2  502    0 -0.12823763729E+03 -0.72535142425E+03  0.21174998293E+04  0.22773636309E+04  0.40000000000E+03 0.  1.
   -9000007    1    1    2    0  501  0.12823763729E+03  0.72535142425E+03  0.28926100386E+03  0.88670824324E+03  0.40000000000E+03 0. -1.
<mgrwt>
<rscale>  2 0.83820020E+03</rscale>
<asrwt>0</asrwt>
<pdfrwt beam="1">  1        1 0.42852558E+00 0.83820020E+03</pdfrwt>
<pdfrwt beam="2">  1       -1 0.58254697E-01 0.83820020E+03</pdfrwt>
<totfact> 0.26777434E+00</totfact>
</mgrwt>
</event>
<event>
 4    1  0.2488810E-002  0.4064362E+03  0.7818608E-02  0.1041574E+00
          2   -1    0    0  502    0  0.00000000000E+00  0.00000000000E+00  0.14118850304E+04  0.14118850304E+04  0.00000000000E+00 0. -1.
         -2   -1    0    0    0  501 -0.00000000000E+00 -0.00000000000E+00 -0.11772516467E+03  0.11772516467E+03  0.00000000000E+00 0.  1.
    9000007    1    1    2  502    0 -0.34298926991E+02  0.63355679780E+02  0.70711081571E+03  0.81559552736E+03  0.40000000000E+03 0. -1.
   -9000007    1    1    2    0  501  0.34298926991E+02 -0.63355679780E+02  0.58704904998E+03  0.71401466766E+03  0.40000000000E+03 0.  1.
<mgrwt>
<rscale>  2 0.40643617E+03</rscale>
<asrwt>0</asrwt>
<pdfrwt beam="1">  1        2 0.21721307E+00 0.40643617E+03</pdfrwt>
<pdfrwt beam="2">  1       -2 0.18111565E-01 0.40643617E+03</pdfrwt>
<totfact> 0.37533937E+02</totfact>
</mgrwt>
</event>
<event>
 4    1  0.2488810E-002  0.4692791E+03  0.7818608E-02  0.1022124E+00
         -2   -1    0    0    0  501 -0.00000000000E+00  0.00000000000E+00  0.19817410846E+03  0.19817410846E+03  0.00000000000E+00 0. -1.
          2   -1    0    0  502    0  0.00000000000E+00 -0.00000000000E+00 -0.11114298581E+04  0.11114298581E+04  0.00000000000E+00 0.  1.
    9000007    1    1    2  502    0  0.19241169404E+03 -0.15231735476E+03 -0.46473758651E+03  0.66045731193E+03  0.40000000000E+03 0. -1.
   -9000007    1    1    2    0  501 -0.19241169404E+03  0.15231735476E+03 -0.44851816311E+03  0.64914665462E+03  0.40000000000E+03 0.  1.
<mgrwt>
<rscale>  2 0.46927906E+03</rscale>
<asrwt>0</asrwt>
<pdfrwt beam="1">  1        2 0.17098921E+00 0.46927906E+03</pdfrwt>
<pdfrwt beam="2">  1       -2 0.30488325E-01 0.46927906E+03</pdfrwt>
<totfact> 0.22004714E+02</totfact>
</mgrwt>
</event>
<event>
 4    1  0.2488810E-002  0.9232562E+03  0.7818608E-02  0.9396968E-01
         -2   -1    0    0    0  501 -0.00000000000E+00  0.00000000000E+00  0.27807330958E+03  0.27807330958E+03  0.00000000000E+00 0.  1.
          2   -1    0    0  502    0  0.00000000000E+00 -0.00000000000E+00 -0.30937247198E+04  0.30937247198E+04  0.00000000000E+00 0. -1.
    9000007    1    1    2  502    0 -0.21260059307E+03  0.80448922880E+03 -0.15691811248E+04  0.18206403636E+04  0.40000000000E+03 0. -1.
   -9000007    1    1    2    0  501  0.21260059307E+03 -0.80448922880E+03 -0.12464702855E+04  0.15511576657E+04  0.40000000000E+03 0.  1.
<mgrwt>
<rscale>  2 0.92325616E+03</rscale>
<asrwt>0</asrwt>
<pdfrwt beam="1">  1        2 0.47595767E+00 0.92325616E+03</pdfrwt>
<pdfrwt beam="2">  1       -2 0.42780508E-01 0.92325616E+03</pdfrwt>
<totfact> 0.81572782E+00</totfact>
</mgrwt>
</event>
<event>
 4    1  0.2488810E-002  0.4678670E+03  0.7818608E-02  0.1022524E+00
          2   -1    0    0  502    0  0.00000000000E+00  0.00000000000E+00  0.23797647647E+03  0.23797647647E+03  0.00000000000E+00 0.  1.
         -2   -1    0    0    0  501 -0.00000000000E+00 -0.00000000000E+00 -0.12390249131E+04  0.12390249131E+04  0.00000000000E+00 0. -1.
    9000007    1    1    2  502    0 -0.21123504641E+03 -0.11949596154E+03 -0.87535411011E+03  0.99254438074E+03  0.40000000000E+03 0. -1.
   -9000007    1    1    2    0  501  0.21123504641E+03  0.11949596154E+03 -0.12569432649E+03  0.48445700879E+03  0.40000000000E+03 0.  1.
<mgrwt>
<rscale>  2 0.46786700E+03</rscale>
<asrwt>0</asrwt>
<pdfrwt beam="1">  1        2 0.36611765E-01 0.46786700E+03</pdfrwt>
<pdfrwt beam="2">  1       -2 0.19061922E+00 0.46786700E+03</pdfrwt>
<totfact> 0.22782151E+01</totfact>
</mgrwt>
</event>
<event>
 4    1  0.2488810E-002  0.6013476E+03  0.7818608E-02  0.9902614E-01
          2   -1    0    0  502    0  0.00000000000E+00  0.00000000000E+00  0.16039821823E+04  0.16039821823E+04  0.00000000000E+00 0.  1.
         -2   -1    0    0    0  501 -0.00000000000E+00 -0.00000000000E+00 -0.29063141473E+03  0.29063141473E+03  0.00000000000E+00 0. -1.
    9000007    1    1    2  502    0  0.36885453219E+03 -0.25605711646E+03  0.11052956831E+04  0.12582914844E+04  0.40000000000E+03 0.  1.
   -9000007    1    1    2    0  501 -0.36885453219E+03  0.25605711646E+03  0.20805508452E+03  0.63632211261E+03  0.40000000000E+03 0. -1.
<mgrwt>
<rscale>  2 0.60134758E+03</rscale>
<asrwt>0</asrwt>
<pdfrwt beam="1">  1        2 0.24676649E+00 0.60134758E+03</pdfrwt>
<pdfrwt beam="2">  1       -2 0.44712526E-01 0.60134758E+03</pdfrwt>
<totfact> 0.54795090E+01</totfact>
</mgrwt>
</event>
<event>
 4    1  0.2488810E-002  0.5510154E+03  0.7818608E-02  0.1001259E+00
         -1   -1    0    0    0  501 -0.00000000000E+00  0.00000000000E+00  0.11876384128E+04  0.11876384128E+04  0.00000000000E+00 0.  1.
          1   -1    0    0  502    0  0.00000000000E+00 -0.00000000000E+00 -0.37163350670E+03  0.37163350670E+03  0.00000000000E+00 0. -1.
    9000007    1    1    2  502    0 -0.47051153905E+01  0.37894035046E+03 -0.27544959024E+02  0.55170340953E+03  0.40000000000E+03 0.  1.
   -9000007    1    1    2    0  501  0.47051153905E+01 -0.37894035046E+03  0.84354986511E+03  0.10075685099E+04  0.40000000000E+03 0. -1.
<mgrwt>
<rscale>  2 0.55101536E+03</rscale>
<asrwt>0</asrwt>
<pdfrwt beam="1">  1        1 0.57174386E-01 0.55101536E+03</pdfrwt>
<pdfrwt beam="2">  1       -1 0.18271360E+00 0.55101536E+03</pdfrwt>
<totfact> 0.13905971E+01</totfact>
</mgrwt>
</event>
<event>
 4    1  0.2488810E-002  0.5928119E+03  0.7818608E-02  0.9920432E-01
         -2   -1    0    0    0  501 -0.00000000000E+00  0.00000000000E+00  0.62445411393E+03  0.62445411393E+03  0.00000000000E+00 0.  1.
          2   -1    0    0  502    0  0.00000000000E+00 -0.00000000000E+00 -0.17587891749E+04  0.17587891749E+04  0.00000000000E+00 0. -1.
    9000007    1    1    2  502    0  0.38944939528E+03 -0.19938695175E+03 -0.15498201052E+04  0.16593276790E+04  0.40000000000E+03 0. -1.
   -9000007    1    1    2    0  501 -0.38944939528E+03  0.19938695175E+03  0.41548504426E+03  0.72391560973E+03  0.40000000000E+03 0.  1.
<mgrwt>
<rscale>  2 0.59281193E+03</rscale>
<asrwt>0</asrwt>
<pdfrwt beam="1">  1        2 0.27058294E+00 0.59281193E+03</pdfrwt>
<pdfrwt beam="2">  1       -2 0.96069866E-01 0.59281193E+03</pdfrwt>
<totfact> 0.87305400E+00</totfact>
</mgrwt>
</event>
<event>
 4    1  0.2488810E-002  0.4018380E+03  0.7818608E-02  0.1043145E+00
         -2   -1    0    0    0  501 -0.00000000000E+00  0.00000000000E+00  0.15692160711E+03  0.15692160711E+03  0.00000000000E+00 0. -1.
          2   -1    0    0  502    0  0.00000000000E+00 -0.00000000000E+00 -0.10359294410E+04  0.10359294410E+04  0.00000000000E+00 0.  1.
    9000007    1    1    2  502    0 -0.35832188727E+02  0.13778481126E+02 -0.39075681932E+03  0.56050395550E+03  0.40000000000E+03 0. -1.
   -9000007    1    1    2    0  501  0.35832188727E+02 -0.13778481126E+02 -0.48825101459E+03  0.63234709261E+03  0.40000000000E+03 0.  1.
<mgrwt>
<rscale>  2 0.40183802E+03</rscale>
<asrwt>0</asrwt>
<pdfrwt beam="1">  1        2 0.15937375E+00 0.40183802E+03</pdfrwt>
<pdfrwt beam="2">  1       -2 0.24141787E-01 0.40183802E+03</pdfrwt>
<totfact> 0.37531965E+02</totfact>
</mgrwt>
</event>
<event>
 4    1  0.2488810E-002  0.5836899E+03  0.7818608E-02  0.9939834E-01
         -1   -1    0    0    0  501 -0.00000000000E+00  0.00000000000E+00  0.33945401545E+03  0.33945401545E+03  0.00000000000E+00 0. -1.
          1   -1    0    0  502    0  0.00000000000E+00 -0.00000000000E+00 -0.13148139380E+04  0.13148139380E+04  0.00000000000E+00 0.  1.
    9000007    1    1    2  502    0 -0.42441424261E+03 -0.23801412791E+02 -0.89005999332E+03  0.10643781040E+04  0.40000000000E+03 0.  1.
   -9000007    1    1    2    0  501  0.42441424261E+03  0.23801412791E+02 -0.85299929269E+02  0.58988984947E+03  0.40000000000E+03 0. -1.
<mgrwt>
<rscale>  2 0.58368995E+03</rscale>
<asrwt>0</asrwt>
<pdfrwt beam="1">  1        1 0.20227907E+00 0.58368995E+03</pdfrwt>
<pdfrwt beam="2">  1       -1 0.52223695E-01 0.58368995E+03</pdfrwt>
<totfact> 0.34291855E+01</totfact>
</mgrwt>
</event>
<event>
 4    1  0.2488810E-002  0.4102531E+03  0.7818608E-02  0.1040286E+00
          2   -1    0    0  502    0  0.00000000000E+00  0.00000000000E+00  0.38280373142E+04  0.38280373142E+04  0.00000000000E+00 0.  1.
         -2   -1    0    0    0  501 -0.00000000000E+00 -0.00000000000E+00 -0.46811937749E+02  0.46811937749E+02  0.00000000000E+00 0. -1.
    9000007    1    1    2  502    0 -0.86553789111E+02 -0.28567128402E+02  0.14129993389E+04  0.14713513418E+04  0.40000000000E+03 0. -1.
   -9000007    1    1    2    0  501  0.86553789111E+02  0.28567128402E+02  0.23682260375E+04  0.24034979101E+04  0.40000000000E+03 0.  1.
<mgrwt>
<rscale>  2 0.41025314E+03</rscale>
<asrwt>0</asrwt>
<pdfrwt beam="1">  1        2 0.58892857E+00 0.41025314E+03</pdfrwt>
<pdfrwt beam="2">  1       -2 0.72018396E-02 0.41025314E+03</pdfrwt>
<totfact> 0.63805183E+01</totfact>
</mgrwt>
</event>
<event>
 4    1  0.2488810E-002  0.4131700E+03  0.7818608E-02  0.1039312E+00
          1   -1    0    0  502    0  0.00000000000E+00  0.00000000000E+00  0.74270053011E+03  0.74270053011E+03  0.00000000000E+00 0.  1.
         -1   -1    0    0    0  501 -0.00000000000E+00 -0.00000000000E+00 -0.28728176358E+03  0.28728176358E+03  0.00000000000E+00 0. -1.
    9000007    1    1    2  502    0  0.10110208711E+03 -0.22087403949E+02 -0.25529963159E+01  0.41317793167E+03  0.40000000000E+03 0. -1.
   -9000007    1    1    2    0  501 -0.10110208711E+03  0.22087403949E+02  0.45797176285E+03  0.61680436201E+03  0.40000000000E+03 0.  1.
<mgrwt>
<rscale>  2 0.41317004E+03</rscale>
<asrwt>0</asrwt>
<pdfrwt beam="1">  1        1 0.11426162E+00 0.41317004E+03</pdfrwt>
<pdfrwt beam="2">  1       -1 0.44197195E-01 0.41317004E+03</pdfrwt>
<totfact> 0.13194443E+02</totfact>
</mgrwt>
</event>
<event>
 4    1  0.2488810E-002  0.4143203E+03  0.7818608E-02  0.1038931E+00
         -2   -1    0    0    0  501 -0.00000000000E+00  0.00000000000E+00  0.75414656748E+02  0.75414656748E+02  0.00000000000E+00 0. -1.
          2   -1    0    0  502    0  0.00000000000E+00 -0.00000000000E+00 -0.23056327873E+04  0.23056327873E+04  0.00000000000E+00 0.  1.
    9000007    1    1    2  502    0 -0.10798358589E+03 -0.92731215864E+00 -0.98067274704E+03  0.10646033776E+04  0.40000000000E+03 0. -1.
   -9000007    1    1    2    0  501  0.10798358589E+03  0.92731215864E+00 -0.12495453835E+04  0.13164440665E+04  0.40000000000E+03 0. -1.
<mgrwt>
<rscale>  2 0.41432030E+03</rscale>
<asrwt>0</asrwt>
<pdfrwt beam="1">  1        2 0.35471275E+00 0.41432030E+03</pdfrwt>
<pdfrwt beam="2">  1       -2 0.11602255E-01 0.41432030E+03</pdfrwt>
<totfact> 0.26019298E+02</totfact>
</mgrwt>
</event>
<event>
 4    1  0.2488810E-002  0.4833478E+03  0.7818608E-02  0.1018219E+00
         -1   -1    0    0    0  501 -0.00000000000E+00  0.00000000000E+00  0.12359303786E+03  0.12359303786E+03  0.00000000000E+00 0. -1.
          1   -1    0    0  502    0  0.00000000000E+00 -0.00000000000E+00 -0.18969328475E+04  0.18969328475E+04  0.00000000000E+00 0.  1.
    9000007    1    1    2  502    0  0.42640834707E+01 -0.27130594384E+03 -0.94651170485E+03  0.10627838468E+04  0.40000000000E+03 0. -1.
   -9000007    1    1    2    0  501 -0.42640834707E+01  0.27130594384E+03 -0.82682810478E+03  0.95774203856E+03  0.40000000000E+03 0. -1.
<mgrwt>
<rscale>  2 0.48334780E+03</rscale>
<asrwt>0</asrwt>
<pdfrwt beam="1">  1        1 0.29183582E+00 0.48334780E+03</pdfrwt>
<pdfrwt beam="2">  1       -1 0.19014314E-01 0.48334780E+03</pdfrwt>
<totfact> 0.82969994E+01</totfact>
</mgrwt>
</event>
<event>
 4    1  0.2488810E-002  0.4250758E+03  0.7818608E-02  0.1035427E+00
         -2   -1    0    0    0  501 -0.00000000000E+00  0.00000000000E+00  0.27955923681E+03  0.27955923681E+03  0.00000000000E+00 0.  1.
          2   -1    0    0  502    0  0.00000000000E+00 -0.00000000000E+00 -0.96833890557E+03  0.96833890557E+03  0.00000000000E+00 0. -1.
    9000007    1    1    2  502    0  0.11815215130E+03  0.82033344400E+02 -0.70419290141E+03  0.82254303404E+03  0.40000000000E+03 0. -1.
   -9000007    1    1    2    0  501 -0.11815215130E+03 -0.82033344400E+02  0.15413232655E+02  0.42535510834E+03  0.40000000000E+03 0.  1.
<mgrwt>
<rscale>  2 0.42507576E+03</rscale>
<asrwt>0</asrwt>
<pdfrwt beam="1">  1        2 0.14897522E+00 0.42507576E+03</pdfrwt>
<pdfrwt beam="2">  1       -2 0.43009113E-01 0.42507576E+03</pdfrwt>
<totfact> 0.14081893E+02</totfact>
</mgrwt>
</event>
<event>
 4    1  0.2488810E-002  0.4252587E+03  0.7818608E-02  0.1035368E+00
          2   -1    0    0  502    0  0.00000000000E+00  0.00000000000E+00  0.22446292083E+04  0.22446292083E+04  0.00000000000E+00 0. -1.
         -2   -1    0    0    0  501 -0.00000000000E+00 -0.00000000000E+00 -0.85388395827E+02  0.85388395827E+02  0.00000000000E+00 0.  1.
    9000007    1    1    2  502    0 -0.47164335538E+02 -0.13645678653E+03  0.13564281867E+04  0.14215281759E+04  0.40000000000E+03 0.  1.
   -9000007    1    1    2    0  501  0.47164335538E+02  0.13645678653E+03  0.80281262574E+03  0.90848942822E+03  0.40000000000E+03 0.  1.
<mgrwt>
<rscale>  2 0.42525866E+03</rscale>
<asrwt>0</asrwt>
<pdfrwt beam="1">  1        2 0.34532753E+00 0.42525866E+03</pdfrwt>
<pdfrwt beam="2">  1       -2 0.13136678E-01 0.42525866E+03</pdfrwt>
<totfact> 0.22866221E+02</totfact>
</mgrwt>
</event>
<event>
 4    1  0.2488810E-002  0.4082271E+03  0.7818608E-02  0.1040968E+00
          4   -1    0    0  502    0  0.00000000000E+00  0.00000000000E+00  0.19192852670E+03  0.19192852670E+03  0.00000000000E+00 0. -1.
         -4   -1    0    0    0  501 -0.00000000000E+00 -0.00000000000E+00 -0.89564636605E+03  0.89564636605E+03  0.00000000000E+00 0.  1.
    9000007    1    1    2  502    0  0.44424371854E+02  0.68380302041E+02 -0.25682041258E+03  0.48229256146E+03  0.40000000000E+03 0. -1.
   -9000007    1    1    2    0  501 -0.44424371854E+02 -0.68380302041E+02 -0.44689742677E+03  0.60528233129E+03  0.40000000000E+03 0.  1.
<mgrwt>
<rscale>  2 0.40822713E+03</rscale>
<asrwt>0</asrwt>
<pdfrwt beam="1">  1        4 0.29527465E-01 0.40822713E+03</pdfrwt>
<pdfrwt beam="2">  1       -4 0.13779175E+00 0.40822713E+03</pdfrwt>
<totfact> 0.80137485E+00</totfact>
</mgrwt>
</event>
<event>
 4    1  0.2488810E-002  0.6638958E+03  0.7818608E-02  0.9781048E-01
          2   -1    0    0  502    0  0.00000000000E+00  0.00000000000E+00  0.39150288755E+03  0.39150288755E+03  0.00000000000E+00 0.  1.
         -2   -1    0    0    0  501 -0.00000000000E+00 -0.00000000000E+00 -0.11259827540E+04  0.11259827540E+04  0.00000000000E+00 0. -1.
    9000007    1    1    2  502    0  0.26220144948E+03 -0.46044332466E+03 -0.37665270715E+03  0.76329870767E+03  0.40000000000E+03 0.  1.
   -9000007    1    1    2    0  501 -0.26220144948E+03  0.46044332466E+03 -0.35782715933E+03  0.75418693392E+03  0.40000000000E+03 0.  1.
<mgrwt>
<rscale>  2 0.66389582E+03</rscale>
<asrwt>0</asrwt>
<pdfrwt beam="1">  1        2 0.60231214E-01 0.66389582E+03</pdfrwt>
<pdfrwt beam="2">  1       -2 0.17322812E+00 0.66389582E+03</pdfrwt>
<totfact> 0.16854988E+01</totfact>
</mgrwt>
</event>
<event>
 4    1  0.2488810E-002  0.4887631E+03  0.7818608E-02  0.1016754E+00
          1   -1    0    0  502    0  0.00000000000E+00  0.00000000000E+00  0.29960321459E+03  0.29960321459E+03  0.00000000000E+00 0.  1.
         -1   -1    0    0    0  501 -0.00000000000E+00 -0.00000000000E+00 -0.12512964893E+04  0.12512964893E+04  0.00000000000E+00 0. -1.
    9000007    1    1    2  502    0  0.28051697643E+03  0.14128213231E+02 -0.94290884312E+03  0.10620576571E+04  0.40000000000E+03 0. -1.
   -9000007    1    1    2    0  501 -0.28051697643E+03 -0.14128213231E+02 -0.87844315553E+01  0.48884204679E+03  0.40000000000E+03 0.  1.
<mgrwt>
<rscale>  2 0.48876311E+03</rscale>
<asrwt>0</asrwt>
<pdfrwt beam="1">  1        1 0.46092802E-01 0.48876311E+03</pdfrwt>
<pdfrwt beam="2">  1       -1 0.19250715E+00 0.48876311E+03</pdfrwt>
<totfact> 0.15867488E+01</totfact>
</mgrwt>
</event>
<event>
 4    1  0.2488810E-002  0.4203224E+03  0.7818608E-02  0.1036961E+00
         -2   -1    0    0    0  501 -0.00000000000E+00  0.00000000000E+00  0.24620970814E+03  0.24620970814E+03  0.00000000000E+00 0.  1.
          2   -1    0    0  502    0  0.00000000000E+00 -0.00000000000E+00 -0.80347912027E+03  0.80347912027E+03  0.00000000000E+00 0. -1.
    9000007    1    1    2  502    0  0.79860799635E+01 -0.12886859279E+03 -0.10700933697E+03  0.43373020402E+03  0.40000000000E+03 0.  1.
   -9000007    1    1    2    0  501 -0.79860799635E+01  0.12886859279E+03 -0.45026007517E+03  0.61595862440E+03  0.40000000000E+03 0. -1.
<mgrwt>
<rscale>  2 0.42032237E+03</rscale>
<asrwt>0</asrwt>
<pdfrwt beam="1">  1        2 0.12361217E+00 0.42032237E+03</pdfrwt>
<pdfrwt beam="2">  1       -2 0.37878417E-01 0.42032237E+03</pdfrwt>
<totfact> 0.23204430E+02</totfact>
</mgrwt>
</event>
<event>
 4    1  0.2488810E-002  0.4138237E+03  0.7818608E-02  0.1039095E+00
         -2   -1    0    0    0  501 -0.00000000000E+00  0.00000000000E+00  0.25138504778E+03  0.25138504778E+03  0.00000000000E+00 0.  1.
          2   -1    0    0  502    0  0.00000000000E+00 -0.00000000000E+00 -0.76564613969E+03  0.76564613969E+03  0.00000000000E+00 0. -1.
    9000007    1    1    2  502    0 -0.95118133281E+02 -0.46932067002E+02 -0.42598509777E+03  0.59389677698E+03  0.40000000000E+03 0. -1.
   -9000007    1    1    2    0  501  0.95118133281E+02  0.46932067002E+02 -0.88275994148E+02  0.42313441048E+03  0.40000000000E+03 0.  1.
<mgrwt>
<rscale>  2 0.41382373E+03</rscale>
<asrwt>0</asrwt>
<pdfrwt beam="1">  1        2 0.11779171E+00 0.41382373E+03</pdfrwt>
<pdfrwt beam="2">  1       -2 0.38674624E-01 0.41382373E+03</pdfrwt>
<totfact> 0.23741060E+02</totfact>
</mgrwt>
</event>
<event>
 4    1  0.2488810E-002  0.4694648E+03  0.7818608E-02  0.1022071E+00
         -1   -1    0    0    0  501 -0.00000000000E+00  0.00000000000E+00  0.96405800042E+03  0.96405800042E+03  0.00000000000E+00 0. -1.
          1   -1    0    0  502    0  0.00000000000E+00 -0.00000000000E+00 -0.22943346977E+03  0.22943346977E+03  0.00000000000E+00 0.  1.
    9000007    1    1    2  502    0  0.74420620390E+02  0.23421947786E+03  0.40297521658E+03  0.61869719389E+03  0.40000000000E+03 0. -1.
   -9000007    1    1    2    0  501 -0.74420620390E+02 -0.23421947786E+03  0.33164931406E+03  0.57479427630E+03  0.40000000000E+03 0.  1.
<mgrwt>
<rscale>  2 0.46946479E+03</rscale>
<asrwt>0</asrwt>
<pdfrwt beam="1">  1        1 0.35297458E-01 0.46946479E+03</pdfrwt>
<pdfrwt beam="2">  1       -1 0.14831661E+00 0.46946479E+03</pdfrwt>
<totfact> 0.46900731E+01</totfact>
</mgrwt>
</event>
<event>
 4    1  0.2488810E-002  0.4430372E+03  0.7818608E-02  0.1029819E+00
         -2   -1    0    0    0  501 -0.00000000000E+00  0.00000000000E+00  0.11221644469E+03  0.11221644469E+03  0.00000000000E+00 0.  1.
          2   -1    0    0  502    0  0.00000000000E+00 -0.00000000000E+00 -0.17693638069E+04  0.17693638069E+04  0.00000000000E+00 0. -1.
    9000007    1    1    2  502    0  0.13530593429E+03 -0.13406827389E+03 -0.72798667901E+03  0.85220103423E+03  0.40000000000E+03 0. -1.
   -9000007    1    1    2    0  501 -0.13530593429E+03  0.13406827389E+03 -0.92916068315E+03  0.10293792173E+04  0.40000000000E+03 0.  1.
<mgrwt>
<rscale>  2 0.44303724E+03</rscale>
<asrwt>0</asrwt>
<pdfrwt beam="1">  1        2 0.27220981E+00 0.44303724E+03</pdfrwt>
<pdfrwt beam="2">  1       -2 0.17264069E-01 0.44303724E+03</pdfrwt>
<totfact> 0.25967438E+02</totfact>
</mgrwt>
</event>
<event>
 4    1  0.2488810E-002  0.5251265E+03  0.7818608E-02  0.1007421E+00
          1   -1    0    0  502    0  0.00000000000E+00  0.00000000000E+00  0.19943832388E+04  0.19943832388E+04  0.00000000000E+00 0.  1.
         -1   -1    0    0    0  501 -0.00000000000E+00 -0.00000000000E+00 -0.14390878269E+03  0.14390878269E+03  0.00000000000E+00 0. -1.
    9000007    1    1    2  502    0 -0.15144748807E+03 -0.30466621847E+03  0.71355095937E+03  0.88595305628E+03  0.40000000000E+03 0. -1.
   -9000007    1    1    2    0  501  0.15144748807E+03  0.30466621847E+03  0.11369234967E+04  0.12523389652E+04  0.40000000000E+03 0.  1.
<mgrwt>
<rscale>  2 0.52512651E+03</rscale>
<asrwt>0</asrwt>
<pdfrwt beam="1">  1        1 0.30682817E+00 0.52512651E+03</pdfrwt>
<pdfrwt beam="2">  1       -1 0.22139814E-01 0.52512651E+03</pdfrwt>
<totfact> 0.55195328E+01</totfact>
</mgrwt>
</event>
<event>
 4    1  0.2488810E-002  0.4090875E+03  0.7818608E-02  0.1040678E+00
         -1   -1    0    0    0  501 -0.00000000000E+00  0.00000000000E+00  0.25644562639E+03  0.25644562639E+03  0.00000000000E+00 0.  1.
          1   -1    0    0  502    0  0.00000000000E+00 -0.00000000000E+00 -0.16599514764E+04  0.16599514764E+04  0.00000000000E+00 0. -1.
    9000007    1    1    2  502    0  0.33550402040E+02  0.78911304760E+02 -0.14482042870E+04  0.15048748388E+04  0.40000000000E+03 0. -1.
   -9000007    1    1    2    0  501 -0.33550402040E+02 -0.78911304760E+02  0.44698437008E+02  0.41152226400E+03  0.40000000000E+03 0.  1.
<mgrwt>
<rscale>  2 0.40908755E+03</rscale>
<asrwt>0</asrwt>
<pdfrwt beam="1">  1        1 0.25537714E+00 0.40908755E+03</pdfrwt>
<pdfrwt beam="2">  1       -1 0.39453174E-01 0.40908755E+03</pdfrwt>
<totfact> 0.34647859E+01</totfact>
</mgrwt>
</event>
<event>
 4    1  0.2488810E-002  0.4315341E+03  0.7818608E-02  0.1033376E+00
         -2   -1    0    0    0  501 -0.00000000000E+00  0.00000000000E+00  0.25765024872E+03  0.25765024872E+03  0.00000000000E+00 0. -1.
          2   -1    0    0  502    0  0.00000000000E+00 -0.00000000000E+00 -0.75353739046E+03  0.75353739046E+03  0.00000000000E+00 0.  1.
    9000007    1    1    2  502    0  0.14783879490E+03  0.66070772652E+02 -0.35010819611E+03  0.55569542490E+03  0.40000000000E+03 0.  1.
   -9000007    1    1    2    0  501 -0.14783879490E+03 -0.66070772652E+02 -0.14577894564E+03  0.45549221428E+03  0.40000000000E+03 0.  1.
<mgrwt>
<rscale>  2 0.43153407E+03</rscale>
<asrwt>0</asrwt>
<pdfrwt beam="1">  1        2 0.11592883E+00 0.43153407E+03</pdfrwt>
<pdfrwt beam="2">  1       -2 0.39638500E-01 0.43153407E+03</pdfrwt>
<totfact> 0.23074655E+02</totfact>
</mgrwt>
</event>
<event>
 4    1  0.2488810E-002  0.4696981E+03  0.7818608E-02  0.1022005E+00
         -2   -1    0    0    0  501 -0.00000000000E+00  0.00000000000E+00  0.13779147513E+03  0.13779147513E+03  0.00000000000E+00 0.  1.
          2   -1    0    0  502    0  0.00000000000E+00 -0.00000000000E+00 -0.16062680874E+04  0.16062680874E+04  0.00000000000E+00 0. -1.
    9000007    1    1    2  502    0  0.19410068720E+03 -0.15146371142E+03 -0.68471906103E+03  0.83033518845E+03  0.40000000000E+03 0.  1.
   -9000007    1    1    2    0  501 -0.19410068720E+03  0.15146371142E+03 -0.78375755121E+03  0.91372437405E+03  0.40000000000E+03 0.  1.
<mgrwt>
<rscale>  2 0.46969813E+03</rscale>
<asrwt>0</asrwt>
<pdfrwt beam="1">  1        2 0.24711817E+00 0.46969813E+03</pdfrwt>
<pdfrwt beam="2">  1       -2 0.21198689E-01 0.46969813E+03</pdfrwt>
<totfact> 0.22232195E+02</totfact>
</mgrwt>
</event>
<event>
 4    1  0.2488810E-002  0.5051109E+03  0.7818608E-02  0.1012453E+00
          1   -1    0    0  502    0  0.00000000000E+00  0.00000000000E+00  0.32845062949E+03  0.32845062949E+03  0.00000000000E+00 0.  1.
         -1   -1    0    0    0  501 -0.00000000000E+00 -0.00000000000E+00 -0.87362441606E+03  0.87362441606E+03  0.00000000000E+00 0. -1.
    9000007    1    1    2  502    0  0.26604669145E+03  0.15606475252E+03 -0.72483311899E+02  0.51028509631E+03  0.40000000000E+03 0.  1.
   -9000007    1    1    2    0  501 -0.26604669145E+03 -0.15606475252E+03 -0.47269047467E+03  0.69178994923E+03  0.40000000000E+03 0. -1.
<mgrwt>
<rscale>  2 0.50511093E+03</rscale>
<asrwt>0</asrwt>
<pdfrwt beam="1">  1        1 0.50530867E-01 0.50511093E+03</pdfrwt>
<pdfrwt beam="2">  1       -1 0.13440375E+00 0.50511093E+03</pdfrwt>
<totfact> 0.38031774E+01</totfact>
</mgrwt>
</event>
<event>
 4    1  0.2488810E-002  0.4586131E+03  0.7818608E-02  0.1025184E+00
         -1   -1    0    0    0  501 -0.00000000000E+00  0.00000000000E+00  0.17526132466E+03  0.17526132466E+03  0.00000000000E+00 0.  1.
          1   -1    0    0  502    0  0.00000000000E+00 -0.00000000000E+00 -0.17017717057E+04  0.17017717057E+04  0.00000000000E+00 0. -1.
    9000007    1    1    2  502    0 -0.48167403924E+02 -0.21910252011E+03 -0.25367366400E+03  0.52409573642E+03  0.40000000000E+03 0.  1.
   -9000007    1    1    2    0  501  0.48167403924E+02  0.21910252011E+03 -0.12728367171E+04  0.13529372940E+04  0.40000000000E+03 0. -1.
<mgrwt>
<rscale>  2 0.45861314E+03</rscale>
<asrwt>0</asrwt>
<pdfrwt beam="1">  1        1 0.26181102E+00 0.45861314E+03</pdfrwt>
<pdfrwt beam="2">  1       -1 0.26963281E-01 0.45861314E+03</pdfrwt>
<totfact> 0.62542705E+01</totfact>
</mgrwt>
</event>
<event>
 4    1  0.2488810E-002  0.4310445E+03  0.7818608E-02  0.1033531E+00
          2   -1    0    0  502    0  0.00000000000E+00  0.00000000000E+00  0.13936159339E+03  0.13936159339E+03  0.00000000000E+00 0.  1.
         -2   -1    0    0    0  501 -0.00000000000E+00 -0.00000000000E+00 -0.15556417511E+04  0.15556417511E+04  0.00000000000E+00 0. -1.
    9000007    1    1    2  502    0  0.32841700447E+02  0.15722841187E+03 -0.10286021147E+04  0.11152675290E+04  0.40000000000E+03 0.  1.
   -9000007    1    1    2    0  501 -0.32841700447E+02 -0.15722841187E+03 -0.38767804301E+03  0.57973581554E+03  0.40000000000E+03 0.  1.
<mgrwt>
<rscale>  2 0.43104449E+03</rscale>
<asrwt>0</asrwt>
<pdfrwt beam="1">  1        2 0.21440246E-01 0.43104449E+03</pdfrwt>
<pdfrwt beam="2">  1       -2 0.23932950E+00 0.43104449E+03</pdfrwt>
<totfact> 0.20748716E+01</totfact>
</mgrwt>
</event>
<event>
 4    1  0.2488810E-002  0.4214484E+03  0.7818608E-02  0.1036596E+00
         -1   -1    0    0    0  501 -0.00000000000E+00  0.00000000000E+00  0.29595543137E+03  0.29595543137E+03  0.00000000000E+00 0. -1.
          1   -1    0    0  502    0  0.00000000000E+00 -0.00000000000E+00 -0.69290833784E+03  0.69290833784E+03  0.00000000000E+00 0.  1.
    9000007    1    1    2  502    0  0.11165887066E+03 -0.71770694103E+02 -0.37937558473E+03  0.56704900160E+03  0.40000000000E+03 0.  1.
   -9000007    1    1    2    0  501 -0.11165887066E+03  0.71770694103E+02 -0.17577321747E+02  0.42181476761E+03  0.40000000000E+03 0. -1.
<mgrwt>
<rscale>  2 0.42144838E+03</rscale>
<asrwt>0</asrwt>
<pdfrwt beam="1">  1        1 0.10660128E+00 0.42144838E+03</pdfrwt>
<pdfrwt beam="2">  1       -1 0.45531605E-01 0.42144838E+03</pdfrwt>
<totfact> 0.13850218E+02</totfact>
</mgrwt>
</event>
<event>
 4    1  0.2488810E-002  0.5329638E+03  0.7818608E-02  0.1005516E+00
         -2   -1    0    0    0  501 -0.00000000000E+00  0.00000000000E+00  0.32772177542E+03  0.32772177542E+03  0.00000000000E+00 0.  1.
          2   -1    0    0  502    0  0.00000000000E+00 -0.00000000000E+00 -0.96418954698E+03  0.96418954698E+03  0.00000000000E+00 0. -1.
    9000007    1    1    2  502    0 -0.34859187624E+03 -0.50339933736E+02 -0.52358910464E+03  0.74712512714E+03  0.40000000000E+03 0. -1.
   -9000007    1    1    2    0  501  0.34859187624E+03  0.50339933736E+02 -0.11287866692E+03  0.54478619527E+03  0.40000000000E+03 0.  1.
<mgrwt>
<rscale>  2 0.53296379E+03</rscale>
<asrwt>0</asrwt>
<pdfrwt beam="1">  1        2 0.14833685E+00 0.53296379E+03</pdfrwt>
<pdfrwt beam="2">  1       -2 0.50418736E-01 0.53296379E+03</pdfrwt>
<totfact> 0.10202935E+02</totfact>
</mgrwt>
</event>
<event>
 4    1  0.2488810E-002  0.7705653E+03  0.7818608E-02  0.9603628E-01
          4   -1    0    0  502    0  0.00000000000E+00  0.00000000000E+00  0.48593738731E+03  0.48593738731E+03  0.00000000000E+00 0.  1.
         -4   -1    0    0    0  501 -0.00000000000E+00 -0.00000000000E+00 -0.17858487349E+04  0.17858487349E+04  0.00000000000E+00 0. -1.
    9000007    1    1    2  502    0  0.49663503253E+03  0.43257887720E+03 -0.12882658926E+04  0.15011328557E+04  0.40000000000E+03 0. -1.
   -9000007    1    1    2    0  501 -0.49663503253E+03 -0.43257887720E+03 -0.11645455010E+02  0.77065326649E+03  0.40000000000E+03 0.  1.
<mgrwt>
<rscale>  2 0.77056527E+03</rscale>
<asrwt>0</asrwt>
<pdfrwt beam="1">  1        4 0.74759596E-01 0.77056527E+03</pdfrwt>
<pdfrwt beam="2">  1       -4 0.27474597E+00 0.77056527E+03</pdfrwt>
<totfact> 0.14267979E-01</totfact>
</mgrwt>
</event>
<event>
 4    1  0.2488810E-002  0.4890301E+03  0.7818608E-02  0.1016683E+00
         -1   -1    0    0    0  501 -0.00000000000E+00  0.00000000000E+00  0.14331695776E+03  0.14331695776E+03  0.00000000000E+00 0.  1.
          1   -1    0    0  502    0  0.00000000000E+00 -0.00000000000E+00 -0.19115805337E+04  0.19115805337E+04  0.00000000000E+00 0. -1.
    9000007    1    1    2  502    0 -0.27181271402E+03  0.72582910460E+02 -0.12503806605E+04  0.13426102288E+04  0.40000000000E+03 0. -1.
   -9000007    1    1    2    0  501  0.27181271402E+03 -0.72582910460E+02 -0.51788291544E+03  0.71228726263E+03  0.40000000000E+03 0.  1.
<mgrwt>
<rscale>  2 0.48903009E+03</rscale>
<asrwt>0</asrwt>
<pdfrwt beam="1">  1        1 0.29408930E+00 0.48903009E+03</pdfrwt>
<pdfrwt beam="2">  1       -1 0.22048764E-01 0.48903009E+03</pdfrwt>
<totfact> 0.63430245E+01</totfact>
</mgrwt>
</event>
<event>
 4    1  0.2488810E-002  0.4274880E+03  0.7818608E-02  0.1034656E+00
          2   -1    0    0  502    0  0.00000000000E+00  0.00000000000E+00  0.57361474974E+03  0.57361474974E+03  0.00000000000E+00 0. -1.
         -2   -1    0    0    0  501 -0.00000000000E+00 -0.00000000000E+00 -0.53536216744E+03  0.53536216744E+03  0.00000000000E+00 0.  1.
    9000007    1    1    2  502    0  0.59947885742E+02 -0.13839159008E+03  0.37196304951E+03  0.56665906100E+03  0.40000000000E+03 0. -1.
   -9000007    1    1    2    0  501 -0.59947885742E+02  0.13839159008E+03 -0.33371046721E+03  0.54231785618E+03  0.40000000000E+03 0.  1.
<mgrwt>
<rscale>  2 0.42748799E+03</rscale>
<asrwt>0</asrwt>
<pdfrwt beam="1">  1        2 0.88248423E-01 0.42748799E+03</pdfrwt>
<pdfrwt beam="2">  1       -2 0.82363411E-01 0.42748799E+03</pdfrwt>
<totfact> 0.70410862E+01</totfact>
</mgrwt>
</event>
<event>
 4    1  0.2488810E-002  0.7473556E+03  0.7818608E-02  0.9639508E-01
          1   -1    0    0  502    0  0.00000000000E+00  0.00000000000E+00  0.73867052179E+03  0.73867052179E+03  0.00000000000E+00 0. -1.
         -1   -1    0    0    0  501 -0.00000000000E+00 -0.00000000000E+00 -0.75630286878E+03  0.75630286878E+03  0.00000000000E+00 0.  1.
    9000007    1    1    2  502    0 -0.12586437296E+03  0.61862629849E+03 -0.19693379398E+02  0.74761498564E+03  0.40000000000E+03 0.  1.
   -9000007    1    1    2    0  501  0.12586437296E+03 -0.61862629849E+03  0.20610324123E+01  0.74735840493E+03  0.40000000000E+03 0. -1.
<mgrwt>
<rscale>  2 0.74735556E+03</rscale>
<asrwt>0</asrwt>
<pdfrwt beam="1">  1        1 0.11364162E+00 0.74735556E+03</pdfrwt>
<pdfrwt beam="2">  1       -1 0.11635429E+00 0.74735556E+03</pdfrwt>
<totfact> 0.17209129E+01</totfact>
</mgrwt>
</event>
<event>
 4    1  0.2488810E-002  0.5014909E+03  0.7818608E-02  0.1013391E+00
          2   -1    0    0  502    0  0.00000000000E+00  0.00000000000E+00  0.29459008103E+03  0.29459008103E+03  0.00000000000E+00 0. -1.
         -2   -1    0    0    0  501 -0.00000000000E+00 -0.00000000000E+00 -0.89900129109E+03  0.89900129109E+03  0.00000000000E+00 0.  1.
    9000007    1    1    2  502    0  0.19445701997E+03 -0.23168855427E+03 -0.16824555079E+03  0.52896094767E+03  0.40000000000E+03 0.  1.
   -9000007    1    1    2    0  501 -0.19445701997E+03  0.23168855427E+03 -0.43616565927E+03  0.66463042446E+03  0.40000000000E+03 0.  1.
<mgrwt>
<rscale>  2 0.50149090E+03</rscale>
<asrwt>0</asrwt>
<pdfrwt beam="1">  1        2 0.45321551E-01 0.50149090E+03</pdfrwt>
<pdfrwt beam="2">  1       -2 0.13830789E+00 0.50149090E+03</pdfrwt>
<totfact> 0.42775372E+01</totfact>
</mgrwt>
</event>
<event>
 4    1  0.2488810E-002  0.4684387E+03  0.7818608E-02  0.1022362E+00
         -1   -1    0    0    0  501 -0.00000000000E+00  0.00000000000E+00  0.51765235564E+03  0.51765235564E+03  0.00000000000E+00 0.  1.
          1   -1    0    0  502    0  0.00000000000E+00 -0.00000000000E+00 -0.42481066571E+03  0.42481066571E+03  0.00000000000E+00 0. -1.
    9000007    1    1    2  502    0  0.23867753273E+03  0.49677364433E+02  0.68193230210E+02  0.47337630044E+03  0.40000000000E+03 0. -1.
   -9000007    1    1    2    0  501 -0.23867753273E+03 -0.49677364433E+02  0.24648459717E+02  0.46908672091E+03  0.40000000000E+03 0.  1.
<mgrwt>
<rscale>  2 0.46843869E+03</rscale>
<asrwt>0</asrwt>
<pdfrwt beam="1">  1        1 0.65355487E-01 0.46843869E+03</pdfrwt>
<pdfrwt beam="2">  1       -1 0.79638824E-01 0.46843869E+03</pdfrwt>
<totfact> 0.90876836E+01</totfact>
</mgrwt>
</event>
<event>
 4    1  0.2488810E-002  0.4420169E+03  0.7818608E-02  0.1030130E+00
          2   -1    0    0  502    0  0.00000000000E+00  0.00000000000E+00  0.98782745639E+03  0.98782745639E+03  0.00000000000E+00 0. -1.
         -2   -1    0    0    0  501 -0.00000000000E+00 -0.00000000000E+00 -0.19911326104E+03  0.19911326104E+03  0.00000000000E+00 0.  1.
    9000007    1    1    2  502    0  0.14059139515E+03  0.12495198641E+03  0.34591258222E+03  0.56127930109E+03  0.40000000000E+03 0.  1.
   -9000007    1    1    2    0  501 -0.14059139515E+03 -0.12495198641E+03  0.44280161313E+03  0.62566141633E+03  0.40000000000E+03 0. -1.
<mgrwt>
<rscale>  2 0.44201690E+03</rscale>
<asrwt>0</asrwt>
<pdfrwt beam="1">  1        2 0.15197345E+00 0.44201690E+03</pdfrwt>
<pdfrwt beam="2">  1       -2 0.30632810E-01 0.44201690E+03</pdfrwt>
<totfact> 0.26041837E+02</totfact>
</mgrwt>
</event>
<event>
 4    1  0.2488810E-002  0.5644005E+03  0.7818608E-02  0.9982147E-01
          1   -1    0    0  502    0  0.00000000000E+00  0.00000000000E+00  0.91236904565E+03  0.91236904565E+03  0.00000000000E+00 0.  1.
         -1   -1    0    0    0  501 -0.00000000000E+00 -0.00000000000E+00 -0.36291672811E+03  0.36291672811E+03  0.00000000000E+00 0. -1.
    9000007    1    1    2  502    0  0.29117091758E+03 -0.27160151633E+03  0.15050686826E+03  0.58412344955E+03  0.40000000000E+03 0. -1.
   -9000007    1    1    2    0  501 -0.29117091758E+03  0.27160151633E+03  0.39894544927E+03  0.69116232421E+03  0.40000000000E+03 0.  1.
<mgrwt>
<rscale>  2 0.56440047E+03</rscale>
<asrwt>0</asrwt>
<pdfrwt beam="1">  1        1 0.14036447E+00 0.56440047E+03</pdfrwt>
<pdfrwt beam="2">  1       -1 0.55833343E-01 0.56440047E+03</pdfrwt>
<totfact> 0.60144318E+01</totfact>
</mgrwt>
</event>
<event>
 4    1  0.2488810E-002  0.4451060E+03  0.7818608E-02  0.1029192E+00
          2   -1    0    0  502    0  0.00000000000E+00  0.00000000000E+00  0.63139210826E+03  0.63139210826E+03  0.00000000000E+00 0.  1.
         -2   -1    0    0    0  501 -0.00000000000E+00 -0.00000000000E+00 -0.66863925026E+03  0.66863925026E+03  0.00000000000E+00 0. -1.
    9000007    1    1    2  502    0 -0.48443939013E+02 -0.18913620820E+03 -0.49216163445E+03  0.66358299775E+03  0.40000000000E+03 0.  1.
   -9000007    1    1    2    0  501  0.48443939013E+02  0.18913620820E+03  0.45491449245E+03  0.63644836077E+03  0.40000000000E+03 0.  1.
<mgrwt>
<rscale>  2 0.44510597E+03</rscale>
<asrwt>0</asrwt>
<pdfrwt beam="1">  1        2 0.97137247E-01 0.44510597E+03</pdfrwt>
<pdfrwt beam="2">  1       -2 0.10286758E+00 0.44510597E+03</pdfrwt>
<totfact> 0.37576037E+01</totfact>
</mgrwt>
</event>
<event>
 4    1  0.2488810E-002  0.5026165E+03  0.7818608E-02  0.1013098E+00
         -1   -1    0    0    0  501 -0.00000000000E+00  0.00000000000E+00  0.47964121646E+03  0.47964121646E+03  0.00000000000E+00 0.  1.
          1   -1    0    0  502    0  0.00000000000E+00 -0.00000000000E+00 -0.53249156607E+03  0.53249156607E+03  0.00000000000E+00 0. -1.
    9000007    1    1    2  502    0  0.45398244346E+02  0.30093572031E+03  0.26387694629E+02  0.50330867147E+03  0.40000000000E+03 0.  1.
   -9000007    1    1    2    0  501 -0.45398244346E+02 -0.30093572031E+03 -0.79238044236E+02  0.50882411107E+03  0.40000000000E+03 0.  1.
<mgrwt>
<rscale>  2 0.50261646E+03</rscale>
<asrwt>0</asrwt>
<pdfrwt beam="1">  1        1 0.81921779E-01 0.50261646E+03</pdfrwt>
<pdfrwt beam="2">  1       -1 0.73790956E-01 0.50261646E+03</pdfrwt>
<totfact> 0.78271999E+01</totfact>
</mgrwt>
</event>
<event>
 4    1  0.2488810E-002  0.5494558E+03  0.7818608E-02  0.1001620E+00
          1   -1    0    0  502    0  0.00000000000E+00  0.00000000000E+00  0.83084800969E+03  0.83084800969E+03  0.00000000000E+00 0.  1.
         -1   -1    0    0    0  501 -0.00000000000E+00 -0.00000000000E+00 -0.37317393953E+03  0.37317393953E+03  0.00000000000E+00 0. -1.
    9000007    1    1    2  502    0 -0.37404500800E+03  0.44632137552E+02  0.13123844024E+03  0.56491169567E+03  0.40000000000E+03 0. -1.
   -9000007    1    1    2    0  501  0.37404500800E+03 -0.44632137552E+02  0.32643562992E+03  0.63911025355E+03  0.40000000000E+03 0. -1.
<mgrwt>
<rscale>  2 0.54945582E+03</rscale>
<asrwt>0</asrwt>
<pdfrwt beam="1">  1        1 0.12782277E+00 0.54945582E+03</pdfrwt>
<pdfrwt beam="2">  1       -1 0.57411375E-01 0.54945582E+03</pdfrwt>
<totfact> 0.66596084E+01</totfact>
</mgrwt>
</event>
<event>
 4    1  0.2488810E-002  0.5455985E+03  0.7818608E-02  0.1002518E+00
          1   -1    0    0  502    0  0.00000000000E+00  0.00000000000E+00  0.55045760969E+03  0.55045760969E+03  0.00000000000E+00 0. -1.
         -1   -1    0    0    0  501 -0.00000000000E+00 -0.00000000000E+00 -0.79794538035E+03  0.79794538035E+03  0.00000000000E+00 0.  1.
    9000007    1    1    2  502    0 -0.36067599101E+03 -0.87123807053E+02 -0.50648705094E+03  0.74445071094E+03  0.40000000000E+03 0. -1.
   -9000007    1    1    2    0  501  0.36067599101E+03  0.87123807053E+02  0.25899928028E+03  0.60395227910E+03  0.40000000000E+03 0. -1.
<mgrwt>
<rscale>  2 0.54559850E+03</rscale>
<asrwt>0</asrwt>
<pdfrwt beam="1">  1        1 0.84685786E-01 0.54559850E+03</pdfrwt>
<pdfrwt beam="2">  1       -1 0.12276083E+00 0.54559850E+03</pdfrwt>
<totfact> 0.23844402E+01</totfact>
</mgrwt>
</event>
<event>
 4    1  0.2488810E-002  0.4382793E+03  0.7818608E-02  0.1031276E+00
          2   -1    0    0  502    0  0.00000000000E+00  0.00000000000E+00  0.34036505564E+04  0.34036505564E+04  0.00000000000E+00 0. -1.
         -2   -1    0    0    0  501 -0.00000000000E+00 -0.00000000000E+00 -0.56436187462E+02  0.56436187462E+02  0.00000000000E+00 0.  1.
    9000007    1    1    2  502    0 -0.16592955154E+03  0.67498795740E+02  0.16759668708E+04  0.17323260824E+04  0.40000000000E+03 0. -1.
   -9000007    1    1    2    0  501  0.16592955154E+03 -0.67498795740E+02  0.16712474981E+04  0.17277606615E+04  0.40000000000E+03 0.  1.
<mgrwt>
<rscale>  2 0.43827925E+03</rscale>
<asrwt>0</asrwt>
<pdfrwt beam="1">  1        2 0.52363839E+00 0.43827925E+03</pdfrwt>
<pdfrwt beam="2">  1       -2 0.86824930E-02 0.43827925E+03</pdfrwt>
<totfact> 0.92750032E+01</totfact>
</mgrwt>
</event>
<event>
 4    1  0.2488810E-002  0.4000606E+03  0.7818608E-02  0.1043759E+00
          2   -1    0    0  502    0  0.00000000000E+00  0.00000000000E+00  0.13783633021E+03  0.13783633021E+03  0.00000000000E+00 0.  1.
         -2   -1    0    0    0  501 -0.00000000000E+00 -0.00000000000E+00 -0.12794570997E+04  0.12794570997E+04  0.00000000000E+00 0. -1.
    9000007    1    1    2  502    0  0.67440980971E+01  0.17223254374E+01 -0.78629935957E+03  0.88222170236E+03  0.40000000000E+03 0. -1.
   -9000007    1    1    2    0  501 -0.67440980971E+01 -0.17223254374E+01 -0.35532140989E+03  0.53507172752E+03  0.40000000000E+03 0.  1.
<mgrwt>
<rscale>  2 0.40006056E+03</rscale>
<asrwt>0</asrwt>
<pdfrwt beam="1">  1        2 0.21205588E-01 0.40006056E+03</pdfrwt>
<pdfrwt beam="2">  1       -2 0.19683956E+00 0.40006056E+03</pdfrwt>
<totfact> 0.38709093E+01</totfact>
</mgrwt>
</event>
<event>
 4    1  0.2488810E-002  0.4205170E+03  0.7818608E-02  0.1036898E+00
          1   -1    0    0  502    0  0.00000000000E+00  0.00000000000E+00  0.20207806632E+04  0.20207806632E+04  0.00000000000E+00 0. -1.
         -1   -1    0    0    0  501 -0.00000000000E+00 -0.00000000000E+00 -0.10404463556E+03  0.10404463556E+03  0.00000000000E+00 0.  1.
    9000007    1    1    2  502    0 -0.77944959242E+02  0.10372620346E+03  0.53481622124E+03  0.68034030636E+03  0.40000000000E+03 0.  1.
   -9000007    1    1    2    0  501  0.77944959242E+02 -0.10372620346E+03  0.13819198064E+04  0.14444849924E+04  0.40000000000E+03 0. -1.
<mgrwt>
<rscale>  2 0.42051699E+03</rscale>
<asrwt>0</asrwt>
<pdfrwt beam="1">  1        1 0.31088930E+00 0.42051699E+03</pdfrwt>
<pdfrwt beam="2">  1       -1 0.16006868E-01 0.42051699E+03</pdfrwt>
<totfact> 0.92021644E+01</totfact>
</mgrwt>
</event>
<event>
 4    1  0.2488810E-002  0.4054294E+03  0.7818608E-02  0.1041916E+00
          1   -1    0    0  502    0  0.00000000000E+00  0.00000000000E+00  0.40265722102E+03  0.40265722102E+03  0.00000000000E+00 0.  1.
         -1   -1    0    0    0  501 -0.00000000000E+00 -0.00000000000E+00 -0.42861406140E+03  0.42861406140E+03  0.00000000000E+00 0. -1.
    9000007    1    1    2  502    0 -0.36749320071E+02 -0.54977366859E+02  0.77683246237E+02  0.41280468764E+03  0.40000000000E+03 0.  1.
   -9000007    1    1    2    0  501  0.36749320071E+02  0.54977366859E+02 -0.10364008661E+03  0.41846659478E+03  0.40000000000E+03 0.  1.
<mgrwt>
<rscale>  2 0.40542943E+03</rscale>
<asrwt>0</asrwt>
<pdfrwt beam="1">  1        1 0.61947265E-01 0.40542943E+03</pdfrwt>
<pdfrwt beam="2">  1       -1 0.65940625E-01 0.40542943E+03</pdfrwt>
<totfact> 0.14433414E+02</totfact>
</mgrwt>
</event>
<event>
 4    1  0.2488810E-002  0.5756912E+03  0.7818608E-02  0.9957163E-01
         -2   -1    0    0    0  501 -0.00000000000E+00  0.00000000000E+00  0.49702812491E+03  0.49702812491E+03  0.00000000000E+00 0. -1.
          2   -1    0    0  502    0  0.00000000000E+00 -0.00000000000E+00 -0.83170812627E+03  0.83170812627E+03  0.00000000000E+00 0.  1.
    9000007    1    1    2  502    0 -0.41332515565E+03  0.24139131466E+02 -0.46316779177E+03  0.73888076528E+03  0.40000000000E+03 0.  1.
   -9000007    1    1    2    0  501  0.41332515565E+03 -0.24139131466E+02  0.12848779041E+03  0.58985548590E+03  0.40000000000E+03 0. -1.
<mgrwt>
<rscale>  2 0.57569122E+03</rscale>
<asrwt>0</asrwt>
<pdfrwt beam="1">  1        2 0.12795510E+00 0.57569122E+03</pdfrwt>
<pdfrwt beam="2">  1       -2 0.76465865E-01 0.57569122E+03</pdfrwt>
<totfact> 0.51510085E+01</totfact>
</mgrwt>
</event>
<event>
 4    1  0.2488810E-002  0.4523591E+03  0.7818608E-02  0.1027021E+00
         -3   -1    0    0    0  501 -0.00000000000E+00  0.00000000000E+00  0.48289194850E+03  0.48289194850E+03  0.00000000000E+00 0. -1.
          3   -1    0    0  502    0  0.00000000000E+00 -0.00000000000E+00 -0.42656245973E+03  0.42656245973E+03  0.00000000000E+00 0.  1.
    9000007    1    1    2  502    0 -0.70603887363E+02  0.19910763003E+03 -0.87139427709E+01  0.45244302409E+03  0.40000000000E+03 0.  1.
   -9000007    1    1    2    0  501  0.70603887363E+02 -0.19910763003E+03  0.65043431543E+02  0.45701138414E+03  0.40000000000E+03 0. -1.
<mgrwt>
<rscale>  2 0.45235910E+03</rscale>
<asrwt>0</asrwt>
<pdfrwt beam="1">  1        3 0.65624994E-01 0.45235910E+03</pdfrwt>
<pdfrwt beam="2">  1       -3 0.74291069E-01 0.45235910E+03</pdfrwt>
<totfact> 0.10012765E+01</totfact>
</mgrwt>
</event>
<event>
 4    1  0.2488810E-002  0.4903888E+03  0.7818608E-02  0.1016318E+00
         -2   -1    0    0    0  501 -0.00000000000E+00  0.00000000000E+00  0.14744391103E+03  0.14744391103E+03  0.00000000000E+00 0.  1.
          2   -1    0    0  502    0  0.00000000000E+00 -0.00000000000E+00 -0.18677318767E+04  0.18677318767E+04  0.00000000000E+00 0. -1.
    9000007    1    1    2  502    0  0.43534884166E+02 -0.28033179173E+03 -0.12188617780E+04  0.13138132415E+04  0.40000000000E+03 0. -1.
   -9000007    1    1    2    0  501 -0.43534884166E+02  0.28033179173E+03 -0.50142618760E+03  0.70136254620E+03  0.40000000000E+03 0.  1.
<mgrwt>
<rscale>  2 0.49038882E+03</rscale>
<asrwt>0</asrwt>
<pdfrwt beam="1">  1        2 0.28734337E+00 0.49038882E+03</pdfrwt>
<pdfrwt beam="2">  1       -2 0.22683679E-01 0.49038882E+03</pdfrwt>
<totfact> 0.14233054E+02</totfact>
</mgrwt>
</event>
<event>
 4    1  0.2488810E-002  0.8636964E+03  0.7818608E-02  0.9472136E-01
          2   -1    0    0  502    0  0.00000000000E+00  0.00000000000E+00  0.93204575735E+03  0.93204575735E+03  0.00000000000E+00 0. -1.
         -2   -1    0    0    0  501 -0.00000000000E+00 -0.00000000000E+00 -0.84306132255E+03  0.84306132255E+03  0.00000000000E+00 0.  1.
    9000007    1    1    2  502    0 -0.53459583867E+03  0.54788565913E+03  0.24424353713E+03  0.89756688421E+03  0.40000000000E+03 0.  1.
   -9000007    1    1    2    0  501  0.53459583867E+03 -0.54788565913E+03 -0.15525910233E+03  0.87754019569E+03  0.40000000000E+03 0. -1.
<mgrwt>
<rscale>  2 0.86369636E+03</rscale>
<asrwt>0</asrwt>
<pdfrwt beam="1">  1        2 0.14339165E+00 0.86369636E+03</pdfrwt>
<pdfrwt beam="2">  1       -2 0.12970174E+00 0.86369636E+03</pdfrwt>
<totfact> 0.12243680E+01</totfact>
</mgrwt>
</event>
<event>
 4    1  0.2488810E-002  0.4580909E+03  0.7818608E-02  0.1025336E+00
          2   -1    0    0  502    0  0.00000000000E+00  0.00000000000E+00  0.10585568581E+04  0.10585568581E+04  0.00000000000E+00 0. -1.
         -2   -1    0    0    0  501 -0.00000000000E+00 -0.00000000000E+00 -0.28432835119E+03  0.28432835119E+03  0.00000000000E+00 0.  1.
    9000007    1    1    2  502    0 -0.75400480434E+02 -0.21014763551E+03  0.75657942889E+03  0.88445446088E+03  0.40000000000E+03 0. -1.
   -9000007    1    1    2    0  501  0.75400480434E+02  0.21014763551E+03  0.17649078059E+02  0.45843074844E+03  0.40000000000E+03 0.  1.
<mgrwt>
<rscale>  2 0.45809089E+03</rscale>
<asrwt>0</asrwt>
<pdfrwt beam="1">  1        2 0.16285490E+00 0.45809089E+03</pdfrwt>
<pdfrwt beam="2">  1       -2 0.43742824E-01 0.45809089E+03</pdfrwt>
<totfact> 0.11923493E+02</totfact>
</mgrwt>
</event>
<event>
 4    1  0.2488810E-002  0.4240429E+03  0.7818608E-02  0.1035758E+00
          2   -1    0    0  502    0  0.00000000000E+00  0.00000000000E+00  0.28525007542E+03  0.28525007542E+03  0.00000000000E+00 0. -1.
         -2   -1    0    0    0  501 -0.00000000000E+00 -0.00000000000E+00 -0.95882845432E+03  0.95882845432E+03  0.00000000000E+00 0.  1.
    9000007    1    1    2  502    0  0.13624044915E+03 -0.35368226245E+02 -0.70086282495E+03  0.81915875800E+03  0.40000000000E+03 0.  1.
   -9000007    1    1    2    0  501 -0.13624044915E+03  0.35368226245E+02  0.27284446048E+02  0.42491977173E+03  0.40000000000E+03 0. -1.
<mgrwt>
<rscale>  2 0.42404289E+03</rscale>
<asrwt>0</asrwt>
<pdfrwt beam="1">  1        2 0.43884627E-01 0.42404289E+03</pdfrwt>
<pdfrwt beam="2">  1       -2 0.14751207E+00 0.42404289E+03</pdfrwt>
<totfact> 0.37811876E+01</totfact>
</mgrwt>
</event>
<event>
 4    1  0.2488810E-002  0.5135970E+03  0.7818608E-02  0.1010290E+00
         -1   -1    0    0    0  501 -0.00000000000E+00  0.00000000000E+00  0.14909160504E+03  0.14909160504E+03  0.00000000000E+00 0. -1.
          1   -1    0    0  502    0  0.00000000000E+00 -0.00000000000E+00 -0.18662230098E+04  0.18662230098E+04  0.00000000000E+00 0.  1.
    9000007    1    1    2  502    0  0.19915249288E+03  0.25321955747E+03 -0.62888027959E+03  0.81195582747E+03  0.40000000000E+03 0. -1.
   -9000007    1    1    2    0  501 -0.19915249288E+03 -0.25321955747E+03 -0.10882511252E+04  0.12033587874E+04  0.40000000000E+03 0.  1.
<mgrwt>
<rscale>  2 0.51359698E+03</rscale>
<asrwt>0</asrwt>
<pdfrwt beam="1">  1        1 0.28711125E+00 0.51359698E+03</pdfrwt>
<pdfrwt beam="2">  1       -1 0.22937168E-01 0.51359698E+03</pdfrwt>
<totfact> 0.63361901E+01</totfact>
</mgrwt>
</event>
<event>
 4    1  0.2488810E-002  0.4033688E+03  0.7818608E-02  0.1042619E+00
          2   -1    0    0  502    0  0.00000000000E+00  0.00000000000E+00  0.22310670338E+04  0.22310670338E+04  0.00000000000E+00 0. -1.
         -2   -1    0    0    0  501 -0.00000000000E+00 -0.00000000000E+00 -0.10998979997E+03  0.10998979997E+03  0.00000000000E+00 0.  1.
    9000007    1    1    2  502    0 -0.42881887610E+02  0.29454439442E+02  0.38106717887E+03  0.55490414947E+03  0.40000000000E+03 0.  1.
   -9000007    1    1    2    0  501  0.42881887610E+02 -0.29454439442E+02  0.17400100550E+04  0.17861526843E+04  0.40000000000E+03 0. -1.
<mgrwt>
<rscale>  2 0.40336884E+03</rscale>
<asrwt>0</asrwt>
<pdfrwt beam="1">  1        2 0.34324105E+00 0.40336884E+03</pdfrwt>
<pdfrwt beam="2">  1       -2 0.16921509E-01 0.40336884E+03</pdfrwt>
<totfact> 0.15286388E+02</totfact>
</mgrwt>
</event>
<event>
 4    1  0.2488810E-002  0.5902868E+03  0.7818608E-02  0.9925765E-01
         -1   -1    0    0    0  501 -0.00000000000E+00  0.00000000000E+00  0.28552862736E+03  0.28552862736E+03  0.00000000000E+00 0.  1.
          1   -1    0    0  502    0  0.00000000000E+00 -0.00000000000E+00 -0.13446765472E+04  0.13446765472E+04  0.00000000000E+00 0. -1.
    9000007    1    1    2  502    0 -0.30752563613E+03 -0.30637631705E+03 -0.77744421467E+03  0.97614444190E+03  0.40000000000E+03 0. -1.
   -9000007    1    1    2    0  501  0.30752563613E+03  0.30637631705E+03 -0.28170370520E+03  0.65406073269E+03  0.40000000000E+03 0.  1.
<mgrwt>
<rscale>  2 0.59028676E+03</rscale>
<asrwt>0</asrwt>
<pdfrwt beam="1">  1        1 0.20687331E+00 0.59028676E+03</pdfrwt>
<pdfrwt beam="2">  1       -1 0.43927482E-01 0.59028676E+03</pdfrwt>
<totfact> 0.45127992E+01</totfact>
</mgrwt>
</event>
<event>
 4    1  0.2488810E-002  0.4408709E+03  0.7818608E-02  0.1030480E+00
         -1   -1    0    0    0  501 -0.00000000000E+00  0.00000000000E+00  0.18738700644E+03  0.18738700644E+03  0.00000000000E+00 0.  1.
          1   -1    0    0  502    0  0.00000000000E+00 -0.00000000000E+00 -0.10511667145E+04  0.10511667145E+04  0.00000000000E+00 0. -1.
    9000007    1    1    2  502    0 -0.13062619752E+03  0.13154430628E+03 -0.36063363457E+03  0.56958206290E+03  0.40000000000E+03 0. -1.
   -9000007    1    1    2    0  501  0.13062619752E+03 -0.13154430628E+03 -0.50314607349E+03  0.66897165804E+03  0.40000000000E+03 0. -1.
<mgrwt>
<rscale>  2 0.44087085E+03</rscale>
<asrwt>0</asrwt>
<pdfrwt beam="1">  1        1 0.16171796E+00 0.44087085E+03</pdfrwt>
<pdfrwt beam="2">  1       -1 0.28828770E-01 0.44087085E+03</pdfrwt>
<totfact> 0.15788298E+02</totfact>
</mgrwt>
</event>
<event>
 4    1  0.2488810E-002  0.4330908E+03  0.7818608E-02  0.1032888E+00
         -4   -1    0    0    0  501 -0.00000000000E+00  0.00000000000E+00  0.29397465153E+03  0.29397465153E+03  0.00000000000E+00 0.  1.
          4   -1    0    0  502    0  0.00000000000E+00 -0.00000000000E+00 -0.76075149156E+03  0.76075149156E+03  0.00000000000E+00 0. -1.
    9000007    1    1    2  502    0  0.33407801020E+02  0.16263944896E+03 -0.21586245008E+02  0.43362845559E+03  0.40000000000E+03 0.  1.
   -9000007    1    1    2    0  501 -0.33407801020E+02 -0.16263944896E+03 -0.44519059502E+03  0.62109768750E+03  0.40000000000E+03 0. -1.
<mgrwt>
<rscale>  2 0.43309084E+03</rscale>
<asrwt>0</asrwt>
<pdfrwt beam="1">  1        4 0.11703869E+00 0.43309084E+03</pdfrwt>
<pdfrwt beam="2">  1       -4 0.45226870E-01 0.43309084E+03</pdfrwt>
<totfact> 0.51890135E+00</totfact>
</mgrwt>
</event>
<event>
 4    1  0.2488810E-002  0.4286694E+03  0.7818608E-02  0.1034281E+00
         -1   -1    0    0    0  501 -0.00000000000E+00  0.00000000000E+00  0.45560610231E+03  0.45560610231E+03  0.00000000000E+00 0.  1.
          1   -1    0    0  502    0  0.00000000000E+00 -0.00000000000E+00 -0.50792781087E+03  0.50792781087E+03  0.00000000000E+00 0. -1.
    9000007    1    1    2  502    0 -0.15356951798E+03 -0.13184389496E+02 -0.24478960001E+03  0.49363890978E+03  0.40000000000E+03 0. -1.
   -9000007    1    1    2    0  501  0.15356951798E+03  0.13184389496E+02  0.19246789146E+03  0.46989500340E+03  0.40000000000E+03 0.  1.
<mgrwt>
<rscale>  2 0.42866937E+03</rscale>
<asrwt>0</asrwt>
<pdfrwt beam="1">  1        1 0.78142740E-01 0.42866937E+03</pdfrwt>
<pdfrwt beam="2">  1       -1 0.70093246E-01 0.42866937E+03</pdfrwt>
<totfact> 0.93528219E+01</totfact>
</mgrwt>
</event>
<event>
 4    1  0.2488810E-002  0.7459932E+03  0.7818608E-02  0.9641657E-01
         -1   -1    0    0    0  501 -0.00000000000E+00  0.00000000000E+00  0.23316556966E+03  0.23316556966E+03  0.00000000000E+00 0. -1.
          1   -1    0    0  502    0  0.00000000000E+00 -0.00000000000E+00 -0.24897767986E+04  0.24897767986E+04  0.00000000000E+00 0.  1.
    9000007    1    1    2  502    0 -0.62292105441E+03 -0.92061234856E+02 -0.14052684767E+04  0.15910013836E+04  0.40000000000E+03 0.  1.
   -9000007    1    1    2    0  501  0.62292105441E+03  0.92061234856E+02 -0.85134275226E+03  0.11319409847E+04  0.40000000000E+03 0. -1.
<mgrwt>
<rscale>  2 0.74599324E+03</rscale>
<asrwt>0</asrwt>
<pdfrwt beam="1">  1        1 0.38304259E+00 0.74599324E+03</pdfrwt>
<pdfrwt beam="2">  1       -1 0.35871626E-01 0.74599324E+03</pdfrwt>
<totfact> 0.10769236E+01</totfact>
</mgrwt>
</event>
<event>
 4    1  0.2488810E-002  0.5057336E+03  0.7818608E-02  0.1012293E+00
          2   -1    0    0  502    0  0.00000000000E+00  0.00000000000E+00  0.12048108336E+04  0.12048108336E+04  0.00000000000E+00 0.  1.
         -2   -1    0    0    0  501 -0.00000000000E+00 -0.00000000000E+00 -0.26259874064E+03  0.26259874064E+03  0.00000000000E+00 0. -1.
    9000007    1    1    2  502    0 -0.19528667220E+02  0.30884480429E+03  0.79225523024E+03  0.93991214048E+03  0.40000000000E+03 0.  1.
   -9000007    1    1    2    0  501  0.19528667220E+02 -0.30884480429E+03  0.14995686276E+03  0.52749743380E+03  0.40000000000E+03 0. -1.
<mgrwt>
<rscale>  2 0.50573361E+03</rscale>
<asrwt>0</asrwt>
<pdfrwt beam="1">  1        2 0.18535551E+00 0.50573361E+03</pdfrwt>
<pdfrwt beam="2">  1       -2 0.40399807E-01 0.50573361E+03</pdfrwt>
<totfact> 0.11332031E+02</totfact>
</mgrwt>
</event>
<event>
 4    1  0.2488810E-002  0.4274729E+03  0.7818608E-02  0.1034661E+00
          1   -1    0    0  502    0  0.00000000000E+00  0.00000000000E+00  0.11798344116E+04  0.11798344116E+04  0.00000000000E+00 0. -1.
         -1   -1    0    0    0  501 -0.00000000000E+00 -0.00000000000E+00 -0.15852277188E+03  0.15852277188E+03  0.00000000000E+00 0.  1.
    9000007    1    1    2  502    0 -0.99627077406E+02 -0.11317037655E+03  0.40921908285E+03  0.59177136332E+03  0.40000000000E+03 0. -1.
   -9000007    1    1    2    0  501  0.99627077406E+02  0.11317037655E+03  0.61209255684E+03  0.74658582013E+03  0.40000000000E+03 0. -1.
<mgrwt>
<rscale>  2 0.42747291E+03</rscale>
<asrwt>0</asrwt>
<pdfrwt beam="1">  1        1 0.18151298E+00 0.42747291E+03</pdfrwt>
<pdfrwt beam="2">  1       -1 0.24388120E-01 0.42747291E+03</pdfrwt>
<totfact> 0.16921954E+02</totfact>
</mgrwt>
</event>
<event>
 4    1  0.2488810E-002  0.4348035E+03  0.7818608E-02  0.1032353E+00
         -2   -1    0    0    0  501 -0.00000000000E+00  0.00000000000E+00  0.11958469952E+03  0.11958469952E+03  0.00000000000E+00 0.  1.
          2   -1    0    0  502    0  0.00000000000E+00 -0.00000000000E+00 -0.16782652586E+04  0.16782652586E+04  0.00000000000E+00 0. -1.
    9000007    1    1    2  502    0  0.15645229126E+03  0.67651947012E+02 -0.56284638308E+03  0.71123143654E+03  0.40000000000E+03 0.  1.
   -9000007    1    1    2    0  501 -0.15645229126E+03 -0.67651947012E+02 -0.99583417602E+03  0.10866185216E+04  0.40000000000E+03 0. -1.
<mgrwt>
<rscale>  2 0.43480353E+03</rscale>
<asrwt>0</asrwt>
<pdfrwt beam="1">  1        2 0.25819463E+00 0.43480353E+03</pdfrwt>
<pdfrwt beam="2">  1       -2 0.18397648E-01 0.43480353E+03</pdfrwt>
<totfact> 0.26097284E+02</totfact>
</mgrwt>
</event>
<event>
 4    1  0.2488810E-002  0.5417900E+03  0.7818608E-02  0.1003412E+00
          1   -1    0    0  502    0  0.00000000000E+00  0.00000000000E+00  0.24611364459E+04  0.24611364459E+04  0.00000000000E+00 0.  1.
         -1   -1    0    0    0  501 -0.00000000000E+00 -0.00000000000E+00 -0.14104372655E+03  0.14104372655E+03  0.00000000000E+00 0. -1.
    9000007    1    1    2  502    0 -0.15902412005E+03  0.32901030071E+03  0.16712691601E+04  0.17568941500E+04  0.40000000000E+03 0.  1.
   -9000007    1    1    2    0  501  0.15902412005E+03 -0.32901030071E+03  0.64882355925E+03  0.84528602247E+03  0.40000000000E+03 0. -1.
<mgrwt>
<rscale>  2 0.54179004E+03</rscale>
<asrwt>0</asrwt>
<pdfrwt beam="1">  1        1 0.37863635E+00 0.54179004E+03</pdfrwt>
<pdfrwt beam="2">  1       -1 0.21699037E-01 0.54179004E+03</pdfrwt>
<totfact> 0.27783199E+01</totfact>
</mgrwt>
</event>
<event>
 4    1  0.2488810E-002  0.4428183E+03  0.7818608E-02  0.1029886E+00
          2   -1    0    0  502    0  0.00000000000E+00  0.00000000000E+00  0.26066392938E+04  0.26066392938E+04  0.00000000000E+00 0. -1.
         -2   -1    0    0    0  501 -0.00000000000E+00 -0.00000000000E+00 -0.76881522927E+02  0.76881522927E+02  0.00000000000E+00 0.  1.
    9000007    1    1    2  502    0  0.15714113312E+03 -0.10674598817E+03  0.10680079746E+04  0.11561700028E+04  0.40000000000E+03 0. -1.
   -9000007    1    1    2    0  501 -0.15714113312E+03  0.10674598817E+03  0.14617497963E+04  0.15273508139E+04  0.40000000000E+03 0. -1.
<mgrwt>
<rscale>  2 0.44281829E+03</rscale>
<asrwt>0</asrwt>
<pdfrwt beam="1">  1        2 0.40102136E+00 0.44281829E+03</pdfrwt>
<pdfrwt beam="2">  1       -2 0.11827929E-01 0.44281829E+03</pdfrwt>
<totfact> 0.17084836E+02</totfact>
</mgrwt>
</event>
<event>
 4    1  0.2488810E-002  0.4000776E+03  0.7818608E-02  0.1043753E+00
         -2   -1    0    0    0  501 -0.00000000000E+00  0.00000000000E+00  0.25843467635E+03  0.25843467635E+03  0.00000000000E+00 0. -1.
          2   -1    0    0  502    0  0.00000000000E+00 -0.00000000000E+00 -0.95864581205E+03  0.95864581205E+03  0.00000000000E+00 0.  1.
    9000007    1    1    2  502    0 -0.58494034854E+01  0.52797669887E+01  0.11927333882E+02  0.40025535943E+03  0.40000000000E+03 0. -1.
   -9000007    1    1    2    0  501  0.58494034854E+01 -0.52797669887E+01 -0.71213846957E+03  0.81682512897E+03  0.40000000000E+03 0.  1.
<mgrwt>
<rscale>  2 0.40007761E+03</rscale>
<asrwt>0</asrwt>
<pdfrwt beam="1">  1        2 0.14748397E+00 0.40007761E+03</pdfrwt>
<pdfrwt beam="2">  1       -2 0.39759182E-01 0.40007761E+03</pdfrwt>
<totfact> 0.16686824E+02</totfact>
</mgrwt>
</event>
<event>
 4    1  0.2488810E-002  0.4704303E+03  0.7818608E-02  0.1021799E+00
          1   -1    0    0  502    0  0.00000000000E+00  0.00000000000E+00  0.47141610228E+03  0.47141610228E+03  0.00000000000E+00 0.  1.
         -1   -1    0    0    0  501 -0.00000000000E+00 -0.00000000000E+00 -0.52943374582E+03  0.52943374582E+03  0.00000000000E+00 0. -1.
    9000007    1    1    2  502    0 -0.21074373783E+03  0.12996814203E+03  0.13943790270E+03  0.49066034044E+03  0.40000000000E+03 0.  1.
   -9000007    1    1    2    0  501  0.21074373783E+03 -0.12996814203E+03 -0.19745554624E+03  0.51018950765E+03  0.40000000000E+03 0. -1.
<mgrwt>
<rscale>  2 0.47043027E+03</rscale>
<asrwt>0</asrwt>
<pdfrwt beam="1">  1        1 0.72525555E-01 0.47043027E+03</pdfrwt>
<pdfrwt beam="2">  1       -1 0.81451345E-01 0.47043027E+03</pdfrwt>
<totfact> 0.75442643E+01</totfact>
</mgrwt>
</event>
<event>
 4    1  0.2488810E-002  0.5414428E+03  0.7818608E-02  0.1003494E+00
          2   -1    0    0  502    0  0.00000000000E+00  0.00000000000E+00  0.18298063166E+04  0.18298063166E+04  0.00000000000E+00 0.  1.
         -2   -1    0    0    0  501 -0.00000000000E+00 -0.00000000000E+00 -0.18494063821E+03  0.18494063821E+03  0.00000000000E+00 0. -1.
    9000007    1    1    2  502    0  0.29243796470E+02  0.36373765150E+03  0.11907808794E+04  0.13080976193E+04  0.40000000000E+03 0.  1.
   -9000007    1    1    2    0  501 -0.29243796470E+02 -0.36373765150E+03  0.45408479896E+03  0.70664933552E+03  0.40000000000E+03 0. -1.
<mgrwt>
<rscale>  2 0.54144278E+03</rscale>
<asrwt>0</asrwt>
<pdfrwt beam="1">  1        2 0.28150865E+00 0.54144278E+03</pdfrwt>
<pdfrwt beam="2">  1       -2 0.28452407E-01 0.54144278E+03</pdfrwt>
<totfact> 0.98554021E+01</totfact>
</mgrwt>
</event>
<event>
 4    1  0.2488810E-002  0.4727309E+03  0.7818608E-02  0.1021152E+00
          3   -1    0    0  502    0  0.00000000000E+00  0.00000000000E+00  0.27302521106E+03  0.27302521106E+03  0.00000000000E+00 0. -1.
         -3   -1    0    0    0  501 -0.00000000000E+00 -0.00000000000E+00 -0.83018657801E+03  0.83018657801E+03  0.00000000000E+00 0.  1.
    9000007    1    1    2  502    0 -0.22586793149E+03 -0.11161619429E+03 -0.34399243808E+03  0.58464116752E+03  0.40000000000E+03 0.  1.
   -9000007    1    1    2    0  501  0.22586793149E+03  0.11161619429E+03 -0.21316892887E+03  0.51857062156E+03  0.40000000000E+03 0.  1.
<mgrwt>
<rscale>  2 0.47273089E+03</rscale>
<asrwt>0</asrwt>
<pdfrwt beam="1">  1        3 0.42003879E-01 0.47273089E+03</pdfrwt>
<pdfrwt beam="2">  1       -3 0.12772101E+00 0.47273089E+03</pdfrwt>
<totfact> 0.71518559E+00</totfact>
</mgrwt>
</event>
<event>
 4    1  0.2488810E-002  0.5570065E+03  0.7818608E-02  0.9998851E-01
          2   -1    0    0  502    0  0.00000000000E+00  0.00000000000E+00  0.40457422523E+04  0.40457422523E+04  0.00000000000E+00 0.  1.
         -2   -1    0    0    0  501 -0.00000000000E+00 -0.00000000000E+00 -0.11257913393E+03  0.11257913393E+03  0.00000000000E+00 0. -1.
    9000007    1    1    2  502    0  0.37696556845E+03  0.90295196081E+02  0.79260856373E+03  0.96875414711E+03  0.40000000000E+03 0. -1.
   -9000007    1    1    2    0  501 -0.37696556845E+03 -0.90295196081E+02  0.31405545546E+04  0.31895672391E+04  0.40000000000E+03 0.  1.
<mgrwt>
<rscale>  2 0.55700652E+03</rscale>
<asrwt>0</asrwt>
<pdfrwt beam="1">  1        2 0.62242177E+00 0.55700652E+03</pdfrwt>
<pdfrwt beam="2">  1       -2 0.17319870E-01 0.55700652E+03</pdfrwt>
<totfact> 0.99473971E+00</totfact>
</mgrwt>
</event>
<event>
 4    1  0.2488810E-002  0.5094434E+03  0.7818608E-02  0.1011343E+00
          2   -1    0    0  502    0  0.00000000000E+00  0.00000000000E+00  0.12942826908E+04  0.12942826908E+04  0.00000000000E+00 0. -1.
         -2   -1    0    0    0  501 -0.00000000000E+00 -0.00000000000E+00 -0.45689325338E+03  0.45689325338E+03  0.00000000000E+00 0.  1.
    9000007    1    1    2  502    0  0.22773420052E+03  0.21833399052E+03  0.10745783423E+04  0.11892229443E+04  0.40000000000E+03 0. -1.
   -9000007    1    1    2    0  501 -0.22773420052E+03 -0.21833399052E+03 -0.23718890486E+03  0.56195299990E+03  0.40000000000E+03 0.  1.
<mgrwt>
<rscale>  2 0.50944342E+03</rscale>
<asrwt>0</asrwt>
<pdfrwt beam="1">  1        2 0.19912041E+00 0.50944342E+03</pdfrwt>
<pdfrwt beam="2">  1       -2 0.70291270E-01 0.50944342E+03</pdfrwt>
<totfact> 0.32286734E+01</totfact>
</mgrwt>
</event>
<event>
 4    1  0.2488810E-002  0.6972996E+03  0.7818608E-02  0.9721861E-01
          2   -1    0    0  502    0  0.00000000000E+00  0.00000000000E+00  0.68627940146E+03  0.68627940146E+03  0.00000000000E+00 0.  1.
         -2   -1    0    0    0  501 -0.00000000000E+00 -0.00000000000E+00 -0.88145286111E+03  0.88145286111E+03  0.00000000000E+00 0. -1.
    9000007    1    1    2  502    0 -0.51309578109E+03  0.25091720013E+03  0.24963773464E+03  0.74063872465E+03  0.40000000000E+03 0.  1.
   -9000007    1    1    2    0  501  0.51309578109E+03 -0.25091720013E+03 -0.44481119430E+03  0.82709353792E+03  0.40000000000E+03 0. -1.
<mgrwt>
<rscale>  2 0.69729959E+03</rscale>
<asrwt>0</asrwt>
<pdfrwt beam="1">  1        2 0.10558145E+00 0.69729959E+03</pdfrwt>
<pdfrwt beam="2">  1       -2 0.13560813E+00 0.69729959E+03</pdfrwt>
<totfact> 0.16706786E+01</totfact>
</mgrwt>
</event>
<event>
 4    1  0.2488810E-002  0.4672553E+03  0.7818608E-02  0.1022698E+00
          2   -1    0    0  502    0  0.00000000000E+00  0.00000000000E+00  0.10750804472E+04  0.10750804472E+04  0.00000000000E+00 0. -1.
         -2   -1    0    0    0  501 -0.00000000000E+00 -0.00000000000E+00 -0.20315162550E+03  0.20315162550E+03  0.00000000000E+00 0.  1.
    9000007    1    1    2  502    0 -0.22063576781E+03  0.98221134206E+02  0.44794973837E+03  0.64729166637E+03  0.40000000000E+03 0.  1.
   -9000007    1    1    2    0  501  0.22063576781E+03 -0.98221134206E+02  0.42397908334E+03  0.63094040634E+03  0.40000000000E+03 0. -1.
<mgrwt>
<rscale>  2 0.46725532E+03</rscale>
<asrwt>0</asrwt>
<pdfrwt beam="1">  1        2 0.16539699E+00 0.46725532E+03</pdfrwt>
<pdfrwt beam="2">  1       -2 0.31254097E-01 0.46725532E+03</pdfrwt>
<totfact> 0.22110507E+02</totfact>
</mgrwt>
</event>
<event>
 4    1  0.2488810E-002  0.4104697E+03  0.7818608E-02  0.1040214E+00
          1   -1    0    0  502    0  0.00000000000E+00  0.00000000000E+00  0.21099855374E+04  0.21099855374E+04  0.00000000000E+00 0. -1.
         -1   -1    0    0    0  501 -0.00000000000E+00 -0.00000000000E+00 -0.84473083250E+02  0.84473083250E+02  0.00000000000E+00 0.  1.
    9000007    1    1    2  502    0 -0.37660210891E+02 -0.84065900168E+02  0.12694035886E+04  0.13341179999E+04  0.40000000000E+03 0. -1.
   -9000007    1    1    2    0  501  0.37660210891E+02  0.84065900168E+02  0.75610886558E+03  0.86034062072E+03  0.40000000000E+03 0.  1.
<mgrwt>
<rscale>  2 0.41046969E+03</rscale>
<asrwt>0</asrwt>
<pdfrwt beam="1">  1        1 0.32461312E+00 0.41046969E+03</pdfrwt>
<pdfrwt beam="2">  1       -1 0.12995861E-01 0.41046969E+03</pdfrwt>
<totfact> 0.11247435E+02</totfact>
</mgrwt>
</event>
<event>
 4    1  0.2488810E-002  0.4493167E+03  0.7818608E-02  0.1027926E+00
          2   -1    0    0  502    0  0.00000000000E+00  0.00000000000E+00  0.41300199395E+03  0.41300199395E+03  0.00000000000E+00 0. -1.
         -2   -1    0    0    0  501 -0.00000000000E+00 -0.00000000000E+00 -0.49789724675E+03  0.49789724675E+03  0.00000000000E+00 0.  1.
    9000007    1    1    2  502    0  0.74533679987E+02 -0.19060484416E+03  0.19033365910E+02  0.44971962942E+03  0.40000000000E+03 0. -1.
   -9000007    1    1    2    0  501 -0.74533679987E+02  0.19060484416E+03 -0.10392861871E+03  0.46117961128E+03  0.40000000000E+03 0. -1.
<mgrwt>
<rscale>  2 0.44931668E+03</rscale>
<asrwt>0</asrwt>
<pdfrwt beam="1">  1        2 0.63538768E-01 0.44931668E+03</pdfrwt>
<pdfrwt beam="2">  1       -2 0.76599577E-01 0.44931668E+03</pdfrwt>
<totfact> 0.12011114E+02</totfact>
</mgrwt>
</event>
<event>
 4    1  0.2488810E-002  0.4363327E+03  0.7818608E-02  0.1031878E+00
         -2   -1    0    0    0  501 -0.00000000000E+00  0.00000000000E+00  0.11421712691E+03  0.11421712691E+03  0.00000000000E+00 0.  1.
          2   -1    0    0  502    0  0.00000000000E+00 -0.00000000000E+00 -0.17696434452E+04  0.17696434452E+04  0.00000000000E+00 0. -1.
    9000007    1    1    2  502    0 -0.84127589640E+02 -0.15267197900E+03 -0.60072860107E+03  0.74246955268E+03  0.40000000000E+03 0.  1.
   -9000007    1    1    2    0  501  0.84127589640E+02  0.15267197900E+03 -0.10546977172E+04  0.11413910194E+04  0.40000000000E+03 0. -1.
<mgrwt>
<rscale>  2 0.43633265E+03</rscale>
<asrwt>0</asrwt>
<pdfrwt beam="1">  1        2 0.27225283E+00 0.43633265E+03</pdfrwt>
<pdfrwt beam="2">  1       -2 0.17571866E-01 0.43633265E+03</pdfrwt>
<totfact> 0.25210750E+02</totfact>
</mgrwt>
</event>
<event>
 4    1  0.2488810E-002  0.4479671E+03  0.7818608E-02  0.1028330E+00
          2   -1    0    0  502    0  0.00000000000E+00  0.00000000000E+00  0.12833906234E+03  0.12833906234E+03  0.00000000000E+00 0.  1.
         -2   -1    0    0    0  501 -0.00000000000E+00 -0.00000000000E+00 -0.15735272004E+04  0.15735272004E+04  0.00000000000E+00 0. -1.
    9000007    1    1    2  502    0 -0.43144842860E+02  0.19701032634E+03 -0.65510098778E+03  0.79361946193E+03  0.40000000000E+03 0.  1.
   -9000007    1    1    2    0  501  0.43144842860E+02 -0.19701032634E+03 -0.79008715031E+03  0.90824680084E+03  0.40000000000E+03 0.  1.
<mgrwt>
<rscale>  2 0.44796713E+03</rscale>
<asrwt>0</asrwt>
<pdfrwt beam="1">  1        2 0.19744471E-01 0.44796713E+03</pdfrwt>
<pdfrwt beam="2">  1       -2 0.24208111E+00 0.44796713E+03</pdfrwt>
<totfact> 0.21928988E+01</totfact>
</mgrwt>
</event>
<event>
 4    1  0.2488810E-002  0.4077823E+03  0.7818608E-02  0.1041118E+00
          2   -1    0    0  502    0  0.00000000000E+00  0.00000000000E+00  0.12175050766E+04  0.12175050766E+04  0.00000000000E+00 0.  1.
         -2   -1    0    0    0  501 -0.00000000000E+00 -0.00000000000E+00 -0.22289612022E+03  0.22289612022E+03  0.00000000000E+00 0. -1.
    9000007    1    1    2  502    0 -0.26403189352E+02  0.74761521396E+02  0.94548096419E+03  0.10296701740E+04  0.40000000000E+03 0.  1.
   -9000007    1    1    2    0  501  0.26403189352E+02 -0.74761521396E+02  0.49127992142E+02  0.41073102281E+03  0.40000000000E+03 0. -1.
<mgrwt>
<rscale>  2 0.40778231E+03</rscale>
<asrwt>0</asrwt>
<pdfrwt beam="1">  1        2 0.18730847E+00 0.40778231E+03</pdfrwt>
<pdfrwt beam="2">  1       -2 0.34291712E-01 0.40778231E+03</pdfrwt>
<totfact> 0.15421569E+02</totfact>
</mgrwt>
</event>
<event>
 4    1  0.2488810E-002  0.5279523E+03  0.7818608E-02  0.1006730E+00
          1   -1    0    0  502    0  0.00000000000E+00  0.00000000000E+00  0.30970665759E+04  0.30970665759E+04  0.00000000000E+00 0.  1.
         -1   -1    0    0    0  501 -0.00000000000E+00 -0.00000000000E+00 -0.11731615955E+03  0.11731615955E+03  0.00000000000E+00 0. -1.
    9000007    1    1    2  502    0  0.16217885441E+03 -0.30402581515E+03  0.22654156219E+04  0.23261215826E+04  0.40000000000E+03 0.  1.
   -9000007    1    1    2    0  501 -0.16217885441E+03  0.30402581515E+03  0.71433479443E+03  0.88826115283E+03  0.40000000000E+03 0. -1.
<mgrwt>
<rscale>  2 0.52795234E+03</rscale>
<asrwt>0</asrwt>
<pdfrwt beam="1">  1        1 0.47647172E+00 0.52795234E+03</pdfrwt>
<pdfrwt beam="2">  1       -1 0.18048642E-01 0.52795234E+03</pdfrwt>
<totfact> 0.13651793E+01</totfact>
</mgrwt>
</event>
<event>
 4    1  0.2488810E-002  0.4574714E+03  0.7818608E-02  0.1025517E+00
         -2   -1    0    0    0  501 -0.00000000000E+00  0.00000000000E+00  0.46010194079E+03  0.46010194079E+03  0.00000000000E+00 0. -1.
          2   -1    0    0  502    0  0.00000000000E+00 -0.00000000000E+00 -0.45791738576E+03  0.45791738576E+03  0.00000000000E+00 0.  1.
    9000007    1    1    2  502    0 -0.13805948891E+03  0.17383814973E+03 -0.36438524548E+02  0.45892035349E+03  0.40000000000E+03 0.  1.
   -9000007    1    1    2    0  501  0.13805948891E+03 -0.17383814973E+03  0.38623079572E+02  0.45909897305E+03  0.40000000000E+03 0. -1.
<mgrwt>
<rscale>  2 0.45747145E+03</rscale>
<asrwt>0</asrwt>
<pdfrwt beam="1">  1        2 0.70448829E-01 0.45747145E+03</pdfrwt>
<pdfrwt beam="2">  1       -2 0.70784914E-01 0.45747145E+03</pdfrwt>
<totfact> 0.12711234E+02</totfact>
</mgrwt>
</event>
<event>
 4    1  0.2488810E-002  0.7519578E+03  0.7818608E-02  0.9632284E-01
          2   -1    0    0  502    0  0.00000000000E+00  0.00000000000E+00  0.88382066520E+03  0.88382066520E+03  0.00000000000E+00 0.  1.
         -2   -1    0    0    0  501 -0.00000000000E+00 -0.00000000000E+00 -0.96153449788E+03  0.96153449788E+03  0.00000000000E+00 0. -1.
    9000007    1    1    2  502    0  0.14413800501E+03  0.62021346941E+03  0.49489284163E+03  0.90019966498E+03  0.40000000000E+03 0.  1.
   -9000007    1    1    2    0  501 -0.14413800501E+03 -0.62021346941E+03 -0.57260667431E+03  0.94515549810E+03  0.40000000000E+03 0. -1.
<mgrwt>
<rscale>  2 0.75195779E+03</rscale>
<asrwt>0</asrwt>
<pdfrwt beam="1">  1        2 0.13597241E+00 0.75195779E+03</pdfrwt>
<pdfrwt beam="2">  1       -2 0.14792838E+00 0.75195779E+03</pdfrwt>
<totfact> 0.95050387E+00</totfact>
</mgrwt>
</event>
<event>
 4    1  0.2488810E-002  0.4147384E+03  0.7818608E-02  0.1038792E+00
         -1   -1    0    0    0  501 -0.00000000000E+00  0.00000000000E+00  0.18137855124E+03  0.18137855124E+03  0.00000000000E+00 0. -1.
          1   -1    0    0  502    0  0.00000000000E+00 -0.00000000000E+00 -0.14340795541E+04  0.14340795541E+04  0.00000000000E+00 0.  1.
    9000007    1    1    2  502    0  0.64948882471E+02 -0.88258723203E+02 -0.10964418253E+04  0.11722596282E+04  0.40000000000E+03 0.  1.
   -9000007    1    1    2    0  501 -0.64948882471E+02  0.88258723203E+02 -0.15625917748E+03  0.44319847710E+03  0.40000000000E+03 0. -1.
<mgrwt>
<rscale>  2 0.41473842E+03</rscale>
<asrwt>0</asrwt>
<pdfrwt beam="1">  1        1 0.22062763E+00 0.41473842E+03</pdfrwt>
<pdfrwt beam="2">  1       -1 0.27904392E-01 0.41473842E+03</pdfrwt>
<totfact> 0.89831395E+01</totfact>
</mgrwt>
</event>
<event>
 4    1  0.2488810E-002  0.6101386E+03  0.7818608E-02  0.9884592E-01
          2   -1    0    0  502    0  0.00000000000E+00  0.00000000000E+00  0.11989543796E+04  0.11989543796E+04  0.00000000000E+00 0.  1.
         -2   -1    0    0    0  501 -0.00000000000E+00 -0.00000000000E+00 -0.38427745625E+03  0.38427745625E+03  0.00000000000E+00 0. -1.
    9000007    1    1    2  502    0 -0.11336213162E+02  0.46058722991E+03  0.75421042123E+03  0.97010435809E+03  0.40000000000E+03 0.  1.
   -9000007    1    1    2    0  501  0.11336213162E+02 -0.46058722991E+03  0.60466502108E+02  0.61312747774E+03  0.40000000000E+03 0. -1.
<mgrwt>
<rscale>  2 0.61013860E+03</rscale>
<asrwt>0</asrwt>
<pdfrwt beam="1">  1        2 0.18445452E+00 0.61013860E+03</pdfrwt>
<pdfrwt beam="2">  1       -2 0.59119609E-01 0.61013860E+03</pdfrwt>
<totfact> 0.52331650E+01</totfact>
</mgrwt>
</event>
<event>
 4    1  0.2488810E-002  0.4813750E+03  0.7818608E-02  0.1018758E+00
         -2   -1    0    0    0  501 -0.00000000000E+00  0.00000000000E+00  0.33499586879E+03  0.33499586879E+03  0.00000000000E+00 0. -1.
          2   -1    0    0  502    0  0.00000000000E+00 -0.00000000000E+00 -0.89862473381E+03  0.89862473381E+03  0.00000000000E+00 0.  1.
    9000007    1    1    2  502    0  0.26582207205E+03 -0.32565465664E+02  0.14158651653E+02  0.48158317138E+03  0.40000000000E+03 0. -1.
   -9000007    1    1    2    0  501 -0.26582207205E+03  0.32565465664E+02 -0.57778751667E+03  0.75203743122E+03  0.40000000000E+03 0. -1.
<mgrwt>
<rscale>  2 0.48137499E+03</rscale>
<asrwt>0</asrwt>
<pdfrwt beam="1">  1        2 0.13824996E+00 0.48137499E+03</pdfrwt>
<pdfrwt beam="2">  1       -2 0.51537826E-01 0.48137499E+03</pdfrwt>
<totfact> 0.10824833E+02</totfact>
</mgrwt>
</event>
<event>
 4    1  0.2488810E-002  0.4332916E+03  0.7818608E-02  0.1032825E+00
         -1   -1    0    0    0  501 -0.00000000000E+00  0.00000000000E+00  0.33333537412E+03  0.33333537412E+03  0.00000000000E+00 0.  1.
          1   -1    0    0  502    0  0.00000000000E+00 -0.00000000000E+00 -0.68817745820E+03  0.68817745820E+03  0.00000000000E+00 0. -1.
    9000007    1    1    2  502    0 -0.11683175896E+03 -0.11870961558E+03  0.40220693828E+02  0.43515438289E+03  0.40000000000E+03 0. -1.
   -9000007    1    1    2    0  501  0.11683175896E+03  0.11870961558E+03 -0.39506277791E+03  0.58635844944E+03  0.40000000000E+03 0. -1.
<mgrwt>
<rscale>  2 0.43329163E+03</rscale>
<asrwt>0</asrwt>
<pdfrwt beam="1">  1        1 0.10587345E+00 0.43329163E+03</pdfrwt>
<pdfrwt beam="2">  1       -1 0.51282366E-01 0.43329163E+03</pdfrwt>
<totfact> 0.11197384E+02</totfact>
</mgrwt>
</event>
<event>
 4    1  0.2488810E-002  0.4902489E+03  0.7818608E-02  0.1016356E+00
          2   -1    0    0  502    0  0.00000000000E+00  0.00000000000E+00  0.97782741577E+03  0.97782741577E+03  0.00000000000E+00 0.  1.
         -2   -1    0    0    0  501 -0.00000000000E+00 -0.00000000000E+00 -0.26560803651E+03  0.26560803651E+03  0.00000000000E+00 0. -1.
    9000007    1    1    2  502    0  0.19319557465E+02  0.28279094713E+03  0.18630066458E+03  0.52445390904E+03  0.40000000000E+03 0. -1.
   -9000007    1    1    2    0  501 -0.19319557465E+02 -0.28279094713E+03  0.52591871468E+03  0.71898154325E+03  0.40000000000E+03 0.  1.
<mgrwt>
<rscale>  2 0.49024888E+03</rscale>
<asrwt>0</asrwt>
<pdfrwt beam="1">  1        2 0.15043499E+00 0.49024888E+03</pdfrwt>
<pdfrwt beam="2">  1       -2 0.40862775E-01 0.49024888E+03</pdfrwt>
<totfact> 0.15243137E+02</totfact>
</mgrwt>
</event>
<event>
 4    1  0.2488810E-002  0.4211545E+03  0.7818608E-02  0.1036691E+00
          1   -1    0    0  502    0  0.00000000000E+00  0.00000000000E+00  0.42106648777E+03  0.42106648777E+03  0.00000000000E+00 0. -1.
         -1   -1    0    0    0  501 -0.00000000000E+00 -0.00000000000E+00 -0.43336709895E+03  0.43336709895E+03  0.00000000000E+00 0.  1.
    9000007    1    1    2  502    0  0.12972868317E+03 -0.23271728092E+02  0.65308185822E+02  0.42618806142E+03  0.40000000000E+03 0. -1.
   -9000007    1    1    2    0  501 -0.12972868317E+03  0.23271728092E+02 -0.77608797004E+02  0.42824552530E+03  0.40000000000E+03 0.  1.
<mgrwt>
<rscale>  2 0.42115449E+03</rscale>
<asrwt>0</asrwt>
<pdfrwt beam="1">  1        1 0.64779459E-01 0.42115449E+03</pdfrwt>
<pdfrwt beam="2">  1       -1 0.66671862E-01 0.42115449E+03</pdfrwt>
<totfact> 0.13295629E+02</totfact>
</mgrwt>
</event>
<event>
 4    1  0.2488810E-002  0.4396696E+03  0.7818608E-02  0.1030848E+00
          2   -1    0    0  502    0  0.00000000000E+00  0.00000000000E+00  0.19274984193E+04  0.19274984193E+04  0.00000000000E+00 0. -1.
         -2   -1    0    0    0  501 -0.00000000000E+00 -0.00000000000E+00 -0.12454936517E+03  0.12454936517E+03  0.00000000000E+00 0.  1.
    9000007    1    1    2  502    0 -0.17822048693E+03 -0.39329539912E+02  0.44865626720E+03  0.62817338432E+03  0.40000000000E+03 0.  1.
   -9000007    1    1    2    0  501  0.17822048693E+03  0.39329539912E+02  0.13542927870E+04  0.14238744002E+04  0.40000000000E+03 0. -1.
<mgrwt>
<rscale>  2 0.43966960E+03</rscale>
<asrwt>0</asrwt>
<pdfrwt beam="1">  1        2 0.29653820E+00 0.43966960E+03</pdfrwt>
<pdfrwt beam="2">  1       -2 0.19161442E-01 0.43966960E+03</pdfrwt>
<totfact> 0.17882933E+02</totfact>
</mgrwt>
</event>
<event>
 4    1  0.2488810E-002  0.4938912E+03  0.7818608E-02  0.1015386E+00
         -2   -1    0    0    0  501 -0.00000000000E+00  0.00000000000E+00  0.30457584131E+03  0.30457584131E+03  0.00000000000E+00 0. -1.
          2   -1    0    0  502    0  0.00000000000E+00 -0.00000000000E+00 -0.80318033043E+03  0.80318033043E+03  0.00000000000E+00 0.  1.
    9000007    1    1    2  502    0 -0.28743295398E+03 -0.36205035503E+02 -0.27894798575E+03  0.56722172594E+03  0.40000000000E+03 0.  1.
   -9000007    1    1    2    0  501  0.28743295398E+03  0.36205035503E+02 -0.21965650337E+03  0.54053444580E+03  0.40000000000E+03 0. -1.
<mgrwt>
<rscale>  2 0.49389119E+03</rscale>
<asrwt>0</asrwt>
<pdfrwt beam="1">  1        2 0.12356621E+00 0.49389119E+03</pdfrwt>
<pdfrwt beam="2">  1       -2 0.46857821E-01 0.49389119E+03</pdfrwt>
<totfact> 0.15224844E+02</totfact>
</mgrwt>
</event>
<event>
 4    1  0.2488810E-002  0.5260641E+03  0.7818608E-02  0.1007191E+00
          2   -1    0    0  502    0  0.00000000000E+00  0.00000000000E+00  0.24279162049E+04  0.24279162049E+04  0.00000000000E+00 0. -1.
         -2   -1    0    0    0  501 -0.00000000000E+00 -0.00000000000E+00 -0.11649946624E+03  0.11649946624E+03  0.00000000000E+00 0.  1.
    9000007    1    1    2  502    0  0.89074420193E+02 -0.32986230990E+03  0.96876389679E+03  0.11023823672E+04  0.40000000000E+03 0.  1.
   -9000007    1    1    2    0  501 -0.89074420193E+02  0.32986230990E+03  0.13426528419E+04  0.14420333039E+04  0.40000000000E+03 0. -1.
<mgrwt>
<rscale>  2 0.52606406E+03</rscale>
<asrwt>0</asrwt>
<pdfrwt beam="1">  1        2 0.37352553E+00 0.52606406E+03</pdfrwt>
<pdfrwt beam="2">  1       -2 0.17922997E-01 0.52606406E+03</pdfrwt>
<totfact> 0.10576675E+02</totfact>
</mgrwt>
</event>
<event>
 4    1  0.2488810E-002  0.8372870E+03  0.7818608E-02  0.9507561E-01
          2   -1    0    0  502    0  0.00000000000E+00  0.00000000000E+00  0.11024953634E+04  0.11024953634E+04  0.00000000000E+00 0. -1.
         -2   -1    0    0    0  501 -0.00000000000E+00 -0.00000000000E+00 -0.64727612448E+03  0.64727612448E+03  0.00000000000E+00 0.  1.
    9000007    1    1    2  502    0  0.72700108753E+03  0.11188791665E+03  0.34372135235E+03  0.90509328537E+03  0.40000000000E+03 0. -1.
   -9000007    1    1    2    0  501 -0.72700108753E+03 -0.11188791665E+03  0.11149788661E+03  0.84467820256E+03  0.40000000000E+03 0.  1.
<mgrwt>
<rscale>  2 0.83728698E+03</rscale>
<asrwt>0</asrwt>
<pdfrwt beam="1">  1        2 0.16961467E+00 0.83728698E+03</pdfrwt>
<pdfrwt beam="2">  1       -2 0.99580942E-01 0.83728698E+03</pdfrwt>
<totfact> 0.18267792E+01</totfact>
</mgrwt>
</event>
<event>
 4    1  0.2488810E-002  0.4255159E+03  0.7818608E-02  0.1035286E+00
         -2   -1    0    0    0  501 -0.00000000000E+00  0.00000000000E+00  0.58369429038E+02  0.58369429038E+02  0.00000000000E+00 0.  1.
          2   -1    0    0  502    0  0.00000000000E+00 -0.00000000000E+00 -0.31514199611E+04  0.31514199611E+04  0.00000000000E+00 0. -1.
    9000007    1    1    2  502    0 -0.78412202810E+02 -0.12212813050E+03 -0.17474392628E+04  0.17985015238E+04  0.40000000000E+03 0.  1.
   -9000007    1    1    2    0  501  0.78412202810E+02  0.12212813050E+03 -0.13456112692E+04  0.14112878664E+04  0.40000000000E+03 0.  1.
<mgrwt>
<rscale>  2 0.42551587E+03</rscale>
<asrwt>0</asrwt>
<pdfrwt beam="1">  1        2 0.48483393E+00 0.42551587E+03</pdfrwt>
<pdfrwt beam="2">  1       -2 0.89799105E-02 0.42551587E+03</pdfrwt>
<totfact> 0.12764863E+02</totfact>
</mgrwt>
</event>
<event>
 4    1  0.2488810E-002  0.6706195E+03  0.7818608E-02  0.9768839E-01
          1   -1    0    0  502    0  0.00000000000E+00  0.00000000000E+00  0.12166627298E+04  0.12166627298E+04  0.00000000000E+00 0. -1.
         -1   -1    0    0    0  501 -0.00000000000E+00 -0.00000000000E+00 -0.12819551883E+04  0.12819551883E+04  0.00000000000E+00 0.  1.
    9000007    1    1    2  502    0 -0.49415064550E+03  0.21341424194E+03 -0.10865603942E+04  0.12768492430E+04  0.40000000000E+03 0.  1.
   -9000007    1    1    2    0  501  0.49415064550E+03 -0.21341424194E+03  0.10212679357E+04  0.12217686751E+04  0.40000000000E+03 0. -1.
<mgrwt>
<rscale>  2 0.67061949E+03</rscale>
<asrwt>0</asrwt>
<pdfrwt beam="1">  1        1 0.18717888E+00 0.67061949E+03</pdfrwt>
<pdfrwt beam="2">  1       -1 0.19722387E+00 0.67061949E+03</pdfrwt>
<totfact> 0.17376162E+00</totfact>
</mgrwt>
</event>
<event>
 4    1  0.2488810E-002  0.4034952E+03  0.7818608E-02  0.1042576E+00
          1   -1    0    0  502    0  0.00000000000E+00  0.00000000000E+00  0.10542597063E+04  0.10542597063E+04  0.00000000000E+00 0. -1.
         -1   -1    0    0    0  501 -0.00000000000E+00 -0.00000000000E+00 -0.15559693336E+03  0.15559693336E+03  0.00000000000E+00 0.  1.
    9000007    1    1    2  502    0  0.45927357962E+02 -0.26440193979E+02  0.50173832846E+03  0.64385538463E+03  0.40000000000E+03 0. -1.
   -9000007    1    1    2    0  501 -0.45927357962E+02  0.26440193979E+02  0.39692444448E+03  0.56600125503E+03  0.40000000000E+03 0.  1.
<mgrwt>
<rscale>  2 0.40349524E+03</rscale>
<asrwt>0</asrwt>
<pdfrwt beam="1">  1        1 0.16219380E+00 0.40349524E+03</pdfrwt>
<pdfrwt beam="2">  1       -1 0.23937990E-01 0.40349524E+03</pdfrwt>
<totfact> 0.21619533E+02</totfact>
</mgrwt>
</event>
<event>
 4    1  0.2488810E-002  0.5196638E+03  0.7818608E-02  0.1008770E+00
         -2   -1    0    0    0  501 -0.00000000000E+00  0.00000000000E+00  0.15418328278E+03  0.15418328278E+03  0.00000000000E+00 0.  1.
          2   -1    0    0  502    0  0.00000000000E+00 -0.00000000000E+00 -0.29010997492E+04  0.29010997492E+04  0.00000000000E+00 0. -1.
    9000007    1    1    2  502    0 -0.30679988278E+03  0.12619154261E+03 -0.23351044918E+04  0.23922298094E+04  0.40000000000E+03 0.  1.
   -9000007    1    1    2    0  501  0.30679988278E+03 -0.12619154261E+03 -0.41181197461E+03  0.66305322254E+03  0.40000000000E+03 0.  1.
<mgrwt>
<rscale>  2 0.51966381E+03</rscale>
<asrwt>0</asrwt>
<pdfrwt beam="1">  1        2 0.44632299E+00 0.51966381E+03</pdfrwt>
<pdfrwt beam="2">  1       -2 0.23720508E-01 0.51966381E+03</pdfrwt>
<totfact> 0.34744473E+01</totfact>
</mgrwt>
</event>
<event>
 4    1  0.2488810E-002  0.4178623E+03  0.7818608E-02  0.1037764E+00
         -2   -1    0    0    0  501 -0.00000000000E+00  0.00000000000E+00  0.18336673973E+03  0.18336673973E+03  0.00000000000E+00 0. -1.
          2   -1    0    0  502    0  0.00000000000E+00 -0.00000000000E+00 -0.97454624584E+03  0.97454624584E+03  0.00000000000E+00 0.  1.
    9000007    1    1    2  502    0 -0.42903912162E+02 -0.11299632887E+03 -0.30799662006E+03  0.51910580230E+03  0.40000000000E+03 0. -1.
   -9000007    1    1    2    0  501  0.42903912162E+02  0.11299632887E+03 -0.48318288605E+03  0.63880718326E+03  0.40000000000E+03 0.  1.
<mgrwt>
<rscale>  2 0.41786232E+03</rscale>
<asrwt>0</asrwt>
<pdfrwt beam="1">  1        2 0.14993019E+00 0.41786232E+03</pdfrwt>
<pdfrwt beam="2">  1       -2 0.28210267E-01 0.41786232E+03</pdfrwt>
<totfact> 0.30940764E+02</totfact>
</mgrwt>
</event>
<event>
 4    1  0.2488810E-002  0.4259087E+03  0.7818608E-02  0.1035160E+00
          2   -1    0    0  502    0  0.00000000000E+00  0.00000000000E+00  0.28690455093E+03  0.28690455093E+03  0.00000000000E+00 0. -1.
         -2   -1    0    0    0  501 -0.00000000000E+00 -0.00000000000E+00 -0.65597667040E+03  0.65597667040E+03  0.00000000000E+00 0.  1.
    9000007    1    1    2  502    0 -0.14315593776E+03 -0.30076834775E+02 -0.94894232329E+02  0.43635209846E+03  0.40000000000E+03 0. -1.
   -9000007    1    1    2    0  501  0.14315593776E+03  0.30076834775E+02 -0.27417788714E+03  0.50652912286E+03  0.40000000000E+03 0.  1.
<mgrwt>
<rscale>  2 0.42590872E+03</rscale>
<asrwt>0</asrwt>
<pdfrwt beam="1">  1        2 0.44139162E-01 0.42590872E+03</pdfrwt>
<pdfrwt beam="2">  1       -2 0.10091949E+00 0.42590872E+03</pdfrwt>
<totfact> 0.95902277E+01</totfact>
</mgrwt>
</event>
<event>
 4    1  0.2488810E-002  0.5272634E+03  0.7818608E-02  0.1006898E+00
          2   -1    0    0  502    0  0.00000000000E+00  0.00000000000E+00  0.75624643903E+03  0.75624643903E+03  0.00000000000E+00 0. -1.
         -2   -1    0    0    0  501 -0.00000000000E+00 -0.00000000000E+00 -0.51425377109E+03  0.51425377109E+03  0.00000000000E+00 0.  1.
    9000007    1    1    2  502    0  0.60872738323E+02  0.33808467076E+03 -0.21822407648E+03  0.57063866188E+03  0.40000000000E+03 0.  1.
   -9000007    1    1    2    0  501 -0.60872738323E+02 -0.33808467076E+03  0.46021674442E+03  0.69986154825E+03  0.40000000000E+03 0. -1.
<mgrwt>
<rscale>  2 0.52726344E+03</rscale>
<asrwt>0</asrwt>
<pdfrwt beam="1">  1        2 0.11634561E+00 0.52726344E+03</pdfrwt>
<pdfrwt beam="2">  1       -2 0.79115964E-01 0.52726344E+03</pdfrwt>
<totfact> 0.54352384E+01</totfact>
</mgrwt>
</event>
<event>
 4    1  0.2488810E-002  0.4291970E+03  0.7818608E-02  0.1034114E+00
          4   -1    0    0  502    0  0.00000000000E+00  0.00000000000E+00  0.66873246420E+03  0.66873246420E+03  0.00000000000E+00 0.  1.
         -4   -1    0    0    0  501 -0.00000000000E+00 -0.00000000000E+00 -0.31500242941E+03  0.31500242941E+03  0.00000000000E+00 0. -1.
    9000007    1    1    2  502    0  0.13703562732E+03  0.73697637911E+02  0.25984426757E+01  0.42920491248E+03  0.40000000000E+03 0. -1.
   -9000007    1    1    2    0  501 -0.13703562732E+03 -0.73697637911E+02  0.35113159212E+03  0.55452998113E+03  0.40000000000E+03 0.  1.
<mgrwt>
<rscale>  2 0.42919705E+03</rscale>
<asrwt>0</asrwt>
<pdfrwt beam="1">  1        4 0.10288192E+00 0.42919705E+03</pdfrwt>
<pdfrwt beam="2">  1       -4 0.48461912E-01 0.42919705E+03</pdfrwt>
<totfact> 0.61451794E+00</totfact>
</mgrwt>
</event>
<event>
 4    1  0.2488810E-002  0.4168494E+03  0.7818608E-02  0.1038097E+00
         -1   -1    0    0    0  501 -0.00000000000E+00  0.00000000000E+00  0.44681499504E+03  0.44681499504E+03  0.00000000000E+00 0. -1.
          1   -1    0    0  502    0  0.00000000000E+00 -0.00000000000E+00 -0.38919947938E+03  0.38919947938E+03  0.00000000000E+00 0.  1.
    9000007    1    1    2  502    0  0.12578382056E+02  0.11664145595E+03  0.17087222256E+02  0.41719949437E+03  0.40000000000E+03 0. -1.
   -9000007    1    1    2    0  501 -0.12578382056E+02 -0.11664145595E+03  0.40528293406E+02  0.41881498004E+03  0.40000000000E+03 0. -1.
<mgrwt>
<rscale>  2 0.41684943E+03</rscale>
<asrwt>0</asrwt>
<pdfrwt beam="1">  1        1 0.59876843E-01 0.41684943E+03</pdfrwt>
<pdfrwt beam="2">  1       -1 0.68740769E-01 0.41684943E+03</pdfrwt>
<totfact> 0.13866209E+02</totfact>
</mgrwt>
</event>
<event>
 4    1  0.2488810E-002  0.4261836E+03  0.7818608E-02  0.1035072E+00
         -2   -1    0    0    0  501 -0.00000000000E+00  0.00000000000E+00  0.85719149877E+03  0.85719149877E+03  0.00000000000E+00 0.  1.
          2   -1    0    0  502    0  0.00000000000E+00 -0.00000000000E+00 -0.21800477782E+03  0.21800477782E+03  0.00000000000E+00 0. -1.
    9000007    1    1    2  502    0  0.14251233707E+03  0.36368933441E+02  0.40961058842E+03  0.59111191807E+03  0.40000000000E+03 0.  1.
   -9000007    1    1    2    0  501 -0.14251233707E+03 -0.36368933441E+02  0.22957613252E+03  0.48408435852E+03  0.40000000000E+03 0. -1.
<mgrwt>
<rscale>  2 0.42618361E+03</rscale>
<asrwt>0</asrwt>
<pdfrwt beam="1">  1        2 0.33539197E-01 0.42618361E+03</pdfrwt>
<pdfrwt beam="2">  1       -2 0.13187561E+00 0.42618361E+03</pdfrwt>
<totfact> 0.67709207E+01</totfact>
</mgrwt>
</event>
<event>
 4    1  0.2488810E-002  0.5043102E+03  0.7818608E-02  0.1012660E+00
         -2   -1    0    0    0  501 -0.00000000000E+00  0.00000000000E+00  0.24232997872E+03  0.24232997872E+03  0.00000000000E+00 0. -1.
          2   -1    0    0  502    0  0.00000000000E+00 -0.00000000000E+00 -0.10591386932E+04  0.10591386932E+04  0.00000000000E+00 0.  1.
    9000007    1    1    2  502    0 -0.22993660669E+03 -0.20361212303E+03 -0.47043660864E+03  0.68966610942E+03  0.40000000000E+03 0. -1.
   -9000007    1    1    2    0  501  0.22993660669E+03  0.20361212303E+03 -0.34637210580E+03  0.61180256245E+03  0.40000000000E+03 0.  1.
<mgrwt>
<rscale>  2 0.50431016E+03</rscale>
<asrwt>0</asrwt>
<pdfrwt beam="1">  1        2 0.16294441E+00 0.50431016E+03</pdfrwt>
<pdfrwt beam="2">  1       -2 0.37281536E-01 0.50431016E+03</pdfrwt>
<totfact> 0.16165300E+02</totfact>
</mgrwt>
</event>
<event>
 4    1  0.2488810E-002  0.4018293E+03  0.7818608E-02  0.1043148E+00
          2   -1    0    0  502    0  0.00000000000E+00  0.00000000000E+00  0.11070611916E+04  0.11070611916E+04  0.00000000000E+00 0.  1.
         -2   -1    0    0    0  501 -0.00000000000E+00 -0.00000000000E+00 -0.15730814966E+03  0.15730814966E+03  0.00000000000E+00 0. -1.
    9000007    1    1    2  502    0 -0.14313557519E+02  0.35522881599E+02  0.30427085937E+03  0.50403125787E+03  0.40000000000E+03 0. -1.
   -9000007    1    1    2    0  501  0.14313557519E+02 -0.35522881599E+02  0.64548218261E+03  0.76033808343E+03  0.40000000000E+03 0.  1.
<mgrwt>
<rscale>  2 0.40182926E+03</rscale>
<asrwt>0</asrwt>
<pdfrwt beam="1">  1        2 0.17031710E+00 0.40182926E+03</pdfrwt>
<pdfrwt beam="2">  1       -2 0.24201255E-01 0.40182926E+03</pdfrwt>
<totfact> 0.33841794E+02</totfact>
</mgrwt>
</event>
<event>
 4    1  0.2488810E-002  0.4286510E+03  0.7818608E-02  0.1034287E+00
         -1   -1    0    0    0  501 -0.00000000000E+00  0.00000000000E+00  0.10815604879E+03  0.10815604879E+03  0.00000000000E+00 0. -1.
          1   -1    0    0  502    0  0.00000000000E+00 -0.00000000000E+00 -0.17072289412E+04  0.17072289412E+04  0.00000000000E+00 0.  1.
    9000007    1    1    2  502    0 -0.70175070908E+02  0.13717550508E+03 -0.86309970296E+03  0.96368187543E+03  0.40000000000E+03 0.  1.
   -9000007    1    1    2    0  501  0.70175070908E+02 -0.13717550508E+03 -0.73597318940E+03  0.85170311452E+03  0.40000000000E+03 0. -1.
<mgrwt>
<rscale>  2 0.42865098E+03</rscale>
<asrwt>0</asrwt>
<pdfrwt beam="1">  1        1 0.26265061E+00 0.42865098E+03</pdfrwt>
<pdfrwt beam="2">  1       -1 0.16639392E-01 0.42865098E+03</pdfrwt>
<totfact> 0.13890769E+02</totfact>
</mgrwt>
</event>
<event>
 4    1  0.2488810E-002  0.5609663E+03  0.7818608E-02  0.9989871E-01
         -2   -1    0    0    0  501 -0.00000000000E+00  0.00000000000E+00  0.26451196554E+03  0.26451196554E+03  0.00000000000E+00 0.  1.
          2   -1    0    0  502    0  0.00000000000E+00 -0.00000000000E+00 -0.12076983130E+04  0.12076983130E+04  0.00000000000E+00 0. -1.
    9000007    1    1    2  502    0 -0.22687436122E+03  0.32126504332E+03 -0.38166804583E+03  0.67849370008E+03  0.40000000000E+03 0.  1.
   -9000007    1    1    2    0  501  0.22687436122E+03 -0.32126504332E+03 -0.56151830163E+03  0.79371657845E+03  0.40000000000E+03 0. -1.
<mgrwt>
<rscale>  2 0.56096631E+03</rscale>
<asrwt>0</asrwt>
<pdfrwt beam="1">  1        2 0.18579974E+00 0.56096631E+03</pdfrwt>
<pdfrwt beam="2">  1       -2 0.40694148E-01 0.56096631E+03</pdfrwt>
<totfact> 0.11062403E+02</totfact>
</mgrwt>
</event>
<event>
 4    1  0.2488810E-002  0.5518065E+03  0.7818608E-02  0.1001077E+00
         -2   -1    0    0    0  501 -0.00000000000E+00  0.00000000000E+00  0.25911314900E+03  0.25911314900E+03  0.00000000000E+00 0.  1.
          2   -1    0    0  502    0  0.00000000000E+00 -0.00000000000E+00 -0.11997099545E+04  0.11997099545E+04  0.00000000000E+00 0. -1.
    9000007    1    1    2  502    0 -0.21395023818E+03  0.31419049534E+03 -0.57471465483E+03  0.79673540543E+03  0.40000000000E+03 0. -1.
   -9000007    1    1    2    0  501  0.21395023818E+03 -0.31419049534E+03 -0.36588215068E+03  0.66208769809E+03  0.40000000000E+03 0.  1.
<mgrwt>
<rscale>  2 0.55180646E+03</rscale>
<asrwt>0</asrwt>
<pdfrwt beam="1">  1        2 0.18457076E+00 0.55180646E+03</pdfrwt>
<pdfrwt beam="2">  1       -2 0.39863561E-01 0.55180646E+03</pdfrwt>
<totfact> 0.11650615E+02</totfact>
</mgrwt>
</event>
<event>
 4    1  0.2488810E-002  0.5265234E+03  0.7818608E-02  0.1007079E+00
         -1   -1    0    0    0  501 -0.00000000000E+00  0.00000000000E+00  0.39147712741E+03  0.39147712741E+03  0.00000000000E+00 0. -1.
          1   -1    0    0  502    0  0.00000000000E+00 -0.00000000000E+00 -0.72104152090E+03  0.72104152090E+03  0.00000000000E+00 0.  1.
    9000007    1    1    2  502    0  0.30381294952E+03  0.15787523057E+03 -0.90420842237E+02  0.53423105997E+03  0.40000000000E+03 0. -1.
   -9000007    1    1    2    0  501 -0.30381294952E+03 -0.15787523057E+03 -0.23914355125E+03  0.57828758834E+03  0.40000000000E+03 0.  1.
<mgrwt>
<rscale>  2 0.52652341E+03</rscale>
<asrwt>0</asrwt>
<pdfrwt beam="1">  1        1 0.11092946E+00 0.52652341E+03</pdfrwt>
<pdfrwt beam="2">  1       -1 0.60227251E-01 0.52652341E+03</pdfrwt>
<totfact> 0.75858079E+01</totfact>
</mgrwt>
</event>
<event>
 4    1  0.2488810E-002  0.4202847E+03  0.7818608E-02  0.1036974E+00
         -3   -1    0    0    0  501 -0.00000000000E+00  0.00000000000E+00  0.18152534633E+03  0.18152534633E+03  0.00000000000E+00 0. -1.
          3   -1    0    0  502    0  0.00000000000E+00 -0.00000000000E+00 -0.97673105100E+03  0.97673105100E+03  0.00000000000E+00 0.  1.
    9000007    1    1    2  502    0 -0.62222344367E+02 -0.11299367654E+03 -0.36220882651E+03  0.55482828432E+03  0.40000000000E+03 0. -1.
   -9000007    1    1    2    0  501  0.62222344367E+02  0.11299367654E+03 -0.43299687816E+03  0.60342811301E+03  0.40000000000E+03 0.  1.
<mgrwt>
<rscale>  2 0.42028465E+03</rscale>
<asrwt>0</asrwt>
<pdfrwt beam="1">  1        3 0.15026631E+00 0.42028465E+03</pdfrwt>
<pdfrwt beam="2">  1       -3 0.27926977E-01 0.42028465E+03</pdfrwt>
<totfact> 0.10467771E+01</totfact>
</mgrwt>
</event>
<event>
 4    1  0.2488810E-002  0.4460287E+03  0.7818608E-02  0.1028913E+00
          2   -1    0    0  502    0  0.00000000000E+00  0.00000000000E+00  0.12584384271E+04  0.12584384271E+04  0.00000000000E+00 0. -1.
         -2   -1    0    0    0  501 -0.00000000000E+00 -0.00000000000E+00 -0.16342536924E+03  0.16342536924E+03  0.00000000000E+00 0.  1.
    9000007    1    1    2  502    0  0.92416846049E+00 -0.19733402496E+03  0.41900424721E+03  0.61196906023E+03  0.40000000000E+03 0.  1.
   -9000007    1    1    2    0  501 -0.92416846049E+00  0.19733402496E+03  0.67600881065E+03  0.80989473610E+03  0.40000000000E+03 0. -1.
<mgrwt>
<rscale>  2 0.44602867E+03</rscale>
<asrwt>0</asrwt>
<pdfrwt beam="1">  1        2 0.19360591E+00 0.44602867E+03</pdfrwt>
<pdfrwt beam="2">  1       -2 0.25142365E-01 0.44602867E+03</pdfrwt>
<totfact> 0.25688450E+02</totfact>
</mgrwt>
</event>
<event>
 4    1  0.2488810E-002  0.4233972E+03  0.7818608E-02  0.1035966E+00
          2   -1    0    0  502    0  0.00000000000E+00  0.00000000000E+00  0.35325626725E+04  0.35325626725E+04  0.00000000000E+00 0.  1.
         -2   -1    0    0    0  501 -0.00000000000E+00 -0.00000000000E+00 -0.55660952212E+02  0.55660952212E+02  0.00000000000E+00 0. -1.
    9000007    1    1    2  502    0  0.11443900851E+03 -0.78542573317E+02  0.12053475707E+04  0.12775476463E+04  0.40000000000E+03 0.  1.
   -9000007    1    1    2    0  501 -0.11443900851E+03  0.78542573317E+02  0.22715541496E+04  0.23106759784E+04  0.40000000000E+03 0. -1.
<mgrwt>
<rscale>  2 0.42339724E+03</rscale>
<asrwt>0</asrwt>
<pdfrwt beam="1">  1        2 0.54347100E+00 0.42339724E+03</pdfrwt>
<pdfrwt beam="2">  1       -2 0.85632262E-02 0.42339724E+03</pdfrwt>
<totfact> 0.78088423E+01</totfact>
</mgrwt>
</event>
<event>
 4    1  0.2488810E-002  0.4034401E+03  0.7818608E-02  0.1042595E+00
          1   -1    0    0  502    0  0.00000000000E+00  0.00000000000E+00  0.55616333931E+03  0.55616333931E+03  0.00000000000E+00 0.  1.
         -1   -1    0    0    0  501 -0.00000000000E+00 -0.00000000000E+00 -0.30160339648E+03  0.30160339648E+03  0.00000000000E+00 0. -1.
    9000007    1    1    2  502    0 -0.34504819364E+02  0.39665035307E+02  0.20115495305E+03  0.45080729000E+03  0.40000000000E+03 0. -1.
   -9000007    1    1    2    0  501  0.34504819364E+02 -0.39665035307E+02  0.53404989779E+02  0.40695944579E+03  0.40000000000E+03 0. -1.
<mgrwt>
<rscale>  2 0.40344008E+03</rscale>
<asrwt>0</asrwt>
<pdfrwt beam="1">  1        1 0.85563591E-01 0.40344008E+03</pdfrwt>
<pdfrwt beam="2">  1       -1 0.46400523E-01 0.40344008E+03</pdfrwt>
<totfact> 0.18349024E+02</totfact>
</mgrwt>
</event>
<event>
 4    1  0.2488810E-002  0.5219407E+03  0.7818608E-02  0.1008206E+00
         -1   -1    0    0    0  501 -0.00000000000E+00  0.00000000000E+00  0.30922762543E+03  0.30922762543E+03  0.00000000000E+00 0.  1.
          1   -1    0    0  502    0  0.00000000000E+00 -0.00000000000E+00 -0.96444569826E+03  0.96444569826E+03  0.00000000000E+00 0. -1.
    9000007    1    1    2  502    0  0.20261380673E+03 -0.26715114650E+03 -0.14025898606E+03  0.54045783640E+03  0.40000000000E+03 0.  1.
   -9000007    1    1    2    0  501 -0.20261380673E+03  0.26715114650E+03 -0.51495908676E+03  0.73321548729E+03  0.40000000000E+03 0. -1.
<mgrwt>
<rscale>  2 0.52194070E+03</rscale>
<asrwt>0</asrwt>
<pdfrwt beam="1">  1        1 0.14837626E+00 0.52194070E+03</pdfrwt>
<pdfrwt beam="2">  1       -1 0.47573481E-01 0.52194070E+03</pdfrwt>
<totfact> 0.74479314E+01</totfact>
</mgrwt>
</event>
<event>
 4    1  0.2488810E-002  0.5318605E+03  0.7818608E-02  0.1005782E+00
          2   -1    0    0  502    0  0.00000000000E+00  0.00000000000E+00  0.94809603423E+03  0.94809603423E+03  0.00000000000E+00 0.  1.
         -2   -1    0    0    0  501 -0.00000000000E+00 -0.00000000000E+00 -0.41727791057E+03  0.41727791057E+03  0.00000000000E+00 0. -1.
    9000007    1    1    2  502    0  0.31620073396E+03 -0.15130316433E+03 -0.99033788582E+02  0.54100207298E+03  0.40000000000E+03 0.  1.
   -9000007    1    1    2    0  501 -0.31620073396E+03  0.15130316433E+03  0.62985191224E+03  0.82437187181E+03  0.40000000000E+03 0.  1.
<mgrwt>
<rscale>  2 0.53186046E+03</rscale>
<asrwt>0</asrwt>
<pdfrwt beam="1">  1        2 0.14586093E+00 0.53186046E+03</pdfrwt>
<pdfrwt beam="2">  1       -2 0.64196602E-01 0.53186046E+03</pdfrwt>
<totfact> 0.63244745E+01</totfact>
</mgrwt>
</event>
<event>
 4    1  0.2488810E-002  0.5345289E+03  0.7818608E-02  0.1005140E+00
         -2   -1    0    0    0  501 -0.00000000000E+00  0.00000000000E+00  0.92713175866E+02  0.92713175866E+02  0.00000000000E+00 0.  1.
          2   -1    0    0  502    0  0.00000000000E+00 -0.00000000000E+00 -0.39930882680E+04  0.39930882680E+04  0.00000000000E+00 0. -1.
    9000007    1    1    2  502    0  0.11415815710E+03  0.33569190274E+03 -0.97423954958E+03  0.11112442748E+04  0.40000000000E+03 0. -1.
   -9000007    1    1    2    0  501 -0.11415815710E+03 -0.33569190274E+03 -0.29261355425E+04  0.29745571690E+04  0.40000000000E+03 0. -1.
<mgrwt>
<rscale>  2 0.53452889E+03</rscale>
<asrwt>0</asrwt>
<pdfrwt beam="1">  1        2 0.61432118E+00 0.53452889E+03</pdfrwt>
<pdfrwt beam="2">  1       -2 0.14263568E-01 0.53452889E+03</pdfrwt>
<totfact> 0.15290743E+01</totfact>
</mgrwt>
</event>
<event>
 4    1  0.2488810E-002  0.5987732E+03  0.7818608E-02  0.9907955E-01
          2   -1    0    0  502    0  0.00000000000E+00  0.00000000000E+00  0.16759372012E+04  0.16759372012E+04  0.00000000000E+00 0. -1.
         -2   -1    0    0    0  501 -0.00000000000E+00 -0.00000000000E+00 -0.34394564897E+03  0.34394564897E+03  0.00000000000E+00 0.  1.
    9000007    1    1    2  502    0 -0.42468634137E+03 -0.13479922601E+03  0.12869405872E+04  0.14194172730E+04  0.40000000000E+03 0. -1.
   -9000007    1    1    2    0  501  0.42468634137E+03  0.13479922601E+03  0.45050964979E+02  0.60046557713E+03  0.40000000000E+03 0.  1.
<mgrwt>
<rscale>  2 0.59877318E+03</rscale>
<asrwt>0</asrwt>
<pdfrwt beam="1">  1        2 0.25783649E+00 0.59877318E+03</pdfrwt>
<pdfrwt beam="2">  1       -2 0.52914716E-01 0.59877318E+03</pdfrwt>
<totfact> 0.35650562E+01</totfact>
</mgrwt>
</event>
<event>
 4    1  0.2488810E-002  0.5354917E+03  0.7818608E-02  0.1004909E+00
          2   -1    0    0  502    0  0.00000000000E+00  0.00000000000E+00  0.46636823491E+03  0.46636823491E+03  0.00000000000E+00 0. -1.
         -2   -1    0    0    0  501 -0.00000000000E+00 -0.00000000000E+00 -0.64213586791E+03  0.64213586791E+03  0.00000000000E+00 0.  1.
    9000007    1    1    2  502    0 -0.21265209519E+03 -0.28553537037E+03  0.26346115414E+02  0.53613942134E+03  0.40000000000E+03 0. -1.
   -9000007    1    1    2    0  501  0.21265209519E+03  0.28553537037E+03 -0.20211374841E+03  0.57236468149E+03  0.40000000000E+03 0. -1.
<mgrwt>
<rscale>  2 0.53549170E+03</rscale>
<asrwt>0</asrwt>
<pdfrwt beam="1">  1        2 0.71748959E-01 0.53549170E+03</pdfrwt>
<pdfrwt beam="2">  1       -2 0.98790134E-01 0.53549170E+03</pdfrwt>
<totfact> 0.58302736E+01</totfact>
</mgrwt>
</event>
<event>
 4    1  0.2488810E-002  0.5264249E+03  0.7818608E-02  0.1007103E+00
          1   -1    0    0  502    0  0.00000000000E+00  0.00000000000E+00  0.39720050211E+03  0.39720050211E+03  0.00000000000E+00 0.  1.
         -1   -1    0    0    0  501 -0.00000000000E+00 -0.00000000000E+00 -0.80813398564E+03  0.80813398564E+03  0.00000000000E+00 0. -1.
    9000007    1    1    2  502    0 -0.30665400530E+03  0.15194250873E+03  0.17328044500E+02  0.52671003982E+03  0.40000000000E+03 0.  1.
   -9000007    1    1    2    0  501  0.30665400530E+03 -0.15194250873E+03 -0.42826152803E+03  0.67862444792E+03  0.40000000000E+03 0.  1.
<mgrwt>
<rscale>  2 0.52642493E+03</rscale>
<asrwt>0</asrwt>
<pdfrwt beam="1">  1        1 0.61107770E-01 0.52642493E+03</pdfrwt>
<pdfrwt beam="2">  1       -1 0.12432830E+00 0.52642493E+03</pdfrwt>
<totfact> 0.35972486E+01</totfact>
</mgrwt>
</event>
<event>
 4    1  0.2488810E-002  0.7864173E+03  0.7818608E-02  0.9579888E-01
         -2   -1    0    0    0  501 -0.00000000000E+00  0.00000000000E+00  0.65493527555E+03  0.65493527555E+03  0.00000000000E+00 0.  1.
          2   -1    0    0  502    0  0.00000000000E+00 -0.00000000000E+00 -0.94857584138E+03  0.94857584138E+03  0.00000000000E+00 0. -1.
    9000007    1    1    2  502    0 -0.46659739131E+03  0.49065159805E+03 -0.20068070166E+03  0.81161866678E+03  0.40000000000E+03 0. -1.
   -9000007    1    1    2    0  501  0.46659739131E+03 -0.49065159805E+03 -0.92959864175E+02  0.79189245014E+03  0.40000000000E+03 0.  1.
<mgrwt>
<rscale>  2 0.78641727E+03</rscale>
<asrwt>0</asrwt>
<pdfrwt beam="1">  1        2 0.14593474E+00 0.78641727E+03</pdfrwt>
<pdfrwt beam="2">  1       -2 0.10075927E+00 0.78641727E+03</pdfrwt>
<totfact> 0.22343791E+01</totfact>
</mgrwt>
</event>
<event>
 4    1  0.2488810E-002  0.4115973E+03  0.7818608E-02  0.1039836E+00
         -1   -1    0    0    0  501 -0.00000000000E+00  0.00000000000E+00  0.53477442338E+02  0.53477442338E+02  0.00000000000E+00 0. -1.
          1   -1    0    0  502    0  0.00000000000E+00 -0.00000000000E+00 -0.31702609688E+04  0.31702609688E+04  0.00000000000E+00 0.  1.
    9000007    1    1    2  502    0  0.18363791145E+02  0.95263564827E+02 -0.16021719866E+04  0.16541969201E+04  0.40000000000E+03 0. -1.
   -9000007    1    1    2    0  501 -0.18363791145E+02 -0.95263564827E+02 -0.15146115398E+04  0.15695414911E+04  0.40000000000E+03 0. -1.
<mgrwt>
<rscale>  2 0.41159735E+03</rscale>
<asrwt>0</asrwt>
<pdfrwt beam="1">  1        1 0.48773241E+00 0.41159735E+03</pdfrwt>
<pdfrwt beam="2">  1       -1 0.82272996E-02 0.41159735E+03</pdfrwt>
<totfact> 0.43369922E+01</totfact>
</mgrwt>
</event>
<event>
 4    1  0.2488810E-002  0.4238054E+03  0.7818608E-02  0.1035835E+00
         -1   -1    0    0    0  501 -0.00000000000E+00  0.00000000000E+00  0.30237562456E+03  0.30237562456E+03  0.00000000000E+00 0.  1.
          1   -1    0    0  502    0  0.00000000000E+00 -0.00000000000E+00 -0.66535514414E+03  0.66535514414E+03  0.00000000000E+00 0. -1.
    9000007    1    1    2  502    0  0.75399050769E+02  0.11800838740E+03 -0.33994685584E+03  0.54329997345E+03  0.40000000000E+03 0. -1.
   -9000007    1    1    2    0  501 -0.75399050769E+02 -0.11800838740E+03 -0.23032663730E+02  0.42443079524E+03  0.40000000000E+03 0.  1.
<mgrwt>
<rscale>  2 0.42380538E+03</rscale>
<asrwt>0</asrwt>
<pdfrwt beam="1">  1        1 0.10236233E+00 0.42380538E+03</pdfrwt>
<pdfrwt beam="2">  1       -1 0.46519328E-01 0.42380538E+03</pdfrwt>
<totfact> 0.14127969E+02</totfact>
</mgrwt>
</event>
<event>
 4    1  0.2488810E-002  0.4392787E+03  0.7818608E-02  0.1030968E+00
          2   -1    0    0  502    0  0.00000000000E+00  0.00000000000E+00  0.63908970528E+03  0.63908970528E+03  0.00000000000E+00 0.  1.
         -2   -1    0    0    0  501 -0.00000000000E+00 -0.00000000000E+00 -0.33447242325E+03  0.33447242325E+03  0.00000000000E+00 0. -1.
    9000007    1    1    2  502    0 -0.14937198628E+03 -0.10321734523E+03  0.49126205253E+00  0.43927901382E+03  0.40000000000E+03 0. -1.
   -9000007    1    1    2    0  501  0.14937198628E+03  0.10321734523E+03  0.30412601997E+03  0.53428311471E+03  0.40000000000E+03 0.  1.
<mgrwt>
<rscale>  2 0.43927874E+03</rscale>
<asrwt>0</asrwt>
<pdfrwt beam="1">  1        2 0.98321492E-01 0.43927874E+03</pdfrwt>
<pdfrwt beam="2">  1       -2 0.51457296E-01 0.43927874E+03</pdfrwt>
<totfact> 0.16871513E+02</totfact>
</mgrwt>
</event>
<event>
 4    1  0.2488810E-002  0.4831685E+03  0.7818608E-02  0.1018268E+00
          2   -1    0    0  502    0  0.00000000000E+00  0.00000000000E+00  0.18380666745E+04  0.18380666745E+04  0.00000000000E+00 0. -1.
         -2   -1    0    0    0  501 -0.00000000000E+00 -0.00000000000E+00 -0.14027186059E+03  0.14027186059E+03  0.00000000000E+00 0.  1.
    9000007    1    1    2  502    0 -0.18554630460E+03 -0.19754582137E+03  0.11530538761E+04  0.12501939945E+04  0.40000000000E+03 0. -1.
   -9000007    1    1    2    0  501  0.18554630460E+03  0.19754582137E+03  0.54474093785E+03  0.72814454064E+03  0.40000000000E+03 0.  1.
<mgrwt>
<rscale>  2 0.48316848E+03</rscale>
<asrwt>0</asrwt>
<pdfrwt beam="1">  1        2 0.28277947E+00 0.48316848E+03</pdfrwt>
<pdfrwt beam="2">  1       -2 0.21580288E-01 0.48316848E+03</pdfrwt>
<totfact> 0.16136106E+02</totfact>
</mgrwt>
</event>
<event>
 4    1  0.2488810E-002  0.4148037E+03  0.7818608E-02  0.1038771E+00
          2   -1    0    0  502    0  0.00000000000E+00  0.00000000000E+00  0.20353609440E+04  0.20353609440E+04  0.00000000000E+00 0.  1.
         -2   -1    0    0    0  501 -0.00000000000E+00 -0.00000000000E+00 -0.10888324946E+03  0.10888324946E+03  0.00000000000E+00 0. -1.
    9000007    1    1    2  502    0 -0.76207187945E+02  0.79085912828E+02  0.45626569235E+03  0.61663643998E+03  0.40000000000E+03 0. -1.
   -9000007    1    1    2    0  501  0.76207187945E+02 -0.79085912828E+02  0.14702120022E+04  0.15276077535E+04  0.40000000000E+03 0.  1.
<mgrwt>
<rscale>  2 0.41480371E+03</rscale>
<asrwt>0</asrwt>
<pdfrwt beam="1">  1        2 0.31313243E+00 0.41480371E+03</pdfrwt>
<pdfrwt beam="2">  1       -2 0.16751271E-01 0.41480371E+03</pdfrwt>
<totfact> 0.19776947E+02</totfact>
</mgrwt>
</event>
<event>
 4    1  0.2488810E-002  0.6240077E+03  0.7818608E-02  0.9856813E-01
          3   -1    0    0  502    0  0.00000000000E+00  0.00000000000E+00  0.17645952247E+03  0.17645952247E+03  0.00000000000E+00 0.  1.
         -3   -1    0    0    0  501 -0.00000000000E+00 -0.00000000000E+00 -0.29038695211E+04  0.29038695211E+04  0.00000000000E+00 0. -1.
    9000007    1    1    2  502    0 -0.43205283896E+03 -0.20667846839E+03 -0.60902794281E+03  0.87195222350E+03  0.40000000000E+03 0.  1.
   -9000007    1    1    2    0  501  0.43205283896E+03  0.20667846839E+03 -0.21183820559E+04  0.22083768201E+04  0.40000000000E+03 0. -1.
<mgrwt>
<rscale>  2 0.62400773E+03</rscale>
<asrwt>0</asrwt>
<pdfrwt beam="1">  1        3 0.27147620E-01 0.62400773E+03</pdfrwt>
<pdfrwt beam="2">  1       -3 0.44674914E+00 0.62400773E+03</pdfrwt>
<totfact> 0.21354734E-01</totfact>
</mgrwt>
</event>
<event>
 4    1  0.2488810E-002  0.4092895E+03  0.7818608E-02  0.1040610E+00
          2   -1    0    0  502    0  0.00000000000E+00  0.00000000000E+00  0.18440024054E+04  0.18440024054E+04  0.00000000000E+00 0.  1.
         -2   -1    0    0    0  501 -0.00000000000E+00 -0.00000000000E+00 -0.93832773287E+02  0.93832773287E+02  0.00000000000E+00 0. -1.
    9000007    1    1    2  502    0 -0.44152455699E+02 -0.74622044659E+02  0.10479881904E+04  0.11250765023E+04  0.40000000000E+03 0.  1.
   -9000007    1    1    2    0  501  0.44152455699E+02  0.74622044659E+02  0.70218144170E+03  0.81275867634E+03  0.40000000000E+03 0. -1.
<mgrwt>
<rscale>  2 0.40928949E+03</rscale>
<asrwt>0</asrwt>
<pdfrwt beam="1">  1        2 0.28369265E+00 0.40928949E+03</pdfrwt>
<pdfrwt beam="2">  1       -2 0.14435813E-01 0.40928949E+03</pdfrwt>
<totfact> 0.32156236E+02</totfact>
</mgrwt>
</event>
<event>
 4    1  0.2488810E-002  0.4095378E+03  0.7818608E-02  0.1040526E+00
          3   -1    0    0  502    0  0.00000000000E+00  0.00000000000E+00  0.10428754912E+03  0.10428754912E+03  0.00000000000E+00 0.  1.
         -3   -1    0    0    0  501 -0.00000000000E+00 -0.00000000000E+00 -0.17452730862E+04  0.17452730862E+04  0.00000000000E+00 0. -1.
    9000007    1    1    2  502    0  0.52205042393E+02 -0.70681486548E+02 -0.10796073053E+04  0.11546744878E+04  0.40000000000E+03 0. -1.
   -9000007    1    1    2    0  501 -0.52205042393E+02  0.70681486548E+02 -0.56137823180E+03  0.69488614761E+03  0.40000000000E+03 0.  1.
<mgrwt>
<rscale>  2 0.40953784E+03</rscale>
<asrwt>0</asrwt>
<pdfrwt beam="1">  1        3 0.16044239E-01 0.40953784E+03</pdfrwt>
<pdfrwt beam="2">  1       -3 0.26850355E+00 0.40953784E+03</pdfrwt>
<totfact> 0.52739408E+00</totfact>
</mgrwt>
</event>
<event>
 4    1  0.2488810E-002  0.4179163E+03  0.7818608E-02  0.1037747E+00
          2   -1    0    0  502    0  0.00000000000E+00  0.00000000000E+00  0.16552677076E+04  0.16552677076E+04  0.00000000000E+00 0.  1.
         -2   -1    0    0    0  501 -0.00000000000E+00 -0.00000000000E+00 -0.12062997181E+03  0.12062997181E+03  0.00000000000E+00 0. -1.
    9000007    1    1    2  502    0  0.44752583832E+02 -0.11247784775E+03  0.10816425662E+04  0.11595709125E+04  0.40000000000E+03 0.  1.
   -9000007    1    1    2    0  501 -0.44752583832E+02  0.11247784775E+03  0.45299516955E+03  0.61632676693E+03  0.40000000000E+03 0. -1.
<mgrwt>
<rscale>  2 0.41791633E+03</rscale>
<asrwt>0</asrwt>
<pdfrwt beam="1">  1        2 0.25465655E+00 0.41791633E+03</pdfrwt>
<pdfrwt beam="2">  1       -2 0.18558458E-01 0.41791633E+03</pdfrwt>
<totfact> 0.26510378E+02</totfact>
</mgrwt>
</event>
<event>
 4    1  0.2488810E-002  0.4579853E+03  0.7818608E-02  0.1025367E+00
          2   -1    0    0  502    0  0.00000000000E+00  0.00000000000E+00  0.98024610151E+03  0.98024610151E+03  0.00000000000E+00 0.  1.
         -2   -1    0    0    0  501 -0.00000000000E+00 -0.00000000000E+00 -0.21433590629E+03  0.21433590629E+03  0.00000000000E+00 0. -1.
    9000007    1    1    2  502    0 -0.20188350260E+03  0.94834634288E+02  0.35852869530E+03  0.58162993547E+03  0.40000000000E+03 0. -1.
   -9000007    1    1    2    0  501  0.20188350260E+03 -0.94834634288E+02  0.40738149992E+03  0.61295207232E+03  0.40000000000E+03 0.  1.
<mgrwt>
<rscale>  2 0.45798532E+03</rscale>
<asrwt>0</asrwt>
<pdfrwt beam="1">  1        2 0.15080709E+00 0.45798532E+03</pdfrwt>
<pdfrwt beam="2">  1       -2 0.32974755E-01 0.45798532E+03</pdfrwt>
<totfact> 0.22930502E+02</totfact>
</mgrwt>
</event>
<event>
 4    1  0.2488810E-002  0.4764055E+03  0.7818608E-02  0.1020128E+00
          1   -1    0    0  502    0  0.00000000000E+00  0.00000000000E+00  0.15757750780E+04  0.15757750780E+04  0.00000000000E+00 0. -1.
         -1   -1    0    0    0  501 -0.00000000000E+00 -0.00000000000E+00 -0.20607371804E+03  0.20607371804E+03  0.00000000000E+00 0.  1.
    9000007    1    1    2  502    0 -0.24169376264E+03 -0.92446142114E+02  0.19600568586E+03  0.51515084488E+03  0.40000000000E+03 0.  1.
   -9000007    1    1    2    0  501  0.24169376264E+03  0.92446142114E+02  0.11736956741E+04  0.12666979511E+04  0.40000000000E+03 0. -1.
<mgrwt>
<rscale>  2 0.47640546E+03</rscale>
<asrwt>0</asrwt>
<pdfrwt beam="1">  1        1 0.24242693E+00 0.47640546E+03</pdfrwt>
<pdfrwt beam="2">  1       -1 0.31703650E-01 0.47640546E+03</pdfrwt>
<totfact> 0.57241573E+01</totfact>
</mgrwt>
</event>
<event>
 4    1  0.2488810E-002  0.4607231E+03  0.7818608E-02  0.1024572E+00
         -2   -1    0    0    0  501 -0.00000000000E+00  0.00000000000E+00  0.37448130619E+03  0.37448130619E+03  0.00000000000E+00 0. -1.
          2   -1    0    0  502    0  0.00000000000E+00 -0.00000000000E+00 -0.56768662476E+03  0.56768662476E+03  0.00000000000E+00 0.  1.
    9000007    1    1    2  502    0  0.22839038977E+03  0.10177977952E+02 -0.11494425386E+03  0.47484517779E+03  0.40000000000E+03 0. -1.
   -9000007    1    1    2    0  501 -0.22839038977E+03 -0.10177977952E+02 -0.78261064707E+02  0.46732275316E+03  0.40000000000E+03 0.  1.
<mgrwt>
<rscale>  2 0.46072309E+03</rscale>
<asrwt>0</asrwt>
<pdfrwt beam="1">  1        2 0.87336404E-01 0.46072309E+03</pdfrwt>
<pdfrwt beam="2">  1       -2 0.57612509E-01 0.46072309E+03</pdfrwt>
<totfact> 0.15375215E+02</totfact>
</mgrwt>
</event>
<event>
 4    1  0.2488810E-002  0.4110577E+03  0.7818608E-02  0.1040017E+00
         -2   -1    0    0    0  501 -0.00000000000E+00  0.00000000000E+00  0.13397176244E+03  0.13397176244E+03  0.00000000000E+00 0.  1.
          2   -1    0    0  502    0  0.00000000000E+00 -0.00000000000E+00 -0.13526625406E+04  0.13526625406E+04  0.00000000000E+00 0. -1.
    9000007    1    1    2  502    0  0.84659599018E+02  0.42440238602E+02 -0.80260616576E+03  0.90174557325E+03  0.40000000000E+03 0. -1.
   -9000007    1    1    2    0  501 -0.84659599018E+02 -0.42440238602E+02 -0.41608461237E+03  0.58488872977E+03  0.40000000000E+03 0.  1.
<mgrwt>
<rscale>  2 0.41105769E+03</rscale>
<asrwt>0</asrwt>
<pdfrwt beam="1">  1        2 0.20810194E+00 0.41105769E+03</pdfrwt>
<pdfrwt beam="2">  1       -2 0.20611039E-01 0.41105769E+03</pdfrwt>
<totfact> 0.32382101E+02</totfact>
</mgrwt>
</event>
<event>
 4    1  0.2488810E-002  0.6439307E+03  0.7818608E-02  0.9818235E-01
          2   -1    0    0  502    0  0.00000000000E+00  0.00000000000E+00  0.10851966673E+04  0.10851966673E+04  0.00000000000E+00 0.  1.
         -2   -1    0    0    0  501 -0.00000000000E+00 -0.00000000000E+00 -0.53174671069E+03  0.53174671069E+03  0.00000000000E+00 0. -1.
    9000007    1    1    2  502    0 -0.30437446486E+03 -0.40249579866E+03  0.70562425064E+03  0.95527601555E+03  0.40000000000E+03 0. -1.
   -9000007    1    1    2    0  501  0.30437446486E+03  0.40249579866E+03 -0.15217429400E+03  0.66166736246E+03  0.40000000000E+03 0.  1.
<mgrwt>
<rscale>  2 0.64393065E+03</rscale>
<asrwt>0</asrwt>
<pdfrwt beam="1">  1        2 0.16695333E+00 0.64393065E+03</pdfrwt>
<pdfrwt beam="2">  1       -2 0.81807186E-01 0.64393065E+03</pdfrwt>
<totfact> 0.30090307E+01</totfact>
</mgrwt>
</event>
<event>
 4    1  0.2488810E-002  0.4184961E+03  0.7818608E-02  0.1037557E+00
         -2   -1    0    0    0  501 -0.00000000000E+00  0.00000000000E+00  0.45940551301E+03  0.45940551301E+03  0.00000000000E+00 0. -1.
          2   -1    0    0  502    0  0.00000000000E+00 -0.00000000000E+00 -0.51337101881E+03  0.51337101881E+03  0.00000000000E+00 0.  1.
    9000007    1    1    2  502    0 -0.88360905353E+02  0.85623176968E+02  0.21978414680E+03  0.47269868755E+03  0.40000000000E+03 0. -1.
   -9000007    1    1    2    0  501  0.88360905353E+02 -0.85623176968E+02 -0.27374965260E+03  0.50007784427E+03  0.40000000000E+03 0.  1.
<mgrwt>
<rscale>  2 0.41849609E+03</rscale>
<asrwt>0</asrwt>
<pdfrwt beam="1">  1        2 0.78980157E-01 0.41849609E+03</pdfrwt>
<pdfrwt beam="2">  1       -2 0.70677771E-01 0.41849609E+03</pdfrwt>
<totfact> 0.11233544E+02</totfact>
</mgrwt>
</event>
<event>
 4    1  0.2488810E-002  0.5825932E+03  0.7818608E-02  0.9942192E-01
         -1   -1    0    0    0  501 -0.00000000000E+00  0.00000000000E+00  0.12085347891E+04  0.12085347891E+04  0.00000000000E+00 0. -1.
          1   -1    0    0  502    0  0.00000000000E+00 -0.00000000000E+00 -0.48928351282E+03  0.48928351282E+03  0.00000000000E+00 0.  1.
    9000007    1    1    2  502    0 -0.39533128928E+03  0.15207909291E+03  0.91369804547E+03  0.10836323164E+04  0.40000000000E+03 0. -1.
   -9000007    1    1    2    0  501  0.39533128928E+03 -0.15207909291E+03 -0.19444676920E+03  0.61418598555E+03  0.40000000000E+03 0.  1.
<mgrwt>
<rscale>  2 0.58259324E+03</rscale>
<asrwt>0</asrwt>
<pdfrwt beam="1">  1        1 0.75274387E-01 0.58259324E+03</pdfrwt>
<pdfrwt beam="2">  1       -1 0.18592843E+00 0.58259324E+03</pdfrwt>
<totfact> 0.91133700E+00</totfact>
</mgrwt>
</event>
<event>
 4    1  0.2488810E-002  0.4005163E+03  0.7818608E-02  0.1043601E+00
         -1   -1    0    0    0  501 -0.00000000000E+00  0.00000000000E+00  0.32186605252E+03  0.32186605252E+03  0.00000000000E+00 0.  1.
          1   -1    0    0  502    0  0.00000000000E+00 -0.00000000000E+00 -0.65222673091E+03  0.65222673091E+03  0.00000000000E+00 0. -1.
    9000007    1    1    2  502    0  0.12180015777E+02 -0.16277416528E+02 -0.40172203045E+03  0.56726880473E+03  0.40000000000E+03 0. -1.
   -9000007    1    1    2    0  501 -0.12180015777E+02  0.16277416528E+02  0.71361352064E+02  0.40682397870E+03  0.40000000000E+03 0.  1.
<mgrwt>
<rscale>  2 0.40051630E+03</rscale>
<asrwt>0</asrwt>
<pdfrwt beam="1">  1        1 0.10034257E+00 0.40051630E+03</pdfrwt>
<pdfrwt beam="2">  1       -1 0.49517855E-01 0.40051630E+03</pdfrwt>
<totfact> 0.12985078E+02</totfact>
</mgrwt>
</event>
<event>
 4    1  0.2488810E-002  0.6828505E+03  0.7818608E-02  0.9747018E-01
         -2   -1    0    0    0  501 -0.00000000000E+00  0.00000000000E+00  0.39362074408E+03  0.39362074408E+03  0.00000000000E+00 0. -1.
          2   -1    0    0  502    0  0.00000000000E+00 -0.00000000000E+00 -0.11998505041E+04  0.11998505041E+04  0.00000000000E+00 0.  1.
    9000007    1    1    2  502    0 -0.42449697522E+03  0.35508748105E+03 -0.49292647948E+03  0.84217653455E+03  0.40000000000E+03 0.  1.
   -9000007    1    1    2    0  501  0.42449697522E+03 -0.35508748105E+03 -0.31330328059E+03  0.75129471368E+03  0.40000000000E+03 0. -1.
<mgrwt>
<rscale>  2 0.68285050E+03</rscale>
<asrwt>0</asrwt>
<pdfrwt beam="1">  1        2 0.18459238E+00 0.68285050E+03</pdfrwt>
<pdfrwt beam="2">  1       -2 0.60557038E-01 0.68285050E+03</pdfrwt>
<totfact> 0.49296106E+01</totfact>
</mgrwt>
</event>
<event>
 4    1  0.2488810E-002  0.4214141E+03  0.7818608E-02  0.1036607E+00
         -2   -1    0    0    0  501 -0.00000000000E+00  0.00000000000E+00  0.59718801304E+03  0.59718801304E+03  0.00000000000E+00 0.  1.
          2   -1    0    0  502    0  0.00000000000E+00 -0.00000000000E+00 -0.39719231044E+03  0.39719231044E+03  0.00000000000E+00 0. -1.
    9000007    1    1    2  502    0 -0.12097824943E+03 -0.54351459167E+02  0.34923988181E+03  0.54731920576E+03  0.40000000000E+03 0.  1.
   -9000007    1    1    2    0  501  0.12097824943E+03  0.54351459167E+02 -0.14924417921E+03  0.44706111772E+03  0.40000000000E+03 0. -1.
<mgrwt>
<rscale>  2 0.42141407E+03</rscale>
<asrwt>0</asrwt>
<pdfrwt beam="1">  1        2 0.61106509E-01 0.42141407E+03</pdfrwt>
<pdfrwt beam="2">  1       -2 0.91875079E-01 0.42141407E+03</pdfrwt>
<totfact> 0.83451656E+01</totfact>
</mgrwt>
</event>
<event>
 4    1  0.2488810E-002  0.6694370E+03  0.7818608E-02  0.9770975E-01
          1   -1    0    0  502    0  0.00000000000E+00  0.00000000000E+00  0.81924109059E+03  0.81924109059E+03  0.00000000000E+00 0. -1.
         -1   -1    0    0    0  501 -0.00000000000E+00 -0.00000000000E+00 -0.60527513823E+03  0.60527513823E+03  0.00000000000E+00 0.  1.
    9000007    1    1    2  502    0 -0.15029020944E+03  0.51532389603E+03  0.32793966833E+03  0.74544637026E+03  0.40000000000E+03 0.  1.
   -9000007    1    1    2    0  501  0.15029020944E+03 -0.51532389603E+03 -0.11397371597E+03  0.67906985856E+03  0.40000000000E+03 0. -1.
<mgrwt>
<rscale>  2 0.66943698E+03</rscale>
<asrwt>0</asrwt>
<pdfrwt beam="1">  1        1 0.12603709E+00 0.66943698E+03</pdfrwt>
<pdfrwt beam="2">  1       -1 0.93119252E-01 0.66943698E+03</pdfrwt>
<totfact> 0.24694261E+01</totfact>
</mgrwt>
</event>
<event>
 4    1  0.2488810E-002  0.5169707E+03  0.7818608E-02  0.1009442E+00
          4   -1    0    0  502    0  0.00000000000E+00  0.00000000000E+00  0.37539043664E+03  0.37539043664E+03  0.00000000000E+00 0.  1.
         -4   -1    0    0    0  501 -0.00000000000E+00 -0.00000000000E+00 -0.75501138696E+03  0.75501138696E+03  0.00000000000E+00 0. -1.
    9000007    1    1    2  502    0 -0.21768413840E+03  0.24468822678E+03 -0.54828137115E+02  0.51987001939E+03  0.40000000000E+03 0.  1.
   -9000007    1    1    2    0  501  0.21768413840E+03 -0.24468822678E+03 -0.32479281321E+03  0.61053180421E+03  0.40000000000E+03 0.  1.
<mgrwt>
<rscale>  2 0.51697071E+03</rscale>
<asrwt>0</asrwt>
<pdfrwt beam="1">  1        4 0.57752375E-01 0.51697071E+03</pdfrwt>
<pdfrwt beam="2">  1       -4 0.11615560E+00 0.51697071E+03</pdfrwt>
<totfact> 0.31883139E+00</totfact>
</mgrwt>
</event>
<event>
 4    1  0.2488810E-002  0.4556670E+03  0.7818608E-02  0.1026045E+00
         -2   -1    0    0    0  501 -0.00000000000E+00  0.00000000000E+00  0.14854691057E+03  0.14854691057E+03  0.00000000000E+00 0.  1.
          2   -1    0    0  502    0  0.00000000000E+00 -0.00000000000E+00 -0.16910494530E+04  0.16910494530E+04  0.00000000000E+00 0. -1.
    9000007    1    1    2  502    0  0.12524092419E+03  0.17873767695E+03 -0.11543097019E+04  0.12409928824E+04  0.40000000000E+03 0. -1.
   -9000007    1    1    2    0  501 -0.12524092419E+03 -0.17873767695E+03 -0.38819284058E+03  0.59860348122E+03  0.40000000000E+03 0.  1.
<mgrwt>
<rscale>  2 0.45566703E+03</rscale>
<asrwt>0</asrwt>
<pdfrwt beam="1">  1        2 0.26016146E+00 0.45566703E+03</pdfrwt>
<pdfrwt beam="2">  1       -2 0.22853370E-01 0.45566703E+03</pdfrwt>
<totfact> 0.17564327E+02</totfact>
</mgrwt>
</event>
<event>
 4    1  0.2488810E-002  0.5020244E+03  0.7818608E-02  0.1013252E+00
         -2   -1    0    0    0  501 -0.00000000000E+00  0.00000000000E+00  0.51046382186E+03  0.51046382186E+03  0.00000000000E+00 0.  1.
          2   -1    0    0  502    0  0.00000000000E+00 -0.00000000000E+00 -0.54730426693E+03  0.54730426693E+03  0.00000000000E+00 0. -1.
    9000007    1    1    2  502    0 -0.16422038721E+03 -0.25506897949E+03  0.14706006334E+03  0.52312061908E+03  0.40000000000E+03 0.  1.
   -9000007    1    1    2    0  501  0.16422038721E+03  0.25506897949E+03 -0.18390050841E+03  0.53464746971E+03  0.40000000000E+03 0.  1.
<mgrwt>
<rscale>  2 0.50202442E+03</rscale>
<asrwt>0</asrwt>
<pdfrwt beam="1">  1        2 0.84200656E-01 0.50202442E+03</pdfrwt>
<pdfrwt beam="2">  1       -2 0.78532896E-01 0.50202442E+03</pdfrwt>
<totfact> 0.82150199E+01</totfact>
</mgrwt>
</event>
<event>
 4    1  0.2488810E-002  0.4017403E+03  0.7818608E-02  0.1043179E+00
         -2   -1    0    0    0  501 -0.00000000000E+00  0.00000000000E+00  0.12098513377E+03  0.12098513377E+03  0.00000000000E+00 0. -1.
          2   -1    0    0  502    0  0.00000000000E+00 -0.00000000000E+00 -0.18540417552E+04  0.18540417552E+04  0.00000000000E+00 0.  1.
    9000007    1    1    2  502    0 -0.27556709132E+02  0.25216190726E+02 -0.34353189706E+03  0.52859189626E+03  0.40000000000E+03 0. -1.
   -9000007    1    1    2    0  501  0.27556709132E+02 -0.25216190726E+02 -0.13895247244E+04  0.14464349927E+04  0.40000000000E+03 0.  1.
<mgrwt>
<rscale>  2 0.40174025E+03</rscale>
<asrwt>0</asrwt>
<pdfrwt beam="1">  1        2 0.28523720E+00 0.40174025E+03</pdfrwt>
<pdfrwt beam="2">  1       -2 0.18613097E-01 0.40174025E+03</pdfrwt>
<totfact> 0.20697374E+02</totfact>
</mgrwt>
</event>
<event>
 4    1  0.2488810E-002  0.4800039E+03  0.7818608E-02  0.1019134E+00
         -2   -1    0    0    0  501 -0.00000000000E+00  0.00000000000E+00  0.22018666694E+03  0.22018666694E+03  0.00000000000E+00 0.  1.
          2   -1    0    0  502    0  0.00000000000E+00 -0.00000000000E+00 -0.13200262787E+04  0.13200262787E+04  0.00000000000E+00 0. -1.
    9000007    1    1    2  502    0 -0.24632881620E+03 -0.98619747740E+02 -0.90053998087E+03  0.10204783180E+04  0.40000000000E+03 0. -1.
   -9000007    1    1    2    0  501  0.24632881620E+03  0.98619747740E+02 -0.19929963094E+03  0.51973462770E+03  0.40000000000E+03 0.  1.
<mgrwt>
<rscale>  2 0.48000390E+03</rscale>
<asrwt>0</asrwt>
<pdfrwt beam="1">  1        2 0.20308097E+00 0.48000390E+03</pdfrwt>
<pdfrwt beam="2">  1       -2 0.33874872E-01 0.48000390E+03</pdfrwt>
<totfact> 0.13667273E+02</totfact>
</mgrwt>
</event>
<event>
 4    1  0.2488810E-002  0.4876976E+03  0.7818608E-02  0.1017041E+00
         -2   -1    0    0    0  501 -0.00000000000E+00  0.00000000000E+00  0.92609523469E+02  0.92609523469E+02  0.00000000000E+00 0. -1.
          2   -1    0    0  502    0  0.00000000000E+00 -0.00000000000E+00 -0.26138596635E+04  0.26138596635E+04  0.00000000000E+00 0.  1.
    9000007    1    1    2  502    0 -0.19871879304E+03  0.19585661703E+03 -0.10819657783E+04  0.11868019711E+04  0.40000000000E+03 0. -1.
   -9000007    1    1    2    0  501  0.19871879304E+03 -0.19585661703E+03 -0.14392843617E+04  0.15196672159E+04  0.40000000000E+03 0.  1.
<mgrwt>
<rscale>  2 0.48769762E+03</rscale>
<asrwt>0</asrwt>
<pdfrwt beam="1">  1        2 0.40213226E+00 0.48769762E+03</pdfrwt>
<pdfrwt beam="2">  1       -2 0.14247619E-01 0.48769762E+03</pdfrwt>
<totfact> 0.12342118E+02</totfact>
</mgrwt>
</event>
<event>
 4    1  0.2488810E-002  0.4365896E+03  0.7818608E-02  0.1031798E+00
          2   -1    0    0  502    0  0.00000000000E+00  0.00000000000E+00  0.16280627032E+04  0.16280627032E+04  0.00000000000E+00 0.  1.
         -2   -1    0    0    0  501 -0.00000000000E+00 -0.00000000000E+00 -0.14247480019E+03  0.14247480019E+03  0.00000000000E+00 0. -1.
    9000007    1    1    2  502    0  0.17147738880E+03 -0.34726841918E+02  0.36903211053E+03  0.57165999250E+03  0.40000000000E+03 0. -1.
   -9000007    1    1    2    0  501 -0.17147738880E+03  0.34726841918E+02  0.11165557925E+04  0.11988775109E+04  0.40000000000E+03 0.  1.
<mgrwt>
<rscale>  2 0.43658957E+03</rscale>
<asrwt>0</asrwt>
<pdfrwt beam="1">  1        2 0.25047117E+00 0.43658957E+03</pdfrwt>
<pdfrwt beam="2">  1       -2 0.21919201E-01 0.43658957E+03</pdfrwt>
<totfact> 0.20492702E+02</totfact>
</mgrwt>
</event>
<event>
 4    1  0.2488810E-002  0.6409357E+03  0.7818608E-02  0.9823938E-01
         -2   -1    0    0    0  501 -0.00000000000E+00  0.00000000000E+00  0.44432196483E+03  0.44432196483E+03  0.00000000000E+00 0. -1.
          2   -1    0    0  502    0  0.00000000000E+00 -0.00000000000E+00 -0.10745614510E+04  0.10745614510E+04  0.00000000000E+00 0.  1.
    9000007    1    1    2  502    0  0.49975945028E+03 -0.32235021053E+02 -0.31367935398E+02  0.64170285343E+03  0.40000000000E+03 0.  1.
   -9000007    1    1    2    0  501 -0.49975945028E+03  0.32235021053E+02 -0.59887155076E+03  0.87718056239E+03  0.40000000000E+03 0. -1.
<mgrwt>
<rscale>  2 0.64093573E+03</rscale>
<asrwt>0</asrwt>
<pdfrwt beam="1">  1        2 0.16531714E+00 0.64093573E+03</pdfrwt>
<pdfrwt beam="2">  1       -2 0.68357227E-01 0.64093573E+03</pdfrwt>
<totfact> 0.45448582E+01</totfact>
</mgrwt>
</event>
<event>
 4    1  0.2488810E-002  0.5817431E+03  0.7818608E-02  0.9944024E-01
         -1   -1    0    0    0  501 -0.00000000000E+00  0.00000000000E+00  0.33026788237E+03  0.33026788237E+03  0.00000000000E+00 0.  1.
          1   -1    0    0  502    0  0.00000000000E+00 -0.00000000000E+00 -0.12183331328E+04  0.12183331328E+04  0.00000000000E+00 0. -1.
    9000007    1    1    2  502    0  0.33582218666E+03 -0.25621954778E+03 -0.13534582802E+03  0.59728007742E+03  0.40000000000E+03 0.  1.
   -9000007    1    1    2    0  501 -0.33582218666E+03  0.25621954778E+03 -0.75271942241E+03  0.95132093775E+03  0.40000000000E+03 0. -1.
<mgrwt>
<rscale>  2 0.58174307E+03</rscale>
<asrwt>0</asrwt>
<pdfrwt beam="1">  1        1 0.18743587E+00 0.58174307E+03</pdfrwt>
<pdfrwt beam="2">  1       -1 0.50810443E-01 0.58174307E+03</pdfrwt>
<totfact> 0.42280631E+01</totfact>
</mgrwt>
</event>
<event>
 4    1  0.2488810E-002  0.4614396E+03  0.7818608E-02  0.1024365E+00
          2   -1    0    0  502    0  0.00000000000E+00  0.00000000000E+00  0.47051605532E+03  0.47051605532E+03  0.00000000000E+00 0.  1.
         -2   -1    0    0    0  501 -0.00000000000E+00 -0.00000000000E+00 -0.45678973373E+03  0.45678973373E+03  0.00000000000E+00 0. -1.
    9000007    1    1    2  502    0 -0.72465791392E+02  0.21834663828E+03  0.51593426267E+02  0.46431500838E+03  0.40000000000E+03 0.  1.
   -9000007    1    1    2    0  501  0.72465791392E+02 -0.21834663828E+03 -0.37867104679E+02  0.46299078067E+03  0.40000000000E+03 0. -1.
<mgrwt>
<rscale>  2 0.46143964E+03</rscale>
<asrwt>0</asrwt>
<pdfrwt beam="1">  1        2 0.72387086E-01 0.46143964E+03</pdfrwt>
<pdfrwt beam="2">  1       -2 0.70275343E-01 0.46143964E+03</pdfrwt>
<totfact> 0.12518122E+02</totfact>
</mgrwt>
</event>
<event>
 4    1  0.2488810E-002  0.9049621E+03  0.7818608E-02  0.9419400E-01
          2   -1    0    0  502    0  0.00000000000E+00  0.00000000000E+00  0.10393200317E+04  0.10393200317E+04  0.00000000000E+00 0. -1.
         -2   -1    0    0    0  501 -0.00000000000E+00 -0.00000000000E+00 -0.98534115200E+03  0.98534115200E+03  0.00000000000E+00 0.  1.
    9000007    1    1    2  502    0 -0.70579750402E+03 -0.40100661662E+03 -0.42608260914E+03  0.10002513749E+04  0.40000000000E+03 0. -1.
   -9000007    1    1    2    0  501  0.70579750402E+03  0.40100661662E+03  0.48006148884E+03  0.10244098088E+04  0.40000000000E+03 0.  1.
<mgrwt>
<rscale>  2 0.90496211E+03</rscale>
<asrwt>0</asrwt>
<pdfrwt beam="1">  1        2 0.15989539E+00 0.90496211E+03</pdfrwt>
<pdfrwt beam="2">  1       -2 0.15159095E+00 0.90496211E+03</pdfrwt>
<totfact> 0.69316803E+00</totfact>
</mgrwt>
</event>
<event>
 4    1  0.2488810E-002  0.4198460E+03  0.7818608E-02  0.1037116E+00
         -2   -1    0    0    0  501 -0.00000000000E+00  0.00000000000E+00  0.67396672268E+02  0.67396672268E+02  0.00000000000E+00 0. -1.
          2   -1    0    0  502    0  0.00000000000E+00 -0.00000000000E+00 -0.26405595303E+04  0.26405595303E+04  0.00000000000E+00 0.  1.
    9000007    1    1    2  502    0 -0.12042911531E+03 -0.42041980351E+02 -0.11544731550E+04  0.12284457520E+04  0.40000000000E+03 0.  1.
   -9000007    1    1    2    0  501  0.12042911531E+03  0.42041980351E+02 -0.14186897030E+04  0.14795104505E+04  0.40000000000E+03 0.  1.
<mgrwt>
<rscale>  2 0.41984604E+03</rscale>
<asrwt>0</asrwt>
<pdfrwt beam="1">  1        2 0.40623986E+00 0.41984604E+03</pdfrwt>
<pdfrwt beam="2">  1       -2 0.10368721E-01 0.41984604E+03</pdfrwt>
<totfact> 0.20333273E+02</totfact>
</mgrwt>
</event>
<event>
 4    1  0.2488810E-002  0.4070894E+03  0.7818608E-02  0.1041352E+00
         -1   -1    0    0    0  501 -0.00000000000E+00  0.00000000000E+00  0.39789501915E+03  0.39789501915E+03  0.00000000000E+00 0. -1.
          1   -1    0    0  502    0  0.00000000000E+00 -0.00000000000E+00 -0.52197057767E+03  0.52197057767E+03  0.00000000000E+00 0.  1.
    9000007    1    1    2  502    0  0.70763363156E+02 -0.26726317278E+02  0.14471193911E+03  0.43204547784E+03  0.40000000000E+03 0. -1.
   -9000007    1    1    2    0  501 -0.70763363156E+02  0.26726317278E+02 -0.26878749763E+03  0.48782011898E+03  0.40000000000E+03 0.  1.
<mgrwt>
<rscale>  2 0.40708936E+03</rscale>
<asrwt>0</asrwt>
<pdfrwt beam="1">  1        1 0.80303166E-01 0.40708936E+03</pdfrwt>
<pdfrwt beam="2">  1       -1 0.61214618E-01 0.40708936E+03</pdfrwt>
<totfact> 0.11829848E+02</totfact>
</mgrwt>
</event>
<event>
 4    1  0.2488810E-002  0.4089839E+03  0.7818608E-02  0.1040713E+00
          2   -1    0    0  502    0  0.00000000000E+00  0.00000000000E+00  0.25369822786E+03  0.25369822786E+03  0.00000000000E+00 0. -1.
         -2   -1    0    0    0  501 -0.00000000000E+00 -0.00000000000E+00 -0.66095358533E+03  0.66095358533E+03  0.00000000000E+00 0.  1.
    9000007    1    1    2  502    0 -0.52779961013E+02  0.66948465525E+02 -0.22637708454E+03  0.46745524462E+03  0.40000000000E+03 0.  1.
   -9000007    1    1    2    0  501  0.52779961013E+02 -0.66948465525E+02 -0.18087827293E+03  0.44719656857E+03  0.40000000000E+03 0. -1.
<mgrwt>
<rscale>  2 0.40898389E+03</rscale>
<asrwt>0</asrwt>
<pdfrwt beam="1">  1        2 0.39030497E-01 0.40898389E+03</pdfrwt>
<pdfrwt beam="2">  1       -2 0.10168517E+00 0.40898389E+03</pdfrwt>
<totfact> 0.10794140E+02</totfact>
</mgrwt>
</event>
<event>
 4    1  0.2488810E-002  0.4128312E+03  0.7818608E-02  0.1039425E+00
          2   -1    0    0  502    0  0.00000000000E+00  0.00000000000E+00  0.10801361183E+04  0.10801361183E+04  0.00000000000E+00 0. -1.
         -2   -1    0    0    0  501 -0.00000000000E+00 -0.00000000000E+00 -0.18046682300E+03  0.18046682300E+03  0.00000000000E+00 0.  1.
    9000007    1    1    2  502    0 -0.96625252800E+02 -0.33063099009E+02  0.67328738673E+03  0.78977560935E+03  0.40000000000E+03 0. -1.
   -9000007    1    1    2    0  501  0.96625252800E+02  0.33063099009E+02  0.22638190860E+03  0.47082733197E+03  0.40000000000E+03 0.  1.
<mgrwt>
<rscale>  2 0.41283121E+03</rscale>
<asrwt>0</asrwt>
<pdfrwt beam="1">  1        2 0.16617478E+00 0.41283121E+03</pdfrwt>
<pdfrwt beam="2">  1       -2 0.27764127E-01 0.41283121E+03</pdfrwt>
<totfact> 0.27422048E+02</totfact>
</mgrwt>
</event>
<event>
 4    1  0.2488810E-002  0.5414781E+03  0.7818608E-02  0.1003486E+00
         -2   -1    0    0    0  501 -0.00000000000E+00  0.00000000000E+00  0.43266640588E+03  0.43266640588E+03  0.00000000000E+00 0. -1.
          2   -1    0    0  502    0  0.00000000000E+00 -0.00000000000E+00 -0.67989480684E+03  0.67989480684E+03  0.00000000000E+00 0.  1.
    9000007    1    1    2  502    0 -0.16368107299E+03 -0.32620093250E+03 -0.91685527901E+02  0.54918555884E+03  0.40000000000E+03 0. -1.
   -9000007    1    1    2    0  501  0.16368107299E+03  0.32620093250E+03 -0.15554287307E+03  0.56337565387E+03  0.40000000000E+03 0. -1.
<mgrwt>
<rscale>  2 0.54147811E+03</rscale>
<asrwt>0</asrwt>
<pdfrwt beam="1">  1        2 0.10459920E+00 0.54147811E+03</pdfrwt>
<pdfrwt beam="2">  1       -2 0.66564062E-01 0.54147811E+03</pdfrwt>
<totfact> 0.90596398E+01</totfact>
</mgrwt>
</event>
<event>
 4    1  0.2488810E-002  0.6497739E+03  0.7818608E-02  0.9807203E-01
          2   -1    0    0  502    0  0.00000000000E+00  0.00000000000E+00  0.99058520089E+03  0.99058520089E+03  0.00000000000E+00 0.  1.
         -2   -1    0    0    0  501 -0.00000000000E+00 -0.00000000000E+00 -0.51213026517E+03  0.51213026517E+03  0.00000000000E+00 0. -1.
    9000007    1    1    2  502    0 -0.99279238615E+02 -0.50234428546E+03  0.54696595525E+03  0.84933968738E+03  0.40000000000E+03 0.  1.
   -9000007    1    1    2    0  501  0.99279238615E+02  0.50234428546E+03 -0.68511019528E+02  0.65337577867E+03  0.40000000000E+03 0. -1.
<mgrwt>
<rscale>  2 0.64977392E+03</rscale>
<asrwt>0</asrwt>
<pdfrwt beam="1">  1        2 0.15239772E+00 0.64977392E+03</pdfrwt>
<pdfrwt beam="2">  1       -2 0.78789272E-01 0.64977392E+03</pdfrwt>
<totfact> 0.37487098E+01</totfact>
</mgrwt>
</event>
<event>
 4    1  0.2488810E-002  0.4295091E+03  0.7818608E-02  0.1034015E+00
         -2   -1    0    0    0  501 -0.00000000000E+00  0.00000000000E+00  0.21396697368E+03  0.21396697368E+03  0.00000000000E+00 0.  1.
          2   -1    0    0  502    0  0.00000000000E+00 -0.00000000000E+00 -0.12835404410E+04  0.12835404410E+04  0.00000000000E+00 0. -1.
    9000007    1    1    2  502    0 -0.47250880954E+02  0.14914897762E+03 -0.96379043993E+03  0.10551635302E+04  0.40000000000E+03 0. -1.
   -9000007    1    1    2    0  501  0.47250880954E+02 -0.14914897762E+03 -0.10578302738E+03  0.44234388450E+03  0.40000000000E+03 0.  1.
<mgrwt>
<rscale>  2 0.42950910E+03</rscale>
<asrwt>0</asrwt>
<pdfrwt beam="1">  1        2 0.19746776E+00 0.42950910E+03</pdfrwt>
<pdfrwt beam="2">  1       -2 0.32917996E-01 0.42950910E+03</pdfrwt>
<totfact> 0.15219699E+02</totfact>
</mgrwt>
</event>
<event>
 4    1  0.2488810E-002  0.4035031E+03  0.7818608E-02  0.1042573E+00
          1   -1    0    0  502    0  0.00000000000E+00  0.00000000000E+00  0.21041495684E+04  0.21041495684E+04  0.00000000000E+00 0.  1.
         -1   -1    0    0    0  501 -0.00000000000E+00 -0.00000000000E+00 -0.77925513167E+02  0.77925513167E+02  0.00000000000E+00 0. -1.
    9000007    1    1    2  502    0 -0.27404898097E+01  0.52983065908E+02  0.92165246192E+03  0.10061103201E+04  0.40000000000E+03 0. -1.
   -9000007    1    1    2    0  501  0.27404898097E+01 -0.52983065908E+02  0.11045715933E+04  0.11759647615E+04  0.40000000000E+03 0.  1.
<mgrwt>
<rscale>  2 0.40350306E+03</rscale>
<asrwt>0</asrwt>
<pdfrwt beam="1">  1        1 0.32371528E+00 0.40350306E+03</pdfrwt>
<pdfrwt beam="2">  1       -1 0.11988542E-01 0.40350306E+03</pdfrwt>
<totfact> 0.12913372E+02</totfact>
</mgrwt>
</event>
<event>
 4    1  0.2488810E-002  0.4245201E+03  0.7818608E-02  0.1035605E+00
          1   -1    0    0  502    0  0.00000000000E+00  0.00000000000E+00  0.30764569768E+03  0.30764569768E+03  0.00000000000E+00 0. -1.
         -1   -1    0    0    0  501 -0.00000000000E+00 -0.00000000000E+00 -0.71195266517E+03  0.71195266517E+03  0.00000000000E+00 0.  1.
    9000007    1    1    2  502    0  0.13298874705E+03 -0.50312480036E+02  0.12446737626E+02  0.42470257095E+03  0.40000000000E+03 0. -1.
   -9000007    1    1    2    0  501 -0.13298874705E+03  0.50312480036E+02 -0.41675370512E+03  0.59489579190E+03  0.40000000000E+03 0.  1.
<mgrwt>
<rscale>  2 0.42452014E+03</rscale>
<asrwt>0</asrwt>
<pdfrwt beam="1">  1        1 0.47330108E-01 0.42452014E+03</pdfrwt>
<pdfrwt beam="2">  1       -1 0.10953118E+00 0.42452014E+03</pdfrwt>
<totfact> 0.68662967E+01</totfact>
</mgrwt>
</event>
<event>
 4    1  0.2488810E-002  0.4820045E+03  0.7818608E-02  0.1018586E+00
          2   -1    0    0  502    0  0.00000000000E+00  0.00000000000E+00  0.87540407375E+03  0.87540407375E+03  0.00000000000E+00 0.  1.
         -2   -1    0    0    0  501 -0.00000000000E+00 -0.00000000000E+00 -0.39718162355E+03  0.39718162355E+03  0.00000000000E+00 0. -1.
    9000007    1    1    2  502    0 -0.12013148622E+02 -0.26867092948E+03  0.60563078449E+03  0.77402650550E+03  0.40000000000E+03 0.  1.
   -9000007    1    1    2    0  501  0.12013148622E+02  0.26867092948E+03 -0.12740833429E+03  0.49855919181E+03  0.40000000000E+03 0. -1.
<mgrwt>
<rscale>  2 0.48200455E+03</rscale>
<asrwt>0</asrwt>
<pdfrwt beam="1">  1        2 0.13467755E+00 0.48200455E+03</pdfrwt>
<pdfrwt beam="2">  1       -2 0.61104865E-01 0.48200455E+03</pdfrwt>
<totfact> 0.78858316E+01</totfact>
</mgrwt>
</event>
<event>
 4    1  0.2488810E-002  0.4378259E+03  0.7818608E-02  0.1031416E+00
         -1   -1    0    0    0  501 -0.00000000000E+00  0.00000000000E+00  0.73382567275E+03  0.73382567275E+03  0.00000000000E+00 0.  1.
          1   -1    0    0  502    0  0.00000000000E+00 -0.00000000000E+00 -0.26211448725E+03  0.26211448725E+03  0.00000000000E+00 0. -1.
    9000007    1    1    2  502    0 -0.10558045903E+03  0.14333284090E+03  0.26491031489E+03  0.51173138612E+03  0.40000000000E+03 0.  1.
   -9000007    1    1    2    0  501  0.10558045903E+03 -0.14333284090E+03  0.20680087062E+03  0.48420877387E+03  0.40000000000E+03 0. -1.
<mgrwt>
<rscale>  2 0.43782592E+03</rscale>
<asrwt>0</asrwt>
<pdfrwt beam="1">  1        1 0.40325306E-01 0.43782592E+03</pdfrwt>
<pdfrwt beam="2">  1       -1 0.11289626E+00 0.43782592E+03</pdfrwt>
<totfact> 0.78379964E+01</totfact>
</mgrwt>
</event>
<event>
 4    1  0.2488810E-002  0.4338243E+03  0.7818608E-02  0.1032659E+00
         -2   -1    0    0    0  501 -0.00000000000E+00  0.00000000000E+00  0.37847538923E+03  0.37847538923E+03  0.00000000000E+00 0.  1.
          2   -1    0    0  502    0  0.00000000000E+00 -0.00000000000E+00 -0.50236563805E+03  0.50236563805E+03  0.00000000000E+00 0. -1.
    9000007    1    1    2  502    0 -0.15312064338E+03 -0.68975357075E+02 -0.17578024404E+02  0.43418028312E+03  0.40000000000E+03 0.  1.
   -9000007    1    1    2    0  501  0.15312064338E+03  0.68975357075E+02 -0.10631222441E+03  0.44666074416E+03  0.40000000000E+03 0.  1.
<mgrwt>
<rscale>  2 0.43382431E+03</rscale>
<asrwt>0</asrwt>
<pdfrwt beam="1">  1        2 0.77287021E-01 0.43382431E+03</pdfrwt>
<pdfrwt beam="2">  1       -2 0.58226983E-01 0.43382431E+03</pdfrwt>
<totfact> 0.17360041E+02</totfact>
</mgrwt>
</event>
<event>
 4    1  0.2488810E-002  0.4542680E+03  0.7818608E-02  0.1026457E+00
          2   -1    0    0  502    0  0.00000000000E+00  0.00000000000E+00  0.81950613949E+03  0.81950613949E+03  0.00000000000E+00 0. -1.
         -2   -1    0    0    0  501 -0.00000000000E+00 -0.00000000000E+00 -0.26965511369E+03  0.26965511369E+03  0.00000000000E+00 0.  1.
    9000007    1    1    2  502    0 -0.20755134462E+03 -0.57287675182E+02  0.41502079002E+03  0.61530617950E+03  0.40000000000E+03 0. -1.
   -9000007    1    1    2    0  501  0.20755134462E+03  0.57287675182E+02  0.13483023578E+03  0.47385507369E+03  0.40000000000E+03 0.  1.
<mgrwt>
<rscale>  2 0.45426802E+03</rscale>
<asrwt>0</asrwt>
<pdfrwt beam="1">  1        2 0.12607787E+00 0.45426802E+03</pdfrwt>
<pdfrwt beam="2">  1       -2 0.41485402E-01 0.45426802E+03</pdfrwt>
<totfact> 0.18916755E+02</totfact>
</mgrwt>
</event>
<event>
 4    1  0.2488810E-002  0.6580770E+03  0.7818608E-02  0.9791740E-01
          2   -1    0    0  502    0  0.00000000000E+00  0.00000000000E+00  0.19689781261E+04  0.19689781261E+04  0.00000000000E+00 0. -1.
         -2   -1    0    0    0  501 -0.00000000000E+00 -0.00000000000E+00 -0.22170546998E+03  0.22170546998E+03  0.00000000000E+00 0.  1.
    9000007    1    1    2  502    0  0.36898947755E+03  0.37001644392E+03  0.97126314461E+03  0.11732082080E+04  0.40000000000E+03 0.  1.
   -9000007    1    1    2    0  501 -0.36898947755E+03 -0.37001644392E+03  0.77600951149E+03  0.10174753880E+04  0.40000000000E+03 0.  1.
<mgrwt>
<rscale>  2 0.65807705E+03</rscale>
<asrwt>0</asrwt>
<pdfrwt beam="1">  1        2 0.30291970E+00 0.65807705E+03</pdfrwt>
<pdfrwt beam="2">  1       -2 0.34108535E-01 0.65807705E+03</pdfrwt>
<totfact> 0.58203554E+01</totfact>
</mgrwt>
</event>
<event>
 4    1  0.2488810E-002  0.4006216E+03  0.7818608E-02  0.1043565E+00
         -2   -1    0    0    0  501 -0.00000000000E+00  0.00000000000E+00  0.14737495592E+03  0.14737495592E+03  0.00000000000E+00 0. -1.
          2   -1    0    0  502    0  0.00000000000E+00 -0.00000000000E+00 -0.10890886417E+04  0.10890886417E+04  0.00000000000E+00 0.  1.
    9000007    1    1    2  502    0  0.12112290139E+01  0.22276149626E+02 -0.47485018250E+03  0.62127320057E+03  0.40000000000E+03 0. -1.
   -9000007    1    1    2    0  501 -0.12112290139E+01 -0.22276149626E+02 -0.46686350324E+03  0.61519039701E+03  0.40000000000E+03 0.  1.
<mgrwt>
<rscale>  2 0.40062163E+03</rscale>
<asrwt>0</asrwt>
<pdfrwt beam="1">  1        2 0.16755209E+00 0.40062163E+03</pdfrwt>
<pdfrwt beam="2">  1       -2 0.22673071E-01 0.40062163E+03</pdfrwt>
<totfact> 0.38935712E+02</totfact>
</mgrwt>
</event>
<event>
 4    1  0.2488810E-002  0.4170816E+03  0.7818608E-02  0.1038020E+00
         -2   -1    0    0    0  501 -0.00000000000E+00  0.00000000000E+00  0.37149844919E+03  0.37149844919E+03  0.00000000000E+00 0.  1.
          2   -1    0    0  502    0  0.00000000000E+00 -0.00000000000E+00 -0.47956123548E+03  0.47956123548E+03  0.00000000000E+00 0. -1.
    9000007    1    1    2  502    0 -0.59589191797E+02 -0.10201065818E+03 -0.11936148002E+03  0.43382509041E+03  0.40000000000E+03 0.  1.
   -9000007    1    1    2    0  501  0.59589191797E+02  0.10201065818E+03  0.11298693719E+02  0.41723459425E+03  0.40000000000E+03 0.  1.
<mgrwt>
<rscale>  2 0.41708158E+03</rscale>
<asrwt>0</asrwt>
<pdfrwt beam="1">  1        2 0.73778651E-01 0.41708158E+03</pdfrwt>
<pdfrwt beam="2">  1       -2 0.57153608E-01 0.41708158E+03</pdfrwt>
<totfact> 0.19045657E+02</totfact>
</mgrwt>
</event>
<event>
 4    1  0.2488810E-002  0.5382906E+03  0.7818608E-02  0.1004241E+00
          1   -1    0    0  502    0  0.00000000000E+00  0.00000000000E+00  0.28504308895E+04  0.28504308895E+04  0.00000000000E+00 0.  1.
         -1   -1    0    0    0  501 -0.00000000000E+00 -0.00000000000E+00 -0.11851327210E+03  0.11851327210E+03  0.00000000000E+00 0. -1.
    9000007    1    1    2  502    0 -0.85339050764E+02 -0.34996287809E+03  0.80605662543E+03  0.96926985563E+03  0.40000000000E+03 0.  1.
   -9000007    1    1    2    0  501  0.85339050764E+02  0.34996287809E+03  0.19258609920E+04  0.19996743060E+04  0.40000000000E+03 0. -1.
<mgrwt>
<rscale>  2 0.53829060E+03</rscale>
<asrwt>0</asrwt>
<pdfrwt beam="1">  1        1 0.43852778E+00 0.53829060E+03</pdfrwt>
<pdfrwt beam="2">  1       -1 0.18232813E-01 0.53829060E+03</pdfrwt>
<totfact> 0.20043341E+01</totfact>
</mgrwt>
</event>
<event>
 4    1  0.2488810E-002  0.4785103E+03  0.7818608E-02  0.1019545E+00
          2   -1    0    0  502    0  0.00000000000E+00  0.00000000000E+00  0.24850320172E+03  0.24850320172E+03  0.00000000000E+00 0. -1.
         -2   -1    0    0    0  501 -0.00000000000E+00 -0.00000000000E+00 -0.19496075869E+04  0.19496075869E+04  0.00000000000E+00 0.  1.
    9000007    1    1    2  502    0  0.15510248506E+03  0.21193232986E+03 -0.16487036749E+04  0.17167399048E+04  0.40000000000E+03 0.  1.
   -9000007    1    1    2    0  501 -0.15510248506E+03 -0.21193232986E+03 -0.52400710303E+02  0.48137088378E+03  0.40000000000E+03 0. -1.
<mgrwt>
<rscale>  2 0.47851029E+03</rscale>
<asrwt>0</asrwt>
<pdfrwt beam="1">  1        2 0.38231261E-01 0.47851029E+03</pdfrwt>
<pdfrwt beam="2">  1       -2 0.29993963E+00 0.47851029E+03</pdfrwt>
<totfact> 0.46789024E+00</totfact>
</mgrwt>
</event>
<event>
 4    1  0.2488810E-002  0.5148478E+03  0.7818608E-02  0.1009974E+00
          2   -1    0    0  502    0  0.00000000000E+00  0.00000000000E+00  0.23093370909E+03  0.23093370909E+03  0.00000000000E+00 0.  1.
         -2   -1    0    0    0  501 -0.00000000000E+00 -0.00000000000E+00 -0.11560557214E+04  0.11560557214E+04  0.00000000000E+00 0. -1.
    9000007    1    1    2  502    0 -0.14947640991E+03 -0.28761960292E+03 -0.52112677786E+03  0.73255808760E+03  0.40000000000E+03 0.  1.
   -9000007    1    1    2    0  501  0.14947640991E+03  0.28761960292E+03 -0.40399523444E+03  0.65443134289E+03  0.40000000000E+03 0. -1.
<mgrwt>
<rscale>  2 0.51484778E+03</rscale>
<asrwt>0</asrwt>
<pdfrwt beam="1">  1        2 0.35528263E-01 0.51484778E+03</pdfrwt>
<pdfrwt beam="2">  1       -2 0.17785473E+00 0.51484778E+03</pdfrwt>
<totfact> 0.28538614E+01</totfact>
</mgrwt>
</event>
<event>
 4    1  0.2488810E-002  0.4224947E+03  0.7818608E-02  0.1036257E+00
          2   -1    0    0  502    0  0.00000000000E+00  0.00000000000E+00  0.10878996608E+04  0.10878996608E+04  0.00000000000E+00 0. -1.
         -2   -1    0    0    0  501 -0.00000000000E+00 -0.00000000000E+00 -0.16952494820E+03  0.16952494820E+03  0.00000000000E+00 0.  1.
    9000007    1    1    2  502    0 -0.27271002483E+02 -0.13325946212E+03  0.57187097452E+03  0.71101209787E+03  0.40000000000E+03 0. -1.
   -9000007    1    1    2    0  501  0.27271002483E+02  0.13325946212E+03  0.34650373811E+03  0.54641251116E+03  0.40000000000E+03 0. -1.
<mgrwt>
<rscale>  2 0.42249472E+03</rscale>
<asrwt>0</asrwt>
<pdfrwt beam="1">  1        2 0.16736917E+00 0.42249472E+03</pdfrwt>
<pdfrwt beam="2">  1       -2 0.26080762E-01 0.42249472E+03</pdfrwt>
<totfact> 0.30345091E+02</totfact>
</mgrwt>
</event>
<event>
 4    1  0.2488810E-002  0.5582435E+03  0.7818608E-02  0.9996037E-01
          1   -1    0    0  502    0  0.00000000000E+00  0.00000000000E+00  0.22065146522E+04  0.22065146522E+04  0.00000000000E+00 0.  1.
         -1   -1    0    0    0  501 -0.00000000000E+00 -0.00000000000E+00 -0.15916253015E+03  0.15916253015E+03  0.00000000000E+00 0. -1.
    9000007    1    1    2  502    0 -0.21042151191E+03 -0.32765625530E+03  0.62669276824E+03  0.83927329284E+03  0.40000000000E+03 0. -1.
   -9000007    1    1    2    0  501  0.21042151191E+03  0.32765625530E+03  0.14206593538E+04  0.15264038895E+04  0.40000000000E+03 0.  1.
<mgrwt>
<rscale>  2 0.55824353E+03</rscale>
<asrwt>0</asrwt>
<pdfrwt beam="1">  1        1 0.33946377E+00 0.55824353E+03</pdfrwt>
<pdfrwt beam="2">  1       -1 0.24486545E-01 0.55824353E+03</pdfrwt>
<totfact> 0.33496465E+01</totfact>
</mgrwt>
</event>
<event>
 4    1  0.2488810E-002  0.4213589E+03  0.7818608E-02  0.1036625E+00
          2   -1    0    0  502    0  0.00000000000E+00  0.00000000000E+00  0.61378934988E+03  0.61378934988E+03  0.00000000000E+00 0. -1.
         -2   -1    0    0    0  501 -0.00000000000E+00 -0.00000000000E+00 -0.29972571454E+03  0.29972571454E+03  0.00000000000E+00 0.  1.
    9000007    1    1    2  502    0 -0.79855620318E+02 -0.10567110401E+03  0.71671573563E+02  0.42741094602E+03  0.40000000000E+03 0.  1.
   -9000007    1    1    2    0  501  0.79855620318E+02  0.10567110401E+03  0.24239206177E+03  0.48610411840E+03  0.40000000000E+03 0. -1.
<mgrwt>
<rscale>  2 0.42135888E+03</rscale>
<asrwt>0</asrwt>
<pdfrwt beam="1">  1        2 0.94429131E-01 0.42135888E+03</pdfrwt>
<pdfrwt beam="2">  1       -2 0.46111648E-01 0.42135888E+03</pdfrwt>
<totfact> 0.22101906E+02</totfact>
</mgrwt>
</event>
<event>
 4    1  0.2488810E-002  0.6192575E+03  0.7818608E-02  0.9866239E-01
          1   -1    0    0  502    0  0.00000000000E+00  0.00000000000E+00  0.80470898351E+03  0.80470898351E+03  0.00000000000E+00 0.  1.
         -1   -1    0    0    0  501 -0.00000000000E+00 -0.00000000000E+00 -0.69681144766E+03  0.69681144766E+03  0.00000000000E+00 0. -1.
    9000007    1    1    2  502    0  0.40760495509E+03  0.23945370523E+03  0.47605133110E+03  0.78109202160E+03  0.40000000000E+03 0.  1.
   -9000007    1    1    2    0  501 -0.40760495509E+03 -0.23945370523E+03 -0.36815379525E+03  0.72042840957E+03  0.40000000000E+03 0.  1.
<mgrwt>
<rscale>  2 0.61925752E+03</rscale>
<asrwt>0</asrwt>
<pdfrwt beam="1">  1        1 0.12380138E+00 0.61925752E+03</pdfrwt>
<pdfrwt beam="2">  1       -1 0.10720176E+00 0.61925752E+03</pdfrwt>
<totfact> 0.18572795E+01</totfact>
</mgrwt>
</event>
<event>
 4    1  0.2488810E-002  0.4161119E+03  0.7818608E-02  0.1038339E+00
         -2   -1    0    0    0  501 -0.00000000000E+00  0.00000000000E+00  0.32338899722E+03  0.32338899722E+03  0.00000000000E+00 0.  1.
          2   -1    0    0  502    0  0.00000000000E+00 -0.00000000000E+00 -0.56878625397E+03  0.56878625397E+03  0.00000000000E+00 0. -1.
    9000007    1    1    2  502    0 -0.10645129895E+03  0.42628795613E+02 -0.14655734332E+02  0.41636988822E+03  0.40000000000E+03 0. -1.
   -9000007    1    1    2    0  501  0.10645129895E+03 -0.42628795613E+02 -0.23074152242E+03  0.47580536297E+03  0.40000000000E+03 0. -1.
<mgrwt>
<rscale>  2 0.41611188E+03</rscale>
<asrwt>0</asrwt>
<pdfrwt beam="1">  1        2 0.87505577E-01 0.41611188E+03</pdfrwt>
<pdfrwt beam="2">  1       -2 0.49752154E-01 0.41611188E+03</pdfrwt>
<totfact> 0.20780204E+02</totfact>
</mgrwt>
</event>
<event>
 4    1  0.2488810E-002  0.4327656E+03  0.7818608E-02  0.1032990E+00
         -3   -1    0    0    0  501 -0.00000000000E+00  0.00000000000E+00  0.10787376767E+04  0.10787376767E+04  0.00000000000E+00 0.  1.
          3   -1    0    0  502    0  0.00000000000E+00 -0.00000000000E+00 -0.17778635991E+03  0.17778635991E+03  0.00000000000E+00 0. -1.
    9000007    1    1    2  502    0  0.14799053902E+03  0.73381819396E+02  0.35425246299E+03  0.55926818128E+03  0.40000000000E+03 0. -1.
   -9000007    1    1    2    0  501 -0.14799053902E+03 -0.73381819396E+02  0.54669885384E+03  0.69725585537E+03  0.40000000000E+03 0. -1.
<mgrwt>
<rscale>  2 0.43276563E+03</rscale>
<asrwt>0</asrwt>
<pdfrwt beam="1">  1        3 0.27351748E-01 0.43276563E+03</pdfrwt>
<pdfrwt beam="2">  1       -3 0.16595964E+00 0.43276563E+03</pdfrwt>
<totfact> 0.83684969E+00</totfact>
</mgrwt>
</event>
<event>
 4    1  0.2488810E-002  0.4108287E+03  0.7818608E-02  0.1040093E+00
         -1   -1    0    0    0  501 -0.00000000000E+00  0.00000000000E+00  0.20115438883E+03  0.20115438883E+03  0.00000000000E+00 0.  1.
          1   -1    0    0  502    0  0.00000000000E+00 -0.00000000000E+00 -0.10461144634E+04  0.10461144634E+04  0.00000000000E+00 0. -1.
    9000007    1    1    2  502    0  0.37170433780E+02  0.86014854403E+02 -0.69993013920E+03  0.81159250618E+03  0.40000000000E+03 0. -1.
   -9000007    1    1    2    0  501 -0.37170433780E+02 -0.86014854403E+02 -0.14502993533E+03  0.43567634600E+03  0.40000000000E+03 0.  1.
<mgrwt>
<rscale>  2 0.41082867E+03</rscale>
<asrwt>0</asrwt>
<pdfrwt beam="1">  1        1 0.16094069E+00 0.41082867E+03</pdfrwt>
<pdfrwt beam="2">  1       -1 0.30946828E-01 0.41082867E+03</pdfrwt>
<totfact> 0.14147540E+02</totfact>
</mgrwt>
</event>
<event>
 4    1  0.2488810E-002  0.5198211E+03  0.7818608E-02  0.1008731E+00
         -1   -1    0    0    0  501 -0.00000000000E+00  0.00000000000E+00  0.62296909169E+03  0.62296909169E+03  0.00000000000E+00 0. -1.
          1   -1    0    0  502    0  0.00000000000E+00 -0.00000000000E+00 -0.68275394736E+03  0.68275394736E+03  0.00000000000E+00 0.  1.
    9000007    1    1    2  502    0 -0.46256211388E+02  0.32874656149E+03 -0.42415953319E+03  0.67091374138E+03  0.40000000000E+03 0.  1.
   -9000007    1    1    2    0  501  0.46256211388E+02 -0.32874656149E+03  0.36437467752E+03  0.63480929766E+03  0.40000000000E+03 0. -1.
<mgrwt>
<rscale>  2 0.51982106E+03</rscale>
<asrwt>0</asrwt>
<pdfrwt beam="1">  1        1 0.10503907E+00 0.51982106E+03</pdfrwt>
<pdfrwt beam="2">  1       -1 0.95841399E-01 0.51982106E+03</pdfrwt>
<totfact> 0.31302571E+01</totfact>
</mgrwt>
</event>
<event>
 4    1  0.2488810E-002  0.4297489E+03  0.7818608E-02  0.1033939E+00
         -2   -1    0    0    0  501 -0.00000000000E+00  0.00000000000E+00  0.20688040863E+03  0.20688040863E+03  0.00000000000E+00 0. -1.
          2   -1    0    0  502    0  0.00000000000E+00 -0.00000000000E+00 -0.20728439816E+04  0.20728439816E+04  0.00000000000E+00 0.  1.
    9000007    1    1    2  502    0  0.81982339468E+02  0.13402614326E+03 -0.72909828327E+02  0.43588984173E+03  0.40000000000E+03 0. -1.
   -9000007    1    1    2    0  501 -0.81982339468E+02 -0.13402614326E+03 -0.17930537446E+04  0.18438345485E+04  0.40000000000E+03 0.  1.
<mgrwt>
<rscale>  2 0.42974889E+03</rscale>
<asrwt>0</asrwt>
<pdfrwt beam="1">  1        2 0.31889907E+00 0.42974889E+03</pdfrwt>
<pdfrwt beam="2">  1       -2 0.31827756E-01 0.42974889E+03</pdfrwt>
<totfact> 0.60484290E+01</totfact>
</mgrwt>
</event>
<event>
 4    1  0.2488810E-002  0.4455176E+03  0.7818608E-02  0.1029067E+00
         -1   -1    0    0    0  501 -0.00000000000E+00  0.00000000000E+00  0.25809001528E+03  0.25809001528E+03  0.00000000000E+00 0.  1.
          1   -1    0    0  502    0  0.00000000000E+00 -0.00000000000E+00 -0.77826239934E+03  0.77826239934E+03  0.00000000000E+00 0. -1.
    9000007    1    1    2  502    0 -0.65967127226E+02 -0.18475454127E+03 -0.31644198256E+03  0.54646265263E+03  0.40000000000E+03 0.  1.
   -9000007    1    1    2    0  501  0.65967127226E+02  0.18475454127E+03 -0.20373040150E+03  0.48988976198E+03  0.40000000000E+03 0.  1.
<mgrwt>
<rscale>  2 0.44551757E+03</rscale>
<asrwt>0</asrwt>
<pdfrwt beam="1">  1        1 0.11973267E+00 0.44551757E+03</pdfrwt>
<pdfrwt beam="2">  1       -1 0.39706157E-01 0.44551757E+03</pdfrwt>
<totfact> 0.14860488E+02</totfact>
</mgrwt>
</event>
<event>
 4    1  0.2488810E-002  0.4295268E+03  0.7818608E-02  0.1034010E+00
         -2   -1    0    0    0  501 -0.00000000000E+00  0.00000000000E+00  0.18538618476E+03  0.18538618476E+03  0.00000000000E+00 0.  1.
          2   -1    0    0  502    0  0.00000000000E+00 -0.00000000000E+00 -0.10382975936E+04  0.10382975936E+04  0.00000000000E+00 0. -1.
    9000007    1    1    2  502    0 -0.15614429063E+03 -0.10593840493E+02 -0.55113318047E+03  0.69874247872E+03  0.40000000000E+03 0. -1.
   -9000007    1    1    2    0  501  0.15614429063E+03  0.10593840493E+02 -0.30177822836E+03  0.52494129964E+03  0.40000000000E+03 0.  1.
<mgrwt>
<rscale>  2 0.42952680E+03</rscale>
<asrwt>0</asrwt>
<pdfrwt beam="1">  1        2 0.15973809E+00 0.42952680E+03</pdfrwt>
<pdfrwt beam="2">  1       -2 0.28520952E-01 0.42952680E+03</pdfrwt>
<totfact> 0.27647938E+02</totfact>
</mgrwt>
</event>
<event>
 4    1  0.2488810E-002  0.4811273E+03  0.7818608E-02  0.1018826E+00
          2   -1    0    0  502    0  0.00000000000E+00  0.00000000000E+00  0.86748454091E+03  0.86748454091E+03  0.00000000000E+00 0.  1.
         -2   -1    0    0    0  501 -0.00000000000E+00 -0.00000000000E+00 -0.27590506450E+03  0.27590506450E+03  0.00000000000E+00 0. -1.
    9000007    1    1    2  502    0  0.26574676347E+03 -0.29361917174E+02  0.19218910122E+03  0.51809276689E+03  0.40000000000E+03 0.  1.
   -9000007    1    1    2    0  501 -0.26574676347E+03  0.29361917174E+02  0.39939037519E+03  0.62529683852E+03  0.40000000000E+03 0. -1.
<mgrwt>
<rscale>  2 0.48112729E+03</rscale>
<asrwt>0</asrwt>
<pdfrwt beam="1">  1        2 0.13345916E+00 0.48112729E+03</pdfrwt>
<pdfrwt beam="2">  1       -2 0.42446933E-01 0.48112729E+03</pdfrwt>
<totfact> 0.16728616E+02</totfact>
</mgrwt>
</event>
<event>
 4    1  0.2488810E-002  0.4108630E+03  0.7818608E-02  0.1040082E+00
          1   -1    0    0  502    0  0.00000000000E+00  0.00000000000E+00  0.91832972817E+03  0.91832972817E+03  0.00000000000E+00 0. -1.
         -1   -1    0    0    0  501 -0.00000000000E+00 -0.00000000000E+00 -0.36218726094E+03  0.36218726094E+03  0.00000000000E+00 0.  1.
    9000007    1    1    2  502    0 -0.92395358583E+01  0.93397059129E+02 -0.17123764186E+03  0.44511875906E+03  0.40000000000E+03 0.  1.
   -9000007    1    1    2    0  501  0.92395358583E+01 -0.93397059129E+02  0.72738010909E+03  0.83539823006E+03  0.40000000000E+03 0. -1.
<mgrwt>
<rscale>  2 0.41086297E+03</rscale>
<asrwt>0</asrwt>
<pdfrwt beam="1">  1        1 0.14128150E+00 0.41086297E+03</pdfrwt>
<pdfrwt beam="2">  1       -1 0.55721117E-01 0.41086297E+03</pdfrwt>
<totfact> 0.61045315E+01</totfact>
</mgrwt>
</event>
<event>
 4    1  0.2488810E-002  0.4001511E+03  0.7818608E-02  0.1043727E+00
          2   -1    0    0  502    0  0.00000000000E+00  0.00000000000E+00  0.45037372285E+03  0.45037372285E+03  0.00000000000E+00 0.  1.
         -2   -1    0    0    0  501 -0.00000000000E+00 -0.00000000000E+00 -0.42675245769E+03  0.42675245769E+03  0.00000000000E+00 0. -1.
    9000007    1    1    2  502    0  0.10986710122E+02 -0.43469479848E+00 -0.16735542703E+03  0.43373809576E+03  0.40000000000E+03 0. -1.
   -9000007    1    1    2    0  501 -0.10986710122E+02  0.43469479848E+00  0.19097669219E+03  0.44338808477E+03  0.40000000000E+03 0.  1.
<mgrwt>
<rscale>  2 0.40015109E+03</rscale>
<asrwt>0</asrwt>
<pdfrwt beam="1">  1        2 0.69288265E-01 0.40015109E+03</pdfrwt>
<pdfrwt beam="2">  1       -2 0.65654224E-01 0.40015109E+03</pdfrwt>
<totfact> 0.15292548E+02</totfact>
</mgrwt>
</event>
<event>
 4    1  0.2488810E-002  0.4123448E+03  0.7818608E-02  0.1039587E+00
         -1   -1    0    0    0  501 -0.00000000000E+00  0.00000000000E+00  0.42034762425E+03  0.42034762425E+03  0.00000000000E+00 0.  1.
          1   -1    0    0  502    0  0.00000000000E+00 -0.00000000000E+00 -0.54236281386E+03  0.54236281386E+03  0.00000000000E+00 0. -1.
    9000007    1    1    2  502    0  0.72830079774E+02 -0.68731254916E+02  0.18168321164E+03  0.45059626642E+03  0.40000000000E+03 0.  1.
   -9000007    1    1    2    0  501 -0.72830079774E+02  0.68731254916E+02 -0.30369840124E+03  0.51211417169E+03  0.40000000000E+03 0. -1.
<mgrwt>
<rscale>  2 0.41234477E+03</rscale>
<asrwt>0</asrwt>
<pdfrwt beam="1">  1        1 0.83440433E-01 0.41234477E+03</pdfrwt>
<pdfrwt beam="2">  1       -1 0.64668865E-01 0.41234477E+03</pdfrwt>
<totfact> 0.10068127E+02</totfact>
</mgrwt>
</event>
<event>
 4    1  0.2488810E-002  0.4745306E+03  0.7818608E-02  0.1020649E+00
         -2   -1    0    0    0  501 -0.00000000000E+00  0.00000000000E+00  0.19150030044E+03  0.19150030044E+03  0.00000000000E+00 0. -1.
          2   -1    0    0  502    0  0.00000000000E+00 -0.00000000000E+00 -0.12046810831E+04  0.12046810831E+04  0.00000000000E+00 0.  1.
    9000007    1    1    2  502    0 -0.33069193091E+02  0.25315160026E+03 -0.39863069449E+03  0.61974650853E+03  0.40000000000E+03 0. -1.
   -9000007    1    1    2    0  501  0.33069193091E+02 -0.25315160026E+03 -0.61455008815E+03  0.77643487498E+03  0.40000000000E+03 0.  1.
<mgrwt>
<rscale>  2 0.47453061E+03</rscale>
<asrwt>0</asrwt>
<pdfrwt beam="1">  1        2 0.18533555E+00 0.47453061E+03</pdfrwt>
<pdfrwt beam="2">  1       -2 0.29461584E-01 0.47453061E+03</pdfrwt>
<totfact> 0.20637869E+02</totfact>
</mgrwt>
</event>
<event>
 4    1  0.2488810E-002  0.5247820E+03  0.7818608E-02  0.1007505E+00
          1   -1    0    0  502    0  0.00000000000E+00  0.00000000000E+00  0.20930803093E+04  0.20930803093E+04  0.00000000000E+00 0. -1.
         -1   -1    0    0    0  501 -0.00000000000E+00 -0.00000000000E+00 -0.13622313159E+03  0.13622313159E+03  0.00000000000E+00 0.  1.
    9000007    1    1    2  502    0  0.32105191067E+03  0.11100352510E+03  0.11843368254E+04  0.12953956260E+04  0.40000000000E+03 0.  1.
   -9000007    1    1    2    0  501 -0.32105191067E+03 -0.11100352510E+03  0.77252035231E+03  0.93390781486E+03  0.40000000000E+03 0.  1.
<mgrwt>
<rscale>  2 0.52478197E+03</rscale>
<asrwt>0</asrwt>
<pdfrwt beam="1">  1        1 0.32201233E+00 0.52478197E+03</pdfrwt>
<pdfrwt beam="2">  1       -1 0.20957406E-01 0.52478197E+03</pdfrwt>
<totfact> 0.52032775E+01</totfact>
</mgrwt>
</event>
<event>
 4    1  0.2488810E-002  0.6381696E+03  0.7818608E-02  0.9829235E-01
          2   -1    0    0  502    0  0.00000000000E+00  0.00000000000E+00  0.17558811780E+04  0.17558811780E+04  0.00000000000E+00 0.  1.
         -2   -1    0    0    0  501 -0.00000000000E+00 -0.00000000000E+00 -0.24405638686E+03  0.24405638686E+03  0.00000000000E+00 0. -1.
    9000007    1    1    2  502    0 -0.23342915345E+03 -0.43905725303E+03  0.97871180260E+03  0.11683908737E+04  0.40000000000E+03 0.  1.
   -9000007    1    1    2    0  501  0.23342915345E+03  0.43905725303E+03  0.53311298858E+03  0.83154669124E+03  0.40000000000E+03 0. -1.
<mgrwt>
<rscale>  2 0.63816960E+03</rscale>
<asrwt>0</asrwt>
<pdfrwt beam="1">  1        2 0.27013556E+00 0.63816960E+03</pdfrwt>
<pdfrwt beam="2">  1       -2 0.37547137E-01 0.63816960E+03</pdfrwt>
<totfact> 0.63404432E+01</totfact>
</mgrwt>
</event>
<event>
 4    1  0.2488810E-002  0.4459921E+03  0.7818608E-02  0.1028924E+00
         -1   -1    0    0    0  501 -0.00000000000E+00  0.00000000000E+00  0.66925247687E+02  0.66925247687E+02  0.00000000000E+00 0.  1.
          1   -1    0    0  502    0  0.00000000000E+00 -0.00000000000E+00 -0.30739658763E+04  0.30739658763E+04  0.00000000000E+00 0. -1.
    9000007    1    1    2  502    0  0.60339070787E+02  0.18779827562E+03 -0.12176475057E+04  0.12967553524E+04  0.40000000000E+03 0. -1.
   -9000007    1    1    2    0  501 -0.60339070787E+02 -0.18779827562E+03 -0.17893931229E+04  0.18441357716E+04  0.40000000000E+03 0. -1.
<mgrwt>
<rscale>  2 0.44599215E+03</rscale>
<asrwt>0</asrwt>
<pdfrwt beam="1">  1        1 0.47291782E+00 0.44599215E+03</pdfrwt>
<pdfrwt beam="2">  1       -1 0.10296192E-01 0.44599215E+03</pdfrwt>
<totfact> 0.35557162E+01</totfact>
</mgrwt>
</event>
<event>
 4    1  0.2488810E-002  0.4359650E+03  0.7818608E-02  0.1031992E+00
          2   -1    0    0  502    0  0.00000000000E+00  0.00000000000E+00  0.59174872843E+03  0.59174872843E+03  0.00000000000E+00 0.  1.
         -2   -1    0    0    0  501 -0.00000000000E+00 -0.00000000000E+00 -0.32179754007E+03  0.32179754007E+03  0.00000000000E+00 0. -1.
    9000007    1    1    2  502    0 -0.59773079273E+02 -0.16276559044E+03  0.11517506007E+03  0.45092211401E+03  0.40000000000E+03 0. -1.
   -9000007    1    1    2    0  501  0.59773079273E+02  0.16276559044E+03  0.15477612829E+03  0.46262415450E+03  0.40000000000E+03 0.  1.
<mgrwt>
<rscale>  2 0.43596497E+03</rscale>
<asrwt>0</asrwt>
<pdfrwt beam="1">  1        2 0.91038266E-01 0.43596497E+03</pdfrwt>
<pdfrwt beam="2">  1       -2 0.49507314E-01 0.43596497E+03</pdfrwt>
<totfact> 0.20004721E+02</totfact>
</mgrwt>
</event>
<event>
 4    1  0.2488810E-002  0.4012370E+03  0.7818608E-02  0.1043352E+00
          1   -1    0    0  502    0  0.00000000000E+00  0.00000000000E+00  0.32558360456E+04  0.32558360456E+04  0.00000000000E+00 0. -1.
         -1   -1    0    0    0  501 -0.00000000000E+00 -0.00000000000E+00 -0.79013922149E+02  0.79013922149E+02  0.00000000000E+00 0.  1.
    9000007    1    1    2  502    0  0.28873082137E+02  0.12547581904E+02  0.26084061212E+04  0.26390857489E+04  0.40000000000E+03 0. -1.
   -9000007    1    1    2    0  501 -0.28873082137E+02 -0.12547581904E+02  0.56841600226E+03  0.69576421890E+03  0.40000000000E+03 0.  1.
<mgrwt>
<rscale>  2 0.40123696E+03</rscale>
<asrwt>0</asrwt>
<pdfrwt beam="1">  1        1 0.50089775E+00 0.40123696E+03</pdfrwt>
<pdfrwt beam="2">  1       -1 0.12155991E-01 0.40123696E+03</pdfrwt>
<totfact> 0.20448163E+01</totfact>
</mgrwt>
</event>
<event>
 4    1  0.2488810E-002  0.6345854E+03  0.7818608E-02  0.9836141E-01
          2   -1    0    0  502    0  0.00000000000E+00  0.00000000000E+00  0.12973434375E+04  0.12973434375E+04  0.00000000000E+00 0. -1.
         -2   -1    0    0    0  501 -0.00000000000E+00 -0.00000000000E+00 -0.31750317761E+03  0.31750317761E+03  0.00000000000E+00 0.  1.
    9000007    1    1    2  502    0  0.29658281344E+03  0.39336659436E+03  0.36917288628E+03  0.73415751903E+03  0.40000000000E+03 0.  1.
   -9000007    1    1    2    0  501 -0.29658281344E+03 -0.39336659436E+03  0.61066737366E+03  0.88068909613E+03  0.40000000000E+03 0.  1.
<mgrwt>
<rscale>  2 0.63458541E+03</rscale>
<asrwt>0</asrwt>
<pdfrwt beam="1">  1        2 0.19959130E+00 0.63458541E+03</pdfrwt>
<pdfrwt beam="2">  1       -2 0.48846643E-01 0.63458541E+03</pdfrwt>
<totfact> 0.67797821E+01</totfact>
</mgrwt>
</event>
<event>
 4    1  0.2488810E-002  0.4590715E+03  0.7818608E-02  0.1025051E+00
          2   -1    0    0  502    0  0.00000000000E+00  0.00000000000E+00  0.57452030913E+03  0.57452030913E+03  0.00000000000E+00 0.  1.
         -2   -1    0    0    0  501 -0.00000000000E+00 -0.00000000000E+00 -0.47233618597E+03  0.47233618597E+03  0.00000000000E+00 0. -1.
    9000007    1    1    2  502    0  0.22082917785E+03  0.44509452519E+02 -0.19630083767E+03  0.49928011779E+03  0.40000000000E+03 0. -1.
   -9000007    1    1    2    0  501 -0.22082917785E+03 -0.44509452519E+02  0.29848496083E+03  0.54757637731E+03  0.40000000000E+03 0.  1.
<mgrwt>
<rscale>  2 0.45907147E+03</rscale>
<asrwt>0</asrwt>
<pdfrwt beam="1">  1        2 0.88387740E-01 0.45907147E+03</pdfrwt>
<pdfrwt beam="2">  1       -2 0.72667106E-01 0.45907147E+03</pdfrwt>
<totfact> 0.92455169E+01</totfact>
</mgrwt>
</event>
<event>
 4    1  0.2488810E-002  0.5467644E+03  0.7818608E-02  0.1002246E+00
          1   -1    0    0  502    0  0.00000000000E+00  0.00000000000E+00  0.12985578480E+04  0.12985578480E+04  0.00000000000E+00 0.  1.
         -1   -1    0    0    0  501 -0.00000000000E+00 -0.00000000000E+00 -0.23308379938E+03  0.23308379938E+03  0.00000000000E+00 0. -1.
    9000007    1    1    2  502    0  0.27461880447E+03 -0.25206323168E+03  0.61765424614E+03  0.82489279807E+03  0.40000000000E+03 0. -1.
   -9000007    1    1    2    0  501 -0.27461880447E+03  0.25206323168E+03  0.44781980253E+03  0.70674884936E+03  0.40000000000E+03 0. -1.
<mgrwt>
<rscale>  2 0.54676445E+03</rscale>
<asrwt>0</asrwt>
<pdfrwt beam="1">  1        1 0.19977813E+00 0.54676445E+03</pdfrwt>
<pdfrwt beam="2">  1       -1 0.35859047E-01 0.54676445E+03</pdfrwt>
<totfact> 0.70561137E+01</totfact>
</mgrwt>
</event>
<event>
 4    1  0.2488810E-002  0.4112619E+03  0.7818608E-02  0.1039948E+00
          2   -1    0    0  502    0  0.00000000000E+00  0.00000000000E+00  0.35152259092E+04  0.35152259092E+04  0.00000000000E+00 0.  1.
         -2   -1    0    0    0  501 -0.00000000000E+00 -0.00000000000E+00 -0.58621716535E+02  0.58621716535E+02  0.00000000000E+00 0. -1.
    9000007    1    1    2  502    0 -0.87911934938E+02 -0.37521629701E+02  0.97181292590E+03  0.10552519813E+04  0.40000000000E+03 0. -1.
   -9000007    1    1    2    0  501  0.87911934938E+02  0.37521629701E+02  0.24847912668E+04  0.25185956445E+04  0.40000000000E+03 0.  1.
<mgrwt>
<rscale>  2 0.41126194E+03</rscale>
<asrwt>0</asrwt>
<pdfrwt beam="1">  1        2 0.54080382E+00 0.41126194E+03</pdfrwt>
<pdfrwt beam="2">  1       -2 0.90187284E-02 0.41126194E+03</pdfrwt>
<totfact> 0.74096193E+01</totfact>
</mgrwt>
</event>
