<event>
 3    1  0.1604658E-001  0.1250000E+03  0.7546771E-02  0.1235069E+00
         21   -1    0    0  502  501  0.00000000000E+00  0.00000000000E+00  0.97805675340E+02  0.97805675340E+02  0.00000000000E+00 0. -1.
         21   -1    0    0  501  502 -0.00000000000E+00 -0.00000000000E+00 -0.39938888888E+02  0.39938888888E+02  0.00000000000E+00 0. -1.
         25    1    1    2    0    0  0.00000000000E+00  0.00000000000E+00  0.57866786452E+02  0.13774456423E+03  0.12500000000E+03 0.  0.
<mgrwt>
<rscale>  0 0.12500000E+03</rscale>
<asrwt>0</asrwt>
<pdfrwt beam="1">  1       21 0.15047027E-01 0.12500000E+03</pdfrwt>
<pdfrwt beam="2">  1       21 0.61444445E-02 0.12500000E+03</pdfrwt>
<totfact> 0.72335070E+06</totfact>
</mgrwt>
</event>
<event>
 3    1  0.1604658E-001  0.1250000E+03  0.7546771E-02  0.1235069E+00
         21   -1    0    0  502  501  0.00000000000E+00  0.00000000000E+00  0.37065826413E+02  0.37065826413E+02  0.00000000000E+00 0.  1.
         21   -1    0    0  501  502 -0.00000000000E+00 -0.00000000000E+00 -0.10538683143E+03  0.10538683143E+03  0.00000000000E+00 0.  1.
         25    1    1    2    0    0  0.00000000000E+00  0.00000000000E+00 -0.68321005016E+02  0.14245265784E+03  0.12500000000E+03 0.  0.
<mgrwt>
<rscale>  0 0.12500000E+03</rscale>
<asrwt>0</asrwt>
<pdfrwt beam="1">  1       21 0.57024349E-02 0.12500000E+03</pdfrwt>
<pdfrwt beam="2">  1       21 0.16213359E-01 0.12500000E+03</pdfrwt>
<totfact> 0.71720714E+06</totfact>
</mgrwt>
</event>
<event>
 3    1  0.1604658E-001  0.1250000E+03  0.7546771E-02  0.1235069E+00
         21   -1    0    0  502  501  0.00000000000E+00  0.00000000000E+00  0.36157482498E+01  0.36157482498E+01  0.00000000000E+00 0. -1.
         21   -1    0    0  501  502 -0.00000000000E+00 -0.00000000000E+00 -0.10803434670E+04  0.10803434670E+04  0.00000000000E+00 0. -1.
         25    1    1    2    0    0  0.00000000000E+00  0.00000000000E+00 -0.10767277188E+04  0.10839592153E+04  0.12500000000E+03 0.  0.
<mgrwt>
<rscale>  0 0.12500000E+03</rscale>
<asrwt>0</asrwt>
<pdfrwt beam="1">  1       21 0.55626911E-03 0.12500000E+03</pdfrwt>
<pdfrwt beam="2">  1       21 0.16620664E+00 0.12500000E+03</pdfrwt>
<totfact> 0.21611727E+06</totfact>
</mgrwt>
</event>
<event>
 3    1  0.1604658E-001  0.1250000E+03  0.7546771E-02  0.1235069E+00
         21   -1    0    0  502  501  0.00000000000E+00  0.00000000000E+00  0.14355099980E+03  0.14355099980E+03  0.00000000000E+00 0.  1.
         21   -1    0    0  501  502 -0.00000000000E+00 -0.00000000000E+00 -0.27211583377E+02  0.27211583377E+02  0.00000000000E+00 0.  1.
         25    1    1    2    0    0  0.00000000000E+00  0.00000000000E+00  0.11633941642E+03  0.17076258318E+03  0.12500000000E+03 0.  0.
<mgrwt>
<rscale>  0 0.12500000E+03</rscale>
<asrwt>0</asrwt>
<pdfrwt beam="1">  1       21 0.22084769E-01 0.12500000E+03</pdfrwt>
<pdfrwt beam="2">  1       21 0.41863976E-02 0.12500000E+03</pdfrwt>
<totfact> 0.68227351E+06</totfact>
</mgrwt>
</event>
<event>
 3    1  0.1604658E-001  0.1250000E+03  0.7546771E-02  0.1235069E+00
         21   -1    0    0  502  501  0.00000000000E+00  0.00000000000E+00  0.13386322905E+02  0.13386322905E+02  0.00000000000E+00 0. -1.
         21   -1    0    0  501  502 -0.00000000000E+00 -0.00000000000E+00 -0.29180903730E+03  0.29180903730E+03  0.00000000000E+00 0. -1.
         25    1    1    2    0    0  0.00000000000E+00  0.00000000000E+00 -0.27842271440E+03  0.30519536021E+03  0.12500000000E+03 0.  0.
<mgrwt>
<rscale>  0 0.12500000E+03</rscale>
<asrwt>0</asrwt>
<pdfrwt beam="1">  1       21 0.20594343E-02 0.12500000E+03</pdfrwt>
<pdfrwt beam="2">  1       21 0.44893698E-01 0.12500000E+03</pdfrwt>
<totfact> 0.55027164E+06</totfact>
</mgrwt>
</event>
<event>
 3    1  0.1604658E-001  0.1250000E+03  0.7546771E-02  0.1235069E+00
         21   -1    0    0  502  501  0.00000000000E+00  0.00000000000E+00  0.48718848955E+03  0.48718848955E+03  0.00000000000E+00 0. -1.
         21   -1    0    0  501  502 -0.00000000000E+00 -0.00000000000E+00 -0.80179439453E+01  0.80179439453E+01  0.00000000000E+00 0. -1.
         25    1    1    2    0    0  0.00000000000E+00  0.00000000000E+00  0.47917054560E+03  0.49520643349E+03  0.12500000000E+03 0.  0.
<mgrwt>
<rscale>  0 0.12500000E+03</rscale>
<asrwt>0</asrwt>
<pdfrwt beam="1">  1       21 0.74952052E-01 0.12500000E+03</pdfrwt>
<pdfrwt beam="2">  1       21 0.12335302E-02 0.12500000E+03</pdfrwt>
<totfact> 0.42305243E+06</totfact>
</mgrwt>
</event>
<event>
 3    1  0.1604658E-001  0.1250000E+03  0.7546771E-02  0.1235069E+00
         21   -1    0    0  502  501  0.00000000000E+00  0.00000000000E+00  0.33510858214E+01  0.33510858214E+01  0.00000000000E+00 0.  1.
         21   -1    0    0  501  502 -0.00000000000E+00 -0.00000000000E+00 -0.11656669534E+04  0.11656669534E+04  0.00000000000E+00 0.  1.
         25    1    1    2    0    0  0.00000000000E+00  0.00000000000E+00 -0.11623158676E+04  0.11690180392E+04  0.12500000000E+03 0.  0.
<mgrwt>
<rscale>  0 0.12500000E+03</rscale>
<asrwt>0</asrwt>
<pdfrwt beam="1">  1       21 0.51555160E-03 0.12500000E+03</pdfrwt>
<pdfrwt beam="2">  1       21 0.17933340E+00 0.12500000E+03</pdfrwt>
<totfact> 0.19771950E+06</totfact>
</mgrwt>
</event>
<event>
 3    1  0.1604658E-001  0.1250000E+03  0.7546771E-02  0.1235069E+00
         21   -1    0    0  502  501  0.00000000000E+00  0.00000000000E+00  0.55769915200E+02  0.55769915200E+02  0.00000000000E+00 0.  1.
         21   -1    0    0  501  502 -0.00000000000E+00 -0.00000000000E+00 -0.70042243851E+02  0.70042243851E+02  0.00000000000E+00 0.  1.
         25    1    1    2    0    0  0.00000000000E+00  0.00000000000E+00 -0.14272328651E+02  0.12581215905E+03  0.12500000000E+03 0.  0.
<mgrwt>
<rscale>  0 0.12500000E+03</rscale>
<asrwt>0</asrwt>
<pdfrwt beam="1">  1       21 0.85799870E-02 0.12500000E+03</pdfrwt>
<pdfrwt beam="2">  1       21 0.10775730E-01 0.12500000E+03</pdfrwt>
<totfact> 0.73931988E+06</totfact>
</mgrwt>
</event>
<event>
 3    1  0.1604658E-001  0.1250000E+03  0.7546771E-02  0.1235069E+00
         21   -1    0    0  502  501  0.00000000000E+00  0.00000000000E+00  0.74352125859E+01  0.74352125859E+01  0.00000000000E+00 0. -1.
         21   -1    0    0  501  502 -0.00000000000E+00 -0.00000000000E+00 -0.52537166286E+03  0.52537166286E+03  0.00000000000E+00 0. -1.
         25    1    1    2    0    0  0.00000000000E+00  0.00000000000E+00 -0.51793645028E+03  0.53280687545E+03  0.12500000000E+03 0.  0.
<mgrwt>
<rscale>  0 0.12500000E+03</rscale>
<asrwt>0</asrwt>
<pdfrwt beam="1">  1       21 0.11438791E-02 0.12500000E+03</pdfrwt>
<pdfrwt beam="2">  1       21 0.80826392E-01 0.12500000E+03</pdfrwt>
<totfact> 0.40319001E+06</totfact>
</mgrwt>
</event>
<event>
 3    1  0.1604658E-001  0.1250000E+03  0.7546771E-02  0.1235069E+00
         21   -1    0    0  502  501  0.00000000000E+00  0.00000000000E+00  0.43601257788E+03  0.43601257788E+03  0.00000000000E+00 0.  1.
         21   -1    0    0  501  502 -0.00000000000E+00 -0.00000000000E+00 -0.89590305375E+01  0.89590305375E+01  0.00000000000E+00 0.  1.
         25    1    1    2    0    0  0.00000000000E+00  0.00000000000E+00  0.42705354735E+03  0.44497160842E+03  0.12500000000E+03 0.  0.
<mgrwt>
<rscale>  0 0.12500000E+03</rscale>
<asrwt>0</asrwt>
<pdfrwt beam="1">  1       21 0.67078842E-01 0.12500000E+03</pdfrwt>
<pdfrwt beam="2">  1       21 0.13783127E-02 0.12500000E+03</pdfrwt>
<totfact> 0.45194699E+06</totfact>
</mgrwt>
</event>
<event>
 3    1  0.1604658E-001  0.1250000E+03  0.7546771E-02  0.1235069E+00
         21   -1    0    0  502  501  0.00000000000E+00  0.00000000000E+00  0.98385881342E+02  0.98385881342E+02  0.00000000000E+00 0.  1.
         21   -1    0    0  501  502 -0.00000000000E+00 -0.00000000000E+00 -0.39703359331E+02  0.39703359331E+02  0.00000000000E+00 0.  1.
         25    1    1    2    0    0  0.00000000000E+00  0.00000000000E+00  0.58682522011E+02  0.13808924067E+03  0.12500000000E+03 0.  0.
<mgrwt>
<rscale>  0 0.12500000E+03</rscale>
<asrwt>0</asrwt>
<pdfrwt beam="1">  1       21 0.15136289E-01 0.12500000E+03</pdfrwt>
<pdfrwt beam="2">  1       21 0.61082092E-02 0.12500000E+03</pdfrwt>
<totfact> 0.72289746E+06</totfact>
</mgrwt>
</event>
<event>
 3    1  0.1604658E-001  0.1250000E+03  0.7546771E-02  0.1235069E+00
         21   -1    0    0  502  501  0.00000000000E+00  0.00000000000E+00  0.38289061593E+02  0.38289061593E+02  0.00000000000E+00 0.  1.
         21   -1    0    0  501  502 -0.00000000000E+00 -0.00000000000E+00 -0.10201999834E+03  0.10201999834E+03  0.00000000000E+00 0.  1.
         25    1    1    2    0    0  0.00000000000E+00  0.00000000000E+00 -0.63730936742E+02  0.14030905993E+03  0.12500000000E+03 0.  0.
<mgrwt>
<rscale>  0 0.12500000E+03</rscale>
<asrwt>0</asrwt>
<pdfrwt beam="1">  1       21 0.58906250E-02 0.12500000E+03</pdfrwt>
<pdfrwt beam="2">  1       21 0.15695384E-01 0.12500000E+03</pdfrwt>
<totfact> 0.71998987E+06</totfact>
</mgrwt>
</event>
<event>
 3    1  0.1604658E-001  0.1250000E+03  0.7546771E-02  0.1235069E+00
         21   -1    0    0  502  501  0.00000000000E+00  0.00000000000E+00  0.18000690378E+04  0.18000690378E+04  0.00000000000E+00 0. -1.
         21   -1    0    0  501  502 -0.00000000000E+00 -0.00000000000E+00 -0.21700556579E+01  0.21700556579E+01  0.00000000000E+00 0. -1.
         25    1    1    2    0    0  0.00000000000E+00  0.00000000000E+00  0.17978989821E+04  0.18022390934E+04  0.12500000000E+03 0.  0.
<mgrwt>
<rscale>  0 0.12500000E+03</rscale>
<asrwt>0</asrwt>
<pdfrwt beam="1">  1       21 0.27693250E+00 0.12500000E+03</pdfrwt>
<pdfrwt beam="2">  1       21 0.33385616E-03 0.12500000E+03</pdfrwt>
<totfact> 0.10044253E+06</totfact>
</mgrwt>
</event>
<event>
 3    1  0.1604658E-001  0.1250000E+03  0.7546771E-02  0.1235069E+00
         21   -1    0    0  502  501  0.00000000000E+00  0.00000000000E+00  0.83585321910E+02  0.83585321910E+02  0.00000000000E+00 0. -1.
         21   -1    0    0  501  502 -0.00000000000E+00 -0.00000000000E+00 -0.46733683747E+02  0.46733683747E+02  0.00000000000E+00 0. -1.
         25    1    1    2    0    0  0.00000000000E+00  0.00000000000E+00  0.36851638163E+02  0.13031900566E+03  0.12500000000E+03 0.  0.
<mgrwt>
<rscale>  0 0.12500000E+03</rscale>
<asrwt>0</asrwt>
<pdfrwt beam="1">  1       21 0.12859280E-01 0.12500000E+03</pdfrwt>
<pdfrwt beam="2">  1       21 0.71897975E-02 0.12500000E+03</pdfrwt>
<totfact> 0.73322311E+06</totfact>
</mgrwt>
</event>
<event>
 3    1  0.1604658E-001  0.1250000E+03  0.7546771E-02  0.1235069E+00
         21   -1    0    0  502  501  0.00000000000E+00  0.00000000000E+00  0.89964301087E+01  0.89964301087E+01  0.00000000000E+00 0.  1.
         21   -1    0    0  501  502 -0.00000000000E+00 -0.00000000000E+00 -0.43420000520E+03  0.43420000520E+03  0.00000000000E+00 0.  1.
         25    1    1    2    0    0  0.00000000000E+00  0.00000000000E+00 -0.42520357509E+03  0.44319643531E+03  0.12500000000E+03 0.  0.
<mgrwt>
<rscale>  0 0.12500000E+03</rscale>
<asrwt>0</asrwt>
<pdfrwt beam="1">  1       21 0.13840660E-02 0.12500000E+03</pdfrwt>
<pdfrwt beam="2">  1       21 0.66800007E-01 0.12500000E+03</pdfrwt>
<totfact> 0.45302193E+06</totfact>
</mgrwt>
</event>
<event>
 3    1  0.1604658E-001  0.1250000E+03  0.7546771E-02  0.1235069E+00
         21   -1    0    0  502  501  0.00000000000E+00  0.00000000000E+00  0.14318588087E+02  0.14318588087E+02  0.00000000000E+00 0. -1.
         21   -1    0    0  501  502 -0.00000000000E+00 -0.00000000000E+00 -0.27280971952E+03  0.27280971952E+03  0.00000000000E+00 0. -1.
         25    1    1    2    0    0  0.00000000000E+00  0.00000000000E+00 -0.25849113144E+03  0.28712830761E+03  0.12500000000E+03 0.  0.
<mgrwt>
<rscale>  0 0.12500000E+03</rscale>
<asrwt>0</asrwt>
<pdfrwt beam="1">  1       21 0.22028598E-02 0.12500000E+03</pdfrwt>
<pdfrwt beam="2">  1       21 0.41970725E-01 0.12500000E+03</pdfrwt>
<totfact> 0.56543119E+06</totfact>
</mgrwt>
</event>
<event>
 3    1  0.1604658E-001  0.1250000E+03  0.7546771E-02  0.1235069E+00
         21   -1    0    0  502  501  0.00000000000E+00  0.00000000000E+00  0.13089469866E+03  0.13089469866E+03  0.00000000000E+00 0.  1.
         21   -1    0    0  501  502 -0.00000000000E+00 -0.00000000000E+00 -0.29842690650E+02  0.29842690650E+02  0.00000000000E+00 0.  1.
         25    1    1    2    0    0  0.00000000000E+00  0.00000000000E+00  0.10105200801E+03  0.16073738931E+03  0.12500000000E+03 0.  0.
<mgrwt>
<rscale>  0 0.12500000E+03</rscale>
<asrwt>0</asrwt>
<pdfrwt beam="1">  1       21 0.20137646E-01 0.12500000E+03</pdfrwt>
<pdfrwt beam="2">  1       21 0.45911833E-02 0.12500000E+03</pdfrwt>
<totfact> 0.69429507E+06</totfact>
</mgrwt>
</event>
<event>
 3    1  0.1604658E-001  0.1250000E+03  0.7546771E-02  0.1235069E+00
         21   -1    0    0  502  501  0.00000000000E+00  0.00000000000E+00  0.95102173489E+01  0.95102173489E+01  0.00000000000E+00 0. -1.
         21   -1    0    0  501  502 -0.00000000000E+00 -0.00000000000E+00 -0.41074245274E+03  0.41074245274E+03  0.00000000000E+00 0. -1.
         25    1    1    2    0    0  0.00000000000E+00  0.00000000000E+00 -0.40123223539E+03  0.42025267009E+03  0.12500000000E+03 0.  0.
<mgrwt>
<rscale>  0 0.12500000E+03</rscale>
<asrwt>0</asrwt>
<pdfrwt beam="1">  1       21 0.14631109E-02 0.12500000E+03</pdfrwt>
<pdfrwt beam="2">  1       21 0.63191125E-01 0.12500000E+03</pdfrwt>
<totfact> 0.46726407E+06</totfact>
</mgrwt>
</event>
<event>
 3    1  0.1604658E-001  0.1250000E+03  0.7546771E-02  0.1235069E+00
         21   -1    0    0  502  501  0.00000000000E+00  0.00000000000E+00  0.68948563543E+03  0.68948563543E+03  0.00000000000E+00 0. -1.
         21   -1    0    0  501  502 -0.00000000000E+00 -0.00000000000E+00 -0.56654552311E+01  0.56654552311E+01  0.00000000000E+00 0. -1.
         25    1    1    2    0    0  0.00000000000E+00  0.00000000000E+00  0.68382018020E+03  0.69515109066E+03  0.12500000000E+03 0.  0.
<mgrwt>
<rscale>  0 0.12500000E+03</rscale>
<asrwt>0</asrwt>
<pdfrwt beam="1">  1       21 0.10607465E+00 0.12500000E+03</pdfrwt>
<pdfrwt beam="2">  1       21 0.87160904E-03 0.12500000E+03</pdfrwt>
<totfact> 0.33097938E+06</totfact>
</mgrwt>
</event>
<event>
 3    1  0.1604658E-001  0.1250000E+03  0.7546771E-02  0.1235069E+00
         21   -1    0    0  502  501  0.00000000000E+00  0.00000000000E+00  0.78988360681E+03  0.78988360681E+03  0.00000000000E+00 0.  1.
         21   -1    0    0  501  502 -0.00000000000E+00 -0.00000000000E+00 -0.49453488670E+01  0.49453488670E+01  0.00000000000E+00 0.  1.
         25    1    1    2    0    0  0.00000000000E+00  0.00000000000E+00  0.78493825794E+03  0.79482895567E+03  0.12500000000E+03 0.  0.
<mgrwt>
<rscale>  0 0.12500000E+03</rscale>
<asrwt>0</asrwt>
<pdfrwt beam="1">  1       21 0.12152045E+00 0.12500000E+03</pdfrwt>
<pdfrwt beam="2">  1       21 0.76082353E-03 0.12500000E+03</pdfrwt>
<totfact> 0.29534887E+06</totfact>
</mgrwt>
</event>
<event>
 3    1  0.1604658E-001  0.1250000E+03  0.7546771E-02  0.1235069E+00
         21   -1    0    0  502  501  0.00000000000E+00  0.00000000000E+00  0.23586299957E+02  0.23586299957E+02  0.00000000000E+00 0. -1.
         21   -1    0    0  501  502 -0.00000000000E+00 -0.00000000000E+00 -0.16561520913E+03  0.16561520913E+03  0.00000000000E+00 0. -1.
         25    1    1    2    0    0  0.00000000000E+00  0.00000000000E+00 -0.14202890917E+03  0.18920150909E+03  0.12500000000E+03 0.  0.
<mgrwt>
<rscale>  0 0.12500000E+03</rscale>
<asrwt>0</asrwt>
<pdfrwt beam="1">  1       21 0.36286616E-02 0.12500000E+03</pdfrwt>
<pdfrwt beam="2">  1       21 0.25479262E-01 0.12500000E+03</pdfrwt>
<totfact> 0.66111319E+06</totfact>
</mgrwt>
</event>
<event>
 3    1  0.1604658E-001  0.1250000E+03  0.7546771E-02  0.1235069E+00
         21   -1    0    0  502  501  0.00000000000E+00  0.00000000000E+00  0.38781464193E+03  0.38781464193E+03  0.00000000000E+00 0. -1.
         21   -1    0    0  501  502 -0.00000000000E+00 -0.00000000000E+00 -0.10072466528E+02  0.10072466528E+02  0.00000000000E+00 0. -1.
         25    1    1    2    0    0  0.00000000000E+00  0.00000000000E+00  0.37774217540E+03  0.39788710846E+03  0.12500000000E+03 0.  0.
<mgrwt>
<rscale>  0 0.12500000E+03</rscale>
<asrwt>0</asrwt>
<pdfrwt beam="1">  1       21 0.59663780E-01 0.12500000E+03</pdfrwt>
<pdfrwt beam="2">  1       21 0.15496105E-02 0.12500000E+03</pdfrwt>
<totfact> 0.48181818E+06</totfact>
</mgrwt>
</event>
<event>
 3    1  0.1604658E-001  0.1250000E+03  0.7546771E-02  0.1235069E+00
         21   -1    0    0  502  501  0.00000000000E+00  0.00000000000E+00  0.83976270783E+02  0.83976270783E+02  0.00000000000E+00 0. -1.
         21   -1    0    0  501  502 -0.00000000000E+00 -0.00000000000E+00 -0.46516116560E+02  0.46516116560E+02  0.00000000000E+00 0. -1.
         25    1    1    2    0    0  0.00000000000E+00  0.00000000000E+00  0.37460154224E+02  0.13049238734E+03  0.12500000000E+03 0.  0.
<mgrwt>
<rscale>  0 0.12500000E+03</rscale>
<asrwt>0</asrwt>
<pdfrwt beam="1">  1       21 0.12919426E-01 0.12500000E+03</pdfrwt>
<pdfrwt beam="2">  1       21 0.71563256E-02 0.12500000E+03</pdfrwt>
<totfact> 0.73299160E+06</totfact>
</mgrwt>
</event>
<event>
 3    1  0.1604658E-001  0.1250000E+03  0.7546771E-02  0.1235069E+00
         21   -1    0    0  502  501  0.00000000000E+00  0.00000000000E+00  0.64290332754E+03  0.64290332754E+03  0.00000000000E+00 0. -1.
         21   -1    0    0  501  502 -0.00000000000E+00 -0.00000000000E+00 -0.60759523752E+01  0.60759523752E+01  0.00000000000E+00 0. -1.
         25    1    1    2    0    0  0.00000000000E+00  0.00000000000E+00  0.63682737516E+03  0.64897927991E+03  0.12500000000E+03 0.  0.
<mgrwt>
<rscale>  0 0.12500000E+03</rscale>
<asrwt>0</asrwt>
<pdfrwt beam="1">  1       21 0.98908151E-01 0.12500000E+03</pdfrwt>
<pdfrwt beam="2">  1       21 0.93476241E-03 0.12500000E+03</pdfrwt>
<totfact> 0.34967033E+06</totfact>
</mgrwt>
</event>
<event>
 3    1  0.1604658E-001  0.1250000E+03  0.7546771E-02  0.1235069E+00
         21   -1    0    0  502  501  0.00000000000E+00  0.00000000000E+00  0.66575916033E+03  0.66575916033E+03  0.00000000000E+00 0. -1.
         21   -1    0    0  501  502 -0.00000000000E+00 -0.00000000000E+00 -0.58673620023E+01  0.58673620023E+01  0.00000000000E+00 0. -1.
         25    1    1    2    0    0  0.00000000000E+00  0.00000000000E+00  0.65989179833E+03  0.67162652233E+03  0.12500000000E+03 0.  0.
<mgrwt>
<rscale>  0 0.12500000E+03</rscale>
<asrwt>0</asrwt>
<pdfrwt beam="1">  1       21 0.10242443E+00 0.12500000E+03</pdfrwt>
<pdfrwt beam="2">  1       21 0.90267160E-03 0.12500000E+03</pdfrwt>
<totfact> 0.34033001E+06</totfact>
</mgrwt>
</event>
<event>
 3    1  0.1604658E-001  0.1250000E+03  0.7546771E-02  0.1235069E+00
         21   -1    0    0  502  501  0.00000000000E+00  0.00000000000E+00  0.28342858283E+03  0.28342858283E+03  0.00000000000E+00 0. -1.
         21   -1    0    0  501  502 -0.00000000000E+00 -0.00000000000E+00 -0.13782131502E+02  0.13782131502E+02  0.00000000000E+00 0. -1.
         25    1    1    2    0    0  0.00000000000E+00  0.00000000000E+00  0.26964645133E+03  0.29721071434E+03  0.12500000000E+03 0.  0.
<mgrwt>
<rscale>  0 0.12500000E+03</rscale>
<asrwt>0</asrwt>
<pdfrwt beam="1">  1       21 0.43604393E-01 0.12500000E+03</pdfrwt>
<pdfrwt beam="2">  1       21 0.21203281E-02 0.12500000E+03</pdfrwt>
<totfact> 0.55688775E+06</totfact>
</mgrwt>
</event>
<event>
 3    1  0.1604658E-001  0.1250000E+03  0.7546771E-02  0.1235069E+00
         21   -1    0    0  502  501  0.00000000000E+00  0.00000000000E+00  0.44922383353E+03  0.44922383353E+03  0.00000000000E+00 0.  1.
         21   -1    0    0  501  502 -0.00000000000E+00 -0.00000000000E+00 -0.86955537717E+01  0.86955537717E+01  0.00000000000E+00 0.  1.
         25    1    1    2    0    0  0.00000000000E+00  0.00000000000E+00  0.44052827976E+03  0.45791938730E+03  0.12500000000E+03 0.  0.
<mgrwt>
<rscale>  0 0.12500000E+03</rscale>
<asrwt>0</asrwt>
<pdfrwt beam="1">  1       21 0.69111341E-01 0.12500000E+03</pdfrwt>
<pdfrwt beam="2">  1       21 0.13377779E-02 0.12500000E+03</pdfrwt>
<totfact> 0.44422158E+06</totfact>
</mgrwt>
</event>
<event>
 3    1  0.1604658E-001  0.1250000E+03  0.7546771E-02  0.1235069E+00
         21   -1    0    0  502  501  0.00000000000E+00  0.00000000000E+00  0.19426062579E+03  0.19426062579E+03  0.00000000000E+00 0.  1.
         21   -1    0    0  501  502 -0.00000000000E+00 -0.00000000000E+00 -0.20108295153E+02  0.20108295153E+02  0.00000000000E+00 0.  1.
         25    1    1    2    0    0  0.00000000000E+00  0.00000000000E+00  0.17415233064E+03  0.21436892095E+03  0.12500000000E+03 0.  0.
<mgrwt>
<rscale>  0 0.12500000E+03</rscale>
<asrwt>0</asrwt>
<pdfrwt beam="1">  1       21 0.29886249E-01 0.12500000E+03</pdfrwt>
<pdfrwt beam="2">  1       21 0.30935840E-02 0.12500000E+03</pdfrwt>
<totfact> 0.63402787E+06</totfact>
</mgrwt>
</event>
<event>
 3    1  0.1604658E-001  0.1250000E+03  0.7546771E-02  0.1235069E+00
         21   -1    0    0  502  501  0.00000000000E+00  0.00000000000E+00  0.76808501087E+02  0.76808501087E+02  0.00000000000E+00 0. -1.
         21   -1    0    0  501  502 -0.00000000000E+00 -0.00000000000E+00 -0.50857000784E+02  0.50857000784E+02  0.00000000000E+00 0. -1.
         25    1    1    2    0    0  0.00000000000E+00  0.00000000000E+00  0.25951500303E+02  0.12766550187E+03  0.12500000000E+03 0.  0.
<mgrwt>
<rscale>  0 0.12500000E+03</rscale>
<asrwt>0</asrwt>
<pdfrwt beam="1">  1       21 0.11816692E-01 0.12500000E+03</pdfrwt>
<pdfrwt beam="2">  1       21 0.78241540E-02 0.12500000E+03</pdfrwt>
<totfact> 0.73678796E+06</totfact>
</mgrwt>
</event>
<event>
 3    1  0.1604658E-001  0.1250000E+03  0.7546771E-02  0.1235069E+00
         21   -1    0    0  502  501  0.00000000000E+00  0.00000000000E+00  0.15652700807E+03  0.15652700807E+03  0.00000000000E+00 0. -1.
         21   -1    0    0  501  502 -0.00000000000E+00 -0.00000000000E+00 -0.24955757145E+02  0.24955757145E+02  0.00000000000E+00 0. -1.
         25    1    1    2    0    0  0.00000000000E+00  0.00000000000E+00  0.13157125092E+03  0.18148276521E+03  0.12500000000E+03 0.  0.
<mgrwt>
<rscale>  0 0.12500000E+03</rscale>
<asrwt>0</asrwt>
<pdfrwt beam="1">  1       21 0.24081078E-01 0.12500000E+03</pdfrwt>
<pdfrwt beam="2">  1       21 0.38393474E-02 0.12500000E+03</pdfrwt>
<totfact> 0.66981845E+06</totfact>
</mgrwt>
</event>
<event>
 3    1  0.1604658E-001  0.1250000E+03  0.7546771E-02  0.1235069E+00
         21   -1    0    0  502  501  0.00000000000E+00  0.00000000000E+00  0.15592821061E+02  0.15592821061E+02  0.00000000000E+00 0.  1.
         21   -1    0    0  501  502 -0.00000000000E+00 -0.00000000000E+00 -0.25051592554E+03  0.25051592554E+03  0.00000000000E+00 0.  1.
         25    1    1    2    0    0  0.00000000000E+00  0.00000000000E+00 -0.23492310448E+03  0.26610874661E+03  0.12500000000E+03 0.  0.
<mgrwt>
<rscale>  0 0.12500000E+03</rscale>
<asrwt>0</asrwt>
<pdfrwt beam="1">  1       21 0.23988957E-02 0.12500000E+03</pdfrwt>
<pdfrwt beam="2">  1       21 0.38540910E-01 0.12500000E+03</pdfrwt>
<totfact> 0.58393858E+06</totfact>
</mgrwt>
</event>
<event>
 3    1  0.1604658E-001  0.1250000E+03  0.7546771E-02  0.1235069E+00
         21   -1    0    0  502  501  0.00000000000E+00  0.00000000000E+00  0.58131831233E+02  0.58131831233E+02  0.00000000000E+00 0. -1.
         21   -1    0    0  501  502 -0.00000000000E+00 -0.00000000000E+00 -0.67196403711E+02  0.67196403711E+02  0.00000000000E+00 0. -1.
         25    1    1    2    0    0  0.00000000000E+00  0.00000000000E+00 -0.90645724778E+01  0.12532823494E+03  0.12500000000E+03 0.  0.
<mgrwt>
<rscale>  0 0.12500000E+03</rscale>
<asrwt>0</asrwt>
<pdfrwt beam="1">  1       21 0.89433587E-02 0.12500000E+03</pdfrwt>
<pdfrwt beam="2">  1       21 0.10337908E-01 0.12500000E+03</pdfrwt>
<totfact> 0.73999260E+06</totfact>
</mgrwt>
</event>
<event>
 3    1  0.1604658E-001  0.1250000E+03  0.7546771E-02  0.1235069E+00
         21   -1    0    0  502  501  0.00000000000E+00  0.00000000000E+00  0.68425675079E+03  0.68425675079E+03  0.00000000000E+00 0. -1.
         21   -1    0    0  501  502 -0.00000000000E+00 -0.00000000000E+00 -0.57087489389E+01  0.57087489389E+01  0.00000000000E+00 0. -1.
         25    1    1    2    0    0  0.00000000000E+00  0.00000000000E+00  0.67854800185E+03  0.68996549972E+03  0.12500000000E+03 0.  0.
<mgrwt>
<rscale>  0 0.12500000E+03</rscale>
<asrwt>0</asrwt>
<pdfrwt beam="1">  1       21 0.10527020E+00 0.12500000E+03</pdfrwt>
<pdfrwt beam="2">  1       21 0.87826961E-03 0.12500000E+03</pdfrwt>
<totfact> 0.33300624E+06</totfact>
</mgrwt>
</event>
<event>
 3    1  0.1604658E-001  0.1250000E+03  0.7546771E-02  0.1235069E+00
         21   -1    0    0  502  501  0.00000000000E+00  0.00000000000E+00  0.76325094483E+02  0.76325094483E+02  0.00000000000E+00 0.  1.
         21   -1    0    0  501  502 -0.00000000000E+00 -0.00000000000E+00 -0.51179104677E+02  0.51179104677E+02  0.00000000000E+00 0.  1.
         25    1    1    2    0    0  0.00000000000E+00  0.00000000000E+00  0.25145989807E+02  0.12750419916E+03  0.12500000000E+03 0.  0.
<mgrwt>
<rscale>  0 0.12500000E+03</rscale>
<asrwt>0</asrwt>
<pdfrwt beam="1">  1       21 0.11742322E-01 0.12500000E+03</pdfrwt>
<pdfrwt beam="2">  1       21 0.78737084E-02 0.12500000E+03</pdfrwt>
<totfact> 0.73700649E+06</totfact>
</mgrwt>
</event>
<event>
 3    1  0.1604658E-001  0.1250000E+03  0.7546771E-02  0.1235069E+00
         21   -1    0    0  502  501  0.00000000000E+00  0.00000000000E+00  0.96648409368E+02  0.96648409368E+02  0.00000000000E+00 0.  1.
         21   -1    0    0  501  502 -0.00000000000E+00 -0.00000000000E+00 -0.40417116283E+02  0.40417116283E+02  0.00000000000E+00 0.  1.
         25    1    1    2    0    0  0.00000000000E+00  0.00000000000E+00  0.56231293085E+02  0.13706552565E+03  0.12500000000E+03 0.  0.
<mgrwt>
<rscale>  0 0.12500000E+03</rscale>
<asrwt>0</asrwt>
<pdfrwt beam="1">  1       21 0.14868986E-01 0.12500000E+03</pdfrwt>
<pdfrwt beam="2">  1       21 0.62180179E-02 0.12500000E+03</pdfrwt>
<totfact> 0.72424121E+06</totfact>
</mgrwt>
</event>
<event>
 3    1  0.1604658E-001  0.1250000E+03  0.7546771E-02  0.1235069E+00
         21   -1    0    0  502  501  0.00000000000E+00  0.00000000000E+00  0.10770415889E+04  0.10770415889E+04  0.00000000000E+00 0.  1.
         21   -1    0    0  501  502 -0.00000000000E+00 -0.00000000000E+00 -0.36268330215E+01  0.36268330215E+01  0.00000000000E+00 0.  1.
         25    1    1    2    0    0  0.00000000000E+00  0.00000000000E+00  0.10734147558E+04  0.10806684219E+04  0.12500000000E+03 0.  0.
<mgrwt>
<rscale>  0 0.12500000E+03</rscale>
<asrwt>0</asrwt>
<pdfrwt beam="1">  1       21 0.16569845E+00 0.12500000E+03</pdfrwt>
<pdfrwt beam="2">  1       21 0.55797517E-03 0.12500000E+03</pdfrwt>
<totfact> 0.21686577E+06</totfact>
</mgrwt>
</event>
<event>
 3    1  0.1604658E-001  0.1250000E+03  0.7546771E-02  0.1235069E+00
         21   -1    0    0  502  501  0.00000000000E+00  0.00000000000E+00  0.14385674447E+03  0.14385674447E+03  0.00000000000E+00 0. -1.
         21   -1    0    0  501  502 -0.00000000000E+00 -0.00000000000E+00 -0.27153749478E+02  0.27153749478E+02  0.00000000000E+00 0. -1.
         25    1    1    2    0    0  0.00000000000E+00  0.00000000000E+00  0.11670299499E+03  0.17101049394E+03  0.12500000000E+03 0.  0.
<mgrwt>
<rscale>  0 0.12500000E+03</rscale>
<asrwt>0</asrwt>
<pdfrwt beam="1">  1       21 0.22131806E-01 0.12500000E+03</pdfrwt>
<pdfrwt beam="2">  1       21 0.41775000E-02 0.12500000E+03</pdfrwt>
<totfact> 0.68198049E+06</totfact>
</mgrwt>
</event>
<event>
 3    1  0.1604658E-001  0.1250000E+03  0.7546771E-02  0.1235069E+00
         21   -1    0    0  502  501  0.00000000000E+00  0.00000000000E+00  0.32489186022E+03  0.32489186022E+03  0.00000000000E+00 0.  1.
         21   -1    0    0  501  502 -0.00000000000E+00 -0.00000000000E+00 -0.12023231353E+02  0.12023231353E+02  0.00000000000E+00 0.  1.
         25    1    1    2    0    0  0.00000000000E+00  0.00000000000E+00  0.31286862886E+03  0.33691509157E+03  0.12500000000E+03 0.  0.
<mgrwt>
<rscale>  0 0.12500000E+03</rscale>
<asrwt>0</asrwt>
<pdfrwt beam="1">  1       21 0.49983356E-01 0.12500000E+03</pdfrwt>
<pdfrwt beam="2">  1       21 0.18497281E-02 0.12500000E+03</pdfrwt>
<totfact> 0.52519554E+06</totfact>
</mgrwt>
</event>
<event>
 3    1  0.1604658E-001  0.1250000E+03  0.7546771E-02  0.1235069E+00
         21   -1    0    0  502  501  0.00000000000E+00  0.00000000000E+00  0.29355322959E+02  0.29355322959E+02  0.00000000000E+00 0.  1.
         21   -1    0    0  501  502 -0.00000000000E+00 -0.00000000000E+00 -0.13306785981E+03  0.13306785981E+03  0.00000000000E+00 0.  1.
         25    1    1    2    0    0  0.00000000000E+00  0.00000000000E+00 -0.10371253685E+03  0.16242318276E+03  0.12500000000E+03 0.  0.
<mgrwt>
<rscale>  0 0.12500000E+03</rscale>
<asrwt>0</asrwt>
<pdfrwt beam="1">  1       21 0.45162035E-02 0.12500000E+03</pdfrwt>
<pdfrwt beam="2">  1       21 0.20471979E-01 0.12500000E+03</pdfrwt>
<totfact> 0.69224615E+06</totfact>
</mgrwt>
</event>
<event>
 3    1  0.1604658E-001  0.1250000E+03  0.7546771E-02  0.1235069E+00
         21   -1    0    0  502  501  0.00000000000E+00  0.00000000000E+00  0.11303360520E+03  0.11303360520E+03  0.00000000000E+00 0. -1.
         21   -1    0    0  501  502 -0.00000000000E+00 -0.00000000000E+00 -0.34558306736E+02  0.34558306736E+02  0.00000000000E+00 0. -1.
         25    1    1    2    0    0  0.00000000000E+00  0.00000000000E+00  0.78475298464E+02  0.14759191194E+03  0.12500000000E+03 0.  0.
<mgrwt>
<rscale>  0 0.12500000E+03</rscale>
<asrwt>0</asrwt>
<pdfrwt beam="1">  1       21 0.17389785E-01 0.12500000E+03</pdfrwt>
<pdfrwt beam="2">  1       21 0.53166626E-02 0.12500000E+03</pdfrwt>
<totfact> 0.71063027E+06</totfact>
</mgrwt>
</event>
<event>
 3    1  0.1604658E-001  0.1250000E+03  0.7546771E-02  0.1235069E+00
         21   -1    0    0  502  501  0.00000000000E+00  0.00000000000E+00  0.17413070315E+02  0.17413070315E+02  0.00000000000E+00 0. -1.
         21   -1    0    0  501  502 -0.00000000000E+00 -0.00000000000E+00 -0.22432861806E+03  0.22432861806E+03  0.00000000000E+00 0. -1.
         25    1    1    2    0    0  0.00000000000E+00  0.00000000000E+00 -0.20691554775E+03  0.24174168838E+03  0.12500000000E+03 0.  0.
<mgrwt>
<rscale>  0 0.12500000E+03</rscale>
<asrwt>0</asrwt>
<pdfrwt beam="1">  1       21 0.26789339E-02 0.12500000E+03</pdfrwt>
<pdfrwt beam="2">  1       21 0.34512095E-01 0.12500000E+03</pdfrwt>
<totfact> 0.60664529E+06</totfact>
</mgrwt>
</event>
<event>
 3    1  0.1604658E-001  0.1250000E+03  0.7546771E-02  0.1235069E+00
         21   -1    0    0  502  501  0.00000000000E+00  0.00000000000E+00  0.19042342307E+03  0.19042342307E+03  0.00000000000E+00 0. -1.
         21   -1    0    0  501  502 -0.00000000000E+00 -0.00000000000E+00 -0.20513495330E+02  0.20513495330E+02  0.00000000000E+00 0. -1.
         25    1    1    2    0    0  0.00000000000E+00  0.00000000000E+00  0.16990992774E+03  0.21093691841E+03  0.12500000000E+03 0.  0.
<mgrwt>
<rscale>  0 0.12500000E+03</rscale>
<asrwt>0</asrwt>
<pdfrwt beam="1">  1       21 0.29295910E-01 0.12500000E+03</pdfrwt>
<pdfrwt beam="2">  1       21 0.31559225E-02 0.12500000E+03</pdfrwt>
<totfact> 0.63761096E+06</totfact>
</mgrwt>
</event>
<event>
 3    1  0.1604658E-001  0.1250000E+03  0.7546771E-02  0.1235069E+00
         21   -1    0    0  502  501  0.00000000000E+00  0.00000000000E+00  0.45191096232E+02  0.45191096232E+02  0.00000000000E+00 0.  1.
         21   -1    0    0  501  502 -0.00000000000E+00 -0.00000000000E+00 -0.86438487351E+02  0.86438487351E+02  0.00000000000E+00 0.  1.
         25    1    1    2    0    0  0.00000000000E+00  0.00000000000E+00 -0.41247391119E+02  0.13162958358E+03  0.12500000000E+03 0.  0.
<mgrwt>
<rscale>  0 0.12500000E+03</rscale>
<asrwt>0</asrwt>
<pdfrwt beam="1">  1       21 0.69524764E-02 0.12500000E+03</pdfrwt>
<pdfrwt beam="2">  1       21 0.13298229E-01 0.12500000E+03</pdfrwt>
<totfact> 0.73145956E+06</totfact>
</mgrwt>
</event>
<event>
 3    1  0.1604658E-001  0.1250000E+03  0.7546771E-02  0.1235069E+00
         21   -1    0    0  502  501  0.00000000000E+00  0.00000000000E+00  0.24540720505E+02  0.24540720505E+02  0.00000000000E+00 0.  1.
         21   -1    0    0  501  502 -0.00000000000E+00 -0.00000000000E+00 -0.15917421818E+03  0.15917421818E+03  0.00000000000E+00 0.  1.
         25    1    1    2    0    0  0.00000000000E+00  0.00000000000E+00 -0.13463349768E+03  0.18371493869E+03  0.12500000000E+03 0.  0.
<mgrwt>
<rscale>  0 0.12500000E+03</rscale>
<asrwt>0</asrwt>
<pdfrwt beam="1">  1       21 0.37754955E-02 0.12500000E+03</pdfrwt>
<pdfrwt beam="2">  1       21 0.24488341E-01 0.12500000E+03</pdfrwt>
<totfact> 0.66727905E+06</totfact>
</mgrwt>
</event>
<event>
 3    1  0.1604658E-001  0.1250000E+03  0.7546771E-02  0.1235069E+00
         21   -1    0    0  502  501  0.00000000000E+00  0.00000000000E+00  0.11925599666E+04  0.11925599666E+04  0.00000000000E+00 0. -1.
         21   -1    0    0  501  502 -0.00000000000E+00 -0.00000000000E+00 -0.32755166275E+01  0.32755166275E+01  0.00000000000E+00 0. -1.
         25    1    1    2    0    0  0.00000000000E+00  0.00000000000E+00  0.11892844500E+04  0.11958354833E+04  0.12500000000E+03 0.  0.
<mgrwt>
<rscale>  0 0.12500000E+03</rscale>
<asrwt>0</asrwt>
<pdfrwt beam="1">  1       21 0.18347042E+00 0.12500000E+03</pdfrwt>
<pdfrwt beam="2">  1       21 0.50392659E-03 0.12500000E+03</pdfrwt>
<totfact> 0.19226599E+06</totfact>
</mgrwt>
</event>
<event>
 3    1  0.1604658E-001  0.1250000E+03  0.7546771E-02  0.1235069E+00
         21   -1    0    0  502  501  0.00000000000E+00  0.00000000000E+00  0.16178305722E+03  0.16178305722E+03  0.00000000000E+00 0.  1.
         21   -1    0    0  501  502 -0.00000000000E+00 -0.00000000000E+00 -0.24144988154E+02  0.24144988154E+02  0.00000000000E+00 0.  1.
         25    1    1    2    0    0  0.00000000000E+00  0.00000000000E+00  0.13763806906E+03  0.18592804537E+03  0.12500000000E+03 0.  0.
<mgrwt>
<rscale>  0 0.12500000E+03</rscale>
<asrwt>0</asrwt>
<pdfrwt beam="1">  1       21 0.24889700E-01 0.12500000E+03</pdfrwt>
<pdfrwt beam="2">  1       21 0.37146137E-02 0.12500000E+03</pdfrwt>
<totfact> 0.66477911E+06</totfact>
</mgrwt>
</event>
<event>
 3    1  0.1604658E-001  0.1250000E+03  0.7546771E-02  0.1235069E+00
         21   -1    0    0  502  501  0.00000000000E+00  0.00000000000E+00  0.47489521769E+01  0.47489521769E+01  0.00000000000E+00 0.  1.
         21   -1    0    0  501  502 -0.00000000000E+00 -0.00000000000E+00 -0.82254987090E+03  0.82254987090E+03  0.00000000000E+00 0.  1.
         25    1    1    2    0    0  0.00000000000E+00  0.00000000000E+00 -0.81780091873E+03  0.82729882308E+03  0.12500000000E+03 0.  0.
<mgrwt>
<rscale>  0 0.12500000E+03</rscale>
<asrwt>0</asrwt>
<pdfrwt beam="1">  1       21 0.73060792E-03 0.12500000E+03</pdfrwt>
<pdfrwt beam="2">  1       21 0.12654615E+00 0.12500000E+03</pdfrwt>
<totfact> 0.28478093E+06</totfact>
</mgrwt>
</event>
<event>
 3    1  0.1604658E-001  0.1250000E+03  0.7546771E-02  0.1235069E+00
         21   -1    0    0  502  501  0.00000000000E+00  0.00000000000E+00  0.14785229553E+02  0.14785229553E+02  0.00000000000E+00 0.  1.
         21   -1    0    0  501  502 -0.00000000000E+00 -0.00000000000E+00 -0.26419948274E+03  0.26419948274E+03  0.00000000000E+00 0.  1.
         25    1    1    2    0    0  0.00000000000E+00  0.00000000000E+00 -0.24941425319E+03  0.27898471229E+03  0.12500000000E+03 0.  0.
<mgrwt>
<rscale>  0 0.12500000E+03</rscale>
<asrwt>0</asrwt>
<pdfrwt beam="1">  1       21 0.22746508E-02 0.12500000E+03</pdfrwt>
<pdfrwt beam="2">  1       21 0.40646073E-01 0.12500000E+03</pdfrwt>
<totfact> 0.57249133E+06</totfact>
</mgrwt>
</event>
<event>
 3    1  0.1604658E-001  0.1250000E+03  0.7546771E-02  0.1235069E+00
         21   -1    0    0  502  501  0.00000000000E+00  0.00000000000E+00  0.51240018826E+01  0.51240018826E+01  0.00000000000E+00 0.  1.
         21   -1    0    0  501  502 -0.00000000000E+00 -0.00000000000E+00 -0.76234359188E+03  0.76234359188E+03  0.00000000000E+00 0.  1.
         25    1    1    2    0    0  0.00000000000E+00  0.00000000000E+00 -0.75721959000E+03  0.76746759376E+03  0.12500000000E+03 0.  0.
<mgrwt>
<rscale>  0 0.12500000E+03</rscale>
<asrwt>0</asrwt>
<pdfrwt beam="1">  1       21 0.78830770E-03 0.12500000E+03</pdfrwt>
<pdfrwt beam="2">  1       21 0.11728367E+00 0.12500000E+03</pdfrwt>
<totfact> 0.30463796E+06</totfact>
</mgrwt>
</event>
<event>
 3    1  0.1604658E-001  0.1250000E+03  0.7546771E-02  0.1235069E+00
         21   -1    0    0  502  501  0.00000000000E+00  0.00000000000E+00  0.37990551719E+02  0.37990551719E+02  0.00000000000E+00 0. -1.
         21   -1    0    0  501  502 -0.00000000000E+00 -0.00000000000E+00 -0.10282161809E+03  0.10282161809E+03  0.00000000000E+00 0. -1.
         25    1    1    2    0    0  0.00000000000E+00  0.00000000000E+00 -0.64831066375E+02  0.14081216981E+03  0.12500000000E+03 0.  0.
<mgrwt>
<rscale>  0 0.12500000E+03</rscale>
<asrwt>0</asrwt>
<pdfrwt beam="1">  1       21 0.58447004E-02 0.12500000E+03</pdfrwt>
<pdfrwt beam="2">  1       21 0.15818710E-01 0.12500000E+03</pdfrwt>
<totfact> 0.71933458E+06</totfact>
</mgrwt>
</event>
<event>
 3    1  0.1604658E-001  0.1250000E+03  0.7546771E-02  0.1235069E+00
         21   -1    0    0  502  501  0.00000000000E+00  0.00000000000E+00  0.28907480971E+01  0.28907480971E+01  0.00000000000E+00 0. -1.
         21   -1    0    0  501  502 -0.00000000000E+00 -0.00000000000E+00 -0.13512938066E+04  0.13512938066E+04  0.00000000000E+00 0. -1.
         25    1    1    2    0    0  0.00000000000E+00  0.00000000000E+00 -0.13484030585E+04  0.13541845547E+04  0.12500000000E+03 0.  0.
<mgrwt>
<rscale>  0 0.12500000E+03</rscale>
<asrwt>0</asrwt>
<pdfrwt beam="1">  1       21 0.44472964E-03 0.12500000E+03</pdfrwt>
<pdfrwt beam="2">  1       21 0.20789174E+00 0.12500000E+03</pdfrwt>
<totfact> 0.16306593E+06</totfact>
</mgrwt>
</event>
<event>
 3    1  0.1604658E-001  0.1250000E+03  0.7546771E-02  0.1235069E+00
         21   -1    0    0  502  501  0.00000000000E+00  0.00000000000E+00  0.52965766993E+02  0.52965766993E+02  0.00000000000E+00 0.  1.
         21   -1    0    0  501  502 -0.00000000000E+00 -0.00000000000E+00 -0.73750466042E+02  0.73750466042E+02  0.00000000000E+00 0.  1.
         25    1    1    2    0    0  0.00000000000E+00  0.00000000000E+00 -0.20784699049E+02  0.12671623303E+03  0.12500000000E+03 0.  0.
<mgrwt>
<rscale>  0 0.12500000E+03</rscale>
<asrwt>0</asrwt>
<pdfrwt beam="1">  1       21 0.81485796E-02 0.12500000E+03</pdfrwt>
<pdfrwt beam="2">  1       21 0.11346225E-01 0.12500000E+03</pdfrwt>
<totfact> 0.73807818E+06</totfact>
</mgrwt>
</event>
<event>
 3    1  0.1604658E-001  0.1250000E+03  0.7546771E-02  0.1235069E+00
         21   -1    0    0  502  501  0.00000000000E+00  0.00000000000E+00  0.33970761948E+03  0.33970761948E+03  0.00000000000E+00 0.  1.
         21   -1    0    0  501  502 -0.00000000000E+00 -0.00000000000E+00 -0.11498858948E+02  0.11498858948E+02  0.00000000000E+00 0.  1.
         25    1    1    2    0    0  0.00000000000E+00  0.00000000000E+00  0.32820876053E+03  0.35120647843E+03  0.12500000000E+03 0.  0.
<mgrwt>
<rscale>  0 0.12500000E+03</rscale>
<asrwt>0</asrwt>
<pdfrwt beam="1">  1       21 0.52262703E-01 0.12500000E+03</pdfrwt>
<pdfrwt beam="2">  1       21 0.17690555E-02 0.12500000E+03</pdfrwt>
<totfact> 0.51449457E+06</totfact>
</mgrwt>
</event>
<event>
 3    1  0.1604658E-001  0.1250000E+03  0.7546771E-02  0.1235069E+00
         21   -1    0    0  502  501  0.00000000000E+00  0.00000000000E+00  0.16179797638E+02  0.16179797638E+02  0.00000000000E+00 0.  1.
         21   -1    0    0  501  502 -0.00000000000E+00 -0.00000000000E+00 -0.24142761779E+03  0.24142761779E+03  0.00000000000E+00 0.  1.
         25    1    1    2    0    0  0.00000000000E+00  0.00000000000E+00 -0.22524782015E+03  0.25760741543E+03  0.12500000000E+03 0.  0.
<mgrwt>
<rscale>  0 0.12500000E+03</rscale>
<asrwt>0</asrwt>
<pdfrwt beam="1">  1       21 0.24891997E-02 0.12500000E+03</pdfrwt>
<pdfrwt beam="2">  1       21 0.37142710E-01 0.12500000E+03</pdfrwt>
<totfact> 0.59169264E+06</totfact>
</mgrwt>
</event>
<event>
 3    1  0.1604658E-001  0.1250000E+03  0.7546771E-02  0.1235069E+00
         21   -1    0    0  502  501  0.00000000000E+00  0.00000000000E+00  0.63948147699E+02  0.63948147699E+02  0.00000000000E+00 0. -1.
         21   -1    0    0  501  502 -0.00000000000E+00 -0.00000000000E+00 -0.61084646554E+02  0.61084646554E+02  0.00000000000E+00 0. -1.
         25    1    1    2    0    0  0.00000000000E+00  0.00000000000E+00  0.28635011452E+01  0.12503279425E+03  0.12500000000E+03 0.  0.
<mgrwt>
<rscale>  0 0.12500000E+03</rscale>
<asrwt>0</asrwt>
<pdfrwt beam="1">  1       21 0.98381766E-02 0.12500000E+03</pdfrwt>
<pdfrwt beam="2">  1       21 0.93976379E-02 0.12500000E+03</pdfrwt>
<totfact> 0.74039152E+06</totfact>
</mgrwt>
</event>
<event>
 3    1  0.1604658E-001  0.1250000E+03  0.7546771E-02  0.1235069E+00
         21   -1    0    0  502  501  0.00000000000E+00  0.00000000000E+00  0.32140834114E+02  0.32140834114E+02  0.00000000000E+00 0. -1.
         21   -1    0    0  501  502 -0.00000000000E+00 -0.00000000000E+00 -0.12153542706E+03  0.12153542706E+03  0.00000000000E+00 0. -1.
         25    1    1    2    0    0  0.00000000000E+00  0.00000000000E+00 -0.89394592944E+02  0.15367626117E+03  0.12500000000E+03 0.  0.
<mgrwt>
<rscale>  0 0.12500000E+03</rscale>
<asrwt>0</asrwt>
<pdfrwt beam="1">  1       21 0.49447436E-02 0.12500000E+03</pdfrwt>
<pdfrwt beam="2">  1       21 0.18697758E-01 0.12500000E+03</pdfrwt>
<totfact> 0.70300392E+06</totfact>
</mgrwt>
</event>
<event>
 3    1  0.1604658E-001  0.1250000E+03  0.7546771E-02  0.1235069E+00
         21   -1    0    0  502  501  0.00000000000E+00  0.00000000000E+00  0.85502451898E+02  0.85502451898E+02  0.00000000000E+00 0. -1.
         21   -1    0    0  501  502 -0.00000000000E+00 -0.00000000000E+00 -0.45685824363E+02  0.45685824363E+02  0.00000000000E+00 0. -1.
         25    1    1    2    0    0  0.00000000000E+00  0.00000000000E+00  0.39816627535E+02  0.13118827626E+03  0.12500000000E+03 0.  0.
<mgrwt>
<rscale>  0 0.12500000E+03</rscale>
<asrwt>0</asrwt>
<pdfrwt beam="1">  1       21 0.13154223E-01 0.12500000E+03</pdfrwt>
<pdfrwt beam="2">  1       21 0.70285884E-02 0.12500000E+03</pdfrwt>
<totfact> 0.73205311E+06</totfact>
</mgrwt>
</event>
<event>
 3    1  0.1604658E-001  0.1250000E+03  0.7546771E-02  0.1235069E+00
         21   -1    0    0  502  501  0.00000000000E+00  0.00000000000E+00  0.39217565494E+03  0.39217565494E+03  0.00000000000E+00 0.  1.
         21   -1    0    0  501  502 -0.00000000000E+00 -0.00000000000E+00 -0.99604601937E+01  0.99604601937E+01  0.00000000000E+00 0.  1.
         25    1    1    2    0    0  0.00000000000E+00  0.00000000000E+00  0.38221519475E+03  0.40213611514E+03  0.12500000000E+03 0.  0.
<mgrwt>
<rscale>  0 0.12500000E+03</rscale>
<asrwt>0</asrwt>
<pdfrwt beam="1">  1       21 0.60334704E-01 0.12500000E+03</pdfrwt>
<pdfrwt beam="2">  1       21 0.15323788E-02 0.12500000E+03</pdfrwt>
<totfact> 0.47899991E+06</totfact>
</mgrwt>
</event>
<event>
 3    1  0.1604658E-001  0.1250000E+03  0.7546771E-02  0.1235069E+00
         21   -1    0    0  502  501  0.00000000000E+00  0.00000000000E+00  0.31852222656E+02  0.31852222656E+02  0.00000000000E+00 0. -1.
         21   -1    0    0  501  502 -0.00000000000E+00 -0.00000000000E+00 -0.12263665372E+03  0.12263665372E+03  0.00000000000E+00 0. -1.
         25    1    1    2    0    0  0.00000000000E+00  0.00000000000E+00 -0.90784431063E+02  0.15448887637E+03  0.12500000000E+03 0.  0.
<mgrwt>
<rscale>  0 0.12500000E+03</rscale>
<asrwt>0</asrwt>
<pdfrwt beam="1">  1       21 0.49003419E-02 0.12500000E+03</pdfrwt>
<pdfrwt beam="2">  1       21 0.18867178E-01 0.12500000E+03</pdfrwt>
<totfact> 0.70199240E+06</totfact>
</mgrwt>
</event>
<event>
 3    1  0.1604658E-001  0.1250000E+03  0.7546771E-02  0.1235069E+00
         21   -1    0    0  502  501  0.00000000000E+00  0.00000000000E+00  0.14591099282E+02  0.14591099282E+02  0.00000000000E+00 0. -1.
         21   -1    0    0  501  502 -0.00000000000E+00 -0.00000000000E+00 -0.26771457890E+03  0.26771457890E+03  0.00000000000E+00 0. -1.
         25    1    1    2    0    0  0.00000000000E+00  0.00000000000E+00 -0.25312347962E+03  0.28230567818E+03  0.12500000000E+03 0.  0.
<mgrwt>
<rscale>  0 0.12500000E+03</rscale>
<asrwt>0</asrwt>
<pdfrwt beam="1">  1       21 0.22447846E-02 0.12500000E+03</pdfrwt>
<pdfrwt beam="2">  1       21 0.41186856E-01 0.12500000E+03</pdfrwt>
<totfact> 0.56959464E+06</totfact>
</mgrwt>
</event>
<event>
 3    1  0.1604658E-001  0.1250000E+03  0.7546771E-02  0.1235069E+00
         21   -1    0    0  502  501  0.00000000000E+00  0.00000000000E+00  0.73274782359E+01  0.73274782359E+01  0.00000000000E+00 0.  1.
         21   -1    0    0  501  502 -0.00000000000E+00 -0.00000000000E+00 -0.53309609039E+03  0.53309609039E+03  0.00000000000E+00 0.  1.
         25    1    1    2    0    0  0.00000000000E+00  0.00000000000E+00 -0.52576861216E+03  0.54042356863E+03  0.12500000000E+03 0.  0.
<mgrwt>
<rscale>  0 0.12500000E+03</rscale>
<asrwt>0</asrwt>
<pdfrwt beam="1">  1       21 0.11273040E-02 0.12500000E+03</pdfrwt>
<pdfrwt beam="2">  1       21 0.82014805E-01 0.12500000E+03</pdfrwt>
<totfact> 0.39933361E+06</totfact>
</mgrwt>
</event>
<event>
 3    1  0.1604658E-001  0.1250000E+03  0.7546771E-02  0.1235069E+00
         21   -1    0    0  502  501  0.00000000000E+00  0.00000000000E+00  0.96710533975E+02  0.96710533975E+02  0.00000000000E+00 0. -1.
         21   -1    0    0  501  502 -0.00000000000E+00 -0.00000000000E+00 -0.40391153264E+02  0.40391153264E+02  0.00000000000E+00 0. -1.
         25    1    1    2    0    0  0.00000000000E+00  0.00000000000E+00  0.56319380712E+02  0.13710168724E+03  0.12500000000E+03 0.  0.
<mgrwt>
<rscale>  0 0.12500000E+03</rscale>
<asrwt>0</asrwt>
<pdfrwt beam="1">  1       21 0.14878544E-01 0.12500000E+03</pdfrwt>
<pdfrwt beam="2">  1       21 0.62140236E-02 0.12500000E+03</pdfrwt>
<totfact> 0.72419373E+06</totfact>
</mgrwt>
</event>
<event>
 3    1  0.1604658E-001  0.1250000E+03  0.7546771E-02  0.1235069E+00
         21   -1    0    0  502  501  0.00000000000E+00  0.00000000000E+00  0.13730853250E+03  0.13730853250E+03  0.00000000000E+00 0. -1.
         21   -1    0    0  501  502 -0.00000000000E+00 -0.00000000000E+00 -0.28448705474E+02  0.28448705474E+02  0.00000000000E+00 0. -1.
         25    1    1    2    0    0  0.00000000000E+00  0.00000000000E+00  0.10885982702E+03  0.16575723797E+03  0.12500000000E+03 0.  0.
<mgrwt>
<rscale>  0 0.12500000E+03</rscale>
<asrwt>0</asrwt>
<pdfrwt beam="1">  1       21 0.21124389E-01 0.12500000E+03</pdfrwt>
<pdfrwt beam="2">  1       21 0.43767240E-02 0.12500000E+03</pdfrwt>
<totfact> 0.68822777E+06</totfact>
</mgrwt>
</event>
<event>
 3    1  0.1604658E-001  0.1250000E+03  0.7546771E-02  0.1235069E+00
         21   -1    0    0  502  501  0.00000000000E+00  0.00000000000E+00  0.45253685649E+03  0.45253685649E+03  0.00000000000E+00 0.  1.
         21   -1    0    0  501  502 -0.00000000000E+00 -0.00000000000E+00 -0.86318936103E+01  0.86318936103E+01  0.00000000000E+00 0.  1.
         25    1    1    2    0    0  0.00000000000E+00  0.00000000000E+00  0.44390496288E+03  0.46116875010E+03  0.12500000000E+03 0.  0.
<mgrwt>
<rscale>  0 0.12500000E+03</rscale>
<asrwt>0</asrwt>
<pdfrwt beam="1">  1       21 0.69621036E-01 0.12500000E+03</pdfrwt>
<pdfrwt beam="2">  1       21 0.13279840E-02 0.12500000E+03</pdfrwt>
<totfact> 0.44231418E+06</totfact>
</mgrwt>
</event>
<event>
 3    1  0.1604658E-001  0.1250000E+03  0.7546771E-02  0.1235069E+00
         21   -1    0    0  502  501  0.00000000000E+00  0.00000000000E+00  0.20096375665E+03  0.20096375665E+03  0.00000000000E+00 0.  1.
         21   -1    0    0  501  502 -0.00000000000E+00 -0.00000000000E+00 -0.19437584494E+02  0.19437584494E+02  0.00000000000E+00 0.  1.
         25    1    1    2    0    0  0.00000000000E+00  0.00000000000E+00  0.18152617215E+03  0.22040134114E+03  0.12500000000E+03 0.  0.
<mgrwt>
<rscale>  0 0.12500000E+03</rscale>
<asrwt>0</asrwt>
<pdfrwt beam="1">  1       21 0.30917500E-01 0.12500000E+03</pdfrwt>
<pdfrwt beam="2">  1       21 0.29903978E-02 0.12500000E+03</pdfrwt>
<totfact> 0.62781537E+06</totfact>
</mgrwt>
</event>
<event>
 3    1  0.1604658E-001  0.1250000E+03  0.7546771E-02  0.1235069E+00
         21   -1    0    0  502  501  0.00000000000E+00  0.00000000000E+00  0.13087083115E+02  0.13087083115E+02  0.00000000000E+00 0.  1.
         21   -1    0    0  501  502 -0.00000000000E+00 -0.00000000000E+00 -0.29848133199E+03  0.29848133199E+03  0.00000000000E+00 0.  1.
         25    1    1    2    0    0  0.00000000000E+00  0.00000000000E+00 -0.28539424887E+03  0.31156841510E+03  0.12500000000E+03 0.  0.
<mgrwt>
<rscale>  0 0.12500000E+03</rscale>
<asrwt>0</asrwt>
<pdfrwt beam="1">  1       21 0.20133975E-02 0.12500000E+03</pdfrwt>
<pdfrwt beam="2">  1       21 0.45920203E-01 0.12500000E+03</pdfrwt>
<totfact> 0.54508289E+06</totfact>
</mgrwt>
</event>
<event>
 3    1  0.1604658E-001  0.1250000E+03  0.7546771E-02  0.1235069E+00
         21   -1    0    0  502  501  0.00000000000E+00  0.00000000000E+00  0.44704119978E+03  0.44704119978E+03  0.00000000000E+00 0.  1.
         21   -1    0    0  501  502 -0.00000000000E+00 -0.00000000000E+00 -0.87380089395E+01  0.87380089395E+01  0.00000000000E+00 0.  1.
         25    1    1    2    0    0  0.00000000000E+00  0.00000000000E+00  0.43830319084E+03  0.45577920872E+03  0.12500000000E+03 0.  0.
<mgrwt>
<rscale>  0 0.12500000E+03</rscale>
<asrwt>0</asrwt>
<pdfrwt beam="1">  1       21 0.68775551E-01 0.12500000E+03</pdfrwt>
<pdfrwt beam="2">  1       21 0.13443094E-02 0.12500000E+03</pdfrwt>
<totfact> 0.44548468E+06</totfact>
</mgrwt>
</event>
<event>
 3    1  0.1604658E-001  0.1250000E+03  0.7546771E-02  0.1235069E+00
         21   -1    0    0  502  501  0.00000000000E+00  0.00000000000E+00  0.35549752162E+02  0.35549752162E+02  0.00000000000E+00 0.  1.
         21   -1    0    0  501  502 -0.00000000000E+00 -0.00000000000E+00 -0.10988121611E+03  0.10988121611E+03  0.00000000000E+00 0.  1.
         25    1    1    2    0    0  0.00000000000E+00  0.00000000000E+00 -0.74331463948E+02  0.14543096827E+03  0.12500000000E+03 0.  0.
<mgrwt>
<rscale>  0 0.12500000E+03</rscale>
<asrwt>0</asrwt>
<pdfrwt beam="1">  1       21 0.54691928E-02 0.12500000E+03</pdfrwt>
<pdfrwt beam="2">  1       21 0.16904802E-01 0.12500000E+03</pdfrwt>
<totfact> 0.71337991E+06</totfact>
</mgrwt>
</event>
<event>
 3    1  0.1604658E-001  0.1250000E+03  0.7546771E-02  0.1235069E+00
         21   -1    0    0  502  501  0.00000000000E+00  0.00000000000E+00  0.25488136980E+02  0.25488136980E+02  0.00000000000E+00 0. -1.
         21   -1    0    0  501  502 -0.00000000000E+00 -0.00000000000E+00 -0.15325757246E+03  0.15325757246E+03  0.00000000000E+00 0. -1.
         25    1    1    2    0    0  0.00000000000E+00  0.00000000000E+00 -0.12776943548E+03  0.17874570944E+03  0.12500000000E+03 0.  0.
<mgrwt>
<rscale>  0 0.12500000E+03</rscale>
<asrwt>0</asrwt>
<pdfrwt beam="1">  1       21 0.39212517E-02 0.12500000E+03</pdfrwt>
<pdfrwt beam="2">  1       21 0.23578089E-01 0.12500000E+03</pdfrwt>
<totfact> 0.67295716E+06</totfact>
</mgrwt>
</event>
<event>
 3    1  0.1604658E-001  0.1250000E+03  0.7546771E-02  0.1235069E+00
         21   -1    0    0  502  501  0.00000000000E+00  0.00000000000E+00  0.12071746120E+03  0.12071746120E+03  0.00000000000E+00 0. -1.
         21   -1    0    0  501  502 -0.00000000000E+00 -0.00000000000E+00 -0.32358616237E+02  0.32358616237E+02  0.00000000000E+00 0. -1.
         25    1    1    2    0    0  0.00000000000E+00  0.00000000000E+00  0.88358844962E+02  0.15307607744E+03  0.12500000000E+03 0.  0.
<mgrwt>
<rscale>  0 0.12500000E+03</rscale>
<asrwt>0</asrwt>
<pdfrwt beam="1">  1       21 0.18571917E-01 0.12500000E+03</pdfrwt>
<pdfrwt beam="2">  1       21 0.49782487E-02 0.12500000E+03</pdfrwt>
<totfact> 0.70374895E+06</totfact>
</mgrwt>
</event>
<event>
 3    1  0.1604658E-001  0.1250000E+03  0.7546771E-02  0.1235069E+00
         21   -1    0    0  502  501  0.00000000000E+00  0.00000000000E+00  0.96197898789E+02  0.96197898789E+02  0.00000000000E+00 0. -1.
         21   -1    0    0  501  502 -0.00000000000E+00 -0.00000000000E+00 -0.40606396285E+02  0.40606396285E+02  0.00000000000E+00 0. -1.
         25    1    1    2    0    0  0.00000000000E+00  0.00000000000E+00  0.55591502503E+02  0.13680429507E+03  0.12500000000E+03 0.  0.
<mgrwt>
<rscale>  0 0.12500000E+03</rscale>
<asrwt>0</asrwt>
<pdfrwt beam="1">  1       21 0.14799677E-01 0.12500000E+03</pdfrwt>
<pdfrwt beam="2">  1       21 0.62471379E-02 0.12500000E+03</pdfrwt>
<totfact> 0.72458442E+06</totfact>
</mgrwt>
</event>
<event>
 3    1  0.1604658E-001  0.1250000E+03  0.7546771E-02  0.1235069E+00
         21   -1    0    0  502  501  0.00000000000E+00  0.00000000000E+00  0.30126736729E+04  0.30126736729E+04  0.00000000000E+00 0. -1.
         21   -1    0    0  501  502 -0.00000000000E+00 -0.00000000000E+00 -0.12966057476E+01  0.12966057476E+01  0.00000000000E+00 0. -1.
         25    1    1    2    0    0  0.00000000000E+00  0.00000000000E+00  0.30113770671E+04  0.30139702786E+04  0.12500000000E+03 0.  0.
<mgrwt>
<rscale>  0 0.12500000E+03</rscale>
<asrwt>0</asrwt>
<pdfrwt beam="1">  1       21 0.46348265E+00 0.12500000E+03</pdfrwt>
<pdfrwt beam="2">  1       21 0.19948022E-03 0.12500000E+03</pdfrwt>
<totfact> 0.16921662E+05</totfact>
</mgrwt>
</event>
<event>
 3    1  0.1604658E-001  0.1250000E+03  0.7546771E-02  0.1235069E+00
         21   -1    0    0  502  501  0.00000000000E+00  0.00000000000E+00  0.89068005328E+01  0.89068005328E+01  0.00000000000E+00 0. -1.
         21   -1    0    0  501  502 -0.00000000000E+00 -0.00000000000E+00 -0.43856938141E+03  0.43856938141E+03  0.00000000000E+00 0. -1.
         25    1    1    2    0    0  0.00000000000E+00  0.00000000000E+00 -0.42966258087E+03  0.44747618194E+03  0.12500000000E+03 0.  0.
<mgrwt>
<rscale>  0 0.12500000E+03</rscale>
<asrwt>0</asrwt>
<pdfrwt beam="1">  1       21 0.13702770E-02 0.12500000E+03</pdfrwt>
<pdfrwt beam="2">  1       21 0.67472213E-01 0.12500000E+03</pdfrwt>
<totfact> 0.45043674E+06</totfact>
</mgrwt>
</event>
<event>
 3    1  0.1604658E-001  0.1250000E+03  0.7546771E-02  0.1235069E+00
         21   -1    0    0  502  501  0.00000000000E+00  0.00000000000E+00  0.16267984369E+02  0.16267984369E+02  0.00000000000E+00 0. -1.
         21   -1    0    0  501  502 -0.00000000000E+00 -0.00000000000E+00 -0.24011886853E+03  0.24011886853E+03  0.00000000000E+00 0. -1.
         25    1    1    2    0    0  0.00000000000E+00  0.00000000000E+00 -0.22385088416E+03  0.25638685290E+03  0.12500000000E+03 0.  0.
<mgrwt>
<rscale>  0 0.12500000E+03</rscale>
<asrwt>0</asrwt>
<pdfrwt beam="1">  1       21 0.25027669E-02 0.12500000E+03</pdfrwt>
<pdfrwt beam="2">  1       21 0.36941363E-01 0.12500000E+03</pdfrwt>
<totfact> 0.59282034E+06</totfact>
</mgrwt>
</event>
<event>
 3    1  0.1604658E-001  0.1250000E+03  0.7546771E-02  0.1235069E+00
         21   -1    0    0  502  501  0.00000000000E+00  0.00000000000E+00  0.11469388797E+03  0.11469388797E+03  0.00000000000E+00 0. -1.
         21   -1    0    0  501  502 -0.00000000000E+00 -0.00000000000E+00 -0.34058048507E+02  0.34058048507E+02  0.00000000000E+00 0. -1.
         25    1    1    2    0    0  0.00000000000E+00  0.00000000000E+00  0.80635839465E+02  0.14875193648E+03  0.12500000000E+03 0.  0.
<mgrwt>
<rscale>  0 0.12500000E+03</rscale>
<asrwt>0</asrwt>
<pdfrwt beam="1">  1       21 0.17645213E-01 0.12500000E+03</pdfrwt>
<pdfrwt beam="2">  1       21 0.52396998E-02 0.12500000E+03</pdfrwt>
<totfact> 0.70916334E+06</totfact>
</mgrwt>
</event>
<event>
 3    1  0.1604658E-001  0.1250000E+03  0.7546771E-02  0.1235069E+00
         21   -1    0    0  502  501  0.00000000000E+00  0.00000000000E+00  0.20964637716E+03  0.20964637716E+03  0.00000000000E+00 0. -1.
         21   -1    0    0  501  502 -0.00000000000E+00 -0.00000000000E+00 -0.18632566195E+02  0.18632566195E+02  0.00000000000E+00 0. -1.
         25    1    1    2    0    0  0.00000000000E+00  0.00000000000E+00  0.19101381097E+03  0.22827894336E+03  0.12500000000E+03 0.  0.
<mgrwt>
<rscale>  0 0.12500000E+03</rscale>
<asrwt>0</asrwt>
<pdfrwt beam="1">  1       21 0.32253287E-01 0.12500000E+03</pdfrwt>
<pdfrwt beam="2">  1       21 0.28665488E-02 0.12500000E+03</pdfrwt>
<totfact> 0.61985673E+06</totfact>
</mgrwt>
</event>
<event>
 3    1  0.1604658E-001  0.1250000E+03  0.7546771E-02  0.1235069E+00
         21   -1    0    0  502  501  0.00000000000E+00  0.00000000000E+00  0.10748802798E+03  0.10748802798E+03  0.00000000000E+00 0. -1.
         21   -1    0    0  501  502 -0.00000000000E+00 -0.00000000000E+00 -0.36341256542E+02  0.36341256542E+02  0.00000000000E+00 0. -1.
         25    1    1    2    0    0  0.00000000000E+00  0.00000000000E+00  0.71146771437E+02  0.14382928452E+03  0.12500000000E+03 0.  0.
<mgrwt>
<rscale>  0 0.12500000E+03</rscale>
<asrwt>0</asrwt>
<pdfrwt beam="1">  1       21 0.16536620E-01 0.12500000E+03</pdfrwt>
<pdfrwt beam="2">  1       21 0.55909626E-02 0.12500000E+03</pdfrwt>
<totfact> 0.71543260E+06</totfact>
</mgrwt>
</event>
<event>
 3    1  0.1604658E-001  0.1250000E+03  0.7546771E-02  0.1235069E+00
         21   -1    0    0  502  501  0.00000000000E+00  0.00000000000E+00  0.40377835722E+01  0.40377835722E+01  0.00000000000E+00 0. -1.
         21   -1    0    0  501  502 -0.00000000000E+00 -0.00000000000E+00 -0.96742431339E+03  0.96742431339E+03  0.00000000000E+00 0. -1.
         25    1    1    2    0    0  0.00000000000E+00  0.00000000000E+00 -0.96338652982E+03  0.97146209696E+03  0.12500000000E+03 0.  0.
<mgrwt>
<rscale>  0 0.12500000E+03</rscale>
<asrwt>0</asrwt>
<pdfrwt beam="1">  1       21 0.62119687E-03 0.12500000E+03</pdfrwt>
<pdfrwt beam="2">  1       21 0.14883465E+00 0.12500000E+03</pdfrwt>
<totfact> 0.24345433E+06</totfact>
</mgrwt>
</event>
<event>
 3    1  0.1604658E-001  0.1250000E+03  0.7546771E-02  0.1235069E+00
         21   -1    0    0  502  501  0.00000000000E+00  0.00000000000E+00  0.44929519411E+02  0.44929519411E+02  0.00000000000E+00 0. -1.
         21   -1    0    0  501  502 -0.00000000000E+00 -0.00000000000E+00 -0.86941726759E+02  0.86941726759E+02  0.00000000000E+00 0. -1.
         25    1    1    2    0    0  0.00000000000E+00  0.00000000000E+00 -0.42012207348E+02  0.13187124617E+03  0.12500000000E+03 0.  0.
<mgrwt>
<rscale>  0 0.12500000E+03</rscale>
<asrwt>0</asrwt>
<pdfrwt beam="1">  1       21 0.69122338E-02 0.12500000E+03</pdfrwt>
<pdfrwt beam="2">  1       21 0.13375650E-01 0.12500000E+03</pdfrwt>
<totfact> 0.73113504E+06</totfact>
</mgrwt>
</event>
<event>
 3    1  0.1604658E-001  0.1250000E+03  0.7546771E-02  0.1235069E+00
         21   -1    0    0  502  501  0.00000000000E+00  0.00000000000E+00  0.12084566585E+02  0.12084566585E+02  0.00000000000E+00 0. -1.
         21   -1    0    0  501  502 -0.00000000000E+00 -0.00000000000E+00 -0.32324287118E+03  0.32324287118E+03  0.00000000000E+00 0. -1.
         25    1    1    2    0    0  0.00000000000E+00  0.00000000000E+00 -0.31115830460E+03  0.33532743777E+03  0.12500000000E+03 0.  0.
<mgrwt>
<rscale>  0 0.12500000E+03</rscale>
<asrwt>0</asrwt>
<pdfrwt beam="1">  1       21 0.18591641E-02 0.12500000E+03</pdfrwt>
<pdfrwt beam="2">  1       21 0.49729673E-01 0.12500000E+03</pdfrwt>
<totfact> 0.52640641E+06</totfact>
</mgrwt>
</event>
<event>
 3    1  0.1604658E-001  0.1250000E+03  0.7546771E-02  0.1235069E+00
         21   -1    0    0  502  501  0.00000000000E+00  0.00000000000E+00  0.37144351088E+02  0.37144351088E+02  0.00000000000E+00 0. -1.
         21   -1    0    0  501  502 -0.00000000000E+00 -0.00000000000E+00 -0.10516403936E+03  0.10516403936E+03  0.00000000000E+00 0. -1.
         25    1    1    2    0    0  0.00000000000E+00  0.00000000000E+00 -0.68019688276E+02  0.14230839045E+03  0.12500000000E+03 0.  0.
<mgrwt>
<rscale>  0 0.12500000E+03</rscale>
<asrwt>0</asrwt>
<pdfrwt beam="1">  1       21 0.57145156E-02 0.12500000E+03</pdfrwt>
<pdfrwt beam="2">  1       21 0.16179083E-01 0.12500000E+03</pdfrwt>
<totfact> 0.71739367E+06</totfact>
</mgrwt>
</event>
<event>
 3    1  0.1604658E-001  0.1250000E+03  0.7546771E-02  0.1235069E+00
         21   -1    0    0  502  501  0.00000000000E+00  0.00000000000E+00  0.31777326023E+02  0.31777326023E+02  0.00000000000E+00 0.  1.
         21   -1    0    0  501  502 -0.00000000000E+00 -0.00000000000E+00 -0.12292569857E+03  0.12292569857E+03  0.00000000000E+00 0.  1.
         25    1    1    2    0    0  0.00000000000E+00  0.00000000000E+00 -0.91148372546E+02  0.15470302459E+03  0.12500000000E+03 0.  0.
<mgrwt>
<rscale>  0 0.12500000E+03</rscale>
<asrwt>0</asrwt>
<pdfrwt beam="1">  1       21 0.48888194E-02 0.12500000E+03</pdfrwt>
<pdfrwt beam="2">  1       21 0.18911646E-01 0.12500000E+03</pdfrwt>
<totfact> 0.70172588E+06</totfact>
</mgrwt>
</event>
<event>
 3    1  0.1604658E-001  0.1250000E+03  0.7546771E-02  0.1235069E+00
         21   -1    0    0  502  501  0.00000000000E+00  0.00000000000E+00  0.52191111475E+02  0.52191111475E+02  0.00000000000E+00 0. -1.
         21   -1    0    0  501  502 -0.00000000000E+00 -0.00000000000E+00 -0.74845119975E+02  0.74845119975E+02  0.00000000000E+00 0. -1.
         25    1    1    2    0    0  0.00000000000E+00  0.00000000000E+00 -0.22654008500E+02  0.12703623145E+03  0.12500000000E+03 0.  0.
<mgrwt>
<rscale>  0 0.12500000E+03</rscale>
<asrwt>0</asrwt>
<pdfrwt beam="1">  1       21 0.80294018E-02 0.12500000E+03</pdfrwt>
<pdfrwt beam="2">  1       21 0.11514634E-01 0.12500000E+03</pdfrwt>
<totfact> 0.73764205E+06</totfact>
</mgrwt>
</event>
<event>
 3    1  0.1604658E-001  0.1250000E+03  0.7546771E-02  0.1235069E+00
         21   -1    0    0  502  501  0.00000000000E+00  0.00000000000E+00  0.38986070345E+03  0.38986070345E+03  0.00000000000E+00 0. -1.
         21   -1    0    0  501  502 -0.00000000000E+00 -0.00000000000E+00 -0.10019604350E+02  0.10019604350E+02  0.00000000000E+00 0. -1.
         25    1    1    2    0    0  0.00000000000E+00  0.00000000000E+00  0.37984109910E+03  0.39988030780E+03  0.12500000000E+03 0.  0.
<mgrwt>
<rscale>  0 0.12500000E+03</rscale>
<asrwt>0</asrwt>
<pdfrwt beam="1">  1       21 0.59978558E-01 0.12500000E+03</pdfrwt>
<pdfrwt beam="2">  1       21 0.15414779E-02 0.12500000E+03</pdfrwt>
<totfact> 0.48049296E+06</totfact>
</mgrwt>
</event>
<event>
 3    1  0.1604658E-001  0.1250000E+03  0.7546771E-02  0.1235069E+00
         21   -1    0    0  502  501  0.00000000000E+00  0.00000000000E+00  0.13573032730E+03  0.13573032730E+03  0.00000000000E+00 0.  1.
         21   -1    0    0  501  502 -0.00000000000E+00 -0.00000000000E+00 -0.28779492968E+02  0.28779492968E+02  0.00000000000E+00 0.  1.
         25    1    1    2    0    0  0.00000000000E+00  0.00000000000E+00  0.10695083433E+03  0.16450982027E+03  0.12500000000E+03 0.  0.
<mgrwt>
<rscale>  0 0.12500000E+03</rscale>
<asrwt>0</asrwt>
<pdfrwt beam="1">  1       21 0.20881588E-01 0.12500000E+03</pdfrwt>
<pdfrwt beam="2">  1       21 0.44276144E-02 0.12500000E+03</pdfrwt>
<totfact> 0.68972601E+06</totfact>
</mgrwt>
</event>
<event>
 3    1  0.1604658E-001  0.1250000E+03  0.7546771E-02  0.1235069E+00
         21   -1    0    0  502  501  0.00000000000E+00  0.00000000000E+00  0.11044644960E+03  0.11044644960E+03  0.00000000000E+00 0.  1.
         21   -1    0    0  501  502 -0.00000000000E+00 -0.00000000000E+00 -0.35367818650E+02  0.35367818650E+02  0.00000000000E+00 0.  1.
         25    1    1    2    0    0  0.00000000000E+00  0.00000000000E+00  0.75078630951E+02  0.14581426825E+03  0.12500000000E+03 0.  0.
<mgrwt>
<rscale>  0 0.12500000E+03</rscale>
<asrwt>0</asrwt>
<pdfrwt beam="1">  1       21 0.16991761E-01 0.12500000E+03</pdfrwt>
<pdfrwt beam="2">  1       21 0.54412029E-02 0.12500000E+03</pdfrwt>
<totfact> 0.71289055E+06</totfact>
</mgrwt>
</event>
<event>
 3    1  0.1604658E-001  0.1250000E+03  0.7546771E-02  0.1235069E+00
         21   -1    0    0  502  501  0.00000000000E+00  0.00000000000E+00  0.91126800955E+01  0.91126800955E+01  0.00000000000E+00 0.  1.
         21   -1    0    0  501  502 -0.00000000000E+00 -0.00000000000E+00 -0.42866093828E+03  0.42866093828E+03  0.00000000000E+00 0.  1.
         25    1    1    2    0    0  0.00000000000E+00  0.00000000000E+00 -0.41954825819E+03  0.43777361838E+03  0.12500000000E+03 0.  0.
<mgrwt>
<rscale>  0 0.12500000E+03</rscale>
<asrwt>0</asrwt>
<pdfrwt beam="1">  1       21 0.14019507E-02 0.12500000E+03</pdfrwt>
<pdfrwt beam="2">  1       21 0.65947841E-01 0.12500000E+03</pdfrwt>
<totfact> 0.45632789E+06</totfact>
</mgrwt>
</event>
<event>
 3    1  0.1604658E-001  0.1250000E+03  0.7546771E-02  0.1235069E+00
         21   -1    0    0  502  501  0.00000000000E+00  0.00000000000E+00  0.14463058160E+02  0.14463058160E+02  0.00000000000E+00 0.  1.
         21   -1    0    0  501  502 -0.00000000000E+00 -0.00000000000E+00 -0.27008464992E+03  0.27008464992E+03  0.00000000000E+00 0.  1.
         25    1    1    2    0    0  0.00000000000E+00  0.00000000000E+00 -0.25562159176E+03  0.28454770808E+03  0.12500000000E+03 0.  0.
<mgrwt>
<rscale>  0 0.12500000E+03</rscale>
<asrwt>0</asrwt>
<pdfrwt beam="1">  1       21 0.22250861E-02 0.12500000E+03</pdfrwt>
<pdfrwt beam="2">  1       21 0.41551481E-01 0.12500000E+03</pdfrwt>
<totfact> 0.56765277E+06</totfact>
</mgrwt>
</event>
<event>
 3    1  0.1604658E-001  0.1250000E+03  0.7546771E-02  0.1235069E+00
         21   -1    0    0  502  501  0.00000000000E+00  0.00000000000E+00  0.16014805555E+03  0.16014805555E+03  0.00000000000E+00 0. -1.
         21   -1    0    0  501  502 -0.00000000000E+00 -0.00000000000E+00 -0.24391491901E+02  0.24391491901E+02  0.00000000000E+00 0. -1.
         25    1    1    2    0    0  0.00000000000E+00  0.00000000000E+00  0.13575656365E+03  0.18453954746E+03  0.12500000000E+03 0.  0.
<mgrwt>
<rscale>  0 0.12500000E+03</rscale>
<asrwt>0</asrwt>
<pdfrwt beam="1">  1       21 0.24638162E-01 0.12500000E+03</pdfrwt>
<pdfrwt beam="2">  1       21 0.37525373E-02 0.12500000E+03</pdfrwt>
<totfact> 0.66634552E+06</totfact>
</mgrwt>
</event>
<event>
 3    1  0.1604658E-001  0.1250000E+03  0.7546771E-02  0.1235069E+00
         21   -1    0    0  502  501  0.00000000000E+00  0.00000000000E+00  0.47408313639E+01  0.47408313639E+01  0.00000000000E+00 0.  1.
         21   -1    0    0  501  502 -0.00000000000E+00 -0.00000000000E+00 -0.82395885872E+03  0.82395885872E+03  0.00000000000E+00 0.  1.
         25    1    1    2    0    0  0.00000000000E+00  0.00000000000E+00 -0.81921802736E+03  0.82869969008E+03  0.12500000000E+03 0.  0.
<mgrwt>
<rscale>  0 0.12500000E+03</rscale>
<asrwt>0</asrwt>
<pdfrwt beam="1">  1       21 0.72935857E-03 0.12500000E+03</pdfrwt>
<pdfrwt beam="2">  1       21 0.12676292E+00 0.12500000E+03</pdfrwt>
<totfact> 0.28433746E+06</totfact>
</mgrwt>
</event>
<event>
 3    1  0.1604658E-001  0.1250000E+03  0.7546771E-02  0.1235069E+00
         21   -1    0    0  502  501  0.00000000000E+00  0.00000000000E+00  0.10055219466E+02  0.10055219466E+02  0.00000000000E+00 0. -1.
         21   -1    0    0  501  502 -0.00000000000E+00 -0.00000000000E+00 -0.38847983510E+03  0.38847983510E+03  0.00000000000E+00 0. -1.
         25    1    1    2    0    0  0.00000000000E+00  0.00000000000E+00 -0.37842461563E+03  0.39853505456E+03  0.12500000000E+03 0.  0.
<mgrwt>
<rscale>  0 0.12500000E+03</rscale>
<asrwt>0</asrwt>
<pdfrwt beam="1">  1       21 0.15469569E-02 0.12500000E+03</pdfrwt>
<pdfrwt beam="2">  1       21 0.59766126E-01 0.12500000E+03</pdfrwt>
<totfact> 0.48138672E+06</totfact>
</mgrwt>
</event>
<event>
 3    1  0.1604658E-001  0.1250000E+03  0.7546771E-02  0.1235069E+00
         21   -1    0    0  502  501  0.00000000000E+00  0.00000000000E+00  0.21129859616E+02  0.21129859616E+02  0.00000000000E+00 0.  1.
         21   -1    0    0  501  502 -0.00000000000E+00 -0.00000000000E+00 -0.18486871522E+03  0.18486871522E+03  0.00000000000E+00 0.  1.
         25    1    1    2    0    0  0.00000000000E+00  0.00000000000E+00 -0.16373885560E+03  0.20599857483E+03  0.12500000000E+03 0.  0.
<mgrwt>
<rscale>  0 0.12500000E+03</rscale>
<asrwt>0</asrwt>
<pdfrwt beam="1">  1       21 0.32507478E-02 0.12500000E+03</pdfrwt>
<pdfrwt beam="2">  1       21 0.28441339E-01 0.12500000E+03</pdfrwt>
<totfact> 0.64283007E+06</totfact>
</mgrwt>
</event>
<event>
 3    1  0.1604658E-001  0.1250000E+03  0.7546771E-02  0.1235069E+00
         21   -1    0    0  502  501  0.00000000000E+00  0.00000000000E+00  0.14511838235E+02  0.14511838235E+02  0.00000000000E+00 0. -1.
         21   -1    0    0  501  502 -0.00000000000E+00 -0.00000000000E+00 -0.26917678773E+03  0.26917678773E+03  0.00000000000E+00 0. -1.
         25    1    1    2    0    0  0.00000000000E+00  0.00000000000E+00 -0.25466494949E+03  0.28368862596E+03  0.12500000000E+03 0.  0.
<mgrwt>
<rscale>  0 0.12500000E+03</rscale>
<asrwt>0</asrwt>
<pdfrwt beam="1">  1       21 0.22325906E-02 0.12500000E+03</pdfrwt>
<pdfrwt beam="2">  1       21 0.41411811E-01 0.12500000E+03</pdfrwt>
<totfact> 0.56839554E+06</totfact>
</mgrwt>
</event>
<event>
 3    1  0.1604658E-001  0.1250000E+03  0.7546771E-02  0.1235069E+00
         21   -1    0    0  502  501  0.00000000000E+00  0.00000000000E+00  0.42627640084E+01  0.42627640084E+01  0.00000000000E+00 0. -1.
         21   -1    0    0  501  502 -0.00000000000E+00 -0.00000000000E+00 -0.91636553004E+03  0.91636553004E+03  0.00000000000E+00 0. -1.
         25    1    1    2    0    0  0.00000000000E+00  0.00000000000E+00 -0.91210276604E+03  0.92062829405E+03  0.12500000000E+03 0.  0.
<mgrwt>
<rscale>  0 0.12500000E+03</rscale>
<asrwt>0</asrwt>
<pdfrwt beam="1">  1       21 0.65581067E-03 0.12500000E+03</pdfrwt>
<pdfrwt beam="2">  1       21 0.14097914E+00 0.12500000E+03</pdfrwt>
<totfact> 0.25714633E+06</totfact>
</mgrwt>
</event>
<event>
 3    1  0.1604658E-001  0.1250000E+03  0.7546771E-02  0.1235069E+00
         21   -1    0    0  502  501  0.00000000000E+00  0.00000000000E+00  0.37518446213E+02  0.37518446213E+02  0.00000000000E+00 0. -1.
         21   -1    0    0  501  502 -0.00000000000E+00 -0.00000000000E+00 -0.10411545238E+03  0.10411545238E+03  0.00000000000E+00 0. -1.
         25    1    1    2    0    0  0.00000000000E+00  0.00000000000E+00 -0.66597006165E+02  0.14163389859E+03  0.12500000000E+03 0.  0.
<mgrwt>
<rscale>  0 0.12500000E+03</rscale>
<asrwt>0</asrwt>
<pdfrwt beam="1">  1       21 0.57720688E-02 0.12500000E+03</pdfrwt>
<pdfrwt beam="2">  1       21 0.16017762E-01 0.12500000E+03</pdfrwt>
<totfact> 0.71826718E+06</totfact>
</mgrwt>
</event>
<event>
 3    1  0.1604658E-001  0.1250000E+03  0.7546771E-02  0.1235069E+00
         21   -1    0    0  502  501  0.00000000000E+00  0.00000000000E+00  0.27846904666E+02  0.27846904666E+02  0.00000000000E+00 0.  1.
         21   -1    0    0  501  502 -0.00000000000E+00 -0.00000000000E+00 -0.14027591385E+03  0.14027591385E+03  0.00000000000E+00 0.  1.
         25    1    1    2    0    0  0.00000000000E+00  0.00000000000E+00 -0.11242900919E+03  0.16812281852E+03  0.12500000000E+03 0.  0.
<mgrwt>
<rscale>  0 0.12500000E+03</rscale>
<asrwt>0</asrwt>
<pdfrwt beam="1">  1       21 0.42841391E-02 0.12500000E+03</pdfrwt>
<pdfrwt beam="2">  1       21 0.21580910E-01 0.12500000E+03</pdfrwt>
<totfact> 0.68540344E+06</totfact>
</mgrwt>
</event>
<event>
 3    1  0.1604658E-001  0.1250000E+03  0.7546771E-02  0.1235069E+00
         21   -1    0    0  502  501  0.00000000000E+00  0.00000000000E+00  0.34683341732E+03  0.34683341732E+03  0.00000000000E+00 0.  1.
         21   -1    0    0  501  502 -0.00000000000E+00 -0.00000000000E+00 -0.11262611401E+02  0.11262611401E+02  0.00000000000E+00 0.  1.
         25    1    1    2    0    0  0.00000000000E+00  0.00000000000E+00  0.33557080592E+03  0.35809602872E+03  0.12500000000E+03 0.  0.
<mgrwt>
<rscale>  0 0.12500000E+03</rscale>
<asrwt>0</asrwt>
<pdfrwt beam="1">  1       21 0.53358979E-01 0.12500000E+03</pdfrwt>
<pdfrwt beam="2">  1       21 0.17327097E-02 0.12500000E+03</pdfrwt>
<totfact> 0.50946023E+06</totfact>
</mgrwt>
</event>
<event>
 3    1  0.1604658E-001  0.1250000E+03  0.7546771E-02  0.1235069E+00
         21   -1    0    0  502  501  0.00000000000E+00  0.00000000000E+00  0.18927303418E+03  0.18927303418E+03  0.00000000000E+00 0. -1.
         21   -1    0    0  501  502 -0.00000000000E+00 -0.00000000000E+00 -0.20638174988E+02  0.20638174988E+02  0.00000000000E+00 0. -1.
         25    1    1    2    0    0  0.00000000000E+00  0.00000000000E+00  0.16863485920E+03  0.20991120917E+03  0.12500000000E+03 0.  0.
<mgrwt>
<rscale>  0 0.12500000E+03</rscale>
<asrwt>0</asrwt>
<pdfrwt beam="1">  1       21 0.29118927E-01 0.12500000E+03</pdfrwt>
<pdfrwt beam="2">  1       21 0.31751040E-02 0.12500000E+03</pdfrwt>
<totfact> 0.63868879E+06</totfact>
</mgrwt>
</event>
<event>
 3    1  0.1604658E-001  0.1250000E+03  0.7546771E-02  0.1235069E+00
         21   -1    0    0  502  501  0.00000000000E+00  0.00000000000E+00  0.19296750493E+02  0.19296750493E+02  0.00000000000E+00 0.  1.
         21   -1    0    0  501  502 -0.00000000000E+00 -0.00000000000E+00 -0.20243045592E+03  0.20243045592E+03  0.00000000000E+00 0.  1.
         25    1    1    2    0    0  0.00000000000E+00  0.00000000000E+00 -0.18313370543E+03  0.22172720641E+03  0.12500000000E+03 0.  0.
<mgrwt>
<rscale>  0 0.12500000E+03</rscale>
<asrwt>0</asrwt>
<pdfrwt beam="1">  1       21 0.29687306E-02 0.12500000E+03</pdfrwt>
<pdfrwt beam="2">  1       21 0.31143150E-01 0.12500000E+03</pdfrwt>
<totfact> 0.62646425E+06</totfact>
</mgrwt>
</event>
<event>
 3    1  0.1604658E-001  0.1250000E+03  0.7546771E-02  0.1235069E+00
         21   -1    0    0  502  501  0.00000000000E+00  0.00000000000E+00  0.17664817964E+04  0.17664817964E+04  0.00000000000E+00 0. -1.
         21   -1    0    0  501  502 -0.00000000000E+00 -0.00000000000E+00 -0.22113163056E+01  0.22113163056E+01  0.00000000000E+00 0. -1.
         25    1    1    2    0    0  0.00000000000E+00  0.00000000000E+00  0.17642704801E+04  0.17686931127E+04  0.12500000000E+03 0.  0.
<mgrwt>
<rscale>  0 0.12500000E+03</rscale>
<asrwt>0</asrwt>
<pdfrwt beam="1">  1       21 0.27176530E+00 0.12500000E+03</pdfrwt>
<pdfrwt beam="2">  1       21 0.34020392E-03 0.12500000E+03</pdfrwt>
<totfact> 0.10435034E+06</totfact>
</mgrwt>
</event>
<event>
 3    1  0.1604658E-001  0.1250000E+03  0.7546771E-02  0.1235069E+00
         21   -1    0    0  502  501  0.00000000000E+00  0.00000000000E+00  0.23437626641E+02  0.23437626641E+02  0.00000000000E+00 0.  1.
         21   -1    0    0  501  502 -0.00000000000E+00 -0.00000000000E+00 -0.16666576611E+03  0.16666576611E+03  0.00000000000E+00 0.  1.
         25    1    1    2    0    0  0.00000000000E+00  0.00000000000E+00 -0.14322813947E+03  0.19010339275E+03  0.12500000000E+03 0.  0.
<mgrwt>
<rscale>  0 0.12500000E+03</rscale>
<asrwt>0</asrwt>
<pdfrwt beam="1">  1       21 0.36057886E-02 0.12500000E+03</pdfrwt>
<pdfrwt beam="2">  1       21 0.25640888E-01 0.12500000E+03</pdfrwt>
<totfact> 0.66010974E+06</totfact>
</mgrwt>
</event>
<event>
 3    1  0.1604658E-001  0.1250000E+03  0.7546771E-02  0.1235069E+00
         21   -1    0    0  502  501  0.00000000000E+00  0.00000000000E+00  0.30445046808E+02  0.30445046808E+02  0.00000000000E+00 0.  1.
         21   -1    0    0  501  502 -0.00000000000E+00 -0.00000000000E+00 -0.12830494315E+03  0.12830494315E+03  0.00000000000E+00 0.  1.
         25    1    1    2    0    0  0.00000000000E+00  0.00000000000E+00 -0.97859896346E+02  0.15874998996E+03  0.12500000000E+03 0.  0.
<mgrwt>
<rscale>  0 0.12500000E+03</rscale>
<asrwt>0</asrwt>
<pdfrwt beam="1">  1       21 0.46838534E-02 0.12500000E+03</pdfrwt>
<pdfrwt beam="2">  1       21 0.19739222E-01 0.12500000E+03</pdfrwt>
<totfact> 0.69672557E+06</totfact>
</mgrwt>
</event>
<event>
 3    1  0.1604658E-001  0.1250000E+03  0.7546771E-02  0.1235069E+00
         21   -1    0    0  502  501  0.00000000000E+00  0.00000000000E+00  0.14399828017E+04  0.14399828017E+04  0.00000000000E+00 0.  1.
         21   -1    0    0  501  502 -0.00000000000E+00 -0.00000000000E+00 -0.27127060096E+01  0.27127060096E+01  0.00000000000E+00 0.  1.
         25    1    1    2    0    0  0.00000000000E+00  0.00000000000E+00  0.14372700957E+04  0.14426955077E+04  0.12500000000E+03 0.  0.
<mgrwt>
<rscale>  0 0.12500000E+03</rscale>
<asrwt>0</asrwt>
<pdfrwt beam="1">  1       21 0.22153520E+00 0.12500000E+03</pdfrwt>
<pdfrwt beam="2">  1       21 0.41734054E-03 0.12500000E+03</pdfrwt>
<totfact> 0.14864337E+06</totfact>
</mgrwt>
</event>
<event>
 3    1  0.1604658E-001  0.1250000E+03  0.7546771E-02  0.1235069E+00
         21   -1    0    0  502  501  0.00000000000E+00  0.00000000000E+00  0.55860844121E+01  0.55860844121E+01  0.00000000000E+00 0. -1.
         21   -1    0    0  501  502 -0.00000000000E+00 -0.00000000000E+00 -0.69928230793E+03  0.69928230793E+03  0.00000000000E+00 0. -1.
         25    1    1    2    0    0  0.00000000000E+00  0.00000000000E+00 -0.69369622352E+03  0.70486839234E+03  0.12500000000E+03 0.  0.
<mgrwt>
<rscale>  0 0.12500000E+03</rscale>
<asrwt>0</asrwt>
<pdfrwt beam="1">  1       21 0.85939684E-03 0.12500000E+03</pdfrwt>
<pdfrwt beam="2">  1       21 0.10758199E+00 0.12500000E+03</pdfrwt>
<totfact> 0.32723266E+06</totfact>
</mgrwt>
</event>
<event>
 3    1  0.1604658E-001  0.1250000E+03  0.7546771E-02  0.1235069E+00
         21   -1    0    0  502  501  0.00000000000E+00  0.00000000000E+00  0.94785636687E+03  0.94785636687E+03  0.00000000000E+00 0. -1.
         21   -1    0    0  501  502 -0.00000000000E+00 -0.00000000000E+00 -0.41211412789E+01  0.41211412789E+01  0.00000000000E+00 0. -1.
         25    1    1    2    0    0  0.00000000000E+00  0.00000000000E+00  0.94373522559E+03  0.95197750815E+03  0.12500000000E+03 0.  0.
<mgrwt>
<rscale>  0 0.12500000E+03</rscale>
<asrwt>0</asrwt>
<pdfrwt beam="1">  1       21 0.14582388E+00 0.12500000E+03</pdfrwt>
<pdfrwt beam="2">  1       21 0.63402249E-03 0.12500000E+03</pdfrwt>
<totfact> 0.24858563E+06</totfact>
</mgrwt>
</event>
<event>
 3    1  0.1604658E-001  0.1250000E+03  0.7546771E-02  0.1235069E+00
         21   -1    0    0  502  501  0.00000000000E+00  0.00000000000E+00  0.10839649413E+03  0.10839649413E+03  0.00000000000E+00 0.  1.
         21   -1    0    0  501  502 -0.00000000000E+00 -0.00000000000E+00 -0.36036682104E+02  0.36036682104E+02  0.00000000000E+00 0.  1.
         25    1    1    2    0    0  0.00000000000E+00  0.00000000000E+00  0.72359812023E+02  0.14443317623E+03  0.12500000000E+03 0.  0.
<mgrwt>
<rscale>  0 0.12500000E+03</rscale>
<asrwt>0</asrwt>
<pdfrwt beam="1">  1       21 0.16676384E-01 0.12500000E+03</pdfrwt>
<pdfrwt beam="2">  1       21 0.55441050E-02 0.12500000E+03</pdfrwt>
<totfact> 0.71465717E+06</totfact>
</mgrwt>
</event>
<event>
 3    1  0.1604658E-001  0.1250000E+03  0.7546771E-02  0.1235069E+00
         21   -1    0    0  502  501  0.00000000000E+00  0.00000000000E+00  0.47885115482E+03  0.47885115482E+03  0.00000000000E+00 0.  1.
         21   -1    0    0  501  502 -0.00000000000E+00 -0.00000000000E+00 -0.81575453263E+01  0.81575453263E+01  0.00000000000E+00 0.  1.
         25    1    1    2    0    0  0.00000000000E+00  0.00000000000E+00  0.47069360950E+03  0.48700870015E+03  0.12500000000E+03 0.  0.
<mgrwt>
<rscale>  0 0.12500000E+03</rscale>
<asrwt>0</asrwt>
<pdfrwt beam="1">  1       21 0.73669387E-01 0.12500000E+03</pdfrwt>
<pdfrwt beam="2">  1       21 0.12550073E-02 0.12500000E+03</pdfrwt>
<totfact> 0.42757504E+06</totfact>
</mgrwt>
</event>
<event>
 3    1  0.1604658E-001  0.1250000E+03  0.7546771E-02  0.1235069E+00
         21   -1    0    0  502  501  0.00000000000E+00  0.00000000000E+00  0.20734440176E+02  0.20734440176E+02  0.00000000000E+00 0.  1.
         21   -1    0    0  501  502 -0.00000000000E+00 -0.00000000000E+00 -0.18839428346E+03  0.18839428346E+03  0.00000000000E+00 0.  1.
         25    1    1    2    0    0  0.00000000000E+00  0.00000000000E+00 -0.16765984329E+03  0.20912872364E+03  0.12500000000E+03 0.  0.
<mgrwt>
<rscale>  0 0.12500000E+03</rscale>
<asrwt>0</asrwt>
<pdfrwt beam="1">  1       21 0.31899139E-02 0.12500000E+03</pdfrwt>
<pdfrwt beam="2">  1       21 0.28983736E-01 0.12500000E+03</pdfrwt>
<totfact> 0.63951321E+06</totfact>
</mgrwt>
</event>
<event>
 3    1  0.1604658E-001  0.1250000E+03  0.7546771E-02  0.1235069E+00
         21   -1    0    0  502  501  0.00000000000E+00  0.00000000000E+00  0.87104875023E+02  0.87104875023E+02  0.00000000000E+00 0. -1.
         21   -1    0    0  501  502 -0.00000000000E+00 -0.00000000000E+00 -0.44845365991E+02  0.44845365991E+02  0.00000000000E+00 0. -1.
         25    1    1    2    0    0  0.00000000000E+00  0.00000000000E+00  0.42259509032E+02  0.13195024101E+03  0.12500000000E+03 0.  0.
<mgrwt>
<rscale>  0 0.12500000E+03</rscale>
<asrwt>0</asrwt>
<pdfrwt beam="1">  1       21 0.13400750E-01 0.12500000E+03</pdfrwt>
<pdfrwt beam="2">  1       21 0.68992871E-02 0.12500000E+03</pdfrwt>
<totfact> 0.73102904E+06</totfact>
</mgrwt>
</event>
<event>
 3    1  0.1604658E-001  0.1250000E+03  0.7546771E-02  0.1235069E+00
         21   -1    0    0  502  501  0.00000000000E+00  0.00000000000E+00  0.67720280715E+03  0.67720280715E+03  0.00000000000E+00 0. -1.
         21   -1    0    0  501  502 -0.00000000000E+00 -0.00000000000E+00 -0.57682129471E+01  0.57682129471E+01  0.00000000000E+00 0. -1.
         25    1    1    2    0    0  0.00000000000E+00  0.00000000000E+00  0.67143459420E+03  0.68297102009E+03  0.12500000000E+03 0.  0.
<mgrwt>
<rscale>  0 0.12500000E+03</rscale>
<asrwt>0</asrwt>
<pdfrwt beam="1">  1       21 0.10418498E+00 0.12500000E+03</pdfrwt>
<pdfrwt beam="2">  1       21 0.88741791E-03 0.12500000E+03</pdfrwt>
<totfact> 0.33577083E+06</totfact>
</mgrwt>
</event>
<event>
 3    1  0.1604658E-001  0.1250000E+03  0.7546771E-02  0.1235069E+00
         21   -1    0    0  502  501  0.00000000000E+00  0.00000000000E+00  0.55463920037E+03  0.55463920037E+03  0.00000000000E+00 0. -1.
         21   -1    0    0  501  502 -0.00000000000E+00 -0.00000000000E+00 -0.70428667815E+01  0.70428667815E+01  0.00000000000E+00 0. -1.
         25    1    1    2    0    0  0.00000000000E+00  0.00000000000E+00  0.54759633359E+03  0.56168206715E+03  0.12500000000E+03 0.  0.
<mgrwt>
<rscale>  0 0.12500000E+03</rscale>
<asrwt>0</asrwt>
<pdfrwt beam="1">  1       21 0.85329073E-01 0.12500000E+03</pdfrwt>
<pdfrwt beam="2">  1       21 0.10835184E-02 0.12500000E+03</pdfrwt>
<totfact> 0.38884917E+06</totfact>
</mgrwt>
</event>
<event>
 3    1  0.1604658E-001  0.1250000E+03  0.7546771E-02  0.1235069E+00
         21   -1    0    0  502  501  0.00000000000E+00  0.00000000000E+00  0.10516993929E+03  0.10516993929E+03  0.00000000000E+00 0.  1.
         21   -1    0    0  501  502 -0.00000000000E+00 -0.00000000000E+00 -0.37142267327E+02  0.37142267327E+02  0.00000000000E+00 0.  1.
         25    1    1    2    0    0  0.00000000000E+00  0.00000000000E+00  0.68027671965E+02  0.14231220662E+03  0.12500000000E+03 0.  0.
<mgrwt>
<rscale>  0 0.12500000E+03</rscale>
<asrwt>0</asrwt>
<pdfrwt beam="1">  1       21 0.16179990E-01 0.12500000E+03</pdfrwt>
<pdfrwt beam="2">  1       21 0.57141950E-02 0.12500000E+03</pdfrwt>
<totfact> 0.71738874E+06</totfact>
</mgrwt>
</event>
<event>
 3    1  0.1604658E-001  0.1250000E+03  0.7546771E-02  0.1235069E+00
         21   -1    0    0  502  501  0.00000000000E+00  0.00000000000E+00  0.49506436218E+03  0.49506436218E+03  0.00000000000E+00 0. -1.
         21   -1    0    0  501  502 -0.00000000000E+00 -0.00000000000E+00 -0.78903881968E+01  0.78903881968E+01  0.00000000000E+00 0. -1.
         25    1    1    2    0    0  0.00000000000E+00  0.00000000000E+00  0.48717397398E+03  0.50295475038E+03  0.12500000000E+03 0.  0.
<mgrwt>
<rscale>  0 0.12500000E+03</rscale>
<asrwt>0</asrwt>
<pdfrwt beam="1">  1       21 0.76163724E-01 0.12500000E+03</pdfrwt>
<pdfrwt beam="2">  1       21 0.12139063E-02 0.12500000E+03</pdfrwt>
<totfact> 0.41884288E+06</totfact>
</mgrwt>
</event>
<event>
 3    1  0.1604658E-001  0.1250000E+03  0.7546771E-02  0.1235069E+00
         21   -1    0    0  502  501  0.00000000000E+00  0.00000000000E+00  0.31917311898E+02  0.31917311898E+02  0.00000000000E+00 0.  1.
         21   -1    0    0  501  502 -0.00000000000E+00 -0.00000000000E+00 -0.12238655976E+03  0.12238655976E+03  0.00000000000E+00 0.  1.
         25    1    1    2    0    0  0.00000000000E+00  0.00000000000E+00 -0.90469247864E+02  0.15430387166E+03  0.12500000000E+03 0.  0.
<mgrwt>
<rscale>  0 0.12500000E+03</rscale>
<asrwt>0</asrwt>
<pdfrwt beam="1">  1       21 0.49103555E-02 0.12500000E+03</pdfrwt>
<pdfrwt beam="2">  1       21 0.18828702E-01 0.12500000E+03</pdfrwt>
<totfact> 0.70222281E+06</totfact>
</mgrwt>
</event>
<event>
 3    1  0.1604658E-001  0.1250000E+03  0.7546771E-02  0.1235069E+00
         21   -1    0    0  502  501  0.00000000000E+00  0.00000000000E+00  0.38584241579E+02  0.38584241579E+02  0.00000000000E+00 0.  1.
         21   -1    0    0  501  502 -0.00000000000E+00 -0.00000000000E+00 -0.10123951748E+03  0.10123951748E+03  0.00000000000E+00 0.  1.
         25    1    1    2    0    0  0.00000000000E+00  0.00000000000E+00 -0.62655275906E+02  0.13982375906E+03  0.12500000000E+03 0.  0.
<mgrwt>
<rscale>  0 0.12500000E+03</rscale>
<asrwt>0</asrwt>
<pdfrwt beam="1">  1       21 0.59360372E-02 0.12500000E+03</pdfrwt>
<pdfrwt beam="2">  1       21 0.15575310E-01 0.12500000E+03</pdfrwt>
<totfact> 0.72062324E+06</totfact>
</mgrwt>
</event>
<event>
 3    1  0.1604658E-001  0.1250000E+03  0.7546771E-02  0.1235069E+00
         21   -1    0    0  502  501  0.00000000000E+00  0.00000000000E+00  0.20033053680E+02  0.20033053680E+02  0.00000000000E+00 0.  1.
         21   -1    0    0  501  502 -0.00000000000E+00 -0.00000000000E+00 -0.19499024274E+03  0.19499024274E+03  0.00000000000E+00 0.  1.
         25    1    1    2    0    0  0.00000000000E+00  0.00000000000E+00 -0.17495718906E+03  0.21502329642E+03  0.12500000000E+03 0.  0.
<mgrwt>
<rscale>  0 0.12500000E+03</rscale>
<asrwt>0</asrwt>
<pdfrwt beam="1">  1       21 0.30820082E-02 0.12500000E+03</pdfrwt>
<pdfrwt beam="2">  1       21 0.29998499E-01 0.12500000E+03</pdfrwt>
<totfact> 0.63334872E+06</totfact>
</mgrwt>
</event>
<event>
 3    1  0.1604658E-001  0.1250000E+03  0.7546771E-02  0.1235069E+00
         21   -1    0    0  502  501  0.00000000000E+00  0.00000000000E+00  0.99519055260E+01  0.99519055260E+01  0.00000000000E+00 0. -1.
         21   -1    0    0  501  502 -0.00000000000E+00 -0.00000000000E+00 -0.39251276952E+03  0.39251276952E+03  0.00000000000E+00 0. -1.
         25    1    1    2    0    0  0.00000000000E+00  0.00000000000E+00 -0.38256086399E+03  0.40246467505E+03  0.12500000000E+03 0.  0.
<mgrwt>
<rscale>  0 0.12500000E+03</rscale>
<asrwt>0</asrwt>
<pdfrwt beam="1">  1       21 0.15310622E-02 0.12500000E+03</pdfrwt>
<pdfrwt beam="2">  1       21 0.60386586E-01 0.12500000E+03</pdfrwt>
<totfact> 0.47878297E+06</totfact>
</mgrwt>
</event>
<event>
 3    1  0.1604658E-001  0.1250000E+03  0.7546771E-02  0.1235069E+00
         21   -1    0    0  502  501  0.00000000000E+00  0.00000000000E+00  0.10664762463E+02  0.10664762463E+02  0.00000000000E+00 0.  1.
         21   -1    0    0  501  502 -0.00000000000E+00 -0.00000000000E+00 -0.36627632480E+03  0.36627632480E+03  0.00000000000E+00 0.  1.
         25    1    1    2    0    0  0.00000000000E+00  0.00000000000E+00 -0.35561156234E+03  0.37694108726E+03  0.12500000000E+03 0.  0.
<mgrwt>
<rscale>  0 0.12500000E+03</rscale>
<asrwt>0</asrwt>
<pdfrwt beam="1">  1       21 0.16407325E-02 0.12500000E+03</pdfrwt>
<pdfrwt beam="2">  1       21 0.56350209E-01 0.12500000E+03</pdfrwt>
<totfact> 0.49608248E+06</totfact>
</mgrwt>
</event>
<event>
 3    1  0.1604658E-001  0.1250000E+03  0.7546771E-02  0.1235069E+00
         21   -1    0    0  502  501  0.00000000000E+00  0.00000000000E+00  0.28785455494E+03  0.28785455494E+03  0.00000000000E+00 0.  1.
         21   -1    0    0  501  502 -0.00000000000E+00 -0.00000000000E+00 -0.13570221256E+02  0.13570221256E+02  0.00000000000E+00 0.  1.
         25    1    1    2    0    0  0.00000000000E+00  0.00000000000E+00  0.27428433369E+03  0.30142477620E+03  0.12500000000E+03 0.  0.
<mgrwt>
<rscale>  0 0.12500000E+03</rscale>
<asrwt>0</asrwt>
<pdfrwt beam="1">  1       21 0.44285312E-01 0.12500000E+03</pdfrwt>
<pdfrwt beam="2">  1       21 0.20877266E-02 0.12500000E+03</pdfrwt>
<totfact> 0.55337979E+06</totfact>
</mgrwt>
</event>
<event>
 3    1  0.1604658E-001  0.1250000E+03  0.7546771E-02  0.1235069E+00
         21   -1    0    0  502  501  0.00000000000E+00  0.00000000000E+00  0.90007382898E+02  0.90007382898E+02  0.00000000000E+00 0.  1.
         21   -1    0    0  501  502 -0.00000000000E+00 -0.00000000000E+00 -0.43399217644E+02  0.43399217644E+02  0.00000000000E+00 0.  1.
         25    1    1    2    0    0  0.00000000000E+00  0.00000000000E+00  0.46608165254E+02  0.13340660054E+03  0.12500000000E+03 0.  0.
<mgrwt>
<rscale>  0 0.12500000E+03</rscale>
<asrwt>0</asrwt>
<pdfrwt beam="1">  1       21 0.13847290E-01 0.12500000E+03</pdfrwt>
<pdfrwt beam="2">  1       21 0.66768027E-02 0.12500000E+03</pdfrwt>
<totfact> 0.72908151E+06</totfact>
</mgrwt>
</event>
<event>
 3    1  0.1604658E-001  0.1250000E+03  0.7546771E-02  0.1235069E+00
         21   -1    0    0  502  501  0.00000000000E+00  0.00000000000E+00  0.12616202200E+02  0.12616202200E+02  0.00000000000E+00 0. -1.
         21   -1    0    0  501  502 -0.00000000000E+00 -0.00000000000E+00 -0.30962170217E+03  0.30962170217E+03  0.00000000000E+00 0. -1.
         25    1    1    2    0    0  0.00000000000E+00  0.00000000000E+00 -0.29700549997E+03  0.32223790437E+03  0.12500000000E+03 0.  0.
<mgrwt>
<rscale>  0 0.12500000E+03</rscale>
<asrwt>0</asrwt>
<pdfrwt beam="1">  1       21 0.19409541E-02 0.12500000E+03</pdfrwt>
<pdfrwt beam="2">  1       21 0.47634110E-01 0.12500000E+03</pdfrwt>
<totfact> 0.53656474E+06</totfact>
</mgrwt>
</event>
<event>
 3    1  0.1604658E-001  0.1250000E+03  0.7546771E-02  0.1235069E+00
         21   -1    0    0  502  501  0.00000000000E+00  0.00000000000E+00  0.30111089531E+02  0.30111089531E+02  0.00000000000E+00 0. -1.
         21   -1    0    0  501  502 -0.00000000000E+00 -0.00000000000E+00 -0.12972795275E+03  0.12972795275E+03  0.00000000000E+00 0. -1.
         25    1    1    2    0    0  0.00000000000E+00  0.00000000000E+00 -0.99616863221E+02  0.15983904228E+03  0.12500000000E+03 0.  0.
<mgrwt>
<rscale>  0 0.12500000E+03</rscale>
<asrwt>0</asrwt>
<pdfrwt beam="1">  1       21 0.46324752E-02 0.12500000E+03</pdfrwt>
<pdfrwt beam="2">  1       21 0.19958147E-01 0.12500000E+03</pdfrwt>
<totfact> 0.69539168E+06</totfact>
</mgrwt>
</event>
<event>
 3    1  0.1604658E-001  0.1250000E+03  0.7546771E-02  0.1235069E+00
         21   -1    0    0  502  501  0.00000000000E+00  0.00000000000E+00  0.17266757109E+03  0.17266757109E+03  0.00000000000E+00 0.  1.
         21   -1    0    0  501  502 -0.00000000000E+00 -0.00000000000E+00 -0.22622951000E+02  0.22622951000E+02  0.00000000000E+00 0.  1.
         25    1    1    2    0    0  0.00000000000E+00  0.00000000000E+00  0.15004462009E+03  0.19529052209E+03  0.12500000000E+03 0.  0.
<mgrwt>
<rscale>  0 0.12500000E+03</rscale>
<asrwt>0</asrwt>
<pdfrwt beam="1">  1       21 0.26564241E-01 0.12500000E+03</pdfrwt>
<pdfrwt beam="2">  1       21 0.34804541E-02 0.12500000E+03</pdfrwt>
<totfact> 0.65439240E+06</totfact>
</mgrwt>
</event>
<event>
 3    1  0.1604658E-001  0.1250000E+03  0.7546771E-02  0.1235069E+00
         21   -1    0    0  502  501  0.00000000000E+00  0.00000000000E+00  0.34777700274E+02  0.34777700274E+02  0.00000000000E+00 0.  1.
         21   -1    0    0  501  502 -0.00000000000E+00 -0.00000000000E+00 -0.11232053785E+03  0.11232053785E+03  0.00000000000E+00 0.  1.
         25    1    1    2    0    0  0.00000000000E+00  0.00000000000E+00 -0.77542837578E+02  0.14709823813E+03  0.12500000000E+03 0.  0.
<mgrwt>
<rscale>  0 0.12500000E+03</rscale>
<asrwt>0</asrwt>
<pdfrwt beam="1">  1       21 0.53504154E-02 0.12500000E+03</pdfrwt>
<pdfrwt beam="2">  1       21 0.17280083E-01 0.12500000E+03</pdfrwt>
<totfact> 0.71125647E+06</totfact>
</mgrwt>
</event>
<event>
 3    1  0.1604658E-001  0.1250000E+03  0.7546771E-02  0.1235069E+00
         21   -1    0    0  502  501  0.00000000000E+00  0.00000000000E+00  0.29747089506E+02  0.29747089506E+02  0.00000000000E+00 0. -1.
         21   -1    0    0  501  502 -0.00000000000E+00 -0.00000000000E+00 -0.13131536782E+03  0.13131536782E+03  0.00000000000E+00 0. -1.
         25    1    1    2    0    0  0.00000000000E+00  0.00000000000E+00 -0.10156827831E+03  0.16106245732E+03  0.12500000000E+03 0.  0.
<mgrwt>
<rscale>  0 0.12500000E+03</rscale>
<asrwt>0</asrwt>
<pdfrwt beam="1">  1       21 0.45764754E-02 0.12500000E+03</pdfrwt>
<pdfrwt beam="2">  1       21 0.20202364E-01 0.12500000E+03</pdfrwt>
<totfact> 0.69389908E+06</totfact>
</mgrwt>
</event>
<event>
 3    1  0.1604658E-001  0.1250000E+03  0.7546771E-02  0.1235069E+00
         21   -1    0    0  502  501  0.00000000000E+00  0.00000000000E+00  0.13484736674E+03  0.13484736674E+03  0.00000000000E+00 0.  1.
         21   -1    0    0  501  502 -0.00000000000E+00 -0.00000000000E+00 -0.28967936820E+02  0.28967936820E+02  0.00000000000E+00 0.  1.
         25    1    1    2    0    0  0.00000000000E+00  0.00000000000E+00  0.10587942992E+03  0.16381530356E+03  0.12500000000E+03 0.  0.
<mgrwt>
<rscale>  0 0.12500000E+03</rscale>
<asrwt>0</asrwt>
<pdfrwt beam="1">  1       21 0.20745748E-01 0.12500000E+03</pdfrwt>
<pdfrwt beam="2">  1       21 0.44566058E-02 0.12500000E+03</pdfrwt>
<totfact> 0.69056286E+06</totfact>
</mgrwt>
</event>
<event>
 3    1  0.1604658E-001  0.1250000E+03  0.7546771E-02  0.1235069E+00
         21   -1    0    0  502  501  0.00000000000E+00  0.00000000000E+00  0.54095461517E+02  0.54095461517E+02  0.00000000000E+00 0. -1.
         21   -1    0    0  501  502 -0.00000000000E+00 -0.00000000000E+00 -0.72210309155E+02  0.72210309155E+02  0.00000000000E+00 0. -1.
         25    1    1    2    0    0  0.00000000000E+00  0.00000000000E+00 -0.18114847638E+02  0.12630577067E+03  0.12500000000E+03 0.  0.
<mgrwt>
<rscale>  0 0.12500000E+03</rscale>
<asrwt>0</asrwt>
<pdfrwt beam="1">  1       21 0.83223787E-02 0.12500000E+03</pdfrwt>
<pdfrwt beam="2">  1       21 0.11109278E-01 0.12500000E+03</pdfrwt>
<totfact> 0.73863987E+06</totfact>
</mgrwt>
</event>
<event>
 3    1  0.1604658E-001  0.1250000E+03  0.7546771E-02  0.1235069E+00
         21   -1    0    0  502  501  0.00000000000E+00  0.00000000000E+00  0.10568500236E+02  0.10568500236E+02  0.00000000000E+00 0.  1.
         21   -1    0    0  501  502 -0.00000000000E+00 -0.00000000000E+00 -0.36961251955E+03  0.36961251955E+03  0.00000000000E+00 0.  1.
         25    1    1    2    0    0  0.00000000000E+00  0.00000000000E+00 -0.35904401931E+03  0.38018101978E+03  0.12500000000E+03 0.  0.
<mgrwt>
<rscale>  0 0.12500000E+03</rscale>
<asrwt>0</asrwt>
<pdfrwt beam="1">  1       21 0.16259234E-02 0.12500000E+03</pdfrwt>
<pdfrwt beam="2">  1       21 0.56863455E-01 0.12500000E+03</pdfrwt>
<totfact> 0.49383845E+06</totfact>
</mgrwt>
</event>
<event>
 3    1  0.1604658E-001  0.1250000E+03  0.7546771E-02  0.1235069E+00
         21   -1    0    0  502  501  0.00000000000E+00  0.00000000000E+00  0.33756008424E+03  0.33756008424E+03  0.00000000000E+00 0.  1.
         21   -1    0    0  501  502 -0.00000000000E+00 -0.00000000000E+00 -0.11572013939E+02  0.11572013939E+02  0.00000000000E+00 0.  1.
         25    1    1    2    0    0  0.00000000000E+00  0.00000000000E+00  0.32598807030E+03  0.34913209818E+03  0.12500000000E+03 0.  0.
<mgrwt>
<rscale>  0 0.12500000E+03</rscale>
<asrwt>0</asrwt>
<pdfrwt beam="1">  1       21 0.51932313E-01 0.12500000E+03</pdfrwt>
<pdfrwt beam="2">  1       21 0.17803101E-02 0.12500000E+03</pdfrwt>
<totfact> 0.51602596E+06</totfact>
</mgrwt>
</event>
<event>
 3    1  0.1604658E-001  0.1250000E+03  0.7546771E-02  0.1235069E+00
         21   -1    0    0  502  501  0.00000000000E+00  0.00000000000E+00  0.10226668107E+03  0.10226668107E+03  0.00000000000E+00 0.  1.
         21   -1    0    0  501  502 -0.00000000000E+00 -0.00000000000E+00 -0.38196702573E+02  0.38196702573E+02  0.00000000000E+00 0.  1.
         25    1    1    2    0    0  0.00000000000E+00  0.00000000000E+00  0.64069978500E+02  0.14046338364E+03  0.12500000000E+03 0.  0.
<mgrwt>
<rscale>  0 0.12500000E+03</rscale>
<asrwt>0</asrwt>
<pdfrwt beam="1">  1       21 0.15733335E-01 0.12500000E+03</pdfrwt>
<pdfrwt beam="2">  1       21 0.58764158E-02 0.12500000E+03</pdfrwt>
<totfact> 0.71978872E+06</totfact>
</mgrwt>
</event>
<event>
 3    1  0.1604658E-001  0.1250000E+03  0.7546771E-02  0.1235069E+00
         21   -1    0    0  502  501  0.00000000000E+00  0.00000000000E+00  0.17160073969E+03  0.17160073969E+03  0.00000000000E+00 0. -1.
         21   -1    0    0  501  502 -0.00000000000E+00 -0.00000000000E+00 -0.22763596515E+02  0.22763596515E+02  0.00000000000E+00 0. -1.
         25    1    1    2    0    0  0.00000000000E+00  0.00000000000E+00  0.14883714318E+03  0.19436433621E+03  0.12500000000E+03 0.  0.
<mgrwt>
<rscale>  0 0.12500000E+03</rscale>
<asrwt>0</asrwt>
<pdfrwt beam="1">  1       21 0.26400113E-01 0.12500000E+03</pdfrwt>
<pdfrwt beam="2">  1       21 0.35020919E-02 0.12500000E+03</pdfrwt>
<totfact> 0.65540661E+06</totfact>
</mgrwt>
</event>
<event>
 3    1  0.1604658E-001  0.1250000E+03  0.7546771E-02  0.1235069E+00
         21   -1    0    0  502  501  0.00000000000E+00  0.00000000000E+00  0.58750443366E+01  0.58750443366E+01  0.00000000000E+00 0. -1.
         21   -1    0    0  501  502 -0.00000000000E+00 -0.00000000000E+00 -0.66488859934E+03  0.66488859934E+03  0.00000000000E+00 0. -1.
         25    1    1    2    0    0  0.00000000000E+00  0.00000000000E+00 -0.65901355500E+03  0.67076364367E+03  0.12500000000E+03 0.  0.
<mgrwt>
<rscale>  0 0.12500000E+03</rscale>
<asrwt>0</asrwt>
<pdfrwt beam="1">  1       21 0.90385283E-03 0.12500000E+03</pdfrwt>
<pdfrwt beam="2">  1       21 0.10229057E+00 0.12500000E+03</pdfrwt>
<totfact> 0.34068041E+06</totfact>
</mgrwt>
</event>
<event>
 3    1  0.1604658E-001  0.1250000E+03  0.7546771E-02  0.1235069E+00
         21   -1    0    0  502  501  0.00000000000E+00  0.00000000000E+00  0.93327618792E+02  0.93327618792E+02  0.00000000000E+00 0. -1.
         21   -1    0    0  501  502 -0.00000000000E+00 -0.00000000000E+00 -0.41855241252E+02  0.41855241252E+02  0.00000000000E+00 0. -1.
         25    1    1    2    0    0  0.00000000000E+00  0.00000000000E+00  0.51472377540E+02  0.13518286004E+03  0.12500000000E+03 0.  0.
<mgrwt>
<rscale>  0 0.12500000E+03</rscale>
<asrwt>0</asrwt>
<pdfrwt beam="1">  1       21 0.14358095E-01 0.12500000E+03</pdfrwt>
<pdfrwt beam="2">  1       21 0.64392679E-02 0.12500000E+03</pdfrwt>
<totfact> 0.72672269E+06</totfact>
</mgrwt>
</event>
<event>
 3    1  0.1604658E-001  0.1250000E+03  0.7546771E-02  0.1235069E+00
         21   -1    0    0  502  501  0.00000000000E+00  0.00000000000E+00  0.11100006301E+04  0.11100006301E+04  0.00000000000E+00 0.  1.
         21   -1    0    0  501  502 -0.00000000000E+00 -0.00000000000E+00 -0.35191421465E+01  0.35191421465E+01  0.00000000000E+00 0.  1.
         25    1    1    2    0    0  0.00000000000E+00  0.00000000000E+00  0.11064814879E+04  0.11135197722E+04  0.12500000000E+03 0.  0.
<mgrwt>
<rscale>  0 0.12500000E+03</rscale>
<asrwt>0</asrwt>
<pdfrwt beam="1">  1       21 0.17076905E+00 0.12500000E+03</pdfrwt>
<pdfrwt beam="2">  1       21 0.54140737E-03 0.12500000E+03</pdfrwt>
<totfact> 0.20953256E+06</totfact>
</mgrwt>
</event>
<event>
 3    1  0.1604658E-001  0.1250000E+03  0.7546771E-02  0.1235069E+00
         21   -1    0    0  502  501  0.00000000000E+00  0.00000000000E+00  0.50610803790E+02  0.50610803790E+02  0.00000000000E+00 0.  1.
         21   -1    0    0  501  502 -0.00000000000E+00 -0.00000000000E+00 -0.77182137162E+02  0.77182137162E+02  0.00000000000E+00 0.  1.
         25    1    1    2    0    0  0.00000000000E+00  0.00000000000E+00 -0.26571333372E+02  0.12779294095E+03  0.12500000000E+03 0.  0.
<mgrwt>
<rscale>  0 0.12500000E+03</rscale>
<asrwt>0</asrwt>
<pdfrwt beam="1">  1       21 0.77862776E-02 0.12500000E+03</pdfrwt>
<pdfrwt beam="2">  1       21 0.11874175E-01 0.12500000E+03</pdfrwt>
<totfact> 0.73661549E+06</totfact>
</mgrwt>
</event>
<event>
 3    1  0.1604658E-001  0.1250000E+03  0.7546771E-02  0.1235069E+00
         21   -1    0    0  502  501  0.00000000000E+00  0.00000000000E+00  0.62874650721E+02  0.62874650721E+02  0.00000000000E+00 0. -1.
         21   -1    0    0  501  502 -0.00000000000E+00 -0.00000000000E+00 -0.62127581708E+02  0.62127581708E+02  0.00000000000E+00 0. -1.
         25    1    1    2    0    0  0.00000000000E+00  0.00000000000E+00  0.74706901276E+00  0.12500223243E+03  0.12500000000E+03 0.  0.
<mgrwt>
<rscale>  0 0.12500000E+03</rscale>
<asrwt>0</asrwt>
<pdfrwt beam="1">  1       21 0.96730232E-02 0.12500000E+03</pdfrwt>
<pdfrwt beam="2">  1       21 0.95580895E-02 0.12500000E+03</pdfrwt>
<totfact> 0.74043280E+06</totfact>
</mgrwt>
</event>
<event>
 3    1  0.1604658E-001  0.1250000E+03  0.7546771E-02  0.1235069E+00
         21   -1    0    0  502  501  0.00000000000E+00  0.00000000000E+00  0.93947650225E+02  0.93947650225E+02  0.00000000000E+00 0.  1.
         21   -1    0    0  501  502 -0.00000000000E+00 -0.00000000000E+00 -0.41579006932E+02  0.41579006932E+02  0.00000000000E+00 0.  1.
         25    1    1    2    0    0  0.00000000000E+00  0.00000000000E+00  0.52368643293E+02  0.13552665716E+03  0.12500000000E+03 0.  0.
<mgrwt>
<rscale>  0 0.12500000E+03</rscale>
<asrwt>0</asrwt>
<pdfrwt beam="1">  1       21 0.14453485E-01 0.12500000E+03</pdfrwt>
<pdfrwt beam="2">  1       21 0.63967703E-02 0.12500000E+03</pdfrwt>
<totfact> 0.72626814E+06</totfact>
</mgrwt>
</event>
<event>
 3    1  0.1604658E-001  0.1250000E+03  0.7546771E-02  0.1235069E+00
         21   -1    0    0  502  501  0.00000000000E+00  0.00000000000E+00  0.13441330762E+03  0.13441330762E+03  0.00000000000E+00 0. -1.
         21   -1    0    0  501  502 -0.00000000000E+00 -0.00000000000E+00 -0.29061482595E+02  0.29061482595E+02  0.00000000000E+00 0. -1.
         25    1    1    2    0    0  0.00000000000E+00  0.00000000000E+00  0.10535182503E+03  0.16347479022E+03  0.12500000000E+03 0.  0.
<mgrwt>
<rscale>  0 0.12500000E+03</rscale>
<asrwt>0</asrwt>
<pdfrwt beam="1">  1       21 0.20678970E-01 0.12500000E+03</pdfrwt>
<pdfrwt beam="2">  1       21 0.44709974E-02 0.12500000E+03</pdfrwt>
<totfact> 0.69097387E+06</totfact>
</mgrwt>
</event>
<event>
 3    1  0.1604658E-001  0.1250000E+03  0.7546771E-02  0.1235069E+00
         21   -1    0    0  502  501  0.00000000000E+00  0.00000000000E+00  0.16813648148E+03  0.16813648148E+03  0.00000000000E+00 0. -1.
         21   -1    0    0  501  502 -0.00000000000E+00 -0.00000000000E+00 -0.23232614157E+02  0.23232614157E+02  0.00000000000E+00 0. -1.
         25    1    1    2    0    0  0.00000000000E+00  0.00000000000E+00  0.14490386732E+03  0.19136909564E+03  0.12500000000E+03 0.  0.
<mgrwt>
<rscale>  0 0.12500000E+03</rscale>
<asrwt>0</asrwt>
<pdfrwt beam="1">  1       21 0.25867150E-01 0.12500000E+03</pdfrwt>
<pdfrwt beam="2">  1       21 0.35742485E-02 0.12500000E+03</pdfrwt>
<totfact> 0.65870625E+06</totfact>
</mgrwt>
</event>
<event>
 3    1  0.1604658E-001  0.1250000E+03  0.7546771E-02  0.1235069E+00
         21   -1    0    0  502  501  0.00000000000E+00  0.00000000000E+00  0.26296808363E+03  0.26296808363E+03  0.00000000000E+00 0.  1.
         21   -1    0    0  501  502 -0.00000000000E+00 -0.00000000000E+00 -0.14854464261E+02  0.14854464261E+02  0.00000000000E+00 0.  1.
         25    1    1    2    0    0  0.00000000000E+00  0.00000000000E+00  0.24811361937E+03  0.27782254789E+03  0.12500000000E+03 0.  0.
<mgrwt>
<rscale>  0 0.12500000E+03</rscale>
<asrwt>0</asrwt>
<pdfrwt beam="1">  1       21 0.40456625E-01 0.12500000E+03</pdfrwt>
<pdfrwt beam="2">  1       21 0.22853024E-02 0.12500000E+03</pdfrwt>
<totfact> 0.57351081E+06</totfact>
</mgrwt>
</event>
<event>
 3    1  0.1604658E-001  0.1250000E+03  0.7546771E-02  0.1235069E+00
         21   -1    0    0  502  501  0.00000000000E+00  0.00000000000E+00  0.43101745403E+03  0.43101745403E+03  0.00000000000E+00 0.  1.
         21   -1    0    0  501  502 -0.00000000000E+00 -0.00000000000E+00 -0.90628580431E+01  0.90628580431E+01  0.00000000000E+00 0.  1.
         25    1    1    2    0    0  0.00000000000E+00  0.00000000000E+00  0.42195459599E+03  0.44008031207E+03  0.12500000000E+03 0.  0.
<mgrwt>
<rscale>  0 0.12500000E+03</rscale>
<asrwt>0</asrwt>
<pdfrwt beam="1">  1       21 0.66310362E-01 0.12500000E+03</pdfrwt>
<pdfrwt beam="2">  1       21 0.13942862E-02 0.12500000E+03</pdfrwt>
<totfact> 0.45491730E+06</totfact>
</mgrwt>
</event>
<event>
 3    1  0.1604658E-001  0.1250000E+03  0.7546771E-02  0.1235069E+00
         21   -1    0    0  502  501  0.00000000000E+00  0.00000000000E+00  0.34409375069E+02  0.34409375069E+02  0.00000000000E+00 0.  1.
         21   -1    0    0  501  502 -0.00000000000E+00 -0.00000000000E+00 -0.11352284057E+03  0.11352284057E+03  0.00000000000E+00 0.  1.
         25    1    1    2    0    0  0.00000000000E+00  0.00000000000E+00 -0.79113465497E+02  0.14793221564E+03  0.12500000000E+03 0.  0.
<mgrwt>
<rscale>  0 0.12500000E+03</rscale>
<asrwt>0</asrwt>
<pdfrwt beam="1">  1       21 0.52937501E-02 0.12500000E+03</pdfrwt>
<pdfrwt beam="2">  1       21 0.17465052E-01 0.12500000E+03</pdfrwt>
<totfact> 0.71019929E+06</totfact>
</mgrwt>
</event>
<event>
 3    1  0.1604658E-001  0.1250000E+03  0.7546771E-02  0.1235069E+00
         21   -1    0    0  502  501  0.00000000000E+00  0.00000000000E+00  0.33239573326E+02  0.33239573326E+02  0.00000000000E+00 0.  1.
         21   -1    0    0  501  502 -0.00000000000E+00 -0.00000000000E+00 -0.11751805481E+03  0.11751805481E+03  0.00000000000E+00 0.  1.
         25    1    1    2    0    0  0.00000000000E+00  0.00000000000E+00 -0.84278481483E+02  0.15075762814E+03  0.12500000000E+03 0.  0.
<mgrwt>
<rscale>  0 0.12500000E+03</rscale>
<asrwt>0</asrwt>
<pdfrwt beam="1">  1       21 0.51137805E-02 0.12500000E+03</pdfrwt>
<pdfrwt beam="2">  1       21 0.18079701E-01 0.12500000E+03</pdfrwt>
<totfact> 0.70664159E+06</totfact>
</mgrwt>
</event>
<event>
 3    1  0.1604658E-001  0.1250000E+03  0.7546771E-02  0.1235069E+00
         21   -1    0    0  502  501  0.00000000000E+00  0.00000000000E+00  0.27149433748E+03  0.27149433748E+03  0.00000000000E+00 0. -1.
         21   -1    0    0  501  502 -0.00000000000E+00 -0.00000000000E+00 -0.14387961223E+02  0.14387961223E+02  0.00000000000E+00 0. -1.
         25    1    1    2    0    0  0.00000000000E+00  0.00000000000E+00  0.25710637626E+03  0.28588229871E+03  0.12500000000E+03 0.  0.
<mgrwt>
<rscale>  0 0.12500000E+03</rscale>
<asrwt>0</asrwt>
<pdfrwt beam="1">  1       21 0.41768356E-01 0.12500000E+03</pdfrwt>
<pdfrwt beam="2">  1       21 0.22135327E-02 0.12500000E+03</pdfrwt>
<totfact> 0.56650206E+06</totfact>
</mgrwt>
</event>
<event>
 3    1  0.1604658E-001  0.1250000E+03  0.7546771E-02  0.1235069E+00
         21   -1    0    0  502  501  0.00000000000E+00  0.00000000000E+00  0.16674681223E+04  0.16674681223E+04  0.00000000000E+00 0.  1.
         21   -1    0    0  501  502 -0.00000000000E+00 -0.00000000000E+00 -0.23426234947E+01  0.23426234947E+01  0.00000000000E+00 0.  1.
         25    1    1    2    0    0  0.00000000000E+00  0.00000000000E+00  0.16651254988E+04  0.16698107458E+04  0.12500000000E+03 0.  0.
<mgrwt>
<rscale>  0 0.12500000E+03</rscale>
<asrwt>0</asrwt>
<pdfrwt beam="1">  1       21 0.25653261E+00 0.12500000E+03</pdfrwt>
<pdfrwt beam="2">  1       21 0.36040495E-03 0.12500000E+03</pdfrwt>
<totfact> 0.11651840E+06</totfact>
</mgrwt>
</event>
<event>
 3    1  0.1604658E-001  0.1250000E+03  0.7546771E-02  0.1235069E+00
         21   -1    0    0  502  501  0.00000000000E+00  0.00000000000E+00  0.78405665523E+01  0.78405665523E+01  0.00000000000E+00 0. -1.
         21   -1    0    0  501  502 -0.00000000000E+00 -0.00000000000E+00 -0.49821017065E+03  0.49821017065E+03  0.00000000000E+00 0. -1.
         25    1    1    2    0    0  0.00000000000E+00  0.00000000000E+00 -0.49036960409E+03  0.50605073720E+03  0.12500000000E+03 0.  0.
<mgrwt>
<rscale>  0 0.12500000E+03</rscale>
<asrwt>0</asrwt>
<pdfrwt beam="1">  1       21 0.12062413E-02 0.12500000E+03</pdfrwt>
<pdfrwt beam="2">  1       21 0.76647702E-01 0.12500000E+03</pdfrwt>
<totfact> 0.41717821E+06</totfact>
</mgrwt>
</event>
<event>
 3    1  0.1604658E-001  0.1250000E+03  0.7546771E-02  0.1235069E+00
         21   -1    0    0  502  501  0.00000000000E+00  0.00000000000E+00  0.45413254015E+02  0.45413254015E+02  0.00000000000E+00 0. -1.
         21   -1    0    0  501  502 -0.00000000000E+00 -0.00000000000E+00 -0.86015637609E+02  0.86015637609E+02  0.00000000000E+00 0. -1.
         25    1    1    2    0    0  0.00000000000E+00  0.00000000000E+00 -0.40602383593E+02  0.13142889162E+03  0.12500000000E+03 0.  0.
<mgrwt>
<rscale>  0 0.12500000E+03</rscale>
<asrwt>0</asrwt>
<pdfrwt beam="1">  1       21 0.69866545E-02 0.12500000E+03</pdfrwt>
<pdfrwt beam="2">  1       21 0.13233175E-01 0.12500000E+03</pdfrwt>
<totfact> 0.73172933E+06</totfact>
</mgrwt>
</event>
<event>
 3    1  0.1604658E-001  0.1250000E+03  0.7546771E-02  0.1235069E+00
         21   -1    0    0  502  501  0.00000000000E+00  0.00000000000E+00  0.12788964986E+02  0.12788964986E+02  0.00000000000E+00 0. -1.
         21   -1    0    0  501  502 -0.00000000000E+00 -0.00000000000E+00 -0.30543910351E+03  0.30543910351E+03  0.00000000000E+00 0. -1.
         25    1    1    2    0    0  0.00000000000E+00  0.00000000000E+00 -0.29265013852E+03  0.31822806849E+03  0.12500000000E+03 0.  0.
<mgrwt>
<rscale>  0 0.12500000E+03</rscale>
<asrwt>0</asrwt>
<pdfrwt beam="1">  1       21 0.19675332E-02 0.12500000E+03</pdfrwt>
<pdfrwt beam="2">  1       21 0.46990628E-01 0.12500000E+03</pdfrwt>
<totfact> 0.53974060E+06</totfact>
</mgrwt>
</event>
<event>
 3    1  0.1604658E-001  0.1250000E+03  0.7546771E-02  0.1235069E+00
         21   -1    0    0  502  501  0.00000000000E+00  0.00000000000E+00  0.15456899035E+03  0.15456899035E+03  0.00000000000E+00 0. -1.
         21   -1    0    0  501  502 -0.00000000000E+00 -0.00000000000E+00 -0.25271886625E+02  0.25271886625E+02  0.00000000000E+00 0. -1.
         25    1    1    2    0    0  0.00000000000E+00  0.00000000000E+00  0.12929710373E+03  0.17984087698E+03  0.12500000000E+03 0.  0.
<mgrwt>
<rscale>  0 0.12500000E+03</rscale>
<asrwt>0</asrwt>
<pdfrwt beam="1">  1       21 0.23779844E-01 0.12500000E+03</pdfrwt>
<pdfrwt beam="2">  1       21 0.38879827E-02 0.12500000E+03</pdfrwt>
<totfact> 0.67169795E+06</totfact>
</mgrwt>
</event>
<event>
 3    1  0.1604658E-001  0.1250000E+03  0.7546771E-02  0.1235069E+00
         21   -1    0    0  502  501  0.00000000000E+00  0.00000000000E+00  0.52943438521E+02  0.52943438521E+02  0.00000000000E+00 0. -1.
         21   -1    0    0  501  502 -0.00000000000E+00 -0.00000000000E+00 -0.73781569711E+02  0.73781569711E+02  0.00000000000E+00 0. -1.
         25    1    1    2    0    0  0.00000000000E+00  0.00000000000E+00 -0.20838131190E+02  0.12672500823E+03  0.12500000000E+03 0.  0.
<mgrwt>
<rscale>  0 0.12500000E+03</rscale>
<asrwt>0</asrwt>
<pdfrwt beam="1">  1       21 0.81451443E-02 0.12500000E+03</pdfrwt>
<pdfrwt beam="2">  1       21 0.11351011E-01 0.12500000E+03</pdfrwt>
<totfact> 0.73806621E+06</totfact>
</mgrwt>
</event>
<event>
 3    1  0.1604658E-001  0.1250000E+03  0.7546771E-02  0.1235069E+00
         21   -1    0    0  502  501  0.00000000000E+00  0.00000000000E+00  0.31725226042E+02  0.31725226042E+02  0.00000000000E+00 0. -1.
         21   -1    0    0  501  502 -0.00000000000E+00 -0.00000000000E+00 -0.12312757031E+03  0.12312757031E+03  0.00000000000E+00 0. -1.
         25    1    1    2    0    0  0.00000000000E+00  0.00000000000E+00 -0.91402344266E+02  0.15485279635E+03  0.12500000000E+03 0.  0.
<mgrwt>
<rscale>  0 0.12500000E+03</rscale>
<asrwt>0</asrwt>
<pdfrwt beam="1">  1       21 0.48808040E-02 0.12500000E+03</pdfrwt>
<pdfrwt beam="2">  1       21 0.18942703E-01 0.12500000E+03</pdfrwt>
<totfact> 0.70153959E+06</totfact>
</mgrwt>
</event>
<event>
 3    1  0.1604658E-001  0.1250000E+03  0.7546771E-02  0.1235069E+00
         21   -1    0    0  502  501  0.00000000000E+00  0.00000000000E+00  0.42172864895E+03  0.42172864895E+03  0.00000000000E+00 0. -1.
         21   -1    0    0  501  502 -0.00000000000E+00 -0.00000000000E+00 -0.92624724684E+01  0.92624724684E+01  0.00000000000E+00 0. -1.
         25    1    1    2    0    0  0.00000000000E+00  0.00000000000E+00  0.41246617648E+03  0.43099112141E+03  0.12500000000E+03 0.  0.
<mgrwt>
<rscale>  0 0.12500000E+03</rscale>
<asrwt>0</asrwt>
<pdfrwt beam="1">  1       21 0.64881316E-01 0.12500000E+03</pdfrwt>
<pdfrwt beam="2">  1       21 0.14249961E-02 0.12500000E+03</pdfrwt>
<totfact> 0.46051460E+06</totfact>
</mgrwt>
</event>
<event>
 3    1  0.1604658E-001  0.1250000E+03  0.7546771E-02  0.1235069E+00
         21   -1    0    0  502  501  0.00000000000E+00  0.00000000000E+00  0.11572666555E+03  0.11572666555E+03  0.00000000000E+00 0.  1.
         21   -1    0    0  501  502 -0.00000000000E+00 -0.00000000000E+00 -0.33754104824E+02  0.33754104824E+02  0.00000000000E+00 0.  1.
         25    1    1    2    0    0  0.00000000000E+00  0.00000000000E+00  0.81972560731E+02  0.14948077038E+03  0.12500000000E+03 0.  0.
<mgrwt>
<rscale>  0 0.12500000E+03</rscale>
<asrwt>0</asrwt>
<pdfrwt beam="1">  1       21 0.17804102E-01 0.12500000E+03</pdfrwt>
<pdfrwt beam="2">  1       21 0.51929392E-02 0.12500000E+03</pdfrwt>
<totfact> 0.70824487E+06</totfact>
</mgrwt>
</event>
<event>
 3    1  0.1604658E-001  0.1250000E+03  0.7546771E-02  0.1235069E+00
         21   -1    0    0  502  501  0.00000000000E+00  0.00000000000E+00  0.60624911792E+01  0.60624911792E+01  0.00000000000E+00 0. -1.
         21   -1    0    0  501  502 -0.00000000000E+00 -0.00000000000E+00 -0.64433083439E+03  0.64433083439E+03  0.00000000000E+00 0. -1.
         25    1    1    2    0    0  0.00000000000E+00  0.00000000000E+00 -0.63826834321E+03  0.65039332557E+03  0.12500000000E+03 0.  0.
<mgrwt>
<rscale>  0 0.12500000E+03</rscale>
<asrwt>0</asrwt>
<pdfrwt beam="1">  1       21 0.93269109E-03 0.12500000E+03</pdfrwt>
<pdfrwt beam="2">  1       21 0.99127806E-01 0.12500000E+03</pdfrwt>
<totfact> 0.34908183E+06</totfact>
</mgrwt>
</event>
<event>
 3    1  0.1604658E-001  0.1250000E+03  0.7546771E-02  0.1235069E+00
         21   -1    0    0  502  501  0.00000000000E+00  0.00000000000E+00  0.27596706979E+03  0.27596706979E+03  0.00000000000E+00 0. -1.
         21   -1    0    0  501  502 -0.00000000000E+00 -0.00000000000E+00 -0.14154768549E+02  0.14154768549E+02  0.00000000000E+00 0. -1.
         25    1    1    2    0    0  0.00000000000E+00  0.00000000000E+00  0.26181230124E+03  0.29012183834E+03  0.12500000000E+03 0.  0.
<mgrwt>
<rscale>  0 0.12500000E+03</rscale>
<asrwt>0</asrwt>
<pdfrwt beam="1">  1       21 0.42456468E-01 0.12500000E+03</pdfrwt>
<pdfrwt beam="2">  1       21 0.21776569E-02 0.12500000E+03</pdfrwt>
<totfact> 0.56287212E+06</totfact>
</mgrwt>
</event>
<event>
 3    1  0.1604658E-001  0.1250000E+03  0.7546771E-02  0.1235069E+00
         21   -1    0    0  502  501  0.00000000000E+00  0.00000000000E+00  0.43878955242E+02  0.43878955242E+02  0.00000000000E+00 0.  1.
         21   -1    0    0  501  502 -0.00000000000E+00 -0.00000000000E+00 -0.89023313761E+02  0.89023313761E+02  0.00000000000E+00 0.  1.
         25    1    1    2    0    0  0.00000000000E+00  0.00000000000E+00 -0.45144358519E+02  0.13290226900E+03  0.12500000000E+03 0.  0.
<mgrwt>
<rscale>  0 0.12500000E+03</rscale>
<asrwt>0</asrwt>
<pdfrwt beam="1">  1       21 0.67506085E-02 0.12500000E+03</pdfrwt>
<pdfrwt beam="2">  1       21 0.13695894E-01 0.12500000E+03</pdfrwt>
<totfact> 0.72975451E+06</totfact>
</mgrwt>
</event>
<event>
 3    1  0.1604658E-001  0.1250000E+03  0.7546771E-02  0.1235069E+00
         21   -1    0    0  502  501  0.00000000000E+00  0.00000000000E+00  0.13840420216E+03  0.13840420216E+03  0.00000000000E+00 0. -1.
         21   -1    0    0  501  502 -0.00000000000E+00 -0.00000000000E+00 -0.28223492777E+02  0.28223492777E+02  0.00000000000E+00 0. -1.
         25    1    1    2    0    0  0.00000000000E+00  0.00000000000E+00  0.11018070939E+03  0.16662769494E+03  0.12500000000E+03 0.  0.
<mgrwt>
<rscale>  0 0.12500000E+03</rscale>
<asrwt>0</asrwt>
<pdfrwt beam="1">  1       21 0.21292954E-01 0.12500000E+03</pdfrwt>
<pdfrwt beam="2">  1       21 0.43420759E-02 0.12500000E+03</pdfrwt>
<totfact> 0.68718595E+06</totfact>
</mgrwt>
</event>
<event>
 3    1  0.1604658E-001  0.1250000E+03  0.7546771E-02  0.1235069E+00
         21   -1    0    0  502  501  0.00000000000E+00  0.00000000000E+00  0.40933932158E+01  0.40933932158E+01  0.00000000000E+00 0.  1.
         21   -1    0    0  501  502 -0.00000000000E+00 -0.00000000000E+00 -0.95428164217E+03  0.95428164217E+03  0.00000000000E+00 0.  1.
         25    1    1    2    0    0  0.00000000000E+00  0.00000000000E+00 -0.95018824895E+03  0.95837503538E+03  0.12500000000E+03 0.  0.
<mgrwt>
<rscale>  0 0.12500000E+03</rscale>
<asrwt>0</asrwt>
<pdfrwt beam="1">  1       21 0.62975218E-03 0.12500000E+03</pdfrwt>
<pdfrwt beam="2">  1       21 0.14681271E+00 0.12500000E+03</pdfrwt>
<totfact> 0.24688481E+06</totfact>
</mgrwt>
</event>
<event>
 3    1  0.1604658E-001  0.1250000E+03  0.7546771E-02  0.1235069E+00
         21   -1    0    0  502  501  0.00000000000E+00  0.00000000000E+00  0.88163613756E+01  0.88163613756E+01  0.00000000000E+00 0.  1.
         21   -1    0    0  501  502 -0.00000000000E+00 -0.00000000000E+00 -0.44306827200E+03  0.44306827200E+03  0.00000000000E+00 0.  1.
         25    1    1    2    0    0  0.00000000000E+00  0.00000000000E+00 -0.43425191062E+03  0.45188463337E+03  0.12500000000E+03 0.  0.
<mgrwt>
<rscale>  0 0.12500000E+03</rscale>
<asrwt>0</asrwt>
<pdfrwt beam="1">  1       21 0.13563633E-02 0.12500000E+03</pdfrwt>
<pdfrwt beam="2">  1       21 0.68164351E-01 0.12500000E+03</pdfrwt>
<totfact> 0.44779710E+06</totfact>
</mgrwt>
</event>
<event>
 3    1  0.1604658E-001  0.1250000E+03  0.7546771E-02  0.1235069E+00
         21   -1    0    0  502  501  0.00000000000E+00  0.00000000000E+00  0.38874653834E+03  0.38874653834E+03  0.00000000000E+00 0. -1.
         21   -1    0    0  501  502 -0.00000000000E+00 -0.00000000000E+00 -0.10048320987E+02  0.10048320987E+02  0.00000000000E+00 0. -1.
         25    1    1    2    0    0  0.00000000000E+00  0.00000000000E+00  0.37869821736E+03  0.39879485933E+03  0.12500000000E+03 0.  0.
<mgrwt>
<rscale>  0 0.12500000E+03</rscale>
<asrwt>0</asrwt>
<pdfrwt beam="1">  1       21 0.59807148E-01 0.12500000E+03</pdfrwt>
<pdfrwt beam="2">  1       21 0.15458958E-02 0.12500000E+03</pdfrwt>
<totfact> 0.48121394E+06</totfact>
</mgrwt>
</event>
<event>
 3    1  0.1604658E-001  0.1250000E+03  0.7546771E-02  0.1235069E+00
         21   -1    0    0  502  501  0.00000000000E+00  0.00000000000E+00  0.20533164356E+02  0.20533164356E+02  0.00000000000E+00 0.  1.
         21   -1    0    0  501  502 -0.00000000000E+00 -0.00000000000E+00 -0.19024101362E+03  0.19024101362E+03  0.00000000000E+00 0.  1.
         25    1    1    2    0    0  0.00000000000E+00  0.00000000000E+00 -0.16970784927E+03  0.21077417798E+03  0.12500000000E+03 0.  0.
<mgrwt>
<rscale>  0 0.12500000E+03</rscale>
<asrwt>0</asrwt>
<pdfrwt beam="1">  1       21 0.31589484E-02 0.12500000E+03</pdfrwt>
<pdfrwt beam="2">  1       21 0.29267848E-01 0.12500000E+03</pdfrwt>
<totfact> 0.63778175E+06</totfact>
</mgrwt>
</event>
<event>
 3    1  0.1604658E-001  0.1250000E+03  0.7546771E-02  0.1235069E+00
         21   -1    0    0  502  501  0.00000000000E+00  0.00000000000E+00  0.53688395697E+03  0.53688395697E+03  0.00000000000E+00 0. -1.
         21   -1    0    0  501  502 -0.00000000000E+00 -0.00000000000E+00 -0.72757808262E+01  0.72757808262E+01  0.00000000000E+00 0. -1.
         25    1    1    2    0    0  0.00000000000E+00  0.00000000000E+00  0.52960817614E+03  0.54415973780E+03  0.12500000000E+03 0.  0.
<mgrwt>
<rscale>  0 0.12500000E+03</rscale>
<asrwt>0</asrwt>
<pdfrwt beam="1">  1       21 0.82597501E-01 0.12500000E+03</pdfrwt>
<pdfrwt beam="2">  1       21 0.11193513E-02 0.12500000E+03</pdfrwt>
<totfact> 0.39746181E+06</totfact>
</mgrwt>
</event>
<event>
 3    1  0.1604658E-001  0.1250000E+03  0.7546771E-02  0.1235069E+00
         21   -1    0    0  502  501  0.00000000000E+00  0.00000000000E+00  0.12897273677E+02  0.12897273677E+02  0.00000000000E+00 0. -1.
         21   -1    0    0  501  502 -0.00000000000E+00 -0.00000000000E+00 -0.30287408780E+03  0.30287408780E+03  0.00000000000E+00 0. -1.
         25    1    1    2    0    0  0.00000000000E+00  0.00000000000E+00 -0.28997681412E+03  0.31577136148E+03  0.12500000000E+03 0.  0.
<mgrwt>
<rscale>  0 0.12500000E+03</rscale>
<asrwt>0</asrwt>
<pdfrwt beam="1">  1       21 0.19841961E-02 0.12500000E+03</pdfrwt>
<pdfrwt beam="2">  1       21 0.46596010E-01 0.12500000E+03</pdfrwt>
<totfact> 0.54170153E+06</totfact>
</mgrwt>
</event>
<event>
 3    1  0.1604658E-001  0.1250000E+03  0.7546771E-02  0.1235069E+00
         21   -1    0    0  502  501  0.00000000000E+00  0.00000000000E+00  0.40069862368E+02  0.40069862368E+02  0.00000000000E+00 0.  1.
         21   -1    0    0  501  502 -0.00000000000E+00 -0.00000000000E+00 -0.97485984956E+02  0.97485984956E+02  0.00000000000E+00 0.  1.
         25    1    1    2    0    0  0.00000000000E+00  0.00000000000E+00 -0.57416122588E+02  0.13755584732E+03  0.12500000000E+03 0.  0.
<mgrwt>
<rscale>  0 0.12500000E+03</rscale>
<asrwt>0</asrwt>
<pdfrwt beam="1">  1       21 0.61645942E-02 0.12500000E+03</pdfrwt>
<pdfrwt beam="2">  1       21 0.14997844E-01 0.12500000E+03</pdfrwt>
<totfact> 0.72359796E+06</totfact>
</mgrwt>
</event>
<event>
 3    1  0.1604658E-001  0.1250000E+03  0.7546771E-02  0.1235069E+00
         21   -1    0    0  502  501  0.00000000000E+00  0.00000000000E+00  0.49562189265E+02  0.49562189265E+02  0.00000000000E+00 0. -1.
         21   -1    0    0  501  502 -0.00000000000E+00 -0.00000000000E+00 -0.78815122131E+02  0.78815122131E+02  0.00000000000E+00 0. -1.
         25    1    1    2    0    0  0.00000000000E+00  0.00000000000E+00 -0.29252932865E+02  0.12837731140E+03  0.12500000000E+03 0.  0.
<mgrwt>
<rscale>  0 0.12500000E+03</rscale>
<asrwt>0</asrwt>
<pdfrwt beam="1">  1       21 0.76249522E-02 0.12500000E+03</pdfrwt>
<pdfrwt beam="2">  1       21 0.12125403E-01 0.12500000E+03</pdfrwt>
<totfact> 0.73582651E+06</totfact>
</mgrwt>
</event>
<event>
 3    1  0.1604658E-001  0.1250000E+03  0.7546771E-02  0.1235069E+00
         21   -1    0    0  502  501  0.00000000000E+00  0.00000000000E+00  0.16386465877E+02  0.16386465877E+02  0.00000000000E+00 0.  1.
         21   -1    0    0  501  502 -0.00000000000E+00 -0.00000000000E+00 -0.23838270127E+03  0.23838270127E+03  0.00000000000E+00 0.  1.
         25    1    1    2    0    0  0.00000000000E+00  0.00000000000E+00 -0.22199623539E+03  0.25476916715E+03  0.12500000000E+03 0.  0.
<mgrwt>
<rscale>  0 0.12500000E+03</rscale>
<asrwt>0</asrwt>
<pdfrwt beam="1">  1       21 0.25209949E-02 0.12500000E+03</pdfrwt>
<pdfrwt beam="2">  1       21 0.36674259E-01 0.12500000E+03</pdfrwt>
<totfact> 0.59432064E+06</totfact>
</mgrwt>
</event>
<event>
 3    1  0.1604658E-001  0.1250000E+03  0.7546771E-02  0.1235069E+00
         21   -1    0    0  502  501  0.00000000000E+00  0.00000000000E+00  0.13183612951E+02  0.13183612951E+02  0.00000000000E+00 0. -1.
         21   -1    0    0  501  502 -0.00000000000E+00 -0.00000000000E+00 -0.29629586477E+03  0.29629586477E+03  0.00000000000E+00 0. -1.
         25    1    1    2    0    0  0.00000000000E+00  0.00000000000E+00 -0.28311225182E+03  0.30947947772E+03  0.12500000000E+03 0.  0.
<mgrwt>
<rscale>  0 0.12500000E+03</rscale>
<asrwt>0</asrwt>
<pdfrwt beam="1">  1       21 0.20282483E-02 0.12500000E+03</pdfrwt>
<pdfrwt beam="2">  1       21 0.45583976E-01 0.12500000E+03</pdfrwt>
<totfact> 0.54677480E+06</totfact>
</mgrwt>
</event>
<event>
 3    1  0.1604658E-001  0.1250000E+03  0.7546771E-02  0.1235069E+00
         21   -1    0    0  502  501  0.00000000000E+00  0.00000000000E+00  0.19579218804E+03  0.19579218804E+03  0.00000000000E+00 0. -1.
         21   -1    0    0  501  502 -0.00000000000E+00 -0.00000000000E+00 -0.19951000288E+02  0.19951000288E+02  0.00000000000E+00 0. -1.
         25    1    1    2    0    0  0.00000000000E+00  0.00000000000E+00  0.17584118775E+03  0.21574318833E+03  0.12500000000E+03 0.  0.
<mgrwt>
<rscale>  0 0.12500000E+03</rscale>
<asrwt>0</asrwt>
<pdfrwt beam="1">  1       21 0.30121874E-01 0.12500000E+03</pdfrwt>
<pdfrwt beam="2">  1       21 0.30693848E-02 0.12500000E+03</pdfrwt>
<totfact> 0.63260307E+06</totfact>
</mgrwt>
</event>
<event>
 3    1  0.1604658E-001  0.1250000E+03  0.7546771E-02  0.1235069E+00
         21   -1    0    0  502  501  0.00000000000E+00  0.00000000000E+00  0.45428854279E+02  0.45428854279E+02  0.00000000000E+00 0. -1.
         21   -1    0    0  501  502 -0.00000000000E+00 -0.00000000000E+00 -0.85986099849E+02  0.85986099849E+02  0.00000000000E+00 0. -1.
         25    1    1    2    0    0  0.00000000000E+00  0.00000000000E+00 -0.40557245570E+02  0.13141495413E+03  0.12500000000E+03 0.  0.
<mgrwt>
<rscale>  0 0.12500000E+03</rscale>
<asrwt>0</asrwt>
<pdfrwt beam="1">  1       21 0.69890546E-02 0.12500000E+03</pdfrwt>
<pdfrwt beam="2">  1       21 0.13228631E-01 0.12500000E+03</pdfrwt>
<totfact> 0.73174808E+06</totfact>
</mgrwt>
</event>
<event>
 3    1  0.1604658E-001  0.1250000E+03  0.7546771E-02  0.1235069E+00
         21   -1    0    0  502  501  0.00000000000E+00  0.00000000000E+00  0.34356436080E+02  0.34356436080E+02  0.00000000000E+00 0.  1.
         21   -1    0    0  501  502 -0.00000000000E+00 -0.00000000000E+00 -0.11369776513E+03  0.11369776513E+03  0.00000000000E+00 0.  1.
         25    1    1    2    0    0  0.00000000000E+00  0.00000000000E+00 -0.79341329045E+02  0.14805420121E+03  0.12500000000E+03 0.  0.
<mgrwt>
<rscale>  0 0.12500000E+03</rscale>
<asrwt>0</asrwt>
<pdfrwt beam="1">  1       21 0.52856056E-02 0.12500000E+03</pdfrwt>
<pdfrwt beam="2">  1       21 0.17491964E-01 0.12500000E+03</pdfrwt>
<totfact> 0.71004492E+06</totfact>
</mgrwt>
</event>
<event>
 3    1  0.1604658E-001  0.1250000E+03  0.7546771E-02  0.1235069E+00
         21   -1    0    0  502  501  0.00000000000E+00  0.00000000000E+00  0.69406431455E+03  0.69406431455E+03  0.00000000000E+00 0.  1.
         21   -1    0    0  501  502 -0.00000000000E+00 -0.00000000000E+00 -0.56280807385E+01  0.56280807385E+01  0.00000000000E+00 0.  1.
         25    1    1    2    0    0  0.00000000000E+00  0.00000000000E+00  0.68843623382E+03  0.69969239529E+03  0.12500000000E+03 0.  0.
<mgrwt>
<rscale>  0 0.12500000E+03</rscale>
<asrwt>0</asrwt>
<pdfrwt beam="1">  1       21 0.10677906E+00 0.12500000E+03</pdfrwt>
<pdfrwt beam="2">  1       21 0.86585912E-03 0.12500000E+03</pdfrwt>
<totfact> 0.32922019E+06</totfact>
</mgrwt>
</event>
<event>
 3    1  0.1604658E-001  0.1250000E+03  0.7546771E-02  0.1235069E+00
         21   -1    0    0  502  501  0.00000000000E+00  0.00000000000E+00  0.11980889402E+03  0.11980889402E+03  0.00000000000E+00 0. -1.
         21   -1    0    0  501  502 -0.00000000000E+00 -0.00000000000E+00 -0.32604006838E+02  0.32604006838E+02  0.00000000000E+00 0. -1.
         25    1    1    2    0    0  0.00000000000E+00  0.00000000000E+00  0.87204887186E+02  0.15241290086E+03  0.12500000000E+03 0.  0.
<mgrwt>
<rscale>  0 0.12500000E+03</rscale>
<asrwt>0</asrwt>
<pdfrwt beam="1">  1       21 0.18432137E-01 0.12500000E+03</pdfrwt>
<pdfrwt beam="2">  1       21 0.50160011E-02 0.12500000E+03</pdfrwt>
<totfact> 0.70457397E+06</totfact>
</mgrwt>
</event>
<event>
 3    1  0.1604658E-001  0.1250000E+03  0.7546771E-02  0.1235069E+00
         21   -1    0    0  502  501  0.00000000000E+00  0.00000000000E+00  0.54264434333E+01  0.54264434333E+01  0.00000000000E+00 0. -1.
         21   -1    0    0  501  502 -0.00000000000E+00 -0.00000000000E+00 -0.71985455078E+03  0.71985455078E+03  0.00000000000E+00 0. -1.
         25    1    1    2    0    0  0.00000000000E+00  0.00000000000E+00 -0.71442810734E+03  0.72528099421E+03  0.12500000000E+03 0.  0.
<mgrwt>
<rscale>  0 0.12500000E+03</rscale>
<asrwt>0</asrwt>
<pdfrwt beam="1">  1       21 0.83483785E-03 0.12500000E+03</pdfrwt>
<pdfrwt beam="2">  1       21 0.11074680E+00 0.12500000E+03</pdfrwt>
<totfact> 0.31957978E+06</totfact>
</mgrwt>
</event>
<event>
 3    1  0.1604658E-001  0.1250000E+03  0.7546771E-02  0.1235069E+00
         21   -1    0    0  502  501  0.00000000000E+00  0.00000000000E+00  0.63816997478E+02  0.63816997478E+02  0.00000000000E+00 0.  1.
         21   -1    0    0  501  502 -0.00000000000E+00 -0.00000000000E+00 -0.61210181525E+02  0.61210181525E+02  0.00000000000E+00 0.  1.
         25    1    1    2    0    0  0.00000000000E+00  0.00000000000E+00  0.26068159529E+01  0.12502717900E+03  0.12500000000E+03 0.  0.
<mgrwt>
<rscale>  0 0.12500000E+03</rscale>
<asrwt>0</asrwt>
<pdfrwt beam="1">  1       21 0.98179996E-02 0.12500000E+03</pdfrwt>
<pdfrwt beam="2">  1       21 0.94169510E-02 0.12500000E+03</pdfrwt>
<totfact> 0.74039910E+06</totfact>
</mgrwt>
</event>
<event>
 3    1  0.1604658E-001  0.1250000E+03  0.7546771E-02  0.1235069E+00
         21   -1    0    0  502  501  0.00000000000E+00  0.00000000000E+00  0.39544797167E+03  0.39544797167E+03  0.00000000000E+00 0.  1.
         21   -1    0    0  501  502 -0.00000000000E+00 -0.00000000000E+00 -0.98780377693E+01  0.98780377693E+01  0.00000000000E+00 0.  1.
         25    1    1    2    0    0  0.00000000000E+00  0.00000000000E+00  0.38556993391E+03  0.40532600944E+03  0.12500000000E+03 0.  0.
<mgrwt>
<rscale>  0 0.12500000E+03</rscale>
<asrwt>0</asrwt>
<pdfrwt beam="1">  1       21 0.60838137E-01 0.12500000E+03</pdfrwt>
<pdfrwt beam="2">  1       21 0.15196984E-02 0.12500000E+03</pdfrwt>
<totfact> 0.47690082E+06</totfact>
</mgrwt>
</event>
<event>
 3    1  0.1604658E-001  0.1250000E+03  0.7546771E-02  0.1235069E+00
         21   -1    0    0  502  501  0.00000000000E+00  0.00000000000E+00  0.78479003622E+02  0.78479003622E+02  0.00000000000E+00 0. -1.
         21   -1    0    0  501  502 -0.00000000000E+00 -0.00000000000E+00 -0.49774459661E+02  0.49774459661E+02  0.00000000000E+00 0. -1.
         25    1    1    2    0    0  0.00000000000E+00  0.00000000000E+00  0.28704543961E+02  0.12825346328E+03  0.12500000000E+03 0.  0.
<mgrwt>
<rscale>  0 0.12500000E+03</rscale>
<asrwt>0</asrwt>
<pdfrwt beam="1">  1       21 0.12073693E-01 0.12500000E+03</pdfrwt>
<pdfrwt beam="2">  1       21 0.76576092E-02 0.12500000E+03</pdfrwt>
<totfact> 0.73599348E+06</totfact>
</mgrwt>
</event>
<event>
 3    1  0.1604658E-001  0.1250000E+03  0.7546771E-02  0.1235069E+00
         21   -1    0    0  502  501  0.00000000000E+00  0.00000000000E+00  0.47886201947E+03  0.47886201947E+03  0.00000000000E+00 0. -1.
         21   -1    0    0  501  502 -0.00000000000E+00 -0.00000000000E+00 -0.81573602440E+01  0.81573602440E+01  0.00000000000E+00 0. -1.
         25    1    1    2    0    0  0.00000000000E+00  0.00000000000E+00  0.47070465923E+03  0.48701937971E+03  0.12500000000E+03 0.  0.
<mgrwt>
<rscale>  0 0.12500000E+03</rscale>
<asrwt>0</asrwt>
<pdfrwt beam="1">  1       21 0.73671058E-01 0.12500000E+03</pdfrwt>
<pdfrwt beam="2">  1       21 0.12549789E-02 0.12500000E+03</pdfrwt>
<totfact> 0.42756910E+06</totfact>
</mgrwt>
</event>
<event>
 3    1  0.1604658E-001  0.1250000E+03  0.7546771E-02  0.1235069E+00
         21   -1    0    0  502  501  0.00000000000E+00  0.00000000000E+00  0.62653340100E+02  0.62653340100E+02  0.00000000000E+00 0.  1.
         21   -1    0    0  501  502 -0.00000000000E+00 -0.00000000000E+00 -0.62347035190E+02  0.62347035190E+02  0.00000000000E+00 0.  1.
         25    1    1    2    0    0  0.00000000000E+00  0.00000000000E+00  0.30630490965E+00  0.12500037529E+03  0.12500000000E+03 0.  0.
<mgrwt>
<rscale>  0 0.12500000E+03</rscale>
<asrwt>0</asrwt>
<pdfrwt beam="1">  1       21 0.96389755E-02 0.12500000E+03</pdfrwt>
<pdfrwt beam="2">  1       21 0.95918515E-02 0.12500000E+03</pdfrwt>
<totfact> 0.74043531E+06</totfact>
</mgrwt>
</event>
<event>
 3    1  0.1604658E-001  0.1250000E+03  0.7546771E-02  0.1235069E+00
         21   -1    0    0  502  501  0.00000000000E+00  0.00000000000E+00  0.45926792400E+03  0.45926792400E+03  0.00000000000E+00 0.  1.
         21   -1    0    0  501  502 -0.00000000000E+00 -0.00000000000E+00 -0.85053838858E+01  0.85053838858E+01  0.00000000000E+00 0.  1.
         25    1    1    2    0    0  0.00000000000E+00  0.00000000000E+00  0.45076254011E+03  0.46777330788E+03  0.12500000000E+03 0.  0.
<mgrwt>
<rscale>  0 0.12500000E+03</rscale>
<asrwt>0</asrwt>
<pdfrwt beam="1">  1       21 0.70656584E-01 0.12500000E+03</pdfrwt>
<pdfrwt beam="2">  1       21 0.13085210E-02 0.12500000E+03</pdfrwt>
<totfact> 0.43847513E+06</totfact>
</mgrwt>
</event>
<event>
 3    1  0.1604658E-001  0.1250000E+03  0.7546771E-02  0.1235069E+00
         21   -1    0    0  502  501  0.00000000000E+00  0.00000000000E+00  0.10533540371E+03  0.10533540371E+03  0.00000000000E+00 0.  1.
         21   -1    0    0  501  502 -0.00000000000E+00 -0.00000000000E+00 -0.37083922997E+02  0.37083922997E+02  0.00000000000E+00 0.  1.
         25    1    1    2    0    0  0.00000000000E+00  0.00000000000E+00  0.68251480713E+02  0.14241932671E+03  0.12500000000E+03 0.  0.
<mgrwt>
<rscale>  0 0.12500000E+03</rscale>
<asrwt>0</asrwt>
<pdfrwt beam="1">  1       21 0.16205447E-01 0.12500000E+03</pdfrwt>
<pdfrwt beam="2">  1       21 0.57052190E-02 0.12500000E+03</pdfrwt>
<totfact> 0.71725023E+06</totfact>
</mgrwt>
</event>
<event>
 3    1  0.1604658E-001  0.1250000E+03  0.7546771E-02  0.1235069E+00
         21   -1    0    0  502  501  0.00000000000E+00  0.00000000000E+00  0.59475874438E+02  0.59475874438E+02  0.00000000000E+00 0. -1.
         21   -1    0    0  501  502 -0.00000000000E+00 -0.00000000000E+00 -0.65677891026E+02  0.65677891026E+02  0.00000000000E+00 0. -1.
         25    1    1    2    0    0  0.00000000000E+00  0.00000000000E+00 -0.62020165876E+01  0.12515376546E+03  0.12500000000E+03 0.  0.
<mgrwt>
<rscale>  0 0.12500000E+03</rscale>
<asrwt>0</asrwt>
<pdfrwt beam="1">  1       21 0.91501346E-02 0.12500000E+03</pdfrwt>
<pdfrwt beam="2">  1       21 0.10104291E-01 0.12500000E+03</pdfrwt>
<totfact> 0.74022815E+06</totfact>
</mgrwt>
</event>
<event>
 3    1  0.1604658E-001  0.1250000E+03  0.7546771E-02  0.1235069E+00
         21   -1    0    0  502  501  0.00000000000E+00  0.00000000000E+00  0.11479098872E+03  0.11479098872E+03  0.00000000000E+00 0.  1.
         21   -1    0    0  501  502 -0.00000000000E+00 -0.00000000000E+00 -0.34029239085E+02  0.34029239085E+02  0.00000000000E+00 0.  1.
         25    1    1    2    0    0  0.00000000000E+00  0.00000000000E+00  0.80761749635E+02  0.14882022781E+03  0.12500000000E+03 0.  0.
<mgrwt>
<rscale>  0 0.12500000E+03</rscale>
<asrwt>0</asrwt>
<pdfrwt beam="1">  1       21 0.17660152E-01 0.12500000E+03</pdfrwt>
<pdfrwt beam="2">  1       21 0.52352676E-02 0.12500000E+03</pdfrwt>
<totfact> 0.70907718E+06</totfact>
</mgrwt>
</event>
<event>
 3    1  0.1604658E-001  0.1250000E+03  0.7546771E-02  0.1235069E+00
         21   -1    0    0  502  501  0.00000000000E+00  0.00000000000E+00  0.18938216333E+02  0.18938216333E+02  0.00000000000E+00 0. -1.
         21   -1    0    0  501  502 -0.00000000000E+00 -0.00000000000E+00 -0.20626282493E+03  0.20626282493E+03  0.00000000000E+00 0. -1.
         25    1    1    2    0    0  0.00000000000E+00  0.00000000000E+00 -0.18732460860E+03  0.22520104126E+03  0.12500000000E+03 0.  0.
<mgrwt>
<rscale>  0 0.12500000E+03</rscale>
<asrwt>0</asrwt>
<pdfrwt beam="1">  1       21 0.29135718E-02 0.12500000E+03</pdfrwt>
<pdfrwt beam="2">  1       21 0.31732742E-01 0.12500000E+03</pdfrwt>
<totfact> 0.62294825E+06</totfact>
</mgrwt>
</event>
<event>
 3    1  0.1604658E-001  0.1250000E+03  0.7546771E-02  0.1235069E+00
         21   -1    0    0  502  501  0.00000000000E+00  0.00000000000E+00  0.40329832512E+03  0.40329832512E+03  0.00000000000E+00 0.  1.
         21   -1    0    0  501  502 -0.00000000000E+00 -0.00000000000E+00 -0.96857580522E+01  0.96857580522E+01  0.00000000000E+00 0.  1.
         25    1    1    2    0    0  0.00000000000E+00  0.00000000000E+00  0.39361256707E+03  0.41298408318E+03  0.12500000000E+03 0.  0.
<mgrwt>
<rscale>  0 0.12500000E+03</rscale>
<asrwt>0</asrwt>
<pdfrwt beam="1">  1       21 0.62045883E-01 0.12500000E+03</pdfrwt>
<pdfrwt beam="2">  1       21 0.14901169E-02 0.12500000E+03</pdfrwt>
<totfact> 0.47191894E+06</totfact>
</mgrwt>
</event>
<event>
 3    1  0.1604658E-001  0.1250000E+03  0.7546771E-02  0.1235069E+00
         21   -1    0    0  502  501  0.00000000000E+00  0.00000000000E+00  0.36888434383E+02  0.36888434383E+02  0.00000000000E+00 0. -1.
         21   -1    0    0  501  502 -0.00000000000E+00 -0.00000000000E+00 -0.10589362399E+03  0.10589362399E+03  0.00000000000E+00 0. -1.
         25    1    1    2    0    0  0.00000000000E+00  0.00000000000E+00 -0.69005189602E+02  0.14278205837E+03  0.12500000000E+03 0.  0.
<mgrwt>
<rscale>  0 0.12500000E+03</rscale>
<asrwt>0</asrwt>
<pdfrwt beam="1">  1       21 0.56751439E-02 0.12500000E+03</pdfrwt>
<pdfrwt beam="2">  1       21 0.16291326E-01 0.12500000E+03</pdfrwt>
<totfact> 0.71678165E+06</totfact>
</mgrwt>
</event>
<event>
 3    1  0.1604658E-001  0.1250000E+03  0.7546771E-02  0.1235069E+00
         21   -1    0    0  502  501  0.00000000000E+00  0.00000000000E+00  0.16060360327E+03  0.16060360327E+03  0.00000000000E+00 0. -1.
         21   -1    0    0  501  502 -0.00000000000E+00 -0.00000000000E+00 -0.24322306103E+02  0.24322306103E+02  0.00000000000E+00 0. -1.
         25    1    1    2    0    0  0.00000000000E+00  0.00000000000E+00  0.13628129717E+03  0.18492590938E+03  0.12500000000E+03 0.  0.
<mgrwt>
<rscale>  0 0.12500000E+03</rscale>
<asrwt>0</asrwt>
<pdfrwt beam="1">  1       21 0.24708246E-01 0.12500000E+03</pdfrwt>
<pdfrwt beam="2">  1       21 0.37418933E-02 0.12500000E+03</pdfrwt>
<totfact> 0.66590896E+06</totfact>
</mgrwt>
</event>
<event>
 3    1  0.1604658E-001  0.1250000E+03  0.7546771E-02  0.1235069E+00
         21   -1    0    0  502  501  0.00000000000E+00  0.00000000000E+00  0.96111299934E+02  0.96111299934E+02  0.00000000000E+00 0.  1.
         21   -1    0    0  501  502 -0.00000000000E+00 -0.00000000000E+00 -0.40642983735E+02  0.40642983735E+02  0.00000000000E+00 0.  1.
         25    1    1    2    0    0  0.00000000000E+00  0.00000000000E+00  0.55468316199E+02  0.13675428367E+03  0.12500000000E+03 0.  0.
<mgrwt>
<rscale>  0 0.12500000E+03</rscale>
<asrwt>0</asrwt>
<pdfrwt beam="1">  1       21 0.14786354E-01 0.12500000E+03</pdfrwt>
<pdfrwt beam="2">  1       21 0.62527668E-02 0.12500000E+03</pdfrwt>
<totfact> 0.72465017E+06</totfact>
</mgrwt>
</event>
<event>
 3    1  0.1604658E-001  0.1250000E+03  0.7546771E-02  0.1235069E+00
         21   -1    0    0  502  501  0.00000000000E+00  0.00000000000E+00  0.14704024532E+03  0.14704024532E+03  0.00000000000E+00 0. -1.
         21   -1    0    0  501  502 -0.00000000000E+00 -0.00000000000E+00 -0.26565856113E+02  0.26565856113E+02  0.00000000000E+00 0. -1.
         25    1    1    2    0    0  0.00000000000E+00  0.00000000000E+00  0.12047438921E+03  0.17360610143E+03  0.12500000000E+03 0.  0.
<mgrwt>
<rscale>  0 0.12500000E+03</rscale>
<asrwt>0</asrwt>
<pdfrwt beam="1">  1       21 0.22621576E-01 0.12500000E+03</pdfrwt>
<pdfrwt beam="2">  1       21 0.40870549E-02 0.12500000E+03</pdfrwt>
<totfact> 0.67892703E+06</totfact>
</mgrwt>
</event>
<event>
 3    1  0.1604658E-001  0.1250000E+03  0.7546771E-02  0.1235069E+00
         21   -1    0    0  502  501  0.00000000000E+00  0.00000000000E+00  0.16760589376E+03  0.16760589376E+03  0.00000000000E+00 0. -1.
         21   -1    0    0  501  502 -0.00000000000E+00 -0.00000000000E+00 -0.23306161331E+02  0.23306161331E+02  0.00000000000E+00 0. -1.
         25    1    1    2    0    0  0.00000000000E+00  0.00000000000E+00  0.14429973243E+03  0.19091205509E+03  0.12500000000E+03 0.  0.
<mgrwt>
<rscale>  0 0.12500000E+03</rscale>
<asrwt>0</asrwt>
<pdfrwt beam="1">  1       21 0.25785521E-01 0.12500000E+03</pdfrwt>
<pdfrwt beam="2">  1       21 0.35855634E-02 0.12500000E+03</pdfrwt>
<totfact> 0.65921241E+06</totfact>
</mgrwt>
</event>
<event>
 3    1  0.1604658E-001  0.1250000E+03  0.7546771E-02  0.1235069E+00
         21   -1    0    0  502  501  0.00000000000E+00  0.00000000000E+00  0.26571076400E+03  0.26571076400E+03  0.00000000000E+00 0.  1.
         21   -1    0    0  501  502 -0.00000000000E+00 -0.00000000000E+00 -0.14701135705E+02  0.14701135705E+02  0.00000000000E+00 0.  1.
         25    1    1    2    0    0  0.00000000000E+00  0.00000000000E+00  0.25100962830E+03  0.28041189971E+03  0.12500000000E+03 0.  0.
<mgrwt>
<rscale>  0 0.12500000E+03</rscale>
<asrwt>0</asrwt>
<pdfrwt beam="1">  1       21 0.40878575E-01 0.12500000E+03</pdfrwt>
<pdfrwt beam="2">  1       21 0.22617134E-02 0.12500000E+03</pdfrwt>
<totfact> 0.57124349E+06</totfact>
</mgrwt>
</event>
<event>
 3    1  0.1604658E-001  0.1250000E+03  0.7546771E-02  0.1235069E+00
         21   -1    0    0  502  501  0.00000000000E+00  0.00000000000E+00  0.12528892046E+03  0.12528892046E+03  0.00000000000E+00 0. -1.
         21   -1    0    0  501  502 -0.00000000000E+00 -0.00000000000E+00 -0.31177936451E+02  0.31177936451E+02  0.00000000000E+00 0. -1.
         25    1    1    2    0    0  0.00000000000E+00  0.00000000000E+00  0.94110984006E+02  0.15646685691E+03  0.12500000000E+03 0.  0.
<mgrwt>
<rscale>  0 0.12500000E+03</rscale>
<asrwt>0</asrwt>
<pdfrwt beam="1">  1       21 0.19275218E-01 0.12500000E+03</pdfrwt>
<pdfrwt beam="2">  1       21 0.47966057E-02 0.12500000E+03</pdfrwt>
<totfact> 0.69953805E+06</totfact>
</mgrwt>
</event>
<event>
 3    1  0.1604658E-001  0.1250000E+03  0.7546771E-02  0.1235069E+00
         21   -1    0    0  502  501  0.00000000000E+00  0.00000000000E+00  0.32453592738E+02  0.32453592738E+02  0.00000000000E+00 0. -1.
         21   -1    0    0  501  502 -0.00000000000E+00 -0.00000000000E+00 -0.12036417760E+03  0.12036417760E+03  0.00000000000E+00 0. -1.
         25    1    1    2    0    0  0.00000000000E+00  0.00000000000E+00 -0.87910584862E+02  0.15281777034E+03  0.12500000000E+03 0.  0.
<mgrwt>
<rscale>  0 0.12500000E+03</rscale>
<asrwt>0</asrwt>
<pdfrwt beam="1">  1       21 0.49928604E-02 0.12500000E+03</pdfrwt>
<pdfrwt beam="2">  1       21 0.18517566E-01 0.12500000E+03</pdfrwt>
<totfact> 0.70407006E+06</totfact>
</mgrwt>
</event>
<event>
 3    1  0.1604658E-001  0.1250000E+03  0.7546771E-02  0.1235069E+00
         21   -1    0    0  502  501  0.00000000000E+00  0.00000000000E+00  0.16060669070E+02  0.16060669070E+02  0.00000000000E+00 0.  1.
         21   -1    0    0  501  502 -0.00000000000E+00 -0.00000000000E+00 -0.24321838542E+03  0.24321838542E+03  0.00000000000E+00 0.  1.
         25    1    1    2    0    0  0.00000000000E+00  0.00000000000E+00 -0.22715771635E+03  0.25927905449E+03  0.12500000000E+03 0.  0.
<mgrwt>
<rscale>  0 0.12500000E+03</rscale>
<asrwt>0</asrwt>
<pdfrwt beam="1">  1       21 0.24708723E-02 0.12500000E+03</pdfrwt>
<pdfrwt beam="2">  1       21 0.37418212E-01 0.12500000E+03</pdfrwt>
<totfact> 0.59015414E+06</totfact>
</mgrwt>
</event>
<event>
 3    1  0.1604658E-001  0.1250000E+03  0.7546771E-02  0.1235069E+00
         21   -1    0    0  502  501  0.00000000000E+00  0.00000000000E+00  0.17959714058E+03  0.17959714058E+03  0.00000000000E+00 0. -1.
         21   -1    0    0  501  502 -0.00000000000E+00 -0.00000000000E+00 -0.21750067888E+02  0.21750067888E+02  0.00000000000E+00 0. -1.
         25    1    1    2    0    0  0.00000000000E+00  0.00000000000E+00  0.15784707269E+03  0.20134720846E+03  0.12500000000E+03 0.  0.
<mgrwt>
<rscale>  0 0.12500000E+03</rscale>
<asrwt>0</asrwt>
<pdfrwt beam="1">  1       21 0.27630328E-01 0.12500000E+03</pdfrwt>
<pdfrwt beam="2">  1       21 0.33461644E-02 0.12500000E+03</pdfrwt>
<totfact> 0.64781566E+06</totfact>
</mgrwt>
</event>
<event>
 3    1  0.1604658E-001  0.1250000E+03  0.7546771E-02  0.1235069E+00
         21   -1    0    0  502  501  0.00000000000E+00  0.00000000000E+00  0.22237950327E+02  0.22237950327E+02  0.00000000000E+00 0.  1.
         21   -1    0    0  501  502 -0.00000000000E+00 -0.00000000000E+00 -0.17565692622E+03  0.17565692622E+03  0.00000000000E+00 0.  1.
         25    1    1    2    0    0  0.00000000000E+00  0.00000000000E+00 -0.15341897590E+03  0.19789487655E+03  0.12500000000E+03 0.  0.
<mgrwt>
<rscale>  0 0.12500000E+03</rscale>
<asrwt>0</asrwt>
<pdfrwt beam="1">  1       21 0.34212232E-02 0.12500000E+03</pdfrwt>
<pdfrwt beam="2">  1       21 0.27024142E-01 0.12500000E+03</pdfrwt>
<totfact> 0.65155572E+06</totfact>
</mgrwt>
</event>
<event>
 3    1  0.1604658E-001  0.1250000E+03  0.7546771E-02  0.1235069E+00
         21   -1    0    0  502  501  0.00000000000E+00  0.00000000000E+00  0.42953501067E+01  0.42953501067E+01  0.00000000000E+00 0. -1.
         21   -1    0    0  501  502 -0.00000000000E+00 -0.00000000000E+00 -0.90941364568E+03  0.90941364568E+03  0.00000000000E+00 0. -1.
         25    1    1    2    0    0  0.00000000000E+00  0.00000000000E+00 -0.90511829557E+03  0.91370899578E+03  0.12500000000E+03 0.  0.
<mgrwt>
<rscale>  0 0.12500000E+03</rscale>
<asrwt>0</asrwt>
<pdfrwt beam="1">  1       21 0.66082276E-03 0.12500000E+03</pdfrwt>
<pdfrwt beam="2">  1       21 0.13990986E+00 0.12500000E+03</pdfrwt>
<totfact> 0.25908749E+06</totfact>
</mgrwt>
</event>
<event>
 3    1  0.1604658E-001  0.1250000E+03  0.7546771E-02  0.1235069E+00
         21   -1    0    0  502  501  0.00000000000E+00  0.00000000000E+00  0.82057792320E+01  0.82057792320E+01  0.00000000000E+00 0. -1.
         21   -1    0    0  501  502 -0.00000000000E+00 -0.00000000000E+00 -0.47603644816E+03  0.47603644816E+03  0.00000000000E+00 0. -1.
         25    1    1    2    0    0  0.00000000000E+00  0.00000000000E+00 -0.46783066893E+03  0.48424222739E+03  0.12500000000E+03 0.  0.
<mgrwt>
<rscale>  0 0.12500000E+03</rscale>
<asrwt>0</asrwt>
<pdfrwt beam="1">  1       21 0.12624275E-02 0.12500000E+03</pdfrwt>
<pdfrwt beam="2">  1       21 0.73236383E-01 0.12500000E+03</pdfrwt>
<totfact> 0.42911746E+06</totfact>
</mgrwt>
</event>
<event>
 3    1  0.1604658E-001  0.1250000E+03  0.7546771E-02  0.1235069E+00
         21   -1    0    0  502  501  0.00000000000E+00  0.00000000000E+00  0.11410349835E+03  0.11410349835E+03  0.00000000000E+00 0. -1.
         21   -1    0    0  501  502 -0.00000000000E+00 -0.00000000000E+00 -0.34234270257E+02  0.34234270257E+02  0.00000000000E+00 0. -1.
         25    1    1    2    0    0  0.00000000000E+00  0.00000000000E+00  0.79869228097E+02  0.14833776861E+03  0.12500000000E+03 0.  0.
<mgrwt>
<rscale>  0 0.12500000E+03</rscale>
<asrwt>0</asrwt>
<pdfrwt beam="1">  1       21 0.17554384E-01 0.12500000E+03</pdfrwt>
<pdfrwt beam="2">  1       21 0.52668109E-02 0.12500000E+03</pdfrwt>
<totfact> 0.70968637E+06</totfact>
</mgrwt>
</event>
<event>
 3    1  0.1604658E-001  0.1250000E+03  0.7546771E-02  0.1235069E+00
         21   -1    0    0  502  501  0.00000000000E+00  0.00000000000E+00  0.17691504032E+03  0.17691504032E+03  0.00000000000E+00 0. -1.
         21   -1    0    0  501  502 -0.00000000000E+00 -0.00000000000E+00 -0.22079807308E+02  0.22079807308E+02  0.00000000000E+00 0. -1.
         25    1    1    2    0    0  0.00000000000E+00  0.00000000000E+00  0.15483523301E+03  0.19899484762E+03  0.12500000000E+03 0.  0.
<mgrwt>
<rscale>  0 0.12500000E+03</rscale>
<asrwt>0</asrwt>
<pdfrwt beam="1">  1       21 0.27217698E-01 0.12500000E+03</pdfrwt>
<pdfrwt beam="2">  1       21 0.33968936E-02 0.12500000E+03</pdfrwt>
<totfact> 0.65036330E+06</totfact>
</mgrwt>
</event>
<event>
 3    1  0.1604658E-001  0.1250000E+03  0.7546771E-02  0.1235069E+00
         21   -1    0    0  502  501  0.00000000000E+00  0.00000000000E+00  0.19627305460E+02  0.19627305460E+02  0.00000000000E+00 0.  1.
         21   -1    0    0  501  502 -0.00000000000E+00 -0.00000000000E+00 -0.19902120584E+03  0.19902120584E+03  0.00000000000E+00 0.  1.
         25    1    1    2    0    0  0.00000000000E+00  0.00000000000E+00 -0.17939390038E+03  0.21864851130E+03  0.12500000000E+03 0.  0.
<mgrwt>
<rscale>  0 0.12500000E+03</rscale>
<asrwt>0</asrwt>
<pdfrwt beam="1">  1       21 0.30195855E-02 0.12500000E+03</pdfrwt>
<pdfrwt beam="2">  1       21 0.30618647E-01 0.12500000E+03</pdfrwt>
<totfact> 0.62960943E+06</totfact>
</mgrwt>
</event>
<event>
 3    1  0.1604658E-001  0.1250000E+03  0.7546771E-02  0.1235069E+00
         21   -1    0    0  502  501  0.00000000000E+00  0.00000000000E+00  0.29861566631E+03  0.29861566631E+03  0.00000000000E+00 0. -1.
         21   -1    0    0  501  502 -0.00000000000E+00 -0.00000000000E+00 -0.13081195800E+02  0.13081195800E+02  0.00000000000E+00 0. -1.
         25    1    1    2    0    0  0.00000000000E+00  0.00000000000E+00  0.28553447051E+03  0.31169686211E+03  0.12500000000E+03 0.  0.
<mgrwt>
<rscale>  0 0.12500000E+03</rscale>
<asrwt>0</asrwt>
<pdfrwt beam="1">  1       21 0.45940867E-01 0.12500000E+03</pdfrwt>
<pdfrwt beam="2">  1       21 0.20124919E-02 0.12500000E+03</pdfrwt>
<totfact> 0.54497915E+06</totfact>
</mgrwt>
</event>
<event>
 3    1  0.1604658E-001  0.1250000E+03  0.7546771E-02  0.1235069E+00
         21   -1    0    0  502  501  0.00000000000E+00  0.00000000000E+00  0.33813942979E+03  0.33813942979E+03  0.00000000000E+00 0.  1.
         21   -1    0    0  501  502 -0.00000000000E+00 -0.00000000000E+00 -0.11552187222E+02  0.11552187222E+02  0.00000000000E+00 0.  1.
         25    1    1    2    0    0  0.00000000000E+00  0.00000000000E+00  0.32658724256E+03  0.34969161701E+03  0.12500000000E+03 0.  0.
<mgrwt>
<rscale>  0 0.12500000E+03</rscale>
<asrwt>0</asrwt>
<pdfrwt beam="1">  1       21 0.52021443E-01 0.12500000E+03</pdfrwt>
<pdfrwt beam="2">  1       21 0.17772598E-02 0.12500000E+03</pdfrwt>
<totfact> 0.51561218E+06</totfact>
</mgrwt>
</event>
<event>
 3    1  0.1604658E-001  0.1250000E+03  0.7546771E-02  0.1235069E+00
         21   -1    0    0  502  501  0.00000000000E+00  0.00000000000E+00  0.22452882670E+03  0.22452882670E+03  0.00000000000E+00 0.  1.
         21   -1    0    0  501  502 -0.00000000000E+00 -0.00000000000E+00 -0.17397543368E+02  0.17397543368E+02  0.00000000000E+00 0.  1.
         25    1    1    2    0    0  0.00000000000E+00  0.00000000000E+00  0.20713128333E+03  0.24192637007E+03  0.12500000000E+03 0.  0.
<mgrwt>
<rscale>  0 0.12500000E+03</rscale>
<asrwt>0</asrwt>
<pdfrwt beam="1">  1       21 0.34542894E-01 0.12500000E+03</pdfrwt>
<pdfrwt beam="2">  1       21 0.26765453E-02 0.12500000E+03</pdfrwt>
<totfact> 0.60646750E+06</totfact>
</mgrwt>
</event>
<event>
 3    1  0.1604658E-001  0.1250000E+03  0.7546771E-02  0.1235069E+00
         21   -1    0    0  502  501  0.00000000000E+00  0.00000000000E+00  0.12401710047E+04  0.12401710047E+04  0.00000000000E+00 0.  1.
         21   -1    0    0  501  502 -0.00000000000E+00 -0.00000000000E+00 -0.31497672380E+01  0.31497672380E+01  0.00000000000E+00 0.  1.
         25    1    1    2    0    0  0.00000000000E+00  0.00000000000E+00  0.12370212374E+04  0.12433207719E+04  0.12500000000E+03 0.  0.
<mgrwt>
<rscale>  0 0.12500000E+03</rscale>
<asrwt>0</asrwt>
<pdfrwt beam="1">  1       21 0.19079515E+00 0.12500000E+03</pdfrwt>
<pdfrwt beam="2">  1       21 0.48458056E-03 0.12500000E+03</pdfrwt>
<totfact> 0.18300955E+06</totfact>
</mgrwt>
</event>
<event>
 3    1  0.1604658E-001  0.1250000E+03  0.7546771E-02  0.1235069E+00
         21   -1    0    0  502  501  0.00000000000E+00  0.00000000000E+00  0.23694718721E+02  0.23694718721E+02  0.00000000000E+00 0.  1.
         21   -1    0    0  501  502 -0.00000000000E+00 -0.00000000000E+00 -0.16485741173E+03  0.16485741173E+03  0.00000000000E+00 0.  1.
         25    1    1    2    0    0  0.00000000000E+00  0.00000000000E+00 -0.14116269301E+03  0.18855213045E+03  0.12500000000E+03 0.  0.
<mgrwt>
<rscale>  0 0.12500000E+03</rscale>
<asrwt>0</asrwt>
<pdfrwt beam="1">  1       21 0.36453414E-02 0.12500000E+03</pdfrwt>
<pdfrwt beam="2">  1       21 0.25362678E-01 0.12500000E+03</pdfrwt>
<totfact> 0.66183744E+06</totfact>
</mgrwt>
</event>
<event>
 3    1  0.1604658E-001  0.1250000E+03  0.7546771E-02  0.1235069E+00
         21   -1    0    0  502  501  0.00000000000E+00  0.00000000000E+00  0.49216661373E+02  0.49216661373E+02  0.00000000000E+00 0. -1.
         21   -1    0    0  501  502 -0.00000000000E+00 -0.00000000000E+00 -0.79368447412E+02  0.79368447412E+02  0.00000000000E+00 0. -1.
         25    1    1    2    0    0  0.00000000000E+00  0.00000000000E+00 -0.30151786039E+02  0.12858510879E+03  0.12500000000E+03 0.  0.
<mgrwt>
<rscale>  0 0.12500000E+03</rscale>
<asrwt>0</asrwt>
<pdfrwt beam="1">  1       21 0.75717941E-02 0.12500000E+03</pdfrwt>
<pdfrwt beam="2">  1       21 0.12210530E-01 0.12500000E+03</pdfrwt>
<totfact> 0.73554663E+06</totfact>
</mgrwt>
</event>
<event>
 3    1  0.1604658E-001  0.1250000E+03  0.7546771E-02  0.1235069E+00
         21   -1    0    0  502  501  0.00000000000E+00  0.00000000000E+00  0.90649170869E+02  0.90649170869E+02  0.00000000000E+00 0.  1.
         21   -1    0    0  501  502 -0.00000000000E+00 -0.00000000000E+00 -0.43091955090E+02  0.43091955090E+02  0.00000000000E+00 0.  1.
         25    1    1    2    0    0  0.00000000000E+00  0.00000000000E+00  0.47557215779E+02  0.13374112596E+03  0.12500000000E+03 0.  0.
<mgrwt>
<rscale>  0 0.12500000E+03</rscale>
<asrwt>0</asrwt>
<pdfrwt beam="1">  1       21 0.13946026E-01 0.12500000E+03</pdfrwt>
<pdfrwt beam="2">  1       21 0.66295316E-02 0.12500000E+03</pdfrwt>
<totfact> 0.72863592E+06</totfact>
</mgrwt>
</event>
<event>
 3    1  0.1604658E-001  0.1250000E+03  0.7546771E-02  0.1235069E+00
         21   -1    0    0  502  501  0.00000000000E+00  0.00000000000E+00  0.49770859049E+02  0.49770859049E+02  0.00000000000E+00 0.  1.
         21   -1    0    0  501  502 -0.00000000000E+00 -0.00000000000E+00 -0.78484681090E+02  0.78484681090E+02  0.00000000000E+00 0.  1.
         25    1    1    2    0    0  0.00000000000E+00  0.00000000000E+00 -0.28713822041E+02  0.12825554014E+03  0.12500000000E+03 0.  0.
<mgrwt>
<rscale>  0 0.12500000E+03</rscale>
<asrwt>0</asrwt>
<pdfrwt beam="1">  1       21 0.76570553E-02 0.12500000E+03</pdfrwt>
<pdfrwt beam="2">  1       21 0.12074566E-01 0.12500000E+03</pdfrwt>
<totfact> 0.73599067E+06</totfact>
</mgrwt>
</event>
<event>
 3    1  0.1604658E-001  0.1250000E+03  0.7546771E-02  0.1235069E+00
         21   -1    0    0  502  501  0.00000000000E+00  0.00000000000E+00  0.15884852389E+03  0.15884852389E+03  0.00000000000E+00 0.  1.
         21   -1    0    0  501  502 -0.00000000000E+00 -0.00000000000E+00 -0.24591037451E+02  0.24591037451E+02  0.00000000000E+00 0.  1.
         25    1    1    2    0    0  0.00000000000E+00  0.00000000000E+00  0.13425748644E+03  0.18343956134E+03  0.12500000000E+03 0.  0.
<mgrwt>
<rscale>  0 0.12500000E+03</rscale>
<asrwt>0</asrwt>
<pdfrwt beam="1">  1       21 0.24438234E-01 0.12500000E+03</pdfrwt>
<pdfrwt beam="2">  1       21 0.37832366E-02 0.12500000E+03</pdfrwt>
<totfact> 0.66759135E+06</totfact>
</mgrwt>
</event>
<event>
 3    1  0.1604658E-001  0.1250000E+03  0.7546771E-02  0.1235069E+00
         21   -1    0    0  502  501  0.00000000000E+00  0.00000000000E+00  0.10831722969E+03  0.10831722969E+03  0.00000000000E+00 0.  1.
         21   -1    0    0  501  502 -0.00000000000E+00 -0.00000000000E+00 -0.36063053044E+02  0.36063053044E+02  0.00000000000E+00 0.  1.
         25    1    1    2    0    0  0.00000000000E+00  0.00000000000E+00  0.72254176649E+02  0.14438028274E+03  0.12500000000E+03 0.  0.
<mgrwt>
<rscale>  0 0.12500000E+03</rscale>
<asrwt>0</asrwt>
<pdfrwt beam="1">  1       21 0.16664189E-01 0.12500000E+03</pdfrwt>
<pdfrwt beam="2">  1       21 0.55481621E-02 0.12500000E+03</pdfrwt>
<totfact> 0.71472502E+06</totfact>
</mgrwt>
</event>
<event>
 3    1  0.1604658E-001  0.1250000E+03  0.7546771E-02  0.1235069E+00
         21   -1    0    0  502  501  0.00000000000E+00  0.00000000000E+00  0.23832166186E+02  0.23832166186E+02  0.00000000000E+00 0.  1.
         21   -1    0    0  501  502 -0.00000000000E+00 -0.00000000000E+00 -0.16390662810E+03  0.16390662810E+03  0.00000000000E+00 0.  1.
         25    1    1    2    0    0  0.00000000000E+00  0.00000000000E+00 -0.14007446192E+03  0.18773879429E+03  0.12500000000E+03 0.  0.
<mgrwt>
<rscale>  0 0.12500000E+03</rscale>
<asrwt>0</asrwt>
<pdfrwt beam="1">  1       21 0.36664872E-02 0.12500000E+03</pdfrwt>
<pdfrwt beam="2">  1       21 0.25216404E-01 0.12500000E+03</pdfrwt>
<totfact> 0.66274662E+06</totfact>
</mgrwt>
</event>
<event>
 3    1  0.1604658E-001  0.1250000E+03  0.7546771E-02  0.1235069E+00
         21   -1    0    0  502  501  0.00000000000E+00  0.00000000000E+00  0.14198964813E+03  0.14198964813E+03  0.00000000000E+00 0.  1.
         21   -1    0    0  501  502 -0.00000000000E+00 -0.00000000000E+00 -0.27510808367E+02  0.27510808367E+02  0.00000000000E+00 0.  1.
         25    1    1    2    0    0  0.00000000000E+00  0.00000000000E+00  0.11447883977E+03  0.16950045650E+03  0.12500000000E+03 0.  0.
<mgrwt>
<rscale>  0 0.12500000E+03</rscale>
<asrwt>0</asrwt>
<pdfrwt beam="1">  1       21 0.21844561E-01 0.12500000E+03</pdfrwt>
<pdfrwt beam="2">  1       21 0.42324321E-02 0.12500000E+03</pdfrwt>
<totfact> 0.68376872E+06</totfact>
</mgrwt>
</event>
<event>
 3    1  0.1604658E-001  0.1250000E+03  0.7546771E-02  0.1235069E+00
         21   -1    0    0  502  501  0.00000000000E+00  0.00000000000E+00  0.44084264430E+02  0.44084264430E+02  0.00000000000E+00 0.  1.
         21   -1    0    0  501  502 -0.00000000000E+00 -0.00000000000E+00 -0.88608714482E+02  0.88608714482E+02  0.00000000000E+00 0.  1.
         25    1    1    2    0    0  0.00000000000E+00  0.00000000000E+00 -0.44524450052E+02  0.13269297891E+03  0.12500000000E+03 0.  0.
<mgrwt>
<rscale>  0 0.12500000E+03</rscale>
<asrwt>0</asrwt>
<pdfrwt beam="1">  1       21 0.67821945E-02 0.12500000E+03</pdfrwt>
<pdfrwt beam="2">  1       21 0.13632110E-01 0.12500000E+03</pdfrwt>
<totfact> 0.73003424E+06</totfact>
</mgrwt>
</event>
<event>
 3    1  0.1604658E-001  0.1250000E+03  0.7546771E-02  0.1235069E+00
         21   -1    0    0  502  501  0.00000000000E+00  0.00000000000E+00  0.90606978937E+02  0.90606978937E+02  0.00000000000E+00 0. -1.
         21   -1    0    0  501  502 -0.00000000000E+00 -0.00000000000E+00 -0.43112021235E+02  0.43112021235E+02  0.00000000000E+00 0. -1.
         25    1    1    2    0    0  0.00000000000E+00  0.00000000000E+00  0.47494957702E+02  0.13371900017E+03  0.12500000000E+03 0.  0.
<mgrwt>
<rscale>  0 0.12500000E+03</rscale>
<asrwt>0</asrwt>
<pdfrwt beam="1">  1       21 0.13939535E-01 0.12500000E+03</pdfrwt>
<pdfrwt beam="2">  1       21 0.66326187E-02 0.12500000E+03</pdfrwt>
<totfact> 0.72866537E+06</totfact>
</mgrwt>
</event>
<event>
 3    1  0.1604658E-001  0.1250000E+03  0.7546771E-02  0.1235069E+00
         21   -1    0    0  502  501  0.00000000000E+00  0.00000000000E+00  0.14672516061E+02  0.14672516061E+02  0.00000000000E+00 0.  1.
         21   -1    0    0  501  502 -0.00000000000E+00 -0.00000000000E+00 -0.26622904918E+03  0.26622904918E+03  0.00000000000E+00 0.  1.
         25    1    1    2    0    0  0.00000000000E+00  0.00000000000E+00 -0.25155653312E+03  0.28090156524E+03  0.12500000000E+03 0.  0.
<mgrwt>
<rscale>  0 0.12500000E+03</rscale>
<asrwt>0</asrwt>
<pdfrwt beam="1">  1       21 0.22573101E-02 0.12500000E+03</pdfrwt>
<pdfrwt beam="2">  1       21 0.40958317E-01 0.12500000E+03</pdfrwt>
<totfact> 0.57081637E+06</totfact>
</mgrwt>
</event>
<event>
 3    1  0.1604658E-001  0.1250000E+03  0.7546771E-02  0.1235069E+00
         21   -1    0    0  502  501  0.00000000000E+00  0.00000000000E+00  0.74384559080E+01  0.74384559080E+01  0.00000000000E+00 0.  1.
         21   -1    0    0  501  502 -0.00000000000E+00 -0.00000000000E+00 -0.52514258985E+03  0.52514258985E+03  0.00000000000E+00 0.  1.
         25    1    1    2    0    0  0.00000000000E+00  0.00000000000E+00 -0.51770413394E+03  0.53258104576E+03  0.12500000000E+03 0.  0.
<mgrwt>
<rscale>  0 0.12500000E+03</rscale>
<asrwt>0</asrwt>
<pdfrwt beam="1">  1       21 0.11443774E-02 0.12500000E+03</pdfrwt>
<pdfrwt beam="2">  1       21 0.80791196E-01 0.12500000E+03</pdfrwt>
<totfact> 0.40330502E+06</totfact>
</mgrwt>
</event>
<event>
 3    1  0.1604658E-001  0.1250000E+03  0.7546771E-02  0.1235069E+00
         21   -1    0    0  502  501  0.00000000000E+00  0.00000000000E+00  0.55713940103E+03  0.55713940103E+03  0.00000000000E+00 0. -1.
         21   -1    0    0  501  502 -0.00000000000E+00 -0.00000000000E+00 -0.70112614415E+01  0.70112614415E+01  0.00000000000E+00 0. -1.
         25    1    1    2    0    0  0.00000000000E+00  0.00000000000E+00  0.55012813959E+03  0.56415066247E+03  0.12500000000E+03 0.  0.
<mgrwt>
<rscale>  0 0.12500000E+03</rscale>
<asrwt>0</asrwt>
<pdfrwt beam="1">  1       21 0.85713720E-01 0.12500000E+03</pdfrwt>
<pdfrwt beam="2">  1       21 0.10786560E-02 0.12500000E+03</pdfrwt>
<totfact> 0.38765751E+06</totfact>
</mgrwt>
</event>
<event>
 3    1  0.1604658E-001  0.1250000E+03  0.7546771E-02  0.1235069E+00
         21   -1    0    0  502  501  0.00000000000E+00  0.00000000000E+00  0.26331021238E+02  0.26331021238E+02  0.00000000000E+00 0. -1.
         21   -1    0    0  501  502 -0.00000000000E+00 -0.00000000000E+00 -0.14835163303E+03  0.14835163303E+03  0.00000000000E+00 0. -1.
         25    1    1    2    0    0  0.00000000000E+00  0.00000000000E+00 -0.12202061179E+03  0.17468265427E+03  0.12500000000E+03 0.  0.
<mgrwt>
<rscale>  0 0.12500000E+03</rscale>
<asrwt>0</asrwt>
<pdfrwt beam="1">  1       21 0.40509262E-02 0.12500000E+03</pdfrwt>
<pdfrwt beam="2">  1       21 0.22823329E-01 0.12500000E+03</pdfrwt>
<totfact> 0.67766823E+06</totfact>
</mgrwt>
</event>
<event>
 3    1  0.1604658E-001  0.1250000E+03  0.7546771E-02  0.1235069E+00
         21   -1    0    0  502  501  0.00000000000E+00  0.00000000000E+00  0.31098501196E+02  0.31098501196E+02  0.00000000000E+00 0.  1.
         21   -1    0    0  501  502 -0.00000000000E+00 -0.00000000000E+00 -0.12560894737E+03  0.12560894737E+03  0.00000000000E+00 0.  1.
         25    1    1    2    0    0  0.00000000000E+00  0.00000000000E+00 -0.94510446171E+02  0.15670744856E+03  0.12500000000E+03 0.  0.
<mgrwt>
<rscale>  0 0.12500000E+03</rscale>
<asrwt>0</asrwt>
<pdfrwt beam="1">  1       21 0.47843848E-02 0.12500000E+03</pdfrwt>
<pdfrwt beam="2">  1       21 0.19324453E-01 0.12500000E+03</pdfrwt>
<totfact> 0.69924064E+06</totfact>
</mgrwt>
</event>
<event>
 3    1  0.1604658E-001  0.1250000E+03  0.7546771E-02  0.1235069E+00
         21   -1    0    0  502  501  0.00000000000E+00  0.00000000000E+00  0.10753536892E+02  0.10753536892E+02  0.00000000000E+00 0.  1.
         21   -1    0    0  501  502 -0.00000000000E+00 -0.00000000000E+00 -0.36325257811E+03  0.36325257811E+03  0.00000000000E+00 0.  1.
         25    1    1    2    0    0  0.00000000000E+00  0.00000000000E+00 -0.35249904122E+03  0.37400611500E+03  0.12500000000E+03 0.  0.
<mgrwt>
<rscale>  0 0.12500000E+03</rscale>
<asrwt>0</asrwt>
<pdfrwt beam="1">  1       21 0.16543900E-02 0.12500000E+03</pdfrwt>
<pdfrwt beam="2">  1       21 0.55885020E-01 0.12500000E+03</pdfrwt>
<totfact> 0.49812920E+06</totfact>
</mgrwt>
</event>
<event>
 3    1  0.1604658E-001  0.1250000E+03  0.7546771E-02  0.1235069E+00
         21   -1    0    0  502  501  0.00000000000E+00  0.00000000000E+00  0.27233129904E+03  0.27233129904E+03  0.00000000000E+00 0. -1.
         21   -1    0    0  501  502 -0.00000000000E+00 -0.00000000000E+00 -0.14343742397E+02  0.14343742397E+02  0.00000000000E+00 0. -1.
         25    1    1    2    0    0  0.00000000000E+00  0.00000000000E+00  0.25798755665E+03  0.28667504144E+03  0.12500000000E+03 0.  0.
<mgrwt>
<rscale>  0 0.12500000E+03</rscale>
<asrwt>0</asrwt>
<pdfrwt beam="1">  1       21 0.41897119E-01 0.12500000E+03</pdfrwt>
<pdfrwt beam="2">  1       21 0.22067298E-02 0.12500000E+03</pdfrwt>
<totfact> 0.56582036E+06</totfact>
</mgrwt>
</event>
<event>
 3    1  0.1604658E-001  0.1250000E+03  0.7546771E-02  0.1235069E+00
         21   -1    0    0  502  501  0.00000000000E+00  0.00000000000E+00  0.24419385313E+03  0.24419385313E+03  0.00000000000E+00 0. -1.
         21   -1    0    0  501  502 -0.00000000000E+00 -0.00000000000E+00 -0.15996512402E+02  0.15996512402E+02  0.00000000000E+00 0. -1.
         25    1    1    2    0    0  0.00000000000E+00  0.00000000000E+00  0.22819734073E+03  0.26019036553E+03  0.12500000000E+03 0.  0.
<mgrwt>
<rscale>  0 0.12500000E+03</rscale>
<asrwt>0</asrwt>
<pdfrwt beam="1">  1       21 0.37568282E-01 0.12500000E+03</pdfrwt>
<pdfrwt beam="2">  1       21 0.24610021E-02 0.12500000E+03</pdfrwt>
<totfact> 0.58931829E+06</totfact>
</mgrwt>
</event>
<event>
 3    1  0.1604658E-001  0.1250000E+03  0.7546771E-02  0.1235069E+00
         21   -1    0    0  502  501  0.00000000000E+00  0.00000000000E+00  0.63793568258E+02  0.63793568258E+02  0.00000000000E+00 0. -1.
         21   -1    0    0  501  502 -0.00000000000E+00 -0.00000000000E+00 -0.61232661954E+02  0.61232661954E+02  0.00000000000E+00 0. -1.
         25    1    1    2    0    0  0.00000000000E+00  0.00000000000E+00  0.25609063040E+01  0.12502623021E+03  0.12500000000E+03 0.  0.
<mgrwt>
<rscale>  0 0.12500000E+03</rscale>
<asrwt>0</asrwt>
<pdfrwt beam="1">  1       21 0.98143951E-02 0.12500000E+03</pdfrwt>
<pdfrwt beam="2">  1       21 0.94204095E-02 0.12500000E+03</pdfrwt>
<totfact> 0.74040039E+06</totfact>
</mgrwt>
</event>
<event>
 3    1  0.1604658E-001  0.1250000E+03  0.7546771E-02  0.1235069E+00
         21   -1    0    0  502  501  0.00000000000E+00  0.00000000000E+00  0.15654597057E+03  0.15654597057E+03  0.00000000000E+00 0.  1.
         21   -1    0    0  501  502 -0.00000000000E+00 -0.00000000000E+00 -0.24952734241E+02  0.24952734241E+02  0.00000000000E+00 0.  1.
         25    1    1    2    0    0  0.00000000000E+00  0.00000000000E+00  0.13159323632E+03  0.18149870481E+03  0.12500000000E+03 0.  0.
<mgrwt>
<rscale>  0 0.12500000E+03</rscale>
<asrwt>0</asrwt>
<pdfrwt beam="1">  1       21 0.24083995E-01 0.12500000E+03</pdfrwt>
<pdfrwt beam="2">  1       21 0.38388823E-02 0.12500000E+03</pdfrwt>
<totfact> 0.66980025E+06</totfact>
</mgrwt>
</event>
<event>
 3    1  0.1604658E-001  0.1250000E+03  0.7546771E-02  0.1235069E+00
         21   -1    0    0  502  501  0.00000000000E+00  0.00000000000E+00  0.49931333803E+02  0.49931333803E+02  0.00000000000E+00 0.  1.
         21   -1    0    0  501  502 -0.00000000000E+00 -0.00000000000E+00 -0.78232438481E+02  0.78232438481E+02  0.00000000000E+00 0.  1.
         25    1    1    2    0    0  0.00000000000E+00  0.00000000000E+00 -0.28301104678E+02  0.12816377228E+03  0.12500000000E+03 0.  0.
<mgrwt>
<rscale>  0 0.12500000E+03</rscale>
<asrwt>0</asrwt>
<pdfrwt beam="1">  1       21 0.76817436E-02 0.12500000E+03</pdfrwt>
<pdfrwt beam="2">  1       21 0.12035760E-01 0.12500000E+03</pdfrwt>
<totfact> 0.73611447E+06</totfact>
</mgrwt>
</event>
<event>
 3    1  0.1604658E-001  0.1250000E+03  0.7546771E-02  0.1235069E+00
         21   -1    0    0  502  501  0.00000000000E+00  0.00000000000E+00  0.12549514884E+02  0.12549514884E+02  0.00000000000E+00 0. -1.
         21   -1    0    0  501  502 -0.00000000000E+00 -0.00000000000E+00 -0.31126701200E+03  0.31126701200E+03  0.00000000000E+00 0. -1.
         25    1    1    2    0    0  0.00000000000E+00  0.00000000000E+00 -0.29871749712E+03  0.32381652689E+03  0.12500000000E+03 0.  0.
<mgrwt>
<rscale>  0 0.12500000E+03</rscale>
<asrwt>0</asrwt>
<pdfrwt beam="1">  1       21 0.19306947E-02 0.12500000E+03</pdfrwt>
<pdfrwt beam="2">  1       21 0.47887231E-01 0.12500000E+03</pdfrwt>
<totfact> 0.53532282E+06</totfact>
</mgrwt>
</event>
<event>
 3    1  0.1604658E-001  0.1250000E+03  0.7546771E-02  0.1235069E+00
         21   -1    0    0  502  501  0.00000000000E+00  0.00000000000E+00  0.74689508463E+02  0.74689508463E+02  0.00000000000E+00 0. -1.
         21   -1    0    0  501  502 -0.00000000000E+00 -0.00000000000E+00 -0.52299848806E+02  0.52299848806E+02  0.00000000000E+00 0. -1.
         25    1    1    2    0    0  0.00000000000E+00  0.00000000000E+00  0.22389659658E+02  0.12698935727E+03  0.12500000000E+03 0.  0.
<mgrwt>
<rscale>  0 0.12500000E+03</rscale>
<asrwt>0</asrwt>
<pdfrwt beam="1">  1       21 0.11490694E-01 0.12500000E+03</pdfrwt>
<pdfrwt beam="2">  1       21 0.80461305E-02 0.12500000E+03</pdfrwt>
<totfact> 0.73770585E+06</totfact>
</mgrwt>
</event>
<event>
 3    1  0.1604658E-001  0.1250000E+03  0.7546771E-02  0.1235069E+00
         21   -1    0    0  502  501  0.00000000000E+00  0.00000000000E+00  0.57127351720E+02  0.57127351720E+02  0.00000000000E+00 0.  1.
         21   -1    0    0  501  502 -0.00000000000E+00 -0.00000000000E+00 -0.68377929002E+02  0.68377929002E+02  0.00000000000E+00 0.  1.
         25    1    1    2    0    0  0.00000000000E+00  0.00000000000E+00 -0.11250577283E+02  0.12550528072E+03  0.12500000000E+03 0.  0.
<mgrwt>
<rscale>  0 0.12500000E+03</rscale>
<asrwt>0</asrwt>
<pdfrwt beam="1">  1       21 0.87888234E-02 0.12500000E+03</pdfrwt>
<pdfrwt beam="2">  1       21 0.10519681E-01 0.12500000E+03</pdfrwt>
<totfact> 0.73974658E+06</totfact>
</mgrwt>
</event>
<event>
 3    1  0.1604658E-001  0.1250000E+03  0.7546771E-02  0.1235069E+00
         21   -1    0    0  502  501  0.00000000000E+00  0.00000000000E+00  0.13093220979E+02  0.13093220979E+02  0.00000000000E+00 0.  1.
         21   -1    0    0  501  502 -0.00000000000E+00 -0.00000000000E+00 -0.29834140936E+03  0.29834140936E+03  0.00000000000E+00 0.  1.
         25    1    1    2    0    0  0.00000000000E+00  0.00000000000E+00 -0.28524818838E+03  0.31143463034E+03  0.12500000000E+03 0.  0.
<mgrwt>
<rscale>  0 0.12500000E+03</rscale>
<asrwt>0</asrwt>
<pdfrwt beam="1">  1       21 0.20143419E-02 0.12500000E+03</pdfrwt>
<pdfrwt beam="2">  1       21 0.45898674E-01 0.12500000E+03</pdfrwt>
<totfact> 0.54519100E+06</totfact>
</mgrwt>
</event>
<event>
 3    1  0.1604658E-001  0.1250000E+03  0.7546771E-02  0.1235069E+00
         21   -1    0    0  502  501  0.00000000000E+00  0.00000000000E+00  0.54688578663E+03  0.54688578663E+03  0.00000000000E+00 0. -1.
         21   -1    0    0  501  502 -0.00000000000E+00 -0.00000000000E+00 -0.71427162590E+01  0.71427162590E+01  0.00000000000E+00 0. -1.
         25    1    1    2    0    0  0.00000000000E+00  0.00000000000E+00  0.53974307037E+03  0.55402850289E+03  0.12500000000E+03 0.  0.
<mgrwt>
<rscale>  0 0.12500000E+03</rscale>
<asrwt>0</asrwt>
<pdfrwt beam="1">  1       21 0.84136242E-01 0.12500000E+03</pdfrwt>
<pdfrwt beam="2">  1       21 0.10988798E-02 0.12500000E+03</pdfrwt>
<totfact> 0.39257757E+06</totfact>
</mgrwt>
</event>
<event>
 3    1  0.1604658E-001  0.1250000E+03  0.7546771E-02  0.1235069E+00
         21   -1    0    0  502  501  0.00000000000E+00  0.00000000000E+00  0.18796800147E+02  0.18796800147E+02  0.00000000000E+00 0.  1.
         21   -1    0    0  501  502 -0.00000000000E+00 -0.00000000000E+00 -0.20781462640E+03  0.20781462640E+03  0.00000000000E+00 0.  1.
         25    1    1    2    0    0  0.00000000000E+00  0.00000000000E+00 -0.18901782625E+03  0.22661142655E+03  0.12500000000E+03 0.  0.
<mgrwt>
<rscale>  0 0.12500000E+03</rscale>
<asrwt>0</asrwt>
<pdfrwt beam="1">  1       21 0.28918156E-02 0.12500000E+03</pdfrwt>
<pdfrwt beam="2">  1       21 0.31971479E-01 0.12500000E+03</pdfrwt>
<totfact> 0.62152827E+06</totfact>
</mgrwt>
</event>
<event>
 3    1  0.1604658E-001  0.1250000E+03  0.7546771E-02  0.1235069E+00
         21   -1    0    0  502  501  0.00000000000E+00  0.00000000000E+00  0.97316650134E+01  0.97316650134E+01  0.00000000000E+00 0.  1.
         21   -1    0    0  501  502 -0.00000000000E+00 -0.00000000000E+00 -0.40139585514E+03  0.40139585514E+03  0.00000000000E+00 0.  1.
         25    1    1    2    0    0  0.00000000000E+00  0.00000000000E+00 -0.39166419013E+03  0.41112752015E+03  0.12500000000E+03 0.  0.
<mgrwt>
<rscale>  0 0.12500000E+03</rscale>
<asrwt>0</asrwt>
<pdfrwt beam="1">  1       21 0.14971789E-02 0.12500000E+03</pdfrwt>
<pdfrwt beam="2">  1       21 0.61753220E-01 0.12500000E+03</pdfrwt>
<totfact> 0.47311923E+06</totfact>
</mgrwt>
</event>
<event>
 3    1  0.1604658E-001  0.1250000E+03  0.7546771E-02  0.1235069E+00
         21   -1    0    0  502  501  0.00000000000E+00  0.00000000000E+00  0.15345408953E+02  0.15345408953E+02  0.00000000000E+00 0. -1.
         21   -1    0    0  501  502 -0.00000000000E+00 -0.00000000000E+00 -0.25455496246E+03  0.25455496246E+03  0.00000000000E+00 0. -1.
         25    1    1    2    0    0  0.00000000000E+00  0.00000000000E+00 -0.23920955351E+03  0.26990037141E+03  0.12500000000E+03 0.  0.
<mgrwt>
<rscale>  0 0.12500000E+03</rscale>
<asrwt>0</asrwt>
<pdfrwt beam="1">  1       21 0.23608322E-02 0.12500000E+03</pdfrwt>
<pdfrwt beam="2">  1       21 0.39162301E-01 0.12500000E+03</pdfrwt>
<totfact> 0.58053561E+06</totfact>
</mgrwt>
</event>
<event>
 3    1  0.1604658E-001  0.1250000E+03  0.7546771E-02  0.1235069E+00
         21   -1    0    0  502  501  0.00000000000E+00  0.00000000000E+00  0.53007710079E+01  0.53007710079E+01  0.00000000000E+00 0.  1.
         21   -1    0    0  501  502 -0.00000000000E+00 -0.00000000000E+00 -0.73692109962E+03  0.73692109962E+03  0.00000000000E+00 0.  1.
         25    1    1    2    0    0  0.00000000000E+00  0.00000000000E+00 -0.73162032861E+03  0.74222187063E+03  0.12500000000E+03 0.  0.
<mgrwt>
<rscale>  0 0.12500000E+03</rscale>
<asrwt>0</asrwt>
<pdfrwt beam="1">  1       21 0.81550398E-03 0.12500000E+03</pdfrwt>
<pdfrwt beam="2">  1       21 0.11337237E+00 0.12500000E+03</pdfrwt>
<totfact> 0.31344360E+06</totfact>
</mgrwt>
</event>
<event>
 3    1  0.1604658E-001  0.1250000E+03  0.7546771E-02  0.1235069E+00
         21   -1    0    0  502  501  0.00000000000E+00  0.00000000000E+00  0.11830458040E+02  0.11830458040E+02  0.00000000000E+00 0. -1.
         21   -1    0    0  501  502 -0.00000000000E+00 -0.00000000000E+00 -0.33018586320E+03  0.33018586320E+03  0.00000000000E+00 0. -1.
         25    1    1    2    0    0  0.00000000000E+00  0.00000000000E+00 -0.31835540516E+03  0.34201632124E+03  0.12500000000E+03 0.  0.
<mgrwt>
<rscale>  0 0.12500000E+03</rscale>
<asrwt>0</asrwt>
<pdfrwt beam="1">  1       21 0.18200703E-02 0.12500000E+03</pdfrwt>
<pdfrwt beam="2">  1       21 0.50797829E-01 0.12500000E+03</pdfrwt>
<totfact> 0.52133506E+06</totfact>
</mgrwt>
</event>
<event>
 3    1  0.1604658E-001  0.1250000E+03  0.7546771E-02  0.1235069E+00
         21   -1    0    0  502  501  0.00000000000E+00  0.00000000000E+00  0.17934377314E+03  0.17934377314E+03  0.00000000000E+00 0. -1.
         21   -1    0    0  501  502 -0.00000000000E+00 -0.00000000000E+00 -0.21780795238E+02  0.21780795238E+02  0.00000000000E+00 0. -1.
         25    1    1    2    0    0  0.00000000000E+00  0.00000000000E+00  0.15756297790E+03  0.20112456838E+03  0.12500000000E+03 0.  0.
<mgrwt>
<rscale>  0 0.12500000E+03</rscale>
<asrwt>0</asrwt>
<pdfrwt beam="1">  1       21 0.27591349E-01 0.12500000E+03</pdfrwt>
<pdfrwt beam="2">  1       21 0.33508917E-02 0.12500000E+03</pdfrwt>
<totfact> 0.64805602E+06</totfact>
</mgrwt>
</event>
<event>
 3    1  0.1604658E-001  0.1250000E+03  0.7546771E-02  0.1235069E+00
         21   -1    0    0  502  501  0.00000000000E+00  0.00000000000E+00  0.49034542771E+01  0.49034542771E+01  0.00000000000E+00 0. -1.
         21   -1    0    0  501  502 -0.00000000000E+00 -0.00000000000E+00 -0.79663228803E+03  0.79663228803E+03  0.00000000000E+00 0. -1.
         25    1    1    2    0    0  0.00000000000E+00  0.00000000000E+00 -0.79172883376E+03  0.80153574231E+03  0.12500000000E+03 0.  0.
<mgrwt>
<rscale>  0 0.12500000E+03</rscale>
<asrwt>0</asrwt>
<pdfrwt beam="1">  1       21 0.75437780E-03 0.12500000E+03</pdfrwt>
<pdfrwt beam="2">  1       21 0.12255878E+00 0.12500000E+03</pdfrwt>
<totfact> 0.29312002E+06</totfact>
</mgrwt>
</event>
<event>
 3    1  0.1604658E-001  0.1250000E+03  0.7546771E-02  0.1235069E+00
         21   -1    0    0  502  501  0.00000000000E+00  0.00000000000E+00  0.44084504221E+03  0.44084504221E+03  0.00000000000E+00 0. -1.
         21   -1    0    0  501  502 -0.00000000000E+00 -0.00000000000E+00 -0.88608232507E+01  0.88608232507E+01  0.00000000000E+00 0. -1.
         25    1    1    2    0    0  0.00000000000E+00  0.00000000000E+00  0.43198421896E+03  0.44970586546E+03  0.12500000000E+03 0.  0.
<mgrwt>
<rscale>  0 0.12500000E+03</rscale>
<asrwt>0</asrwt>
<pdfrwt beam="1">  1       21 0.67822297E-01 0.12500000E+03</pdfrwt>
<pdfrwt beam="2">  1       21 0.13632039E-02 0.12500000E+03</pdfrwt>
<totfact> 0.44909881E+06</totfact>
</mgrwt>
</event>
<event>
 3    1  0.1604658E-001  0.1250000E+03  0.7546771E-02  0.1235069E+00
         21   -1    0    0  502  501  0.00000000000E+00  0.00000000000E+00  0.44465451316E+01  0.44465451316E+01  0.00000000000E+00 0. -1.
         21   -1    0    0  501  502 -0.00000000000E+00 -0.00000000000E+00 -0.87849102717E+03  0.87849102717E+03  0.00000000000E+00 0. -1.
         25    1    1    2    0    0  0.00000000000E+00  0.00000000000E+00 -0.87404448203E+03  0.88293757230E+03  0.12500000000E+03 0.  0.
<mgrwt>
<rscale>  0 0.12500000E+03</rscale>
<asrwt>0</asrwt>
<pdfrwt beam="1">  1       21 0.68408317E-03 0.12500000E+03</pdfrwt>
<pdfrwt beam="2">  1       21 0.13515260E+00 0.12500000E+03</pdfrwt>
<totfact> 0.26791130E+06</totfact>
</mgrwt>
</event>
<event>
 3    1  0.1604658E-001  0.1250000E+03  0.7546771E-02  0.1235069E+00
         21   -1    0    0  502  501  0.00000000000E+00  0.00000000000E+00  0.24114441119E+02  0.24114441119E+02  0.00000000000E+00 0. -1.
         21   -1    0    0  501  502 -0.00000000000E+00 -0.00000000000E+00 -0.16198799635E+03  0.16198799635E+03  0.00000000000E+00 0. -1.
         25    1    1    2    0    0  0.00000000000E+00  0.00000000000E+00 -0.13787355523E+03  0.18610243747E+03  0.12500000000E+03 0.  0.
<mgrwt>
<rscale>  0 0.12500000E+03</rscale>
<asrwt>0</asrwt>
<pdfrwt beam="1">  1       21 0.37099140E-02 0.12500000E+03</pdfrwt>
<pdfrwt beam="2">  1       21 0.24921230E-01 0.12500000E+03</pdfrwt>
<totfact> 0.66458285E+06</totfact>
</mgrwt>
</event>
<event>
 3    1  0.1604658E-001  0.1250000E+03  0.7546771E-02  0.1235069E+00
         21   -1    0    0  502  501  0.00000000000E+00  0.00000000000E+00  0.42070251258E+01  0.42070251258E+01  0.00000000000E+00 0.  1.
         21   -1    0    0  501  502 -0.00000000000E+00 -0.00000000000E+00 -0.92850645840E+03  0.92850645840E+03  0.00000000000E+00 0.  1.
         25    1    1    2    0    0  0.00000000000E+00  0.00000000000E+00 -0.92429943328E+03  0.93271348353E+03  0.12500000000E+03 0.  0.
<mgrwt>
<rscale>  0 0.12500000E+03</rscale>
<asrwt>0</asrwt>
<pdfrwt beam="1">  1       21 0.64723514E-03 0.12500000E+03</pdfrwt>
<pdfrwt beam="2">  1       21 0.14284704E+00 0.12500000E+03</pdfrwt>
<totfact> 0.25380032E+06</totfact>
</mgrwt>
</event>
<event>
 3    1  0.1604658E-001  0.1250000E+03  0.7546771E-02  0.1235069E+00
         21   -1    0    0  502  501  0.00000000000E+00  0.00000000000E+00  0.81224448858E+02  0.81224448858E+02  0.00000000000E+00 0. -1.
         21   -1    0    0  501  502 -0.00000000000E+00 -0.00000000000E+00 -0.48092046852E+02  0.48092046852E+02  0.00000000000E+00 0. -1.
         25    1    1    2    0    0  0.00000000000E+00  0.00000000000E+00  0.33132402005E+02  0.12931649571E+03  0.12500000000E+03 0.  0.
<mgrwt>
<rscale>  0 0.12500000E+03</rscale>
<asrwt>0</asrwt>
<pdfrwt beam="1">  1       21 0.12496069E-01 0.12500000E+03</pdfrwt>
<pdfrwt beam="2">  1       21 0.73987764E-02 0.12500000E+03</pdfrwt>
<totfact> 0.73456410E+06</totfact>
</mgrwt>
</event>
<event>
 3    1  0.1604658E-001  0.1250000E+03  0.7546771E-02  0.1235069E+00
         21   -1    0    0  502  501  0.00000000000E+00  0.00000000000E+00  0.19191762151E+02  0.19191762151E+02  0.00000000000E+00 0.  1.
         21   -1    0    0  501  502 -0.00000000000E+00 -0.00000000000E+00 -0.20353784969E+03  0.20353784969E+03  0.00000000000E+00 0.  1.
         25    1    1    2    0    0  0.00000000000E+00  0.00000000000E+00 -0.18434608754E+03  0.22272961184E+03  0.12500000000E+03 0.  0.
<mgrwt>
<rscale>  0 0.12500000E+03</rscale>
<asrwt>0</asrwt>
<pdfrwt beam="1">  1       21 0.29525787E-02 0.12500000E+03</pdfrwt>
<pdfrwt beam="2">  1       21 0.31313516E-01 0.12500000E+03</pdfrwt>
<totfact> 0.62544617E+06</totfact>
</mgrwt>
</event>
<event>
 3    1  0.1604658E-001  0.1250000E+03  0.7546771E-02  0.1235069E+00
         21   -1    0    0  502  501  0.00000000000E+00  0.00000000000E+00  0.61872755190E+03  0.61872755190E+03  0.00000000000E+00 0. -1.
         21   -1    0    0  501  502 -0.00000000000E+00 -0.00000000000E+00 -0.63133603603E+01  0.63133603603E+01  0.00000000000E+00 0. -1.
         25    1    1    2    0    0  0.00000000000E+00  0.00000000000E+00  0.61241419154E+03  0.62504091226E+03  0.12500000000E+03 0.  0.
<mgrwt>
<rscale>  0 0.12500000E+03</rscale>
<asrwt>0</asrwt>
<pdfrwt beam="1">  1       21 0.95188807E-01 0.12500000E+03</pdfrwt>
<pdfrwt beam="2">  1       21 0.97128669E-03 0.12500000E+03</pdfrwt>
<totfact> 0.35984140E+06</totfact>
</mgrwt>
</event>
<event>
 3    1  0.1604658E-001  0.1250000E+03  0.7546771E-02  0.1235069E+00
         21   -1    0    0  502  501  0.00000000000E+00  0.00000000000E+00  0.10475568910E+02  0.10475568910E+02  0.00000000000E+00 0.  1.
         21   -1    0    0  501  502 -0.00000000000E+00 -0.00000000000E+00 -0.37289144233E+03  0.37289144233E+03  0.00000000000E+00 0.  1.
         25    1    1    2    0    0  0.00000000000E+00  0.00000000000E+00 -0.36241587342E+03  0.38336701124E+03  0.12500000000E+03 0.  0.
<mgrwt>
<rscale>  0 0.12500000E+03</rscale>
<asrwt>0</asrwt>
<pdfrwt beam="1">  1       21 0.16116258E-02 0.12500000E+03</pdfrwt>
<pdfrwt beam="2">  1       21 0.57367919E-01 0.12500000E+03</pdfrwt>
<totfact> 0.49164523E+06</totfact>
</mgrwt>
</event>
<event>
 3    1  0.1604658E-001  0.1250000E+03  0.7546771E-02  0.1235069E+00
         21   -1    0    0  502  501  0.00000000000E+00  0.00000000000E+00  0.26321680459E+03  0.26321680459E+03  0.00000000000E+00 0.  1.
         21   -1    0    0  501  502 -0.00000000000E+00 -0.00000000000E+00 -0.14840427860E+02  0.14840427860E+02  0.00000000000E+00 0.  1.
         25    1    1    2    0    0  0.00000000000E+00  0.00000000000E+00  0.24837637673E+03  0.27805723245E+03  0.12500000000E+03 0.  0.
<mgrwt>
<rscale>  0 0.12500000E+03</rscale>
<asrwt>0</asrwt>
<pdfrwt beam="1">  1       21 0.40494890E-01 0.12500000E+03</pdfrwt>
<pdfrwt beam="2">  1       21 0.22831429E-02 0.12500000E+03</pdfrwt>
<totfact> 0.57330470E+06</totfact>
</mgrwt>
</event>
<event>
 3    1  0.1604658E-001  0.1250000E+03  0.7546771E-02  0.1235069E+00
         21   -1    0    0  502  501  0.00000000000E+00  0.00000000000E+00  0.37755145173E+02  0.37755145173E+02  0.00000000000E+00 0.  1.
         21   -1    0    0  501  502 -0.00000000000E+00 -0.00000000000E+00 -0.10346271964E+03  0.10346271964E+03  0.00000000000E+00 0.  1.
         25    1    1    2    0    0  0.00000000000E+00  0.00000000000E+00 -0.65707574466E+02  0.14121786481E+03  0.12500000000E+03 0.  0.
<mgrwt>
<rscale>  0 0.12500000E+03</rscale>
<asrwt>0</asrwt>
<pdfrwt beam="1">  1       21 0.58084837E-02 0.12500000E+03</pdfrwt>
<pdfrwt beam="2">  1       21 0.15917342E-01 0.12500000E+03</pdfrwt>
<totfact> 0.71880715E+06</totfact>
</mgrwt>
</event>
<event>
 3    1  0.1604658E-001  0.1250000E+03  0.7546771E-02  0.1235069E+00
         21   -1    0    0  502  501  0.00000000000E+00  0.00000000000E+00  0.44964402494E+02  0.44964402494E+02  0.00000000000E+00 0. -1.
         21   -1    0    0  501  502 -0.00000000000E+00 -0.00000000000E+00 -0.86874277947E+02  0.86874277947E+02  0.00000000000E+00 0. -1.
         25    1    1    2    0    0  0.00000000000E+00  0.00000000000E+00 -0.41909875453E+02  0.13183868044E+03  0.12500000000E+03 0.  0.
<mgrwt>
<rscale>  0 0.12500000E+03</rscale>
<asrwt>0</asrwt>
<pdfrwt beam="1">  1       21 0.69176004E-02 0.12500000E+03</pdfrwt>
<pdfrwt beam="2">  1       21 0.13365274E-01 0.12500000E+03</pdfrwt>
<totfact> 0.73117875E+06</totfact>
</mgrwt>
</event>
<event>
 3    1  0.1604658E-001  0.1250000E+03  0.7546771E-02  0.1235069E+00
         21   -1    0    0  502  501  0.00000000000E+00  0.00000000000E+00  0.10928799283E+03  0.10928799283E+03  0.00000000000E+00 0.  1.
         21   -1    0    0  501  502 -0.00000000000E+00 -0.00000000000E+00 -0.35742718837E+02  0.35742718837E+02  0.00000000000E+00 0.  1.
         25    1    1    2    0    0  0.00000000000E+00  0.00000000000E+00  0.73545273995E+02  0.14503071167E+03  0.12500000000E+03 0.  0.
<mgrwt>
<rscale>  0 0.12500000E+03</rscale>
<asrwt>0</asrwt>
<pdfrwt beam="1">  1       21 0.16813537E-01 0.12500000E+03</pdfrwt>
<pdfrwt beam="2">  1       21 0.54988799E-02 0.12500000E+03</pdfrwt>
<totfact> 0.71389168E+06</totfact>
</mgrwt>
</event>
<event>
 3    1  0.1604658E-001  0.1250000E+03  0.7546771E-02  0.1235069E+00
         21   -1    0    0  502  501  0.00000000000E+00  0.00000000000E+00  0.17094880146E+03  0.17094880146E+03  0.00000000000E+00 0. -1.
         21   -1    0    0  501  502 -0.00000000000E+00 -0.00000000000E+00 -0.22850408816E+02  0.22850408816E+02  0.00000000000E+00 0. -1.
         25    1    1    2    0    0  0.00000000000E+00  0.00000000000E+00  0.14809839264E+03  0.19379921028E+03  0.12500000000E+03 0.  0.
<mgrwt>
<rscale>  0 0.12500000E+03</rscale>
<asrwt>0</asrwt>
<pdfrwt beam="1">  1       21 0.26299815E-01 0.12500000E+03</pdfrwt>
<pdfrwt beam="2">  1       21 0.35154476E-02 0.12500000E+03</pdfrwt>
<totfact> 0.65602686E+06</totfact>
</mgrwt>
</event>
<event>
 3    1  0.1604658E-001  0.1250000E+03  0.7546771E-02  0.1235069E+00
         21   -1    0    0  502  501  0.00000000000E+00  0.00000000000E+00  0.20991045031E+03  0.20991045031E+03  0.00000000000E+00 0. -1.
         21   -1    0    0  501  502 -0.00000000000E+00 -0.00000000000E+00 -0.18609125912E+02  0.18609125912E+02  0.00000000000E+00 0. -1.
         25    1    1    2    0    0  0.00000000000E+00  0.00000000000E+00  0.19130132440E+03  0.22851957622E+03  0.12500000000E+03 0.  0.
<mgrwt>
<rscale>  0 0.12500000E+03</rscale>
<asrwt>0</asrwt>
<pdfrwt beam="1">  1       21 0.32293914E-01 0.12500000E+03</pdfrwt>
<pdfrwt beam="2">  1       21 0.28629426E-02 0.12500000E+03</pdfrwt>
<totfact> 0.61961617E+06</totfact>
</mgrwt>
</event>
<event>
 3    1  0.1604658E-001  0.1250000E+03  0.7546771E-02  0.1235069E+00
         21   -1    0    0  502  501  0.00000000000E+00  0.00000000000E+00  0.56817895584E+01  0.56817895584E+01  0.00000000000E+00 0.  1.
         21   -1    0    0  501  502 -0.00000000000E+00 -0.00000000000E+00 -0.68750346345E+03  0.68750346345E+03  0.00000000000E+00 0.  1.
         25    1    1    2    0    0  0.00000000000E+00  0.00000000000E+00 -0.68182167389E+03  0.69318525301E+03  0.12500000000E+03 0.  0.
<mgrwt>
<rscale>  0 0.12500000E+03</rscale>
<asrwt>0</asrwt>
<pdfrwt beam="1">  1       21 0.87412121E-03 0.12500000E+03</pdfrwt>
<pdfrwt beam="2">  1       21 0.10576980E+00 0.12500000E+03</pdfrwt>
<totfact> 0.33174523E+06</totfact>
</mgrwt>
</event>
<event>
 3    1  0.1604658E-001  0.1250000E+03  0.7546771E-02  0.1235069E+00
         21   -1    0    0  502  501  0.00000000000E+00  0.00000000000E+00  0.65821913411E+03  0.65821913411E+03  0.00000000000E+00 0.  1.
         21   -1    0    0  501  502 -0.00000000000E+00 -0.00000000000E+00 -0.59345737576E+01  0.59345737576E+01  0.00000000000E+00 0.  1.
         25    1    1    2    0    0  0.00000000000E+00  0.00000000000E+00  0.65228456035E+03  0.66415370786E+03  0.12500000000E+03 0.  0.
<mgrwt>
<rscale>  0 0.12500000E+03</rscale>
<asrwt>0</asrwt>
<pdfrwt beam="1">  1       21 0.10126442E+00 0.12500000E+03</pdfrwt>
<pdfrwt beam="2">  1       21 0.91301187E-03 0.12500000E+03</pdfrwt>
<totfact> 0.34338411E+06</totfact>
</mgrwt>
</event>
<event>
 3    1  0.1604658E-001  0.1250000E+03  0.7546771E-02  0.1235069E+00
         21   -1    0    0  502  501  0.00000000000E+00  0.00000000000E+00  0.56936924814E+02  0.56936924814E+02  0.00000000000E+00 0. -1.
         21   -1    0    0  501  502 -0.00000000000E+00 -0.00000000000E+00 -0.68606620621E+02  0.68606620621E+02  0.00000000000E+00 0. -1.
         25    1    1    2    0    0  0.00000000000E+00  0.00000000000E+00 -0.11669695807E+02  0.12554354543E+03  0.12500000000E+03 0.  0.
<mgrwt>
<rscale>  0 0.12500000E+03</rscale>
<asrwt>0</asrwt>
<pdfrwt beam="1">  1       21 0.87595269E-02 0.12500000E+03</pdfrwt>
<pdfrwt beam="2">  1       21 0.10554865E-01 0.12500000E+03</pdfrwt>
<totfact> 0.73969314E+06</totfact>
</mgrwt>
</event>
<event>
 3    1  0.1604658E-001  0.1250000E+03  0.7546771E-02  0.1235069E+00
         21   -1    0    0  502  501  0.00000000000E+00  0.00000000000E+00  0.60104684126E+01  0.60104684126E+01  0.00000000000E+00 0.  1.
         21   -1    0    0  501  502 -0.00000000000E+00 -0.00000000000E+00 -0.64990774959E+03  0.64990774959E+03  0.00000000000E+00 0.  1.
         25    1    1    2    0    0  0.00000000000E+00  0.00000000000E+00 -0.64389728118E+03  0.65591821800E+03  0.12500000000E+03 0.  0.
<mgrwt>
<rscale>  0 0.12500000E+03</rscale>
<asrwt>0</asrwt>
<pdfrwt beam="1">  1       21 0.92468706E-03 0.12500000E+03</pdfrwt>
<pdfrwt beam="2">  1       21 0.99985849E-01 0.12500000E+03</pdfrwt>
<totfact> 0.34679580E+06</totfact>
</mgrwt>
</event>
<event>
 3    1  0.1604658E-001  0.1250000E+03  0.7546771E-02  0.1235069E+00
         21   -1    0    0  502  501  0.00000000000E+00  0.00000000000E+00  0.12429181740E+02  0.12429181740E+02  0.00000000000E+00 0. -1.
         21   -1    0    0  501  502 -0.00000000000E+00 -0.00000000000E+00 -0.31428054411E+03  0.31428054411E+03  0.00000000000E+00 0. -1.
         25    1    1    2    0    0  0.00000000000E+00  0.00000000000E+00 -0.30185136237E+03  0.32670972585E+03  0.12500000000E+03 0.  0.
<mgrwt>
<rscale>  0 0.12500000E+03</rscale>
<asrwt>0</asrwt>
<pdfrwt beam="1">  1       21 0.19121819E-02 0.12500000E+03</pdfrwt>
<pdfrwt beam="2">  1       21 0.48350850E-01 0.12500000E+03</pdfrwt>
<totfact> 0.53305879E+06</totfact>
</mgrwt>
</event>
<event>
 3    1  0.1604658E-001  0.1250000E+03  0.7546771E-02  0.1235069E+00
         21   -1    0    0  502  501  0.00000000000E+00  0.00000000000E+00  0.10063060493E+04  0.10063060493E+04  0.00000000000E+00 0. -1.
         21   -1    0    0  501  502 -0.00000000000E+00 -0.00000000000E+00 -0.38817713584E+01  0.38817713584E+01  0.00000000000E+00 0. -1.
         25    1    1    2    0    0  0.00000000000E+00  0.00000000000E+00  0.10024242780E+04  0.10101878207E+04  0.12500000000E+03 0.  0.
<mgrwt>
<rscale>  0 0.12500000E+03</rscale>
<asrwt>0</asrwt>
<pdfrwt beam="1">  1       21 0.15481611E+00 0.12500000E+03</pdfrwt>
<pdfrwt beam="2">  1       21 0.59719640E-03 0.12500000E+03</pdfrwt>
<totfact> 0.23365970E+06</totfact>
</mgrwt>
</event>
<event>
 3    1  0.1604658E-001  0.1250000E+03  0.7546771E-02  0.1235069E+00
         21   -1    0    0  502  501  0.00000000000E+00  0.00000000000E+00  0.70146264804E+02  0.70146264804E+02  0.00000000000E+00 0.  1.
         21   -1    0    0  501  502 -0.00000000000E+00 -0.00000000000E+00 -0.55687213152E+02  0.55687213152E+02  0.00000000000E+00 0.  1.
         25    1    1    2    0    0  0.00000000000E+00  0.00000000000E+00  0.14459051652E+02  0.12583347796E+03  0.12500000000E+03 0.  0.
<mgrwt>
<rscale>  0 0.12500000E+03</rscale>
<asrwt>0</asrwt>
<pdfrwt beam="1">  1       21 0.10791733E-01 0.12500000E+03</pdfrwt>
<pdfrwt beam="2">  1       21 0.85672635E-02 0.12500000E+03</pdfrwt>
<totfact> 0.73929038E+06</totfact>
</mgrwt>
</event>
<event>
 3    1  0.1604658E-001  0.1250000E+03  0.7546771E-02  0.1235069E+00
         21   -1    0    0  502  501  0.00000000000E+00  0.00000000000E+00  0.20540329041E+02  0.20540329041E+02  0.00000000000E+00 0.  1.
         21   -1    0    0  501  502 -0.00000000000E+00 -0.00000000000E+00 -0.19017465554E+03  0.19017465554E+03  0.00000000000E+00 0.  1.
         25    1    1    2    0    0  0.00000000000E+00  0.00000000000E+00 -0.16963432650E+03  0.21071498458E+03  0.12500000000E+03 0.  0.
<mgrwt>
<rscale>  0 0.12500000E+03</rscale>
<asrwt>0</asrwt>
<pdfrwt beam="1">  1       21 0.31600506E-02 0.12500000E+03</pdfrwt>
<pdfrwt beam="2">  1       21 0.29257640E-01 0.12500000E+03</pdfrwt>
<totfact> 0.63784389E+06</totfact>
</mgrwt>
</event>
<event>
 3    1  0.1604658E-001  0.1250000E+03  0.7546771E-02  0.1235069E+00
         21   -1    0    0  502  501  0.00000000000E+00  0.00000000000E+00  0.38973412779E+03  0.38973412779E+03  0.00000000000E+00 0. -1.
         21   -1    0    0  501  502 -0.00000000000E+00 -0.00000000000E+00 -0.10022858460E+02  0.10022858460E+02  0.00000000000E+00 0. -1.
         25    1    1    2    0    0  0.00000000000E+00  0.00000000000E+00  0.37971126933E+03  0.39975698625E+03  0.12500000000E+03 0.  0.
<mgrwt>
<rscale>  0 0.12500000E+03</rscale>
<asrwt>0</asrwt>
<pdfrwt beam="1">  1       21 0.59959085E-01 0.12500000E+03</pdfrwt>
<pdfrwt beam="2">  1       21 0.15419785E-02 0.12500000E+03</pdfrwt>
<totfact> 0.48057479E+06</totfact>
</mgrwt>
</event>
<event>
 3    1  0.1604658E-001  0.1250000E+03  0.7546771E-02  0.1235069E+00
         21   -1    0    0  502  501  0.00000000000E+00  0.00000000000E+00  0.49601338926E+03  0.49601338926E+03  0.00000000000E+00 0.  1.
         21   -1    0    0  501  502 -0.00000000000E+00 -0.00000000000E+00 -0.78752914429E+01  0.78752914429E+01  0.00000000000E+00 0.  1.
         25    1    1    2    0    0  0.00000000000E+00  0.00000000000E+00  0.48813809782E+03  0.50388868070E+03  0.12500000000E+03 0.  0.
<mgrwt>
<rscale>  0 0.12500000E+03</rscale>
<asrwt>0</asrwt>
<pdfrwt beam="1">  1       21 0.76309728E-01 0.12500000E+03</pdfrwt>
<pdfrwt beam="2">  1       21 0.12115837E-02 0.12500000E+03</pdfrwt>
<totfact> 0.41833969E+06</totfact>
</mgrwt>
</event>
<event>
 3    1  0.1604658E-001  0.1250000E+03  0.7546771E-02  0.1235069E+00
         21   -1    0    0  502  501  0.00000000000E+00  0.00000000000E+00  0.12163720050E+02  0.12163720050E+02  0.00000000000E+00 0.  1.
         21   -1    0    0  501  502 -0.00000000000E+00 -0.00000000000E+00 -0.32113941984E+03  0.32113941984E+03  0.00000000000E+00 0.  1.
         25    1    1    2    0    0  0.00000000000E+00  0.00000000000E+00 -0.30897569979E+03  0.33330313989E+03  0.12500000000E+03 0.  0.
<mgrwt>
<rscale>  0 0.12500000E+03</rscale>
<asrwt>0</asrwt>
<pdfrwt beam="1">  1       21 0.18713419E-02 0.12500000E+03</pdfrwt>
<pdfrwt beam="2">  1       21 0.49406055E-01 0.12500000E+03</pdfrwt>
<totfact> 0.52795696E+06</totfact>
</mgrwt>
</event>
<event>
 3    1  0.1604658E-001  0.1250000E+03  0.7546771E-02  0.1235069E+00
         21   -1    0    0  502  501  0.00000000000E+00  0.00000000000E+00  0.22054276522E+02  0.22054276522E+02  0.00000000000E+00 0. -1.
         21   -1    0    0  501  502 -0.00000000000E+00 -0.00000000000E+00 -0.17711984323E+03  0.17711984323E+03  0.00000000000E+00 0. -1.
         25    1    1    2    0    0  0.00000000000E+00  0.00000000000E+00 -0.15506556670E+03  0.19917411975E+03  0.12500000000E+03 0.  0.
<mgrwt>
<rscale>  0 0.12500000E+03</rscale>
<asrwt>0</asrwt>
<pdfrwt beam="1">  1       21 0.33929656E-02 0.12500000E+03</pdfrwt>
<pdfrwt beam="2">  1       21 0.27249206E-01 0.12500000E+03</pdfrwt>
<totfact> 0.65016851E+06</totfact>
</mgrwt>
</event>
<event>
 3    1  0.1604658E-001  0.1250000E+03  0.7546771E-02  0.1235069E+00
         21   -1    0    0  502  501  0.00000000000E+00  0.00000000000E+00  0.18990460148E+02  0.18990460148E+02  0.00000000000E+00 0.  1.
         21   -1    0    0  501  502 -0.00000000000E+00 -0.00000000000E+00 -0.20569538440E+03  0.20569538440E+03  0.00000000000E+00 0.  1.
         25    1    1    2    0    0  0.00000000000E+00  0.00000000000E+00 -0.18670492425E+03  0.22468584455E+03  0.12500000000E+03 0.  0.
<mgrwt>
<rscale>  0 0.12500000E+03</rscale>
<asrwt>0</asrwt>
<pdfrwt beam="1">  1       21 0.29216093E-02 0.12500000E+03</pdfrwt>
<pdfrwt beam="2">  1       21 0.31645443E-01 0.12500000E+03</pdfrwt>
<totfact> 0.62346766E+06</totfact>
</mgrwt>
</event>
<event>
 3    1  0.1604658E-001  0.1250000E+03  0.7546771E-02  0.1235069E+00
         21   -1    0    0  502  501  0.00000000000E+00  0.00000000000E+00  0.29582891152E+03  0.29582891152E+03  0.00000000000E+00 0.  1.
         21   -1    0    0  501  502 -0.00000000000E+00 -0.00000000000E+00 -0.13204422718E+02  0.13204422718E+02  0.00000000000E+00 0.  1.
         25    1    1    2    0    0  0.00000000000E+00  0.00000000000E+00  0.28262448880E+03  0.30903333424E+03  0.12500000000E+03 0.  0.
<mgrwt>
<rscale>  0 0.12500000E+03</rscale>
<asrwt>0</asrwt>
<pdfrwt beam="1">  1       21 0.45512135E-01 0.12500000E+03</pdfrwt>
<pdfrwt beam="2">  1       21 0.20314499E-02 0.12500000E+03</pdfrwt>
<totfact> 0.54713727E+06</totfact>
</mgrwt>
</event>
<event>
 3    1  0.1604658E-001  0.1250000E+03  0.7546771E-02  0.1235069E+00
         21   -1    0    0  502  501  0.00000000000E+00  0.00000000000E+00  0.17955548333E+02  0.17955548333E+02  0.00000000000E+00 0.  1.
         21   -1    0    0  501  502 -0.00000000000E+00 -0.00000000000E+00 -0.21755113949E+03  0.21755113949E+03  0.00000000000E+00 0.  1.
         25    1    1    2    0    0  0.00000000000E+00  0.00000000000E+00 -0.19959559116E+03  0.23550668782E+03  0.12500000000E+03 0.  0.
<mgrwt>
<rscale>  0 0.12500000E+03</rscale>
<asrwt>0</asrwt>
<pdfrwt beam="1">  1       21 0.27623922E-02 0.12500000E+03</pdfrwt>
<pdfrwt beam="2">  1       21 0.33469404E-01 0.12500000E+03</pdfrwt>
<totfact> 0.61270201E+06</totfact>
</mgrwt>
</event>
<event>
 3    1  0.1604658E-001  0.1250000E+03  0.7546771E-02  0.1235069E+00
         21   -1    0    0  502  501  0.00000000000E+00  0.00000000000E+00  0.23041189359E+03  0.23041189359E+03  0.00000000000E+00 0.  1.
         21   -1    0    0  501  502 -0.00000000000E+00 -0.00000000000E+00 -0.16953334913E+02  0.16953334913E+02  0.00000000000E+00 0.  1.
         25    1    1    2    0    0  0.00000000000E+00  0.00000000000E+00  0.21345855868E+03  0.24736522851E+03  0.12500000000E+03 0.  0.
<mgrwt>
<rscale>  0 0.12500000E+03</rscale>
<asrwt>0</asrwt>
<pdfrwt beam="1">  1       21 0.35447981E-01 0.12500000E+03</pdfrwt>
<pdfrwt beam="2">  1       21 0.26082055E-02 0.12500000E+03</pdfrwt>
<totfact> 0.60127140E+06</totfact>
</mgrwt>
</event>
<event>
 3    1  0.1604658E-001  0.1250000E+03  0.7546771E-02  0.1235069E+00
         21   -1    0    0  502  501  0.00000000000E+00  0.00000000000E+00  0.73624796948E+02  0.73624796948E+02  0.00000000000E+00 0.  1.
         21   -1    0    0  501  502 -0.00000000000E+00 -0.00000000000E+00 -0.53056173489E+02  0.53056173489E+02  0.00000000000E+00 0.  1.
         25    1    1    2    0    0  0.00000000000E+00  0.00000000000E+00  0.20568623459E+02  0.12668097044E+03  0.12500000000E+03 0.  0.
<mgrwt>
<rscale>  0 0.12500000E+03</rscale>
<asrwt>0</asrwt>
<pdfrwt beam="1">  1       21 0.11326892E-01 0.12500000E+03</pdfrwt>
<pdfrwt beam="2">  1       21 0.81624882E-02 0.12500000E+03</pdfrwt>
<totfact> 0.73812633E+06</totfact>
</mgrwt>
</event>
<event>
 3    1  0.1604658E-001  0.1250000E+03  0.7546771E-02  0.1235069E+00
         21   -1    0    0  502  501  0.00000000000E+00  0.00000000000E+00  0.62103956837E+02  0.62103956837E+02  0.00000000000E+00 0.  1.
         21   -1    0    0  501  502 -0.00000000000E+00 -0.00000000000E+00 -0.62898568770E+02  0.62898568770E+02  0.00000000000E+00 0.  1.
         25    1    1    2    0    0  0.00000000000E+00  0.00000000000E+00 -0.79461193307E+00  0.12500252561E+03  0.12500000000E+03 0.  0.
<mgrwt>
<rscale>  0 0.12500000E+03</rscale>
<asrwt>0</asrwt>
<pdfrwt beam="1">  1       21 0.95544549E-02 0.12500000E+03</pdfrwt>
<pdfrwt beam="2">  1       21 0.96767029E-02 0.12500000E+03</pdfrwt>
<totfact> 0.74043240E+06</totfact>
</mgrwt>
</event>
<event>
 3    1  0.1604658E-001  0.1250000E+03  0.7546771E-02  0.1235069E+00
         21   -1    0    0  502  501  0.00000000000E+00  0.00000000000E+00  0.74380288604E+02  0.74380288604E+02  0.00000000000E+00 0. -1.
         21   -1    0    0  501  502 -0.00000000000E+00 -0.00000000000E+00 -0.52517274043E+02  0.52517274043E+02  0.00000000000E+00 0. -1.
         25    1    1    2    0    0  0.00000000000E+00  0.00000000000E+00  0.21863014561E+02  0.12689756265E+03  0.12500000000E+03 0.  0.
<mgrwt>
<rscale>  0 0.12500000E+03</rscale>
<asrwt>0</asrwt>
<pdfrwt beam="1">  1       21 0.11443121E-01 0.12500000E+03</pdfrwt>
<pdfrwt beam="2">  1       21 0.80795806E-02 0.12500000E+03</pdfrwt>
<totfact> 0.73783088E+06</totfact>
</mgrwt>
</event>
<event>
 3    1  0.1604658E-001  0.1250000E+03  0.7546771E-02  0.1235069E+00
         21   -1    0    0  502  501  0.00000000000E+00  0.00000000000E+00  0.17971117976E+02  0.17971117976E+02  0.00000000000E+00 0.  1.
         21   -1    0    0  501  502 -0.00000000000E+00 -0.00000000000E+00 -0.21736265964E+03  0.21736265964E+03  0.00000000000E+00 0.  1.
         25    1    1    2    0    0  0.00000000000E+00  0.00000000000E+00 -0.19939154167E+03  0.23533377762E+03  0.12500000000E+03 0.  0.
<mgrwt>
<rscale>  0 0.12500000E+03</rscale>
<asrwt>0</asrwt>
<pdfrwt beam="1">  1       21 0.27647874E-02 0.12500000E+03</pdfrwt>
<pdfrwt beam="2">  1       21 0.33440409E-01 0.12500000E+03</pdfrwt>
<totfact> 0.61287147E+06</totfact>
</mgrwt>
</event>
<event>
 3    1  0.1604658E-001  0.1250000E+03  0.7546771E-02  0.1235069E+00
         21   -1    0    0  502  501  0.00000000000E+00  0.00000000000E+00  0.50838537462E+02  0.50838537462E+02  0.00000000000E+00 0.  1.
         21   -1    0    0  501  502 -0.00000000000E+00 -0.00000000000E+00 -0.76836396069E+02  0.76836396069E+02  0.00000000000E+00 0.  1.
         25    1    1    2    0    0  0.00000000000E+00  0.00000000000E+00 -0.25997858608E+02  0.12767493353E+03  0.12500000000E+03 0.  0.
<mgrwt>
<rscale>  0 0.12500000E+03</rscale>
<asrwt>0</asrwt>
<pdfrwt beam="1">  1       21 0.78213135E-02 0.12500000E+03</pdfrwt>
<pdfrwt beam="2">  1       21 0.11820984E-01 0.12500000E+03</pdfrwt>
<totfact> 0.73677519E+06</totfact>
</mgrwt>
</event>
<event>
 3    1  0.1604658E-001  0.1250000E+03  0.7546771E-02  0.1235069E+00
         21   -1    0    0  502  501  0.00000000000E+00  0.00000000000E+00  0.19674069372E+03  0.19674069372E+03  0.00000000000E+00 0.  1.
         21   -1    0    0  501  502 -0.00000000000E+00 -0.00000000000E+00 -0.19854814610E+02  0.19854814610E+02  0.00000000000E+00 0.  1.
         25    1    1    2    0    0  0.00000000000E+00  0.00000000000E+00  0.17688587911E+03  0.21659550833E+03  0.12500000000E+03 0.  0.
<mgrwt>
<rscale>  0 0.12500000E+03</rscale>
<asrwt>0</asrwt>
<pdfrwt beam="1">  1       21 0.30267798E-01 0.12500000E+03</pdfrwt>
<pdfrwt beam="2">  1       21 0.30545870E-02 0.12500000E+03</pdfrwt>
<totfact> 0.63172225E+06</totfact>
</mgrwt>
</event>
<event>
 3    1  0.1604658E-001  0.1250000E+03  0.7546771E-02  0.1235069E+00
         21   -1    0    0  502  501  0.00000000000E+00  0.00000000000E+00  0.15572457109E+03  0.15572457109E+03  0.00000000000E+00 0. -1.
         21   -1    0    0  501  502 -0.00000000000E+00 -0.00000000000E+00 -0.25084352280E+02  0.25084352280E+02  0.00000000000E+00 0. -1.
         25    1    1    2    0    0  0.00000000000E+00  0.00000000000E+00  0.13064021881E+03  0.18080892337E+03  0.12500000000E+03 0.  0.
<mgrwt>
<rscale>  0 0.12500000E+03</rscale>
<asrwt>0</asrwt>
<pdfrwt beam="1">  1       21 0.23957626E-01 0.12500000E+03</pdfrwt>
<pdfrwt beam="2">  1       21 0.38591312E-02 0.12500000E+03</pdfrwt>
<totfact> 0.67058861E+06</totfact>
</mgrwt>
</event>
<event>
 3    1  0.1604658E-001  0.1250000E+03  0.7546771E-02  0.1235069E+00
         21   -1    0    0  502  501  0.00000000000E+00  0.00000000000E+00  0.16200077255E+03  0.16200077255E+03  0.00000000000E+00 0. -1.
         21   -1    0    0  501  502 -0.00000000000E+00 -0.00000000000E+00 -0.24112539333E+02  0.24112539333E+02  0.00000000000E+00 0. -1.
         25    1    1    2    0    0  0.00000000000E+00  0.00000000000E+00  0.13788823322E+03  0.18611331188E+03  0.12500000000E+03 0.  0.
<mgrwt>
<rscale>  0 0.12500000E+03</rscale>
<asrwt>0</asrwt>
<pdfrwt beam="1">  1       21 0.24923195E-01 0.12500000E+03</pdfrwt>
<pdfrwt beam="2">  1       21 0.37096215E-02 0.12500000E+03</pdfrwt>
<totfact> 0.66457062E+06</totfact>
</mgrwt>
</event>
<event>
 3    1  0.1604658E-001  0.1250000E+03  0.7546771E-02  0.1235069E+00
         21   -1    0    0  502  501  0.00000000000E+00  0.00000000000E+00  0.19755109936E+03  0.19755109936E+03  0.00000000000E+00 0.  1.
         21   -1    0    0  501  502 -0.00000000000E+00 -0.00000000000E+00 -0.19773365031E+02  0.19773365031E+02  0.00000000000E+00 0.  1.
         25    1    1    2    0    0  0.00000000000E+00  0.00000000000E+00  0.17777773433E+03  0.21732446439E+03  0.12500000000E+03 0.  0.
<mgrwt>
<rscale>  0 0.12500000E+03</rscale>
<asrwt>0</asrwt>
<pdfrwt beam="1">  1       21 0.30392475E-01 0.12500000E+03</pdfrwt>
<pdfrwt beam="2">  1       21 0.30420563E-02 0.12500000E+03</pdfrwt>
<totfact> 0.63097063E+06</totfact>
</mgrwt>
</event>
<event>
 3    1  0.1604658E-001  0.1250000E+03  0.7546771E-02  0.1235069E+00
         21   -1    0    0  502  501  0.00000000000E+00  0.00000000000E+00  0.21840093550E+03  0.21840093550E+03  0.00000000000E+00 0. -1.
         21   -1    0    0  501  502 -0.00000000000E+00 -0.00000000000E+00 -0.17885683461E+02  0.17885683461E+02  0.00000000000E+00 0. -1.
         25    1    1    2    0    0  0.00000000000E+00  0.00000000000E+00  0.20051525204E+03  0.23628661896E+03  0.12500000000E+03 0.  0.
<mgrwt>
<rscale>  0 0.12500000E+03</rscale>
<asrwt>0</asrwt>
<pdfrwt beam="1">  1       21 0.33600142E-01 0.12500000E+03</pdfrwt>
<pdfrwt beam="2">  1       21 0.27516438E-02 0.12500000E+03</pdfrwt>
<totfact> 0.61193861E+06</totfact>
</mgrwt>
</event>
<event>
 3    1  0.1604658E-001  0.1250000E+03  0.7546771E-02  0.1235069E+00
         21   -1    0    0  502  501  0.00000000000E+00  0.00000000000E+00  0.45196049078E+02  0.45196049078E+02  0.00000000000E+00 0.  1.
         21   -1    0    0  501  502 -0.00000000000E+00 -0.00000000000E+00 -0.86429014917E+02  0.86429014917E+02  0.00000000000E+00 0.  1.
         25    1    1    2    0    0  0.00000000000E+00  0.00000000000E+00 -0.41232965839E+02  0.13162506400E+03  0.12500000000E+03 0.  0.
<mgrwt>
<rscale>  0 0.12500000E+03</rscale>
<asrwt>0</asrwt>
<pdfrwt beam="1">  1       21 0.69532384E-02 0.12500000E+03</pdfrwt>
<pdfrwt beam="2">  1       21 0.13296771E-01 0.12500000E+03</pdfrwt>
<totfact> 0.73146563E+06</totfact>
</mgrwt>
</event>
<event>
 3    1  0.1604658E-001  0.1250000E+03  0.7546771E-02  0.1235069E+00
         21   -1    0    0  502  501  0.00000000000E+00  0.00000000000E+00  0.12069658838E+03  0.12069658838E+03  0.00000000000E+00 0. -1.
         21   -1    0    0  501  502 -0.00000000000E+00 -0.00000000000E+00 -0.32364212215E+02  0.32364212215E+02  0.00000000000E+00 0. -1.
         25    1    1    2    0    0  0.00000000000E+00  0.00000000000E+00  0.88332376167E+02  0.15306080060E+03  0.12500000000E+03 0.  0.
<mgrwt>
<rscale>  0 0.12500000E+03</rscale>
<asrwt>0</asrwt>
<pdfrwt beam="1">  1       21 0.18568706E-01 0.12500000E+03</pdfrwt>
<pdfrwt beam="2">  1       21 0.49791096E-02 0.12500000E+03</pdfrwt>
<totfact> 0.70376793E+06</totfact>
</mgrwt>
</event>
<event>
 3    1  0.1604658E-001  0.1250000E+03  0.7546771E-02  0.1235069E+00
         21   -1    0    0  502  501  0.00000000000E+00  0.00000000000E+00  0.33115491691E+03  0.33115491691E+03  0.00000000000E+00 0.  1.
         21   -1    0    0  501  502 -0.00000000000E+00 -0.00000000000E+00 -0.11795838746E+02  0.11795838746E+02  0.00000000000E+00 0.  1.
         25    1    1    2    0    0  0.00000000000E+00  0.00000000000E+00  0.31935907817E+03  0.34295075566E+03  0.12500000000E+03 0.  0.
<mgrwt>
<rscale>  0 0.12500000E+03</rscale>
<asrwt>0</asrwt>
<pdfrwt beam="1">  1       21 0.50946903E-01 0.12500000E+03</pdfrwt>
<pdfrwt beam="2">  1       21 0.18147447E-02 0.12500000E+03</pdfrwt>
<totfact> 0.52063292E+06</totfact>
</mgrwt>
</event>
<event>
 3    1  0.1604658E-001  0.1250000E+03  0.7546771E-02  0.1235069E+00
         21   -1    0    0  502  501  0.00000000000E+00  0.00000000000E+00  0.44728050677E+03  0.44728050677E+03  0.00000000000E+00 0. -1.
         21   -1    0    0  501  502 -0.00000000000E+00 -0.00000000000E+00 -0.87333338720E+01  0.87333338720E+01  0.00000000000E+00 0. -1.
         25    1    1    2    0    0  0.00000000000E+00  0.00000000000E+00  0.43854717289E+03  0.45601384064E+03  0.12500000000E+03 0.  0.
<mgrwt>
<rscale>  0 0.12500000E+03</rscale>
<asrwt>0</asrwt>
<pdfrwt beam="1">  1       21 0.68812368E-01 0.12500000E+03</pdfrwt>
<pdfrwt beam="2">  1       21 0.13435902E-02 0.12500000E+03</pdfrwt>
<totfact> 0.44534594E+06</totfact>
</mgrwt>
</event>
<event>
 3    1  0.1604658E-001  0.1250000E+03  0.7546771E-02  0.1235069E+00
         21   -1    0    0  502  501  0.00000000000E+00  0.00000000000E+00  0.23235210690E+03  0.23235210690E+03  0.00000000000E+00 0. -1.
         21   -1    0    0  501  502 -0.00000000000E+00 -0.00000000000E+00 -0.16811769225E+02  0.16811769225E+02  0.00000000000E+00 0. -1.
         25    1    1    2    0    0  0.00000000000E+00  0.00000000000E+00  0.21554033767E+03  0.24916387612E+03  0.12500000000E+03 0.  0.
<mgrwt>
<rscale>  0 0.12500000E+03</rscale>
<asrwt>0</asrwt>
<pdfrwt beam="1">  1       21 0.35746476E-01 0.12500000E+03</pdfrwt>
<pdfrwt beam="2">  1       21 0.25864262E-02 0.12500000E+03</pdfrwt>
<totfact> 0.59956999E+06</totfact>
</mgrwt>
</event>
<event>
 3    1  0.1604658E-001  0.1250000E+03  0.7546771E-02  0.1235069E+00
         21   -1    0    0  502  501  0.00000000000E+00  0.00000000000E+00  0.15242517358E+02  0.15242517358E+02  0.00000000000E+00 0. -1.
         21   -1    0    0  501  502 -0.00000000000E+00 -0.00000000000E+00 -0.25627328533E+03  0.25627328533E+03  0.00000000000E+00 0. -1.
         25    1    1    2    0    0  0.00000000000E+00  0.00000000000E+00 -0.24103076797E+03  0.27151580269E+03  0.12500000000E+03 0.  0.
<mgrwt>
<rscale>  0 0.12500000E+03</rscale>
<asrwt>0</asrwt>
<pdfrwt beam="1">  1       21 0.23450027E-02 0.12500000E+03</pdfrwt>
<pdfrwt beam="2">  1       21 0.39426659E-01 0.12500000E+03</pdfrwt>
<totfact> 0.57909590E+06</totfact>
</mgrwt>
</event>
<event>
 3    1  0.1604658E-001  0.1250000E+03  0.7546771E-02  0.1235069E+00
         21   -1    0    0  502  501  0.00000000000E+00  0.00000000000E+00  0.17139860635E+02  0.17139860635E+02  0.00000000000E+00 0.  1.
         21   -1    0    0  501  502 -0.00000000000E+00 -0.00000000000E+00 -0.22790442019E+03  0.22790442019E+03  0.00000000000E+00 0.  1.
         25    1    1    2    0    0  0.00000000000E+00  0.00000000000E+00 -0.21076455955E+03  0.24504428082E+03  0.12500000000E+03 0.  0.
<mgrwt>
<rscale>  0 0.12500000E+03</rscale>
<asrwt>0</asrwt>
<pdfrwt beam="1">  1       21 0.26369017E-02 0.12500000E+03</pdfrwt>
<pdfrwt beam="2">  1       21 0.35062218E-01 0.12500000E+03</pdfrwt>
<totfact> 0.60347926E+06</totfact>
</mgrwt>
</event>
<event>
 3    1  0.1604658E-001  0.1250000E+03  0.7546771E-02  0.1235069E+00
         21   -1    0    0  502  501  0.00000000000E+00  0.00000000000E+00  0.21470987758E+02  0.21470987758E+02  0.00000000000E+00 0.  1.
         21   -1    0    0  501  502 -0.00000000000E+00 -0.00000000000E+00 -0.18193154614E+03  0.18193154614E+03  0.00000000000E+00 0.  1.
         25    1    1    2    0    0  0.00000000000E+00  0.00000000000E+00 -0.16046055838E+03  0.20340253390E+03  0.12500000000E+03 0.  0.
<mgrwt>
<rscale>  0 0.12500000E+03</rscale>
<asrwt>0</asrwt>
<pdfrwt beam="1">  1       21 0.33032288E-02 0.12500000E+03</pdfrwt>
<pdfrwt beam="2">  1       21 0.27989469E-01 0.12500000E+03</pdfrwt>
<totfact> 0.64560419E+06</totfact>
</mgrwt>
</event>
<event>
 3    1  0.1604658E-001  0.1250000E+03  0.7546771E-02  0.1235069E+00
         21   -1    0    0  502  501  0.00000000000E+00  0.00000000000E+00  0.45895813211E+03  0.45895813211E+03  0.00000000000E+00 0.  1.
         21   -1    0    0  501  502 -0.00000000000E+00 -0.00000000000E+00 -0.85111249300E+01  0.85111249300E+01  0.00000000000E+00 0.  1.
         25    1    1    2    0    0  0.00000000000E+00  0.00000000000E+00  0.45044700718E+03  0.46746925704E+03  0.12500000000E+03 0.  0.
<mgrwt>
<rscale>  0 0.12500000E+03</rscale>
<asrwt>0</asrwt>
<pdfrwt beam="1">  1       21 0.70608924E-01 0.12500000E+03</pdfrwt>
<pdfrwt beam="2">  1       21 0.13094042E-02 0.12500000E+03</pdfrwt>
<totfact> 0.43865077E+06</totfact>
</mgrwt>
</event>
<event>
 3    1  0.1604658E-001  0.1250000E+03  0.7546771E-02  0.1235069E+00
         21   -1    0    0  502  501  0.00000000000E+00  0.00000000000E+00  0.11078630061E+03  0.11078630061E+03  0.00000000000E+00 0.  1.
         21   -1    0    0  501  502 -0.00000000000E+00 -0.00000000000E+00 -0.35259323388E+02  0.35259323388E+02  0.00000000000E+00 0.  1.
         25    1    1    2    0    0  0.00000000000E+00  0.00000000000E+00  0.75526977219E+02  0.14604562399E+03  0.12500000000E+03 0.  0.
<mgrwt>
<rscale>  0 0.12500000E+03</rscale>
<asrwt>0</asrwt>
<pdfrwt beam="1">  1       21 0.17044046E-01 0.12500000E+03</pdfrwt>
<pdfrwt beam="2">  1       21 0.54245113E-02 0.12500000E+03</pdfrwt>
<totfact> 0.71259552E+06</totfact>
</mgrwt>
</event>
<event>
 3    1  0.1604658E-001  0.1250000E+03  0.7546771E-02  0.1235069E+00
         21   -1    0    0  502  501  0.00000000000E+00  0.00000000000E+00  0.23402532901E+02  0.23402532901E+02  0.00000000000E+00 0.  1.
         21   -1    0    0  501  502 -0.00000000000E+00 -0.00000000000E+00 -0.16691569313E+03  0.16691569313E+03  0.00000000000E+00 0.  1.
         25    1    1    2    0    0  0.00000000000E+00  0.00000000000E+00 -0.14351316023E+03  0.19031822603E+03  0.12500000000E+03 0.  0.
<mgrwt>
<rscale>  0 0.12500000E+03</rscale>
<asrwt>0</asrwt>
<pdfrwt beam="1">  1       21 0.36003895E-02 0.12500000E+03</pdfrwt>
<pdfrwt beam="2">  1       21 0.25679338E-01 0.12500000E+03</pdfrwt>
<totfact> 0.65987113E+06</totfact>
</mgrwt>
</event>
<event>
 3    1  0.1604658E-001  0.1250000E+03  0.7546771E-02  0.1235069E+00
         21   -1    0    0  502  501  0.00000000000E+00  0.00000000000E+00  0.13359581611E+03  0.13359581611E+03  0.00000000000E+00 0. -1.
         21   -1    0    0  501  502 -0.00000000000E+00 -0.00000000000E+00 -0.29239313878E+02  0.29239313878E+02  0.00000000000E+00 0. -1.
         25    1    1    2    0    0  0.00000000000E+00  0.00000000000E+00  0.10435650223E+03  0.16283512999E+03  0.12500000000E+03 0.  0.
<mgrwt>
<rscale>  0 0.12500000E+03</rscale>
<asrwt>0</asrwt>
<pdfrwt beam="1">  1       21 0.20553202E-01 0.12500000E+03</pdfrwt>
<pdfrwt beam="2">  1       21 0.44983561E-02 0.12500000E+03</pdfrwt>
<totfact> 0.69174723E+06</totfact>
</mgrwt>
</event>
<event>
 3    1  0.1604658E-001  0.1250000E+03  0.7546771E-02  0.1235069E+00
         21   -1    0    0  502  501  0.00000000000E+00  0.00000000000E+00  0.93849389838E+02  0.93849389838E+02  0.00000000000E+00 0. -1.
         21   -1    0    0  501  502 -0.00000000000E+00 -0.00000000000E+00 -0.41622540187E+02  0.41622540187E+02  0.00000000000E+00 0. -1.
         25    1    1    2    0    0  0.00000000000E+00  0.00000000000E+00  0.52226849651E+02  0.13547193002E+03  0.12500000000E+03 0.  0.
<mgrwt>
<rscale>  0 0.12500000E+03</rscale>
<asrwt>0</asrwt>
<pdfrwt beam="1">  1       21 0.14438368E-01 0.12500000E+03</pdfrwt>
<pdfrwt beam="2">  1       21 0.64034677E-02 0.12500000E+03</pdfrwt>
<totfact> 0.72634046E+06</totfact>
</mgrwt>
</event>
<event>
 3    1  0.1604658E-001  0.1250000E+03  0.7546771E-02  0.1235069E+00
         21   -1    0    0  502  501  0.00000000000E+00  0.00000000000E+00  0.13494951836E+03  0.13494951836E+03  0.00000000000E+00 0. -1.
         21   -1    0    0  501  502 -0.00000000000E+00 -0.00000000000E+00 -0.28946009200E+02  0.28946009200E+02  0.00000000000E+00 0. -1.
         25    1    1    2    0    0  0.00000000000E+00  0.00000000000E+00  0.10600350916E+03  0.16389552756E+03  0.12500000000E+03 0.  0.
<mgrwt>
<rscale>  0 0.12500000E+03</rscale>
<asrwt>0</asrwt>
<pdfrwt beam="1">  1       21 0.20761464E-01 0.12500000E+03</pdfrwt>
<pdfrwt beam="2">  1       21 0.44532322E-02 0.12500000E+03</pdfrwt>
<totfact> 0.69046610E+06</totfact>
</mgrwt>
</event>
<event>
 3    1  0.1604658E-001  0.1250000E+03  0.7546771E-02  0.1235069E+00
         21   -1    0    0  502  501  0.00000000000E+00  0.00000000000E+00  0.16009233358E+04  0.16009233358E+04  0.00000000000E+00 0. -1.
         21   -1    0    0  501  502 -0.00000000000E+00 -0.00000000000E+00 -0.24399981640E+01  0.24399981640E+01  0.00000000000E+00 0. -1.
         25    1    1    2    0    0  0.00000000000E+00  0.00000000000E+00  0.15984833376E+04  0.16033633339E+04  0.12500000000E+03 0.  0.
<mgrwt>
<rscale>  0 0.12500000E+03</rscale>
<asrwt>0</asrwt>
<pdfrwt beam="1">  1       21 0.24629506E+00 0.12500000E+03</pdfrwt>
<pdfrwt beam="2">  1       21 0.37538561E-03 0.12500000E+03</pdfrwt>
<totfact> 0.12528218E+06</totfact>
</mgrwt>
</event>
<event>
 3    1  0.1604658E-001  0.1250000E+03  0.7546771E-02  0.1235069E+00
         21   -1    0    0  502  501  0.00000000000E+00  0.00000000000E+00  0.25600306867E+01  0.25600306867E+01  0.00000000000E+00 0. -1.
         21   -1    0    0  501  502 -0.00000000000E+00 -0.00000000000E+00 -0.15258606158E+04  0.15258606158E+04  0.00000000000E+00 0. -1.
         25    1    1    2    0    0  0.00000000000E+00  0.00000000000E+00 -0.15233005851E+04  0.15284206465E+04  0.12500000000E+03 0.  0.
<mgrwt>
<rscale>  0 0.12500000E+03</rscale>
<asrwt>0</asrwt>
<pdfrwt beam="1">  1       21 0.39385051E-03 0.12500000E+03</pdfrwt>
<pdfrwt beam="2">  1       21 0.23474800E+00 0.12500000E+03</pdfrwt>
<totfact> 0.13576561E+06</totfact>
</mgrwt>
</event>
<event>
 3    1  0.1604658E-001  0.1250000E+03  0.7546771E-02  0.1235069E+00
         21   -1    0    0  502  501  0.00000000000E+00  0.00000000000E+00  0.76303879574E+03  0.76303879574E+03  0.00000000000E+00 0. -1.
         21   -1    0    0  501  502 -0.00000000000E+00 -0.00000000000E+00 -0.51193334098E+01  0.51193334098E+01  0.00000000000E+00 0. -1.
         25    1    1    2    0    0  0.00000000000E+00  0.00000000000E+00  0.75791946233E+03  0.76815812915E+03  0.12500000000E+03 0.  0.
<mgrwt>
<rscale>  0 0.12500000E+03</rscale>
<asrwt>0</asrwt>
<pdfrwt beam="1">  1       21 0.11739049E+00 0.12500000E+03</pdfrwt>
<pdfrwt beam="2">  1       21 0.78759036E-03 0.12500000E+03</pdfrwt>
<totfact> 0.30440277E+06</totfact>
</mgrwt>
</event>
<event>
 3    1  0.1604658E-001  0.1250000E+03  0.7546771E-02  0.1235069E+00
         21   -1    0    0  502  501  0.00000000000E+00  0.00000000000E+00  0.44626035050E+03  0.44626035050E+03  0.00000000000E+00 0.  1.
         21   -1    0    0  501  502 -0.00000000000E+00 -0.00000000000E+00 -0.87532983731E+01  0.87532983731E+01  0.00000000000E+00 0.  1.
         25    1    1    2    0    0  0.00000000000E+00  0.00000000000E+00  0.43750705213E+03  0.45501364887E+03  0.12500000000E+03 0.  0.
<mgrwt>
<rscale>  0 0.12500000E+03</rscale>
<asrwt>0</asrwt>
<pdfrwt beam="1">  1       21 0.68655421E-01 0.12500000E+03</pdfrwt>
<pdfrwt beam="2">  1       21 0.13466616E-02 0.12500000E+03</pdfrwt>
<totfact> 0.44593782E+06</totfact>
</mgrwt>
</event>
<event>
 3    1  0.1604658E-001  0.1250000E+03  0.7546771E-02  0.1235069E+00
         21   -1    0    0  502  501  0.00000000000E+00  0.00000000000E+00  0.11821040383E+04  0.11821040383E+04  0.00000000000E+00 0.  1.
         21   -1    0    0  501  502 -0.00000000000E+00 -0.00000000000E+00 -0.33044891766E+01  0.33044891766E+01  0.00000000000E+00 0.  1.
         25    1    1    2    0    0  0.00000000000E+00  0.00000000000E+00  0.11787995491E+04  0.11854085274E+04  0.12500000000E+03 0.  0.
<mgrwt>
<rscale>  0 0.12500000E+03</rscale>
<asrwt>0</asrwt>
<pdfrwt beam="1">  1       21 0.18186182E+00 0.12500000E+03</pdfrwt>
<pdfrwt beam="2">  1       21 0.50838389E-03 0.12500000E+03</pdfrwt>
<totfact> 0.19436646E+06</totfact>
</mgrwt>
</event>
<event>
 3    1  0.1604658E-001  0.1250000E+03  0.7546771E-02  0.1235069E+00
         21   -1    0    0  502  501  0.00000000000E+00  0.00000000000E+00  0.56741739418E+02  0.56741739418E+02  0.00000000000E+00 0. -1.
         21   -1    0    0  501  502 -0.00000000000E+00 -0.00000000000E+00 -0.68842619913E+02  0.68842619913E+02  0.00000000000E+00 0. -1.
         25    1    1    2    0    0  0.00000000000E+00  0.00000000000E+00 -0.12100880495E+02  0.12558435933E+03  0.12500000000E+03 0.  0.
<mgrwt>
<rscale>  0 0.12500000E+03</rscale>
<asrwt>0</asrwt>
<pdfrwt beam="1">  1       21 0.87294984E-02 0.12500000E+03</pdfrwt>
<pdfrwt beam="2">  1       21 0.10591172E-01 0.12500000E+03</pdfrwt>
<totfact> 0.73963622E+06</totfact>
</mgrwt>
</event>
<event>
 3    1  0.1604658E-001  0.1250000E+03  0.7546771E-02  0.1235069E+00
         21   -1    0    0  502  501  0.00000000000E+00  0.00000000000E+00  0.12197996487E+04  0.12197996487E+04  0.00000000000E+00 0.  1.
         21   -1    0    0  501  502 -0.00000000000E+00 -0.00000000000E+00 -0.32023701630E+01  0.32023701630E+01  0.00000000000E+00 0.  1.
         25    1    1    2    0    0  0.00000000000E+00  0.00000000000E+00  0.12165972786E+04  0.12230020189E+04  0.12500000000E+03 0.  0.
<mgrwt>
<rscale>  0 0.12500000E+03</rscale>
<asrwt>0</asrwt>
<pdfrwt beam="1">  1       21 0.18766111E+00 0.12500000E+03</pdfrwt>
<pdfrwt beam="2">  1       21 0.49267331E-03 0.12500000E+03</pdfrwt>
<totfact> 0.18690984E+06</totfact>
</mgrwt>
</event>
<event>
 3    1  0.1604658E-001  0.1250000E+03  0.7546771E-02  0.1235069E+00
         21   -1    0    0  502  501  0.00000000000E+00  0.00000000000E+00  0.84878738851E+01  0.84878738851E+01  0.00000000000E+00 0.  1.
         21   -1    0    0  501  502 -0.00000000000E+00 -0.00000000000E+00 -0.46021536758E+03  0.46021536758E+03  0.00000000000E+00 0.  1.
         25    1    1    2    0    0  0.00000000000E+00  0.00000000000E+00 -0.45172749369E+03  0.46870324146E+03  0.12500000000E+03 0.  0.
<mgrwt>
<rscale>  0 0.12500000E+03</rscale>
<asrwt>0</asrwt>
<pdfrwt beam="1">  1       21 0.13058270E-02 0.12500000E+03</pdfrwt>
<pdfrwt beam="2">  1       21 0.70802353E-01 0.12500000E+03</pdfrwt>
<totfact> 0.43793859E+06</totfact>
</mgrwt>
</event>
<event>
 3    1  0.1604658E-001  0.1250000E+03  0.7546771E-02  0.1235069E+00
         21   -1    0    0  502  501  0.00000000000E+00  0.00000000000E+00  0.53736853804E+02  0.53736853804E+02  0.00000000000E+00 0. -1.
         21   -1    0    0  501  502 -0.00000000000E+00 -0.00000000000E+00 -0.72692197691E+02  0.72692197691E+02  0.00000000000E+00 0. -1.
         25    1    1    2    0    0  0.00000000000E+00  0.00000000000E+00 -0.18955343887E+02  0.12642905149E+03  0.12500000000E+03 0.  0.
<mgrwt>
<rscale>  0 0.12500000E+03</rscale>
<asrwt>0</asrwt>
<pdfrwt beam="1">  1       21 0.82672083E-02 0.12500000E+03</pdfrwt>
<pdfrwt beam="2">  1       21 0.11183415E-01 0.12500000E+03</pdfrwt>
<totfact> 0.73847087E+06</totfact>
</mgrwt>
</event>
<event>
 3    1  0.1604658E-001  0.1250000E+03  0.7546771E-02  0.1235069E+00
         21   -1    0    0  502  501  0.00000000000E+00  0.00000000000E+00  0.62675320972E+02  0.62675320972E+02  0.00000000000E+00 0. -1.
         21   -1    0    0  501  502 -0.00000000000E+00 -0.00000000000E+00 -0.62325169452E+02  0.62325169452E+02  0.00000000000E+00 0. -1.
         25    1    1    2    0    0  0.00000000000E+00  0.00000000000E+00  0.35015151969E+00  0.12500049042E+03  0.12500000000E+03 0.  0.
<mgrwt>
<rscale>  0 0.12500000E+03</rscale>
<asrwt>0</asrwt>
<pdfrwt beam="1">  1       21 0.96423571E-02 0.12500000E+03</pdfrwt>
<pdfrwt beam="2">  1       21 0.95884876E-02 0.12500000E+03</pdfrwt>
<totfact> 0.74043515E+06</totfact>
</mgrwt>
</event>
<event>
 3    1  0.1604658E-001  0.1250000E+03  0.7546771E-02  0.1235069E+00
         21   -1    0    0  502  501  0.00000000000E+00  0.00000000000E+00  0.90706398247E+02  0.90706398247E+02  0.00000000000E+00 0. -1.
         21   -1    0    0  501  502 -0.00000000000E+00 -0.00000000000E+00 -0.43064768037E+02  0.43064768037E+02  0.00000000000E+00 0. -1.
         25    1    1    2    0    0  0.00000000000E+00  0.00000000000E+00  0.47641630210E+02  0.13377116628E+03  0.12500000000E+03 0.  0.
<mgrwt>
<rscale>  0 0.12500000E+03</rscale>
<asrwt>0</asrwt>
<pdfrwt beam="1">  1       21 0.13954830E-01 0.12500000E+03</pdfrwt>
<pdfrwt beam="2">  1       21 0.66253489E-02 0.12500000E+03</pdfrwt>
<totfact> 0.72859594E+06</totfact>
</mgrwt>
</event>
<event>
 3    1  0.1604658E-001  0.1250000E+03  0.7546771E-02  0.1235069E+00
         21   -1    0    0  502  501  0.00000000000E+00  0.00000000000E+00  0.19480736232E+04  0.19480736232E+04  0.00000000000E+00 0.  1.
         21   -1    0    0  501  502 -0.00000000000E+00 -0.00000000000E+00 -0.20051860225E+01  0.20051860225E+01  0.00000000000E+00 0.  1.
         25    1    1    2    0    0  0.00000000000E+00  0.00000000000E+00  0.19460684372E+04  0.19500788092E+04  0.12500000000E+03 0.  0.
<mgrwt>
<rscale>  0 0.12500000E+03</rscale>
<asrwt>0</asrwt>
<pdfrwt beam="1">  1       21 0.29970212E+00 0.12500000E+03</pdfrwt>
<pdfrwt beam="2">  1       21 0.30849172E-03 0.12500000E+03</pdfrwt>
<totfact> 0.84452262E+05</totfact>
</mgrwt>
</event>
<event>
 3    1  0.1604658E-001  0.1250000E+03  0.7546771E-02  0.1235069E+00
         21   -1    0    0  502  501  0.00000000000E+00  0.00000000000E+00  0.54180279609E+02  0.54180279609E+02  0.00000000000E+00 0. -1.
         21   -1    0    0  501  502 -0.00000000000E+00 -0.00000000000E+00 -0.72097265429E+02  0.72097265429E+02  0.00000000000E+00 0. -1.
         25    1    1    2    0    0  0.00000000000E+00  0.00000000000E+00 -0.17916985820E+02  0.12627754504E+03  0.12500000000E+03 0.  0.
<mgrwt>
<rscale>  0 0.12500000E+03</rscale>
<asrwt>0</asrwt>
<pdfrwt beam="1">  1       21 0.83354276E-02 0.12500000E+03</pdfrwt>
<pdfrwt beam="2">  1       21 0.11091887E-01 0.12500000E+03</pdfrwt>
<totfact> 0.73867860E+06</totfact>
</mgrwt>
</event>
<event>
 3    1  0.1604658E-001  0.1250000E+03  0.7546771E-02  0.1235069E+00
         21   -1    0    0  502  501  0.00000000000E+00  0.00000000000E+00  0.14385871188E+02  0.14385871188E+02  0.00000000000E+00 0.  1.
         21   -1    0    0  501  502 -0.00000000000E+00 -0.00000000000E+00 -0.27153378124E+03  0.27153378124E+03  0.00000000000E+00 0.  1.
         25    1    1    2    0    0  0.00000000000E+00  0.00000000000E+00 -0.25714791005E+03  0.28591965242E+03  0.12500000000E+03 0.  0.
<mgrwt>
<rscale>  0 0.12500000E+03</rscale>
<asrwt>0</asrwt>
<pdfrwt beam="1">  1       21 0.22132110E-02 0.12500000E+03</pdfrwt>
<pdfrwt beam="2">  1       21 0.41774426E-01 0.12500000E+03</pdfrwt>
<totfact> 0.56646989E+06</totfact>
</mgrwt>
</event>
<event>
 3    1  0.1604658E-001  0.1250000E+03  0.7546771E-02  0.1235069E+00
         21   -1    0    0  502  501  0.00000000000E+00  0.00000000000E+00  0.28814009733E+02  0.28814009733E+02  0.00000000000E+00 0. -1.
         21   -1    0    0  501  502 -0.00000000000E+00 -0.00000000000E+00 -0.13556773376E+03  0.13556773376E+03  0.00000000000E+00 0. -1.
         25    1    1    2    0    0  0.00000000000E+00  0.00000000000E+00 -0.10675372403E+03  0.16438174349E+03  0.12500000000E+03 0.  0.
<mgrwt>
<rscale>  0 0.12500000E+03</rscale>
<asrwt>0</asrwt>
<pdfrwt beam="1">  1       21 0.44329246E-02 0.12500000E+03</pdfrwt>
<pdfrwt beam="2">  1       21 0.20856574E-01 0.12500000E+03</pdfrwt>
<totfact> 0.68988019E+06</totfact>
</mgrwt>
</event>
<event>
 3    1  0.1604658E-001  0.1250000E+03  0.7546771E-02  0.1235069E+00
         21   -1    0    0  502  501  0.00000000000E+00  0.00000000000E+00  0.26045392770E+02  0.26045392770E+02  0.00000000000E+00 0.  1.
         21   -1    0    0  501  502 -0.00000000000E+00 -0.00000000000E+00 -0.14997854071E+03  0.14997854071E+03  0.00000000000E+00 0.  1.
         25    1    1    2    0    0  0.00000000000E+00  0.00000000000E+00 -0.12393314794E+03  0.17602393348E+03  0.12500000000E+03 0.  0.
<mgrwt>
<rscale>  0 0.12500000E+03</rscale>
<asrwt>0</asrwt>
<pdfrwt beam="1">  1       21 0.40069836E-02 0.12500000E+03</pdfrwt>
<pdfrwt beam="2">  1       21 0.23073621E-01 0.12500000E+03</pdfrwt>
<totfact> 0.67610612E+06</totfact>
</mgrwt>
</event>
<event>
 3    1  0.1604658E-001  0.1250000E+03  0.7546771E-02  0.1235069E+00
         21   -1    0    0  502  501  0.00000000000E+00  0.00000000000E+00  0.97927672325E+01  0.97927672325E+01  0.00000000000E+00 0. -1.
         21   -1    0    0  501  502 -0.00000000000E+00 -0.00000000000E+00 -0.39889133554E+03  0.39889133554E+03  0.00000000000E+00 0. -1.
         25    1    1    2    0    0  0.00000000000E+00  0.00000000000E+00 -0.38909856831E+03  0.40868410277E+03  0.12500000000E+03 0.  0.
<mgrwt>
<rscale>  0 0.12500000E+03</rscale>
<asrwt>0</asrwt>
<pdfrwt beam="1">  1       21 0.15065801E-02 0.12500000E+03</pdfrwt>
<pdfrwt beam="2">  1       21 0.61367877E-01 0.12500000E+03</pdfrwt>
<totfact> 0.47470636E+06</totfact>
</mgrwt>
</event>
<event>
 3    1  0.1604658E-001  0.1250000E+03  0.7546771E-02  0.1235069E+00
         21   -1    0    0  502  501  0.00000000000E+00  0.00000000000E+00  0.27556314147E+02  0.27556314147E+02  0.00000000000E+00 0.  1.
         21   -1    0    0  501  502 -0.00000000000E+00 -0.00000000000E+00 -0.14175517013E+03  0.14175517013E+03  0.00000000000E+00 0.  1.
         25    1    1    2    0    0  0.00000000000E+00  0.00000000000E+00 -0.11419885598E+03  0.16931148427E+03  0.12500000000E+03 0.  0.
<mgrwt>
<rscale>  0 0.12500000E+03</rscale>
<asrwt>0</asrwt>
<pdfrwt beam="1">  1       21 0.42394328E-02 0.12500000E+03</pdfrwt>
<pdfrwt beam="2">  1       21 0.21808488E-01 0.12500000E+03</pdfrwt>
<totfact> 0.68399252E+06</totfact>
</mgrwt>
</event>
<event>
 3    1  0.1604658E-001  0.1250000E+03  0.7546771E-02  0.1235069E+00
         21   -1    0    0  502  501  0.00000000000E+00  0.00000000000E+00  0.15933272991E+02  0.15933272991E+02  0.00000000000E+00 0.  1.
         21   -1    0    0  501  502 -0.00000000000E+00 -0.00000000000E+00 -0.24516306236E+03  0.24516306236E+03  0.00000000000E+00 0.  1.
         25    1    1    2    0    0  0.00000000000E+00  0.00000000000E+00 -0.22922978937E+03  0.26109633535E+03  0.12500000000E+03 0.  0.
<mgrwt>
<rscale>  0 0.12500000E+03</rscale>
<asrwt>0</asrwt>
<pdfrwt beam="1">  1       21 0.24512728E-02 0.12500000E+03</pdfrwt>
<pdfrwt beam="2">  1       21 0.37717393E-01 0.12500000E+03</pdfrwt>
<totfact> 0.58848932E+06</totfact>
</mgrwt>
</event>
<event>
 3    1  0.1604658E-001  0.1250000E+03  0.7546771E-02  0.1235069E+00
         21   -1    0    0  502  501  0.00000000000E+00  0.00000000000E+00  0.18207442807E+02  0.18207442807E+02  0.00000000000E+00 0. -1.
         21   -1    0    0  501  502 -0.00000000000E+00 -0.00000000000E+00 -0.21454138515E+03  0.21454138515E+03  0.00000000000E+00 0. -1.
         25    1    1    2    0    0  0.00000000000E+00  0.00000000000E+00 -0.19633394235E+03  0.23274882796E+03  0.12500000000E+03 0.  0.
<mgrwt>
<rscale>  0 0.12500000E+03</rscale>
<asrwt>0</asrwt>
<pdfrwt beam="1">  1       21 0.28011451E-02 0.12500000E+03</pdfrwt>
<pdfrwt beam="2">  1       21 0.33006367E-01 0.12500000E+03</pdfrwt>
<totfact> 0.61541482E+06</totfact>
</mgrwt>
</event>
<event>
 3    1  0.1604658E-001  0.1250000E+03  0.7546771E-02  0.1235069E+00
         21   -1    0    0  502  501  0.00000000000E+00  0.00000000000E+00  0.51271047232E+01  0.51271047232E+01  0.00000000000E+00 0.  1.
         21   -1    0    0  501  502 -0.00000000000E+00 -0.00000000000E+00 -0.76188223391E+03  0.76188223391E+03  0.00000000000E+00 0.  1.
         25    1    1    2    0    0  0.00000000000E+00  0.00000000000E+00 -0.75675512919E+03  0.76700933863E+03  0.12500000000E+03 0.  0.
<mgrwt>
<rscale>  0 0.12500000E+03</rscale>
<asrwt>0</asrwt>
<pdfrwt beam="1">  1       21 0.78878561E-03 0.12500000E+03</pdfrwt>
<pdfrwt beam="2">  1       21 0.11721261E+00 0.12500000E+03</pdfrwt>
<totfact> 0.30479456E+06</totfact>
</mgrwt>
</event>
<event>
 3    1  0.1604658E-001  0.1250000E+03  0.7546771E-02  0.1235069E+00
         21   -1    0    0  502  501  0.00000000000E+00  0.00000000000E+00  0.22079096219E+02  0.22079096219E+02  0.00000000000E+00 0.  1.
         21   -1    0    0  501  502 -0.00000000000E+00 -0.00000000000E+00 -0.17692073812E+03  0.17692073812E+03  0.00000000000E+00 0.  1.
         25    1    1    2    0    0  0.00000000000E+00  0.00000000000E+00 -0.15484164190E+03  0.19899983433E+03  0.12500000000E+03 0.  0.
<mgrwt>
<rscale>  0 0.12500000E+03</rscale>
<asrwt>0</asrwt>
<pdfrwt beam="1">  1       21 0.33967840E-02 0.12500000E+03</pdfrwt>
<pdfrwt beam="2">  1       21 0.27218575E-01 0.12500000E+03</pdfrwt>
<totfact> 0.65035787E+06</totfact>
</mgrwt>
</event>
<event>
 3    1  0.1604658E-001  0.1250000E+03  0.7546771E-02  0.1235069E+00
         21   -1    0    0  502  501  0.00000000000E+00  0.00000000000E+00  0.31483579089E+02  0.31483579089E+02  0.00000000000E+00 0.  1.
         21   -1    0    0  501  502 -0.00000000000E+00 -0.00000000000E+00 -0.12407261541E+03  0.12407261541E+03  0.00000000000E+00 0.  1.
         25    1    1    2    0    0  0.00000000000E+00  0.00000000000E+00 -0.92589036322E+02  0.15555619450E+03  0.12500000000E+03 0.  0.
<mgrwt>
<rscale>  0 0.12500000E+03</rscale>
<asrwt>0</asrwt>
<pdfrwt beam="1">  1       21 0.48436275E-02 0.12500000E+03</pdfrwt>
<pdfrwt beam="2">  1       21 0.19088095E-01 0.12500000E+03</pdfrwt>
<totfact> 0.70066597E+06</totfact>
</mgrwt>
</event>
<event>
 3    1  0.1604658E-001  0.1250000E+03  0.7546771E-02  0.1235069E+00
         21   -1    0    0  502  501  0.00000000000E+00  0.00000000000E+00  0.10039753179E+02  0.10039753179E+02  0.00000000000E+00 0. -1.
         21   -1    0    0  501  502 -0.00000000000E+00 -0.00000000000E+00 -0.38907829009E+03  0.38907829009E+03  0.00000000000E+00 0. -1.
         25    1    1    2    0    0  0.00000000000E+00  0.00000000000E+00 -0.37903853691E+03  0.39911804327E+03  0.12500000000E+03 0.  0.
<mgrwt>
<rscale>  0 0.12500000E+03</rscale>
<asrwt>0</asrwt>
<pdfrwt beam="1">  1       21 0.15445776E-02 0.12500000E+03</pdfrwt>
<pdfrwt beam="2">  1       21 0.59858192E-01 0.12500000E+03</pdfrwt>
<totfact> 0.48099908E+06</totfact>
</mgrwt>
</event>
<event>
 3    1  0.1604658E-001  0.1250000E+03  0.7546771E-02  0.1235069E+00
         21   -1    0    0  502  501  0.00000000000E+00  0.00000000000E+00  0.33522476175E+03  0.33522476175E+03  0.00000000000E+00 0.  1.
         21   -1    0    0  501  502 -0.00000000000E+00 -0.00000000000E+00 -0.11652629655E+02  0.11652629655E+02  0.00000000000E+00 0.  1.
         25    1    1    2    0    0  0.00000000000E+00  0.00000000000E+00  0.32357213210E+03  0.34687739141E+03  0.12500000000E+03 0.  0.
<mgrwt>
<rscale>  0 0.12500000E+03</rscale>
<asrwt>0</asrwt>
<pdfrwt beam="1">  1       21 0.51573033E-01 0.12500000E+03</pdfrwt>
<pdfrwt beam="2">  1       21 0.17927125E-02 0.12500000E+03</pdfrwt>
<totfact> 0.51769878E+06</totfact>
</mgrwt>
</event>
<event>
 3    1  0.1604658E-001  0.1250000E+03  0.7546771E-02  0.1235069E+00
         21   -1    0    0  502  501  0.00000000000E+00  0.00000000000E+00  0.10232829776E+03  0.10232829776E+03  0.00000000000E+00 0.  1.
         21   -1    0    0  501  502 -0.00000000000E+00 -0.00000000000E+00 -0.38173702538E+02  0.38173702538E+02  0.00000000000E+00 0.  1.
         25    1    1    2    0    0  0.00000000000E+00  0.00000000000E+00  0.64154595223E+02  0.14050200030E+03  0.12500000000E+03 0.  0.
<mgrwt>
<rscale>  0 0.12500000E+03</rscale>
<asrwt>0</asrwt>
<pdfrwt beam="1">  1       21 0.15742815E-01 0.12500000E+03</pdfrwt>
<pdfrwt beam="2">  1       21 0.58728774E-02 0.12500000E+03</pdfrwt>
<totfact> 0.71973841E+06</totfact>
</mgrwt>
</event>
<event>
 3    1  0.1604658E-001  0.1250000E+03  0.7546771E-02  0.1235069E+00
         21   -1    0    0  502  501  0.00000000000E+00  0.00000000000E+00  0.14637994269E+03  0.14637994269E+03  0.00000000000E+00 0.  1.
         21   -1    0    0  501  502 -0.00000000000E+00 -0.00000000000E+00 -0.26685691553E+02  0.26685691553E+02  0.00000000000E+00 0.  1.
         25    1    1    2    0    0  0.00000000000E+00  0.00000000000E+00  0.11969425113E+03  0.17306563424E+03  0.12500000000E+03 0.  0.
<mgrwt>
<rscale>  0 0.12500000E+03</rscale>
<asrwt>0</asrwt>
<pdfrwt beam="1">  1       21 0.22519991E-01 0.12500000E+03</pdfrwt>
<pdfrwt beam="2">  1       21 0.41054911E-02 0.12500000E+03</pdfrwt>
<totfact> 0.67956068E+06</totfact>
</mgrwt>
</event>
<event>
 3    1  0.1604658E-001  0.1250000E+03  0.7546771E-02  0.1235069E+00
         21   -1    0    0  502  501  0.00000000000E+00  0.00000000000E+00  0.25897403077E+02  0.25897403077E+02  0.00000000000E+00 0.  1.
         21   -1    0    0  501  502 -0.00000000000E+00 -0.00000000000E+00 -0.15083558720E+03  0.15083558720E+03  0.00000000000E+00 0.  1.
         25    1    1    2    0    0  0.00000000000E+00  0.00000000000E+00 -0.12493818412E+03  0.17673299027E+03  0.12500000000E+03 0.  0.
<mgrwt>
<rscale>  0 0.12500000E+03</rscale>
<asrwt>0</asrwt>
<pdfrwt beam="1">  1       21 0.39842159E-02 0.12500000E+03</pdfrwt>
<pdfrwt beam="2">  1       21 0.23205475E-01 0.12500000E+03</pdfrwt>
<totfact> 0.67528308E+06</totfact>
</mgrwt>
</event>
<event>
 3    1  0.1604658E-001  0.1250000E+03  0.7546771E-02  0.1235069E+00
         21   -1    0    0  502  501  0.00000000000E+00  0.00000000000E+00  0.24363821417E+03  0.24363821417E+03  0.00000000000E+00 0.  1.
         21   -1    0    0  501  502 -0.00000000000E+00 -0.00000000000E+00 -0.16032993893E+02  0.16032993893E+02  0.00000000000E+00 0.  1.
         25    1    1    2    0    0  0.00000000000E+00  0.00000000000E+00  0.22760522028E+03  0.25967120807E+03  0.12500000000E+03 0.  0.
<mgrwt>
<rscale>  0 0.12500000E+03</rscale>
<asrwt>0</asrwt>
<pdfrwt beam="1">  1       21 0.37482799E-01 0.12500000E+03</pdfrwt>
<pdfrwt beam="2">  1       21 0.24666146E-02 0.12500000E+03</pdfrwt>
<totfact> 0.58979421E+06</totfact>
</mgrwt>
</event>
<event>
 3    1  0.1604658E-001  0.1250000E+03  0.7546771E-02  0.1235069E+00
         21   -1    0    0  502  501  0.00000000000E+00  0.00000000000E+00  0.15830743958E+03  0.15830743958E+03  0.00000000000E+00 0. -1.
         21   -1    0    0  501  502 -0.00000000000E+00 -0.00000000000E+00 -0.24675087984E+02  0.24675087984E+02  0.00000000000E+00 0. -1.
         25    1    1    2    0    0  0.00000000000E+00  0.00000000000E+00  0.13363235159E+03  0.18298252756E+03  0.12500000000E+03 0.  0.
<mgrwt>
<rscale>  0 0.12500000E+03</rscale>
<asrwt>0</asrwt>
<pdfrwt beam="1">  1       21 0.24354990E-01 0.12500000E+03</pdfrwt>
<pdfrwt beam="2">  1       21 0.37961675E-02 0.12500000E+03</pdfrwt>
<totfact> 0.66811027E+06</totfact>
</mgrwt>
</event>
<event>
 3    1  0.1604658E-001  0.1250000E+03  0.7546771E-02  0.1235069E+00
         21   -1    0    0  502  501  0.00000000000E+00  0.00000000000E+00  0.67427005321E+03  0.67427005321E+03  0.00000000000E+00 0.  1.
         21   -1    0    0  501  502 -0.00000000000E+00 -0.00000000000E+00 -0.57933019291E+01  0.57933019291E+01  0.00000000000E+00 0.  1.
         25    1    1    2    0    0  0.00000000000E+00  0.00000000000E+00  0.66847675128E+03  0.68006335514E+03  0.12500000000E+03 0.  0.
<mgrwt>
<rscale>  0 0.12500000E+03</rscale>
<asrwt>0</asrwt>
<pdfrwt beam="1">  1       21 0.10373379E+00 0.12500000E+03</pdfrwt>
<pdfrwt beam="2">  1       21 0.89127775E-03 0.12500000E+03</pdfrwt>
<totfact> 0.33693049E+06</totfact>
</mgrwt>
</event>
<event>
 3    1  0.1604658E-001  0.1250000E+03  0.7546771E-02  0.1235069E+00
         21   -1    0    0  502  501  0.00000000000E+00  0.00000000000E+00  0.10680020195E+04  0.10680020195E+04  0.00000000000E+00 0. -1.
         21   -1    0    0  501  502 -0.00000000000E+00 -0.00000000000E+00 -0.36575305372E+01  0.36575305372E+01  0.00000000000E+00 0. -1.
         25    1    1    2    0    0  0.00000000000E+00  0.00000000000E+00  0.10643444889E+04  0.10716595500E+04  0.12500000000E+03 0.  0.
<mgrwt>
<rscale>  0 0.12500000E+03</rscale>
<asrwt>0</asrwt>
<pdfrwt beam="1">  1       21 0.16430775E+00 0.12500000E+03</pdfrwt>
<pdfrwt beam="2">  1       21 0.56269786E-03 0.12500000E+03</pdfrwt>
<totfact> 0.21892996E+06</totfact>
</mgrwt>
</event>
<event>
 3    1  0.1604658E-001  0.1250000E+03  0.7546771E-02  0.1235069E+00
         21   -1    0    0  502  501  0.00000000000E+00  0.00000000000E+00  0.86192292526E+01  0.86192292526E+01  0.00000000000E+00 0. -1.
         21   -1    0    0  501  502 -0.00000000000E+00 -0.00000000000E+00 -0.45320177542E+03  0.45320177542E+03  0.00000000000E+00 0. -1.
         25    1    1    2    0    0  0.00000000000E+00  0.00000000000E+00 -0.44458254616E+03  0.46182100467E+03  0.12500000000E+03 0.  0.
<mgrwt>
<rscale>  0 0.12500000E+03</rscale>
<asrwt>0</asrwt>
<pdfrwt beam="1">  1       21 0.13260359E-02 0.12500000E+03</pdfrwt>
<pdfrwt beam="2">  1       21 0.69723316E-01 0.12500000E+03</pdfrwt>
<totfact> 0.44193285E+06</totfact>
</mgrwt>
</event>
<event>
 3    1  0.1604658E-001  0.1250000E+03  0.7546771E-02  0.1235069E+00
         21   -1    0    0  502  501  0.00000000000E+00  0.00000000000E+00  0.25907495105E+02  0.25907495105E+02  0.00000000000E+00 0.  1.
         21   -1    0    0  501  502 -0.00000000000E+00 -0.00000000000E+00 -0.15077683057E+03  0.15077683057E+03  0.00000000000E+00 0.  1.
         25    1    1    2    0    0  0.00000000000E+00  0.00000000000E+00 -0.12486933547E+03  0.17668432568E+03  0.12500000000E+03 0.  0.
<mgrwt>
<rscale>  0 0.12500000E+03</rscale>
<asrwt>0</asrwt>
<pdfrwt beam="1">  1       21 0.39857685E-02 0.12500000E+03</pdfrwt>
<pdfrwt beam="2">  1       21 0.23196435E-01 0.12500000E+03</pdfrwt>
<totfact> 0.67533951E+06</totfact>
</mgrwt>
</event>
<event>
 3    1  0.1604658E-001  0.1250000E+03  0.7546771E-02  0.1235069E+00
         21   -1    0    0  502  501  0.00000000000E+00  0.00000000000E+00  0.27101505390E+03  0.27101505390E+03  0.00000000000E+00 0. -1.
         21   -1    0    0  501  502 -0.00000000000E+00 -0.00000000000E+00 -0.14413405986E+02  0.14413405986E+02  0.00000000000E+00 0. -1.
         25    1    1    2    0    0  0.00000000000E+00  0.00000000000E+00  0.25660164791E+03  0.28542845988E+03  0.12500000000E+03 0.  0.
<mgrwt>
<rscale>  0 0.12500000E+03</rscale>
<asrwt>0</asrwt>
<pdfrwt beam="1">  1       21 0.41694620E-01 0.12500000E+03</pdfrwt>
<pdfrwt beam="2">  1       21 0.22174473E-02 0.12500000E+03</pdfrwt>
<totfact> 0.56689293E+06</totfact>
</mgrwt>
</event>
<event>
 3    1  0.1604658E-001  0.1250000E+03  0.7546771E-02  0.1235069E+00
         21   -1    0    0  502  501  0.00000000000E+00  0.00000000000E+00  0.11872186476E+02  0.11872186476E+02  0.00000000000E+00 0. -1.
         21   -1    0    0  501  502 -0.00000000000E+00 -0.00000000000E+00 -0.32902532385E+03  0.32902532385E+03  0.00000000000E+00 0. -1.
         25    1    1    2    0    0  0.00000000000E+00  0.00000000000E+00 -0.31715313737E+03  0.34089751032E+03  0.12500000000E+03 0.  0.
<mgrwt>
<rscale>  0 0.12500000E+03</rscale>
<asrwt>0</asrwt>
<pdfrwt beam="1">  1       21 0.18264904E-02 0.12500000E+03</pdfrwt>
<pdfrwt beam="2">  1       21 0.50619276E-01 0.12500000E+03</pdfrwt>
<totfact> 0.52217785E+06</totfact>
</mgrwt>
</event>
<event>
 3    1  0.1604658E-001  0.1250000E+03  0.7546771E-02  0.1235069E+00
         21   -1    0    0  502  501  0.00000000000E+00  0.00000000000E+00  0.24976501173E+02  0.24976501173E+02  0.00000000000E+00 0. -1.
         21   -1    0    0  501  502 -0.00000000000E+00 -0.00000000000E+00 -0.15639700585E+03  0.15639700585E+03  0.00000000000E+00 0. -1.
         25    1    1    2    0    0  0.00000000000E+00  0.00000000000E+00 -0.13142050467E+03  0.18137350702E+03  0.12500000000E+03 0.  0.
<mgrwt>
<rscale>  0 0.12500000E+03</rscale>
<asrwt>0</asrwt>
<pdfrwt beam="1">  1       21 0.38425386E-02 0.12500000E+03</pdfrwt>
<pdfrwt beam="2">  1       21 0.24061078E-01 0.12500000E+03</pdfrwt>
<totfact> 0.66994320E+06</totfact>
</mgrwt>
</event>
<event>
 3    1  0.1604658E-001  0.1250000E+03  0.7546771E-02  0.1235069E+00
         21   -1    0    0  502  501  0.00000000000E+00  0.00000000000E+00  0.58144758668E+03  0.58144758668E+03  0.00000000000E+00 0.  1.
         21   -1    0    0  501  502 -0.00000000000E+00 -0.00000000000E+00 -0.67181463807E+01  0.67181463807E+01  0.00000000000E+00 0.  1.
         25    1    1    2    0    0  0.00000000000E+00  0.00000000000E+00  0.57472944030E+03  0.58816573306E+03  0.12500000000E+03 0.  0.
<mgrwt>
<rscale>  0 0.12500000E+03</rscale>
<asrwt>0</asrwt>
<pdfrwt beam="1">  1       21 0.89453435E-01 0.12500000E+03</pdfrwt>
<pdfrwt beam="2">  1       21 0.10335614E-02 0.12500000E+03</pdfrwt>
<totfact> 0.37633359E+06</totfact>
</mgrwt>
</event>
<event>
 3    1  0.1604658E-001  0.1250000E+03  0.7546771E-02  0.1235069E+00
         21   -1    0    0  502  501  0.00000000000E+00  0.00000000000E+00  0.14323524182E+01  0.14323524182E+01  0.00000000000E+00 0. -1.
         21   -1    0    0  501  502 -0.00000000000E+00 -0.00000000000E+00 -0.27271570532E+04  0.27271570532E+04  0.00000000000E+00 0. -1.
         25    1    1    2    0    0  0.00000000000E+00  0.00000000000E+00 -0.27257247007E+04  0.27285894056E+04  0.12500000000E+03 0.  0.
<mgrwt>
<rscale>  0 0.12500000E+03</rscale>
<asrwt>0</asrwt>
<pdfrwt beam="1">  1       21 0.22036380E-03 0.12500000E+03</pdfrwt>
<pdfrwt beam="2">  1       21 0.41955903E+00 0.12500000E+03</pdfrwt>
<totfact> 0.27977305E+05</totfact>
</mgrwt>
</event>
<event>
 3    1  0.1604658E-001  0.1250000E+03  0.7546771E-02  0.1235069E+00
         21   -1    0    0  502  501  0.00000000000E+00  0.00000000000E+00  0.10881388667E+03  0.10881388667E+03  0.00000000000E+00 0.  1.
         21   -1    0    0  501  502 -0.00000000000E+00 -0.00000000000E+00 -0.35898451197E+02  0.35898451197E+02  0.00000000000E+00 0.  1.
         25    1    1    2    0    0  0.00000000000E+00  0.00000000000E+00  0.72915435469E+02  0.14471233786E+03  0.12500000000E+03 0.  0.
<mgrwt>
<rscale>  0 0.12500000E+03</rscale>
<asrwt>0</asrwt>
<pdfrwt beam="1">  1       21 0.16740598E-01 0.12500000E+03</pdfrwt>
<pdfrwt beam="2">  1       21 0.55228387E-02 0.12500000E+03</pdfrwt>
<totfact> 0.71429932E+06</totfact>
</mgrwt>
</event>
<event>
 3    1  0.1604658E-001  0.1250000E+03  0.7546771E-02  0.1235069E+00
         21   -1    0    0  502  501  0.00000000000E+00  0.00000000000E+00  0.39829466353E+02  0.39829466353E+02  0.00000000000E+00 0.  1.
         21   -1    0    0  501  502 -0.00000000000E+00 -0.00000000000E+00 -0.98074374519E+02  0.98074374519E+02  0.00000000000E+00 0.  1.
         25    1    1    2    0    0  0.00000000000E+00  0.00000000000E+00 -0.58244908166E+02  0.13790384087E+03  0.12500000000E+03 0.  0.
<mgrwt>
<rscale>  0 0.12500000E+03</rscale>
<asrwt>0</asrwt>
<pdfrwt beam="1">  1       21 0.61276102E-02 0.12500000E+03</pdfrwt>
<pdfrwt beam="2">  1       21 0.15088365E-01 0.12500000E+03</pdfrwt>
<totfact> 0.72314153E+06</totfact>
</mgrwt>
</event>
<event>
 3    1  0.1604658E-001  0.1250000E+03  0.7546771E-02  0.1235069E+00
         21   -1    0    0  502  501  0.00000000000E+00  0.00000000000E+00  0.34857248036E+03  0.34857248036E+03  0.00000000000E+00 0.  1.
         21   -1    0    0  501  502 -0.00000000000E+00 -0.00000000000E+00 -0.11206421103E+02  0.11206421103E+02  0.00000000000E+00 0.  1.
         25    1    1    2    0    0  0.00000000000E+00  0.00000000000E+00  0.33736605926E+03  0.35977890146E+03  0.12500000000E+03 0.  0.
<mgrwt>
<rscale>  0 0.12500000E+03</rscale>
<asrwt>0</asrwt>
<pdfrwt beam="1">  1       21 0.53626527E-01 0.12500000E+03</pdfrwt>
<pdfrwt beam="2">  1       21 0.17240651E-02 0.12500000E+03</pdfrwt>
<totfact> 0.50824246E+06</totfact>
</mgrwt>
</event>
<event>
 3    1  0.1604658E-001  0.1250000E+03  0.7546771E-02  0.1235069E+00
         21   -1    0    0  502  501  0.00000000000E+00  0.00000000000E+00  0.31847286046E+02  0.31847286046E+02  0.00000000000E+00 0.  1.
         21   -1    0    0  501  502 -0.00000000000E+00 -0.00000000000E+00 -0.12265566348E+03  0.12265566348E+03  0.00000000000E+00 0.  1.
         25    1    1    2    0    0  0.00000000000E+00  0.00000000000E+00 -0.90808377433E+02  0.15450294953E+03  0.12500000000E+03 0.  0.
<mgrwt>
<rscale>  0 0.12500000E+03</rscale>
<asrwt>0</asrwt>
<pdfrwt beam="1">  1       21 0.48995825E-02 0.12500000E+03</pdfrwt>
<pdfrwt beam="2">  1       21 0.18870102E-01 0.12500000E+03</pdfrwt>
<totfact> 0.70197488E+06</totfact>
</mgrwt>
</event>
<event>
 3    1  0.1604658E-001  0.1250000E+03  0.7546771E-02  0.1235069E+00
         21   -1    0    0  502  501  0.00000000000E+00  0.00000000000E+00  0.10656373219E+04  0.10656373219E+04  0.00000000000E+00 0.  1.
         21   -1    0    0  501  502 -0.00000000000E+00 -0.00000000000E+00 -0.36656467634E+01  0.36656467634E+01  0.00000000000E+00 0.  1.
         25    1    1    2    0    0  0.00000000000E+00  0.00000000000E+00  0.10619716752E+04  0.10693029687E+04  0.12500000000E+03 0.  0.
<mgrwt>
<rscale>  0 0.12500000E+03</rscale>
<asrwt>0</asrwt>
<pdfrwt beam="1">  1       21 0.16394396E+00 0.12500000E+03</pdfrwt>
<pdfrwt beam="2">  1       21 0.56394651E-03 0.12500000E+03</pdfrwt>
<totfact> 0.21947381E+06</totfact>
</mgrwt>
</event>
<event>
 3    1  0.1604658E-001  0.1250000E+03  0.7546771E-02  0.1235069E+00
         21   -1    0    0  502  501  0.00000000000E+00  0.00000000000E+00  0.77420073068E+02  0.77420073068E+02  0.00000000000E+00 0. -1.
         21   -1    0    0  501  502 -0.00000000000E+00 -0.00000000000E+00 -0.50455261087E+02  0.50455261087E+02  0.00000000000E+00 0. -1.
         25    1    1    2    0    0  0.00000000000E+00  0.00000000000E+00  0.26964811982E+02  0.12787533415E+03  0.12500000000E+03 0.  0.
<mgrwt>
<rscale>  0 0.12500000E+03</rscale>
<asrwt>0</asrwt>
<pdfrwt beam="1">  1       21 0.11910780E-01 0.12500000E+03</pdfrwt>
<pdfrwt beam="2">  1       21 0.77623479E-02 0.12500000E+03</pdfrwt>
<totfact> 0.73650407E+06</totfact>
</mgrwt>
</event>
<event>
 3    1  0.1604658E-001  0.1250000E+03  0.7546771E-02  0.1235069E+00
         21   -1    0    0  502  501  0.00000000000E+00  0.00000000000E+00  0.33484823630E+02  0.33484823630E+02  0.00000000000E+00 0.  1.
         21   -1    0    0  501  502 -0.00000000000E+00 -0.00000000000E+00 -0.11665732641E+03  0.11665732641E+03  0.00000000000E+00 0.  1.
         25    1    1    2    0    0  0.00000000000E+00  0.00000000000E+00 -0.83172502779E+02  0.15014215004E+03  0.12500000000E+03 0.  0.
<mgrwt>
<rscale>  0 0.12500000E+03</rscale>
<asrwt>0</asrwt>
<pdfrwt beam="1">  1       21 0.51515112E-02 0.12500000E+03</pdfrwt>
<pdfrwt beam="2">  1       21 0.17947281E-01 0.12500000E+03</pdfrwt>
<totfact> 0.70741349E+06</totfact>
</mgrwt>
</event>
<event>
 3    1  0.1604658E-001  0.1250000E+03  0.7546771E-02  0.1235069E+00
         21   -1    0    0  502  501  0.00000000000E+00  0.00000000000E+00  0.76852632789E+02  0.76852632789E+02  0.00000000000E+00 0. -1.
         21   -1    0    0  501  502 -0.00000000000E+00 -0.00000000000E+00 -0.50827796762E+02  0.50827796762E+02  0.00000000000E+00 0. -1.
         25    1    1    2    0    0  0.00000000000E+00  0.00000000000E+00  0.26024836027E+02  0.12768042955E+03  0.12500000000E+03 0.  0.
<mgrwt>
<rscale>  0 0.12500000E+03</rscale>
<asrwt>0</asrwt>
<pdfrwt beam="1">  1       21 0.11823482E-01 0.12500000E+03</pdfrwt>
<pdfrwt beam="2">  1       21 0.78196610E-02 0.12500000E+03</pdfrwt>
<totfact> 0.73676775E+06</totfact>
</mgrwt>
</event>
<event>
 3    1  0.1604658E-001  0.1250000E+03  0.7546771E-02  0.1235069E+00
         21   -1    0    0  502  501  0.00000000000E+00  0.00000000000E+00  0.22355119818E+03  0.22355119818E+03  0.00000000000E+00 0.  1.
         21   -1    0    0  501  502 -0.00000000000E+00 -0.00000000000E+00 -0.17473625871E+02  0.17473625871E+02  0.00000000000E+00 0.  1.
         25    1    1    2    0    0  0.00000000000E+00  0.00000000000E+00  0.20607757231E+03  0.24102482405E+03  0.12500000000E+03 0.  0.
<mgrwt>
<rscale>  0 0.12500000E+03</rscale>
<asrwt>0</asrwt>
<pdfrwt beam="1">  1       21 0.34392490E-01 0.12500000E+03</pdfrwt>
<pdfrwt beam="2">  1       21 0.26882503E-02 0.12500000E+03</pdfrwt>
<totfact> 0.60733634E+06</totfact>
</mgrwt>
</event>
<event>
 3    1  0.1604658E-001  0.1250000E+03  0.7546771E-02  0.1235069E+00
         21   -1    0    0  502  501  0.00000000000E+00  0.00000000000E+00  0.31294794542E+02  0.31294794542E+02  0.00000000000E+00 0. -1.
         21   -1    0    0  501  502 -0.00000000000E+00 -0.00000000000E+00 -0.12482107830E+03  0.12482107830E+03  0.00000000000E+00 0. -1.
         25    1    1    2    0    0  0.00000000000E+00  0.00000000000E+00 -0.93526283761E+02  0.15611587285E+03  0.12500000000E+03 0.  0.
<mgrwt>
<rscale>  0 0.12500000E+03</rscale>
<asrwt>0</asrwt>
<pdfrwt beam="1">  1       21 0.48145839E-02 0.12500000E+03</pdfrwt>
<pdfrwt beam="2">  1       21 0.19203242E-01 0.12500000E+03</pdfrwt>
<totfact> 0.69997235E+06</totfact>
</mgrwt>
</event>
<event>
 3    1  0.1604658E-001  0.1250000E+03  0.7546771E-02  0.1235069E+00
         21   -1    0    0  502  501  0.00000000000E+00  0.00000000000E+00  0.21192610145E+03  0.21192610145E+03  0.00000000000E+00 0.  1.
         21   -1    0    0  501  502 -0.00000000000E+00 -0.00000000000E+00 -0.18432132584E+02  0.18432132584E+02  0.00000000000E+00 0.  1.
         25    1    1    2    0    0  0.00000000000E+00  0.00000000000E+00  0.19349396887E+03  0.23035823403E+03  0.12500000000E+03 0.  0.
<mgrwt>
<rscale>  0 0.12500000E+03</rscale>
<asrwt>0</asrwt>
<pdfrwt beam="1">  1       21 0.32604014E-01 0.12500000E+03</pdfrwt>
<pdfrwt beam="2">  1       21 0.28357128E-02 0.12500000E+03</pdfrwt>
<totfact> 0.61778348E+06</totfact>
</mgrwt>
</event>
<event>
 3    1  0.1604658E-001  0.1250000E+03  0.7546771E-02  0.1235069E+00
         21   -1    0    0  502  501  0.00000000000E+00  0.00000000000E+00  0.16082868186E+03  0.16082868186E+03  0.00000000000E+00 0.  1.
         21   -1    0    0  501  502 -0.00000000000E+00 -0.00000000000E+00 -0.24288267210E+02  0.24288267210E+02  0.00000000000E+00 0.  1.
         25    1    1    2    0    0  0.00000000000E+00  0.00000000000E+00  0.13654041465E+03  0.18511694907E+03  0.12500000000E+03 0.  0.
<mgrwt>
<rscale>  0 0.12500000E+03</rscale>
<asrwt>0</asrwt>
<pdfrwt beam="1">  1       21 0.24742873E-01 0.12500000E+03</pdfrwt>
<pdfrwt beam="2">  1       21 0.37366566E-02 0.12500000E+03</pdfrwt>
<totfact> 0.66569329E+06</totfact>
</mgrwt>
</event>
<event>
 3    1  0.1604658E-001  0.1250000E+03  0.7546771E-02  0.1235069E+00
         21   -1    0    0  502  501  0.00000000000E+00  0.00000000000E+00  0.61229482599E+02  0.61229482599E+02  0.00000000000E+00 0.  1.
         21   -1    0    0  501  502 -0.00000000000E+00 -0.00000000000E+00 -0.63796880754E+02  0.63796880754E+02  0.00000000000E+00 0.  1.
         25    1    1    2    0    0  0.00000000000E+00  0.00000000000E+00 -0.25673981551E+01  0.12502636335E+03  0.12500000000E+03 0.  0.
<mgrwt>
<rscale>  0 0.12500000E+03</rscale>
<asrwt>0</asrwt>
<pdfrwt beam="1">  1       21 0.94199204E-02 0.12500000E+03</pdfrwt>
<pdfrwt beam="2">  1       21 0.98149047E-02 0.12500000E+03</pdfrwt>
<totfact> 0.74040021E+06</totfact>
</mgrwt>
</event>
<event>
 3    1  0.1604658E-001  0.1250000E+03  0.7546771E-02  0.1235069E+00
         21   -1    0    0  502  501  0.00000000000E+00  0.00000000000E+00  0.26345410971E+03  0.26345410971E+03  0.00000000000E+00 0. -1.
         21   -1    0    0  501  502 -0.00000000000E+00 -0.00000000000E+00 -0.14827060410E+02  0.14827060410E+02  0.00000000000E+00 0. -1.
         25    1    1    2    0    0  0.00000000000E+00  0.00000000000E+00  0.24862704930E+03  0.27828117012E+03  0.12500000000E+03 0.  0.
<mgrwt>
<rscale>  0 0.12500000E+03</rscale>
<asrwt>0</asrwt>
<pdfrwt beam="1">  1       21 0.40531398E-01 0.12500000E+03</pdfrwt>
<pdfrwt beam="2">  1       21 0.22810864E-02 0.12500000E+03</pdfrwt>
<totfact> 0.57310814E+06</totfact>
</mgrwt>
</event>
<event>
 3    1  0.1604658E-001  0.1250000E+03  0.7546771E-02  0.1235069E+00
         21   -1    0    0  502  501  0.00000000000E+00  0.00000000000E+00  0.23620078896E+01  0.23620078896E+01  0.00000000000E+00 0. -1.
         21   -1    0    0  501  502 -0.00000000000E+00 -0.00000000000E+00 -0.16537836377E+04  0.16537836377E+04  0.00000000000E+00 0. -1.
         25    1    1    2    0    0  0.00000000000E+00  0.00000000000E+00 -0.16514216298E+04  0.16561456456E+04  0.12500000000E+03 0.  0.
<mgrwt>
<rscale>  0 0.12500000E+03</rscale>
<asrwt>0</asrwt>
<pdfrwt beam="1">  1       21 0.36338463E-03 0.12500000E+03</pdfrwt>
<pdfrwt beam="2">  1       21 0.25442909E+00 0.12500000E+03</pdfrwt>
<totfact> 0.11827891E+06</totfact>
</mgrwt>
</event>
<event>
 3    1  0.1604658E-001  0.1250000E+03  0.7546771E-02  0.1235069E+00
         21   -1    0    0  502  501  0.00000000000E+00  0.00000000000E+00  0.16560384344E+03  0.16560384344E+03  0.00000000000E+00 0.  1.
         21   -1    0    0  501  502 -0.00000000000E+00 -0.00000000000E+00 -0.23587918728E+02  0.23587918728E+02  0.00000000000E+00 0.  1.
         25    1    1    2    0    0  0.00000000000E+00  0.00000000000E+00  0.14201592471E+03  0.18919176217E+03  0.12500000000E+03 0.  0.
<mgrwt>
<rscale>  0 0.12500000E+03</rscale>
<asrwt>0</asrwt>
<pdfrwt beam="1">  1       21 0.25477514E-01 0.12500000E+03</pdfrwt>
<pdfrwt beam="2">  1       21 0.36289107E-02 0.12500000E+03</pdfrwt>
<totfact> 0.66112405E+06</totfact>
</mgrwt>
</event>
<event>
 3    1  0.1604658E-001  0.1250000E+03  0.7546771E-02  0.1235069E+00
         21   -1    0    0  502  501  0.00000000000E+00  0.00000000000E+00  0.15641567424E+02  0.15641567424E+02  0.00000000000E+00 0. -1.
         21   -1    0    0  501  502 -0.00000000000E+00 -0.00000000000E+00 -0.24973520199E+03  0.24973520199E+03  0.00000000000E+00 0. -1.
         25    1    1    2    0    0  0.00000000000E+00  0.00000000000E+00 -0.23409363456E+03  0.26537676941E+03  0.12500000000E+03 0.  0.
<mgrwt>
<rscale>  0 0.12500000E+03</rscale>
<asrwt>0</asrwt>
<pdfrwt beam="1">  1       21 0.24063951E-02 0.12500000E+03</pdfrwt>
<pdfrwt beam="2">  1       21 0.38420799E-01 0.12500000E+03</pdfrwt>
<totfact> 0.58459941E+06</totfact>
</mgrwt>
</event>
<event>
 3    1  0.1604658E-001  0.1250000E+03  0.7546771E-02  0.1235069E+00
         21   -1    0    0  502  501  0.00000000000E+00  0.00000000000E+00  0.50844260338E+02  0.50844260338E+02  0.00000000000E+00 0.  1.
         21   -1    0    0  501  502 -0.00000000000E+00 -0.00000000000E+00 -0.76827747597E+02  0.76827747597E+02  0.00000000000E+00 0.  1.
         25    1    1    2    0    0  0.00000000000E+00  0.00000000000E+00 -0.25983487259E+02  0.12767200793E+03  0.12500000000E+03 0.  0.
<mgrwt>
<rscale>  0 0.12500000E+03</rscale>
<asrwt>0</asrwt>
<pdfrwt beam="1">  1       21 0.78221939E-02 0.12500000E+03</pdfrwt>
<pdfrwt beam="2">  1       21 0.11819653E-01 0.12500000E+03</pdfrwt>
<totfact> 0.73677915E+06</totfact>
</mgrwt>
</event>
<event>
 3    1  0.1604658E-001  0.1250000E+03  0.7546771E-02  0.1235069E+00
         21   -1    0    0  502  501  0.00000000000E+00  0.00000000000E+00  0.10157980373E+03  0.10157980373E+03  0.00000000000E+00 0. -1.
         21   -1    0    0  501  502 -0.00000000000E+00 -0.00000000000E+00 -0.38454986685E+02  0.38454986685E+02  0.00000000000E+00 0. -1.
         25    1    1    2    0    0  0.00000000000E+00  0.00000000000E+00  0.63124817049E+02  0.14003479042E+03  0.12500000000E+03 0.  0.
<mgrwt>
<rscale>  0 0.12500000E+03</rscale>
<asrwt>0</asrwt>
<pdfrwt beam="1">  1       21 0.15627662E-01 0.12500000E+03</pdfrwt>
<pdfrwt beam="2">  1       21 0.59161518E-02 0.12500000E+03</pdfrwt>
<totfact> 0.72034767E+06</totfact>
</mgrwt>
</event>
<event>
 3    1  0.1604658E-001  0.1250000E+03  0.7546771E-02  0.1235069E+00
         21   -1    0    0  502  501  0.00000000000E+00  0.00000000000E+00  0.49717466073E+03  0.49717466073E+03  0.00000000000E+00 0.  1.
         21   -1    0    0  501  502 -0.00000000000E+00 -0.00000000000E+00 -0.78568967981E+01  0.78568967981E+01  0.00000000000E+00 0.  1.
         25    1    1    2    0    0  0.00000000000E+00  0.00000000000E+00  0.48931776393E+03  0.50503155753E+03  0.12500000000E+03 0.  0.
<mgrwt>
<rscale>  0 0.12500000E+03</rscale>
<asrwt>0</asrwt>
<pdfrwt beam="1">  1       21 0.76488384E-01 0.12500000E+03</pdfrwt>
<pdfrwt beam="2">  1       21 0.12087537E-02 0.12500000E+03</pdfrwt>
<totfact> 0.41772514E+06</totfact>
</mgrwt>
</event>
<event>
 3    1  0.1604658E-001  0.1250000E+03  0.7546771E-02  0.1235069E+00
         21   -1    0    0  502  501  0.00000000000E+00  0.00000000000E+00  0.28442230692E+02  0.28442230692E+02  0.00000000000E+00 0.  1.
         21   -1    0    0  501  502 -0.00000000000E+00 -0.00000000000E+00 -0.13733979034E+03  0.13733979034E+03  0.00000000000E+00 0.  1.
         25    1    1    2    0    0  0.00000000000E+00  0.00000000000E+00 -0.10889755965E+03  0.16578202103E+03  0.12500000000E+03 0.  0.
<mgrwt>
<rscale>  0 0.12500000E+03</rscale>
<asrwt>0</asrwt>
<pdfrwt beam="1">  1       21 0.43757278E-02 0.12500000E+03</pdfrwt>
<pdfrwt beam="2">  1       21 0.21129198E-01 0.12500000E+03</pdfrwt>
<totfact> 0.68819807E+06</totfact>
</mgrwt>
</event>
<event>
 3    1  0.1604658E-001  0.1250000E+03  0.7546771E-02  0.1235069E+00
         21   -1    0    0  502  501  0.00000000000E+00  0.00000000000E+00  0.35576886697E+03  0.35576886697E+03  0.00000000000E+00 0.  1.
         21   -1    0    0  501  502 -0.00000000000E+00 -0.00000000000E+00 -0.10979740957E+02  0.10979740957E+02  0.00000000000E+00 0.  1.
         25    1    1    2    0    0  0.00000000000E+00  0.00000000000E+00  0.34478912602E+03  0.36674860793E+03  0.12500000000E+03 0.  0.
<mgrwt>
<rscale>  0 0.12500000E+03</rscale>
<asrwt>0</asrwt>
<pdfrwt beam="1">  1       21 0.54733663E-01 0.12500000E+03</pdfrwt>
<pdfrwt beam="2">  1       21 0.16891912E-02 0.12500000E+03</pdfrwt>
<totfact> 0.50324794E+06</totfact>
</mgrwt>
</event>
<event>
 3    1  0.1604658E-001  0.1250000E+03  0.7546771E-02  0.1235069E+00
         21   -1    0    0  502  501  0.00000000000E+00  0.00000000000E+00  0.83158659527E+03  0.83158659527E+03  0.00000000000E+00 0.  1.
         21   -1    0    0  501  502 -0.00000000000E+00 -0.00000000000E+00 -0.46973460397E+01  0.46973460397E+01  0.00000000000E+00 0.  1.
         25    1    1    2    0    0  0.00000000000E+00  0.00000000000E+00  0.82688924923E+03  0.83628394131E+03  0.12500000000E+03 0.  0.
<mgrwt>
<rscale>  0 0.12500000E+03</rscale>
<asrwt>0</asrwt>
<pdfrwt beam="1">  1       21 0.12793628E+00 0.12500000E+03</pdfrwt>
<pdfrwt beam="2">  1       21 0.72266928E-03 0.12500000E+03</pdfrwt>
<totfact> 0.28195426E+06</totfact>
</mgrwt>
</event>
<event>
 3    1  0.1604658E-001  0.1250000E+03  0.7546771E-02  0.1235069E+00
         21   -1    0    0  502  501  0.00000000000E+00  0.00000000000E+00  0.50373464787E+02  0.50373464787E+02  0.00000000000E+00 0. -1.
         21   -1    0    0  501  502 -0.00000000000E+00 -0.00000000000E+00 -0.77545787579E+02  0.77545787579E+02  0.00000000000E+00 0. -1.
         25    1    1    2    0    0  0.00000000000E+00  0.00000000000E+00 -0.27172322793E+02  0.12791925237E+03  0.12500000000E+03 0.  0.
<mgrwt>
<rscale>  0 0.12500000E+03</rscale>
<asrwt>0</asrwt>
<pdfrwt beam="1">  1       21 0.77497638E-02 0.12500000E+03</pdfrwt>
<pdfrwt beam="2">  1       21 0.11930121E-01 0.12500000E+03</pdfrwt>
<totfact> 0.73644470E+06</totfact>
</mgrwt>
</event>
<event>
 3    1  0.1604658E-001  0.1250000E+03  0.7546771E-02  0.1235069E+00
         21   -1    0    0  502  501  0.00000000000E+00  0.00000000000E+00  0.19087860160E+03  0.19087860160E+03  0.00000000000E+00 0. -1.
         21   -1    0    0  501  502 -0.00000000000E+00 -0.00000000000E+00 -0.20464577838E+02  0.20464577838E+02  0.00000000000E+00 0. -1.
         25    1    1    2    0    0  0.00000000000E+00  0.00000000000E+00  0.17041402376E+03  0.21134317944E+03  0.12500000000E+03 0.  0.
<mgrwt>
<rscale>  0 0.12500000E+03</rscale>
<asrwt>0</asrwt>
<pdfrwt beam="1">  1       21 0.29365938E-01 0.12500000E+03</pdfrwt>
<pdfrwt beam="2">  1       21 0.31483967E-02 0.12500000E+03</pdfrwt>
<totfact> 0.63718495E+06</totfact>
</mgrwt>
</event>
<event>
 3    1  0.1604658E-001  0.1250000E+03  0.7546771E-02  0.1235069E+00
         21   -1    0    0  502  501  0.00000000000E+00  0.00000000000E+00  0.58687359813E+01  0.58687359813E+01  0.00000000000E+00 0. -1.
         21   -1    0    0  501  502 -0.00000000000E+00 -0.00000000000E+00 -0.66560329387E+03  0.66560329387E+03  0.00000000000E+00 0. -1.
         25    1    1    2    0    0  0.00000000000E+00  0.00000000000E+00 -0.65973455789E+03  0.67147202985E+03  0.12500000000E+03 0.  0.
<mgrwt>
<rscale>  0 0.12500000E+03</rscale>
<asrwt>0</asrwt>
<pdfrwt beam="1">  1       21 0.90288237E-03 0.12500000E+03</pdfrwt>
<pdfrwt beam="2">  1       21 0.10240052E+00 0.12500000E+03</pdfrwt>
<totfact> 0.34039256E+06</totfact>
</mgrwt>
</event>
<event>
 3    1  0.1604658E-001  0.1250000E+03  0.7546771E-02  0.1235069E+00
         21   -1    0    0  502  501  0.00000000000E+00  0.00000000000E+00  0.13279897357E+03  0.13279897357E+03  0.00000000000E+00 0. -1.
         21   -1    0    0  501  502 -0.00000000000E+00 -0.00000000000E+00 -0.29414760483E+02  0.29414760483E+02  0.00000000000E+00 0. -1.
         25    1    1    2    0    0  0.00000000000E+00  0.00000000000E+00  0.10338421309E+03  0.16221373405E+03  0.12500000000E+03 0.  0.
<mgrwt>
<rscale>  0 0.12500000E+03</rscale>
<asrwt>0</asrwt>
<pdfrwt beam="1">  1       21 0.20430611E-01 0.12500000E+03</pdfrwt>
<pdfrwt beam="2">  1       21 0.45253479E-02 0.12500000E+03</pdfrwt>
<totfact> 0.69250008E+06</totfact>
</mgrwt>
</event>
<event>
 3    1  0.1604658E-001  0.1250000E+03  0.7546771E-02  0.1235069E+00
         21   -1    0    0  502  501  0.00000000000E+00  0.00000000000E+00  0.17234448344E+01  0.17234448344E+01  0.00000000000E+00 0. -1.
         21   -1    0    0  501  502 -0.00000000000E+00 -0.00000000000E+00 -0.22665361386E+04  0.22665361386E+04  0.00000000000E+00 0. -1.
         25    1    1    2    0    0  0.00000000000E+00  0.00000000000E+00 -0.22648126937E+04  0.22682595834E+04  0.12500000000E+03 0.  0.
<mgrwt>
<rscale>  0 0.12500000E+03</rscale>
<asrwt>0</asrwt>
<pdfrwt beam="1">  1       21 0.26514633E-03 0.12500000E+03</pdfrwt>
<pdfrwt beam="2">  1       21 0.34869659E+00 0.12500000E+03</pdfrwt>
<totfact> 0.56155207E+05</totfact>
</mgrwt>
</event>
<event>
 3    1  0.1604658E-001  0.1250000E+03  0.7546771E-02  0.1235069E+00
         21   -1    0    0  502  501  0.00000000000E+00  0.00000000000E+00  0.80283389494E+02  0.80283389494E+02  0.00000000000E+00 0.  1.
         21   -1    0    0  501  502 -0.00000000000E+00 -0.00000000000E+00 -0.48655768331E+02  0.48655768331E+02  0.00000000000E+00 0.  1.
         25    1    1    2    0    0  0.00000000000E+00  0.00000000000E+00  0.31627621163E+02  0.12893915782E+03  0.12500000000E+03 0.  0.
<mgrwt>
<rscale>  0 0.12500000E+03</rscale>
<asrwt>0</asrwt>
<pdfrwt beam="1">  1       21 0.12351291E-01 0.12500000E+03</pdfrwt>
<pdfrwt beam="2">  1       21 0.74855028E-02 0.12500000E+03</pdfrwt>
<totfact> 0.73507053E+06</totfact>
</mgrwt>
</event>
<event>
 3    1  0.1604658E-001  0.1250000E+03  0.7546771E-02  0.1235069E+00
         21   -1    0    0  502  501  0.00000000000E+00  0.00000000000E+00  0.71152883611E+03  0.71152883611E+03  0.00000000000E+00 0. -1.
         21   -1    0    0  501  502 -0.00000000000E+00 -0.00000000000E+00 -0.54899391307E+01  0.54899391307E+01  0.00000000000E+00 0. -1.
         25    1    1    2    0    0  0.00000000000E+00  0.00000000000E+00  0.70603889698E+03  0.71701877524E+03  0.12500000000E+03 0.  0.
<mgrwt>
<rscale>  0 0.12500000E+03</rscale>
<asrwt>0</asrwt>
<pdfrwt beam="1">  1       21 0.10946590E+00 0.12500000E+03</pdfrwt>
<pdfrwt beam="2">  1       21 0.84460658E-03 0.12500000E+03</pdfrwt>
<totfact> 0.32264270E+06</totfact>
</mgrwt>
</event>
<event>
 3    1  0.1604658E-001  0.1250000E+03  0.7546771E-02  0.1235069E+00
         21   -1    0    0  502  501  0.00000000000E+00  0.00000000000E+00  0.47102923221E+01  0.47102923221E+01  0.00000000000E+00 0.  1.
         21   -1    0    0  501  502 -0.00000000000E+00 -0.00000000000E+00 -0.82930097176E+03  0.82930097176E+03  0.00000000000E+00 0.  1.
         25    1    1    2    0    0  0.00000000000E+00  0.00000000000E+00 -0.82459067944E+03  0.83401126409E+03  0.12500000000E+03 0.  0.
<mgrwt>
<rscale>  0 0.12500000E+03</rscale>
<asrwt>0</asrwt>
<pdfrwt beam="1">  1       21 0.72465976E-03 0.12500000E+03</pdfrwt>
<pdfrwt beam="2">  1       21 0.12758487E+00 0.12500000E+03</pdfrwt>
<totfact> 0.28266495E+06</totfact>
</mgrwt>
</event>
<event>
 3    1  0.1604658E-001  0.1250000E+03  0.7546771E-02  0.1235069E+00
         21   -1    0    0  502  501  0.00000000000E+00  0.00000000000E+00  0.20374288457E+03  0.20374288457E+03  0.00000000000E+00 0. -1.
         21   -1    0    0  501  502 -0.00000000000E+00 -0.00000000000E+00 -0.19172448689E+02  0.19172448689E+02  0.00000000000E+00 0. -1.
         25    1    1    2    0    0  0.00000000000E+00  0.00000000000E+00  0.18457043588E+03  0.22291533325E+03  0.12500000000E+03 0.  0.
<mgrwt>
<rscale>  0 0.12500000E+03</rscale>
<asrwt>0</asrwt>
<pdfrwt beam="1">  1       21 0.31345058E-01 0.12500000E+03</pdfrwt>
<pdfrwt beam="2">  1       21 0.29496076E-02 0.12500000E+03</pdfrwt>
<totfact> 0.62525787E+06</totfact>
</mgrwt>
</event>
<event>
 3    1  0.1604658E-001  0.1250000E+03  0.7546771E-02  0.1235069E+00
         21   -1    0    0  502  501  0.00000000000E+00  0.00000000000E+00  0.44025640085E+03  0.44025640085E+03  0.00000000000E+00 0.  1.
         21   -1    0    0  501  502 -0.00000000000E+00 -0.00000000000E+00 -0.88726705448E+01  0.88726705448E+01  0.00000000000E+00 0.  1.
         25    1    1    2    0    0  0.00000000000E+00  0.00000000000E+00  0.43138373031E+03  0.44912907140E+03  0.12500000000E+03 0.  0.
<mgrwt>
<rscale>  0 0.12500000E+03</rscale>
<asrwt>0</asrwt>
<pdfrwt beam="1">  1       21 0.67731737E-01 0.12500000E+03</pdfrwt>
<pdfrwt beam="2">  1       21 0.13650266E-02 0.12500000E+03</pdfrwt>
<totfact> 0.44944436E+06</totfact>
</mgrwt>
</event>
<event>
 3    1  0.1604658E-001  0.1250000E+03  0.7546771E-02  0.1235069E+00
         21   -1    0    0  502  501  0.00000000000E+00  0.00000000000E+00  0.24479490076E+03  0.24479490076E+03  0.00000000000E+00 0.  1.
         21   -1    0    0  501  502 -0.00000000000E+00 -0.00000000000E+00 -0.15957235988E+02  0.15957235988E+02  0.00000000000E+00 0.  1.
         25    1    1    2    0    0  0.00000000000E+00  0.00000000000E+00  0.22883766477E+03  0.26075213675E+03  0.12500000000E+03 0.  0.
<mgrwt>
<rscale>  0 0.12500000E+03</rscale>
<asrwt>0</asrwt>
<pdfrwt beam="1">  1       21 0.37660751E-01 0.12500000E+03</pdfrwt>
<pdfrwt beam="2">  1       21 0.24549596E-02 0.12500000E+03</pdfrwt>
<totfact> 0.58880403E+06</totfact>
</mgrwt>
</event>
<event>
 3    1  0.1604658E-001  0.1250000E+03  0.7546771E-02  0.1235069E+00
         21   -1    0    0  502  501  0.00000000000E+00  0.00000000000E+00  0.65382773944E+02  0.65382773944E+02  0.00000000000E+00 0.  1.
         21   -1    0    0  501  502 -0.00000000000E+00 -0.00000000000E+00 -0.59744329651E+02  0.59744329651E+02  0.00000000000E+00 0.  1.
         25    1    1    2    0    0  0.00000000000E+00  0.00000000000E+00  0.56384442934E+01  0.12512710359E+03  0.12500000000E+03 0.  0.
<mgrwt>
<rscale>  0 0.12500000E+03</rscale>
<asrwt>0</asrwt>
<pdfrwt beam="1">  1       21 0.10058888E-01 0.12500000E+03</pdfrwt>
<pdfrwt beam="2">  1       21 0.91914354E-02 0.12500000E+03</pdfrwt>
<totfact> 0.74026415E+06</totfact>
</mgrwt>
</event>
<event>
 3    1  0.1604658E-001  0.1250000E+03  0.7546771E-02  0.1235069E+00
         21   -1    0    0  502  501  0.00000000000E+00  0.00000000000E+00  0.11725720610E+03  0.11725720610E+03  0.00000000000E+00 0. -1.
         21   -1    0    0  501  502 -0.00000000000E+00 -0.00000000000E+00 -0.33313517608E+02  0.33313517608E+02  0.00000000000E+00 0. -1.
         25    1    1    2    0    0  0.00000000000E+00  0.00000000000E+00  0.83943688488E+02  0.15057072370E+03  0.12500000000E+03 0.  0.
<mgrwt>
<rscale>  0 0.12500000E+03</rscale>
<asrwt>0</asrwt>
<pdfrwt beam="1">  1       21 0.18039570E-01 0.12500000E+03</pdfrwt>
<pdfrwt beam="2">  1       21 0.51251566E-02 0.12500000E+03</pdfrwt>
<totfact> 0.70687581E+06</totfact>
</mgrwt>
</event>
<event>
 3    1  0.1604658E-001  0.1250000E+03  0.7546771E-02  0.1235069E+00
         21   -1    0    0  502  501  0.00000000000E+00  0.00000000000E+00  0.19761900880E+03  0.19761900880E+03  0.00000000000E+00 0. -1.
         21   -1    0    0  501  502 -0.00000000000E+00 -0.00000000000E+00 -0.19766570148E+02  0.19766570148E+02  0.00000000000E+00 0. -1.
         25    1    1    2    0    0  0.00000000000E+00  0.00000000000E+00  0.17785243866E+03  0.21738557895E+03  0.12500000000E+03 0.  0.
<mgrwt>
<rscale>  0 0.12500000E+03</rscale>
<asrwt>0</asrwt>
<pdfrwt beam="1">  1       21 0.30402923E-01 0.12500000E+03</pdfrwt>
<pdfrwt beam="2">  1       21 0.30410109E-02 0.12500000E+03</pdfrwt>
<totfact> 0.63090768E+06</totfact>
</mgrwt>
</event>
<event>
 3    1  0.1604658E-001  0.1250000E+03  0.7546771E-02  0.1235069E+00
         21   -1    0    0  502  501  0.00000000000E+00  0.00000000000E+00  0.16071101584E+01  0.16071101584E+01  0.00000000000E+00 0. -1.
         21   -1    0    0  501  502 -0.00000000000E+00 -0.00000000000E+00 -0.24306050083E+04  0.24306050083E+04  0.00000000000E+00 0. -1.
         25    1    1    2    0    0  0.00000000000E+00  0.00000000000E+00 -0.24289978981E+04  0.24322121185E+04  0.12500000000E+03 0.  0.
<mgrwt>
<rscale>  0 0.12500000E+03</rscale>
<asrwt>0</asrwt>
<pdfrwt beam="1">  1       21 0.24724863E-03 0.12500000E+03</pdfrwt>
<pdfrwt beam="2">  1       21 0.37393785E+00 0.12500000E+03</pdfrwt>
<totfact> 0.44501707E+05</totfact>
</mgrwt>
</event>
<event>
 3    1  0.1604658E-001  0.1250000E+03  0.7546771E-02  0.1235069E+00
         21   -1    0    0  502  501  0.00000000000E+00  0.00000000000E+00  0.14557341289E+03  0.14557341289E+03  0.00000000000E+00 0.  1.
         21   -1    0    0  501  502 -0.00000000000E+00 -0.00000000000E+00 -0.26833540016E+02  0.26833540016E+02  0.00000000000E+00 0.  1.
         25    1    1    2    0    0  0.00000000000E+00  0.00000000000E+00  0.11873987287E+03  0.17240695290E+03  0.12500000000E+03 0.  0.
<mgrwt>
<rscale>  0 0.12500000E+03</rscale>
<asrwt>0</asrwt>
<pdfrwt beam="1">  1       21 0.22395909E-01 0.12500000E+03</pdfrwt>
<pdfrwt beam="2">  1       21 0.41282370E-02 0.12500000E+03</pdfrwt>
<totfact> 0.68033444E+06</totfact>
</mgrwt>
</event>
<event>
 3    1  0.1604658E-001  0.1250000E+03  0.7546771E-02  0.1235069E+00
         21   -1    0    0  502  501  0.00000000000E+00  0.00000000000E+00  0.20385918501E+03  0.20385918501E+03  0.00000000000E+00 0. -1.
         21   -1    0    0  501  502 -0.00000000000E+00 -0.00000000000E+00 -0.19161510921E+02  0.19161510921E+02  0.00000000000E+00 0. -1.
         25    1    1    2    0    0  0.00000000000E+00  0.00000000000E+00  0.18469767409E+03  0.22302069594E+03  0.12500000000E+03 0.  0.
<mgrwt>
<rscale>  0 0.12500000E+03</rscale>
<asrwt>0</asrwt>
<pdfrwt beam="1">  1       21 0.31362950E-01 0.12500000E+03</pdfrwt>
<pdfrwt beam="2">  1       21 0.29479249E-02 0.12500000E+03</pdfrwt>
<totfact> 0.62515108E+06</totfact>
</mgrwt>
</event>
<event>
 3    1  0.1604658E-001  0.1250000E+03  0.7546771E-02  0.1235069E+00
         21   -1    0    0  502  501  0.00000000000E+00  0.00000000000E+00  0.22700641532E+01  0.22700641532E+01  0.00000000000E+00 0. -1.
         21   -1    0    0  501  502 -0.00000000000E+00 -0.00000000000E+00 -0.17207663468E+04  0.17207663468E+04  0.00000000000E+00 0. -1.
         25    1    1    2    0    0  0.00000000000E+00  0.00000000000E+00 -0.17184962827E+04  0.17230364110E+04  0.12500000000E+03 0.  0.
<mgrwt>
<rscale>  0 0.12500000E+03</rscale>
<asrwt>0</asrwt>
<pdfrwt beam="1">  1       21 0.34924244E-03 0.12500000E+03</pdfrwt>
<pdfrwt beam="2">  1       21 0.26473192E+00 0.12500000E+03</pdfrwt>
<totfact> 0.10984845E+06</totfact>
</mgrwt>
</event>
<event>
 3    1  0.1604658E-001  0.1250000E+03  0.7546771E-02  0.1235069E+00
         21   -1    0    0  502  501  0.00000000000E+00  0.00000000000E+00  0.40779011721E+01  0.40779011721E+01  0.00000000000E+00 0. -1.
         21   -1    0    0  501  502 -0.00000000000E+00 -0.00000000000E+00 -0.95790698087E+03  0.95790698087E+03  0.00000000000E+00 0. -1.
         25    1    1    2    0    0  0.00000000000E+00  0.00000000000E+00 -0.95382907970E+03  0.96198488204E+03  0.12500000000E+03 0.  0.
<mgrwt>
<rscale>  0 0.12500000E+03</rscale>
<asrwt>0</asrwt>
<pdfrwt beam="1">  1       21 0.62736948E-03 0.12500000E+03</pdfrwt>
<pdfrwt beam="2">  1       21 0.14737029E+00 0.12500000E+03</pdfrwt>
<totfact> 0.24593250E+06</totfact>
</mgrwt>
</event>
<event>
 3    1  0.1604658E-001  0.1250000E+03  0.7546771E-02  0.1235069E+00
         21   -1    0    0  502  501  0.00000000000E+00  0.00000000000E+00  0.57926446126E+02  0.57926446126E+02  0.00000000000E+00 0. -1.
         21   -1    0    0  501  502 -0.00000000000E+00 -0.00000000000E+00 -0.67434656555E+02  0.67434656555E+02  0.00000000000E+00 0. -1.
         25    1    1    2    0    0  0.00000000000E+00  0.00000000000E+00 -0.95082104289E+01  0.12536110268E+03  0.12500000000E+03 0.  0.
<mgrwt>
<rscale>  0 0.12500000E+03</rscale>
<asrwt>0</asrwt>
<pdfrwt beam="1">  1       21 0.89117609E-02 0.12500000E+03</pdfrwt>
<pdfrwt beam="2">  1       21 0.10374563E-01 0.12500000E+03</pdfrwt>
<totfact> 0.73994824E+06</totfact>
</mgrwt>
</event>
<event>
 3    1  0.1604658E-001  0.1250000E+03  0.7546771E-02  0.1235069E+00
         21   -1    0    0  502  501  0.00000000000E+00  0.00000000000E+00  0.10187178989E+03  0.10187178989E+03  0.00000000000E+00 0.  1.
         21   -1    0    0  501  502 -0.00000000000E+00 -0.00000000000E+00 -0.38344766535E+02  0.38344766535E+02  0.00000000000E+00 0.  1.
         25    1    1    2    0    0  0.00000000000E+00  0.00000000000E+00  0.63527023358E+02  0.14021655643E+03  0.12500000000E+03 0.  0.
<mgrwt>
<rscale>  0 0.12500000E+03</rscale>
<asrwt>0</asrwt>
<pdfrwt beam="1">  1       21 0.15672583E-01 0.12500000E+03</pdfrwt>
<pdfrwt beam="2">  1       21 0.58991949E-02 0.12500000E+03</pdfrwt>
<totfact> 0.72011050E+06</totfact>
</mgrwt>
</event>
<event>
 3    1  0.1604658E-001  0.1250000E+03  0.7546771E-02  0.1235069E+00
         21   -1    0    0  502  501  0.00000000000E+00  0.00000000000E+00  0.91976035094E+02  0.91976035094E+02  0.00000000000E+00 0. -1.
         21   -1    0    0  501  502 -0.00000000000E+00 -0.00000000000E+00 -0.42470302139E+02  0.42470302139E+02  0.00000000000E+00 0. -1.
         25    1    1    2    0    0  0.00000000000E+00  0.00000000000E+00  0.49505732955E+02  0.13444633723E+03  0.12500000000E+03 0.  0.
<mgrwt>
<rscale>  0 0.12500000E+03</rscale>
<asrwt>0</asrwt>
<pdfrwt beam="1">  1       21 0.14150159E-01 0.12500000E+03</pdfrwt>
<pdfrwt beam="2">  1       21 0.65338927E-02 0.12500000E+03</pdfrwt>
<totfact> 0.72769864E+06</totfact>
</mgrwt>
</event>
<event>
 3    1  0.1604658E-001  0.1250000E+03  0.7546771E-02  0.1235069E+00
         21   -1    0    0  502  501  0.00000000000E+00  0.00000000000E+00  0.37556766057E+02  0.37556766057E+02  0.00000000000E+00 0. -1.
         21   -1    0    0  501  502 -0.00000000000E+00 -0.00000000000E+00 -0.10400922151E+03  0.10400922151E+03  0.00000000000E+00 0. -1.
         25    1    1    2    0    0  0.00000000000E+00  0.00000000000E+00 -0.66452455451E+02  0.14156598757E+03  0.12500000000E+03 0.  0.
<mgrwt>
<rscale>  0 0.12500000E+03</rscale>
<asrwt>0</asrwt>
<pdfrwt beam="1">  1       21 0.57779643E-02 0.12500000E+03</pdfrwt>
<pdfrwt beam="2">  1       21 0.16001418E-01 0.12500000E+03</pdfrwt>
<totfact> 0.71835526E+06</totfact>
</mgrwt>
</event>
<event>
 3    1  0.1604658E-001  0.1250000E+03  0.7546771E-02  0.1235069E+00
         21   -1    0    0  502  501  0.00000000000E+00  0.00000000000E+00  0.19129722380E+03  0.19129722380E+03  0.00000000000E+00 0. -1.
         21   -1    0    0  501  502 -0.00000000000E+00 -0.00000000000E+00 -0.20419794509E+02  0.20419794509E+02  0.00000000000E+00 0. -1.
         25    1    1    2    0    0  0.00000000000E+00  0.00000000000E+00  0.17087742929E+03  0.21171701830E+03  0.12500000000E+03 0.  0.
<mgrwt>
<rscale>  0 0.12500000E+03</rscale>
<asrwt>0</asrwt>
<pdfrwt beam="1">  1       21 0.29430341E-01 0.12500000E+03</pdfrwt>
<pdfrwt beam="2">  1       21 0.31415070E-02 0.12500000E+03</pdfrwt>
<totfact> 0.63679338E+06</totfact>
</mgrwt>
</event>
<event>
 3    1  0.1604658E-001  0.1250000E+03  0.7546771E-02  0.1235069E+00
         21   -1    0    0  502  501  0.00000000000E+00  0.00000000000E+00  0.24803267265E+02  0.24803267265E+02  0.00000000000E+00 0.  1.
         21   -1    0    0  501  502 -0.00000000000E+00 -0.00000000000E+00 -0.15748933228E+03  0.15748933228E+03  0.00000000000E+00 0.  1.
         25    1    1    2    0    0  0.00000000000E+00  0.00000000000E+00 -0.13268606502E+03  0.18229259955E+03  0.12500000000E+03 0.  0.
<mgrwt>
<rscale>  0 0.12500000E+03</rscale>
<asrwt>0</asrwt>
<pdfrwt beam="1">  1       21 0.38158873E-02 0.12500000E+03</pdfrwt>
<pdfrwt beam="2">  1       21 0.24229128E-01 0.12500000E+03</pdfrwt>
<totfact> 0.66889505E+06</totfact>
</mgrwt>
</event>
<event>
 3    1  0.1604658E-001  0.1250000E+03  0.7546771E-02  0.1235069E+00
         21   -1    0    0  502  501  0.00000000000E+00  0.00000000000E+00  0.10759547351E+03  0.10759547351E+03  0.00000000000E+00 0. -1.
         21   -1    0    0  501  502 -0.00000000000E+00 -0.00000000000E+00 -0.36304965929E+02  0.36304965929E+02  0.00000000000E+00 0. -1.
         25    1    1    2    0    0  0.00000000000E+00  0.00000000000E+00  0.71290507583E+02  0.14390043944E+03  0.12500000000E+03 0.  0.
<mgrwt>
<rscale>  0 0.12500000E+03</rscale>
<asrwt>0</asrwt>
<pdfrwt beam="1">  1       21 0.16553150E-01 0.12500000E+03</pdfrwt>
<pdfrwt beam="2">  1       21 0.55853794E-02 0.12500000E+03</pdfrwt>
<totfact> 0.71534114E+06</totfact>
</mgrwt>
</event>
<event>
 3    1  0.1604658E-001  0.1250000E+03  0.7546771E-02  0.1235069E+00
         21   -1    0    0  502  501  0.00000000000E+00  0.00000000000E+00  0.28906714655E+01  0.28906714655E+01  0.00000000000E+00 0.  1.
         21   -1    0    0  501  502 -0.00000000000E+00 -0.00000000000E+00 -0.13513296293E+04  0.13513296293E+04  0.00000000000E+00 0.  1.
         25    1    1    2    0    0  0.00000000000E+00  0.00000000000E+00 -0.13484389579E+04  0.13542203008E+04  0.12500000000E+03 0.  0.
<mgrwt>
<rscale>  0 0.12500000E+03</rscale>
<asrwt>0</asrwt>
<pdfrwt beam="1">  1       21 0.44471909E-03 0.12500000E+03</pdfrwt>
<pdfrwt beam="2">  1       21 0.20789668E+00 0.12500000E+03</pdfrwt>
<totfact> 0.16306050E+06</totfact>
</mgrwt>
</event>
<event>
 3    1  0.1604658E-001  0.1250000E+03  0.7546771E-02  0.1235069E+00
         21   -1    0    0  502  501  0.00000000000E+00  0.00000000000E+00  0.64768338374E+02  0.64768338374E+02  0.00000000000E+00 0.  1.
         21   -1    0    0  501  502 -0.00000000000E+00 -0.00000000000E+00 -0.60311104130E+02  0.60311104130E+02  0.00000000000E+00 0.  1.
         25    1    1    2    0    0  0.00000000000E+00  0.00000000000E+00  0.44572342445E+01  0.12507944250E+03  0.12500000000E+03 0.  0.
<mgrwt>
<rscale>  0 0.12500000E+03</rscale>
<asrwt>0</asrwt>
<pdfrwt beam="1">  1       21 0.99643598E-02 0.12500000E+03</pdfrwt>
<pdfrwt beam="2">  1       21 0.92786314E-02 0.12500000E+03</pdfrwt>
<totfact> 0.74032852E+06</totfact>
</mgrwt>
</event>
<event>
 3    1  0.1604658E-001  0.1250000E+03  0.7546771E-02  0.1235069E+00
         21   -1    0    0  502  501  0.00000000000E+00  0.00000000000E+00  0.13351963101E+03  0.13351963101E+03  0.00000000000E+00 0. -1.
         21   -1    0    0  501  502 -0.00000000000E+00 -0.00000000000E+00 -0.29255997567E+02  0.29255997567E+02  0.00000000000E+00 0. -1.
         25    1    1    2    0    0  0.00000000000E+00  0.00000000000E+00  0.10426363345E+03  0.16277562858E+03  0.12500000000E+03 0.  0.
<mgrwt>
<rscale>  0 0.12500000E+03</rscale>
<asrwt>0</asrwt>
<pdfrwt beam="1">  1       21 0.20541481E-01 0.12500000E+03</pdfrwt>
<pdfrwt beam="2">  1       21 0.45009228E-02 0.12500000E+03</pdfrwt>
<totfact> 0.69181925E+06</totfact>
</mgrwt>
</event>
<event>
 3    1  0.1604658E-001  0.1250000E+03  0.7546771E-02  0.1235069E+00
         21   -1    0    0  502  501  0.00000000000E+00  0.00000000000E+00  0.33532485865E+02  0.33532485865E+02  0.00000000000E+00 0. -1.
         21   -1    0    0  501  502 -0.00000000000E+00 -0.00000000000E+00 -0.11649151261E+03  0.11649151261E+03  0.00000000000E+00 0. -1.
         25    1    1    2    0    0  0.00000000000E+00  0.00000000000E+00 -0.82959026744E+02  0.15002399847E+03  0.12500000000E+03 0.  0.
<mgrwt>
<rscale>  0 0.12500000E+03</rscale>
<asrwt>0</asrwt>
<pdfrwt beam="1">  1       21 0.51588440E-02 0.12500000E+03</pdfrwt>
<pdfrwt beam="2">  1       21 0.17921771E-01 0.12500000E+03</pdfrwt>
<totfact> 0.70756186E+06</totfact>
</mgrwt>
</event>
<event>
 3    1  0.1604658E-001  0.1250000E+03  0.7546771E-02  0.1235069E+00
         21   -1    0    0  502  501  0.00000000000E+00  0.00000000000E+00  0.39606195940E+02  0.39606195940E+02  0.00000000000E+00 0.  1.
         21   -1    0    0  501  502 -0.00000000000E+00 -0.00000000000E+00 -0.98627245241E+02  0.98627245241E+02  0.00000000000E+00 0.  1.
         25    1    1    2    0    0  0.00000000000E+00  0.00000000000E+00 -0.59021049302E+02  0.13823344118E+03  0.12500000000E+03 0.  0.
<mgrwt>
<rscale>  0 0.12500000E+03</rscale>
<asrwt>0</asrwt>
<pdfrwt beam="1">  1       21 0.60932610E-02 0.12500000E+03</pdfrwt>
<pdfrwt beam="2">  1       21 0.15173422E-01 0.12500000E+03</pdfrwt>
<totfact> 0.72270776E+06</totfact>
</mgrwt>
</event>
<event>
 3    1  0.1604658E-001  0.1250000E+03  0.7546771E-02  0.1235069E+00
         21   -1    0    0  502  501  0.00000000000E+00  0.00000000000E+00  0.20106443738E+02  0.20106443738E+02  0.00000000000E+00 0. -1.
         21   -1    0    0  501  502 -0.00000000000E+00 -0.00000000000E+00 -0.19427851344E+03  0.19427851344E+03  0.00000000000E+00 0. -1.
         25    1    1    2    0    0  0.00000000000E+00  0.00000000000E+00 -0.17417206970E+03  0.21438495718E+03  0.12500000000E+03 0.  0.
<mgrwt>
<rscale>  0 0.12500000E+03</rscale>
<asrwt>0</asrwt>
<pdfrwt beam="1">  1       21 0.30932991E-02 0.12500000E+03</pdfrwt>
<pdfrwt beam="2">  1       21 0.29889002E-01 0.12500000E+03</pdfrwt>
<totfact> 0.63401121E+06</totfact>
</mgrwt>
</event>
<event>
 3    1  0.1604658E-001  0.1250000E+03  0.7546771E-02  0.1235069E+00
         21   -1    0    0  502  501  0.00000000000E+00  0.00000000000E+00  0.13720269392E+02  0.13720269392E+02  0.00000000000E+00 0. -1.
         21   -1    0    0  501  502 -0.00000000000E+00 -0.00000000000E+00 -0.28470650892E+03  0.28470650892E+03  0.00000000000E+00 0. -1.
         25    1    1    2    0    0  0.00000000000E+00  0.00000000000E+00 -0.27098623953E+03  0.29842677832E+03  0.12500000000E+03 0.  0.
<mgrwt>
<rscale>  0 0.12500000E+03</rscale>
<asrwt>0</asrwt>
<pdfrwt beam="1">  1       21 0.21108106E-02 0.12500000E+03</pdfrwt>
<pdfrwt beam="2">  1       21 0.43801002E-01 0.12500000E+03</pdfrwt>
<totfact> 0.55587167E+06</totfact>
</mgrwt>
</event>
<event>
 3    1  0.1604658E-001  0.1250000E+03  0.7546771E-02  0.1235069E+00
         21   -1    0    0  502  501  0.00000000000E+00  0.00000000000E+00  0.38398039874E+01  0.38398039874E+01  0.00000000000E+00 0.  1.
         21   -1    0    0  501  502 -0.00000000000E+00 -0.00000000000E+00 -0.10173045324E+04  0.10173045324E+04  0.00000000000E+00 0.  1.
         25    1    1    2    0    0  0.00000000000E+00  0.00000000000E+00 -0.10134647284E+04  0.10211443364E+04  0.12500000000E+03 0.  0.
<mgrwt>
<rscale>  0 0.12500000E+03</rscale>
<asrwt>0</asrwt>
<pdfrwt beam="1">  1       21 0.59073778E-03 0.12500000E+03</pdfrwt>
<pdfrwt beam="2">  1       21 0.15650873E+00 0.12500000E+03</pdfrwt>
<totfact> 0.23095247E+06</totfact>
</mgrwt>
</event>
<event>
 3    1  0.1604658E-001  0.1250000E+03  0.7546771E-02  0.1235069E+00
         21   -1    0    0  502  501  0.00000000000E+00  0.00000000000E+00  0.22398661608E+03  0.22398661608E+03  0.00000000000E+00 0. -1.
         21   -1    0    0  501  502 -0.00000000000E+00 -0.00000000000E+00 -0.17439658085E+02  0.17439658085E+02  0.00000000000E+00 0. -1.
         25    1    1    2    0    0  0.00000000000E+00  0.00000000000E+00  0.20654695799E+03  0.24142627416E+03  0.12500000000E+03 0.  0.
<mgrwt>
<rscale>  0 0.12500000E+03</rscale>
<asrwt>0</asrwt>
<pdfrwt beam="1">  1       21 0.34459477E-01 0.12500000E+03</pdfrwt>
<pdfrwt beam="2">  1       21 0.26830245E-02 0.12500000E+03</pdfrwt>
<totfact> 0.60694919E+06</totfact>
</mgrwt>
</event>
<event>
 3    1  0.1604658E-001  0.1250000E+03  0.7546771E-02  0.1235069E+00
         21   -1    0    0  502  501  0.00000000000E+00  0.00000000000E+00  0.34672107710E+03  0.34672107710E+03  0.00000000000E+00 0.  1.
         21   -1    0    0  501  502 -0.00000000000E+00 -0.00000000000E+00 -0.11266260571E+02  0.11266260571E+02  0.00000000000E+00 0.  1.
         25    1    1    2    0    0  0.00000000000E+00  0.00000000000E+00  0.33545481653E+03  0.35798733767E+03  0.12500000000E+03 0.  0.
<mgrwt>
<rscale>  0 0.12500000E+03</rscale>
<asrwt>0</asrwt>
<pdfrwt beam="1">  1       21 0.53341696E-01 0.12500000E+03</pdfrwt>
<pdfrwt beam="2">  1       21 0.17332711E-02 0.12500000E+03</pdfrwt>
<totfact> 0.50953904E+06</totfact>
</mgrwt>
</event>
<event>
 3    1  0.1604658E-001  0.1250000E+03  0.7546771E-02  0.1235069E+00
         21   -1    0    0  502  501  0.00000000000E+00  0.00000000000E+00  0.24121346613E+03  0.24121346613E+03  0.00000000000E+00 0.  1.
         21   -1    0    0  501  502 -0.00000000000E+00 -0.00000000000E+00 -0.16194162219E+02  0.16194162219E+02  0.00000000000E+00 0.  1.
         25    1    1    2    0    0  0.00000000000E+00  0.00000000000E+00  0.22501930392E+03  0.25740762835E+03  0.12500000000E+03 0.  0.
<mgrwt>
<rscale>  0 0.12500000E+03</rscale>
<asrwt>0</asrwt>
<pdfrwt beam="1">  1       21 0.37109761E-01 0.12500000E+03</pdfrwt>
<pdfrwt beam="2">  1       21 0.24914098E-02 0.12500000E+03</pdfrwt>
<totfact> 0.59187699E+06</totfact>
</mgrwt>
</event>
<event>
 3    1  0.1604658E-001  0.1250000E+03  0.7546771E-02  0.1235069E+00
         21   -1    0    0  502  501  0.00000000000E+00  0.00000000000E+00  0.10839277675E+04  0.10839277675E+04  0.00000000000E+00 0. -1.
         21   -1    0    0  501  502 -0.00000000000E+00 -0.00000000000E+00 -0.36037917997E+01  0.36037917997E+01  0.00000000000E+00 0. -1.
         25    1    1    2    0    0  0.00000000000E+00  0.00000000000E+00  0.10803239757E+04  0.10875315593E+04  0.12500000000E+03 0.  0.
<mgrwt>
<rscale>  0 0.12500000E+03</rscale>
<asrwt>0</asrwt>
<pdfrwt beam="1">  1       21 0.16675786E+00 0.12500000E+03</pdfrwt>
<pdfrwt beam="2">  1       21 0.55443037E-03 0.12500000E+03</pdfrwt>
<totfact> 0.21530889E+06</totfact>
</mgrwt>
</event>
<event>
 3    1  0.1604658E-001  0.1250000E+03  0.7546771E-02  0.1235069E+00
         21   -1    0    0  502  501  0.00000000000E+00  0.00000000000E+00  0.34461839078E+02  0.34461839078E+02  0.00000000000E+00 0.  1.
         21   -1    0    0  501  502 -0.00000000000E+00 -0.00000000000E+00 -0.11335001568E+03  0.11335001568E+03  0.00000000000E+00 0.  1.
         25    1    1    2    0    0  0.00000000000E+00  0.00000000000E+00 -0.78888176605E+02  0.14781185476E+03  0.12500000000E+03 0.  0.
<mgrwt>
<rscale>  0 0.12500000E+03</rscale>
<asrwt>0</asrwt>
<pdfrwt beam="1">  1       21 0.53018213E-02 0.12500000E+03</pdfrwt>
<pdfrwt beam="2">  1       21 0.17438464E-01 0.12500000E+03</pdfrwt>
<totfact> 0.71035165E+06</totfact>
</mgrwt>
</event>
<event>
 3    1  0.1604658E-001  0.1250000E+03  0.7546771E-02  0.1235069E+00
         21   -1    0    0  502  501  0.00000000000E+00  0.00000000000E+00  0.43221531315E+01  0.43221531315E+01  0.00000000000E+00 0.  1.
         21   -1    0    0  501  502 -0.00000000000E+00 -0.00000000000E+00 -0.90377408694E+03  0.90377408694E+03  0.00000000000E+00 0.  1.
         25    1    1    2    0    0  0.00000000000E+00  0.00000000000E+00 -0.89945193381E+03  0.90809624007E+03  0.12500000000E+03 0.  0.
<mgrwt>
<rscale>  0 0.12500000E+03</rscale>
<asrwt>0</asrwt>
<pdfrwt beam="1">  1       21 0.66494655E-03 0.12500000E+03</pdfrwt>
<pdfrwt beam="2">  1       21 0.13904219E+00 0.12500000E+03</pdfrwt>
<totfact> 0.26067654E+06</totfact>
</mgrwt>
</event>
<event>
 3    1  0.1604658E-001  0.1250000E+03  0.7546771E-02  0.1235069E+00
         21   -1    0    0  502  501  0.00000000000E+00  0.00000000000E+00  0.22027402446E+02  0.22027402446E+02  0.00000000000E+00 0. -1.
         21   -1    0    0  501  502 -0.00000000000E+00 -0.00000000000E+00 -0.17733593462E+03  0.17733593462E+03  0.00000000000E+00 0. -1.
         25    1    1    2    0    0  0.00000000000E+00  0.00000000000E+00 -0.15530853218E+03  0.19936333707E+03  0.12500000000E+03 0.  0.
<mgrwt>
<rscale>  0 0.12500000E+03</rscale>
<asrwt>0</asrwt>
<pdfrwt beam="1">  1       21 0.33888311E-02 0.12500000E+03</pdfrwt>
<pdfrwt beam="2">  1       21 0.27282452E-01 0.12500000E+03</pdfrwt>
<totfact> 0.64996303E+06</totfact>
</mgrwt>
</event>
<event>
 3    1  0.1604658E-001  0.1250000E+03  0.7546771E-02  0.1235069E+00
         21   -1    0    0  502  501  0.00000000000E+00  0.00000000000E+00  0.89700206461E+03  0.89700206461E+03  0.00000000000E+00 0. -1.
         21   -1    0    0  501  502 -0.00000000000E+00 -0.00000000000E+00 -0.43547837336E+01  0.43547837336E+01  0.00000000000E+00 0. -1.
         25    1    1    2    0    0  0.00000000000E+00  0.00000000000E+00  0.89264728087E+03  0.90135684834E+03  0.12500000000E+03 0.  0.
<mgrwt>
<rscale>  0 0.12500000E+03</rscale>
<asrwt>0</asrwt>
<pdfrwt beam="1">  1       21 0.13800017E+00 0.12500000E+03</pdfrwt>
<pdfrwt beam="2">  1       21 0.66996744E-03 0.12500000E+03</pdfrwt>
<totfact> 0.26260163E+06</totfact>
</mgrwt>
</event>
<event>
 3    1  0.1604658E-001  0.1250000E+03  0.7546771E-02  0.1235069E+00
         21   -1    0    0  502  501  0.00000000000E+00  0.00000000000E+00  0.53921896877E+03  0.53921896877E+03  0.00000000000E+00 0.  1.
         21   -1    0    0  501  502 -0.00000000000E+00 -0.00000000000E+00 -0.72442740821E+01  0.72442740821E+01  0.00000000000E+00 0.  1.
         25    1    1    2    0    0  0.00000000000E+00  0.00000000000E+00  0.53197469468E+03  0.54646324285E+03  0.12500000000E+03 0.  0.
<mgrwt>
<rscale>  0 0.12500000E+03</rscale>
<asrwt>0</asrwt>
<pdfrwt beam="1">  1       21 0.82956733E-01 0.12500000E+03</pdfrwt>
<pdfrwt beam="2">  1       21 0.11145041E-02 0.12500000E+03</pdfrwt>
<totfact> 0.39631402E+06</totfact>
</mgrwt>
</event>
<event>
 3    1  0.1604658E-001  0.1250000E+03  0.7546771E-02  0.1235069E+00
         21   -1    0    0  502  501  0.00000000000E+00  0.00000000000E+00  0.31310433412E+02  0.31310433412E+02  0.00000000000E+00 0. -1.
         21   -1    0    0  501  502 -0.00000000000E+00 -0.00000000000E+00 -0.12475873293E+03  0.12475873293E+03  0.00000000000E+00 0. -1.
         25    1    1    2    0    0  0.00000000000E+00  0.00000000000E+00 -0.93448299521E+02  0.15606916634E+03  0.12500000000E+03 0.  0.
<mgrwt>
<rscale>  0 0.12500000E+03</rscale>
<asrwt>0</asrwt>
<pdfrwt beam="1">  1       21 0.48169897E-02 0.12500000E+03</pdfrwt>
<pdfrwt beam="2">  1       21 0.19193651E-01 0.12500000E+03</pdfrwt>
<totfact> 0.70003018E+06</totfact>
</mgrwt>
</event>
<event>
 3    1  0.1604658E-001  0.1250000E+03  0.7546771E-02  0.1235069E+00
         21   -1    0    0  502  501  0.00000000000E+00  0.00000000000E+00  0.45572554329E+02  0.45572554329E+02  0.00000000000E+00 0.  1.
         21   -1    0    0  501  502 -0.00000000000E+00 -0.00000000000E+00 -0.85714967211E+02  0.85714967211E+02  0.00000000000E+00 0.  1.
         25    1    1    2    0    0  0.00000000000E+00  0.00000000000E+00 -0.40142412882E+02  0.13128752154E+03  0.12500000000E+03 0.  0.
<mgrwt>
<rscale>  0 0.12500000E+03</rscale>
<asrwt>0</asrwt>
<pdfrwt beam="1">  1       21 0.70111623E-02 0.12500000E+03</pdfrwt>
<pdfrwt beam="2">  1       21 0.13186918E-01 0.12500000E+03</pdfrwt>
<totfact> 0.73191952E+06</totfact>
</mgrwt>
</event>
<event>
 3    1  0.1604658E-001  0.1250000E+03  0.7546771E-02  0.1235069E+00
         21   -1    0    0  502  501  0.00000000000E+00  0.00000000000E+00  0.35063533684E+02  0.35063533684E+02  0.00000000000E+00 0.  1.
         21   -1    0    0  501  502 -0.00000000000E+00 -0.00000000000E+00 -0.11140491530E+03  0.11140491530E+03  0.00000000000E+00 0.  1.
         25    1    1    2    0    0  0.00000000000E+00  0.00000000000E+00 -0.76341381613E+02  0.14646844898E+03  0.12500000000E+03 0.  0.
<mgrwt>
<rscale>  0 0.12500000E+03</rscale>
<asrwt>0</asrwt>
<pdfrwt beam="1">  1       21 0.53943897E-02 0.12500000E+03</pdfrwt>
<pdfrwt beam="2">  1       21 0.17139218E-01 0.12500000E+03</pdfrwt>
<totfact> 0.71205700E+06</totfact>
</mgrwt>
</event>
<event>
 3    1  0.1604658E-001  0.1250000E+03  0.7546771E-02  0.1235069E+00
         21   -1    0    0  502  501  0.00000000000E+00  0.00000000000E+00  0.10389174731E+03  0.10389174731E+03  0.00000000000E+00 0. -1.
         21   -1    0    0  501  502 -0.00000000000E+00 -0.00000000000E+00 -0.37599232868E+02  0.37599232868E+02  0.00000000000E+00 0. -1.
         25    1    1    2    0    0  0.00000000000E+00  0.00000000000E+00  0.66292514438E+02  0.14149098017E+03  0.12500000000E+03 0.  0.
<mgrwt>
<rscale>  0 0.12500000E+03</rscale>
<asrwt>0</asrwt>
<pdfrwt beam="1">  1       21 0.15983346E-01 0.12500000E+03</pdfrwt>
<pdfrwt beam="2">  1       21 0.57844974E-02 0.12500000E+03</pdfrwt>
<totfact> 0.71845257E+06</totfact>
</mgrwt>
</event>
<event>
 3    1  0.1604658E-001  0.1250000E+03  0.7546771E-02  0.1235069E+00
         21   -1    0    0  502  501  0.00000000000E+00  0.00000000000E+00  0.30609536952E+01  0.30609536952E+01  0.00000000000E+00 0.  1.
         21   -1    0    0  501  502 -0.00000000000E+00 -0.00000000000E+00 -0.12761545548E+04  0.12761545548E+04  0.00000000000E+00 0.  1.
         25    1    1    2    0    0  0.00000000000E+00  0.00000000000E+00 -0.12730936011E+04  0.12792155085E+04  0.12500000000E+03 0.  0.
<mgrwt>
<rscale>  0 0.12500000E+03</rscale>
<asrwt>0</asrwt>
<pdfrwt beam="1">  1       21 0.47091472E-03 0.12500000E+03</pdfrwt>
<pdfrwt beam="2">  1       21 0.19633198E+00 0.12500000E+03</pdfrwt>
<totfact> 0.17629654E+06</totfact>
</mgrwt>
</event>
<event>
 3    1  0.1604658E-001  0.1250000E+03  0.7546771E-02  0.1235069E+00
         21   -1    0    0  502  501  0.00000000000E+00  0.00000000000E+00  0.90029913610E+03  0.90029913610E+03  0.00000000000E+00 0. -1.
         21   -1    0    0  501  502 -0.00000000000E+00 -0.00000000000E+00 -0.43388356640E+01  0.43388356640E+01  0.00000000000E+00 0. -1.
         25    1    1    2    0    0  0.00000000000E+00  0.00000000000E+00  0.89596030044E+03  0.90463797176E+03  0.12500000000E+03 0.  0.
<mgrwt>
<rscale>  0 0.12500000E+03</rscale>
<asrwt>0</asrwt>
<pdfrwt beam="1">  1       21 0.13850741E+00 0.12500000E+03</pdfrwt>
<pdfrwt beam="2">  1       21 0.66751389E-03 0.12500000E+03</pdfrwt>
<totfact> 0.26166223E+06</totfact>
</mgrwt>
</event>
<event>
 3    1  0.1604658E-001  0.1250000E+03  0.7546771E-02  0.1235069E+00
         21   -1    0    0  502  501  0.00000000000E+00  0.00000000000E+00  0.19844557023E+03  0.19844557023E+03  0.00000000000E+00 0.  1.
         21   -1    0    0  501  502 -0.00000000000E+00 -0.00000000000E+00 -0.19684238834E+02  0.19684238834E+02  0.00000000000E+00 0.  1.
         25    1    1    2    0    0  0.00000000000E+00  0.00000000000E+00  0.17876133140E+03  0.21812980907E+03  0.12500000000E+03 0.  0.
<mgrwt>
<rscale>  0 0.12500000E+03</rscale>
<asrwt>0</asrwt>
<pdfrwt beam="1">  1       21 0.30530086E-01 0.12500000E+03</pdfrwt>
<pdfrwt beam="2">  1       21 0.30283446E-02 0.12500000E+03</pdfrwt>
<totfact> 0.63014207E+06</totfact>
</mgrwt>
</event>
<event>
 3    1  0.1604658E-001  0.1250000E+03  0.7546771E-02  0.1235069E+00
         21   -1    0    0  502  501  0.00000000000E+00  0.00000000000E+00  0.60422362859E+02  0.60422362859E+02  0.00000000000E+00 0.  1.
         21   -1    0    0  501  502 -0.00000000000E+00 -0.00000000000E+00 -0.64649077182E+02  0.64649077182E+02  0.00000000000E+00 0.  1.
         25    1    1    2    0    0  0.00000000000E+00  0.00000000000E+00 -0.42267143227E+01  0.12507144004E+03  0.12500000000E+03 0.  0.
<mgrwt>
<rscale>  0 0.12500000E+03</rscale>
<asrwt>0</asrwt>
<pdfrwt beam="1">  1       21 0.92957482E-02 0.12500000E+03</pdfrwt>
<pdfrwt beam="2">  1       21 0.99460118E-02 0.12500000E+03</pdfrwt>
<totfact> 0.74033932E+06</totfact>
</mgrwt>
</event>
<event>
 3    1  0.1604658E-001  0.1250000E+03  0.7546771E-02  0.1235069E+00
         21   -1    0    0  502  501  0.00000000000E+00  0.00000000000E+00  0.34202396030E+03  0.34202396030E+03  0.00000000000E+00 0. -1.
         21   -1    0    0  501  502 -0.00000000000E+00 -0.00000000000E+00 -0.11420983479E+02  0.11420983479E+02  0.00000000000E+00 0. -1.
         25    1    1    2    0    0  0.00000000000E+00  0.00000000000E+00  0.33060297682E+03  0.35344494377E+03  0.12500000000E+03 0.  0.
<mgrwt>
<rscale>  0 0.12500000E+03</rscale>
<asrwt>0</asrwt>
<pdfrwt beam="1">  1       21 0.52619063E-01 0.12500000E+03</pdfrwt>
<pdfrwt beam="2">  1       21 0.17570746E-02 0.12500000E+03</pdfrwt>
<totfact> 0.51285019E+06</totfact>
</mgrwt>
</event>
<event>
 3    1  0.1604658E-001  0.1250000E+03  0.7546771E-02  0.1235069E+00
         21   -1    0    0  502  501  0.00000000000E+00  0.00000000000E+00  0.14613516249E+03  0.14613516249E+03  0.00000000000E+00 0. -1.
         21   -1    0    0  501  502 -0.00000000000E+00 -0.00000000000E+00 -0.26730390780E+02  0.26730390780E+02  0.00000000000E+00 0. -1.
         25    1    1    2    0    0  0.00000000000E+00  0.00000000000E+00  0.11940477171E+03  0.17286555327E+03  0.12500000000E+03 0.  0.
<mgrwt>
<rscale>  0 0.12500000E+03</rscale>
<asrwt>0</asrwt>
<pdfrwt beam="1">  1       21 0.22482332E-01 0.12500000E+03</pdfrwt>
<pdfrwt beam="2">  1       21 0.41123679E-02 0.12500000E+03</pdfrwt>
<totfact> 0.67979554E+06</totfact>
</mgrwt>
</event>
<event>
 3    1  0.1604658E-001  0.1250000E+03  0.7546771E-02  0.1235069E+00
         21   -1    0    0  502  501  0.00000000000E+00  0.00000000000E+00  0.42588648095E+01  0.42588648095E+01  0.00000000000E+00 0. -1.
         21   -1    0    0  501  502 -0.00000000000E+00 -0.00000000000E+00 -0.91720450747E+03  0.91720450747E+03  0.00000000000E+00 0. -1.
         25    1    1    2    0    0  0.00000000000E+00  0.00000000000E+00 -0.91294564266E+03  0.92146337228E+03  0.12500000000E+03 0.  0.
<mgrwt>
<rscale>  0 0.12500000E+03</rscale>
<asrwt>0</asrwt>
<pdfrwt beam="1">  1       21 0.65521019E-03 0.12500000E+03</pdfrwt>
<pdfrwt beam="2">  1       21 0.14110834E+00 0.12500000E+03</pdfrwt>
<totfact> 0.25691303E+06</totfact>
</mgrwt>
</event>
<event>
 3    1  0.1604658E-001  0.1250000E+03  0.7546771E-02  0.1235069E+00
         21   -1    0    0  502  501  0.00000000000E+00  0.00000000000E+00  0.75689158853E+02  0.75689158853E+02  0.00000000000E+00 0. -1.
         21   -1    0    0  501  502 -0.00000000000E+00 -0.00000000000E+00 -0.51609108348E+02  0.51609108348E+02  0.00000000000E+00 0. -1.
         25    1    1    2    0    0  0.00000000000E+00  0.00000000000E+00  0.24080050505E+02  0.12729826720E+03  0.12500000000E+03 0.  0.
<mgrwt>
<rscale>  0 0.12500000E+03</rscale>
<asrwt>0</asrwt>
<pdfrwt beam="1">  1       21 0.11644486E-01 0.12500000E+03</pdfrwt>
<pdfrwt beam="2">  1       21 0.79398628E-02 0.12500000E+03</pdfrwt>
<totfact> 0.73728587E+06</totfact>
</mgrwt>
</event>
<event>
 3    1  0.1604658E-001  0.1250000E+03  0.7546771E-02  0.1235069E+00
         21   -1    0    0  502  501  0.00000000000E+00  0.00000000000E+00  0.53601360912E+01  0.53601360912E+01  0.00000000000E+00 0.  1.
         21   -1    0    0  501  502 -0.00000000000E+00 -0.00000000000E+00 -0.72875948176E+03  0.72875948176E+03  0.00000000000E+00 0.  1.
         25    1    1    2    0    0  0.00000000000E+00  0.00000000000E+00 -0.72339934567E+03  0.73411961785E+03  0.12500000000E+03 0.  0.
<mgrwt>
<rscale>  0 0.12500000E+03</rscale>
<asrwt>0</asrwt>
<pdfrwt beam="1">  1       21 0.82463636E-03 0.12500000E+03</pdfrwt>
<pdfrwt beam="2">  1       21 0.11211684E+00 0.12500000E+03</pdfrwt>
<totfact> 0.31635443E+06</totfact>
</mgrwt>
</event>
<event>
 3    1  0.1604658E-001  0.1250000E+03  0.7546771E-02  0.1235069E+00
         21   -1    0    0  502  501  0.00000000000E+00  0.00000000000E+00  0.94161732344E+01  0.94161732344E+01  0.00000000000E+00 0.  1.
         21   -1    0    0  501  502 -0.00000000000E+00 -0.00000000000E+00 -0.41484474667E+03  0.41484474667E+03  0.00000000000E+00 0.  1.
         25    1    1    2    0    0  0.00000000000E+00  0.00000000000E+00 -0.40542857343E+03  0.42426091990E+03  0.12500000000E+03 0.  0.
<mgrwt>
<rscale>  0 0.12500000E+03</rscale>
<asrwt>0</asrwt>
<pdfrwt beam="1">  1       21 0.14486422E-02 0.12500000E+03</pdfrwt>
<pdfrwt beam="2">  1       21 0.63822260E-01 0.12500000E+03</pdfrwt>
<totfact> 0.46472712E+06</totfact>
</mgrwt>
</event>
<event>
 3    1  0.1604658E-001  0.1250000E+03  0.7546771E-02  0.1235069E+00
         21   -1    0    0  502  501  0.00000000000E+00  0.00000000000E+00  0.23826024537E+02  0.23826024537E+02  0.00000000000E+00 0.  1.
         21   -1    0    0  501  502 -0.00000000000E+00 -0.00000000000E+00 -0.16394887842E+03  0.16394887842E+03  0.00000000000E+00 0.  1.
         25    1    1    2    0    0  0.00000000000E+00  0.00000000000E+00 -0.14012285388E+03  0.18777490295E+03  0.12500000000E+03 0.  0.
<mgrwt>
<rscale>  0 0.12500000E+03</rscale>
<asrwt>0</asrwt>
<pdfrwt beam="1">  1       21 0.36655422E-02 0.12500000E+03</pdfrwt>
<pdfrwt beam="2">  1       21 0.25222905E-01 0.12500000E+03</pdfrwt>
<totfact> 0.66270620E+06</totfact>
</mgrwt>
</event>
<event>
 3    1  0.1604658E-001  0.1250000E+03  0.7546771E-02  0.1235069E+00
         21   -1    0    0  502  501  0.00000000000E+00  0.00000000000E+00  0.43143790437E+02  0.43143790437E+02  0.00000000000E+00 0.  1.
         21   -1    0    0  501  502 -0.00000000000E+00 -0.00000000000E+00 -0.90540259918E+02  0.90540259918E+02  0.00000000000E+00 0.  1.
         25    1    1    2    0    0  0.00000000000E+00  0.00000000000E+00 -0.47396469482E+02  0.13368405036E+03  0.12500000000E+03 0.  0.
<mgrwt>
<rscale>  0 0.12500000E+03</rscale>
<asrwt>0</asrwt>
<pdfrwt beam="1">  1       21 0.66375062E-02 0.12500000E+03</pdfrwt>
<pdfrwt beam="2">  1       21 0.13929271E-01 0.12500000E+03</pdfrwt>
<totfact> 0.72871190E+06</totfact>
</mgrwt>
</event>
<event>
 3    1  0.1604658E-001  0.1250000E+03  0.7546771E-02  0.1235069E+00
         21   -1    0    0  502  501  0.00000000000E+00  0.00000000000E+00  0.18684836427E+03  0.18684836427E+03  0.00000000000E+00 0.  1.
         21   -1    0    0  501  502 -0.00000000000E+00 -0.00000000000E+00 -0.20905989813E+02  0.20905989813E+02  0.00000000000E+00 0.  1.
         25    1    1    2    0    0  0.00000000000E+00  0.00000000000E+00  0.16594237446E+03  0.20775435408E+03  0.12500000000E+03 0.  0.
<mgrwt>
<rscale>  0 0.12500000E+03</rscale>
<asrwt>0</asrwt>
<pdfrwt beam="1">  1       21 0.28745901E-01 0.12500000E+03</pdfrwt>
<pdfrwt beam="2">  1       21 0.32163062E-02 0.12500000E+03</pdfrwt>
<totfact> 0.64096581E+06</totfact>
</mgrwt>
</event>
<event>
 3    1  0.1604658E-001  0.1250000E+03  0.7546771E-02  0.1235069E+00
         21   -1    0    0  502  501  0.00000000000E+00  0.00000000000E+00  0.12476028013E+03  0.12476028013E+03  0.00000000000E+00 0. -1.
         21   -1    0    0  501  502 -0.00000000000E+00 -0.00000000000E+00 -0.31310045119E+02  0.31310045119E+02  0.00000000000E+00 0. -1.
         25    1    1    2    0    0  0.00000000000E+00  0.00000000000E+00  0.93450235013E+02  0.15607032525E+03  0.12500000000E+03 0.  0.
<mgrwt>
<rscale>  0 0.12500000E+03</rscale>
<asrwt>0</asrwt>
<pdfrwt beam="1">  1       21 0.19193889E-01 0.12500000E+03</pdfrwt>
<pdfrwt beam="2">  1       21 0.48169301E-02 0.12500000E+03</pdfrwt>
<totfact> 0.70002875E+06</totfact>
</mgrwt>
</event>
<event>
 3    1  0.1604658E-001  0.1250000E+03  0.7546771E-02  0.1235069E+00
         21   -1    0    0  502  501  0.00000000000E+00  0.00000000000E+00  0.56007351973E+01  0.56007351973E+01  0.00000000000E+00 0. -1.
         21   -1    0    0  501  502 -0.00000000000E+00 -0.00000000000E+00 -0.69745307757E+03  0.69745307757E+03  0.00000000000E+00 0. -1.
         25    1    1    2    0    0  0.00000000000E+00  0.00000000000E+00 -0.69185234237E+03  0.70305381276E+03  0.12500000000E+03 0.  0.
<mgrwt>
<rscale>  0 0.12500000E+03</rscale>
<asrwt>0</asrwt>
<pdfrwt beam="1">  1       21 0.86165227E-03 0.12500000E+03</pdfrwt>
<pdfrwt beam="2">  1       21 0.10730039E+00 0.12500000E+03</pdfrwt>
<totfact> 0.32792758E+06</totfact>
</mgrwt>
</event>
<event>
 3    1  0.1604658E-001  0.1250000E+03  0.7546771E-02  0.1235069E+00
         21   -1    0    0  502  501  0.00000000000E+00  0.00000000000E+00  0.12299493015E+04  0.12299493015E+04  0.00000000000E+00 0. -1.
         21   -1    0    0  501  502 -0.00000000000E+00 -0.00000000000E+00 -0.31759439151E+01  0.31759439151E+01  0.00000000000E+00 0. -1.
         25    1    1    2    0    0  0.00000000000E+00  0.00000000000E+00  0.12267733576E+04  0.12331252454E+04  0.12500000000E+03 0.  0.
<mgrwt>
<rscale>  0 0.12500000E+03</rscale>
<asrwt>0</asrwt>
<pdfrwt beam="1">  1       21 0.18922259E+00 0.12500000E+03</pdfrwt>
<pdfrwt beam="2">  1       21 0.48860774E-03 0.12500000E+03</pdfrwt>
<totfact> 0.18495564E+06</totfact>
</mgrwt>
</event>
<event>
 3    1  0.1604658E-001  0.1250000E+03  0.7546771E-02  0.1235069E+00
         21   -1    0    0  502  501  0.00000000000E+00  0.00000000000E+00  0.66522994666E+02  0.66522994666E+02  0.00000000000E+00 0.  1.
         21   -1    0    0  501  502 -0.00000000000E+00 -0.00000000000E+00 -0.58720296938E+02  0.58720296938E+02  0.00000000000E+00 0.  1.
         25    1    1    2    0    0  0.00000000000E+00  0.00000000000E+00  0.78026977284E+01  0.12524329160E+03  0.12500000000E+03 0.  0.
<mgrwt>
<rscale>  0 0.12500000E+03</rscale>
<asrwt>0</asrwt>
<pdfrwt beam="1">  1       21 0.10234307E-01 0.12500000E+03</pdfrwt>
<pdfrwt beam="2">  1       21 0.90338918E-02 0.12500000E+03</pdfrwt>
<totfact> 0.74010727E+06</totfact>
</mgrwt>
</event>
<event>
 3    1  0.1604658E-001  0.1250000E+03  0.7546771E-02  0.1235069E+00
         21   -1    0    0  502  501  0.00000000000E+00  0.00000000000E+00  0.34146495119E+02  0.34146495119E+02  0.00000000000E+00 0.  1.
         21   -1    0    0  501  502 -0.00000000000E+00 -0.00000000000E+00 -0.11439680665E+03  0.11439680665E+03  0.00000000000E+00 0.  1.
         25    1    1    2    0    0  0.00000000000E+00  0.00000000000E+00 -0.80250311532E+02  0.14854330177E+03  0.12500000000E+03 0.  0.
<mgrwt>
<rscale>  0 0.12500000E+03</rscale>
<asrwt>0</asrwt>
<pdfrwt beam="1">  1       21 0.52533070E-02 0.12500000E+03</pdfrwt>
<pdfrwt beam="2">  1       21 0.17599509E-01 0.12500000E+03</pdfrwt>
<totfact> 0.70942671E+06</totfact>
</mgrwt>
</event>
<event>
 3    1  0.1604658E-001  0.1250000E+03  0.7546771E-02  0.1235069E+00
         21   -1    0    0  502  501  0.00000000000E+00  0.00000000000E+00  0.99485868310E+03  0.99485868310E+03  0.00000000000E+00 0. -1.
         21   -1    0    0  501  502 -0.00000000000E+00 -0.00000000000E+00 -0.39264370572E+01  0.39264370572E+01  0.00000000000E+00 0. -1.
         25    1    1    2    0    0  0.00000000000E+00  0.00000000000E+00  0.99093224604E+03  0.99878512016E+03  0.12500000000E+03 0.  0.
<mgrwt>
<rscale>  0 0.12500000E+03</rscale>
<asrwt>0</asrwt>
<pdfrwt beam="1">  1       21 0.15305498E+00 0.12500000E+03</pdfrwt>
<pdfrwt beam="2">  1       21 0.60406803E-03 0.12500000E+03</pdfrwt>
<totfact> 0.23649092E+06</totfact>
</mgrwt>
</event>
<event>
 3    1  0.1604658E-001  0.1250000E+03  0.7546771E-02  0.1235069E+00
         21   -1    0    0  502  501  0.00000000000E+00  0.00000000000E+00  0.61193765018E+02  0.61193765018E+02  0.00000000000E+00 0. -1.
         21   -1    0    0  501  502 -0.00000000000E+00 -0.00000000000E+00 -0.63834117722E+02  0.63834117722E+02  0.00000000000E+00 0. -1.
         25    1    1    2    0    0  0.00000000000E+00  0.00000000000E+00 -0.26403527042E+01  0.12502788274E+03  0.12500000000E+03 0.  0.
<mgrwt>
<rscale>  0 0.12500000E+03</rscale>
<asrwt>0</asrwt>
<pdfrwt beam="1">  1       21 0.94144254E-02 0.12500000E+03</pdfrwt>
<pdfrwt beam="2">  1       21 0.98206335E-02 0.12500000E+03</pdfrwt>
<totfact> 0.74039815E+06</totfact>
</mgrwt>
</event>
<event>
 3    1  0.1604658E-001  0.1250000E+03  0.7546771E-02  0.1235069E+00
         21   -1    0    0  502  501  0.00000000000E+00  0.00000000000E+00  0.50861000209E+03  0.50861000209E+03  0.00000000000E+00 0. -1.
         21   -1    0    0  501  502 -0.00000000000E+00 -0.00000000000E+00 -0.76802461295E+01  0.76802461295E+01  0.00000000000E+00 0. -1.
         25    1    1    2    0    0  0.00000000000E+00  0.00000000000E+00  0.50092975597E+03  0.51629024822E+03  0.12500000000E+03 0.  0.
<mgrwt>
<rscale>  0 0.12500000E+03</rscale>
<asrwt>0</asrwt>
<pdfrwt beam="1">  1       21 0.78247666E-01 0.12500000E+03</pdfrwt>
<pdfrwt beam="2">  1       21 0.11815767E-02 0.12500000E+03</pdfrwt>
<totfact> 0.41174182E+06</totfact>
</mgrwt>
</event>
<event>
 3    1  0.1604658E-001  0.1250000E+03  0.7546771E-02  0.1235069E+00
         21   -1    0    0  502  501  0.00000000000E+00  0.00000000000E+00  0.21839706435E+03  0.21839706435E+03  0.00000000000E+00 0.  1.
         21   -1    0    0  501  502 -0.00000000000E+00 -0.00000000000E+00 -0.17886000490E+02  0.17886000490E+02  0.00000000000E+00 0.  1.
         25    1    1    2    0    0  0.00000000000E+00  0.00000000000E+00  0.20051106386E+03  0.23628306484E+03  0.12500000000E+03 0.  0.
<mgrwt>
<rscale>  0 0.12500000E+03</rscale>
<asrwt>0</asrwt>
<pdfrwt beam="1">  1       21 0.33599546E-01 0.12500000E+03</pdfrwt>
<pdfrwt beam="2">  1       21 0.27516925E-02 0.12500000E+03</pdfrwt>
<totfact> 0.61194209E+06</totfact>
</mgrwt>
</event>
<event>
 3    1  0.1604658E-001  0.1250000E+03  0.7546771E-02  0.1235069E+00
         21   -1    0    0  502  501  0.00000000000E+00  0.00000000000E+00  0.38566102152E+02  0.38566102152E+02  0.00000000000E+00 0. -1.
         21   -1    0    0  501  502 -0.00000000000E+00 -0.00000000000E+00 -0.10128713513E+03  0.10128713513E+03  0.00000000000E+00 0. -1.
         25    1    1    2    0    0  0.00000000000E+00  0.00000000000E+00 -0.62721032974E+02  0.13985323728E+03  0.12500000000E+03 0.  0.
<mgrwt>
<rscale>  0 0.12500000E+03</rscale>
<asrwt>0</asrwt>
<pdfrwt beam="1">  1       21 0.59332466E-02 0.12500000E+03</pdfrwt>
<pdfrwt beam="2">  1       21 0.15582636E-01 0.12500000E+03</pdfrwt>
<totfact> 0.72058474E+06</totfact>
</mgrwt>
</event>
<event>
 3    1  0.1604658E-001  0.1250000E+03  0.7546771E-02  0.1235069E+00
         21   -1    0    0  502  501  0.00000000000E+00  0.00000000000E+00  0.27161254304E+02  0.27161254304E+02  0.00000000000E+00 0. -1.
         21   -1    0    0  501  502 -0.00000000000E+00 -0.00000000000E+00 -0.14381699594E+03  0.14381699594E+03  0.00000000000E+00 0. -1.
         25    1    1    2    0    0  0.00000000000E+00  0.00000000000E+00 -0.11665574164E+03  0.17097825025E+03  0.12500000000E+03 0.  0.
<mgrwt>
<rscale>  0 0.12500000E+03</rscale>
<asrwt>0</asrwt>
<pdfrwt beam="1">  1       21 0.41786546E-02 0.12500000E+03</pdfrwt>
<pdfrwt beam="2">  1       21 0.22125691E-01 0.12500000E+03</pdfrwt>
<totfact> 0.68201859E+06</totfact>
</mgrwt>
</event>
<event>
 3    1  0.1604658E-001  0.1250000E+03  0.7546771E-02  0.1235069E+00
         21   -1    0    0  502  501  0.00000000000E+00  0.00000000000E+00  0.17830594807E+02  0.17830594807E+02  0.00000000000E+00 0. -1.
         21   -1    0    0  501  502 -0.00000000000E+00 -0.00000000000E+00 -0.21907569782E+03  0.21907569782E+03  0.00000000000E+00 0. -1.
         25    1    1    2    0    0  0.00000000000E+00  0.00000000000E+00 -0.20124510302E+03  0.23690629263E+03  0.12500000000E+03 0.  0.
<mgrwt>
<rscale>  0 0.12500000E+03</rscale>
<asrwt>0</asrwt>
<pdfrwt beam="1">  1       21 0.27431685E-02 0.12500000E+03</pdfrwt>
<pdfrwt beam="2">  1       21 0.33703953E-01 0.12500000E+03</pdfrwt>
<totfact> 0.61133325E+06</totfact>
</mgrwt>
</event>
<event>
 3    1  0.1604658E-001  0.1250000E+03  0.7546771E-02  0.1235069E+00
         21   -1    0    0  502  501  0.00000000000E+00  0.00000000000E+00  0.18111466654E+03  0.18111466654E+03  0.00000000000E+00 0. -1.
         21   -1    0    0  501  502 -0.00000000000E+00 -0.00000000000E+00 -0.21567828132E+02  0.21567828132E+02  0.00000000000E+00 0. -1.
         25    1    1    2    0    0  0.00000000000E+00  0.00000000000E+00  0.15954683840E+03  0.20268249467E+03  0.12500000000E+03 0.  0.
<mgrwt>
<rscale>  0 0.12500000E+03</rscale>
<asrwt>0</asrwt>
<pdfrwt beam="1">  1       21 0.27863794E-01 0.12500000E+03</pdfrwt>
<pdfrwt beam="2">  1       21 0.33181275E-02 0.12500000E+03</pdfrwt>
<totfact> 0.64637741E+06</totfact>
</mgrwt>
</event>
<event>
 3    1  0.1604658E-001  0.1250000E+03  0.7546771E-02  0.1235069E+00
         21   -1    0    0  502  501  0.00000000000E+00  0.00000000000E+00  0.69272586284E+02  0.69272586284E+02  0.00000000000E+00 0.  1.
         21   -1    0    0  501  502 -0.00000000000E+00 -0.00000000000E+00 -0.56389550463E+02  0.56389550463E+02  0.00000000000E+00 0.  1.
         25    1    1    2    0    0  0.00000000000E+00  0.00000000000E+00  0.12883035821E+02  0.12566213675E+03  0.12500000000E+03 0.  0.
<mgrwt>
<rscale>  0 0.12500000E+03</rscale>
<asrwt>0</asrwt>
<pdfrwt beam="1">  1       21 0.10657321E-01 0.12500000E+03</pdfrwt>
<pdfrwt beam="2">  1       21 0.86753155E-02 0.12500000E+03</pdfrwt>
<totfact> 0.73952797E+06</totfact>
</mgrwt>
</event>
<event>
 3    1  0.1604658E-001  0.1250000E+03  0.7546771E-02  0.1235069E+00
         21   -1    0    0  502  501  0.00000000000E+00  0.00000000000E+00  0.30676302838E+02  0.30676302838E+02  0.00000000000E+00 0.  1.
         21   -1    0    0  501  502 -0.00000000000E+00 -0.00000000000E+00 -0.12733770496E+03  0.12733770496E+03  0.00000000000E+00 0.  1.
         25    1    1    2    0    0  0.00000000000E+00  0.00000000000E+00 -0.96661402119E+02  0.15801400780E+03  0.12500000000E+03 0.  0.
<mgrwt>
<rscale>  0 0.12500000E+03</rscale>
<asrwt>0</asrwt>
<pdfrwt beam="1">  1       21 0.47194312E-02 0.12500000E+03</pdfrwt>
<pdfrwt beam="2">  1       21 0.19590416E-01 0.12500000E+03</pdfrwt>
<totfact> 0.69762980E+06</totfact>
</mgrwt>
</event>
<event>
 3    1  0.1604658E-001  0.1250000E+03  0.7546771E-02  0.1235069E+00
         21   -1    0    0  502  501  0.00000000000E+00  0.00000000000E+00  0.38891378780E+03  0.38891378780E+03  0.00000000000E+00 0. -1.
         21   -1    0    0  501  502 -0.00000000000E+00 -0.00000000000E+00 -0.10043999782E+02  0.10043999782E+02  0.00000000000E+00 0. -1.
         25    1    1    2    0    0  0.00000000000E+00  0.00000000000E+00  0.37886978802E+03  0.39895778758E+03  0.12500000000E+03 0.  0.
<mgrwt>
<rscale>  0 0.12500000E+03</rscale>
<asrwt>0</asrwt>
<pdfrwt beam="1">  1       21 0.59832879E-01 0.12500000E+03</pdfrwt>
<pdfrwt beam="2">  1       21 0.15452310E-02 0.12500000E+03</pdfrwt>
<totfact> 0.48110561E+06</totfact>
</mgrwt>
</event>
<event>
 3    1  0.1604658E-001  0.1250000E+03  0.7546771E-02  0.1235069E+00
         21   -1    0    0  502  501  0.00000000000E+00  0.00000000000E+00  0.12646360138E+02  0.12646360138E+02  0.00000000000E+00 0. -1.
         21   -1    0    0  501  502 -0.00000000000E+00 -0.00000000000E+00 -0.30888334330E+03  0.30888334330E+03  0.00000000000E+00 0. -1.
         25    1    1    2    0    0  0.00000000000E+00  0.00000000000E+00 -0.29623698316E+03  0.32152970344E+03  0.12500000000E+03 0.  0.
<mgrwt>
<rscale>  0 0.12500000E+03</rscale>
<asrwt>0</asrwt>
<pdfrwt beam="1">  1       21 0.19455940E-02 0.12500000E+03</pdfrwt>
<pdfrwt beam="2">  1       21 0.47520512E-01 0.12500000E+03</pdfrwt>
<totfact> 0.53712344E+06</totfact>
</mgrwt>
</event>
<event>
 3    1  0.1604658E-001  0.1250000E+03  0.7546771E-02  0.1235069E+00
         21   -1    0    0  502  501  0.00000000000E+00  0.00000000000E+00  0.56895614855E+02  0.56895614855E+02  0.00000000000E+00 0. -1.
         21   -1    0    0  501  502 -0.00000000000E+00 -0.00000000000E+00 -0.68656433540E+02  0.68656433540E+02  0.00000000000E+00 0. -1.
         25    1    1    2    0    0  0.00000000000E+00  0.00000000000E+00 -0.11760818686E+02  0.12555204839E+03  0.12500000000E+03 0.  0.
<mgrwt>
<rscale>  0 0.12500000E+03</rscale>
<asrwt>0</asrwt>
<pdfrwt beam="1">  1       21 0.87531715E-02 0.12500000E+03</pdfrwt>
<pdfrwt beam="2">  1       21 0.10562528E-01 0.12500000E+03</pdfrwt>
<totfact> 0.73968127E+06</totfact>
</mgrwt>
</event>
<event>
 3    1  0.1604658E-001  0.1250000E+03  0.7546771E-02  0.1235069E+00
         21   -1    0    0  502  501  0.00000000000E+00  0.00000000000E+00  0.73006651408E+01  0.73006651408E+01  0.00000000000E+00 0.  1.
         21   -1    0    0  501  502 -0.00000000000E+00 -0.00000000000E+00 -0.53505398818E+03  0.53505398818E+03  0.00000000000E+00 0.  1.
         25    1    1    2    0    0  0.00000000000E+00  0.00000000000E+00 -0.52775332304E+03  0.54235465332E+03  0.12500000000E+03 0.  0.
<mgrwt>
<rscale>  0 0.12500000E+03</rscale>
<asrwt>0</asrwt>
<pdfrwt beam="1">  1       21 0.11231791E-02 0.12500000E+03</pdfrwt>
<pdfrwt beam="2">  1       21 0.82316009E-01 0.12500000E+03</pdfrwt>
<totfact> 0.39836450E+06</totfact>
</mgrwt>
</event>
<event>
 3    1  0.1604658E-001  0.1250000E+03  0.7546771E-02  0.1235069E+00
         21   -1    0    0  502  501  0.00000000000E+00  0.00000000000E+00  0.49600641346E+03  0.49600641346E+03  0.00000000000E+00 0.  1.
         21   -1    0    0  501  502 -0.00000000000E+00 -0.00000000000E+00 -0.78754022005E+01  0.78754022005E+01  0.00000000000E+00 0.  1.
         25    1    1    2    0    0  0.00000000000E+00  0.00000000000E+00  0.48813101126E+03  0.50388181566E+03  0.12500000000E+03 0.  0.
<mgrwt>
<rscale>  0 0.12500000E+03</rscale>
<asrwt>0</asrwt>
<pdfrwt beam="1">  1       21 0.76308655E-01 0.12500000E+03</pdfrwt>
<pdfrwt beam="2">  1       21 0.12116007E-02 0.12500000E+03</pdfrwt>
<totfact> 0.41834339E+06</totfact>
</mgrwt>
</event>
<event>
 3    1  0.1604658E-001  0.1250000E+03  0.7546771E-02  0.1235069E+00
         21   -1    0    0  502  501  0.00000000000E+00  0.00000000000E+00  0.56818185921E+02  0.56818185921E+02  0.00000000000E+00 0. -1.
         21   -1    0    0  501  502 -0.00000000000E+00 -0.00000000000E+00 -0.68749995036E+02  0.68749995036E+02  0.00000000000E+00 0. -1.
         25    1    1    2    0    0  0.00000000000E+00  0.00000000000E+00 -0.11931809115E+02  0.12556818096E+03  0.12500000000E+03 0.  0.
<mgrwt>
<rscale>  0 0.12500000E+03</rscale>
<asrwt>0</asrwt>
<pdfrwt beam="1">  1       21 0.87412594E-02 0.12500000E+03</pdfrwt>
<pdfrwt beam="2">  1       21 0.10576922E-01 0.12500000E+03</pdfrwt>
<totfact> 0.73965877E+06</totfact>
</mgrwt>
</event>
<event>
 3    1  0.1604658E-001  0.1250000E+03  0.7546771E-02  0.1235069E+00
         21   -1    0    0  502  501  0.00000000000E+00  0.00000000000E+00  0.95162446035E+01  0.95162446035E+01  0.00000000000E+00 0. -1.
         21   -1    0    0  501  502 -0.00000000000E+00 -0.00000000000E+00 -0.41048230292E+03  0.41048230292E+03  0.00000000000E+00 0. -1.
         25    1    1    2    0    0  0.00000000000E+00  0.00000000000E+00 -0.40096605832E+03  0.41999854752E+03  0.12500000000E+03 0.  0.
<mgrwt>
<rscale>  0 0.12500000E+03</rscale>
<asrwt>0</asrwt>
<pdfrwt beam="1">  1       21 0.14640378E-02 0.12500000E+03</pdfrwt>
<pdfrwt beam="2">  1       21 0.63151115E-01 0.12500000E+03</pdfrwt>
<totfact> 0.46742557E+06</totfact>
</mgrwt>
</event>
<event>
 3    1  0.1604658E-001  0.1250000E+03  0.7546771E-02  0.1235069E+00
         21   -1    0    0  502  501  0.00000000000E+00  0.00000000000E+00  0.14758470898E+02  0.14758470898E+02  0.00000000000E+00 0. -1.
         21   -1    0    0  501  502 -0.00000000000E+00 -0.00000000000E+00 -0.26467850409E+03  0.26467850409E+03  0.00000000000E+00 0. -1.
         25    1    1    2    0    0  0.00000000000E+00  0.00000000000E+00 -0.24992003320E+03  0.27943697499E+03  0.12500000000E+03 0.  0.
<mgrwt>
<rscale>  0 0.12500000E+03</rscale>
<asrwt>0</asrwt>
<pdfrwt beam="1">  1       21 0.22705342E-02 0.12500000E+03</pdfrwt>
<pdfrwt beam="2">  1       21 0.40719767E-01 0.12500000E+03</pdfrwt>
<totfact> 0.57209542E+06</totfact>
</mgrwt>
</event>
<event>
 3    1  0.1604658E-001  0.1250000E+03  0.7546771E-02  0.1235069E+00
         21   -1    0    0  502  501  0.00000000000E+00  0.00000000000E+00  0.18385543103E+01  0.18385543103E+01  0.00000000000E+00 0.  1.
         21   -1    0    0  501  502 -0.00000000000E+00 -0.00000000000E+00 -0.21246312813E+04  0.21246312813E+04  0.00000000000E+00 0.  1.
         25    1    1    2    0    0  0.00000000000E+00  0.00000000000E+00 -0.21227927269E+04  0.21264698356E+04  0.12500000000E+03 0.  0.
<mgrwt>
<rscale>  0 0.12500000E+03</rscale>
<asrwt>0</asrwt>
<pdfrwt beam="1">  1       21 0.28285464E-03 0.12500000E+03</pdfrwt>
<pdfrwt beam="2">  1       21 0.32686620E+00 0.12500000E+03</pdfrwt>
<totfact> 0.67793617E+05</totfact>
</mgrwt>
</event>
<event>
 3    1  0.1604658E-001  0.1250000E+03  0.7546771E-02  0.1235069E+00
         21   -1    0    0  502  501  0.00000000000E+00  0.00000000000E+00  0.12155760764E+04  0.12155760764E+04  0.00000000000E+00 0. -1.
         21   -1    0    0  501  502 -0.00000000000E+00 -0.00000000000E+00 -0.32134969383E+01  0.32134969383E+01  0.00000000000E+00 0. -1.
         25    1    1    2    0    0  0.00000000000E+00  0.00000000000E+00  0.12123625795E+04  0.12187895734E+04  0.12500000000E+03 0.  0.
<mgrwt>
<rscale>  0 0.12500000E+03</rscale>
<asrwt>0</asrwt>
<pdfrwt beam="1">  1       21 0.18701134E+00 0.12500000E+03</pdfrwt>
<pdfrwt beam="2">  1       21 0.49438511E-03 0.12500000E+03</pdfrwt>
<totfact> 0.18772957E+06</totfact>
</mgrwt>
</event>
<event>
 3    1  0.1604658E-001  0.1250000E+03  0.7546771E-02  0.1235069E+00
         21   -1    0    0  502  501  0.00000000000E+00  0.00000000000E+00  0.18399595443E+03  0.18399595443E+03  0.00000000000E+00 0. -1.
         21   -1    0    0  501  502 -0.00000000000E+00 -0.00000000000E+00 -0.21230086346E+02  0.21230086346E+02  0.00000000000E+00 0. -1.
         25    1    1    2    0    0  0.00000000000E+00  0.00000000000E+00  0.16276586809E+03  0.20522604078E+03  0.12500000000E+03 0.  0.
<mgrwt>
<rscale>  0 0.12500000E+03</rscale>
<asrwt>0</asrwt>
<pdfrwt beam="1">  1       21 0.28307069E-01 0.12500000E+03</pdfrwt>
<pdfrwt beam="2">  1       21 0.32661673E-02 0.12500000E+03</pdfrwt>
<totfact> 0.64365338E+06</totfact>
</mgrwt>
</event>
<event>
 3    1  0.1604658E-001  0.1250000E+03  0.7546771E-02  0.1235069E+00
         21   -1    0    0  502  501  0.00000000000E+00  0.00000000000E+00  0.10779435190E+03  0.10779435190E+03  0.00000000000E+00 0. -1.
         21   -1    0    0  501  502 -0.00000000000E+00 -0.00000000000E+00 -0.36237984005E+02  0.36237984005E+02  0.00000000000E+00 0. -1.
         25    1    1    2    0    0  0.00000000000E+00  0.00000000000E+00  0.71556367895E+02  0.14403233591E+03  0.12500000000E+03 0.  0.
<mgrwt>
<rscale>  0 0.12500000E+03</rscale>
<asrwt>0</asrwt>
<pdfrwt beam="1">  1       21 0.16583746E-01 0.12500000E+03</pdfrwt>
<pdfrwt beam="2">  1       21 0.55750745E-02 0.12500000E+03</pdfrwt>
<totfact> 0.71517167E+06</totfact>
</mgrwt>
</event>
<event>
 3    1  0.1604658E-001  0.1250000E+03  0.7546771E-02  0.1235069E+00
         21   -1    0    0  502  501  0.00000000000E+00  0.00000000000E+00  0.10059297155E+02  0.10059297155E+02  0.00000000000E+00 0.  1.
         21   -1    0    0  501  502 -0.00000000000E+00 -0.00000000000E+00 -0.38832235887E+03  0.38832235887E+03  0.00000000000E+00 0.  1.
         25    1    1    2    0    0  0.00000000000E+00  0.00000000000E+00 -0.37826306172E+03  0.39838165603E+03  0.12500000000E+03 0.  0.
<mgrwt>
<rscale>  0 0.12500000E+03</rscale>
<asrwt>0</asrwt>
<pdfrwt beam="1">  1       21 0.15475840E-02 0.12500000E+03</pdfrwt>
<pdfrwt beam="2">  1       21 0.59741910E-01 0.12500000E+03</pdfrwt>
<totfact> 0.48148875E+06</totfact>
</mgrwt>
</event>
<event>
 3    1  0.1604658E-001  0.1250000E+03  0.7546771E-02  0.1235069E+00
         21   -1    0    0  502  501  0.00000000000E+00  0.00000000000E+00  0.13314727539E+02  0.13314727539E+02  0.00000000000E+00 0.  1.
         21   -1    0    0  501  502 -0.00000000000E+00 -0.00000000000E+00 -0.29337813999E+03  0.29337813999E+03  0.00000000000E+00 0.  1.
         25    1    1    2    0    0  0.00000000000E+00  0.00000000000E+00 -0.28006341245E+03  0.30669286753E+03  0.12500000000E+03 0.  0.
<mgrwt>
<rscale>  0 0.12500000E+03</rscale>
<asrwt>0</asrwt>
<pdfrwt beam="1">  1       21 0.20484196E-02 0.12500000E+03</pdfrwt>
<pdfrwt beam="2">  1       21 0.45135098E-01 0.12500000E+03</pdfrwt>
<totfact> 0.54904516E+06</totfact>
</mgrwt>
</event>
<event>
 3    1  0.1604658E-001  0.1250000E+03  0.7546771E-02  0.1235069E+00
         21   -1    0    0  502  501  0.00000000000E+00  0.00000000000E+00  0.14504757384E+03  0.14504757384E+03  0.00000000000E+00 0. -1.
         21   -1    0    0  501  502 -0.00000000000E+00 -0.00000000000E+00 -0.26930819293E+02  0.26930819293E+02  0.00000000000E+00 0. -1.
         25    1    1    2    0    0  0.00000000000E+00  0.00000000000E+00  0.11811675455E+03  0.17197839313E+03  0.12500000000E+03 0.  0.
<mgrwt>
<rscale>  0 0.12500000E+03</rscale>
<asrwt>0</asrwt>
<pdfrwt beam="1">  1       21 0.22315011E-01 0.12500000E+03</pdfrwt>
<pdfrwt beam="2">  1       21 0.41432031E-02 0.12500000E+03</pdfrwt>
<totfact> 0.68083879E+06</totfact>
</mgrwt>
</event>
<event>
 3    1  0.1604658E-001  0.1250000E+03  0.7546771E-02  0.1235069E+00
         21   -1    0    0  502  501  0.00000000000E+00  0.00000000000E+00  0.14411143087E+02  0.14411143087E+02  0.00000000000E+00 0. -1.
         21   -1    0    0  501  502 -0.00000000000E+00 -0.00000000000E+00 -0.27105760983E+03  0.27105760983E+03  0.00000000000E+00 0. -1.
         25    1    1    2    0    0  0.00000000000E+00  0.00000000000E+00 -0.25664646674E+03  0.28546875292E+03  0.12500000000E+03 0.  0.
<mgrwt>
<rscale>  0 0.12500000E+03</rscale>
<asrwt>0</asrwt>
<pdfrwt beam="1">  1       21 0.22170992E-02 0.12500000E+03</pdfrwt>
<pdfrwt beam="2">  1       21 0.41701166E-01 0.12500000E+03</pdfrwt>
<totfact> 0.56685822E+06</totfact>
</mgrwt>
</event>
<event>
 3    1  0.1604658E-001  0.1250000E+03  0.7546771E-02  0.1235069E+00
         21   -1    0    0  502  501  0.00000000000E+00  0.00000000000E+00  0.25481586636E+01  0.25481586636E+01  0.00000000000E+00 0. -1.
         21   -1    0    0  501  502 -0.00000000000E+00 -0.00000000000E+00 -0.15329696913E+04  0.15329696913E+04  0.00000000000E+00 0. -1.
         25    1    1    2    0    0  0.00000000000E+00  0.00000000000E+00 -0.15304215326E+04  0.15355178500E+04  0.12500000000E+03 0.  0.
<mgrwt>
<rscale>  0 0.12500000E+03</rscale>
<asrwt>0</asrwt>
<pdfrwt beam="1">  1       21 0.39202408E-03 0.12500000E+03</pdfrwt>
<pdfrwt beam="2">  1       21 0.23584169E+00 0.12500000E+03</pdfrwt>
<totfact> 0.13474225E+06</totfact>
</mgrwt>
</event>
<event>
 3    1  0.1604658E-001  0.1250000E+03  0.7546771E-02  0.1235069E+00
         21   -1    0    0  502  501  0.00000000000E+00  0.00000000000E+00  0.55988615397E+01  0.55988615397E+01  0.00000000000E+00 0. -1.
         21   -1    0    0  501  502 -0.00000000000E+00 -0.00000000000E+00 -0.69768648007E+03  0.69768648007E+03  0.00000000000E+00 0. -1.
         25    1    1    2    0    0  0.00000000000E+00  0.00000000000E+00 -0.69208761853E+03  0.70328534161E+03  0.12500000000E+03 0.  0.
<mgrwt>
<rscale>  0 0.12500000E+03</rscale>
<asrwt>0</asrwt>
<pdfrwt beam="1">  1       21 0.86136302E-03 0.12500000E+03</pdfrwt>
<pdfrwt beam="2">  1       21 0.10733642E+00 0.12500000E+03</pdfrwt>
<totfact> 0.32783854E+06</totfact>
</mgrwt>
</event>
<event>
 3    1  0.1604658E-001  0.1250000E+03  0.7546771E-02  0.1235069E+00
         21   -1    0    0  502  501  0.00000000000E+00  0.00000000000E+00  0.11221306629E+03  0.11221306629E+03  0.00000000000E+00 0. -1.
         21   -1    0    0  501  502 -0.00000000000E+00 -0.00000000000E+00 -0.34811008461E+02  0.34811008461E+02  0.00000000000E+00 0. -1.
         25    1    1    2    0    0  0.00000000000E+00  0.00000000000E+00  0.77402057829E+02  0.14702407475E+03  0.12500000000E+03 0.  0.
<mgrwt>
<rscale>  0 0.12500000E+03</rscale>
<asrwt>0</asrwt>
<pdfrwt beam="1">  1       21 0.17263548E-01 0.12500000E+03</pdfrwt>
<pdfrwt beam="2">  1       21 0.53555398E-02 0.12500000E+03</pdfrwt>
<totfact> 0.71135064E+06</totfact>
</mgrwt>
</event>
<event>
 3    1  0.1604658E-001  0.1250000E+03  0.7546771E-02  0.1235069E+00
         21   -1    0    0  502  501  0.00000000000E+00  0.00000000000E+00  0.91421141745E+02  0.91421141745E+02  0.00000000000E+00 0. -1.
         21   -1    0    0  501  502 -0.00000000000E+00 -0.00000000000E+00 -0.42728081551E+02  0.42728081551E+02  0.00000000000E+00 0. -1.
         25    1    1    2    0    0  0.00000000000E+00  0.00000000000E+00  0.48693060194E+02  0.13414922330E+03  0.12500000000E+03 0.  0.
<mgrwt>
<rscale>  0 0.12500000E+03</rscale>
<asrwt>0</asrwt>
<pdfrwt beam="1">  1       21 0.14064791E-01 0.12500000E+03</pdfrwt>
<pdfrwt beam="2">  1       21 0.65735510E-02 0.12500000E+03</pdfrwt>
<totfact> 0.72809319E+06</totfact>
</mgrwt>
</event>
<event>
 3    1  0.1604658E-001  0.1250000E+03  0.7546771E-02  0.1235069E+00
         21   -1    0    0  502  501  0.00000000000E+00  0.00000000000E+00  0.89290217355E+02  0.89290217355E+02  0.00000000000E+00 0.  1.
         21   -1    0    0  501  502 -0.00000000000E+00 -0.00000000000E+00 -0.43747793607E+02  0.43747793607E+02  0.00000000000E+00 0.  1.
         25    1    1    2    0    0  0.00000000000E+00  0.00000000000E+00  0.45542423748E+02  0.13303801096E+03  0.12500000000E+03 0.  0.
<mgrwt>
<rscale>  0 0.12500000E+03</rscale>
<asrwt>0</asrwt>
<pdfrwt beam="1">  1       21 0.13736956E-01 0.12500000E+03</pdfrwt>
<pdfrwt beam="2">  1       21 0.67304298E-02 0.12500000E+03</pdfrwt>
<totfact> 0.72957323E+06</totfact>
</mgrwt>
</event>
<event>
 3    1  0.1604658E-001  0.1250000E+03  0.7546771E-02  0.1235069E+00
         21   -1    0    0  502  501  0.00000000000E+00  0.00000000000E+00  0.24941661547E+03  0.24941661547E+03  0.00000000000E+00 0. -1.
         21   -1    0    0  501  502 -0.00000000000E+00 -0.00000000000E+00 -0.15661546817E+02  0.15661546817E+02  0.00000000000E+00 0. -1.
         25    1    1    2    0    0  0.00000000000E+00  0.00000000000E+00  0.23375506865E+03  0.26507816228E+03  0.12500000000E+03 0.  0.
<mgrwt>
<rscale>  0 0.12500000E+03</rscale>
<asrwt>0</asrwt>
<pdfrwt beam="1">  1       21 0.38371784E-01 0.12500000E+03</pdfrwt>
<pdfrwt beam="2">  1       21 0.24094689E-02 0.12500000E+03</pdfrwt>
<totfact> 0.58486936E+06</totfact>
</mgrwt>
</event>
<event>
 3    1  0.1604658E-001  0.1250000E+03  0.7546771E-02  0.1235069E+00
         21   -1    0    0  502  501  0.00000000000E+00  0.00000000000E+00  0.15868241694E+03  0.15868241694E+03  0.00000000000E+00 0. -1.
         21   -1    0    0  501  502 -0.00000000000E+00 -0.00000000000E+00 -0.24616779070E+02  0.24616779070E+02  0.00000000000E+00 0. -1.
         25    1    1    2    0    0  0.00000000000E+00  0.00000000000E+00  0.13406563787E+03  0.18329919601E+03  0.12500000000E+03 0.  0.
<mgrwt>
<rscale>  0 0.12500000E+03</rscale>
<asrwt>0</asrwt>
<pdfrwt beam="1">  1       21 0.24412679E-01 0.12500000E+03</pdfrwt>
<pdfrwt beam="2">  1       21 0.37871969E-02 0.12500000E+03</pdfrwt>
<totfact> 0.66775065E+06</totfact>
</mgrwt>
</event>
<event>
 3    1  0.1604658E-001  0.1250000E+03  0.7546771E-02  0.1235069E+00
         21   -1    0    0  502  501  0.00000000000E+00  0.00000000000E+00  0.53228174643E+02  0.53228174643E+02  0.00000000000E+00 0.  1.
         21   -1    0    0  501  502 -0.00000000000E+00 -0.00000000000E+00 -0.73386886290E+02  0.73386886290E+02  0.00000000000E+00 0.  1.
         25    1    1    2    0    0  0.00000000000E+00  0.00000000000E+00 -0.20158711647E+02  0.12661506093E+03  0.12500000000E+03 0.  0.
<mgrwt>
<rscale>  0 0.12500000E+03</rscale>
<asrwt>0</asrwt>
<pdfrwt beam="1">  1       21 0.81889500E-02 0.12500000E+03</pdfrwt>
<pdfrwt beam="2">  1       21 0.11290290E-01 0.12500000E+03</pdfrwt>
<totfact> 0.73821638E+06</totfact>
</mgrwt>
</event>
<event>
 3    1  0.1604658E-001  0.1250000E+03  0.7546771E-02  0.1235069E+00
         21   -1    0    0  502  501  0.00000000000E+00  0.00000000000E+00  0.11100777091E+03  0.11100777091E+03  0.00000000000E+00 0.  1.
         21   -1    0    0  501  502 -0.00000000000E+00 -0.00000000000E+00 -0.35188977924E+02  0.35188977924E+02  0.00000000000E+00 0.  1.
         25    1    1    2    0    0  0.00000000000E+00  0.00000000000E+00  0.75818792986E+02  0.14619674883E+03  0.12500000000E+03 0.  0.
<mgrwt>
<rscale>  0 0.12500000E+03</rscale>
<asrwt>0</asrwt>
<pdfrwt beam="1">  1       21 0.17078118E-01 0.12500000E+03</pdfrwt>
<pdfrwt beam="2">  1       21 0.54136890E-02 0.12500000E+03</pdfrwt>
<totfact> 0.71240295E+06</totfact>
</mgrwt>
</event>
<event>
 3    1  0.1604658E-001  0.1250000E+03  0.7546771E-02  0.1235069E+00
         21   -1    0    0  502  501  0.00000000000E+00  0.00000000000E+00  0.52603447727E+01  0.52603447727E+01  0.00000000000E+00 0.  1.
         21   -1    0    0  501  502 -0.00000000000E+00 -0.00000000000E+00 -0.74258440630E+03  0.74258440630E+03  0.00000000000E+00 0.  1.
         25    1    1    2    0    0  0.00000000000E+00  0.00000000000E+00 -0.73732406153E+03  0.74784475107E+03  0.12500000000E+03 0.  0.
<mgrwt>
<rscale>  0 0.12500000E+03</rscale>
<asrwt>0</asrwt>
<pdfrwt beam="1">  1       21 0.80928395E-03 0.12500000E+03</pdfrwt>
<pdfrwt beam="2">  1       21 0.11424374E+00 0.12500000E+03</pdfrwt>
<totfact> 0.31144811E+06</totfact>
</mgrwt>
</event>
<event>
 3    1  0.1604658E-001  0.1250000E+03  0.7546771E-02  0.1235069E+00
         21   -1    0    0  502  501  0.00000000000E+00  0.00000000000E+00  0.24903422605E+03  0.24903422605E+03  0.00000000000E+00 0. -1.
         21   -1    0    0  501  502 -0.00000000000E+00 -0.00000000000E+00 -0.15685594956E+02  0.15685594956E+02  0.00000000000E+00 0. -1.
         25    1    1    2    0    0  0.00000000000E+00  0.00000000000E+00  0.23334863110E+03  0.26471982101E+03  0.12500000000E+03 0.  0.
<mgrwt>
<rscale>  0 0.12500000E+03</rscale>
<asrwt>0</asrwt>
<pdfrwt beam="1">  1       21 0.38312955E-01 0.12500000E+03</pdfrwt>
<pdfrwt beam="2">  1       21 0.24131686E-02 0.12500000E+03</pdfrwt>
<totfact> 0.58519359E+06</totfact>
</mgrwt>
</event>
<event>
 3    1  0.1604658E-001  0.1250000E+03  0.7546771E-02  0.1235069E+00
         21   -1    0    0  502  501  0.00000000000E+00  0.00000000000E+00  0.31081542331E+02  0.31081542331E+02  0.00000000000E+00 0. -1.
         21   -1    0    0  501  502 -0.00000000000E+00 -0.00000000000E+00 -0.12567748274E+03  0.12567748274E+03  0.00000000000E+00 0. -1.
         25    1    1    2    0    0  0.00000000000E+00  0.00000000000E+00 -0.94595940412E+02  0.15675902507E+03  0.12500000000E+03 0.  0.
<mgrwt>
<rscale>  0 0.12500000E+03</rscale>
<asrwt>0</asrwt>
<pdfrwt beam="1">  1       21 0.47817757E-02 0.12500000E+03</pdfrwt>
<pdfrwt beam="2">  1       21 0.19334997E-01 0.12500000E+03</pdfrwt>
<totfact> 0.69917692E+06</totfact>
</mgrwt>
</event>
<event>
 3    1  0.1604658E-001  0.1250000E+03  0.7546771E-02  0.1235069E+00
         21   -1    0    0  502  501  0.00000000000E+00  0.00000000000E+00  0.14186358430E+03  0.14186358430E+03  0.00000000000E+00 0. -1.
         21   -1    0    0  501  502 -0.00000000000E+00 -0.00000000000E+00 -0.27535255219E+02  0.27535255219E+02  0.00000000000E+00 0. -1.
         25    1    1    2    0    0  0.00000000000E+00  0.00000000000E+00  0.11432832908E+03  0.16939883952E+03  0.12500000000E+03 0.  0.
<mgrwt>
<rscale>  0 0.12500000E+03</rscale>
<asrwt>0</asrwt>
<pdfrwt beam="1">  1       21 0.21825166E-01 0.12500000E+03</pdfrwt>
<pdfrwt beam="2">  1       21 0.42361932E-02 0.12500000E+03</pdfrwt>
<totfact> 0.68388905E+06</totfact>
</mgrwt>
</event>
<event>
 3    1  0.1604658E-001  0.1250000E+03  0.7546771E-02  0.1235069E+00
         21   -1    0    0  502  501  0.00000000000E+00  0.00000000000E+00  0.70266122219E+02  0.70266122219E+02  0.00000000000E+00 0. -1.
         21   -1    0    0  501  502 -0.00000000000E+00 -0.00000000000E+00 -0.55592223915E+02  0.55592223915E+02  0.00000000000E+00 0. -1.
         25    1    1    2    0    0  0.00000000000E+00  0.00000000000E+00  0.14673898304E+02  0.12585834613E+03  0.12500000000E+03 0.  0.
<mgrwt>
<rscale>  0 0.12500000E+03</rscale>
<asrwt>0</asrwt>
<pdfrwt beam="1">  1       21 0.10810173E-01 0.12500000E+03</pdfrwt>
<pdfrwt beam="2">  1       21 0.85526498E-02 0.12500000E+03</pdfrwt>
<totfact> 0.73925598E+06</totfact>
</mgrwt>
</event>
<event>
 3    1  0.1604658E-001  0.1250000E+03  0.7546771E-02  0.1235069E+00
         21   -1    0    0  502  501  0.00000000000E+00  0.00000000000E+00  0.23701680516E+01  0.23701680516E+01  0.00000000000E+00 0. -1.
         21   -1    0    0  501  502 -0.00000000000E+00 -0.00000000000E+00 -0.16480898885E+04  0.16480898885E+04  0.00000000000E+00 0. -1.
         25    1    1    2    0    0  0.00000000000E+00  0.00000000000E+00 -0.16457197205E+04  0.16504600566E+04  0.12500000000E+03 0.  0.
<mgrwt>
<rscale>  0 0.12500000E+03</rscale>
<asrwt>0</asrwt>
<pdfrwt beam="1">  1       21 0.36463957E-03 0.12500000E+03</pdfrwt>
<pdfrwt beam="2">  1       21 0.25355345E+00 0.12500000E+03</pdfrwt>
<totfact> 0.11901786E+06</totfact>
</mgrwt>
</event>
<event>
 3    1  0.1604658E-001  0.1250000E+03  0.7546771E-02  0.1235069E+00
         21   -1    0    0  502  501  0.00000000000E+00  0.00000000000E+00  0.84595007608E+03  0.84595007608E+03  0.00000000000E+00 0.  1.
         21   -1    0    0  501  502 -0.00000000000E+00 -0.00000000000E+00 -0.46175892768E+01  0.46175892768E+01  0.00000000000E+00 0.  1.
         25    1    1    2    0    0  0.00000000000E+00  0.00000000000E+00  0.84133248680E+03  0.85056766535E+03  0.12500000000E+03 0.  0.
<mgrwt>
<rscale>  0 0.12500000E+03</rscale>
<asrwt>0</asrwt>
<pdfrwt beam="1">  1       21 0.13014604E+00 0.12500000E+03</pdfrwt>
<pdfrwt beam="2">  1       21 0.71039902E-03 0.12500000E+03</pdfrwt>
<totfact> 0.27754410E+06</totfact>
</mgrwt>
</event>
<event>
 3    1  0.1604658E-001  0.1250000E+03  0.7546771E-02  0.1235069E+00
         21   -1    0    0  502  501  0.00000000000E+00  0.00000000000E+00  0.96450206116E+01  0.96450206116E+01  0.00000000000E+00 0. -1.
         21   -1    0    0  501  502 -0.00000000000E+00 -0.00000000000E+00 -0.40500172652E+03  0.40500172652E+03  0.00000000000E+00 0. -1.
         25    1    1    2    0    0  0.00000000000E+00  0.00000000000E+00 -0.39535670591E+03  0.41464674713E+03  0.12500000000E+03 0.  0.
<mgrwt>
<rscale>  0 0.12500000E+03</rscale>
<asrwt>0</asrwt>
<pdfrwt beam="1">  1       21 0.14838498E-02 0.12500000E+03</pdfrwt>
<pdfrwt beam="2">  1       21 0.62307936E-01 0.12500000E+03</pdfrwt>
<totfact> 0.47084792E+06</totfact>
</mgrwt>
</event>
<event>
 3    1  0.1604658E-001  0.1250000E+03  0.7546771E-02  0.1235069E+00
         21   -1    0    0  502  501  0.00000000000E+00  0.00000000000E+00  0.31774267288E+02  0.31774267288E+02  0.00000000000E+00 0.  1.
         21   -1    0    0  501  502 -0.00000000000E+00 -0.00000000000E+00 -0.12293753195E+03  0.12293753195E+03  0.00000000000E+00 0.  1.
         25    1    1    2    0    0  0.00000000000E+00  0.00000000000E+00 -0.91163264667E+02  0.15471179924E+03  0.12500000000E+03 0.  0.
<mgrwt>
<rscale>  0 0.12500000E+03</rscale>
<asrwt>0</asrwt>
<pdfrwt beam="1">  1       21 0.48883489E-02 0.12500000E+03</pdfrwt>
<pdfrwt beam="2">  1       21 0.18913466E-01 0.12500000E+03</pdfrwt>
<totfact> 0.70171496E+06</totfact>
</mgrwt>
</event>
<event>
 3    1  0.1604658E-001  0.1250000E+03  0.7546771E-02  0.1235069E+00
         21   -1    0    0  502  501  0.00000000000E+00  0.00000000000E+00  0.10627511133E+03  0.10627511133E+03  0.00000000000E+00 0. -1.
         21   -1    0    0  501  502 -0.00000000000E+00 -0.00000000000E+00 -0.36756018894E+02  0.36756018894E+02  0.00000000000E+00 0. -1.
         25    1    1    2    0    0  0.00000000000E+00  0.00000000000E+00  0.69519092435E+02  0.14303113022E+03  0.12500000000E+03 0.  0.
<mgrwt>
<rscale>  0 0.12500000E+03</rscale>
<asrwt>0</asrwt>
<pdfrwt beam="1">  1       21 0.16350017E-01 0.12500000E+03</pdfrwt>
<pdfrwt beam="2">  1       21 0.56547722E-02 0.12500000E+03</pdfrwt>
<totfact> 0.71646029E+06</totfact>
</mgrwt>
</event>
<event>
 3    1  0.1604658E-001  0.1250000E+03  0.7546771E-02  0.1235069E+00
         21   -1    0    0  502  501  0.00000000000E+00  0.00000000000E+00  0.77211298971E+01  0.77211298971E+01  0.00000000000E+00 0. -1.
         21   -1    0    0  501  502 -0.00000000000E+00 -0.00000000000E+00 -0.50591688679E+03  0.50591688679E+03  0.00000000000E+00 0. -1.
         25    1    1    2    0    0  0.00000000000E+00  0.00000000000E+00 -0.49819575689E+03  0.51363801668E+03  0.12500000000E+03 0.  0.
<mgrwt>
<rscale>  0 0.12500000E+03</rscale>
<asrwt>0</asrwt>
<pdfrwt beam="1">  1       21 0.11878660E-02 0.12500000E+03</pdfrwt>
<pdfrwt beam="2">  1       21 0.77833379E-01 0.12500000E+03</pdfrwt>
<totfact> 0.41313974E+06</totfact>
</mgrwt>
</event>
<event>
 3    1  0.1604658E-001  0.1250000E+03  0.7546771E-02  0.1235069E+00
         21   -1    0    0  502  501  0.00000000000E+00  0.00000000000E+00  0.26539176545E+02  0.26539176545E+02  0.00000000000E+00 0.  1.
         21   -1    0    0  501  502 -0.00000000000E+00 -0.00000000000E+00 -0.14718806340E+03  0.14718806340E+03  0.00000000000E+00 0.  1.
         25    1    1    2    0    0  0.00000000000E+00  0.00000000000E+00 -0.12064888686E+03  0.17372723995E+03  0.12500000000E+03 0.  0.
<mgrwt>
<rscale>  0 0.12500000E+03</rscale>
<asrwt>0</asrwt>
<pdfrwt beam="1">  1       21 0.40829502E-02 0.12500000E+03</pdfrwt>
<pdfrwt beam="2">  1       21 0.22644318E-01 0.12500000E+03</pdfrwt>
<totfact> 0.67878516E+06</totfact>
</mgrwt>
</event>
<event>
 3    1  0.1604658E-001  0.1250000E+03  0.7546771E-02  0.1235069E+00
         21   -1    0    0  502  501  0.00000000000E+00  0.00000000000E+00  0.12927847218E+03  0.12927847218E+03  0.00000000000E+00 0.  1.
         21   -1    0    0  501  502 -0.00000000000E+00 -0.00000000000E+00 -0.30215780974E+02  0.30215780974E+02  0.00000000000E+00 0.  1.
         25    1    1    2    0    0  0.00000000000E+00  0.00000000000E+00  0.99062691203E+02  0.15949425315E+03  0.12500000000E+03 0.  0.
<mgrwt>
<rscale>  0 0.12500000E+03</rscale>
<asrwt>0</asrwt>
<pdfrwt beam="1">  1       21 0.19888996E-01 0.12500000E+03</pdfrwt>
<pdfrwt beam="2">  1       21 0.46485817E-02 0.12500000E+03</pdfrwt>
<totfact> 0.69581346E+06</totfact>
</mgrwt>
</event>
<event>
 3    1  0.1604658E-001  0.1250000E+03  0.7546771E-02  0.1235069E+00
         21   -1    0    0  502  501  0.00000000000E+00  0.00000000000E+00  0.31592216355E+03  0.31592216355E+03  0.00000000000E+00 0.  1.
         21   -1    0    0  501  502 -0.00000000000E+00 -0.00000000000E+00 -0.12364596254E+02  0.12364596254E+02  0.00000000000E+00 0.  1.
         25    1    1    2    0    0  0.00000000000E+00  0.00000000000E+00  0.30355756730E+03  0.32828675981E+03  0.12500000000E+03 0.  0.
<mgrwt>
<rscale>  0 0.12500000E+03</rscale>
<asrwt>0</asrwt>
<pdfrwt beam="1">  1       21 0.48603404E-01 0.12500000E+03</pdfrwt>
<pdfrwt beam="2">  1       21 0.19022458E-02 0.12500000E+03</pdfrwt>
<totfact> 0.53183127E+06</totfact>
</mgrwt>
</event>
<event>
 3    1  0.1604658E-001  0.1250000E+03  0.7546771E-02  0.1235069E+00
         21   -1    0    0  502  501  0.00000000000E+00  0.00000000000E+00  0.64339678962E+01  0.64339678962E+01  0.00000000000E+00 0.  1.
         21   -1    0    0  501  502 -0.00000000000E+00 -0.00000000000E+00 -0.60712923394E+03  0.60712923394E+03  0.00000000000E+00 0.  1.
         25    1    1    2    0    0  0.00000000000E+00  0.00000000000E+00 -0.60069526605E+03  0.61356320184E+03  0.12500000000E+03 0.  0.
<mgrwt>
<rscale>  0 0.12500000E+03</rscale>
<asrwt>0</asrwt>
<pdfrwt beam="1">  1       21 0.98984127E-03 0.12500000E+03</pdfrwt>
<pdfrwt beam="2">  1       21 0.93404492E-01 0.12500000E+03</pdfrwt>
<totfact> 0.36486350E+06</totfact>
</mgrwt>
</event>
<event>
 3    1  0.1604658E-001  0.1250000E+03  0.7546771E-02  0.1235069E+00
         21   -1    0    0  502  501  0.00000000000E+00  0.00000000000E+00  0.17512977827E+03  0.17512977827E+03  0.00000000000E+00 0. -1.
         21   -1    0    0  501  502 -0.00000000000E+00 -0.00000000000E+00 -0.22304887487E+02  0.22304887487E+02  0.00000000000E+00 0. -1.
         25    1    1    2    0    0  0.00000000000E+00  0.00000000000E+00  0.15282489079E+03  0.19743466576E+03  0.12500000000E+03 0.  0.
<mgrwt>
<rscale>  0 0.12500000E+03</rscale>
<asrwt>0</asrwt>
<pdfrwt beam="1">  1       21 0.26943042E-01 0.12500000E+03</pdfrwt>
<pdfrwt beam="2">  1       21 0.34315213E-02 0.12500000E+03</pdfrwt>
<totfact> 0.65205537E+06</totfact>
</mgrwt>
</event>
<event>
 3    1  0.1604658E-001  0.1250000E+03  0.7546771E-02  0.1235069E+00
         21   -1    0    0  502  501  0.00000000000E+00  0.00000000000E+00  0.32695449310E+02  0.32695449310E+02  0.00000000000E+00 0. -1.
         21   -1    0    0  501  502 -0.00000000000E+00 -0.00000000000E+00 -0.11947381310E+03  0.11947381310E+03  0.00000000000E+00 0. -1.
         25    1    1    2    0    0  0.00000000000E+00  0.00000000000E+00 -0.86778363789E+02  0.15216926241E+03  0.12500000000E+03 0.  0.
<mgrwt>
<rscale>  0 0.12500000E+03</rscale>
<asrwt>0</asrwt>
<pdfrwt beam="1">  1       21 0.50300691E-02 0.12500000E+03</pdfrwt>
<pdfrwt beam="2">  1       21 0.18380587E-01 0.12500000E+03</pdfrwt>
<totfact> 0.70487754E+06</totfact>
</mgrwt>
</event>
<event>
 3    1  0.1604658E-001  0.1250000E+03  0.7546771E-02  0.1235069E+00
         21   -1    0    0  502  501  0.00000000000E+00  0.00000000000E+00  0.39036973261E+02  0.39036973261E+02  0.00000000000E+00 0. -1.
         21   -1    0    0  501  502 -0.00000000000E+00 -0.00000000000E+00 -0.10006539118E+03  0.10006539118E+03  0.00000000000E+00 0. -1.
         25    1    1    2    0    0  0.00000000000E+00  0.00000000000E+00 -0.61028417922E+02  0.13910236444E+03  0.12500000000E+03 0.  0.
<mgrwt>
<rscale>  0 0.12500000E+03</rscale>
<asrwt>0</asrwt>
<pdfrwt beam="1">  1       21 0.60056883E-02 0.12500000E+03</pdfrwt>
<pdfrwt beam="2">  1       21 0.15394675E-01 0.12500000E+03</pdfrwt>
<totfact> 0.72156710E+06</totfact>
</mgrwt>
</event>
<event>
 3    1  0.1604658E-001  0.1250000E+03  0.7546771E-02  0.1235069E+00
         21   -1    0    0  502  501  0.00000000000E+00  0.00000000000E+00  0.11521539317E+04  0.11521539317E+04  0.00000000000E+00 0. -1.
         21   -1    0    0  501  502 -0.00000000000E+00 -0.00000000000E+00 -0.33903889857E+01  0.33903889857E+01  0.00000000000E+00 0. -1.
         25    1    1    2    0    0  0.00000000000E+00  0.00000000000E+00  0.11487635428E+04  0.11555443207E+04  0.12500000000E+03 0.  0.
<mgrwt>
<rscale>  0 0.12500000E+03</rscale>
<asrwt>0</asrwt>
<pdfrwt beam="1">  1       21 0.17725414E+00 0.12500000E+03</pdfrwt>
<pdfrwt beam="2">  1       21 0.52159923E-03 0.12500000E+03</pdfrwt>
<totfact> 0.20052491E+06</totfact>
</mgrwt>
</event>
<event>
 3    1  0.1604658E-001  0.1250000E+03  0.7546771E-02  0.1235069E+00
         21   -1    0    0  502  501  0.00000000000E+00  0.00000000000E+00  0.17272369869E+02  0.17272369869E+02  0.00000000000E+00 0. -1.
         21   -1    0    0  501  502 -0.00000000000E+00 -0.00000000000E+00 -0.22615599536E+03  0.22615599536E+03  0.00000000000E+00 0. -1.
         25    1    1    2    0    0  0.00000000000E+00  0.00000000000E+00 -0.20888362549E+03  0.24342836523E+03  0.12500000000E+03 0.  0.
<mgrwt>
<rscale>  0 0.12500000E+03</rscale>
<asrwt>0</asrwt>
<pdfrwt beam="1">  1       21 0.26572878E-02 0.12500000E+03</pdfrwt>
<pdfrwt beam="2">  1       21 0.34793228E-01 0.12500000E+03</pdfrwt>
<totfact> 0.60502477E+06</totfact>
</mgrwt>
</event>
<event>
 3    1  0.1604658E-001  0.1250000E+03  0.7546771E-02  0.1235069E+00
         21   -1    0    0  502  501  0.00000000000E+00  0.00000000000E+00  0.22196746822E+02  0.22196746822E+02  0.00000000000E+00 0.  1.
         21   -1    0    0  501  502 -0.00000000000E+00 -0.00000000000E+00 -0.17598299567E+03  0.17598299567E+03  0.00000000000E+00 0.  1.
         25    1    1    2    0    0  0.00000000000E+00  0.00000000000E+00 -0.15378624885E+03  0.19817974250E+03  0.12500000000E+03 0.  0.
<mgrwt>
<rscale>  0 0.12500000E+03</rscale>
<asrwt>0</asrwt>
<pdfrwt beam="1">  1       21 0.34148842E-02 0.12500000E+03</pdfrwt>
<pdfrwt beam="2">  1       21 0.27074306E-01 0.12500000E+03</pdfrwt>
<totfact> 0.65124679E+06</totfact>
</mgrwt>
</event>
<event>
 3    1  0.1604658E-001  0.1250000E+03  0.7546771E-02  0.1235069E+00
         21   -1    0    0  502  501  0.00000000000E+00  0.00000000000E+00  0.11852899663E+03  0.11852899663E+03  0.00000000000E+00 0. -1.
         21   -1    0    0  501  502 -0.00000000000E+00 -0.00000000000E+00 -0.32956070759E+02  0.32956070759E+02  0.00000000000E+00 0. -1.
         25    1    1    2    0    0  0.00000000000E+00  0.00000000000E+00  0.85572925875E+02  0.15148506739E+03  0.12500000000E+03 0.  0.
<mgrwt>
<rscale>  0 0.12500000E+03</rscale>
<asrwt>0</asrwt>
<pdfrwt beam="1">  1       21 0.18235230E-01 0.12500000E+03</pdfrwt>
<pdfrwt beam="2">  1       21 0.50701648E-02 0.12500000E+03</pdfrwt>
<totfact> 0.70573145E+06</totfact>
</mgrwt>
</event>
<event>
 3    1  0.1604658E-001  0.1250000E+03  0.7546771E-02  0.1235069E+00
         21   -1    0    0  502  501  0.00000000000E+00  0.00000000000E+00  0.55707884931E+03  0.55707884931E+03  0.00000000000E+00 0. -1.
         21   -1    0    0  501  502 -0.00000000000E+00 -0.00000000000E+00 -0.70120235310E+01  0.70120235310E+01  0.00000000000E+00 0. -1.
         25    1    1    2    0    0  0.00000000000E+00  0.00000000000E+00  0.55006682578E+03  0.56409087284E+03  0.12500000000E+03 0.  0.
<mgrwt>
<rscale>  0 0.12500000E+03</rscale>
<asrwt>0</asrwt>
<pdfrwt beam="1">  1       21 0.85704404E-01 0.12500000E+03</pdfrwt>
<pdfrwt beam="2">  1       21 0.10787733E-02 0.12500000E+03</pdfrwt>
<totfact> 0.38768631E+06</totfact>
</mgrwt>
</event>
<event>
 3    1  0.1604658E-001  0.1250000E+03  0.7546771E-02  0.1235069E+00
         21   -1    0    0  502  501  0.00000000000E+00  0.00000000000E+00  0.54667680017E+03  0.54667680017E+03  0.00000000000E+00 0.  1.
         21   -1    0    0  501  502 -0.00000000000E+00 -0.00000000000E+00 -0.71454468139E+01  0.71454468139E+01  0.00000000000E+00 0.  1.
         25    1    1    2    0    0  0.00000000000E+00  0.00000000000E+00  0.53953135335E+03  0.55382224698E+03  0.12500000000E+03 0.  0.
<mgrwt>
<rscale>  0 0.12500000E+03</rscale>
<asrwt>0</asrwt>
<pdfrwt beam="1">  1       21 0.84104091E-01 0.12500000E+03</pdfrwt>
<pdfrwt beam="2">  1       21 0.10992999E-02 0.12500000E+03</pdfrwt>
<totfact> 0.39267876E+06</totfact>
</mgrwt>
</event>
<event>
 3    1  0.1604658E-001  0.1250000E+03  0.7546771E-02  0.1235069E+00
         21   -1    0    0  502  501  0.00000000000E+00  0.00000000000E+00  0.27977211172E+02  0.27977211172E+02  0.00000000000E+00 0.  1.
         21   -1    0    0  501  502 -0.00000000000E+00 -0.00000000000E+00 -0.13962256552E+03  0.13962256552E+03  0.00000000000E+00 0.  1.
         25    1    1    2    0    0  0.00000000000E+00  0.00000000000E+00 -0.11164535435E+03  0.16759977669E+03  0.12500000000E+03 0.  0.
<mgrwt>
<rscale>  0 0.12500000E+03</rscale>
<asrwt>0</asrwt>
<pdfrwt beam="1">  1       21 0.43041862E-02 0.12500000E+03</pdfrwt>
<pdfrwt beam="2">  1       21 0.21480395E-01 0.12500000E+03</pdfrwt>
<totfact> 0.68602602E+06</totfact>
</mgrwt>
</event>
<event>
 3    1  0.1604658E-001  0.1250000E+03  0.7546771E-02  0.1235069E+00
         21   -1    0    0  502  501  0.00000000000E+00  0.00000000000E+00  0.11098807802E+03  0.11098807802E+03  0.00000000000E+00 0. -1.
         21   -1    0    0  501  502 -0.00000000000E+00 -0.00000000000E+00 -0.35195221593E+02  0.35195221593E+02  0.00000000000E+00 0. -1.
         25    1    1    2    0    0  0.00000000000E+00  0.00000000000E+00  0.75792856423E+02  0.14618329961E+03  0.12500000000E+03 0.  0.
<mgrwt>
<rscale>  0 0.12500000E+03</rscale>
<asrwt>0</asrwt>
<pdfrwt beam="1">  1       21 0.17075089E-01 0.12500000E+03</pdfrwt>
<pdfrwt beam="2">  1       21 0.54146495E-02 0.12500000E+03</pdfrwt>
<totfact> 0.71242008E+06</totfact>
</mgrwt>
</event>
<event>
 3    1  0.1604658E-001  0.1250000E+03  0.7546771E-02  0.1235069E+00
         21   -1    0    0  502  501  0.00000000000E+00  0.00000000000E+00  0.47507389579E+02  0.47507389579E+02  0.00000000000E+00 0.  1.
         21   -1    0    0  501  502 -0.00000000000E+00 -0.00000000000E+00 -0.82224050503E+02  0.82224050503E+02  0.00000000000E+00 0.  1.
         25    1    1    2    0    0  0.00000000000E+00  0.00000000000E+00 -0.34716660924E+02  0.12973144008E+03  0.12500000000E+03 0.  0.
<mgrwt>
<rscale>  0 0.12500000E+03</rscale>
<asrwt>0</asrwt>
<pdfrwt beam="1">  1       21 0.73088292E-02 0.12500000E+03</pdfrwt>
<pdfrwt beam="2">  1       21 0.12649854E-01 0.12500000E+03</pdfrwt>
<totfact> 0.73400830E+06</totfact>
</mgrwt>
</event>
<event>
 3    1  0.1604658E-001  0.1250000E+03  0.7546771E-02  0.1235069E+00
         21   -1    0    0  502  501  0.00000000000E+00  0.00000000000E+00  0.42279659036E+02  0.42279659036E+02  0.00000000000E+00 0. -1.
         21   -1    0    0  501  502 -0.00000000000E+00 -0.00000000000E+00 -0.92390764001E+02  0.92390764001E+02  0.00000000000E+00 0. -1.
         25    1    1    2    0    0  0.00000000000E+00  0.00000000000E+00 -0.50111104965E+02  0.13467042304E+03  0.12500000000E+03 0.  0.
<mgrwt>
<rscale>  0 0.12500000E+03</rscale>
<asrwt>0</asrwt>
<pdfrwt beam="1">  1       21 0.65045631E-02 0.12500000E+03</pdfrwt>
<pdfrwt beam="2">  1       21 0.14213963E-01 0.12500000E+03</pdfrwt>
<totfact> 0.72740140E+06</totfact>
</mgrwt>
</event>
<event>
 3    1  0.1604658E-001  0.1250000E+03  0.7546771E-02  0.1235069E+00
         21   -1    0    0  502  501  0.00000000000E+00  0.00000000000E+00  0.13137137800E+02  0.13137137800E+02  0.00000000000E+00 0.  1.
         21   -1    0    0  501  502 -0.00000000000E+00 -0.00000000000E+00 -0.29734406835E+03  0.29734406835E+03  0.00000000000E+00 0.  1.
         25    1    1    2    0    0  0.00000000000E+00  0.00000000000E+00 -0.28420693055E+03  0.31048120615E+03  0.12500000000E+03 0.  0.
<mgrwt>
<rscale>  0 0.12500000E+03</rscale>
<asrwt>0</asrwt>
<pdfrwt beam="1">  1       21 0.20210982E-02 0.12500000E+03</pdfrwt>
<pdfrwt beam="2">  1       21 0.45745239E-01 0.12500000E+03</pdfrwt>
<totfact> 0.54596239E+06</totfact>
</mgrwt>
</event>
<event>
 3    1  0.1604658E-001  0.1250000E+03  0.7546771E-02  0.1235069E+00
         21   -1    0    0  502  501  0.00000000000E+00  0.00000000000E+00  0.31203459423E+03  0.31203459423E+03  0.00000000000E+00 0. -1.
         21   -1    0    0  501  502 -0.00000000000E+00 -0.00000000000E+00 -0.12518643997E+02  0.12518643997E+02  0.00000000000E+00 0. -1.
         25    1    1    2    0    0  0.00000000000E+00  0.00000000000E+00  0.29951595024E+03  0.32455323823E+03  0.12500000000E+03 0.  0.
<mgrwt>
<rscale>  0 0.12500000E+03</rscale>
<asrwt>0</asrwt>
<pdfrwt beam="1">  1       21 0.48005316E-01 0.12500000E+03</pdfrwt>
<pdfrwt beam="2">  1       21 0.19259455E-02 0.12500000E+03</pdfrwt>
<totfact> 0.53474485E+06</totfact>
</mgrwt>
</event>
<event>
 3    1  0.1604658E-001  0.1250000E+03  0.7546771E-02  0.1235069E+00
         21   -1    0    0  502  501  0.00000000000E+00  0.00000000000E+00  0.13290512581E+02  0.13290512581E+02  0.00000000000E+00 0. -1.
         21   -1    0    0  501  502 -0.00000000000E+00 -0.00000000000E+00 -0.29391266712E+03  0.29391266712E+03  0.00000000000E+00 0. -1.
         25    1    1    2    0    0  0.00000000000E+00  0.00000000000E+00 -0.28062215454E+03  0.30720317970E+03  0.12500000000E+03 0.  0.
<mgrwt>
<rscale>  0 0.12500000E+03</rscale>
<asrwt>0</asrwt>
<pdfrwt beam="1">  1       21 0.20446942E-02 0.12500000E+03</pdfrwt>
<pdfrwt beam="2">  1       21 0.45217335E-01 0.12500000E+03</pdfrwt>
<totfact> 0.54862823E+06</totfact>
</mgrwt>
</event>
<event>
 3    1  0.1604658E-001  0.1250000E+03  0.7546771E-02  0.1235069E+00
         21   -1    0    0  502  501  0.00000000000E+00  0.00000000000E+00  0.13959726265E+02  0.13959726265E+02  0.00000000000E+00 0.  1.
         21   -1    0    0  501  502 -0.00000000000E+00 -0.00000000000E+00 -0.27982282216E+03  0.27982282216E+03  0.00000000000E+00 0.  1.
         25    1    1    2    0    0  0.00000000000E+00  0.00000000000E+00 -0.26586309589E+03  0.29378254842E+03  0.12500000000E+03 0.  0.
<mgrwt>
<rscale>  0 0.12500000E+03</rscale>
<asrwt>0</asrwt>
<pdfrwt beam="1">  1       21 0.21476500E-02 0.12500000E+03</pdfrwt>
<pdfrwt beam="2">  1       21 0.43049669E-01 0.12500000E+03</pdfrwt>
<totfact> 0.55976856E+06</totfact>
</mgrwt>
</event>
<event>
 3    1  0.1604658E-001  0.1250000E+03  0.7546771E-02  0.1235069E+00
         21   -1    0    0  502  501  0.00000000000E+00  0.00000000000E+00  0.34737196417E+01  0.34737196417E+01  0.00000000000E+00 0. -1.
         21   -1    0    0  501  502 -0.00000000000E+00 -0.00000000000E+00 -0.11245150452E+04  0.11245150452E+04  0.00000000000E+00 0. -1.
         25    1    1    2    0    0  0.00000000000E+00  0.00000000000E+00 -0.11210413256E+04  0.11279887649E+04  0.12500000000E+03 0.  0.
<mgrwt>
<rscale>  0 0.12500000E+03</rscale>
<asrwt>0</asrwt>
<pdfrwt beam="1">  1       21 0.53441822E-03 0.12500000E+03</pdfrwt>
<pdfrwt beam="2">  1       21 0.17300237E+00 0.12500000E+03</pdfrwt>
<totfact> 0.20639441E+06</totfact>
</mgrwt>
</event>
<event>
 3    1  0.1604658E-001  0.1250000E+03  0.7546771E-02  0.1235069E+00
         21   -1    0    0  502  501  0.00000000000E+00  0.00000000000E+00  0.14395272314E+03  0.14395272314E+03  0.00000000000E+00 0. -1.
         21   -1    0    0  501  502 -0.00000000000E+00 -0.00000000000E+00 -0.27135645056E+02  0.27135645056E+02  0.00000000000E+00 0. -1.
         25    1    1    2    0    0  0.00000000000E+00  0.00000000000E+00  0.11681707809E+03  0.17108836820E+03  0.12500000000E+03 0.  0.
<mgrwt>
<rscale>  0 0.12500000E+03</rscale>
<asrwt>0</asrwt>
<pdfrwt beam="1">  1       21 0.22146572E-01 0.12500000E+03</pdfrwt>
<pdfrwt beam="2">  1       21 0.41747147E-02 0.12500000E+03</pdfrwt>
<totfact> 0.68188850E+06</totfact>
</mgrwt>
</event>
<event>
 3    1  0.1604658E-001  0.1250000E+03  0.7546771E-02  0.1235069E+00
         21   -1    0    0  502  501  0.00000000000E+00  0.00000000000E+00  0.11893328506E+02  0.11893328506E+02  0.00000000000E+00 0.  1.
         21   -1    0    0  501  502 -0.00000000000E+00 -0.00000000000E+00 -0.32844043599E+03  0.32844043599E+03  0.00000000000E+00 0.  1.
         25    1    1    2    0    0  0.00000000000E+00  0.00000000000E+00 -0.31654710748E+03  0.34033376450E+03  0.12500000000E+03 0.  0.
<mgrwt>
<rscale>  0 0.12500000E+03</rscale>
<asrwt>0</asrwt>
<pdfrwt beam="1">  1       21 0.18297429E-02 0.12500000E+03</pdfrwt>
<pdfrwt beam="2">  1       21 0.50529296E-01 0.12500000E+03</pdfrwt>
<totfact> 0.52260331E+06</totfact>
</mgrwt>
</event>
<event>
 3    1  0.1604658E-001  0.1250000E+03  0.7546771E-02  0.1235069E+00
         21   -1    0    0  502  501  0.00000000000E+00  0.00000000000E+00  0.38105263959E+03  0.38105263959E+03  0.00000000000E+00 0.  1.
         21   -1    0    0  501  502 -0.00000000000E+00 -0.00000000000E+00 -0.10251208348E+02  0.10251208348E+02  0.00000000000E+00 0.  1.
         25    1    1    2    0    0  0.00000000000E+00  0.00000000000E+00  0.37080143125E+03  0.39130384794E+03  0.12500000000E+03 0.  0.
<mgrwt>
<rscale>  0 0.12500000E+03</rscale>
<asrwt>0</asrwt>
<pdfrwt beam="1">  1       21 0.58623472E-01 0.12500000E+03</pdfrwt>
<pdfrwt beam="2">  1       21 0.15771093E-02 0.12500000E+03</pdfrwt>
<totfact> 0.48623561E+06</totfact>
</mgrwt>
</event>
<event>
 3    1  0.1604658E-001  0.1250000E+03  0.7546771E-02  0.1235069E+00
         21   -1    0    0  502  501  0.00000000000E+00  0.00000000000E+00  0.11469504044E+02  0.11469504044E+02  0.00000000000E+00 0.  1.
         21   -1    0    0  501  502 -0.00000000000E+00 -0.00000000000E+00 -0.34057706287E+03  0.34057706287E+03  0.00000000000E+00 0.  1.
         25    1    1    2    0    0  0.00000000000E+00  0.00000000000E+00 -0.32910755882E+03  0.35204656691E+03  0.12500000000E+03 0.  0.
<mgrwt>
<rscale>  0 0.12500000E+03</rscale>
<asrwt>0</asrwt>
<pdfrwt beam="1">  1       21 0.17645389E-02 0.12500000E+03</pdfrwt>
<pdfrwt beam="2">  1       21 0.52396477E-01 0.12500000E+03</pdfrwt>
<totfact> 0.51387639E+06</totfact>
</mgrwt>
</event>
<event>
 3    1  0.1604658E-001  0.1250000E+03  0.7546771E-02  0.1235069E+00
         21   -1    0    0  502  501  0.00000000000E+00  0.00000000000E+00  0.17184398659E+03  0.17184398659E+03  0.00000000000E+00 0.  1.
         21   -1    0    0  501  502 -0.00000000000E+00 -0.00000000000E+00 -0.22731374415E+02  0.22731374415E+02  0.00000000000E+00 0.  1.
         25    1    1    2    0    0  0.00000000000E+00  0.00000000000E+00  0.14911261217E+03  0.19457536100E+03  0.12500000000E+03 0.  0.
<mgrwt>
<rscale>  0 0.12500000E+03</rscale>
<asrwt>0</asrwt>
<pdfrwt beam="1">  1       21 0.26437536E-01 0.12500000E+03</pdfrwt>
<pdfrwt beam="2">  1       21 0.34971346E-02 0.12500000E+03</pdfrwt>
<totfact> 0.65517528E+06</totfact>
</mgrwt>
</event>
<event>
 3    1  0.1604658E-001  0.1250000E+03  0.7546771E-02  0.1235069E+00
         21   -1    0    0  502  501  0.00000000000E+00  0.00000000000E+00  0.21389689739E+03  0.21389689739E+03  0.00000000000E+00 0.  1.
         21   -1    0    0  501  502 -0.00000000000E+00 -0.00000000000E+00 -0.18262303230E+02  0.18262303230E+02  0.00000000000E+00 0.  1.
         25    1    1    2    0    0  0.00000000000E+00  0.00000000000E+00  0.19563459416E+03  0.23215920062E+03  0.12500000000E+03 0.  0.
<mgrwt>
<rscale>  0 0.12500000E+03</rscale>
<asrwt>0</asrwt>
<pdfrwt beam="1">  1       21 0.32907213E-01 0.12500000E+03</pdfrwt>
<pdfrwt beam="2">  1       21 0.28095853E-02 0.12500000E+03</pdfrwt>
<totfact> 0.61599756E+06</totfact>
</mgrwt>
</event>
<event>
 3    1  0.1604658E-001  0.1250000E+03  0.7546771E-02  0.1235069E+00
         21   -1    0    0  502  501  0.00000000000E+00  0.00000000000E+00  0.78553263314E+02  0.78553263314E+02  0.00000000000E+00 0.  1.
         21   -1    0    0  501  502 -0.00000000000E+00 -0.00000000000E+00 -0.49727405778E+02  0.49727405778E+02  0.00000000000E+00 0.  1.
         25    1    1    2    0    0  0.00000000000E+00  0.00000000000E+00  0.28825857536E+02  0.12828066909E+03  0.12500000000E+03 0.  0.
<mgrwt>
<rscale>  0 0.12500000E+03</rscale>
<asrwt>0</asrwt>
<pdfrwt beam="1">  1       21 0.12085117E-01 0.12500000E+03</pdfrwt>
<pdfrwt beam="2">  1       21 0.76503701E-02 0.12500000E+03</pdfrwt>
<totfact> 0.73595679E+06</totfact>
</mgrwt>
</event>
<event>
 3    1  0.1604658E-001  0.1250000E+03  0.7546771E-02  0.1235069E+00
         21   -1    0    0  502  501  0.00000000000E+00  0.00000000000E+00  0.49952599710E+02  0.49952599710E+02  0.00000000000E+00 0. -1.
         21   -1    0    0  501  502 -0.00000000000E+00 -0.00000000000E+00 -0.78199133233E+02  0.78199133233E+02  0.00000000000E+00 0. -1.
         25    1    1    2    0    0  0.00000000000E+00  0.00000000000E+00 -0.28246533523E+02  0.12815173294E+03  0.12500000000E+03 0.  0.
<mgrwt>
<rscale>  0 0.12500000E+03</rscale>
<asrwt>0</asrwt>
<pdfrwt beam="1">  1       21 0.76850154E-02 0.12500000E+03</pdfrwt>
<pdfrwt beam="2">  1       21 0.12030636E-01 0.12500000E+03</pdfrwt>
<totfact> 0.73613072E+06</totfact>
</mgrwt>
</event>
<event>
 3    1  0.1604658E-001  0.1250000E+03  0.7546771E-02  0.1235069E+00
         21   -1    0    0  502  501  0.00000000000E+00  0.00000000000E+00  0.17590534495E+02  0.17590534495E+02  0.00000000000E+00 0.  1.
         21   -1    0    0  501  502 -0.00000000000E+00 -0.00000000000E+00 -0.22206545236E+03  0.22206545236E+03  0.00000000000E+00 0.  1.
         25    1    1    2    0    0  0.00000000000E+00  0.00000000000E+00 -0.20447491787E+03  0.23965598686E+03  0.12500000000E+03 0.  0.
<mgrwt>
<rscale>  0 0.12500000E+03</rscale>
<asrwt>0</asrwt>
<pdfrwt beam="1">  1       21 0.27062359E-02 0.12500000E+03</pdfrwt>
<pdfrwt beam="2">  1       21 0.34163918E-01 0.12500000E+03</pdfrwt>
<totfact> 0.60865967E+06</totfact>
</mgrwt>
</event>
<event>
 3    1  0.1604658E-001  0.1250000E+03  0.7546771E-02  0.1235069E+00
         21   -1    0    0  502  501  0.00000000000E+00  0.00000000000E+00  0.22455361968E+03  0.22455361968E+03  0.00000000000E+00 0.  1.
         21   -1    0    0  501  502 -0.00000000000E+00 -0.00000000000E+00 -0.17395622505E+02  0.17395622505E+02  0.00000000000E+00 0.  1.
         25    1    1    2    0    0  0.00000000000E+00  0.00000000000E+00  0.20715799717E+03  0.24194924218E+03  0.12500000000E+03 0.  0.
<mgrwt>
<rscale>  0 0.12500000E+03</rscale>
<asrwt>0</asrwt>
<pdfrwt beam="1">  1       21 0.34546709E-01 0.12500000E+03</pdfrwt>
<pdfrwt beam="2">  1       21 0.26762498E-02 0.12500000E+03</pdfrwt>
<totfact> 0.60644548E+06</totfact>
</mgrwt>
</event>
<event>
 3    1  0.1604658E-001  0.1250000E+03  0.7546771E-02  0.1235069E+00
         21   -1    0    0  502  501  0.00000000000E+00  0.00000000000E+00  0.89128906608E+02  0.89128906608E+02  0.00000000000E+00 0. -1.
         21   -1    0    0  501  502 -0.00000000000E+00 -0.00000000000E+00 -0.43826970942E+02  0.43826970942E+02  0.00000000000E+00 0. -1.
         25    1    1    2    0    0  0.00000000000E+00  0.00000000000E+00  0.45301935667E+02  0.13295587755E+03  0.12500000000E+03 0.  0.
<mgrwt>
<rscale>  0 0.12500000E+03</rscale>
<asrwt>0</asrwt>
<pdfrwt beam="1">  1       21 0.13712139E-01 0.12500000E+03</pdfrwt>
<pdfrwt beam="2">  1       21 0.67426109E-02 0.12500000E+03</pdfrwt>
<totfact> 0.72968291E+06</totfact>
</mgrwt>
</event>
<event>
 3    1  0.1604658E-001  0.1250000E+03  0.7546771E-02  0.1235069E+00
         21   -1    0    0  502  501  0.00000000000E+00  0.00000000000E+00  0.53467499485E+02  0.53467499485E+02  0.00000000000E+00 0.  1.
         21   -1    0    0  501  502 -0.00000000000E+00 -0.00000000000E+00 -0.73058400667E+02  0.73058400667E+02  0.00000000000E+00 0.  1.
         25    1    1    2    0    0  0.00000000000E+00  0.00000000000E+00 -0.19590901182E+02  0.12652590015E+03  0.12500000000E+03 0.  0.
<mgrwt>
<rscale>  0 0.12500000E+03</rscale>
<asrwt>0</asrwt>
<pdfrwt beam="1">  1       21 0.82257692E-02 0.12500000E+03</pdfrwt>
<pdfrwt beam="2">  1       21 0.11239754E-01 0.12500000E+03</pdfrwt>
<totfact> 0.73833829E+06</totfact>
</mgrwt>
</event>
<event>
 3    1  0.1604658E-001  0.1250000E+03  0.7546771E-02  0.1235069E+00
         21   -1    0    0  502  501  0.00000000000E+00  0.00000000000E+00  0.22615549298E+03  0.22615549298E+03  0.00000000000E+00 0. -1.
         21   -1    0    0  501  502 -0.00000000000E+00 -0.00000000000E+00 -0.17272408238E+02  0.17272408238E+02  0.00000000000E+00 0. -1.
         25    1    1    2    0    0  0.00000000000E+00  0.00000000000E+00  0.20888308474E+03  0.24342790122E+03  0.12500000000E+03 0.  0.
<mgrwt>
<rscale>  0 0.12500000E+03</rscale>
<asrwt>0</asrwt>
<pdfrwt beam="1">  1       21 0.34793151E-01 0.12500000E+03</pdfrwt>
<pdfrwt beam="2">  1       21 0.26572937E-02 0.12500000E+03</pdfrwt>
<totfact> 0.60502521E+06</totfact>
</mgrwt>
</event>
<event>
 3    1  0.1604658E-001  0.1250000E+03  0.7546771E-02  0.1235069E+00
         21   -1    0    0  502  501  0.00000000000E+00  0.00000000000E+00  0.13563190036E+03  0.13563190036E+03  0.00000000000E+00 0. -1.
         21   -1    0    0  501  502 -0.00000000000E+00 -0.00000000000E+00 -0.28800378006E+02  0.28800378006E+02  0.00000000000E+00 0. -1.
         25    1    1    2    0    0  0.00000000000E+00  0.00000000000E+00  0.10683152235E+03  0.16443227837E+03  0.12500000000E+03 0.  0.
<mgrwt>
<rscale>  0 0.12500000E+03</rscale>
<asrwt>0</asrwt>
<pdfrwt beam="1">  1       21 0.20866446E-01 0.12500000E+03</pdfrwt>
<pdfrwt beam="2">  1       21 0.44308275E-02 0.12500000E+03</pdfrwt>
<totfact> 0.68981935E+06</totfact>
</mgrwt>
</event>
<event>
 3    1  0.1604658E-001  0.1250000E+03  0.7546771E-02  0.1235069E+00
         21   -1    0    0  502  501  0.00000000000E+00  0.00000000000E+00  0.87508294635E+02  0.87508294635E+02  0.00000000000E+00 0.  1.
         21   -1    0    0  501  502 -0.00000000000E+00 -0.00000000000E+00 -0.44638625587E+02  0.44638625587E+02  0.00000000000E+00 0.  1.
         25    1    1    2    0    0  0.00000000000E+00  0.00000000000E+00  0.42869669047E+02  0.13214692022E+03  0.12500000000E+03 0.  0.
<mgrwt>
<rscale>  0 0.12500000E+03</rscale>
<asrwt>0</asrwt>
<pdfrwt beam="1">  1       21 0.13462815E-01 0.12500000E+03</pdfrwt>
<pdfrwt beam="2">  1       21 0.68674809E-02 0.12500000E+03</pdfrwt>
<totfact> 0.73076529E+06</totfact>
</mgrwt>
</event>
<event>
 3    1  0.1604658E-001  0.1250000E+03  0.7546771E-02  0.1235069E+00
         21   -1    0    0  502  501  0.00000000000E+00  0.00000000000E+00  0.41125406883E+02  0.41125406883E+02  0.00000000000E+00 0.  1.
         21   -1    0    0  501  502 -0.00000000000E+00 -0.00000000000E+00 -0.94983862680E+02  0.94983862680E+02  0.00000000000E+00 0.  1.
         25    1    1    2    0    0  0.00000000000E+00  0.00000000000E+00 -0.53858455797E+02  0.13610926956E+03  0.12500000000E+03 0.  0.
<mgrwt>
<rscale>  0 0.12500000E+03</rscale>
<asrwt>0</asrwt>
<pdfrwt beam="1">  1       21 0.63269857E-02 0.12500000E+03</pdfrwt>
<pdfrwt beam="2">  1       21 0.14612902E-01 0.12500000E+03</pdfrwt>
<totfact> 0.72549929E+06</totfact>
</mgrwt>
</event>
<event>
 3    1  0.1604658E-001  0.1250000E+03  0.7546771E-02  0.1235069E+00
         21   -1    0    0  502  501  0.00000000000E+00  0.00000000000E+00  0.18924932388E+03  0.18924932388E+03  0.00000000000E+00 0.  1.
         21   -1    0    0  501  502 -0.00000000000E+00 -0.00000000000E+00 -0.20640760664E+02  0.20640760664E+02  0.00000000000E+00 0.  1.
         25    1    1    2    0    0  0.00000000000E+00  0.00000000000E+00  0.16860856322E+03  0.20989008455E+03  0.12500000000E+03 0.  0.
<mgrwt>
<rscale>  0 0.12500000E+03</rscale>
<asrwt>0</asrwt>
<pdfrwt beam="1">  1       21 0.29115279E-01 0.12500000E+03</pdfrwt>
<pdfrwt beam="2">  1       21 0.31755018E-02 0.12500000E+03</pdfrwt>
<totfact> 0.63871102E+06</totfact>
</mgrwt>
</event>
<event>
 3    1  0.1604658E-001  0.1250000E+03  0.7546771E-02  0.1235069E+00
         21   -1    0    0  502  501  0.00000000000E+00  0.00000000000E+00  0.13278440688E+02  0.13278440688E+02  0.00000000000E+00 0. -1.
         21   -1    0    0  501  502 -0.00000000000E+00 -0.00000000000E+00 -0.29417987336E+03  0.29417987336E+03  0.00000000000E+00 0. -1.
         25    1    1    2    0    0  0.00000000000E+00  0.00000000000E+00 -0.28090143267E+03  0.30745831404E+03  0.12500000000E+03 0.  0.
<mgrwt>
<rscale>  0 0.12500000E+03</rscale>
<asrwt>0</asrwt>
<pdfrwt beam="1">  1       21 0.20428372E-02 0.12500000E+03</pdfrwt>
<pdfrwt beam="2">  1       21 0.45258439E-01 0.12500000E+03</pdfrwt>
<totfact> 0.54842000E+06</totfact>
</mgrwt>
</event>
<event>
 3    1  0.1604658E-001  0.1250000E+03  0.7546771E-02  0.1235069E+00
         21   -1    0    0  502  501  0.00000000000E+00  0.00000000000E+00  0.84054985353E+02  0.84054985353E+02  0.00000000000E+00 0. -1.
         21   -1    0    0  501  502 -0.00000000000E+00 -0.00000000000E+00 -0.46472555834E+02  0.46472555834E+02  0.00000000000E+00 0. -1.
         25    1    1    2    0    0  0.00000000000E+00  0.00000000000E+00  0.37582429519E+02  0.13052754119E+03  0.12500000000E+03 0.  0.
<mgrwt>
<rscale>  0 0.12500000E+03</rscale>
<asrwt>0</asrwt>
<pdfrwt beam="1">  1       21 0.12931536E-01 0.12500000E+03</pdfrwt>
<pdfrwt beam="2">  1       21 0.71496240E-02 0.12500000E+03</pdfrwt>
<totfact> 0.73294411E+06</totfact>
</mgrwt>
</event>
<event>
 3    1  0.1604658E-001  0.1250000E+03  0.7546771E-02  0.1235069E+00
         21   -1    0    0  502  501  0.00000000000E+00  0.00000000000E+00  0.13587387217E+03  0.13587387217E+03  0.00000000000E+00 0.  1.
         21   -1    0    0  501  502 -0.00000000000E+00 -0.00000000000E+00 -0.28749088678E+02  0.28749088678E+02  0.00000000000E+00 0.  1.
         25    1    1    2    0    0  0.00000000000E+00  0.00000000000E+00  0.10712478349E+03  0.16462296085E+03  0.12500000000E+03 0.  0.
<mgrwt>
<rscale>  0 0.12500000E+03</rscale>
<asrwt>0</asrwt>
<pdfrwt beam="1">  1       21 0.20903672E-01 0.12500000E+03</pdfrwt>
<pdfrwt beam="2">  1       21 0.44229368E-02 0.12500000E+03</pdfrwt>
<totfact> 0.68958986E+06</totfact>
</mgrwt>
</event>
<event>
 3    1  0.1604658E-001  0.1250000E+03  0.7546771E-02  0.1235069E+00
         21   -1    0    0  502  501  0.00000000000E+00  0.00000000000E+00  0.41054733540E+01  0.41054733540E+01  0.00000000000E+00 0. -1.
         21   -1    0    0  501  502 -0.00000000000E+00 -0.00000000000E+00 -0.95147371891E+03  0.95147371891E+03  0.00000000000E+00 0. -1.
         25    1    1    2    0    0  0.00000000000E+00  0.00000000000E+00 -0.94736824555E+03  0.95557919226E+03  0.12500000000E+03 0.  0.
<mgrwt>
<rscale>  0 0.12500000E+03</rscale>
<asrwt>0</asrwt>
<pdfrwt beam="1">  1       21 0.63161139E-03 0.12500000E+03</pdfrwt>
<pdfrwt beam="2">  1       21 0.14638055E+00 0.12500000E+03</pdfrwt>
<totfact> 0.24762624E+06</totfact>
</mgrwt>
</event>
<event>
 3    1  0.1604658E-001  0.1250000E+03  0.7546771E-02  0.1235069E+00
         21   -1    0    0  502  501  0.00000000000E+00  0.00000000000E+00  0.16288260576E+03  0.16288260576E+03  0.00000000000E+00 0. -1.
         21   -1    0    0  501  502 -0.00000000000E+00 -0.00000000000E+00 -0.23981996001E+02  0.23981996001E+02  0.00000000000E+00 0. -1.
         25    1    1    2    0    0  0.00000000000E+00  0.00000000000E+00  0.13890060976E+03  0.18686460176E+03  0.12500000000E+03 0.  0.
<mgrwt>
<rscale>  0 0.12500000E+03</rscale>
<asrwt>0</asrwt>
<pdfrwt beam="1">  1       21 0.25058862E-01 0.12500000E+03</pdfrwt>
<pdfrwt beam="2">  1       21 0.36895379E-02 0.12500000E+03</pdfrwt>
<totfact> 0.66372642E+06</totfact>
</mgrwt>
</event>
<event>
 3    1  0.1604658E-001  0.1250000E+03  0.7546771E-02  0.1235069E+00
         21   -1    0    0  502  501  0.00000000000E+00  0.00000000000E+00  0.42318944018E+01  0.42318944018E+01  0.00000000000E+00 0. -1.
         21   -1    0    0  501  502 -0.00000000000E+00 -0.00000000000E+00 -0.92304996985E+03  0.92304996985E+03  0.00000000000E+00 0. -1.
         25    1    1    2    0    0  0.00000000000E+00  0.00000000000E+00 -0.91881807544E+03  0.92728186425E+03  0.12500000000E+03 0.  0.
<mgrwt>
<rscale>  0 0.12500000E+03</rscale>
<asrwt>0</asrwt>
<pdfrwt beam="1">  1       21 0.65105966E-03 0.12500000E+03</pdfrwt>
<pdfrwt beam="2">  1       21 0.14200791E+00 0.12500000E+03</pdfrwt>
<totfact> 0.25529633E+06</totfact>
</mgrwt>
</event>
<event>
 3    1  0.1604658E-001  0.1250000E+03  0.7546771E-02  0.1235069E+00
         21   -1    0    0  502  501  0.00000000000E+00  0.00000000000E+00  0.15082314001E+04  0.15082314001E+04  0.00000000000E+00 0.  1.
         21   -1    0    0  501  502 -0.00000000000E+00 -0.00000000000E+00 -0.25899540347E+01  0.25899540347E+01  0.00000000000E+00 0.  1.
         25    1    1    2    0    0  0.00000000000E+00  0.00000000000E+00  0.15056414461E+04  0.15108213541E+04  0.12500000000E+03 0.  0.
<mgrwt>
<rscale>  0 0.12500000E+03</rscale>
<asrwt>0</asrwt>
<pdfrwt beam="1">  1       21 0.23203490E+00 0.12500000E+03</pdfrwt>
<pdfrwt beam="2">  1       21 0.39845567E-03 0.12500000E+03</pdfrwt>
<totfact> 0.13833288E+06</totfact>
</mgrwt>
</event>
<event>
 3    1  0.1604658E-001  0.1250000E+03  0.7546771E-02  0.1235069E+00
         21   -1    0    0  502  501  0.00000000000E+00  0.00000000000E+00  0.90263575292E+02  0.90263575292E+02  0.00000000000E+00 0.  1.
         21   -1    0    0  501  502 -0.00000000000E+00 -0.00000000000E+00 -0.43276038949E+02  0.43276038949E+02  0.00000000000E+00 0.  1.
         25    1    1    2    0    0  0.00000000000E+00  0.00000000000E+00  0.46987536343E+02  0.13353961424E+03  0.12500000000E+03 0.  0.
<mgrwt>
<rscale>  0 0.12500000E+03</rscale>
<asrwt>0</asrwt>
<pdfrwt beam="1">  1       21 0.13886704E-01 0.12500000E+03</pdfrwt>
<pdfrwt beam="2">  1       21 0.66578522E-02 0.12500000E+03</pdfrwt>
<totfact> 0.72890426E+06</totfact>
</mgrwt>
</event>
<event>
 3    1  0.1604658E-001  0.1250000E+03  0.7546771E-02  0.1235069E+00
         21   -1    0    0  502  501  0.00000000000E+00  0.00000000000E+00  0.84201192087E+01  0.84201192087E+01  0.00000000000E+00 0.  1.
         21   -1    0    0  501  502 -0.00000000000E+00 -0.00000000000E+00 -0.46391861008E+03  0.46391861008E+03  0.00000000000E+00 0.  1.
         25    1    1    2    0    0  0.00000000000E+00  0.00000000000E+00 -0.45549849087E+03  0.47233872929E+03  0.12500000000E+03 0.  0.
<mgrwt>
<rscale>  0 0.12500000E+03</rscale>
<asrwt>0</asrwt>
<pdfrwt beam="1">  1       21 0.12954023E-02 0.12500000E+03</pdfrwt>
<pdfrwt beam="2">  1       21 0.71372133E-01 0.12500000E+03</pdfrwt>
<totfact> 0.43585042E+06</totfact>
</mgrwt>
</event>
<event>
 3    1  0.1604658E-001  0.1250000E+03  0.7546771E-02  0.1235069E+00
         21   -1    0    0  502  501  0.00000000000E+00  0.00000000000E+00  0.31038223544E+02  0.31038223544E+02  0.00000000000E+00 0. -1.
         21   -1    0    0  501  502 -0.00000000000E+00 -0.00000000000E+00 -0.12585288570E+03  0.12585288570E+03  0.00000000000E+00 0. -1.
         25    1    1    2    0    0  0.00000000000E+00  0.00000000000E+00 -0.94814662156E+02  0.15689110924E+03  0.12500000000E+03 0.  0.
<mgrwt>
<rscale>  0 0.12500000E+03</rscale>
<asrwt>0</asrwt>
<pdfrwt beam="1">  1       21 0.47751114E-02 0.12500000E+03</pdfrwt>
<pdfrwt beam="2">  1       21 0.19361982E-01 0.12500000E+03</pdfrwt>
<totfact> 0.69901378E+06</totfact>
</mgrwt>
</event>
<event>
 3    1  0.1604658E-001  0.1250000E+03  0.7546771E-02  0.1235069E+00
         21   -1    0    0  502  501  0.00000000000E+00  0.00000000000E+00  0.95784638035E+03  0.95784638035E+03  0.00000000000E+00 0.  1.
         21   -1    0    0  501  502 -0.00000000000E+00 -0.00000000000E+00 -0.40781591706E+01  0.40781591706E+01  0.00000000000E+00 0.  1.
         25    1    1    2    0    0  0.00000000000E+00  0.00000000000E+00  0.95376822118E+03  0.96192453952E+03  0.12500000000E+03 0.  0.
<mgrwt>
<rscale>  0 0.12500000E+03</rscale>
<asrwt>0</asrwt>
<pdfrwt beam="1">  1       21 0.14736080E+00 0.12500000E+03</pdfrwt>
<pdfrwt beam="2">  1       21 0.62740987E-03 0.12500000E+03</pdfrwt>
<totfact> 0.24594866E+06</totfact>
</mgrwt>
</event>
<event>
 3    1  0.1604658E-001  0.1250000E+03  0.7546771E-02  0.1235069E+00
         21   -1    0    0  502  501  0.00000000000E+00  0.00000000000E+00  0.37552087568E+03  0.37552087568E+03  0.00000000000E+00 0.  1.
         21   -1    0    0  501  502 -0.00000000000E+00 -0.00000000000E+00 -0.10402217967E+02  0.10402217967E+02  0.00000000000E+00 0.  1.
         25    1    1    2    0    0  0.00000000000E+00  0.00000000000E+00  0.36511865771E+03  0.38592309365E+03  0.12500000000E+03 0.  0.
<mgrwt>
<rscale>  0 0.12500000E+03</rscale>
<asrwt>0</asrwt>
<pdfrwt beam="1">  1       21 0.57772432E-01 0.12500000E+03</pdfrwt>
<pdfrwt beam="2">  1       21 0.16003415E-02 0.12500000E+03</pdfrwt>
<totfact> 0.48989294E+06</totfact>
</mgrwt>
</event>
<event>
 3    1  0.1604658E-001  0.1250000E+03  0.7546771E-02  0.1235069E+00
         21   -1    0    0  502  501  0.00000000000E+00  0.00000000000E+00  0.26946068509E+02  0.26946068509E+02  0.00000000000E+00 0.  1.
         21   -1    0    0  501  502 -0.00000000000E+00 -0.00000000000E+00 -0.14496548907E+03  0.14496548907E+03  0.00000000000E+00 0.  1.
         25    1    1    2    0    0  0.00000000000E+00  0.00000000000E+00 -0.11801942056E+03  0.17191155758E+03  0.12500000000E+03 0.  0.
<mgrwt>
<rscale>  0 0.12500000E+03</rscale>
<asrwt>0</asrwt>
<pdfrwt beam="1">  1       21 0.41455490E-02 0.12500000E+03</pdfrwt>
<pdfrwt beam="2">  1       21 0.22302383E-01 0.12500000E+03</pdfrwt>
<totfact> 0.68091751E+06</totfact>
</mgrwt>
</event>
<event>
 3    1  0.1604658E-001  0.1250000E+03  0.7546771E-02  0.1235069E+00
         21   -1    0    0  502  501  0.00000000000E+00  0.00000000000E+00  0.72439423456E+01  0.72439423456E+01  0.00000000000E+00 0. -1.
         21   -1    0    0  501  502 -0.00000000000E+00 -0.00000000000E+00 -0.53924366231E+03  0.53924366231E+03  0.00000000000E+00 0. -1.
         25    1    1    2    0    0  0.00000000000E+00  0.00000000000E+00 -0.53199971996E+03  0.54648760465E+03  0.12500000000E+03 0.  0.
<mgrwt>
<rscale>  0 0.12500000E+03</rscale>
<asrwt>0</asrwt>
<pdfrwt beam="1">  1       21 0.11144526E-02 0.12500000E+03</pdfrwt>
<pdfrwt beam="2">  1       21 0.82960568E-01 0.12500000E+03</pdfrwt>
<totfact> 0.39630179E+06</totfact>
</mgrwt>
</event>
<event>
 3    1  0.1604658E-001  0.1250000E+03  0.7546771E-02  0.1235069E+00
         21   -1    0    0  502  501  0.00000000000E+00  0.00000000000E+00  0.14958708020E+02  0.14958708020E+02  0.00000000000E+00 0.  1.
         21   -1    0    0  501  502 -0.00000000000E+00 -0.00000000000E+00 -0.26113552018E+03  0.26113552018E+03  0.00000000000E+00 0.  1.
         25    1    1    2    0    0  0.00000000000E+00  0.00000000000E+00 -0.24617681215E+03  0.27609422820E+03  0.12500000000E+03 0.  0.
<mgrwt>
<rscale>  0 0.12500000E+03</rscale>
<asrwt>0</asrwt>
<pdfrwt beam="1">  1       21 0.23013397E-02 0.12500000E+03</pdfrwt>
<pdfrwt beam="2">  1       21 0.40174695E-01 0.12500000E+03</pdfrwt>
<totfact> 0.57503250E+06</totfact>
</mgrwt>
</event>
<event>
 3    1  0.1604658E-001  0.1250000E+03  0.7546771E-02  0.1235069E+00
         21   -1    0    0  502  501  0.00000000000E+00  0.00000000000E+00  0.70279503869E+02  0.70279503869E+02  0.00000000000E+00 0. -1.
         21   -1    0    0  501  502 -0.00000000000E+00 -0.00000000000E+00 -0.55581638813E+02  0.55581638813E+02  0.00000000000E+00 0. -1.
         25    1    1    2    0    0  0.00000000000E+00  0.00000000000E+00  0.14697865056E+02  0.12586114268E+03  0.12500000000E+03 0.  0.
<mgrwt>
<rscale>  0 0.12500000E+03</rscale>
<asrwt>0</asrwt>
<pdfrwt beam="1">  1       21 0.10812231E-01 0.12500000E+03</pdfrwt>
<pdfrwt beam="2">  1       21 0.85510213E-02 0.12500000E+03</pdfrwt>
<totfact> 0.73925211E+06</totfact>
</mgrwt>
</event>
<event>
 3    1  0.1604658E-001  0.1250000E+03  0.7546771E-02  0.1235069E+00
         21   -1    0    0  502  501  0.00000000000E+00  0.00000000000E+00  0.66355106051E+03  0.66355106051E+03  0.00000000000E+00 0.  1.
         21   -1    0    0  501  502 -0.00000000000E+00 -0.00000000000E+00 -0.58868868312E+01  0.58868868312E+01  0.00000000000E+00 0.  1.
         25    1    1    2    0    0  0.00000000000E+00  0.00000000000E+00  0.65766417368E+03  0.66943794735E+03  0.12500000000E+03 0.  0.
<mgrwt>
<rscale>  0 0.12500000E+03</rscale>
<asrwt>0</asrwt>
<pdfrwt beam="1">  1       21 0.10208472E+00 0.12500000E+03</pdfrwt>
<pdfrwt beam="2">  1       21 0.90567542E-03 0.12500000E+03</pdfrwt>
<totfact> 0.34122029E+06</totfact>
</mgrwt>
</event>
<event>
 3    1  0.1604658E-001  0.1250000E+03  0.7546771E-02  0.1235069E+00
         21   -1    0    0  502  501  0.00000000000E+00  0.00000000000E+00  0.39128406691E+02  0.39128406691E+02  0.00000000000E+00 0. -1.
         21   -1    0    0  501  502 -0.00000000000E+00 -0.00000000000E+00 -0.99831563060E+02  0.99831563060E+02  0.00000000000E+00 0. -1.
         25    1    1    2    0    0  0.00000000000E+00  0.00000000000E+00 -0.60703156369E+02  0.13895996975E+03  0.12500000000E+03 0.  0.
<mgrwt>
<rscale>  0 0.12500000E+03</rscale>
<asrwt>0</asrwt>
<pdfrwt beam="1">  1       21 0.60197549E-02 0.12500000E+03</pdfrwt>
<pdfrwt beam="2">  1       21 0.15358702E-01 0.12500000E+03</pdfrwt>
<totfact> 0.72175374E+06</totfact>
</mgrwt>
</event>
<event>
 3    1  0.1604658E-001  0.1250000E+03  0.7546771E-02  0.1235069E+00
         21   -1    0    0  502  501  0.00000000000E+00  0.00000000000E+00  0.17146200059E+03  0.17146200059E+03  0.00000000000E+00 0.  1.
         21   -1    0    0  501  502 -0.00000000000E+00 -0.00000000000E+00 -0.22782015762E+02  0.22782015762E+02  0.00000000000E+00 0.  1.
         25    1    1    2    0    0  0.00000000000E+00  0.00000000000E+00  0.14867998482E+03  0.19424401635E+03  0.12500000000E+03 0.  0.
<mgrwt>
<rscale>  0 0.12500000E+03</rscale>
<asrwt>0</asrwt>
<pdfrwt beam="1">  1       21 0.26378768E-01 0.12500000E+03</pdfrwt>
<pdfrwt beam="2">  1       21 0.35049256E-02 0.12500000E+03</pdfrwt>
<totfact> 0.65553858E+06</totfact>
</mgrwt>
</event>
<event>
 3    1  0.1604658E-001  0.1250000E+03  0.7546771E-02  0.1235069E+00
         21   -1    0    0  502  501  0.00000000000E+00  0.00000000000E+00  0.26261044437E+02  0.26261044437E+02  0.00000000000E+00 0.  1.
         21   -1    0    0  501  502 -0.00000000000E+00 -0.00000000000E+00 -0.14874693996E+03  0.14874693996E+03  0.00000000000E+00 0.  1.
         25    1    1    2    0    0  0.00000000000E+00  0.00000000000E+00 -0.12248589552E+03  0.17500798439E+03  0.12500000000E+03 0.  0.
<mgrwt>
<rscale>  0 0.12500000E+03</rscale>
<asrwt>0</asrwt>
<pdfrwt beam="1">  1       21 0.40401607E-02 0.12500000E+03</pdfrwt>
<pdfrwt beam="2">  1       21 0.22884144E-01 0.12500000E+03</pdfrwt>
<totfact> 0.67728871E+06</totfact>
</mgrwt>
</event>
<event>
 3    1  0.1604658E-001  0.1250000E+03  0.7546771E-02  0.1235069E+00
         21   -1    0    0  502  501  0.00000000000E+00  0.00000000000E+00  0.53864373204E+03  0.53864373204E+03  0.00000000000E+00 0. -1.
         21   -1    0    0  501  502 -0.00000000000E+00 -0.00000000000E+00 -0.72520104991E+01  0.72520104991E+01  0.00000000000E+00 0. -1.
         25    1    1    2    0    0  0.00000000000E+00  0.00000000000E+00  0.53139172154E+03  0.54589574253E+03  0.12500000000E+03 0.  0.
<mgrwt>
<rscale>  0 0.12500000E+03</rscale>
<asrwt>0</asrwt>
<pdfrwt beam="1">  1       21 0.82868235E-01 0.12500000E+03</pdfrwt>
<pdfrwt beam="2">  1       21 0.11156943E-02 0.12500000E+03</pdfrwt>
<totfact> 0.39659635E+06</totfact>
</mgrwt>
</event>
<event>
 3    1  0.1604658E-001  0.1250000E+03  0.7546771E-02  0.1235069E+00
         21   -1    0    0  502  501  0.00000000000E+00  0.00000000000E+00  0.18658832542E+02  0.18658832542E+02  0.00000000000E+00 0. -1.
         21   -1    0    0  501  502 -0.00000000000E+00 -0.00000000000E+00 -0.20935125449E+03  0.20935125449E+03  0.00000000000E+00 0. -1.
         25    1    1    2    0    0  0.00000000000E+00  0.00000000000E+00 -0.19069242194E+03  0.22801008703E+03  0.12500000000E+03 0.  0.
<mgrwt>
<rscale>  0 0.12500000E+03</rscale>
<asrwt>0</asrwt>
<pdfrwt beam="1">  1       21 0.28705895E-02 0.12500000E+03</pdfrwt>
<pdfrwt beam="2">  1       21 0.32207887E-01 0.12500000E+03</pdfrwt>
<totfact> 0.62012568E+06</totfact>
</mgrwt>
</event>
<event>
 3    1  0.1604658E-001  0.1250000E+03  0.7546771E-02  0.1235069E+00
         21   -1    0    0  502  501  0.00000000000E+00  0.00000000000E+00  0.34244892797E+03  0.34244892797E+03  0.00000000000E+00 0. -1.
         21   -1    0    0  501  502 -0.00000000000E+00 -0.00000000000E+00 -0.11406810420E+02  0.11406810420E+02  0.00000000000E+00 0. -1.
         25    1    1    2    0    0  0.00000000000E+00  0.00000000000E+00  0.33104211755E+03  0.35385573839E+03  0.12500000000E+03 0.  0.
<mgrwt>
<rscale>  0 0.12500000E+03</rscale>
<asrwt>0</asrwt>
<pdfrwt beam="1">  1       21 0.52684443E-01 0.12500000E+03</pdfrwt>
<pdfrwt beam="2">  1       21 0.17548942E-02 0.12500000E+03</pdfrwt>
<totfact> 0.51254933E+06</totfact>
</mgrwt>
</event>
<event>
 3    1  0.1604658E-001  0.1250000E+03  0.7546771E-02  0.1235069E+00
         21   -1    0    0  502  501  0.00000000000E+00  0.00000000000E+00  0.55148215872E+03  0.55148215872E+03  0.00000000000E+00 0. -1.
         21   -1    0    0  501  502 -0.00000000000E+00 -0.00000000000E+00 -0.70831847201E+01  0.70831847201E+01  0.00000000000E+00 0. -1.
         25    1    1    2    0    0  0.00000000000E+00  0.00000000000E+00  0.54439897400E+03  0.55856534344E+03  0.12500000000E+03 0.  0.
<mgrwt>
<rscale>  0 0.12500000E+03</rscale>
<asrwt>0</asrwt>
<pdfrwt beam="1">  1       21 0.84843375E-01 0.12500000E+03</pdfrwt>
<pdfrwt beam="2">  1       21 0.10897212E-02 0.12500000E+03</pdfrwt>
<totfact> 0.39036127E+06</totfact>
</mgrwt>
</event>
<event>
 3    1  0.1604658E-001  0.1250000E+03  0.7546771E-02  0.1235069E+00
         21   -1    0    0  502  501  0.00000000000E+00  0.00000000000E+00  0.12335502113E+02  0.12335502113E+02  0.00000000000E+00 0. -1.
         21   -1    0    0  501  502 -0.00000000000E+00 -0.00000000000E+00 -0.31666728798E+03  0.31666728798E+03  0.00000000000E+00 0. -1.
         25    1    1    2    0    0  0.00000000000E+00  0.00000000000E+00 -0.30433178587E+03  0.32900279010E+03  0.12500000000E+03 0.  0.
<mgrwt>
<rscale>  0 0.12500000E+03</rscale>
<asrwt>0</asrwt>
<pdfrwt beam="1">  1       21 0.18977694E-02 0.12500000E+03</pdfrwt>
<pdfrwt beam="2">  1       21 0.48718048E-01 0.12500000E+03</pdfrwt>
<totfact> 0.53127539E+06</totfact>
</mgrwt>
</event>
<event>
 3    1  0.1604658E-001  0.1250000E+03  0.7546771E-02  0.1235069E+00
         21   -1    0    0  502  501  0.00000000000E+00  0.00000000000E+00  0.46266554659E+03  0.46266554659E+03  0.00000000000E+00 0.  1.
         21   -1    0    0  501  502 -0.00000000000E+00 -0.00000000000E+00 -0.84429238978E+01  0.84429238978E+01  0.00000000000E+00 0.  1.
         25    1    1    2    0    0  0.00000000000E+00  0.00000000000E+00  0.45422262269E+03  0.47110847049E+03  0.12500000000E+03 0.  0.
<mgrwt>
<rscale>  0 0.12500000E+03</rscale>
<asrwt>0</asrwt>
<pdfrwt beam="1">  1       21 0.71179295E-01 0.12500000E+03</pdfrwt>
<pdfrwt beam="2">  1       21 0.12989117E-02 0.12500000E+03</pdfrwt>
<totfact> 0.43655554E+06</totfact>
</mgrwt>
</event>
<event>
 3    1  0.1604658E-001  0.1250000E+03  0.7546771E-02  0.1235069E+00
         21   -1    0    0  502  501  0.00000000000E+00  0.00000000000E+00  0.13937681801E+02  0.13937681801E+02  0.00000000000E+00 0. -1.
         21   -1    0    0  501  502 -0.00000000000E+00 -0.00000000000E+00 -0.28026540252E+03  0.28026540252E+03  0.00000000000E+00 0. -1.
         25    1    1    2    0    0  0.00000000000E+00  0.00000000000E+00 -0.26632772072E+03  0.29420308432E+03  0.12500000000E+03 0.  0.
<mgrwt>
<rscale>  0 0.12500000E+03</rscale>
<asrwt>0</asrwt>
<pdfrwt beam="1">  1       21 0.21442589E-02 0.12500000E+03</pdfrwt>
<pdfrwt beam="2">  1       21 0.43117752E-01 0.12500000E+03</pdfrwt>
<totfact> 0.55941388E+06</totfact>
</mgrwt>
</event>
<event>
 3    1  0.1604658E-001  0.1250000E+03  0.7546771E-02  0.1235069E+00
         21   -1    0    0  502  501  0.00000000000E+00  0.00000000000E+00  0.66347303323E+01  0.66347303323E+01  0.00000000000E+00 0. -1.
         21   -1    0    0  501  502 -0.00000000000E+00 -0.00000000000E+00 -0.58875791545E+03  0.58875791545E+03  0.00000000000E+00 0. -1.
         25    1    1    2    0    0  0.00000000000E+00  0.00000000000E+00 -0.58212318512E+03  0.59539264578E+03  0.12500000000E+03 0.  0.
<mgrwt>
<rscale>  0 0.12500000E+03</rscale>
<asrwt>0</asrwt>
<pdfrwt beam="1">  1       21 0.10207280E-02 0.12500000E+03</pdfrwt>
<pdfrwt beam="2">  1       21 0.90578117E-01 0.12500000E+03</pdfrwt>
<totfact> 0.37301832E+06</totfact>
</mgrwt>
</event>
<event>
 3    1  0.1604658E-001  0.1250000E+03  0.7546771E-02  0.1235069E+00
         21   -1    0    0  502  501  0.00000000000E+00  0.00000000000E+00  0.28502063448E+03  0.28502063448E+03  0.00000000000E+00 0.  1.
         21   -1    0    0  501  502 -0.00000000000E+00 -0.00000000000E+00 -0.13705148075E+02  0.13705148075E+02  0.00000000000E+00 0.  1.
         25    1    1    2    0    0  0.00000000000E+00  0.00000000000E+00  0.27131548640E+03  0.29872578255E+03  0.12500000000E+03 0.  0.
<mgrwt>
<rscale>  0 0.12500000E+03</rscale>
<asrwt>0</asrwt>
<pdfrwt beam="1">  1       21 0.43849324E-01 0.12500000E+03</pdfrwt>
<pdfrwt beam="2">  1       21 0.21084845E-02 0.12500000E+03</pdfrwt>
<totfact> 0.55562235E+06</totfact>
</mgrwt>
</event>
<event>
 3    1  0.1604658E-001  0.1250000E+03  0.7546771E-02  0.1235069E+00
         21   -1    0    0  502  501  0.00000000000E+00  0.00000000000E+00  0.11637917996E+03  0.11637917996E+03  0.00000000000E+00 0.  1.
         21   -1    0    0  501  502 -0.00000000000E+00 -0.00000000000E+00 -0.33564852418E+02  0.33564852418E+02  0.00000000000E+00 0.  1.
         25    1    1    2    0    0  0.00000000000E+00  0.00000000000E+00  0.82814327544E+02  0.14994403238E+03  0.12500000000E+03 0.  0.
<mgrwt>
<rscale>  0 0.12500000E+03</rscale>
<asrwt>0</asrwt>
<pdfrwt beam="1">  1       21 0.17904489E-01 0.12500000E+03</pdfrwt>
<pdfrwt beam="2">  1       21 0.51638235E-02 0.12500000E+03</pdfrwt>
<totfact> 0.70766232E+06</totfact>
</mgrwt>
</event>
<event>
 3    1  0.1604658E-001  0.1250000E+03  0.7546771E-02  0.1235069E+00
         21   -1    0    0  502  501  0.00000000000E+00  0.00000000000E+00  0.17968412067E+02  0.17968412067E+02  0.00000000000E+00 0. -1.
         21   -1    0    0  501  502 -0.00000000000E+00 -0.00000000000E+00 -0.21739539284E+03  0.21739539284E+03  0.00000000000E+00 0. -1.
         25    1    1    2    0    0  0.00000000000E+00  0.00000000000E+00 -0.19942698077E+03  0.23536380490E+03  0.12500000000E+03 0.  0.
<mgrwt>
<rscale>  0 0.12500000E+03</rscale>
<asrwt>0</asrwt>
<pdfrwt beam="1">  1       21 0.27643711E-02 0.12500000E+03</pdfrwt>
<pdfrwt beam="2">  1       21 0.33445445E-01 0.12500000E+03</pdfrwt>
<totfact> 0.61284203E+06</totfact>
</mgrwt>
</event>
<event>
 3    1  0.1604658E-001  0.1250000E+03  0.7546771E-02  0.1235069E+00
         21   -1    0    0  502  501  0.00000000000E+00  0.00000000000E+00  0.12492820346E+03  0.12492820346E+03  0.00000000000E+00 0. -1.
         21   -1    0    0  501  502 -0.00000000000E+00 -0.00000000000E+00 -0.31267959451E+02  0.31267959451E+02  0.00000000000E+00 0. -1.
         25    1    1    2    0    0  0.00000000000E+00  0.00000000000E+00  0.93660244008E+02  0.15619616291E+03  0.12500000000E+03 0.  0.
<mgrwt>
<rscale>  0 0.12500000E+03</rscale>
<asrwt>0</asrwt>
<pdfrwt beam="1">  1       21 0.19219723E-01 0.12500000E+03</pdfrwt>
<pdfrwt beam="2">  1       21 0.48104554E-02 0.12500000E+03</pdfrwt>
<totfact> 0.69987296E+06</totfact>
</mgrwt>
</event>
<event>
 3    1  0.1604658E-001  0.1250000E+03  0.7546771E-02  0.1235069E+00
         21   -1    0    0  502  501  0.00000000000E+00  0.00000000000E+00  0.15918947220E+04  0.15918947220E+04  0.00000000000E+00 0. -1.
         21   -1    0    0  501  502 -0.00000000000E+00 -0.00000000000E+00 -0.24538368938E+01  0.24538368938E+01  0.00000000000E+00 0. -1.
         25    1    1    2    0    0  0.00000000000E+00  0.00000000000E+00  0.15894408851E+04  0.15943485589E+04  0.12500000000E+03 0.  0.
<mgrwt>
<rscale>  0 0.12500000E+03</rscale>
<asrwt>0</asrwt>
<pdfrwt beam="1">  1       21 0.24490605E+00 0.12500000E+03</pdfrwt>
<pdfrwt beam="2">  1       21 0.37751464E-03 0.12500000E+03</pdfrwt>
<totfact> 0.12650682E+06</totfact>
</mgrwt>
</event>
<event>
 3    1  0.1604658E-001  0.1250000E+03  0.7546771E-02  0.1235069E+00
         21   -1    0    0  502  501  0.00000000000E+00  0.00000000000E+00  0.23756843108E+02  0.23756843108E+02  0.00000000000E+00 0. -1.
         21   -1    0    0  501  502 -0.00000000000E+00 -0.00000000000E+00 -0.16442630791E+03  0.16442630791E+03  0.00000000000E+00 0. -1.
         25    1    1    2    0    0  0.00000000000E+00  0.00000000000E+00 -0.14066946480E+03  0.18818315102E+03  0.12500000000E+03 0.  0.
<mgrwt>
<rscale>  0 0.12500000E+03</rscale>
<asrwt>0</asrwt>
<pdfrwt beam="1">  1       21 0.36548991E-02 0.12500000E+03</pdfrwt>
<pdfrwt beam="2">  1       21 0.25296354E-01 0.12500000E+03</pdfrwt>
<totfact> 0.66224961E+06</totfact>
</mgrwt>
</event>
<event>
 3    1  0.1604658E-001  0.1250000E+03  0.7546771E-02  0.1235069E+00
         21   -1    0    0  502  501  0.00000000000E+00  0.00000000000E+00  0.12455058736E+01  0.12455058736E+01  0.00000000000E+00 0. -1.
         21   -1    0    0  501  502 -0.00000000000E+00 -0.00000000000E+00 -0.31362758562E+04  0.31362758562E+04  0.00000000000E+00 0. -1.
         25    1    1    2    0    0  0.00000000000E+00  0.00000000000E+00 -0.31350303503E+04  0.31375213620E+04  0.12500000000E+03 0.  0.
<mgrwt>
<rscale>  0 0.12500000E+03</rscale>
<asrwt>0</asrwt>
<pdfrwt beam="1">  1       21 0.19161969E-03 0.12500000E+03</pdfrwt>
<pdfrwt beam="2">  1       21 0.48249540E+00 0.12500000E+03</pdfrwt>
<totfact> 0.13382064E+05</totfact>
</mgrwt>
</event>
<event>
 3    1  0.1604658E-001  0.1250000E+03  0.7546771E-02  0.1235069E+00
         21   -1    0    0  502  501  0.00000000000E+00  0.00000000000E+00  0.16822095083E+02  0.16822095083E+02  0.00000000000E+00 0. -1.
         21   -1    0    0  501  502 -0.00000000000E+00 -0.00000000000E+00 -0.23220948287E+03  0.23220948287E+03  0.00000000000E+00 0. -1.
         25    1    1    2    0    0  0.00000000000E+00  0.00000000000E+00 -0.21538738779E+03  0.24903157796E+03  0.12500000000E+03 0.  0.
<mgrwt>
<rscale>  0 0.12500000E+03</rscale>
<asrwt>0</asrwt>
<pdfrwt beam="1">  1       21 0.25880148E-02 0.12500000E+03</pdfrwt>
<pdfrwt beam="2">  1       21 0.35724534E-01 0.12500000E+03</pdfrwt>
<totfact> 0.59969486E+06</totfact>
</mgrwt>
</event>
<event>
 3    1  0.1604658E-001  0.1250000E+03  0.7546771E-02  0.1235069E+00
         21   -1    0    0  502  501  0.00000000000E+00  0.00000000000E+00  0.13605918424E+03  0.13605918424E+03  0.00000000000E+00 0. -1.
         21   -1    0    0  501  502 -0.00000000000E+00 -0.00000000000E+00 -0.28709932532E+02  0.28709932532E+02  0.00000000000E+00 0. -1.
         25    1    1    2    0    0  0.00000000000E+00  0.00000000000E+00  0.10734925171E+03  0.16476911678E+03  0.12500000000E+03 0.  0.
<mgrwt>
<rscale>  0 0.12500000E+03</rscale>
<asrwt>0</asrwt>
<pdfrwt beam="1">  1       21 0.20932182E-01 0.12500000E+03</pdfrwt>
<pdfrwt beam="2">  1       21 0.44169128E-02 0.12500000E+03</pdfrwt>
<totfact> 0.68941406E+06</totfact>
</mgrwt>
</event>
<event>
 3    1  0.1604658E-001  0.1250000E+03  0.7546771E-02  0.1235069E+00
         21   -1    0    0  502  501  0.00000000000E+00  0.00000000000E+00  0.12167156628E+03  0.12167156628E+03  0.00000000000E+00 0. -1.
         21   -1    0    0  501  502 -0.00000000000E+00 -0.00000000000E+00 -0.32104871496E+02  0.32104871496E+02  0.00000000000E+00 0. -1.
         25    1    1    2    0    0  0.00000000000E+00  0.00000000000E+00  0.89566694780E+02  0.15377643777E+03  0.12500000000E+03 0.  0.
<mgrwt>
<rscale>  0 0.12500000E+03</rscale>
<asrwt>0</asrwt>
<pdfrwt beam="1">  1       21 0.18718702E-01 0.12500000E+03</pdfrwt>
<pdfrwt beam="2">  1       21 0.49392110E-02 0.12500000E+03</pdfrwt>
<totfact> 0.70287972E+06</totfact>
</mgrwt>
</event>
<event>
 3    1  0.1604658E-001  0.1250000E+03  0.7546771E-02  0.1235069E+00
         21   -1    0    0  502  501  0.00000000000E+00  0.00000000000E+00  0.27142835149E+03  0.27142835149E+03  0.00000000000E+00 0.  1.
         21   -1    0    0  501  502 -0.00000000000E+00 -0.00000000000E+00 -0.14391459030E+02  0.14391459030E+02  0.00000000000E+00 0.  1.
         25    1    1    2    0    0  0.00000000000E+00  0.00000000000E+00  0.25703689246E+03  0.28581981052E+03  0.12500000000E+03 0.  0.
<mgrwt>
<rscale>  0 0.12500000E+03</rscale>
<asrwt>0</asrwt>
<pdfrwt beam="1">  1       21 0.41758204E-01 0.12500000E+03</pdfrwt>
<pdfrwt beam="2">  1       21 0.22140708E-02 0.12500000E+03</pdfrwt>
<totfact> 0.56655585E+06</totfact>
</mgrwt>
</event>
<event>
 3    1  0.1604658E-001  0.1250000E+03  0.7546771E-02  0.1235069E+00
         21   -1    0    0  502  501  0.00000000000E+00  0.00000000000E+00  0.18327185085E+02  0.18327185085E+02  0.00000000000E+00 0.  1.
         21   -1    0    0  501  502 -0.00000000000E+00 -0.00000000000E+00 -0.21313966012E+03  0.21313966012E+03  0.00000000000E+00 0.  1.
         25    1    1    2    0    0  0.00000000000E+00  0.00000000000E+00 -0.19481247503E+03  0.23146684520E+03  0.12500000000E+03 0.  0.
<mgrwt>
<rscale>  0 0.12500000E+03</rscale>
<asrwt>0</asrwt>
<pdfrwt beam="1">  1       21 0.28195668E-02 0.12500000E+03</pdfrwt>
<pdfrwt beam="2">  1       21 0.32790718E-01 0.12500000E+03</pdfrwt>
<totfact> 0.61668304E+06</totfact>
</mgrwt>
</event>
<event>
 3    1  0.1604658E-001  0.1250000E+03  0.7546771E-02  0.1235069E+00
         21   -1    0    0  502  501  0.00000000000E+00  0.00000000000E+00  0.48003101053E+02  0.48003101053E+02  0.00000000000E+00 0.  1.
         21   -1    0    0  501  502 -0.00000000000E+00 -0.00000000000E+00 -0.81374951082E+02  0.81374951082E+02  0.00000000000E+00 0.  1.
         25    1    1    2    0    0  0.00000000000E+00  0.00000000000E+00 -0.33371850029E+02  0.12937805214E+03  0.12500000000E+03 0.  0.
<mgrwt>
<rscale>  0 0.12500000E+03</rscale>
<asrwt>0</asrwt>
<pdfrwt beam="1">  1       21 0.73850925E-02 0.12500000E+03</pdfrwt>
<pdfrwt beam="2">  1       21 0.12519223E-01 0.12500000E+03</pdfrwt>
<totfact> 0.73448158E+06</totfact>
</mgrwt>
</event>
<event>
 3    1  0.1604658E-001  0.1250000E+03  0.7546771E-02  0.1235069E+00
         21   -1    0    0  502  501  0.00000000000E+00  0.00000000000E+00  0.24729509558E+01  0.24729509558E+01  0.00000000000E+00 0.  1.
         21   -1    0    0  501  502 -0.00000000000E+00 -0.00000000000E+00 -0.15795905660E+04  0.15795905660E+04  0.00000000000E+00 0.  1.
         25    1    1    2    0    0  0.00000000000E+00  0.00000000000E+00 -0.15771176151E+04  0.15820635170E+04  0.12500000000E+03 0.  0.
<mgrwt>
<rscale>  0 0.12500000E+03</rscale>
<asrwt>0</asrwt>
<pdfrwt beam="1">  1       21 0.38045324E-03 0.12500000E+03</pdfrwt>
<pdfrwt beam="2">  1       21 0.24301442E+00 0.12500000E+03</pdfrwt>
<totfact> 0.12819016E+06</totfact>
</mgrwt>
</event>
<event>
 3    1  0.1604658E-001  0.1250000E+03  0.7546771E-02  0.1235069E+00
         21   -1    0    0  502  501  0.00000000000E+00  0.00000000000E+00  0.36211926074E+02  0.36211926074E+02  0.00000000000E+00 0.  1.
         21   -1    0    0  501  502 -0.00000000000E+00 -0.00000000000E+00 -0.10787192021E+03  0.10787192021E+03  0.00000000000E+00 0.  1.
         25    1    1    2    0    0  0.00000000000E+00  0.00000000000E+00 -0.71659994132E+02  0.14408384628E+03  0.12500000000E+03 0.  0.
<mgrwt>
<rscale>  0 0.12500000E+03</rscale>
<asrwt>0</asrwt>
<pdfrwt beam="1">  1       21 0.55710656E-02 0.12500000E+03</pdfrwt>
<pdfrwt beam="2">  1       21 0.16595680E-01 0.12500000E+03</pdfrwt>
<totfact> 0.71510551E+06</totfact>
</mgrwt>
</event>
<event>
 3    1  0.1604658E-001  0.1250000E+03  0.7546771E-02  0.1235069E+00
         21   -1    0    0  502  501  0.00000000000E+00  0.00000000000E+00  0.39870859338E+01  0.39870859338E+01  0.00000000000E+00 0.  1.
         21   -1    0    0  501  502 -0.00000000000E+00 -0.00000000000E+00 -0.97972556018E+03  0.97972556018E+03  0.00000000000E+00 0.  1.
         25    1    1    2    0    0  0.00000000000E+00  0.00000000000E+00 -0.97573847425E+03  0.98371264611E+03  0.12500000000E+03 0.  0.
<mgrwt>
<rscale>  0 0.12500000E+03</rscale>
<asrwt>0</asrwt>
<pdfrwt beam="1">  1       21 0.61339735E-03 0.12500000E+03</pdfrwt>
<pdfrwt beam="2">  1       21 0.15072713E+00 0.12500000E+03</pdfrwt>
<totfact> 0.24029968E+06</totfact>
</mgrwt>
</event>
<event>
 3    1  0.1604658E-001  0.1250000E+03  0.7546771E-02  0.1235069E+00
         21   -1    0    0  502  501  0.00000000000E+00  0.00000000000E+00  0.49025200993E+02  0.49025200993E+02  0.00000000000E+00 0. -1.
         21   -1    0    0  501  502 -0.00000000000E+00 -0.00000000000E+00 -0.79678408673E+02  0.79678408673E+02  0.00000000000E+00 0. -1.
         25    1    1    2    0    0  0.00000000000E+00  0.00000000000E+00 -0.30653207681E+02  0.12870360967E+03  0.12500000000E+03 0.  0.
<mgrwt>
<rscale>  0 0.12500000E+03</rscale>
<asrwt>0</asrwt>
<pdfrwt beam="1">  1       21 0.75423387E-02 0.12500000E+03</pdfrwt>
<pdfrwt beam="2">  1       21 0.12258217E-01 0.12500000E+03</pdfrwt>
<totfact> 0.73538718E+06</totfact>
</mgrwt>
</event>
<event>
 3    1  0.1604658E-001  0.1250000E+03  0.7546771E-02  0.1235069E+00
         21   -1    0    0  502  501  0.00000000000E+00  0.00000000000E+00  0.11264508612E+02  0.11264508612E+02  0.00000000000E+00 0. -1.
         21   -1    0    0  501  502 -0.00000000000E+00 -0.00000000000E+00 -0.34677500233E+03  0.34677500233E+03  0.00000000000E+00 0. -1.
         25    1    1    2    0    0  0.00000000000E+00  0.00000000000E+00 -0.33551049372E+03  0.35803951094E+03  0.12500000000E+03 0.  0.
<mgrwt>
<rscale>  0 0.12500000E+03</rscale>
<asrwt>0</asrwt>
<pdfrwt beam="1">  1       21 0.17330017E-02 0.12500000E+03</pdfrwt>
<pdfrwt beam="2">  1       21 0.53349988E-01 0.12500000E+03</pdfrwt>
<totfact> 0.50950123E+06</totfact>
</mgrwt>
</event>
<event>
 3    1  0.1604658E-001  0.1250000E+03  0.7546771E-02  0.1235069E+00
         21   -1    0    0  502  501  0.00000000000E+00  0.00000000000E+00  0.13795992241E+03  0.13795992241E+03  0.00000000000E+00 0. -1.
         21   -1    0    0  501  502 -0.00000000000E+00 -0.00000000000E+00 -0.28314382408E+02  0.28314382408E+02  0.00000000000E+00 0. -1.
         25    1    1    2    0    0  0.00000000000E+00  0.00000000000E+00  0.10964554000E+03  0.16627430482E+03  0.12500000000E+03 0.  0.
<mgrwt>
<rscale>  0 0.12500000E+03</rscale>
<asrwt>0</asrwt>
<pdfrwt beam="1">  1       21 0.21224603E-01 0.12500000E+03</pdfrwt>
<pdfrwt beam="2">  1       21 0.43560589E-02 0.12500000E+03</pdfrwt>
<totfact> 0.68760855E+06</totfact>
</mgrwt>
</event>
<event>
 3    1  0.1604658E-001  0.1250000E+03  0.7546771E-02  0.1235069E+00
         21   -1    0    0  502  501  0.00000000000E+00  0.00000000000E+00  0.24016792923E+03  0.24016792923E+03  0.00000000000E+00 0.  1.
         21   -1    0    0  501  502 -0.00000000000E+00 -0.00000000000E+00 -0.16264661200E+02  0.16264661200E+02  0.00000000000E+00 0.  1.
         25    1    1    2    0    0  0.00000000000E+00  0.00000000000E+00  0.22390326803E+03  0.25643259043E+03  0.12500000000E+03 0.  0.
<mgrwt>
<rscale>  0 0.12500000E+03</rscale>
<asrwt>0</asrwt>
<pdfrwt beam="1">  1       21 0.36948910E-01 0.12500000E+03</pdfrwt>
<pdfrwt beam="2">  1       21 0.25022557E-02 0.12500000E+03</pdfrwt>
<totfact> 0.59277802E+06</totfact>
</mgrwt>
</event>
<event>
 3    1  0.1604658E-001  0.1250000E+03  0.7546771E-02  0.1235069E+00
         21   -1    0    0  502  501  0.00000000000E+00  0.00000000000E+00  0.35711472654E+02  0.35711472654E+02  0.00000000000E+00 0. -1.
         21   -1    0    0  501  502 -0.00000000000E+00 -0.00000000000E+00 -0.10938361567E+03  0.10938361567E+03  0.00000000000E+00 0. -1.
         25    1    1    2    0    0  0.00000000000E+00  0.00000000000E+00 -0.73672143020E+02  0.14509508833E+03  0.12500000000E+03 0.  0.
<mgrwt>
<rscale>  0 0.12500000E+03</rscale>
<asrwt>0</asrwt>
<pdfrwt beam="1">  1       21 0.54940727E-02 0.12500000E+03</pdfrwt>
<pdfrwt beam="2">  1       21 0.16828249E-01 0.12500000E+03</pdfrwt>
<totfact> 0.71380932E+06</totfact>
</mgrwt>
</event>
<event>
 3    1  0.1604658E-001  0.1250000E+03  0.7546771E-02  0.1235069E+00
         21   -1    0    0  502  501  0.00000000000E+00  0.00000000000E+00  0.24486372500E+02  0.24486372500E+02  0.00000000000E+00 0. -1.
         21   -1    0    0  501  502 -0.00000000000E+00 -0.00000000000E+00 -0.15952750862E+03  0.15952750862E+03  0.00000000000E+00 0. -1.
         25    1    1    2    0    0  0.00000000000E+00  0.00000000000E+00 -0.13504113611E+03  0.18401388112E+03  0.12500000000E+03 0.  0.
<mgrwt>
<rscale>  0 0.12500000E+03</rscale>
<asrwt>0</asrwt>
<pdfrwt beam="1">  1       21 0.37671342E-02 0.12500000E+03</pdfrwt>
<pdfrwt beam="2">  1       21 0.24542694E-01 0.12500000E+03</pdfrwt>
<totfact> 0.66694033E+06</totfact>
</mgrwt>
</event>
<event>
 3    1  0.1604658E-001  0.1250000E+03  0.7546771E-02  0.1235069E+00
         21   -1    0    0  502  501  0.00000000000E+00  0.00000000000E+00  0.20932903068E+02  0.20932903068E+02  0.00000000000E+00 0.  1.
         21   -1    0    0  501  502 -0.00000000000E+00 -0.00000000000E+00 -0.18660813492E+03  0.18660813492E+03  0.00000000000E+00 0.  1.
         25    1    1    2    0    0  0.00000000000E+00  0.00000000000E+00 -0.16567523186E+03  0.20754103799E+03  0.12500000000E+03 0.  0.
<mgrwt>
<rscale>  0 0.12500000E+03</rscale>
<asrwt>0</asrwt>
<pdfrwt beam="1">  1       21 0.32204465E-02 0.12500000E+03</pdfrwt>
<pdfrwt beam="2">  1       21 0.28708945E-01 0.12500000E+03</pdfrwt>
<totfact> 0.64119178E+06</totfact>
</mgrwt>
</event>
<event>
 3    1  0.1604658E-001  0.1250000E+03  0.7546771E-02  0.1235069E+00
         21   -1    0    0  502  501  0.00000000000E+00  0.00000000000E+00  0.13082392870E+02  0.13082392870E+02  0.00000000000E+00 0. -1.
         21   -1    0    0  501  502 -0.00000000000E+00 -0.00000000000E+00 -0.29858834228E+03  0.29858834228E+03  0.00000000000E+00 0. -1.
         25    1    1    2    0    0  0.00000000000E+00  0.00000000000E+00 -0.28550594941E+03  0.31167073515E+03  0.12500000000E+03 0.  0.
<mgrwt>
<rscale>  0 0.12500000E+03</rscale>
<asrwt>0</asrwt>
<pdfrwt beam="1">  1       21 0.20126758E-02 0.12500000E+03</pdfrwt>
<pdfrwt beam="2">  1       21 0.45936669E-01 0.12500000E+03</pdfrwt>
<totfact> 0.54500022E+06</totfact>
</mgrwt>
</event>
<event>
 3    1  0.1604658E-001  0.1250000E+03  0.7546771E-02  0.1235069E+00
         21   -1    0    0  502  501  0.00000000000E+00  0.00000000000E+00  0.72494429828E+01  0.72494429828E+01  0.00000000000E+00 0. -1.
         21   -1    0    0  501  502 -0.00000000000E+00 -0.00000000000E+00 -0.53883450208E+03  0.53883450208E+03  0.00000000000E+00 0. -1.
         25    1    1    2    0    0  0.00000000000E+00  0.00000000000E+00 -0.53158505910E+03  0.54608394506E+03  0.12500000000E+03 0.  0.
<mgrwt>
<rscale>  0 0.12500000E+03</rscale>
<asrwt>0</asrwt>
<pdfrwt beam="1">  1       21 0.11152990E-02 0.12500000E+03</pdfrwt>
<pdfrwt beam="2">  1       21 0.82897613E-01 0.12500000E+03</pdfrwt>
<totfact> 0.39650259E+06</totfact>
</mgrwt>
</event>
<event>
 3    1  0.1604658E-001  0.1250000E+03  0.7546771E-02  0.1235069E+00
         21   -1    0    0  502  501  0.00000000000E+00  0.00000000000E+00  0.39889465841E+03  0.39889465841E+03  0.00000000000E+00 0. -1.
         21   -1    0    0  501  502 -0.00000000000E+00 -0.00000000000E+00 -0.97926856569E+01  0.97926856569E+01  0.00000000000E+00 0. -1.
         25    1    1    2    0    0  0.00000000000E+00  0.00000000000E+00  0.38910197275E+03  0.40868734406E+03  0.12500000000E+03 0.  0.
<mgrwt>
<rscale>  0 0.12500000E+03</rscale>
<asrwt>0</asrwt>
<pdfrwt beam="1">  1       21 0.61368396E-01 0.12500000E+03</pdfrwt>
<pdfrwt beam="2">  1       21 0.15065673E-02 0.12500000E+03</pdfrwt>
<totfact> 0.47470422E+06</totfact>
</mgrwt>
</event>
<event>
 3    1  0.1604658E-001  0.1250000E+03  0.7546771E-02  0.1235069E+00
         21   -1    0    0  502  501  0.00000000000E+00  0.00000000000E+00  0.39519575249E+03  0.39519575249E+03  0.00000000000E+00 0. -1.
         21   -1    0    0  501  502 -0.00000000000E+00 -0.00000000000E+00 -0.98843420645E+01  0.98843420645E+01  0.00000000000E+00 0. -1.
         25    1    1    2    0    0  0.00000000000E+00  0.00000000000E+00  0.38531141042E+03  0.40508009455E+03  0.12500000000E+03 0.  0.
<mgrwt>
<rscale>  0 0.12500000E+03</rscale>
<asrwt>0</asrwt>
<pdfrwt beam="1">  1       21 0.60799334E-01 0.12500000E+03</pdfrwt>
<pdfrwt beam="2">  1       21 0.15206683E-02 0.12500000E+03</pdfrwt>
<totfact> 0.47706214E+06</totfact>
</mgrwt>
</event>
<event>
 3    1  0.1604658E-001  0.1250000E+03  0.7546771E-02  0.1235069E+00
         21   -1    0    0  502  501  0.00000000000E+00  0.00000000000E+00  0.42702846208E+02  0.42702846208E+02  0.00000000000E+00 0. -1.
         21   -1    0    0  501  502 -0.00000000000E+00 -0.00000000000E+00 -0.91475167275E+02  0.91475167275E+02  0.00000000000E+00 0. -1.
         25    1    1    2    0    0  0.00000000000E+00  0.00000000000E+00 -0.48772321067E+02  0.13417801348E+03  0.12500000000E+03 0.  0.
<mgrwt>
<rscale>  0 0.12500000E+03</rscale>
<asrwt>0</asrwt>
<pdfrwt beam="1">  1       21 0.65696686E-02 0.12500000E+03</pdfrwt>
<pdfrwt beam="2">  1       21 0.14073103E-01 0.12500000E+03</pdfrwt>
<totfact> 0.72805493E+06</totfact>
</mgrwt>
</event>
<event>
 3    1  0.1604658E-001  0.1250000E+03  0.7546771E-02  0.1235069E+00
         21   -1    0    0  502  501  0.00000000000E+00  0.00000000000E+00  0.77266028363E+01  0.77266028363E+01  0.00000000000E+00 0.  1.
         21   -1    0    0  501  502 -0.00000000000E+00 -0.00000000000E+00 -0.50555853365E+03  0.50555853365E+03  0.00000000000E+00 0.  1.
         25    1    1    2    0    0  0.00000000000E+00  0.00000000000E+00 -0.49783193081E+03  0.51328513649E+03  0.12500000000E+03 0.  0.
<mgrwt>
<rscale>  0 0.12500000E+03</rscale>
<asrwt>0</asrwt>
<pdfrwt beam="1">  1       21 0.11887083E-02 0.12500000E+03</pdfrwt>
<pdfrwt beam="2">  1       21 0.77778222E-01 0.12500000E+03</pdfrwt>
<totfact> 0.41332637E+06</totfact>
</mgrwt>
</event>
<event>
 3    1  0.1604658E-001  0.1250000E+03  0.7546771E-02  0.1235069E+00
         21   -1    0    0  502  501  0.00000000000E+00  0.00000000000E+00  0.54558646471E+03  0.54558646471E+03  0.00000000000E+00 0. -1.
         21   -1    0    0  501  502 -0.00000000000E+00 -0.00000000000E+00 -0.71597267394E+01  0.71597267394E+01  0.00000000000E+00 0. -1.
         25    1    1    2    0    0  0.00000000000E+00  0.00000000000E+00  0.53842673797E+03  0.55274619145E+03  0.12500000000E+03 0.  0.
<mgrwt>
<rscale>  0 0.12500000E+03</rscale>
<asrwt>0</asrwt>
<pdfrwt beam="1">  1       21 0.83936347E-01 0.12500000E+03</pdfrwt>
<pdfrwt beam="2">  1       21 0.11014968E-02 0.12500000E+03</pdfrwt>
<totfact> 0.39320730E+06</totfact>
</mgrwt>
</event>
<event>
 3    1  0.1604658E-001  0.1250000E+03  0.7546771E-02  0.1235069E+00
         21   -1    0    0  502  501  0.00000000000E+00  0.00000000000E+00  0.57471724737E+02  0.57471724737E+02  0.00000000000E+00 0.  1.
         21   -1    0    0  501  502 -0.00000000000E+00 -0.00000000000E+00 -0.67968205546E+02  0.67968205546E+02  0.00000000000E+00 0.  1.
         25    1    1    2    0    0  0.00000000000E+00  0.00000000000E+00 -0.10496480808E+02  0.12543993028E+03  0.12500000000E+03 0.  0.
<mgrwt>
<rscale>  0 0.12500000E+03</rscale>
<asrwt>0</asrwt>
<pdfrwt beam="1">  1       21 0.88418039E-02 0.12500000E+03</pdfrwt>
<pdfrwt beam="2">  1       21 0.10456647E-01 0.12500000E+03</pdfrwt>
<totfact> 0.73983807E+06</totfact>
</mgrwt>
</event>
<event>
 3    1  0.1604658E-001  0.1250000E+03  0.7546771E-02  0.1235069E+00
         21   -1    0    0  502  501  0.00000000000E+00  0.00000000000E+00  0.94579925374E+02  0.94579925374E+02  0.00000000000E+00 0. -1.
         21   -1    0    0  501  502 -0.00000000000E+00 -0.00000000000E+00 -0.41301047601E+02  0.41301047601E+02  0.00000000000E+00 0. -1.
         25    1    1    2    0    0  0.00000000000E+00  0.00000000000E+00  0.53278877773E+02  0.13588097298E+03  0.12500000000E+03 0.  0.
<mgrwt>
<rscale>  0 0.12500000E+03</rscale>
<asrwt>0</asrwt>
<pdfrwt beam="1">  1       21 0.14550758E-01 0.12500000E+03</pdfrwt>
<pdfrwt beam="2">  1       21 0.63540074E-02 0.12500000E+03</pdfrwt>
<totfact> 0.72580035E+06</totfact>
</mgrwt>
</event>
<event>
 3    1  0.1604658E-001  0.1250000E+03  0.7546771E-02  0.1235069E+00
         21   -1    0    0  502  501  0.00000000000E+00  0.00000000000E+00  0.22509095483E+02  0.22509095483E+02  0.00000000000E+00 0. -1.
         21   -1    0    0  501  502 -0.00000000000E+00 -0.00000000000E+00 -0.17354095827E+03  0.17354095827E+03  0.00000000000E+00 0. -1.
         25    1    1    2    0    0  0.00000000000E+00  0.00000000000E+00 -0.15103186279E+03  0.19605005376E+03  0.12500000000E+03 0.  0.
<mgrwt>
<rscale>  0 0.12500000E+03</rscale>
<asrwt>0</asrwt>
<pdfrwt beam="1">  1       21 0.34629378E-02 0.12500000E+03</pdfrwt>
<pdfrwt beam="2">  1       21 0.26698609E-01 0.12500000E+03</pdfrwt>
<totfact> 0.65356280E+06</totfact>
</mgrwt>
</event>
<event>
 3    1  0.1604658E-001  0.1250000E+03  0.7546771E-02  0.1235069E+00
         21   -1    0    0  502  501  0.00000000000E+00  0.00000000000E+00  0.25639226724E+02  0.25639226724E+02  0.00000000000E+00 0.  1.
         21   -1    0    0  501  502 -0.00000000000E+00 -0.00000000000E+00 -0.15235443884E+03  0.15235443884E+03  0.00000000000E+00 0.  1.
         25    1    1    2    0    0  0.00000000000E+00  0.00000000000E+00 -0.12671521212E+03  0.17799366557E+03  0.12500000000E+03 0.  0.
<mgrwt>
<rscale>  0 0.12500000E+03</rscale>
<asrwt>0</asrwt>
<pdfrwt beam="1">  1       21 0.39444965E-02 0.12500000E+03</pdfrwt>
<pdfrwt beam="2">  1       21 0.23439144E-01 0.12500000E+03</pdfrwt>
<totfact> 0.67382445E+06</totfact>
</mgrwt>
</event>
<event>
 3    1  0.1604658E-001  0.1250000E+03  0.7546771E-02  0.1235069E+00
         21   -1    0    0  502  501  0.00000000000E+00  0.00000000000E+00  0.27370130170E+03  0.27370130170E+03  0.00000000000E+00 0.  1.
         21   -1    0    0  501  502 -0.00000000000E+00 -0.00000000000E+00 -0.14271945277E+02  0.14271945277E+02  0.00000000000E+00 0.  1.
         25    1    1    2    0    0  0.00000000000E+00  0.00000000000E+00  0.25942935642E+03  0.28797324698E+03  0.12500000000E+03 0.  0.
<mgrwt>
<rscale>  0 0.12500000E+03</rscale>
<asrwt>0</asrwt>
<pdfrwt beam="1">  1       21 0.42107889E-01 0.12500000E+03</pdfrwt>
<pdfrwt beam="2">  1       21 0.21956841E-02 0.12500000E+03</pdfrwt>
<totfact> 0.56470694E+06</totfact>
</mgrwt>
</event>
<event>
 3    1  0.1604658E-001  0.1250000E+03  0.7546771E-02  0.1235069E+00
         21   -1    0    0  502  501  0.00000000000E+00  0.00000000000E+00  0.21732571441E+03  0.21732571441E+03  0.00000000000E+00 0. -1.
         21   -1    0    0  501  502 -0.00000000000E+00 -0.00000000000E+00 -0.17974173055E+02  0.17974173055E+02  0.00000000000E+00 0. -1.
         25    1    1    2    0    0  0.00000000000E+00  0.00000000000E+00  0.19935154135E+03  0.23529988746E+03  0.12500000000E+03 0.  0.
<mgrwt>
<rscale>  0 0.12500000E+03</rscale>
<asrwt>0</asrwt>
<pdfrwt beam="1">  1       21 0.33434723E-01 0.12500000E+03</pdfrwt>
<pdfrwt beam="2">  1       21 0.27652575E-02 0.12500000E+03</pdfrwt>
<totfact> 0.61290470E+06</totfact>
</mgrwt>
</event>
<event>
 3    1  0.1604658E-001  0.1250000E+03  0.7546771E-02  0.1235069E+00
         21   -1    0    0  502  501  0.00000000000E+00  0.00000000000E+00  0.31749975513E+02  0.31749975513E+02  0.00000000000E+00 0.  1.
         21   -1    0    0  501  502 -0.00000000000E+00 -0.00000000000E+00 -0.12303159095E+03  0.12303159095E+03  0.00000000000E+00 0.  1.
         25    1    1    2    0    0  0.00000000000E+00  0.00000000000E+00 -0.91281615440E+02  0.15478156646E+03  0.12500000000E+03 0.  0.
<mgrwt>
<rscale>  0 0.12500000E+03</rscale>
<asrwt>0</asrwt>
<pdfrwt beam="1">  1       21 0.48846115E-02 0.12500000E+03</pdfrwt>
<pdfrwt beam="2">  1       21 0.18927937E-01 0.12500000E+03</pdfrwt>
<totfact> 0.70162817E+06</totfact>
</mgrwt>
</event>
<event>
 3    1  0.1604658E-001  0.1250000E+03  0.7546771E-02  0.1235069E+00
         21   -1    0    0  502  501  0.00000000000E+00  0.00000000000E+00  0.89007930271E+02  0.89007930271E+02  0.00000000000E+00 0.  1.
         21   -1    0    0  501  502 -0.00000000000E+00 -0.00000000000E+00 -0.43886538965E+02  0.43886538965E+02  0.00000000000E+00 0.  1.
         25    1    1    2    0    0  0.00000000000E+00  0.00000000000E+00  0.45121391306E+02  0.13289446924E+03  0.12500000000E+03 0.  0.
<mgrwt>
<rscale>  0 0.12500000E+03</rscale>
<asrwt>0</asrwt>
<pdfrwt beam="1">  1       21 0.13693528E-01 0.12500000E+03</pdfrwt>
<pdfrwt beam="2">  1       21 0.67517752E-02 0.12500000E+03</pdfrwt>
<totfact> 0.72976493E+06</totfact>
</mgrwt>
</event>
<event>
 3    1  0.1604658E-001  0.1250000E+03  0.7546771E-02  0.1235069E+00
         21   -1    0    0  502  501  0.00000000000E+00  0.00000000000E+00  0.12824602181E+03  0.12824602181E+03  0.00000000000E+00 0.  1.
         21   -1    0    0  501  502 -0.00000000000E+00 -0.00000000000E+00 -0.30459034477E+02  0.30459034477E+02  0.00000000000E+00 0.  1.
         25    1    1    2    0    0  0.00000000000E+00  0.00000000000E+00  0.97786987338E+02  0.15870505629E+03  0.12500000000E+03 0.  0.
<mgrwt>
<rscale>  0 0.12500000E+03</rscale>
<asrwt>0</asrwt>
<pdfrwt beam="1">  1       21 0.19730157E-01 0.12500000E+03</pdfrwt>
<pdfrwt beam="2">  1       21 0.46860054E-02 0.12500000E+03</pdfrwt>
<totfact> 0.69678071E+06</totfact>
</mgrwt>
</event>
<event>
 3    1  0.1604658E-001  0.1250000E+03  0.7546771E-02  0.1235069E+00
         21   -1    0    0  502  501  0.00000000000E+00  0.00000000000E+00  0.41057616178E+02  0.41057616178E+02  0.00000000000E+00 0.  1.
         21   -1    0    0  501  502 -0.00000000000E+00 -0.00000000000E+00 -0.95140691634E+02  0.95140691634E+02  0.00000000000E+00 0.  1.
         25    1    1    2    0    0  0.00000000000E+00  0.00000000000E+00 -0.54083075456E+02  0.13619830781E+03  0.12500000000E+03 0.  0.
<mgrwt>
<rscale>  0 0.12500000E+03</rscale>
<asrwt>0</asrwt>
<pdfrwt beam="1">  1       21 0.63165563E-02 0.12500000E+03</pdfrwt>
<pdfrwt beam="2">  1       21 0.14637029E-01 0.12500000E+03</pdfrwt>
<totfact> 0.72538195E+06</totfact>
</mgrwt>
</event>
<event>
 3    1  0.1604658E-001  0.1250000E+03  0.7546771E-02  0.1235069E+00
         21   -1    0    0  502  501  0.00000000000E+00  0.00000000000E+00  0.57002497802E+02  0.57002497802E+02  0.00000000000E+00 0.  1.
         21   -1    0    0  501  502 -0.00000000000E+00 -0.00000000000E+00 -0.68527698796E+02  0.68527698796E+02  0.00000000000E+00 0.  1.
         25    1    1    2    0    0  0.00000000000E+00  0.00000000000E+00 -0.11525200994E+02  0.12553019660E+03  0.12500000000E+03 0.  0.
<mgrwt>
<rscale>  0 0.12500000E+03</rscale>
<asrwt>0</asrwt>
<pdfrwt beam="1">  1       21 0.87696151E-02 0.12500000E+03</pdfrwt>
<pdfrwt beam="2">  1       21 0.10542723E-01 0.12500000E+03</pdfrwt>
<totfact> 0.73971177E+06</totfact>
</mgrwt>
</event>
<event>
 3    1  0.1604658E-001  0.1250000E+03  0.7546771E-02  0.1235069E+00
         21   -1    0    0  502  501  0.00000000000E+00  0.00000000000E+00  0.13304309537E+02  0.13304309537E+02  0.00000000000E+00 0. -1.
         21   -1    0    0  501  502 -0.00000000000E+00 -0.00000000000E+00 -0.29360787113E+03  0.29360787113E+03  0.00000000000E+00 0. -1.
         25    1    1    2    0    0  0.00000000000E+00  0.00000000000E+00 -0.28030356159E+03  0.30691218067E+03  0.12500000000E+03 0.  0.
<mgrwt>
<rscale>  0 0.12500000E+03</rscale>
<asrwt>0</asrwt>
<pdfrwt beam="1">  1       21 0.20468172E-02 0.12500000E+03</pdfrwt>
<pdfrwt beam="2">  1       21 0.45170435E-01 0.12500000E+03</pdfrwt>
<totfact> 0.54886595E+06</totfact>
</mgrwt>
</event>
<event>
 3    1  0.1604658E-001  0.1250000E+03  0.7546771E-02  0.1235069E+00
         21   -1    0    0  502  501  0.00000000000E+00  0.00000000000E+00  0.20865823444E+02  0.20865823444E+02  0.00000000000E+00 0. -1.
         21   -1    0    0  501  502 -0.00000000000E+00 -0.00000000000E+00 -0.18720804432E+03  0.18720804432E+03  0.00000000000E+00 0. -1.
         25    1    1    2    0    0  0.00000000000E+00  0.00000000000E+00 -0.16634222088E+03  0.20807386776E+03  0.12500000000E+03 0.  0.
<mgrwt>
<rscale>  0 0.12500000E+03</rscale>
<asrwt>0</asrwt>
<pdfrwt beam="1">  1       21 0.32101266E-02 0.12500000E+03</pdfrwt>
<pdfrwt beam="2">  1       21 0.28801238E-01 0.12500000E+03</pdfrwt>
<totfact> 0.64062758E+06</totfact>
</mgrwt>
</event>
<event>
 3    1  0.1604658E-001  0.1250000E+03  0.7546771E-02  0.1235069E+00
         21   -1    0    0  502  501  0.00000000000E+00  0.00000000000E+00  0.34660104662E+02  0.34660104662E+02  0.00000000000E+00 0. -1.
         21   -1    0    0  501  502 -0.00000000000E+00 -0.00000000000E+00 -0.11270162159E+03  0.11270162159E+03  0.00000000000E+00 0. -1.
         25    1    1    2    0    0  0.00000000000E+00  0.00000000000E+00 -0.78041516930E+02  0.14736172625E+03  0.12500000000E+03 0.  0.
<mgrwt>
<rscale>  0 0.12500000E+03</rscale>
<asrwt>0</asrwt>
<pdfrwt beam="1">  1       21 0.53323239E-02 0.12500000E+03</pdfrwt>
<pdfrwt beam="2">  1       21 0.17338711E-01 0.12500000E+03</pdfrwt>
<totfact> 0.71092211E+06</totfact>
</mgrwt>
</event>
<event>
 3    1  0.1604658E-001  0.1250000E+03  0.7546771E-02  0.1235069E+00
         21   -1    0    0  502  501  0.00000000000E+00  0.00000000000E+00  0.29170826519E+03  0.29170826519E+03  0.00000000000E+00 0. -1.
         21   -1    0    0  501  502 -0.00000000000E+00 -0.00000000000E+00 -0.13390947279E+02  0.13390947279E+02  0.00000000000E+00 0. -1.
         25    1    1    2    0    0  0.00000000000E+00  0.00000000000E+00  0.27831731791E+03  0.30509921247E+03  0.12500000000E+03 0.  0.
<mgrwt>
<rscale>  0 0.12500000E+03</rscale>
<asrwt>0</asrwt>
<pdfrwt beam="1">  1       21 0.44878190E-01 0.12500000E+03</pdfrwt>
<pdfrwt beam="2">  1       21 0.20601460E-02 0.12500000E+03</pdfrwt>
<totfact> 0.55035056E+06</totfact>
</mgrwt>
</event>
<event>
 3    1  0.1604658E-001  0.1250000E+03  0.7546771E-02  0.1235069E+00
         21   -1    0    0  502  501  0.00000000000E+00  0.00000000000E+00  0.39959744229E+02  0.39959744229E+02  0.00000000000E+00 0.  1.
         21   -1    0    0  501  502 -0.00000000000E+00 -0.00000000000E+00 -0.97754629699E+02  0.97754629699E+02  0.00000000000E+00 0.  1.
         25    1    1    2    0    0  0.00000000000E+00  0.00000000000E+00 -0.57794885469E+02  0.13771437393E+03  0.12500000000E+03 0.  0.
<mgrwt>
<rscale>  0 0.12500000E+03</rscale>
<asrwt>0</asrwt>
<pdfrwt beam="1">  1       21 0.61476531E-02 0.12500000E+03</pdfrwt>
<pdfrwt beam="2">  1       21 0.15039174E-01 0.12500000E+03</pdfrwt>
<totfact> 0.72339025E+06</totfact>
</mgrwt>
</event>
<event>
 3    1  0.1604658E-001  0.1250000E+03  0.7546771E-02  0.1235069E+00
         21   -1    0    0  502  501  0.00000000000E+00  0.00000000000E+00  0.96610187885E+01  0.96610187885E+01  0.00000000000E+00 0.  1.
         21   -1    0    0  501  502 -0.00000000000E+00 -0.00000000000E+00 -0.40433106337E+03  0.40433106337E+03  0.00000000000E+00 0.  1.
         25    1    1    2    0    0  0.00000000000E+00  0.00000000000E+00 -0.39467004458E+03  0.41399208216E+03  0.12500000000E+03 0.  0.
<mgrwt>
<rscale>  0 0.12500000E+03</rscale>
<asrwt>0</asrwt>
<pdfrwt beam="1">  1       21 0.14863101E-02 0.12500000E+03</pdfrwt>
<pdfrwt beam="2">  1       21 0.62204799E-01 0.12500000E+03</pdfrwt>
<totfact> 0.47126903E+06</totfact>
</mgrwt>
</event>
<event>
 3    1  0.1604658E-001  0.1250000E+03  0.7546771E-02  0.1235069E+00
         21   -1    0    0  502  501  0.00000000000E+00  0.00000000000E+00  0.64773155572E+03  0.64773155572E+03  0.00000000000E+00 0. -1.
         21   -1    0    0  501  502 -0.00000000000E+00 -0.00000000000E+00 -0.60306618776E+01  0.60306618776E+01  0.00000000000E+00 0. -1.
         25    1    1    2    0    0  0.00000000000E+00  0.00000000000E+00  0.64170089384E+03  0.65376221759E+03  0.12500000000E+03 0.  0.
<mgrwt>
<rscale>  0 0.12500000E+03</rscale>
<asrwt>0</asrwt>
<pdfrwt beam="1">  1       21 0.99650954E-01 0.12500000E+03</pdfrwt>
<pdfrwt beam="2">  1       21 0.92779465E-03 0.12500000E+03</pdfrwt>
<totfact> 0.34768562E+06</totfact>
</mgrwt>
</event>
<event>
 3    1  0.1604658E-001  0.1250000E+03  0.7546771E-02  0.1235069E+00
         21   -1    0    0  502  501  0.00000000000E+00  0.00000000000E+00  0.67545651716E+01  0.67545651716E+01  0.00000000000E+00 0. -1.
         21   -1    0    0  501  502 -0.00000000000E+00 -0.00000000000E+00 -0.57831257834E+03  0.57831257834E+03  0.00000000000E+00 0. -1.
         25    1    1    2    0    0  0.00000000000E+00  0.00000000000E+00 -0.57155801317E+03  0.58506714351E+03  0.12500000000E+03 0.  0.
<mgrwt>
<rscale>  0 0.12500000E+03</rscale>
<asrwt>0</asrwt>
<pdfrwt beam="1">  1       21 0.10391640E-02 0.12500000E+03</pdfrwt>
<pdfrwt beam="2">  1       21 0.88971156E-01 0.12500000E+03</pdfrwt>
<totfact> 0.37776779E+06</totfact>
</mgrwt>
</event>
<event>
 3    1  0.1604658E-001  0.1250000E+03  0.7546771E-02  0.1235069E+00
         21   -1    0    0  502  501  0.00000000000E+00  0.00000000000E+00  0.57106246065E+03  0.57106246065E+03  0.00000000000E+00 0.  1.
         21   -1    0    0  501  502 -0.00000000000E+00 -0.00000000000E+00 -0.68403200510E+01  0.68403200510E+01  0.00000000000E+00 0.  1.
         25    1    1    2    0    0  0.00000000000E+00  0.00000000000E+00  0.56422214060E+03  0.57790278070E+03  0.12500000000E+03 0.  0.
<mgrwt>
<rscale>  0 0.12500000E+03</rscale>
<asrwt>0</asrwt>
<pdfrwt beam="1">  1       21 0.87855726E-01 0.12500000E+03</pdfrwt>
<pdfrwt beam="2">  1       21 0.10523574E-02 0.12500000E+03</pdfrwt>
<totfact> 0.38111415E+06</totfact>
</mgrwt>
</event>
<event>
 3    1  0.1604658E-001  0.1250000E+03  0.7546771E-02  0.1235069E+00
         21   -1    0    0  502  501  0.00000000000E+00  0.00000000000E+00  0.41502804209E+02  0.41502804209E+02  0.00000000000E+00 0. -1.
         21   -1    0    0  501  502 -0.00000000000E+00 -0.00000000000E+00 -0.94120146203E+02  0.94120146203E+02  0.00000000000E+00 0. -1.
         25    1    1    2    0    0  0.00000000000E+00  0.00000000000E+00 -0.52617341993E+02  0.13562295041E+03  0.12500000000E+03 0.  0.
<mgrwt>
<rscale>  0 0.12500000E+03</rscale>
<asrwt>0</asrwt>
<pdfrwt beam="1">  1       21 0.63850469E-02 0.12500000E+03</pdfrwt>
<pdfrwt beam="2">  1       21 0.14480022E-01 0.12500000E+03</pdfrwt>
<totfact> 0.72614094E+06</totfact>
</mgrwt>
</event>
<event>
 3    1  0.1604658E-001  0.1250000E+03  0.7546771E-02  0.1235069E+00
         21   -1    0    0  502  501  0.00000000000E+00  0.00000000000E+00  0.13481358896E+04  0.13481358896E+04  0.00000000000E+00 0. -1.
         21   -1    0    0  501  502 -0.00000000000E+00 -0.00000000000E+00 -0.28975194786E+01  0.28975194786E+01  0.00000000000E+00 0. -1.
         25    1    1    2    0    0  0.00000000000E+00  0.00000000000E+00  0.13452383702E+04  0.13510334091E+04  0.12500000000E+03 0.  0.
<mgrwt>
<rscale>  0 0.12500000E+03</rscale>
<asrwt>0</asrwt>
<pdfrwt beam="1">  1       21 0.20740502E+00 0.12500000E+03</pdfrwt>
<pdfrwt beam="2">  1       21 0.44577330E-03 0.12500000E+03</pdfrwt>
<totfact> 0.16360246E+06</totfact>
</mgrwt>
</event>
<event>
 3    1  0.1604658E-001  0.1250000E+03  0.7546771E-02  0.1235069E+00
         21   -1    0    0  502  501  0.00000000000E+00  0.00000000000E+00  0.14665713197E+02  0.14665713197E+02  0.00000000000E+00 0.  1.
         21   -1    0    0  501  502 -0.00000000000E+00 -0.00000000000E+00 -0.26635254266E+03  0.26635254266E+03  0.00000000000E+00 0.  1.
         25    1    1    2    0    0  0.00000000000E+00  0.00000000000E+00 -0.25168682946E+03  0.28101825586E+03  0.12500000000E+03 0.  0.
<mgrwt>
<rscale>  0 0.12500000E+03</rscale>
<asrwt>0</asrwt>
<pdfrwt beam="1">  1       21 0.22562640E-02 0.12500000E+03</pdfrwt>
<pdfrwt beam="2">  1       21 0.40977307E-01 0.12500000E+03</pdfrwt>
<totfact> 0.57071472E+06</totfact>
</mgrwt>
</event>
<event>
 3    1  0.1604658E-001  0.1250000E+03  0.7546771E-02  0.1235069E+00
         21   -1    0    0  502  501  0.00000000000E+00  0.00000000000E+00  0.26442244974E+03  0.26442244974E+03  0.00000000000E+00 0. -1.
         21   -1    0    0  501  502 -0.00000000000E+00 -0.00000000000E+00 -0.14772762312E+02  0.14772762312E+02  0.00000000000E+00 0. -1.
         25    1    1    2    0    0  0.00000000000E+00  0.00000000000E+00  0.24964968743E+03  0.27919521205E+03  0.12500000000E+03 0.  0.
<mgrwt>
<rscale>  0 0.12500000E+03</rscale>
<asrwt>0</asrwt>
<pdfrwt beam="1">  1       21 0.40680373E-01 0.12500000E+03</pdfrwt>
<pdfrwt beam="2">  1       21 0.22727329E-02 0.12500000E+03</pdfrwt>
<totfact> 0.57230701E+06</totfact>
</mgrwt>
</event>
<event>
 3    1  0.1604658E-001  0.1250000E+03  0.7546771E-02  0.1235069E+00
         21   -1    0    0  502  501  0.00000000000E+00  0.00000000000E+00  0.17549872990E+03  0.17549872990E+03  0.00000000000E+00 0.  1.
         21   -1    0    0  501  502 -0.00000000000E+00 -0.00000000000E+00 -0.22257995839E+02  0.22257995839E+02  0.00000000000E+00 0.  1.
         25    1    1    2    0    0  0.00000000000E+00  0.00000000000E+00  0.15324073406E+03  0.19775672574E+03  0.12500000000E+03 0.  0.
<mgrwt>
<rscale>  0 0.12500000E+03</rscale>
<asrwt>0</asrwt>
<pdfrwt beam="1">  1       21 0.26999804E-01 0.12500000E+03</pdfrwt>
<pdfrwt beam="2">  1       21 0.34243072E-02 0.12500000E+03</pdfrwt>
<totfact> 0.65170564E+06</totfact>
</mgrwt>
</event>
<event>
 3    1  0.1604658E-001  0.1250000E+03  0.7546771E-02  0.1235069E+00
         21   -1    0    0  502  501  0.00000000000E+00  0.00000000000E+00  0.55637140979E+02  0.55637140979E+02  0.00000000000E+00 0.  1.
         21   -1    0    0  501  502 -0.00000000000E+00 -0.00000000000E+00 -0.70209394863E+02  0.70209394863E+02  0.00000000000E+00 0.  1.
         25    1    1    2    0    0  0.00000000000E+00  0.00000000000E+00 -0.14572253884E+02  0.12584653584E+03  0.12500000000E+03 0.  0.
<mgrwt>
<rscale>  0 0.12500000E+03</rscale>
<asrwt>0</asrwt>
<pdfrwt beam="1">  1       21 0.85595601E-02 0.12500000E+03</pdfrwt>
<pdfrwt beam="2">  1       21 0.10801445E-01 0.12500000E+03</pdfrwt>
<totfact> 0.73927231E+06</totfact>
</mgrwt>
</event>
<event>
 3    1  0.1604658E-001  0.1250000E+03  0.7546771E-02  0.1235069E+00
         21   -1    0    0  502  501  0.00000000000E+00  0.00000000000E+00  0.75806314699E+01  0.75806314699E+01  0.00000000000E+00 0.  1.
         21   -1    0    0  501  502 -0.00000000000E+00 -0.00000000000E+00 -0.51529348386E+03  0.51529348386E+03  0.00000000000E+00 0.  1.
         25    1    1    2    0    0  0.00000000000E+00  0.00000000000E+00 -0.50771285239E+03  0.52287411533E+03  0.12500000000E+03 0.  0.
<mgrwt>
<rscale>  0 0.12500000E+03</rscale>
<asrwt>0</asrwt>
<pdfrwt beam="1">  1       21 0.11662507E-02 0.12500000E+03</pdfrwt>
<pdfrwt beam="2">  1       21 0.79275938E-01 0.12500000E+03</pdfrwt>
<totfact> 0.40830113E+06</totfact>
</mgrwt>
</event>
<event>
 3    1  0.1604658E-001  0.1250000E+03  0.7546771E-02  0.1235069E+00
         21   -1    0    0  502  501  0.00000000000E+00  0.00000000000E+00  0.95161183032E+02  0.95161183032E+02  0.00000000000E+00 0.  1.
         21   -1    0    0  501  502 -0.00000000000E+00 -0.00000000000E+00 -0.41048775094E+02  0.41048775094E+02  0.00000000000E+00 0.  1.
         25    1    1    2    0    0  0.00000000000E+00  0.00000000000E+00  0.54112407938E+02  0.13620995813E+03  0.12500000000E+03 0.  0.
<mgrwt>
<rscale>  0 0.12500000E+03</rscale>
<asrwt>0</asrwt>
<pdfrwt beam="1">  1       21 0.14640182E-01 0.12500000E+03</pdfrwt>
<pdfrwt beam="2">  1       21 0.63151962E-02 0.12500000E+03</pdfrwt>
<totfact> 0.72536660E+06</totfact>
</mgrwt>
</event>
<event>
 3    1  0.1604658E-001  0.1250000E+03  0.7546771E-02  0.1235069E+00
         21   -1    0    0  502  501  0.00000000000E+00  0.00000000000E+00  0.46287977424E+03  0.46287977424E+03  0.00000000000E+00 0. -1.
         21   -1    0    0  501  502 -0.00000000000E+00 -0.00000000000E+00 -0.84390163869E+01  0.84390163869E+01  0.00000000000E+00 0. -1.
         25    1    1    2    0    0  0.00000000000E+00  0.00000000000E+00  0.45444075786E+03  0.47131879063E+03  0.12500000000E+03 0.  0.
<mgrwt>
<rscale>  0 0.12500000E+03</rscale>
<asrwt>0</asrwt>
<pdfrwt beam="1">  1       21 0.71212253E-01 0.12500000E+03</pdfrwt>
<pdfrwt beam="2">  1       21 0.12983106E-02 0.12500000E+03</pdfrwt>
<totfact> 0.43643491E+06</totfact>
</mgrwt>
</event>
<event>
 3    1  0.1604658E-001  0.1250000E+03  0.7546771E-02  0.1235069E+00
         21   -1    0    0  502  501  0.00000000000E+00  0.00000000000E+00  0.23698911126E+01  0.23698911126E+01  0.00000000000E+00 0. -1.
         21   -1    0    0  501  502 -0.00000000000E+00 -0.00000000000E+00 -0.16482824798E+04  0.16482824798E+04  0.00000000000E+00 0. -1.
         25    1    1    2    0    0  0.00000000000E+00  0.00000000000E+00 -0.16459125887E+04  0.16506523709E+04  0.12500000000E+03 0.  0.
<mgrwt>
<rscale>  0 0.12500000E+03</rscale>
<asrwt>0</asrwt>
<pdfrwt beam="1">  1       21 0.36459865E-03 0.12500000E+03</pdfrwt>
<pdfrwt beam="2">  1       21 0.25358191E+00 0.12500000E+03</pdfrwt>
<totfact> 0.11899380E+06</totfact>
</mgrwt>
</event>
<event>
 3    1  0.1604658E-001  0.1250000E+03  0.7546771E-02  0.1235069E+00
         21   -1    0    0  502  501  0.00000000000E+00  0.00000000000E+00  0.71121450207E+02  0.71121450207E+02  0.00000000000E+00 0. -1.
         21   -1    0    0  501  502 -0.00000000000E+00 -0.00000000000E+00 -0.54923655081E+02  0.54923655081E+02  0.00000000000E+00 0. -1.
         25    1    1    2    0    0  0.00000000000E+00  0.00000000000E+00  0.16197795126E+02  0.12604510529E+03  0.12500000000E+03 0.  0.
<mgrwt>
<rscale>  0 0.12500000E+03</rscale>
<asrwt>0</asrwt>
<pdfrwt beam="1">  1       21 0.10941762E-01 0.12500000E+03</pdfrwt>
<pdfrwt beam="2">  1       21 0.84497931E-02 0.12500000E+03</pdfrwt>
<totfact> 0.73899822E+06</totfact>
</mgrwt>
</event>
<event>
 3    1  0.1604658E-001  0.1250000E+03  0.7546771E-02  0.1235069E+00
         21   -1    0    0  502  501  0.00000000000E+00  0.00000000000E+00  0.10110838783E+02  0.10110838783E+02  0.00000000000E+00 0.  1.
         21   -1    0    0  501  502 -0.00000000000E+00 -0.00000000000E+00 -0.38634282317E+03  0.38634282317E+03  0.00000000000E+00 0.  1.
         25    1    1    2    0    0  0.00000000000E+00  0.00000000000E+00 -0.37623198439E+03  0.39645366195E+03  0.12500000000E+03 0.  0.
<mgrwt>
<rscale>  0 0.12500000E+03</rscale>
<asrwt>0</asrwt>
<pdfrwt beam="1">  1       21 0.15555135E-02 0.12500000E+03</pdfrwt>
<pdfrwt beam="2">  1       21 0.59437362E-01 0.12500000E+03</pdfrwt>
<totfact> 0.48277466E+06</totfact>
</mgrwt>
</event>
<event>
 3    1  0.1604658E-001  0.1250000E+03  0.7546771E-02  0.1235069E+00
         21   -1    0    0  502  501  0.00000000000E+00  0.00000000000E+00  0.10668479909E+03  0.10668479909E+03  0.00000000000E+00 0.  1.
         21   -1    0    0  501  502 -0.00000000000E+00 -0.00000000000E+00 -0.36614869534E+02  0.36614869534E+02  0.00000000000E+00 0.  1.
         25    1    1    2    0    0  0.00000000000E+00  0.00000000000E+00  0.70069929558E+02  0.14329966863E+03  0.12500000000E+03 0.  0.
<mgrwt>
<rscale>  0 0.12500000E+03</rscale>
<asrwt>0</asrwt>
<pdfrwt beam="1">  1       21 0.16413046E-01 0.12500000E+03</pdfrwt>
<pdfrwt beam="2">  1       21 0.56330569E-02 0.12500000E+03</pdfrwt>
<totfact> 0.71611416E+06</totfact>
</mgrwt>
</event>
<event>
 3    1  0.1604658E-001  0.1250000E+03  0.7546771E-02  0.1235069E+00
         21   -1    0    0  502  501  0.00000000000E+00  0.00000000000E+00  0.21585126045E+03  0.21585126045E+03  0.00000000000E+00 0. -1.
         21   -1    0    0  501  502 -0.00000000000E+00 -0.00000000000E+00 -0.18096952465E+02  0.18096952465E+02  0.00000000000E+00 0. -1.
         25    1    1    2    0    0  0.00000000000E+00  0.00000000000E+00  0.19775430799E+03  0.23394821292E+03  0.12500000000E+03 0.  0.
<mgrwt>
<rscale>  0 0.12500000E+03</rscale>
<asrwt>0</asrwt>
<pdfrwt beam="1">  1       21 0.33207884E-01 0.12500000E+03</pdfrwt>
<pdfrwt beam="2">  1       21 0.27841467E-02 0.12500000E+03</pdfrwt>
<totfact> 0.61423245E+06</totfact>
</mgrwt>
</event>
<event>
 3    1  0.1604658E-001  0.1250000E+03  0.7546771E-02  0.1235069E+00
         21   -1    0    0  502  501  0.00000000000E+00  0.00000000000E+00  0.17813675174E+02  0.17813675174E+02  0.00000000000E+00 0.  1.
         21   -1    0    0  501  502 -0.00000000000E+00 -0.00000000000E+00 -0.21928377843E+03  0.21928377843E+03  0.00000000000E+00 0.  1.
         25    1    1    2    0    0  0.00000000000E+00  0.00000000000E+00 -0.20147010326E+03  0.23709745361E+03  0.12500000000E+03 0.  0.
<mgrwt>
<rscale>  0 0.12500000E+03</rscale>
<asrwt>0</asrwt>
<pdfrwt beam="1">  1       21 0.27405654E-02 0.12500000E+03</pdfrwt>
<pdfrwt beam="2">  1       21 0.33735966E-01 0.12500000E+03</pdfrwt>
<totfact> 0.61114671E+06</totfact>
</mgrwt>
</event>
<event>
 3    1  0.1604658E-001  0.1250000E+03  0.7546771E-02  0.1235069E+00
         21   -1    0    0  502  501  0.00000000000E+00  0.00000000000E+00  0.34396817900E+02  0.34396817900E+02  0.00000000000E+00 0. -1.
         21   -1    0    0  501  502 -0.00000000000E+00 -0.00000000000E+00 -0.11356428410E+03  0.11356428410E+03  0.00000000000E+00 0. -1.
         25    1    1    2    0    0  0.00000000000E+00  0.00000000000E+00 -0.79167466196E+02  0.14796110200E+03  0.12500000000E+03 0.  0.
<mgrwt>
<rscale>  0 0.12500000E+03</rscale>
<asrwt>0</asrwt>
<pdfrwt beam="1">  1       21 0.52918181E-02 0.12500000E+03</pdfrwt>
<pdfrwt beam="2">  1       21 0.17471428E-01 0.12500000E+03</pdfrwt>
<totfact> 0.71016272E+06</totfact>
</mgrwt>
</event>
<event>
 3    1  0.1604658E-001  0.1250000E+03  0.7546771E-02  0.1235069E+00
         21   -1    0    0  502  501  0.00000000000E+00  0.00000000000E+00  0.41338973311E+02  0.41338973311E+02  0.00000000000E+00 0.  1.
         21   -1    0    0  501  502 -0.00000000000E+00 -0.00000000000E+00 -0.94493154694E+02  0.94493154694E+02  0.00000000000E+00 0.  1.
         25    1    1    2    0    0  0.00000000000E+00  0.00000000000E+00 -0.53154181382E+02  0.13583212801E+03  0.12500000000E+03 0.  0.
<mgrwt>
<rscale>  0 0.12500000E+03</rscale>
<asrwt>0</asrwt>
<pdfrwt beam="1">  1       21 0.63598421E-02 0.12500000E+03</pdfrwt>
<pdfrwt beam="2">  1       21 0.14537408E-01 0.12500000E+03</pdfrwt>
<totfact> 0.72586480E+06</totfact>
</mgrwt>
</event>
<event>
 3    1  0.1604658E-001  0.1250000E+03  0.7546771E-02  0.1235069E+00
         21   -1    0    0  502  501  0.00000000000E+00  0.00000000000E+00  0.20013385504E+02  0.20013385504E+02  0.00000000000E+00 0.  1.
         21   -1    0    0  501  502 -0.00000000000E+00 -0.00000000000E+00 -0.19518186962E+03  0.19518186962E+03  0.00000000000E+00 0.  1.
         25    1    1    2    0    0  0.00000000000E+00  0.00000000000E+00 -0.17516848412E+03  0.21519525512E+03  0.12500000000E+03 0.  0.
<mgrwt>
<rscale>  0 0.12500000E+03</rscale>
<asrwt>0</asrwt>
<pdfrwt beam="1">  1       21 0.30789824E-02 0.12500000E+03</pdfrwt>
<pdfrwt beam="2">  1       21 0.30027980E-01 0.12500000E+03</pdfrwt>
<totfact> 0.63317047E+06</totfact>
</mgrwt>
</event>
<event>
 3    1  0.1604658E-001  0.1250000E+03  0.7546771E-02  0.1235069E+00
         21   -1    0    0  502  501  0.00000000000E+00  0.00000000000E+00  0.35554454054E+02  0.35554454054E+02  0.00000000000E+00 0.  1.
         21   -1    0    0  501  502 -0.00000000000E+00 -0.00000000000E+00 -0.10986668489E+03  0.10986668489E+03  0.00000000000E+00 0.  1.
         25    1    1    2    0    0  0.00000000000E+00  0.00000000000E+00 -0.74312230836E+02  0.14542113894E+03  0.12500000000E+03 0.  0.
<mgrwt>
<rscale>  0 0.12500000E+03</rscale>
<asrwt>0</asrwt>
<pdfrwt beam="1">  1       21 0.54699161E-02 0.12500000E+03</pdfrwt>
<pdfrwt beam="2">  1       21 0.16902567E-01 0.12500000E+03</pdfrwt>
<totfact> 0.71339247E+06</totfact>
</mgrwt>
</event>
<event>
 3    1  0.1604658E-001  0.1250000E+03  0.7546771E-02  0.1235069E+00
         21   -1    0    0  502  501  0.00000000000E+00  0.00000000000E+00  0.51713622515E+03  0.51713622515E+03  0.00000000000E+00 0. -1.
         21   -1    0    0  501  502 -0.00000000000E+00 -0.00000000000E+00 -0.75536189692E+01  0.75536189692E+01  0.00000000000E+00 0. -1.
         25    1    1    2    0    0  0.00000000000E+00  0.00000000000E+00  0.50958260618E+03  0.52468984412E+03  0.12500000000E+03 0.  0.
<mgrwt>
<rscale>  0 0.12500000E+03</rscale>
<asrwt>0</asrwt>
<pdfrwt beam="1">  1       21 0.79559391E-01 0.12500000E+03</pdfrwt>
<pdfrwt beam="2">  1       21 0.11620956E-02 0.12500000E+03</pdfrwt>
<totfact> 0.40735986E+06</totfact>
</mgrwt>
</event>
<event>
 3    1  0.1604658E-001  0.1250000E+03  0.7546771E-02  0.1235069E+00
         21   -1    0    0  502  501  0.00000000000E+00  0.00000000000E+00  0.69718270948E+02  0.69718270948E+02  0.00000000000E+00 0. -1.
         21   -1    0    0  501  502 -0.00000000000E+00 -0.00000000000E+00 -0.56029071675E+02  0.56029071675E+02  0.00000000000E+00 0. -1.
         25    1    1    2    0    0  0.00000000000E+00  0.00000000000E+00  0.13689199272E+02  0.12574734262E+03  0.12500000000E+03 0.  0.
<mgrwt>
<rscale>  0 0.12500000E+03</rscale>
<asrwt>0</asrwt>
<pdfrwt beam="1">  1       21 0.10725888E-01 0.12500000E+03</pdfrwt>
<pdfrwt beam="2">  1       21 0.86198572E-02 0.12500000E+03</pdfrwt>
<totfact> 0.73940968E+06</totfact>
</mgrwt>
</event>
<event>
 3    1  0.1604658E-001  0.1250000E+03  0.7546771E-02  0.1235069E+00
         21   -1    0    0  502  501  0.00000000000E+00  0.00000000000E+00  0.68905965619E+01  0.68905965619E+01  0.00000000000E+00 0.  1.
         21   -1    0    0  501  502 -0.00000000000E+00 -0.00000000000E+00 -0.56689576365E+03  0.56689576365E+03  0.00000000000E+00 0.  1.
         25    1    1    2    0    0  0.00000000000E+00  0.00000000000E+00 -0.56000516709E+03  0.57378636021E+03  0.12500000000E+03 0.  0.
<mgrwt>
<rscale>  0 0.12500000E+03</rscale>
<asrwt>0</asrwt>
<pdfrwt beam="1">  1       21 0.10600919E-02 0.12500000E+03</pdfrwt>
<pdfrwt beam="2">  1       21 0.87214719E-01 0.12500000E+03</pdfrwt>
<totfact> 0.38305597E+06</totfact>
</mgrwt>
</event>
<event>
 3    1  0.1604658E-001  0.1250000E+03  0.7546771E-02  0.1235069E+00
         21   -1    0    0  502  501  0.00000000000E+00  0.00000000000E+00  0.82194475582E+01  0.82194475582E+01  0.00000000000E+00 0. -1.
         21   -1    0    0  501  502 -0.00000000000E+00 -0.00000000000E+00 -0.47524483517E+03  0.47524483517E+03  0.00000000000E+00 0. -1.
         25    1    1    2    0    0  0.00000000000E+00  0.00000000000E+00 -0.46702538762E+03  0.48346428273E+03  0.12500000000E+03 0.  0.
<mgrwt>
<rscale>  0 0.12500000E+03</rscale>
<asrwt>0</asrwt>
<pdfrwt beam="1">  1       21 0.12645304E-02 0.12500000E+03</pdfrwt>
<pdfrwt beam="2">  1       21 0.73114589E-01 0.12500000E+03</pdfrwt>
<totfact> 0.42955275E+06</totfact>
</mgrwt>
</event>
<event>
 3    1  0.1604658E-001  0.1250000E+03  0.7546771E-02  0.1235069E+00
         21   -1    0    0  502  501  0.00000000000E+00  0.00000000000E+00  0.27143200507E+03  0.27143200507E+03  0.00000000000E+00 0. -1.
         21   -1    0    0  501  502 -0.00000000000E+00 -0.00000000000E+00 -0.14391265315E+02  0.14391265315E+02  0.00000000000E+00 0. -1.
         25    1    1    2    0    0  0.00000000000E+00  0.00000000000E+00  0.25704073975E+03  0.28582327038E+03  0.12500000000E+03 0.  0.
<mgrwt>
<rscale>  0 0.12500000E+03</rscale>
<asrwt>0</asrwt>
<pdfrwt beam="1">  1       21 0.41758766E-01 0.12500000E+03</pdfrwt>
<pdfrwt beam="2">  1       21 0.22140410E-02 0.12500000E+03</pdfrwt>
<totfact> 0.56655287E+06</totfact>
</mgrwt>
</event>
<event>
 3    1  0.1604658E-001  0.1250000E+03  0.7546771E-02  0.1235069E+00
         21   -1    0    0  502  501  0.00000000000E+00  0.00000000000E+00  0.16251698088E+02  0.16251698088E+02  0.00000000000E+00 0.  1.
         21   -1    0    0  501  502 -0.00000000000E+00 -0.00000000000E+00 -0.24035949837E+03  0.24035949837E+03  0.00000000000E+00 0.  1.
         25    1    1    2    0    0  0.00000000000E+00  0.00000000000E+00 -0.22410780028E+03  0.25661119645E+03  0.12500000000E+03 0.  0.
<mgrwt>
<rscale>  0 0.12500000E+03</rscale>
<asrwt>0</asrwt>
<pdfrwt beam="1">  1       21 0.25002613E-02 0.12500000E+03</pdfrwt>
<pdfrwt beam="2">  1       21 0.36978383E-01 0.12500000E+03</pdfrwt>
<totfact> 0.59261279E+06</totfact>
</mgrwt>
</event>
<event>
 3    1  0.1604658E-001  0.1250000E+03  0.7546771E-02  0.1235069E+00
         21   -1    0    0  502  501  0.00000000000E+00  0.00000000000E+00  0.14599576097E+03  0.14599576097E+03  0.00000000000E+00 0.  1.
         21   -1    0    0  501  502 -0.00000000000E+00 -0.00000000000E+00 -0.26755913829E+02  0.26755913829E+02  0.00000000000E+00 0.  1.
         25    1    1    2    0    0  0.00000000000E+00  0.00000000000E+00  0.11923984714E+03  0.17275167480E+03  0.12500000000E+03 0.  0.
<mgrwt>
<rscale>  0 0.12500000E+03</rscale>
<asrwt>0</asrwt>
<pdfrwt beam="1">  1       21 0.22460886E-01 0.12500000E+03</pdfrwt>
<pdfrwt beam="2">  1       21 0.41162945E-02 0.12500000E+03</pdfrwt>
<totfact> 0.67992928E+06</totfact>
</mgrwt>
</event>
<event>
 3    1  0.1604658E-001  0.1250000E+03  0.7546771E-02  0.1235069E+00
         21   -1    0    0  502  501  0.00000000000E+00  0.00000000000E+00  0.59470587235E+03  0.59470587235E+03  0.00000000000E+00 0.  1.
         21   -1    0    0  501  502 -0.00000000000E+00 -0.00000000000E+00 -0.65683730086E+01  0.65683730086E+01  0.00000000000E+00 0.  1.
         25    1    1    2    0    0  0.00000000000E+00  0.00000000000E+00  0.58813749934E+03  0.60127424536E+03  0.12500000000E+03 0.  0.
<mgrwt>
<rscale>  0 0.12500000E+03</rscale>
<asrwt>0</asrwt>
<pdfrwt beam="1">  1       21 0.91493169E-01 0.12500000E+03</pdfrwt>
<pdfrwt beam="2">  1       21 0.10105194E-02 0.12500000E+03</pdfrwt>
<totfact> 0.37035080E+06</totfact>
</mgrwt>
</event>
<event>
 3    1  0.1604658E-001  0.1250000E+03  0.7546771E-02  0.1235069E+00
         21   -1    0    0  502  501  0.00000000000E+00  0.00000000000E+00  0.53081109931E+03  0.53081109931E+03  0.00000000000E+00 0.  1.
         21   -1    0    0  501  502 -0.00000000000E+00 -0.00000000000E+00 -0.73590209494E+01  0.73590209494E+01  0.00000000000E+00 0.  1.
         25    1    1    2    0    0  0.00000000000E+00  0.00000000000E+00  0.52345207836E+03  0.53817012026E+03  0.12500000000E+03 0.  0.
<mgrwt>
<rscale>  0 0.12500000E+03</rscale>
<asrwt>0</asrwt>
<pdfrwt beam="1">  1       21 0.81663216E-01 0.12500000E+03</pdfrwt>
<pdfrwt beam="2">  1       21 0.11321575E-02 0.12500000E+03</pdfrwt>
<totfact> 0.40046905E+06</totfact>
</mgrwt>
</event>
<event>
 3    1  0.1604658E-001  0.1250000E+03  0.7546771E-02  0.1235069E+00
         21   -1    0    0  502  501  0.00000000000E+00  0.00000000000E+00  0.11711177849E+02  0.11711177849E+02  0.00000000000E+00 0.  1.
         21   -1    0    0  501  502 -0.00000000000E+00 -0.00000000000E+00 -0.33354885823E+03  0.33354885823E+03  0.00000000000E+00 0.  1.
         25    1    1    2    0    0  0.00000000000E+00  0.00000000000E+00 -0.32183768038E+03  0.34526003608E+03  0.12500000000E+03 0.  0.
<mgrwt>
<rscale>  0 0.12500000E+03</rscale>
<asrwt>0</asrwt>
<pdfrwt beam="1">  1       21 0.18017200E-02 0.12500000E+03</pdfrwt>
<pdfrwt beam="2">  1       21 0.51315199E-01 0.12500000E+03</pdfrwt>
<totfact> 0.51890412E+06</totfact>
</mgrwt>
</event>
<event>
 3    1  0.1604658E-001  0.1250000E+03  0.7546771E-02  0.1235069E+00
         21   -1    0    0  502  501  0.00000000000E+00  0.00000000000E+00  0.91529594768E+01  0.91529594768E+01  0.00000000000E+00 0.  1.
         21   -1    0    0  501  502 -0.00000000000E+00 -0.00000000000E+00 -0.42677453231E+03  0.42677453231E+03  0.00000000000E+00 0.  1.
         25    1    1    2    0    0  0.00000000000E+00  0.00000000000E+00 -0.41762157284E+03  0.43592749179E+03  0.12500000000E+03 0.  0.
<mgrwt>
<rscale>  0 0.12500000E+03</rscale>
<asrwt>0</asrwt>
<pdfrwt beam="1">  1       21 0.14081477E-02 0.12500000E+03</pdfrwt>
<pdfrwt beam="2">  1       21 0.65657616E-01 0.12500000E+03</pdfrwt>
<totfact> 0.45746172E+06</totfact>
</mgrwt>
</event>
<event>
 3    1  0.1604658E-001  0.1250000E+03  0.7546771E-02  0.1235069E+00
         21   -1    0    0  502  501  0.00000000000E+00  0.00000000000E+00  0.69103724966E+03  0.69103724966E+03  0.00000000000E+00 0.  1.
         21   -1    0    0  501  502 -0.00000000000E+00 -0.00000000000E+00 -0.56527343525E+01  0.56527343525E+01  0.00000000000E+00 0.  1.
         25    1    1    2    0    0  0.00000000000E+00  0.00000000000E+00  0.68538451531E+03  0.69668998401E+03  0.12500000000E+03 0.  0.
<mgrwt>
<rscale>  0 0.12500000E+03</rscale>
<asrwt>0</asrwt>
<pdfrwt beam="1">  1       21 0.10631336E+00 0.12500000E+03</pdfrwt>
<pdfrwt beam="2">  1       21 0.86965199E-03 0.12500000E+03</pdfrwt>
<totfact> 0.33038159E+06</totfact>
</mgrwt>
</event>
<event>
 3    1  0.1604658E-001  0.1250000E+03  0.7546771E-02  0.1235069E+00
         21   -1    0    0  502  501  0.00000000000E+00  0.00000000000E+00  0.28479541865E+02  0.28479541865E+02  0.00000000000E+00 0.  1.
         21   -1    0    0  501  502 -0.00000000000E+00 -0.00000000000E+00 -0.13715986087E+03  0.13715986087E+03  0.00000000000E+00 0.  1.
         25    1    1    2    0    0  0.00000000000E+00  0.00000000000E+00 -0.10868031901E+03  0.16563940274E+03  0.12500000000E+03 0.  0.
<mgrwt>
<rscale>  0 0.12500000E+03</rscale>
<asrwt>0</asrwt>
<pdfrwt beam="1">  1       21 0.43814680E-02 0.12500000E+03</pdfrwt>
<pdfrwt beam="2">  1       21 0.21101517E-01 0.12500000E+03</pdfrwt>
<totfact> 0.68836903E+06</totfact>
</mgrwt>
</event>
<event>
 3    1  0.1604658E-001  0.1250000E+03  0.7546771E-02  0.1235069E+00
         21   -1    0    0  502  501  0.00000000000E+00  0.00000000000E+00  0.22675888958E+02  0.22675888958E+02  0.00000000000E+00 0. -1.
         21   -1    0    0  501  502 -0.00000000000E+00 -0.00000000000E+00 -0.17226447031E+03  0.17226447031E+03  0.00000000000E+00 0. -1.
         25    1    1    2    0    0  0.00000000000E+00  0.00000000000E+00 -0.14958858135E+03  0.19494035926E+03  0.12500000000E+03 0.  0.
<mgrwt>
<rscale>  0 0.12500000E+03</rscale>
<asrwt>0</asrwt>
<pdfrwt beam="1">  1       21 0.34885982E-02 0.12500000E+03</pdfrwt>
<pdfrwt beam="2">  1       21 0.26502227E-01 0.12500000E+03</pdfrwt>
<totfact> 0.65477550E+06</totfact>
</mgrwt>
</event>
<event>
 3    1  0.1604658E-001  0.1250000E+03  0.7546771E-02  0.1235069E+00
         21   -1    0    0  502  501  0.00000000000E+00  0.00000000000E+00  0.28537996138E+03  0.28537996138E+03  0.00000000000E+00 0. -1.
         21   -1    0    0  501  502 -0.00000000000E+00 -0.00000000000E+00 -0.13687891684E+02  0.13687891684E+02  0.00000000000E+00 0. -1.
         25    1    1    2    0    0  0.00000000000E+00  0.00000000000E+00  0.27169206969E+03  0.29906785306E+03  0.12500000000E+03 0.  0.
<mgrwt>
<rscale>  0 0.12500000E+03</rscale>
<asrwt>0</asrwt>
<pdfrwt beam="1">  1       21 0.43904605E-01 0.12500000E+03</pdfrwt>
<pdfrwt beam="2">  1       21 0.21058297E-02 0.12500000E+03</pdfrwt>
<totfact> 0.55533730E+06</totfact>
</mgrwt>
</event>
<event>
 3    1  0.1604658E-001  0.1250000E+03  0.7546771E-02  0.1235069E+00
         21   -1    0    0  502  501  0.00000000000E+00  0.00000000000E+00  0.33994083543E+01  0.33994083543E+01  0.00000000000E+00 0.  1.
         21   -1    0    0  501  502 -0.00000000000E+00 -0.00000000000E+00 -0.11490970171E+04  0.11490970171E+04  0.00000000000E+00 0.  1.
         25    1    1    2    0    0  0.00000000000E+00  0.00000000000E+00 -0.11456976088E+04  0.11524964255E+04  0.12500000000E+03 0.  0.
<mgrwt>
<rscale>  0 0.12500000E+03</rscale>
<asrwt>0</asrwt>
<pdfrwt beam="1">  1       21 0.52298641E-03 0.12500000E+03</pdfrwt>
<pdfrwt beam="2">  1       21 0.17678399E+00 0.12500000E+03</pdfrwt>
<totfact> 0.20116534E+06</totfact>
</mgrwt>
</event>
<event>
 3    1  0.1604658E-001  0.1250000E+03  0.7546771E-02  0.1235069E+00
         21   -1    0    0  502  501  0.00000000000E+00  0.00000000000E+00  0.11088031801E+03  0.11088031801E+03  0.00000000000E+00 0. -1.
         21   -1    0    0  501  502 -0.00000000000E+00 -0.00000000000E+00 -0.35229426377E+02  0.35229426377E+02  0.00000000000E+00 0. -1.
         25    1    1    2    0    0  0.00000000000E+00  0.00000000000E+00  0.75650891632E+02  0.14610974439E+03  0.12500000000E+03 0.  0.
<mgrwt>
<rscale>  0 0.12500000E+03</rscale>
<asrwt>0</asrwt>
<pdfrwt beam="1">  1       21 0.17058510E-01 0.12500000E+03</pdfrwt>
<pdfrwt beam="2">  1       21 0.54199118E-02 0.12500000E+03</pdfrwt>
<totfact> 0.71251380E+06</totfact>
</mgrwt>
</event>
<event>
 3    1  0.1604658E-001  0.1250000E+03  0.7546771E-02  0.1235069E+00
         21   -1    0    0  502  501  0.00000000000E+00  0.00000000000E+00  0.22221143301E+02  0.22221143301E+02  0.00000000000E+00 0. -1.
         21   -1    0    0  501  502 -0.00000000000E+00 -0.00000000000E+00 -0.17578978485E+03  0.17578978485E+03  0.00000000000E+00 0. -1.
         25    1    1    2    0    0  0.00000000000E+00  0.00000000000E+00 -0.15356864155E+03  0.19801092815E+03  0.12500000000E+03 0.  0.
<mgrwt>
<rscale>  0 0.12500000E+03</rscale>
<asrwt>0</asrwt>
<pdfrwt beam="1">  1       21 0.34186373E-02 0.12500000E+03</pdfrwt>
<pdfrwt beam="2">  1       21 0.27044583E-01 0.12500000E+03</pdfrwt>
<totfact> 0.65142982E+06</totfact>
</mgrwt>
</event>
<event>
 3    1  0.1604658E-001  0.1250000E+03  0.7546771E-02  0.1235069E+00
         21   -1    0    0  502  501  0.00000000000E+00  0.00000000000E+00  0.12640718898E+04  0.12640718898E+04  0.00000000000E+00 0. -1.
         21   -1    0    0  501  502 -0.00000000000E+00 -0.00000000000E+00 -0.30902119028E+01  0.30902119028E+01  0.00000000000E+00 0. -1.
         25    1    1    2    0    0  0.00000000000E+00  0.00000000000E+00  0.12609816779E+04  0.12671621017E+04  0.12500000000E+03 0.  0.
<mgrwt>
<rscale>  0 0.12500000E+03</rscale>
<asrwt>0</asrwt>
<pdfrwt beam="1">  1       21 0.19447219E+00 0.12500000E+03</pdfrwt>
<pdfrwt beam="2">  1       21 0.47541823E-03 0.12500000E+03</pdfrwt>
<totfact> 0.17852498E+06</totfact>
</mgrwt>
</event>
<event>
 3    1  0.1604658E-001  0.1250000E+03  0.7546771E-02  0.1235069E+00
         21   -1    0    0  502  501  0.00000000000E+00  0.00000000000E+00  0.23169537715E+02  0.23169537715E+02  0.00000000000E+00 0.  1.
         21   -1    0    0  501  502 -0.00000000000E+00 -0.00000000000E+00 -0.16859421401E+03  0.16859421401E+03  0.00000000000E+00 0.  1.
         25    1    1    2    0    0  0.00000000000E+00  0.00000000000E+00 -0.14542467630E+03  0.19176375172E+03  0.12500000000E+03 0.  0.
<mgrwt>
<rscale>  0 0.12500000E+03</rscale>
<asrwt>0</asrwt>
<pdfrwt beam="1">  1       21 0.35645444E-02 0.12500000E+03</pdfrwt>
<pdfrwt beam="2">  1       21 0.25937570E-01 0.12500000E+03</pdfrwt>
<totfact> 0.65826975E+06</totfact>
</mgrwt>
</event>
<event>
 3    1  0.1604658E-001  0.1250000E+03  0.7546771E-02  0.1235069E+00
         21   -1    0    0  502  501  0.00000000000E+00  0.00000000000E+00  0.12661844659E+03  0.12661844659E+03  0.00000000000E+00 0. -1.
         21   -1    0    0  501  502 -0.00000000000E+00 -0.00000000000E+00 -0.30850560130E+02  0.30850560130E+02  0.00000000000E+00 0. -1.
         25    1    1    2    0    0  0.00000000000E+00  0.00000000000E+00  0.95767886457E+02  0.15746900672E+03  0.12500000000E+03 0.  0.
<mgrwt>
<rscale>  0 0.12500000E+03</rscale>
<asrwt>0</asrwt>
<pdfrwt beam="1">  1       21 0.19479761E-01 0.12500000E+03</pdfrwt>
<pdfrwt beam="2">  1       21 0.47462401E-02 0.12500000E+03</pdfrwt>
<totfact> 0.69830086E+06</totfact>
</mgrwt>
</event>
<event>
 3    1  0.1604658E-001  0.1250000E+03  0.7546771E-02  0.1235069E+00
         21   -1    0    0  502  501  0.00000000000E+00  0.00000000000E+00  0.44050283077E+02  0.44050283077E+02  0.00000000000E+00 0. -1.
         21   -1    0    0  501  502 -0.00000000000E+00 -0.00000000000E+00 -0.88677069184E+02  0.88677069184E+02  0.00000000000E+00 0. -1.
         25    1    1    2    0    0  0.00000000000E+00  0.00000000000E+00 -0.44626786108E+02  0.13272735226E+03  0.12500000000E+03 0.  0.
<mgrwt>
<rscale>  0 0.12500000E+03</rscale>
<asrwt>0</asrwt>
<pdfrwt beam="1">  1       21 0.67769667E-02 0.12500000E+03</pdfrwt>
<pdfrwt beam="2">  1       21 0.13642626E-01 0.12500000E+03</pdfrwt>
<totfact> 0.72998828E+06</totfact>
</mgrwt>
</event>
<event>
 3    1  0.1604658E-001  0.1250000E+03  0.7546771E-02  0.1235069E+00
         21   -1    0    0  502  501  0.00000000000E+00  0.00000000000E+00  0.25924648357E+02  0.25924648357E+02  0.00000000000E+00 0.  1.
         21   -1    0    0  501  502 -0.00000000000E+00 -0.00000000000E+00 -0.15067706787E+03  0.15067706787E+03  0.00000000000E+00 0.  1.
         25    1    1    2    0    0  0.00000000000E+00  0.00000000000E+00 -0.12475241951E+03  0.17660171623E+03  0.12500000000E+03 0.  0.
<mgrwt>
<rscale>  0 0.12500000E+03</rscale>
<asrwt>0</asrwt>
<pdfrwt beam="1">  1       21 0.39884075E-02 0.12500000E+03</pdfrwt>
<pdfrwt beam="2">  1       21 0.23181087E-01 0.12500000E+03</pdfrwt>
<totfact> 0.67543531E+06</totfact>
</mgrwt>
</event>
<event>
 3    1  0.1604658E-001  0.1250000E+03  0.7546771E-02  0.1235069E+00
         21   -1    0    0  502  501  0.00000000000E+00  0.00000000000E+00  0.45652882838E+01  0.45652882838E+01  0.00000000000E+00 0.  1.
         21   -1    0    0  501  502 -0.00000000000E+00 -0.00000000000E+00 -0.85564147479E+03  0.85564147479E+03  0.00000000000E+00 0.  1.
         25    1    1    2    0    0  0.00000000000E+00  0.00000000000E+00 -0.85107618650E+03  0.86020676307E+03  0.12500000000E+03 0.  0.
<mgrwt>
<rscale>  0 0.12500000E+03</rscale>
<asrwt>0</asrwt>
<pdfrwt beam="1">  1       21 0.70235195E-03 0.12500000E+03</pdfrwt>
<pdfrwt beam="2">  1       21 0.13163717E+00 0.12500000E+03</pdfrwt>
<totfact> 0.27462430E+06</totfact>
</mgrwt>
</event>
<event>
 3    1  0.1604658E-001  0.1250000E+03  0.7546771E-02  0.1235069E+00
         21   -1    0    0  502  501  0.00000000000E+00  0.00000000000E+00  0.42183179973E+02  0.42183179973E+02  0.00000000000E+00 0.  1.
         21   -1    0    0  501  502 -0.00000000000E+00 -0.00000000000E+00 -0.92602075103E+02  0.92602075103E+02  0.00000000000E+00 0.  1.
         25    1    1    2    0    0  0.00000000000E+00  0.00000000000E+00 -0.50418895130E+02  0.13478525508E+03  0.12500000000E+03 0.  0.
<mgrwt>
<rscale>  0 0.12500000E+03</rscale>
<asrwt>0</asrwt>
<pdfrwt beam="1">  1       21 0.64897200E-02 0.12500000E+03</pdfrwt>
<pdfrwt beam="2">  1       21 0.14246473E-01 0.12500000E+03</pdfrwt>
<totfact> 0.72724918E+06</totfact>
</mgrwt>
</event>
<event>
 3    1  0.1604658E-001  0.1250000E+03  0.7546771E-02  0.1235069E+00
         21   -1    0    0  502  501  0.00000000000E+00  0.00000000000E+00  0.28781018905E+02  0.28781018905E+02  0.00000000000E+00 0. -1.
         21   -1    0    0  501  502 -0.00000000000E+00 -0.00000000000E+00 -0.13572313103E+03  0.13572313103E+03  0.00000000000E+00 0. -1.
         25    1    1    2    0    0  0.00000000000E+00  0.00000000000E+00 -0.10694211212E+03  0.16450414993E+03  0.12500000000E+03 0.  0.
<mgrwt>
<rscale>  0 0.12500000E+03</rscale>
<asrwt>0</asrwt>
<pdfrwt beam="1">  1       21 0.44278490E-02 0.12500000E+03</pdfrwt>
<pdfrwt beam="2">  1       21 0.20880482E-01 0.12500000E+03</pdfrwt>
<totfact> 0.68973283E+06</totfact>
</mgrwt>
</event>
<event>
 3    1  0.1604658E-001  0.1250000E+03  0.7546771E-02  0.1235069E+00
         21   -1    0    0  502  501  0.00000000000E+00  0.00000000000E+00  0.38029236839E+02  0.38029236839E+02  0.00000000000E+00 0.  1.
         21   -1    0    0  501  502 -0.00000000000E+00 -0.00000000000E+00 -0.10271702313E+03  0.10271702313E+03  0.00000000000E+00 0.  1.
         25    1    1    2    0    0  0.00000000000E+00  0.00000000000E+00 -0.64687786290E+02  0.14074625997E+03  0.12500000000E+03 0.  0.
<mgrwt>
<rscale>  0 0.12500000E+03</rscale>
<asrwt>0</asrwt>
<pdfrwt beam="1">  1       21 0.58506519E-02 0.12500000E+03</pdfrwt>
<pdfrwt beam="2">  1       21 0.15802619E-01 0.12500000E+03</pdfrwt>
<totfact> 0.71942035E+06</totfact>
</mgrwt>
</event>
<event>
 3    1  0.1604658E-001  0.1250000E+03  0.7546771E-02  0.1235069E+00
         21   -1    0    0  502  501  0.00000000000E+00  0.00000000000E+00  0.86401379643E+03  0.86401379643E+03  0.00000000000E+00 0. -1.
         21   -1    0    0  501  502 -0.00000000000E+00 -0.00000000000E+00 -0.45210504926E+01  0.45210504926E+01  0.00000000000E+00 0. -1.
         25    1    1    2    0    0  0.00000000000E+00  0.00000000000E+00  0.85949274594E+03  0.86853484693E+03  0.12500000000E+03 0.  0.
<mgrwt>
<rscale>  0 0.12500000E+03</rscale>
<asrwt>0</asrwt>
<pdfrwt beam="1">  1       21 0.13292507E+00 0.12500000E+03</pdfrwt>
<pdfrwt beam="2">  1       21 0.69554691E-03 0.12500000E+03</pdfrwt>
<totfact> 0.27213771E+06</totfact>
</mgrwt>
</event>
<event>
 3    1  0.1604658E-001  0.1250000E+03  0.7546771E-02  0.1235069E+00
         21   -1    0    0  502  501  0.00000000000E+00  0.00000000000E+00  0.12075469828E+02  0.12075469828E+02  0.00000000000E+00 0.  1.
         21   -1    0    0  501  502 -0.00000000000E+00 -0.00000000000E+00 -0.32348637823E+03  0.32348637823E+03  0.00000000000E+00 0.  1.
         25    1    1    2    0    0  0.00000000000E+00  0.00000000000E+00 -0.31141090840E+03  0.33556184805E+03  0.12500000000E+03 0.  0.
<mgrwt>
<rscale>  0 0.12500000E+03</rscale>
<asrwt>0</asrwt>
<pdfrwt beam="1">  1       21 0.18577649E-02 0.12500000E+03</pdfrwt>
<pdfrwt beam="2">  1       21 0.49767126E-01 0.12500000E+03</pdfrwt>
<totfact> 0.52622739E+06</totfact>
</mgrwt>
</event>
<event>
 3    1  0.1604658E-001  0.1250000E+03  0.7546771E-02  0.1235069E+00
         21   -1    0    0  502  501  0.00000000000E+00  0.00000000000E+00  0.20053523659E+02  0.20053523659E+02  0.00000000000E+00 0.  1.
         21   -1    0    0  501  502 -0.00000000000E+00 -0.00000000000E+00 -0.19479120310E+03  0.19479120310E+03  0.00000000000E+00 0.  1.
         25    1    1    2    0    0  0.00000000000E+00  0.00000000000E+00 -0.17473767944E+03  0.21484472676E+03  0.12500000000E+03 0.  0.
<mgrwt>
<rscale>  0 0.12500000E+03</rscale>
<asrwt>0</asrwt>
<pdfrwt beam="1">  1       21 0.30851574E-02 0.12500000E+03</pdfrwt>
<pdfrwt beam="2">  1       21 0.29967878E-01 0.12500000E+03</pdfrwt>
<totfact> 0.63353392E+06</totfact>
</mgrwt>
</event>
<event>
 3    1  0.1604658E-001  0.1250000E+03  0.7546771E-02  0.1235069E+00
         21   -1    0    0  502  501  0.00000000000E+00  0.00000000000E+00  0.42577798606E+03  0.42577798606E+03  0.00000000000E+00 0. -1.
         21   -1    0    0  501  502 -0.00000000000E+00 -0.00000000000E+00 -0.91743822554E+01  0.91743822554E+01  0.00000000000E+00 0. -1.
         25    1    1    2    0    0  0.00000000000E+00  0.00000000000E+00  0.41660360380E+03  0.43495236831E+03  0.12500000000E+03 0.  0.
<mgrwt>
<rscale>  0 0.12500000E+03</rscale>
<asrwt>0</asrwt>
<pdfrwt beam="1">  1       21 0.65504290E-01 0.12500000E+03</pdfrwt>
<pdfrwt beam="2">  1       21 0.14114438E-02 0.12500000E+03</pdfrwt>
<totfact> 0.45806237E+06</totfact>
</mgrwt>
</event>
<event>
 3    1  0.1604658E-001  0.1250000E+03  0.7546771E-02  0.1235069E+00
         21   -1    0    0  502  501  0.00000000000E+00  0.00000000000E+00  0.22022901309E+03  0.22022901309E+03  0.00000000000E+00 0. -1.
         21   -1    0    0  501  502 -0.00000000000E+00 -0.00000000000E+00 -0.17737217931E+02  0.17737217931E+02  0.00000000000E+00 0. -1.
         25    1    1    2    0    0  0.00000000000E+00  0.00000000000E+00  0.20249179516E+03  0.23796623102E+03  0.12500000000E+03 0.  0.
<mgrwt>
<rscale>  0 0.12500000E+03</rscale>
<asrwt>0</asrwt>
<pdfrwt beam="1">  1       21 0.33881385E-01 0.12500000E+03</pdfrwt>
<pdfrwt beam="2">  1       21 0.27288029E-02 0.12500000E+03</pdfrwt>
<totfact> 0.61030024E+06</totfact>
</mgrwt>
</event>
<event>
 3    1  0.1604658E-001  0.1250000E+03  0.7546771E-02  0.1235069E+00
         21   -1    0    0  502  501  0.00000000000E+00  0.00000000000E+00  0.14102156644E+03  0.14102156644E+03  0.00000000000E+00 0. -1.
         21   -1    0    0  501  502 -0.00000000000E+00 -0.00000000000E+00 -0.27699663950E+02  0.27699663950E+02  0.00000000000E+00 0. -1.
         25    1    1    2    0    0  0.00000000000E+00  0.00000000000E+00  0.11332190249E+03  0.16872123039E+03  0.12500000000E+03 0.  0.
<mgrwt>
<rscale>  0 0.12500000E+03</rscale>
<asrwt>0</asrwt>
<pdfrwt beam="1">  1       21 0.21695625E-01 0.12500000E+03</pdfrwt>
<pdfrwt beam="2">  1       21 0.42614868E-02 0.12500000E+03</pdfrwt>
<totfact> 0.68469246E+06</totfact>
</mgrwt>
</event>
<event>
 3    1  0.1604658E-001  0.1250000E+03  0.7546771E-02  0.1235069E+00
         21   -1    0    0  502  501  0.00000000000E+00  0.00000000000E+00  0.32766498394E+01  0.32766498394E+01  0.00000000000E+00 0. -1.
         21   -1    0    0  501  502 -0.00000000000E+00 -0.00000000000E+00 -0.11921475261E+04  0.11921475261E+04  0.00000000000E+00 0. -1.
         25    1    1    2    0    0  0.00000000000E+00  0.00000000000E+00 -0.11888708763E+04  0.11954241760E+04  0.12500000000E+03 0.  0.
<mgrwt>
<rscale>  0 0.12500000E+03</rscale>
<asrwt>0</asrwt>
<pdfrwt beam="1">  1       21 0.50409966E-03 0.12500000E+03</pdfrwt>
<pdfrwt beam="2">  1       21 0.18340743E+00 0.12500000E+03</pdfrwt>
<totfact> 0.19234777E+06</totfact>
</mgrwt>
</event>
<event>
 3    1  0.1604658E-001  0.1250000E+03  0.7546771E-02  0.1235069E+00
         21   -1    0    0  502  501  0.00000000000E+00  0.00000000000E+00  0.16728031527E+02  0.16728031527E+02  0.00000000000E+00 0. -1.
         21   -1    0    0  501  502 -0.00000000000E+00 -0.00000000000E+00 -0.23351522227E+03  0.23351522227E+03  0.00000000000E+00 0. -1.
         25    1    1    2    0    0  0.00000000000E+00  0.00000000000E+00 -0.21678719074E+03  0.25024325379E+03  0.12500000000E+03 0.  0.
<mgrwt>
<rscale>  0 0.12500000E+03</rscale>
<asrwt>0</asrwt>
<pdfrwt beam="1">  1       21 0.25735434E-02 0.12500000E+03</pdfrwt>
<pdfrwt beam="2">  1       21 0.35925417E-01 0.12500000E+03</pdfrwt>
<totfact> 0.59855295E+06</totfact>
</mgrwt>
</event>
<event>
 3    1  0.1604658E-001  0.1250000E+03  0.7546771E-02  0.1235069E+00
         21   -1    0    0  502  501  0.00000000000E+00  0.00000000000E+00  0.26304433967E+02  0.26304433967E+02  0.00000000000E+00 0. -1.
         21   -1    0    0  501  502 -0.00000000000E+00 -0.00000000000E+00 -0.14850157980E+03  0.14850157980E+03  0.00000000000E+00 0. -1.
         25    1    1    2    0    0  0.00000000000E+00  0.00000000000E+00 -0.12219714584E+03  0.17480601377E+03  0.12500000000E+03 0.  0.
<mgrwt>
<rscale>  0 0.12500000E+03</rscale>
<asrwt>0</asrwt>
<pdfrwt beam="1">  1       21 0.40468361E-02 0.12500000E+03</pdfrwt>
<pdfrwt beam="2">  1       21 0.22846396E-01 0.12500000E+03</pdfrwt>
<totfact> 0.67752428E+06</totfact>
</mgrwt>
</event>
<event>
 3    1  0.1604658E-001  0.1250000E+03  0.7546771E-02  0.1235069E+00
         21   -1    0    0  502  501  0.00000000000E+00  0.00000000000E+00  0.52837259349E+01  0.52837259349E+01  0.00000000000E+00 0.  1.
         21   -1    0    0  501  502 -0.00000000000E+00 -0.00000000000E+00 -0.73929837545E+03  0.73929837545E+03  0.00000000000E+00 0.  1.
         25    1    1    2    0    0  0.00000000000E+00  0.00000000000E+00 -0.73401464951E+03  0.74458210138E+03  0.12500000000E+03 0.  0.
<mgrwt>
<rscale>  0 0.12500000E+03</rscale>
<asrwt>0</asrwt>
<pdfrwt beam="1">  1       21 0.81288118E-03 0.12500000E+03</pdfrwt>
<pdfrwt beam="2">  1       21 0.11373817E+00 0.12500000E+03</pdfrwt>
<totfact> 0.31260346E+06</totfact>
</mgrwt>
</event>
<event>
 3    1  0.1604658E-001  0.1250000E+03  0.7546771E-02  0.1235069E+00
         21   -1    0    0  502  501  0.00000000000E+00  0.00000000000E+00  0.33943094573E+01  0.33943094573E+01  0.00000000000E+00 0.  1.
         21   -1    0    0  501  502 -0.00000000000E+00 -0.00000000000E+00 -0.11508231790E+04  0.11508231790E+04  0.00000000000E+00 0.  1.
         25    1    1    2    0    0  0.00000000000E+00  0.00000000000E+00 -0.11474288695E+04  0.11542174884E+04  0.12500000000E+03 0.  0.
<mgrwt>
<rscale>  0 0.12500000E+03</rscale>
<asrwt>0</asrwt>
<pdfrwt beam="1">  1       21 0.52220179E-03 0.12500000E+03</pdfrwt>
<pdfrwt beam="2">  1       21 0.17704961E+00 0.12500000E+03</pdfrwt>
<totfact> 0.20080324E+06</totfact>
</mgrwt>
</event>
<event>
 3    1  0.1604658E-001  0.1250000E+03  0.7546771E-02  0.1235069E+00
         21   -1    0    0  502  501  0.00000000000E+00  0.00000000000E+00  0.70800863743E+01  0.70800863743E+01  0.00000000000E+00 0. -1.
         21   -1    0    0  501  502 -0.00000000000E+00 -0.00000000000E+00 -0.55172349509E+03  0.55172349509E+03  0.00000000000E+00 0. -1.
         25    1    1    2    0    0  0.00000000000E+00  0.00000000000E+00 -0.54464340872E+03  0.55880358147E+03  0.12500000000E+03 0.  0.
<mgrwt>
<rscale>  0 0.12500000E+03</rscale>
<asrwt>0</asrwt>
<pdfrwt beam="1">  1       21 0.10892442E-02 0.12500000E+03</pdfrwt>
<pdfrwt beam="2">  1       21 0.84880528E-01 0.12500000E+03</pdfrwt>
<totfact> 0.39024531E+06</totfact>
</mgrwt>
</event>
<event>
 3    1  0.1604658E-001  0.1250000E+03  0.7546771E-02  0.1235069E+00
         21   -1    0    0  502  501  0.00000000000E+00  0.00000000000E+00  0.11787706228E+02  0.11787706228E+02  0.00000000000E+00 0. -1.
         21   -1    0    0  501  502 -0.00000000000E+00 -0.00000000000E+00 -0.33138338574E+03  0.33138338574E+03  0.00000000000E+00 0. -1.
         25    1    1    2    0    0  0.00000000000E+00  0.00000000000E+00 -0.31959567951E+03  0.34317109197E+03  0.12500000000E+03 0.  0.
<mgrwt>
<rscale>  0 0.12500000E+03</rscale>
<asrwt>0</asrwt>
<pdfrwt beam="1">  1       21 0.18134933E-02 0.12500000E+03</pdfrwt>
<pdfrwt beam="2">  1       21 0.50982057E-01 0.12500000E+03</pdfrwt>
<totfact> 0.52046755E+06</totfact>
</mgrwt>
</event>
<event>
 3    1  0.1604658E-001  0.1250000E+03  0.7546771E-02  0.1235069E+00
         21   -1    0    0  502  501  0.00000000000E+00  0.00000000000E+00  0.64612299593E+01  0.64612299593E+01  0.00000000000E+00 0.  1.
         21   -1    0    0  501  502 -0.00000000000E+00 -0.00000000000E+00 -0.60456755519E+03  0.60456755519E+03  0.00000000000E+00 0.  1.
         25    1    1    2    0    0  0.00000000000E+00  0.00000000000E+00 -0.59810632523E+03  0.61102878515E+03  0.12500000000E+03 0.  0.
<mgrwt>
<rscale>  0 0.12500000E+03</rscale>
<asrwt>0</asrwt>
<pdfrwt beam="1">  1       21 0.99403529E-03 0.12500000E+03</pdfrwt>
<pdfrwt beam="2">  1       21 0.93010402E-01 0.12500000E+03</pdfrwt>
<totfact> 0.36598568E+06</totfact>
</mgrwt>
</event>
<event>
 3    1  0.1604658E-001  0.1250000E+03  0.7546771E-02  0.1235069E+00
         21   -1    0    0  502  501  0.00000000000E+00  0.00000000000E+00  0.92640678971E+02  0.92640678971E+02  0.00000000000E+00 0. -1.
         21   -1    0    0  501  502 -0.00000000000E+00 -0.00000000000E+00 -0.42165602016E+02  0.42165602016E+02  0.00000000000E+00 0. -1.
         25    1    1    2    0    0  0.00000000000E+00  0.00000000000E+00  0.50475076954E+02  0.13480628099E+03  0.12500000000E+03 0.  0.
<mgrwt>
<rscale>  0 0.12500000E+03</rscale>
<asrwt>0</asrwt>
<pdfrwt beam="1">  1       21 0.14252412E-01 0.12500000E+03</pdfrwt>
<pdfrwt beam="2">  1       21 0.64870157E-02 0.12500000E+03</pdfrwt>
<totfact> 0.72722132E+06</totfact>
</mgrwt>
</event>
<event>
 3    1  0.1604658E-001  0.1250000E+03  0.7546771E-02  0.1235069E+00
         21   -1    0    0  502  501  0.00000000000E+00  0.00000000000E+00  0.82516921501E+01  0.82516921501E+01  0.00000000000E+00 0.  1.
         21   -1    0    0  501  502 -0.00000000000E+00 -0.00000000000E+00 -0.47338775235E+03  0.47338775235E+03  0.00000000000E+00 0.  1.
         25    1    1    2    0    0  0.00000000000E+00  0.00000000000E+00 -0.46513606020E+03  0.48163944450E+03  0.12500000000E+03 0.  0.
<mgrwt>
<rscale>  0 0.12500000E+03</rscale>
<asrwt>0</asrwt>
<pdfrwt beam="1">  1       21 0.12694915E-02 0.12500000E+03</pdfrwt>
<pdfrwt beam="2">  1       21 0.72828863E-01 0.12500000E+03</pdfrwt>
<totfact> 0.43057642E+06</totfact>
</mgrwt>
</event>
<event>
 3    1  0.1604658E-001  0.1250000E+03  0.7546771E-02  0.1235069E+00
         21   -1    0    0  502  501  0.00000000000E+00  0.00000000000E+00  0.36449376399E+03  0.36449376399E+03  0.00000000000E+00 0. -1.
         21   -1    0    0  501  502 -0.00000000000E+00 -0.00000000000E+00 -0.10716918603E+02  0.10716918603E+02  0.00000000000E+00 0. -1.
         25    1    1    2    0    0  0.00000000000E+00  0.00000000000E+00  0.35377684538E+03  0.37521068259E+03  0.12500000000E+03 0.  0.
<mgrwt>
<rscale>  0 0.12500000E+03</rscale>
<asrwt>0</asrwt>
<pdfrwt beam="1">  1       21 0.56075954E-01 0.12500000E+03</pdfrwt>
<pdfrwt beam="2">  1       21 0.16487570E-02 0.12500000E+03</pdfrwt>
<totfact> 0.49728766E+06</totfact>
</mgrwt>
</event>
<event>
 3    1  0.1604658E-001  0.1250000E+03  0.7546771E-02  0.1235069E+00
         21   -1    0    0  502  501  0.00000000000E+00  0.00000000000E+00  0.90154550510E+02  0.90154550510E+02  0.00000000000E+00 0.  1.
         21   -1    0    0  501  502 -0.00000000000E+00 -0.00000000000E+00 -0.43328373087E+02  0.43328373087E+02  0.00000000000E+00 0.  1.
         25    1    1    2    0    0  0.00000000000E+00  0.00000000000E+00  0.46826177423E+02  0.13348292360E+03  0.12500000000E+03 0.  0.
<mgrwt>
<rscale>  0 0.12500000E+03</rscale>
<asrwt>0</asrwt>
<pdfrwt beam="1">  1       21 0.13869931E-01 0.12500000E+03</pdfrwt>
<pdfrwt beam="2">  1       21 0.66659035E-02 0.12500000E+03</pdfrwt>
<totfact> 0.72897979E+06</totfact>
</mgrwt>
</event>
<event>
 3    1  0.1604658E-001  0.1250000E+03  0.7546771E-02  0.1235069E+00
         21   -1    0    0  502  501  0.00000000000E+00  0.00000000000E+00  0.16616131487E+03  0.16616131487E+03  0.00000000000E+00 0.  1.
         21   -1    0    0  501  502 -0.00000000000E+00 -0.00000000000E+00 -0.23508781229E+02  0.23508781229E+02  0.00000000000E+00 0.  1.
         25    1    1    2    0    0  0.00000000000E+00  0.00000000000E+00  0.14265253364E+03  0.18967009610E+03  0.12500000000E+03 0.  0.
<mgrwt>
<rscale>  0 0.12500000E+03</rscale>
<asrwt>0</asrwt>
<pdfrwt beam="1">  1       21 0.25563279E-01 0.12500000E+03</pdfrwt>
<pdfrwt beam="2">  1       21 0.36167357E-02 0.12500000E+03</pdfrwt>
<totfact> 0.66059149E+06</totfact>
</mgrwt>
</event>
<event>
 3    1  0.1604658E-001  0.1250000E+03  0.7546771E-02  0.1235069E+00
         21   -1    0    0  502  501  0.00000000000E+00  0.00000000000E+00  0.13579862724E+02  0.13579862724E+02  0.00000000000E+00 0. -1.
         21   -1    0    0  501  502 -0.00000000000E+00 -0.00000000000E+00 -0.28765018317E+03  0.28765018317E+03  0.00000000000E+00 0. -1.
         25    1    1    2    0    0  0.00000000000E+00  0.00000000000E+00 -0.27407032044E+03  0.30123004589E+03  0.12500000000E+03 0.  0.
<mgrwt>
<rscale>  0 0.12500000E+03</rscale>
<asrwt>0</asrwt>
<pdfrwt beam="1">  1       21 0.20892097E-02 0.12500000E+03</pdfrwt>
<pdfrwt beam="2">  1       21 0.44253874E-01 0.12500000E+03</pdfrwt>
<totfact> 0.55354107E+06</totfact>
</mgrwt>
</event>
<event>
 3    1  0.1604658E-001  0.1250000E+03  0.7546771E-02  0.1235069E+00
         21   -1    0    0  502  501  0.00000000000E+00  0.00000000000E+00  0.78856472152E+02  0.78856472152E+02  0.00000000000E+00 0.  1.
         21   -1    0    0  501  502 -0.00000000000E+00 -0.00000000000E+00 -0.49536200306E+02  0.49536200306E+02  0.00000000000E+00 0.  1.
         25    1    1    2    0    0  0.00000000000E+00  0.00000000000E+00  0.29320271846E+02  0.12839267246E+03  0.12500000000E+03 0.  0.
<mgrwt>
<rscale>  0 0.12500000E+03</rscale>
<asrwt>0</asrwt>
<pdfrwt beam="1">  1       21 0.12131765E-01 0.12500000E+03</pdfrwt>
<pdfrwt beam="2">  1       21 0.76209539E-02 0.12500000E+03</pdfrwt>
<totfact> 0.73580580E+06</totfact>
</mgrwt>
</event>
<event>
 3    1  0.1604658E-001  0.1250000E+03  0.7546771E-02  0.1235069E+00
         21   -1    0    0  502  501  0.00000000000E+00  0.00000000000E+00  0.18793063138E+03  0.18793063138E+03  0.00000000000E+00 0. -1.
         21   -1    0    0  501  502 -0.00000000000E+00 -0.00000000000E+00 -0.20785595043E+02  0.20785595043E+02  0.00000000000E+00 0. -1.
         25    1    1    2    0    0  0.00000000000E+00  0.00000000000E+00  0.16714503634E+03  0.20871622642E+03  0.12500000000E+03 0.  0.
<mgrwt>
<rscale>  0 0.12500000E+03</rscale>
<asrwt>0</asrwt>
<pdfrwt beam="1">  1       21 0.28912404E-01 0.12500000E+03</pdfrwt>
<pdfrwt beam="2">  1       21 0.31977840E-02 0.12500000E+03</pdfrwt>
<totfact> 0.63994857E+06</totfact>
</mgrwt>
</event>
<event>
 3    1  0.1604658E-001  0.1250000E+03  0.7546771E-02  0.1235069E+00
         21   -1    0    0  502  501  0.00000000000E+00  0.00000000000E+00  0.27494777827E+03  0.27494777827E+03  0.00000000000E+00 0. -1.
         21   -1    0    0  501  502 -0.00000000000E+00 -0.00000000000E+00 -0.14207243370E+02  0.14207243370E+02  0.00000000000E+00 0. -1.
         25    1    1    2    0    0  0.00000000000E+00  0.00000000000E+00  0.26074053490E+03  0.28915502164E+03  0.12500000000E+03 0.  0.
<mgrwt>
<rscale>  0 0.12500000E+03</rscale>
<asrwt>0</asrwt>
<pdfrwt beam="1">  1       21 0.42299654E-01 0.12500000E+03</pdfrwt>
<pdfrwt beam="2">  1       21 0.21857299E-02 0.12500000E+03</pdfrwt>
<totfact> 0.56369652E+06</totfact>
</mgrwt>
</event>
<event>
 3    1  0.1604658E-001  0.1250000E+03  0.7546771E-02  0.1235069E+00
         21   -1    0    0  502  501  0.00000000000E+00  0.00000000000E+00  0.31179207411E+03  0.31179207411E+03  0.00000000000E+00 0.  1.
         21   -1    0    0  501  502 -0.00000000000E+00 -0.00000000000E+00 -0.12528381329E+02  0.12528381329E+02  0.00000000000E+00 0.  1.
         25    1    1    2    0    0  0.00000000000E+00  0.00000000000E+00  0.29926369279E+03  0.32432045544E+03  0.12500000000E+03 0.  0.
<mgrwt>
<rscale>  0 0.12500000E+03</rscale>
<asrwt>0</asrwt>
<pdfrwt beam="1">  1       21 0.47968006E-01 0.12500000E+03</pdfrwt>
<pdfrwt beam="2">  1       21 0.19274435E-02 0.12500000E+03</pdfrwt>
<totfact> 0.53492737E+06</totfact>
</mgrwt>
</event>
<event>
 3    1  0.1604658E-001  0.1250000E+03  0.7546771E-02  0.1235069E+00
         21   -1    0    0  502  501  0.00000000000E+00  0.00000000000E+00  0.44983567507E+01  0.44983567507E+01  0.00000000000E+00 0. -1.
         21   -1    0    0  501  502 -0.00000000000E+00 -0.00000000000E+00 -0.86837265618E+03  0.86837265618E+03  0.00000000000E+00 0. -1.
         25    1    1    2    0    0  0.00000000000E+00  0.00000000000E+00 -0.86387429942E+03  0.87287101293E+03  0.12500000000E+03 0.  0.
<mgrwt>
<rscale>  0 0.12500000E+03</rscale>
<asrwt>0</asrwt>
<pdfrwt beam="1">  1       21 0.69205480E-03 0.12500000E+03</pdfrwt>
<pdfrwt beam="2">  1       21 0.13359581E+00 0.12500000E+03</pdfrwt>
<totfact> 0.27085532E+06</totfact>
</mgrwt>
</event>
<event>
 3    1  0.1604658E-001  0.1250000E+03  0.7546771E-02  0.1235069E+00
         21   -1    0    0  502  501  0.00000000000E+00  0.00000000000E+00  0.43174752206E+03  0.43174752206E+03  0.00000000000E+00 0. -1.
         21   -1    0    0  501  502 -0.00000000000E+00 -0.00000000000E+00 -0.90475331077E+01  0.90475331077E+01  0.00000000000E+00 0. -1.
         25    1    1    2    0    0  0.00000000000E+00  0.00000000000E+00  0.42269998895E+03  0.44079505517E+03  0.12500000000E+03 0.  0.
<mgrwt>
<rscale>  0 0.12500000E+03</rscale>
<asrwt>0</asrwt>
<pdfrwt beam="1">  1       21 0.66422680E-01 0.12500000E+03</pdfrwt>
<pdfrwt beam="2">  1       21 0.13919285E-02 0.12500000E+03</pdfrwt>
<totfact> 0.45448155E+06</totfact>
</mgrwt>
</event>
<event>
 3    1  0.1604658E-001  0.1250000E+03  0.7546771E-02  0.1235069E+00
         21   -1    0    0  502  501  0.00000000000E+00  0.00000000000E+00  0.10623423017E+01  0.10623423017E+01  0.00000000000E+00 0.  1.
         21   -1    0    0  501  502 -0.00000000000E+00 -0.00000000000E+00 -0.36770163382E+04  0.36770163382E+04  0.00000000000E+00 0.  1.
         25    1    1    2    0    0  0.00000000000E+00  0.00000000000E+00 -0.36759539959E+04  0.36780786805E+04  0.12500000000E+03 0.  0.
<mgrwt>
<rscale>  0 0.12500000E+03</rscale>
<asrwt>0</asrwt>
<pdfrwt beam="1">  1       21 0.16343299E-03 0.12500000E+03</pdfrwt>
<pdfrwt beam="2">  1       21 0.56570966E+00 0.12500000E+03</pdfrwt>
<totfact> 0.42814119E+04</totfact>
</mgrwt>
</event>
<event>
 3    1  0.1604658E-001  0.1250000E+03  0.7546771E-02  0.1235069E+00
         21   -1    0    0  502  501  0.00000000000E+00  0.00000000000E+00  0.20824882877E+04  0.20824882877E+04  0.00000000000E+00 0. -1.
         21   -1    0    0  501  502 -0.00000000000E+00 -0.00000000000E+00 -0.18757608496E+01  0.18757608496E+01  0.00000000000E+00 0. -1.
         25    1    1    2    0    0  0.00000000000E+00  0.00000000000E+00  0.20806125269E+04  0.20843640486E+04  0.12500000000E+03 0.  0.
<mgrwt>
<rscale>  0 0.12500000E+03</rscale>
<asrwt>0</asrwt>
<pdfrwt beam="1">  1       21 0.32038096E+00 0.12500000E+03</pdfrwt>
<pdfrwt beam="2">  1       21 0.28858026E-03 0.12500000E+03</pdfrwt>
<totfact> 0.71545368E+05</totfact>
</mgrwt>
</event>
<event>
 3    1  0.1604658E-001  0.1250000E+03  0.7546771E-02  0.1235069E+00
         21   -1    0    0  502  501  0.00000000000E+00  0.00000000000E+00  0.78591107479E+02  0.78591107479E+02  0.00000000000E+00 0.  1.
         21   -1    0    0  501  502 -0.00000000000E+00 -0.00000000000E+00 -0.49703460421E+02  0.49703460421E+02  0.00000000000E+00 0.  1.
         25    1    1    2    0    0  0.00000000000E+00  0.00000000000E+00  0.28887647058E+02  0.12829456790E+03  0.12500000000E+03 0.  0.
<mgrwt>
<rscale>  0 0.12500000E+03</rscale>
<asrwt>0</asrwt>
<pdfrwt beam="1">  1       21 0.12090940E-01 0.12500000E+03</pdfrwt>
<pdfrwt beam="2">  1       21 0.76466862E-02 0.12500000E+03</pdfrwt>
<totfact> 0.73593805E+06</totfact>
</mgrwt>
</event>
<event>
 3    1  0.1604658E-001  0.1250000E+03  0.7546771E-02  0.1235069E+00
         21   -1    0    0  502  501  0.00000000000E+00  0.00000000000E+00  0.29327011301E+02  0.29327011301E+02  0.00000000000E+00 0. -1.
         21   -1    0    0  501  502 -0.00000000000E+00 -0.00000000000E+00 -0.13319632062E+03  0.13319632062E+03  0.00000000000E+00 0. -1.
         25    1    1    2    0    0  0.00000000000E+00  0.00000000000E+00 -0.10386930932E+03  0.16252333192E+03  0.12500000000E+03 0.  0.
<mgrwt>
<rscale>  0 0.12500000E+03</rscale>
<asrwt>0</asrwt>
<pdfrwt beam="1">  1       21 0.45118479E-02 0.12500000E+03</pdfrwt>
<pdfrwt beam="2">  1       21 0.20491742E-01 0.12500000E+03</pdfrwt>
<totfact> 0.69212479E+06</totfact>
</mgrwt>
</event>
<event>
 3    1  0.1604658E-001  0.1250000E+03  0.7546771E-02  0.1235069E+00
         21   -1    0    0  502  501  0.00000000000E+00  0.00000000000E+00  0.28627546514E+03  0.28627546514E+03  0.00000000000E+00 0.  1.
         21   -1    0    0  501  502 -0.00000000000E+00 -0.00000000000E+00 -0.13645074327E+02  0.13645074327E+02  0.00000000000E+00 0.  1.
         25    1    1    2    0    0  0.00000000000E+00  0.00000000000E+00  0.27263039082E+03  0.29992053947E+03  0.12500000000E+03 0.  0.
<mgrwt>
<rscale>  0 0.12500000E+03</rscale>
<asrwt>0</asrwt>
<pdfrwt beam="1">  1       21 0.44042375E-01 0.12500000E+03</pdfrwt>
<pdfrwt beam="2">  1       21 0.20992424E-02 0.12500000E+03</pdfrwt>
<totfact> 0.55462780E+06</totfact>
</mgrwt>
</event>
<event>
 3    1  0.1604658E-001  0.1250000E+03  0.7546771E-02  0.1235069E+00
         21   -1    0    0  502  501  0.00000000000E+00  0.00000000000E+00  0.89411369849E+02  0.89411369849E+02  0.00000000000E+00 0. -1.
         21   -1    0    0  501  502 -0.00000000000E+00 -0.00000000000E+00 -0.43688515304E+02  0.43688515304E+02  0.00000000000E+00 0. -1.
         25    1    1    2    0    0  0.00000000000E+00  0.00000000000E+00  0.45722854544E+02  0.13309988515E+03  0.12500000000E+03 0.  0.
<mgrwt>
<rscale>  0 0.12500000E+03</rscale>
<asrwt>0</asrwt>
<pdfrwt beam="1">  1       21 0.13755595E-01 0.12500000E+03</pdfrwt>
<pdfrwt beam="2">  1       21 0.67213100E-02 0.12500000E+03</pdfrwt>
<totfact> 0.72949063E+06</totfact>
</mgrwt>
</event>
<event>
 3    1  0.1604658E-001  0.1250000E+03  0.7546771E-02  0.1235069E+00
         21   -1    0    0  502  501  0.00000000000E+00  0.00000000000E+00  0.41625848001E+02  0.41625848001E+02  0.00000000000E+00 0. -1.
         21   -1    0    0  501  502 -0.00000000000E+00 -0.00000000000E+00 -0.93841932058E+02  0.93841932058E+02  0.00000000000E+00 0. -1.
         25    1    1    2    0    0  0.00000000000E+00  0.00000000000E+00 -0.52216084056E+02  0.13546778006E+03  0.12500000000E+03 0.  0.
<mgrwt>
<rscale>  0 0.12500000E+03</rscale>
<asrwt>0</asrwt>
<pdfrwt beam="1">  1       21 0.64039766E-02 0.12500000E+03</pdfrwt>
<pdfrwt beam="2">  1       21 0.14437220E-01 0.12500000E+03</pdfrwt>
<totfact> 0.72634594E+06</totfact>
</mgrwt>
</event>
<event>
 3    1  0.1604658E-001  0.1250000E+03  0.7546771E-02  0.1235069E+00
         21   -1    0    0  502  501  0.00000000000E+00  0.00000000000E+00  0.66463701014E+03  0.66463701014E+03  0.00000000000E+00 0.  1.
         21   -1    0    0  501  502 -0.00000000000E+00 -0.00000000000E+00 -0.58772682538E+01  0.58772682538E+01  0.00000000000E+00 0.  1.
         25    1    1    2    0    0  0.00000000000E+00  0.00000000000E+00  0.65875974189E+03  0.67051427839E+03  0.12500000000E+03 0.  0.
<mgrwt>
<rscale>  0 0.12500000E+03</rscale>
<asrwt>0</asrwt>
<pdfrwt beam="1">  1       21 0.10225179E+00 0.12500000E+03</pdfrwt>
<pdfrwt beam="2">  1       21 0.90419564E-03 0.12500000E+03</pdfrwt>
<totfact> 0.34078202E+06</totfact>
</mgrwt>
</event>
<event>
 3    1  0.1604658E-001  0.1250000E+03  0.7546771E-02  0.1235069E+00
         21   -1    0    0  502  501  0.00000000000E+00  0.00000000000E+00  0.51434918671E+02  0.51434918671E+02  0.00000000000E+00 0.  1.
         21   -1    0    0  501  502 -0.00000000000E+00 -0.00000000000E+00 -0.75945488025E+02  0.75945488025E+02  0.00000000000E+00 0.  1.
         25    1    1    2    0    0  0.00000000000E+00  0.00000000000E+00 -0.24510569354E+02  0.12738040670E+03  0.12500000000E+03 0.  0.
<mgrwt>
<rscale>  0 0.12500000E+03</rscale>
<asrwt>0</asrwt>
<pdfrwt beam="1">  1       21 0.79130644E-02 0.12500000E+03</pdfrwt>
<pdfrwt beam="2">  1       21 0.11683921E-01 0.12500000E+03</pdfrwt>
<totfact> 0.73717438E+06</totfact>
</mgrwt>
</event>
<event>
 3    1  0.1604658E-001  0.1250000E+03  0.7546771E-02  0.1235069E+00
         21   -1    0    0  502  501  0.00000000000E+00  0.00000000000E+00  0.48516913653E+01  0.48516913653E+01  0.00000000000E+00 0. -1.
         21   -1    0    0  501  502 -0.00000000000E+00 -0.00000000000E+00 -0.80513159348E+03  0.80513159348E+03  0.00000000000E+00 0. -1.
         25    1    1    2    0    0  0.00000000000E+00  0.00000000000E+00 -0.80027990212E+03  0.80998328485E+03  0.12500000000E+03 0.  0.
<mgrwt>
<rscale>  0 0.12500000E+03</rscale>
<asrwt>0</asrwt>
<pdfrwt beam="1">  1       21 0.74641465E-03 0.12500000E+03</pdfrwt>
<pdfrwt beam="2">  1       21 0.12386630E+00 0.12500000E+03</pdfrwt>
<totfact> 0.29034722E+06</totfact>
</mgrwt>
</event>
<event>
 3    1  0.1604658E-001  0.1250000E+03  0.7546771E-02  0.1235069E+00
         21   -1    0    0  502  501  0.00000000000E+00  0.00000000000E+00  0.23853092543E+01  0.23853092543E+01  0.00000000000E+00 0.  1.
         21   -1    0    0  501  502 -0.00000000000E+00 -0.00000000000E+00 -0.16376283255E+04  0.16376283255E+04  0.00000000000E+00 0.  1.
         25    1    1    2    0    0  0.00000000000E+00  0.00000000000E+00 -0.16352430163E+04  0.16400136348E+04  0.12500000000E+03 0.  0.
<mgrwt>
<rscale>  0 0.12500000E+03</rscale>
<asrwt>0</asrwt>
<pdfrwt beam="1">  1       21 0.36696903E-03 0.12500000E+03</pdfrwt>
<pdfrwt beam="2">  1       21 0.25194393E+00 0.12500000E+03</pdfrwt>
<totfact> 0.12038557E+06</totfact>
</mgrwt>
</event>
<event>
 3    1  0.1604658E-001  0.1250000E+03  0.7546771E-02  0.1235069E+00
         21   -1    0    0  502  501  0.00000000000E+00  0.00000000000E+00  0.32374478564E+03  0.32374478564E+03  0.00000000000E+00 0.  1.
         21   -1    0    0  501  502 -0.00000000000E+00 -0.00000000000E+00 -0.12065831400E+02  0.12065831400E+02  0.00000000000E+00 0.  1.
         25    1    1    2    0    0  0.00000000000E+00  0.00000000000E+00  0.31167895424E+03  0.33581061704E+03  0.12500000000E+03 0.  0.
<mgrwt>
<rscale>  0 0.12500000E+03</rscale>
<asrwt>0</asrwt>
<pdfrwt beam="1">  1       21 0.49806884E-01 0.12500000E+03</pdfrwt>
<pdfrwt beam="2">  1       21 0.18562820E-02 0.12500000E+03</pdfrwt>
<totfact> 0.52603745E+06</totfact>
</mgrwt>
</event>
<event>
 3    1  0.1604658E-001  0.1250000E+03  0.7546771E-02  0.1235069E+00
         21   -1    0    0  502  501  0.00000000000E+00  0.00000000000E+00  0.84647060876E+03  0.84647060876E+03  0.00000000000E+00 0. -1.
         21   -1    0    0  501  502 -0.00000000000E+00 -0.00000000000E+00 -0.46147497144E+01  0.46147497144E+01  0.00000000000E+00 0. -1.
         25    1    1    2    0    0  0.00000000000E+00  0.00000000000E+00  0.84185585904E+03  0.85108535847E+03  0.12500000000E+03 0.  0.
<mgrwt>
<rscale>  0 0.12500000E+03</rscale>
<asrwt>0</asrwt>
<pdfrwt beam="1">  1       21 0.13022612E+00 0.12500000E+03</pdfrwt>
<pdfrwt beam="2">  1       21 0.70996217E-03 0.12500000E+03</pdfrwt>
<totfact> 0.27738615E+06</totfact>
</mgrwt>
</event>
<event>
 3    1  0.1604658E-001  0.1250000E+03  0.7546771E-02  0.1235069E+00
         21   -1    0    0  502  501  0.00000000000E+00  0.00000000000E+00  0.11002793271E+02  0.11002793271E+02  0.00000000000E+00 0.  1.
         21   -1    0    0  501  502 -0.00000000000E+00 -0.00000000000E+00 -0.35502348392E+03  0.35502348392E+03  0.00000000000E+00 0.  1.
         25    1    1    2    0    0  0.00000000000E+00  0.00000000000E+00 -0.34402069065E+03  0.36602627719E+03  0.12500000000E+03 0.  0.
<mgrwt>
<rscale>  0 0.12500000E+03</rscale>
<asrwt>0</asrwt>
<pdfrwt beam="1">  1       21 0.16927373E-02 0.12500000E+03</pdfrwt>
<pdfrwt beam="2">  1       21 0.54619001E-01 0.12500000E+03</pdfrwt>
<totfact> 0.50376188E+06</totfact>
</mgrwt>
</event>
<event>
 3    1  0.1604658E-001  0.1250000E+03  0.7546771E-02  0.1235069E+00
         21   -1    0    0  502  501  0.00000000000E+00  0.00000000000E+00  0.10290810637E+03  0.10290810637E+03  0.00000000000E+00 0.  1.
         21   -1    0    0  501  502 -0.00000000000E+00 -0.00000000000E+00 -0.37958622869E+02  0.37958622869E+02  0.00000000000E+00 0.  1.
         25    1    1    2    0    0  0.00000000000E+00  0.00000000000E+00  0.64949483506E+02  0.14086672924E+03  0.12500000000E+03 0.  0.
<mgrwt>
<rscale>  0 0.12500000E+03</rscale>
<asrwt>0</asrwt>
<pdfrwt beam="1">  1       21 0.15832016E-01 0.12500000E+03</pdfrwt>
<pdfrwt beam="2">  1       21 0.58397882E-02 0.12500000E+03</pdfrwt>
<totfact> 0.71926360E+06</totfact>
</mgrwt>
</event>
<event>
 3    1  0.1604658E-001  0.1250000E+03  0.7546771E-02  0.1235069E+00
         21   -1    0    0  502  501  0.00000000000E+00  0.00000000000E+00  0.48680092808E+03  0.48680092808E+03  0.00000000000E+00 0.  1.
         21   -1    0    0  501  502 -0.00000000000E+00 -0.00000000000E+00 -0.80243273475E+01  0.80243273475E+01  0.00000000000E+00 0.  1.
         25    1    1    2    0    0  0.00000000000E+00  0.00000000000E+00  0.47877660074E+03  0.49482525543E+03  0.12500000000E+03 0.  0.
<mgrwt>
<rscale>  0 0.12500000E+03</rscale>
<asrwt>0</asrwt>
<pdfrwt beam="1">  1       21 0.74892427E-01 0.12500000E+03</pdfrwt>
<pdfrwt beam="2">  1       21 0.12345123E-02 0.12500000E+03</pdfrwt>
<totfact> 0.42326114E+06</totfact>
</mgrwt>
</event>
<event>
 3    1  0.1604658E-001  0.1250000E+03  0.7546771E-02  0.1235069E+00
         21   -1    0    0  502  501  0.00000000000E+00  0.00000000000E+00  0.17436873125E+03  0.17436873125E+03  0.00000000000E+00 0. -1.
         21   -1    0    0  501  502 -0.00000000000E+00 -0.00000000000E+00 -0.22402239048E+02  0.22402239048E+02  0.00000000000E+00 0. -1.
         25    1    1    2    0    0  0.00000000000E+00  0.00000000000E+00  0.15196649220E+03  0.19677097030E+03  0.12500000000E+03 0.  0.
<mgrwt>
<rscale>  0 0.12500000E+03</rscale>
<asrwt>0</asrwt>
<pdfrwt beam="1">  1       21 0.26825958E-01 0.12500000E+03</pdfrwt>
<pdfrwt beam="2">  1       21 0.34464984E-02 0.12500000E+03</pdfrwt>
<totfact> 0.65277715E+06</totfact>
</mgrwt>
</event>
<event>
 3    1  0.1604658E-001  0.1250000E+03  0.7546771E-02  0.1235069E+00
         21   -1    0    0  502  501  0.00000000000E+00  0.00000000000E+00  0.10462382258E+03  0.10462382258E+03  0.00000000000E+00 0.  1.
         21   -1    0    0  501  502 -0.00000000000E+00 -0.00000000000E+00 -0.37336142988E+02  0.37336142988E+02  0.00000000000E+00 0.  1.
         25    1    1    2    0    0  0.00000000000E+00  0.00000000000E+00  0.67287679597E+02  0.14195996557E+03  0.12500000000E+03 0.  0.
<mgrwt>
<rscale>  0 0.12500000E+03</rscale>
<asrwt>0</asrwt>
<pdfrwt beam="1">  1       21 0.16095973E-01 0.12500000E+03</pdfrwt>
<pdfrwt beam="2">  1       21 0.57440221E-02 0.12500000E+03</pdfrwt>
<totfact> 0.71784461E+06</totfact>
</mgrwt>
</event>
<event>
 3    1  0.1604658E-001  0.1250000E+03  0.7546771E-02  0.1235069E+00
         21   -1    0    0  502  501  0.00000000000E+00  0.00000000000E+00  0.16428177360E+03  0.16428177360E+03  0.00000000000E+00 0.  1.
         21   -1    0    0  501  502 -0.00000000000E+00 -0.00000000000E+00 -0.23777744264E+02  0.23777744264E+02  0.00000000000E+00 0.  1.
         25    1    1    2    0    0  0.00000000000E+00  0.00000000000E+00  0.14050402934E+03  0.18805951787E+03  0.12500000000E+03 0.  0.
<mgrwt>
<rscale>  0 0.12500000E+03</rscale>
<asrwt>0</asrwt>
<pdfrwt beam="1">  1       21 0.25274118E-01 0.12500000E+03</pdfrwt>
<pdfrwt beam="2">  1       21 0.36581146E-02 0.12500000E+03</pdfrwt>
<totfact> 0.66238782E+06</totfact>
</mgrwt>
</event>
<event>
 3    1  0.1604658E-001  0.1250000E+03  0.7546771E-02  0.1235069E+00
         21   -1    0    0  502  501  0.00000000000E+00  0.00000000000E+00  0.16816689686E+03  0.16816689686E+03  0.00000000000E+00 0.  1.
         21   -1    0    0  501  502 -0.00000000000E+00 -0.00000000000E+00 -0.23228412209E+02  0.23228412209E+02  0.00000000000E+00 0.  1.
         25    1    1    2    0    0  0.00000000000E+00  0.00000000000E+00  0.14493848465E+03  0.19139530906E+03  0.12500000000E+03 0.  0.
<mgrwt>
<rscale>  0 0.12500000E+03</rscale>
<asrwt>0</asrwt>
<pdfrwt beam="1">  1       21 0.25871829E-01 0.12500000E+03</pdfrwt>
<pdfrwt beam="2">  1       21 0.35736020E-02 0.12500000E+03</pdfrwt>
<totfact> 0.65867724E+06</totfact>
</mgrwt>
</event>
<event>
 3    1  0.1604658E-001  0.1250000E+03  0.7546771E-02  0.1235069E+00
         21   -1    0    0  502  501  0.00000000000E+00  0.00000000000E+00  0.22671221550E+02  0.22671221550E+02  0.00000000000E+00 0.  1.
         21   -1    0    0  501  502 -0.00000000000E+00 -0.00000000000E+00 -0.17229993503E+03  0.17229993503E+03  0.00000000000E+00 0.  1.
         25    1    1    2    0    0  0.00000000000E+00  0.00000000000E+00 -0.14962871348E+03  0.19497115658E+03  0.12500000000E+03 0.  0.
<mgrwt>
<rscale>  0 0.12500000E+03</rscale>
<asrwt>0</asrwt>
<pdfrwt beam="1">  1       21 0.34878802E-02 0.12500000E+03</pdfrwt>
<pdfrwt beam="2">  1       21 0.26507683E-01 0.12500000E+03</pdfrwt>
<totfact> 0.65474179E+06</totfact>
</mgrwt>
</event>
<event>
 3    1  0.1604658E-001  0.1250000E+03  0.7546771E-02  0.1235069E+00
         21   -1    0    0  502  501  0.00000000000E+00  0.00000000000E+00  0.19745177074E+02  0.19745177074E+02  0.00000000000E+00 0.  1.
         21   -1    0    0  501  502 -0.00000000000E+00 -0.00000000000E+00 -0.19783312073E+03  0.19783312073E+03  0.00000000000E+00 0.  1.
         25    1    1    2    0    0  0.00000000000E+00  0.00000000000E+00 -0.17808794366E+03  0.21757829781E+03  0.12500000000E+03 0.  0.
<mgrwt>
<rscale>  0 0.12500000E+03</rscale>
<asrwt>0</asrwt>
<pdfrwt beam="1">  1       21 0.30377195E-02 0.12500000E+03</pdfrwt>
<pdfrwt beam="2">  1       21 0.30435866E-01 0.12500000E+03</pdfrwt>
<totfact> 0.63070926E+06</totfact>
</mgrwt>
</event>
<event>
 3    1  0.1604658E-001  0.1250000E+03  0.7546771E-02  0.1235069E+00
         21   -1    0    0  502  501  0.00000000000E+00  0.00000000000E+00  0.53077938661E+02  0.53077938661E+02  0.00000000000E+00 0. -1.
         21   -1    0    0  501  502 -0.00000000000E+00 -0.00000000000E+00 -0.73594606320E+02  0.73594606320E+02  0.00000000000E+00 0. -1.
         25    1    1    2    0    0  0.00000000000E+00  0.00000000000E+00 -0.20516667659E+02  0.12667254498E+03  0.12500000000E+03 0.  0.
<mgrwt>
<rscale>  0 0.12500000E+03</rscale>
<asrwt>0</asrwt>
<pdfrwt beam="1">  1       21 0.81658368E-02 0.12500000E+03</pdfrwt>
<pdfrwt beam="2">  1       21 0.11322247E-01 0.12500000E+03</pdfrwt>
<totfact> 0.73813784E+06</totfact>
</mgrwt>
</event>
<event>
 3    1  0.1604658E-001  0.1250000E+03  0.7546771E-02  0.1235069E+00
         21   -1    0    0  502  501  0.00000000000E+00  0.00000000000E+00  0.21737098496E+03  0.21737098496E+03  0.00000000000E+00 0.  1.
         21   -1    0    0  501  502 -0.00000000000E+00 -0.00000000000E+00 -0.17970429681E+02  0.17970429681E+02  0.00000000000E+00 0.  1.
         25    1    1    2    0    0  0.00000000000E+00  0.00000000000E+00  0.19940055528E+03  0.23534141464E+03  0.12500000000E+03 0.  0.
<mgrwt>
<rscale>  0 0.12500000E+03</rscale>
<asrwt>0</asrwt>
<pdfrwt beam="1">  1       21 0.33441688E-01 0.12500000E+03</pdfrwt>
<pdfrwt beam="2">  1       21 0.27646816E-02 0.12500000E+03</pdfrwt>
<totfact> 0.61286399E+06</totfact>
</mgrwt>
</event>
<event>
 3    1  0.1604658E-001  0.1250000E+03  0.7546771E-02  0.1235069E+00
         21   -1    0    0  502  501  0.00000000000E+00  0.00000000000E+00  0.12372793939E+03  0.12372793939E+03  0.00000000000E+00 0.  1.
         21   -1    0    0  501  502 -0.00000000000E+00 -0.00000000000E+00 -0.31571284702E+02  0.31571284702E+02  0.00000000000E+00 0.  1.
         25    1    1    2    0    0  0.00000000000E+00  0.00000000000E+00  0.92156654683E+02  0.15529922409E+03  0.12500000000E+03 0.  0.
<mgrwt>
<rscale>  0 0.12500000E+03</rscale>
<asrwt>0</asrwt>
<pdfrwt beam="1">  1       21 0.19035067E-01 0.12500000E+03</pdfrwt>
<pdfrwt beam="2">  1       21 0.48571208E-02 0.12500000E+03</pdfrwt>
<totfact> 0.70098488E+06</totfact>
</mgrwt>
</event>
<event>
 3    1  0.1604658E-001  0.1250000E+03  0.7546771E-02  0.1235069E+00
         21   -1    0    0  502  501  0.00000000000E+00  0.00000000000E+00  0.76509805116E+02  0.76509805116E+02  0.00000000000E+00 0.  1.
         21   -1    0    0  501  502 -0.00000000000E+00 -0.00000000000E+00 -0.51055547640E+02  0.51055547640E+02  0.00000000000E+00 0.  1.
         25    1    1    2    0    0  0.00000000000E+00  0.00000000000E+00  0.25454257476E+02  0.12756535276E+03  0.12500000000E+03 0.  0.
<mgrwt>
<rscale>  0 0.12500000E+03</rscale>
<asrwt>0</asrwt>
<pdfrwt beam="1">  1       21 0.11770739E-01 0.12500000E+03</pdfrwt>
<pdfrwt beam="2">  1       21 0.78546997E-02 0.12500000E+03</pdfrwt>
<totfact> 0.73692361E+06</totfact>
</mgrwt>
</event>
<event>
 3    1  0.1604658E-001  0.1250000E+03  0.7546771E-02  0.1235069E+00
         21   -1    0    0  502  501  0.00000000000E+00  0.00000000000E+00  0.13636519329E+02  0.13636519329E+02  0.00000000000E+00 0.  1.
         21   -1    0    0  501  502 -0.00000000000E+00 -0.00000000000E+00 -0.28645506275E+03  0.28645506275E+03  0.00000000000E+00 0.  1.
         25    1    1    2    0    0  0.00000000000E+00  0.00000000000E+00 -0.27281854342E+03  0.30009158208E+03  0.12500000000E+03 0.  0.
<mgrwt>
<rscale>  0 0.12500000E+03</rscale>
<asrwt>0</asrwt>
<pdfrwt beam="1">  1       21 0.20979262E-02 0.12500000E+03</pdfrwt>
<pdfrwt beam="2">  1       21 0.44070007E-01 0.12500000E+03</pdfrwt>
<totfact> 0.55448565E+06</totfact>
</mgrwt>
</event>
<event>
 3    1  0.1604658E-001  0.1250000E+03  0.7546771E-02  0.1235069E+00
         21   -1    0    0  502  501  0.00000000000E+00  0.00000000000E+00  0.82842755500E+03  0.82842755500E+03  0.00000000000E+00 0. -1.
         21   -1    0    0  501  502 -0.00000000000E+00 -0.00000000000E+00 -0.47152584151E+01  0.47152584151E+01  0.00000000000E+00 0. -1.
         25    1    1    2    0    0  0.00000000000E+00  0.00000000000E+00  0.82371229659E+03  0.83314281342E+03  0.12500000000E+03 0.  0.
<mgrwt>
<rscale>  0 0.12500000E+03</rscale>
<asrwt>0</asrwt>
<pdfrwt beam="1">  1       21 0.12745028E+00 0.12500000E+03</pdfrwt>
<pdfrwt beam="2">  1       21 0.72542503E-03 0.12500000E+03</pdfrwt>
<totfact> 0.28293784E+06</totfact>
</mgrwt>
</event>
<event>
 3    1  0.1604658E-001  0.1250000E+03  0.7546771E-02  0.1235069E+00
         21   -1    0    0  502  501  0.00000000000E+00  0.00000000000E+00  0.16232442940E+03  0.16232442940E+03  0.00000000000E+00 0.  1.
         21   -1    0    0  501  502 -0.00000000000E+00 -0.00000000000E+00 -0.24064461612E+02  0.24064461612E+02  0.00000000000E+00 0.  1.
         25    1    1    2    0    0  0.00000000000E+00  0.00000000000E+00  0.13825996779E+03  0.18638889102E+03  0.12500000000E+03 0.  0.
<mgrwt>
<rscale>  0 0.12500000E+03</rscale>
<asrwt>0</asrwt>
<pdfrwt beam="1">  1       21 0.24972988E-01 0.12500000E+03</pdfrwt>
<pdfrwt beam="2">  1       21 0.37022250E-02 0.12500000E+03</pdfrwt>
<totfact> 0.66426073E+06</totfact>
</mgrwt>
</event>
<event>
 3    1  0.1604658E-001  0.1250000E+03  0.7546771E-02  0.1235069E+00
         21   -1    0    0  502  501  0.00000000000E+00  0.00000000000E+00  0.14406805308E+02  0.14406805308E+02  0.00000000000E+00 0.  1.
         21   -1    0    0  501  502 -0.00000000000E+00 -0.00000000000E+00 -0.27113922319E+03  0.27113922319E+03  0.00000000000E+00 0.  1.
         25    1    1    2    0    0  0.00000000000E+00  0.00000000000E+00 -0.25673241788E+03  0.28554602850E+03  0.12500000000E+03 0.  0.
<mgrwt>
<rscale>  0 0.12500000E+03</rscale>
<asrwt>0</asrwt>
<pdfrwt beam="1">  1       21 0.22164315E-02 0.12500000E+03</pdfrwt>
<pdfrwt beam="2">  1       21 0.41713728E-01 0.12500000E+03</pdfrwt>
<totfact> 0.56679160E+06</totfact>
</mgrwt>
</event>
<event>
 3    1  0.1604658E-001  0.1250000E+03  0.7546771E-02  0.1235069E+00
         21   -1    0    0  502  501  0.00000000000E+00  0.00000000000E+00  0.22573595021E+03  0.22573595021E+03  0.00000000000E+00 0. -1.
         21   -1    0    0  501  502 -0.00000000000E+00 -0.00000000000E+00 -0.17304509965E+02  0.17304509965E+02  0.00000000000E+00 0. -1.
         25    1    1    2    0    0  0.00000000000E+00  0.00000000000E+00  0.20843144025E+03  0.24304046018E+03  0.12500000000E+03 0.  0.
<mgrwt>
<rscale>  0 0.12500000E+03</rscale>
<asrwt>0</asrwt>
<pdfrwt beam="1">  1       21 0.34728605E-01 0.12500000E+03</pdfrwt>
<pdfrwt beam="2">  1       21 0.26622325E-02 0.12500000E+03</pdfrwt>
<totfact> 0.60539680E+06</totfact>
</mgrwt>
</event>
<event>
 3    1  0.1604658E-001  0.1250000E+03  0.7546771E-02  0.1235069E+00
         21   -1    0    0  502  501  0.00000000000E+00  0.00000000000E+00  0.17561987379E+02  0.17561987379E+02  0.00000000000E+00 0. -1.
         21   -1    0    0  501  502 -0.00000000000E+00 -0.00000000000E+00 -0.22242642110E+03  0.22242642110E+03  0.00000000000E+00 0. -1.
         25    1    1    2    0    0  0.00000000000E+00  0.00000000000E+00 -0.20486443372E+03  0.23998840848E+03  0.12500000000E+03 0.  0.
<mgrwt>
<rscale>  0 0.12500000E+03</rscale>
<asrwt>0</asrwt>
<pdfrwt beam="1">  1       21 0.27018442E-02 0.12500000E+03</pdfrwt>
<pdfrwt beam="2">  1       21 0.34219450E-01 0.12500000E+03</pdfrwt>
<totfact> 0.60833784E+06</totfact>
</mgrwt>
</event>
<event>
 3    1  0.1604658E-001  0.1250000E+03  0.7546771E-02  0.1235069E+00
         21   -1    0    0  502  501  0.00000000000E+00  0.00000000000E+00  0.96197898789E+02  0.96197898789E+02  0.00000000000E+00 0. -1.
         21   -1    0    0  501  502 -0.00000000000E+00 -0.00000000000E+00 -0.40606396285E+02  0.40606396285E+02  0.00000000000E+00 0. -1.
         25    1    1    2    0    0  0.00000000000E+00  0.00000000000E+00  0.55591502503E+02  0.13680429507E+03  0.12500000000E+03 0.  0.
<mgrwt>
<rscale>  0 0.12500000E+03</rscale>
<asrwt>0</asrwt>
<pdfrwt beam="1">  1       21 0.14799677E-01 0.12500000E+03</pdfrwt>
<pdfrwt beam="2">  1       21 0.62471379E-02 0.12500000E+03</pdfrwt>
<totfact> 0.72458442E+06</totfact>
</mgrwt>
</event>
<event>
 3    1  0.1604658E-001  0.1250000E+03  0.7546771E-02  0.1235069E+00
         21   -1    0    0  502  501  0.00000000000E+00  0.00000000000E+00  0.55497107159E+02  0.55497107159E+02  0.00000000000E+00 0.  1.
         21   -1    0    0  501  502 -0.00000000000E+00 -0.00000000000E+00 -0.70386551659E+02  0.70386551659E+02  0.00000000000E+00 0.  1.
         25    1    1    2    0    0  0.00000000000E+00  0.00000000000E+00 -0.14889444500E+02  0.12588365882E+03  0.12500000000E+03 0.  0.
<mgrwt>
<rscale>  0 0.12500000E+03</rscale>
<asrwt>0</asrwt>
<pdfrwt beam="1">  1       21 0.85380165E-02 0.12500000E+03</pdfrwt>
<pdfrwt beam="2">  1       21 0.10828700E-01 0.12500000E+03</pdfrwt>
<totfact> 0.73922098E+06</totfact>
</mgrwt>
</event>
<event>
 3    1  0.1604658E-001  0.1250000E+03  0.7546771E-02  0.1235069E+00
         21   -1    0    0  502  501  0.00000000000E+00  0.00000000000E+00  0.36694526601E+02  0.36694526601E+02  0.00000000000E+00 0. -1.
         21   -1    0    0  501  502 -0.00000000000E+00 -0.00000000000E+00 -0.10645320602E+03  0.10645320602E+03  0.00000000000E+00 0. -1.
         25    1    1    2    0    0  0.00000000000E+00  0.00000000000E+00 -0.69758679415E+02  0.14314773262E+03  0.12500000000E+03 0.  0.
<mgrwt>
<rscale>  0 0.12500000E+03</rscale>
<asrwt>0</asrwt>
<pdfrwt beam="1">  1       21 0.56453118E-02 0.12500000E+03</pdfrwt>
<pdfrwt beam="2">  1       21 0.16377416E-01 0.12500000E+03</pdfrwt>
<totfact> 0.71630995E+06</totfact>
</mgrwt>
</event>
<event>
 3    1  0.1604658E-001  0.1250000E+03  0.7546771E-02  0.1235069E+00
         21   -1    0    0  502  501  0.00000000000E+00  0.00000000000E+00  0.50233419808E+02  0.50233419808E+02  0.00000000000E+00 0.  1.
         21   -1    0    0  501  502 -0.00000000000E+00 -0.00000000000E+00 -0.77761976289E+02  0.77761976289E+02  0.00000000000E+00 0.  1.
         25    1    1    2    0    0  0.00000000000E+00  0.00000000000E+00 -0.27528556481E+02  0.12799539610E+03  0.12500000000E+03 0.  0.
<mgrwt>
<rscale>  0 0.12500000E+03</rscale>
<asrwt>0</asrwt>
<pdfrwt beam="1">  1       21 0.77282184E-02 0.12500000E+03</pdfrwt>
<pdfrwt beam="2">  1       21 0.11963381E-01 0.12500000E+03</pdfrwt>
<totfact> 0.73634181E+06</totfact>
</mgrwt>
</event>
<event>
 3    1  0.1604658E-001  0.1250000E+03  0.7546771E-02  0.1235069E+00
         21   -1    0    0  502  501  0.00000000000E+00  0.00000000000E+00  0.34128782873E+02  0.34128782873E+02  0.00000000000E+00 0.  1.
         21   -1    0    0  501  502 -0.00000000000E+00 -0.00000000000E+00 -0.11445617661E+03  0.11445617661E+03  0.00000000000E+00 0.  1.
         25    1    1    2    0    0  0.00000000000E+00  0.00000000000E+00 -0.80327393739E+02  0.14858495948E+03  0.12500000000E+03 0.  0.
<mgrwt>
<rscale>  0 0.12500000E+03</rscale>
<asrwt>0</asrwt>
<pdfrwt beam="1">  1       21 0.52505820E-02 0.12500000E+03</pdfrwt>
<pdfrwt beam="2">  1       21 0.17608643E-01 0.12500000E+03</pdfrwt>
<totfact> 0.70937411E+06</totfact>
</mgrwt>
</event>
<event>
 3    1  0.1604658E-001  0.1250000E+03  0.7546771E-02  0.1235069E+00
         21   -1    0    0  502  501  0.00000000000E+00  0.00000000000E+00  0.29386517280E+02  0.29386517280E+02  0.00000000000E+00 0. -1.
         21   -1    0    0  501  502 -0.00000000000E+00 -0.00000000000E+00 -0.13292660586E+03  0.13292660586E+03  0.00000000000E+00 0. -1.
         25    1    1    2    0    0  0.00000000000E+00  0.00000000000E+00 -0.10354008858E+03  0.16231312314E+03  0.12500000000E+03 0.  0.
<mgrwt>
<rscale>  0 0.12500000E+03</rscale>
<asrwt>0</asrwt>
<pdfrwt beam="1">  1       21 0.45210028E-02 0.12500000E+03</pdfrwt>
<pdfrwt beam="2">  1       21 0.20450247E-01 0.12500000E+03</pdfrwt>
<totfact> 0.69237956E+06</totfact>
</mgrwt>
</event>
<event>
 3    1  0.1604658E-001  0.1250000E+03  0.7546771E-02  0.1235069E+00
         21   -1    0    0  502  501  0.00000000000E+00  0.00000000000E+00  0.52365465276E+02  0.52365465276E+02  0.00000000000E+00 0.  1.
         21   -1    0    0  501  502 -0.00000000000E+00 -0.00000000000E+00 -0.74595918884E+02  0.74595918884E+02  0.00000000000E+00 0.  1.
         25    1    1    2    0    0  0.00000000000E+00  0.00000000000E+00 -0.22230453608E+02  0.12696138416E+03  0.12500000000E+03 0.  0.
<mgrwt>
<rscale>  0 0.12500000E+03</rscale>
<asrwt>0</asrwt>
<pdfrwt beam="1">  1       21 0.80562255E-02 0.12500000E+03</pdfrwt>
<pdfrwt beam="2">  1       21 0.11476295E-01 0.12500000E+03</pdfrwt>
<totfact> 0.73774394E+06</totfact>
</mgrwt>
</event>
<event>
 3    1  0.1604658E-001  0.1250000E+03  0.7546771E-02  0.1235069E+00
         21   -1    0    0  502  501  0.00000000000E+00  0.00000000000E+00  0.44020176152E+02  0.44020176152E+02  0.00000000000E+00 0. -1.
         21   -1    0    0  501  502 -0.00000000000E+00 -0.00000000000E+00 -0.88737718506E+02  0.88737718506E+02  0.00000000000E+00 0. -1.
         25    1    1    2    0    0  0.00000000000E+00  0.00000000000E+00 -0.44717542354E+02  0.13275789466E+03  0.12500000000E+03 0.  0.
<mgrwt>
<rscale>  0 0.12500000E+03</rscale>
<asrwt>0</asrwt>
<pdfrwt beam="1">  1       21 0.67723348E-02 0.12500000E+03</pdfrwt>
<pdfrwt beam="2">  1       21 0.13651957E-01 0.12500000E+03</pdfrwt>
<totfact> 0.72994745E+06</totfact>
</mgrwt>
</event>
<event>
 3    1  0.1604658E-001  0.1250000E+03  0.7546771E-02  0.1235069E+00
         21   -1    0    0  502  501  0.00000000000E+00  0.00000000000E+00  0.15917802802E+03  0.15917802802E+03  0.00000000000E+00 0. -1.
         21   -1    0    0  501  502 -0.00000000000E+00 -0.00000000000E+00 -0.24540133136E+02  0.24540133136E+02  0.00000000000E+00 0. -1.
         25    1    1    2    0    0  0.00000000000E+00  0.00000000000E+00  0.13463789489E+03  0.18371816116E+03  0.12500000000E+03 0.  0.
<mgrwt>
<rscale>  0 0.12500000E+03</rscale>
<asrwt>0</asrwt>
<pdfrwt beam="1">  1       21 0.24488927E-01 0.12500000E+03</pdfrwt>
<pdfrwt beam="2">  1       21 0.37754052E-02 0.12500000E+03</pdfrwt>
<totfact> 0.66727540E+06</totfact>
</mgrwt>
</event>
<event>
 3    1  0.1604658E-001  0.1250000E+03  0.7546771E-02  0.1235069E+00
         21   -1    0    0  502  501  0.00000000000E+00  0.00000000000E+00  0.89115907187E+01  0.89115907187E+01  0.00000000000E+00 0.  1.
         21   -1    0    0  501  502 -0.00000000000E+00 -0.00000000000E+00 -0.43833364023E+03  0.43833364023E+03  0.00000000000E+00 0.  1.
         25    1    1    2    0    0  0.00000000000E+00  0.00000000000E+00 -0.42942204952E+03  0.44724523095E+03  0.12500000000E+03 0.  0.
<mgrwt>
<rscale>  0 0.12500000E+03</rscale>
<asrwt>0</asrwt>
<pdfrwt beam="1">  1       21 0.13710142E-02 0.12500000E+03</pdfrwt>
<pdfrwt beam="2">  1       21 0.67435934E-01 0.12500000E+03</pdfrwt>
<totfact> 0.45057572E+06</totfact>
</mgrwt>
</event>
<event>
 3    1  0.1604658E-001  0.1250000E+03  0.7546771E-02  0.1235069E+00
         21   -1    0    0  502  501  0.00000000000E+00  0.00000000000E+00  0.65573632563E+02  0.65573632563E+02  0.00000000000E+00 0.  1.
         21   -1    0    0  501  502 -0.00000000000E+00 -0.00000000000E+00 -0.59570437801E+02  0.59570437801E+02  0.00000000000E+00 0.  1.
         25    1    1    2    0    0  0.00000000000E+00  0.00000000000E+00  0.60031947616E+01  0.12514407036E+03  0.12500000000E+03 0.  0.
<mgrwt>
<rscale>  0 0.12500000E+03</rscale>
<asrwt>0</asrwt>
<pdfrwt beam="1">  1       21 0.10088251E-01 0.12500000E+03</pdfrwt>
<pdfrwt beam="2">  1       21 0.91646827E-02 0.12500000E+03</pdfrwt>
<totfact> 0.74024124E+06</totfact>
</mgrwt>
</event>
<event>
 3    1  0.1604658E-001  0.1250000E+03  0.7546771E-02  0.1235069E+00
         21   -1    0    0  502  501  0.00000000000E+00  0.00000000000E+00  0.22573786598E+03  0.22573786598E+03  0.00000000000E+00 0.  1.
         21   -1    0    0  501  502 -0.00000000000E+00 -0.00000000000E+00 -0.17304363107E+02  0.17304363107E+02  0.00000000000E+00 0.  1.
         25    1    1    2    0    0  0.00000000000E+00  0.00000000000E+00  0.20843350287E+03  0.24304222909E+03  0.12500000000E+03 0.  0.
<mgrwt>
<rscale>  0 0.12500000E+03</rscale>
<asrwt>0</asrwt>
<pdfrwt beam="1">  1       21 0.34728900E-01 0.12500000E+03</pdfrwt>
<pdfrwt beam="2">  1       21 0.26622099E-02 0.12500000E+03</pdfrwt>
<totfact> 0.60539510E+06</totfact>
</mgrwt>
</event>
<event>
 3    1  0.1604658E-001  0.1250000E+03  0.7546771E-02  0.1235069E+00
         21   -1    0    0  502  501  0.00000000000E+00  0.00000000000E+00  0.28277707753E+01  0.28277707753E+01  0.00000000000E+00 0.  1.
         21   -1    0    0  501  502 -0.00000000000E+00 -0.00000000000E+00 -0.13813884895E+04  0.13813884895E+04  0.00000000000E+00 0.  1.
         25    1    1    2    0    0  0.00000000000E+00  0.00000000000E+00 -0.13785607187E+04  0.13842162603E+04  0.12500000000E+03 0.  0.
<mgrwt>
<rscale>  0 0.12500000E+03</rscale>
<asrwt>0</asrwt>
<pdfrwt beam="1">  1       21 0.43504078E-03 0.12500000E+03</pdfrwt>
<pdfrwt beam="2">  1       21 0.21252173E+00 0.12500000E+03</pdfrwt>
<totfact> 0.15803634E+06</totfact>
</mgrwt>
</event>
<event>
 3    1  0.1604658E-001  0.1250000E+03  0.7546771E-02  0.1235069E+00
         21   -1    0    0  502  501  0.00000000000E+00  0.00000000000E+00  0.26495202832E+02  0.26495202832E+02  0.00000000000E+00 0.  1.
         21   -1    0    0  501  502 -0.00000000000E+00 -0.00000000000E+00 -0.14743234935E+03  0.14743234935E+03  0.00000000000E+00 0.  1.
         25    1    1    2    0    0  0.00000000000E+00  0.00000000000E+00 -0.12093714652E+03  0.17392755218E+03  0.12500000000E+03 0.  0.
<mgrwt>
<rscale>  0 0.12500000E+03</rscale>
<asrwt>0</asrwt>
<pdfrwt beam="1">  1       21 0.40761851E-02 0.12500000E+03</pdfrwt>
<pdfrwt beam="2">  1       21 0.22681899E-01 0.12500000E+03</pdfrwt>
<totfact> 0.67855070E+06</totfact>
</mgrwt>
</event>
<event>
 3    1  0.1604658E-001  0.1250000E+03  0.7546771E-02  0.1235069E+00
         21   -1    0    0  502  501  0.00000000000E+00  0.00000000000E+00  0.26689357979E+01  0.26689357979E+01  0.00000000000E+00 0.  1.
         21   -1    0    0  501  502 -0.00000000000E+00 -0.00000000000E+00 -0.14635983387E+04  0.14635983387E+04  0.00000000000E+00 0.  1.
         25    1    1    2    0    0  0.00000000000E+00  0.00000000000E+00 -0.14609294029E+04  0.14662672745E+04  0.12500000000E+03 0.  0.
<mgrwt>
<rscale>  0 0.12500000E+03</rscale>
<asrwt>0</asrwt>
<pdfrwt beam="1">  1       21 0.41060603E-03 0.12500000E+03</pdfrwt>
<pdfrwt beam="2">  1       21 0.22516869E+00 0.12500000E+03</pdfrwt>
<totfact> 0.14500512E+06</totfact>
</mgrwt>
</event>
<event>
 3    1  0.1604658E-001  0.1250000E+03  0.7546771E-02  0.1235069E+00
         21   -1    0    0  502  501  0.00000000000E+00  0.00000000000E+00  0.51482315530E+02  0.51482315530E+02  0.00000000000E+00 0. -1.
         21   -1    0    0  501  502 -0.00000000000E+00 -0.00000000000E+00 -0.75875569306E+02  0.75875569306E+02  0.00000000000E+00 0. -1.
         25    1    1    2    0    0  0.00000000000E+00  0.00000000000E+00 -0.24393253777E+02  0.12735788484E+03  0.12500000000E+03 0.  0.
<mgrwt>
<rscale>  0 0.12500000E+03</rscale>
<asrwt>0</asrwt>
<pdfrwt beam="1">  1       21 0.79203563E-02 0.12500000E+03</pdfrwt>
<pdfrwt beam="2">  1       21 0.11673164E-01 0.12500000E+03</pdfrwt>
<totfact> 0.73720494E+06</totfact>
</mgrwt>
</event>
<event>
 3    1  0.1604658E-001  0.1250000E+03  0.7546771E-02  0.1235069E+00
         21   -1    0    0  502  501  0.00000000000E+00  0.00000000000E+00  0.90882691275E+02  0.90882691275E+02  0.00000000000E+00 0. -1.
         21   -1    0    0  501  502 -0.00000000000E+00 -0.00000000000E+00 -0.42981231577E+02  0.42981231577E+02  0.00000000000E+00 0. -1.
         25    1    1    2    0    0  0.00000000000E+00  0.00000000000E+00  0.47901459698E+02  0.13386392285E+03  0.12500000000E+03 0.  0.
<mgrwt>
<rscale>  0 0.12500000E+03</rscale>
<asrwt>0</asrwt>
<pdfrwt beam="1">  1       21 0.13981952E-01 0.12500000E+03</pdfrwt>
<pdfrwt beam="2">  1       21 0.66124972E-02 0.12500000E+03</pdfrwt>
<totfact> 0.72847251E+06</totfact>
</mgrwt>
</event>
<event>
 3    1  0.1604658E-001  0.1250000E+03  0.7546771E-02  0.1235069E+00
         21   -1    0    0  502  501  0.00000000000E+00  0.00000000000E+00  0.48682324840E+02  0.48682324840E+02  0.00000000000E+00 0.  1.
         21   -1    0    0  501  502 -0.00000000000E+00 -0.00000000000E+00 -0.80239594408E+02  0.80239594408E+02  0.00000000000E+00 0.  1.
         25    1    1    2    0    0  0.00000000000E+00  0.00000000000E+00 -0.31557269569E+02  0.12892191925E+03  0.12500000000E+03 0.  0.
<mgrwt>
<rscale>  0 0.12500000E+03</rscale>
<asrwt>0</asrwt>
<pdfrwt beam="1">  1       21 0.74895885E-02 0.12500000E+03</pdfrwt>
<pdfrwt beam="2">  1       21 0.12344553E-01 0.12500000E+03</pdfrwt>
<totfact> 0.73509369E+06</totfact>
</mgrwt>
</event>
<event>
 3    1  0.1604658E-001  0.1250000E+03  0.7546771E-02  0.1235069E+00
         21   -1    0    0  502  501  0.00000000000E+00  0.00000000000E+00  0.55237004002E+02  0.55237004002E+02  0.00000000000E+00 0. -1.
         21   -1    0    0  501  502 -0.00000000000E+00 -0.00000000000E+00 -0.70717991871E+02  0.70717991871E+02  0.00000000000E+00 0. -1.
         25    1    1    2    0    0  0.00000000000E+00  0.00000000000E+00 -0.15480987870E+02  0.12595499587E+03  0.12500000000E+03 0.  0.
<mgrwt>
<rscale>  0 0.12500000E+03</rscale>
<asrwt>0</asrwt>
<pdfrwt beam="1">  1       21 0.84980006E-02 0.12500000E+03</pdfrwt>
<pdfrwt beam="2">  1       21 0.10879691E-01 0.12500000E+03</pdfrwt>
<totfact> 0.73912246E+06</totfact>
</mgrwt>
</event>
<event>
 3    1  0.1604658E-001  0.1250000E+03  0.7546771E-02  0.1235069E+00
         21   -1    0    0  502  501  0.00000000000E+00  0.00000000000E+00  0.22329959208E+02  0.22329959208E+02  0.00000000000E+00 0. -1.
         21   -1    0    0  501  502 -0.00000000000E+00 -0.00000000000E+00 -0.17493314536E+03  0.17493314536E+03  0.00000000000E+00 0. -1.
         25    1    1    2    0    0  0.00000000000E+00  0.00000000000E+00 -0.15260318615E+03  0.19726310457E+03  0.12500000000E+03 0.  0.
<mgrwt>
<rscale>  0 0.12500000E+03</rscale>
<asrwt>0</asrwt>
<pdfrwt beam="1">  1       21 0.34353784E-02 0.12500000E+03</pdfrwt>
<pdfrwt beam="2">  1       21 0.26912791E-01 0.12500000E+03</pdfrwt>
<totfact> 0.65224180E+06</totfact>
</mgrwt>
</event>
<event>
 3    1  0.1604658E-001  0.1250000E+03  0.7546771E-02  0.1235069E+00
         21   -1    0    0  502  501  0.00000000000E+00  0.00000000000E+00  0.30030034766E+02  0.30030034766E+02  0.00000000000E+00 0.  1.
         21   -1    0    0  501  502 -0.00000000000E+00 -0.00000000000E+00 -0.13007810448E+03  0.13007810448E+03  0.00000000000E+00 0.  1.
         25    1    1    2    0    0  0.00000000000E+00  0.00000000000E+00 -0.10004806972E+03  0.16010813925E+03  0.12500000000E+03 0.  0.
<mgrwt>
<rscale>  0 0.12500000E+03</rscale>
<asrwt>0</asrwt>
<pdfrwt beam="1">  1       21 0.46200053E-02 0.12500000E+03</pdfrwt>
<pdfrwt beam="2">  1       21 0.20012016E-01 0.12500000E+03</pdfrwt>
<totfact> 0.69506285E+06</totfact>
</mgrwt>
</event>
<event>
 3    1  0.1604658E-001  0.1250000E+03  0.7546771E-02  0.1235069E+00
         21   -1    0    0  502  501  0.00000000000E+00  0.00000000000E+00  0.23433012146E+02  0.23433012146E+02  0.00000000000E+00 0.  1.
         21   -1    0    0  501  502 -0.00000000000E+00 -0.00000000000E+00 -0.16669858641E+03  0.16669858641E+03  0.00000000000E+00 0.  1.
         25    1    1    2    0    0  0.00000000000E+00  0.00000000000E+00 -0.14326557426E+03  0.19013159855E+03  0.12500000000E+03 0.  0.
<mgrwt>
<rscale>  0 0.12500000E+03</rscale>
<asrwt>0</asrwt>
<pdfrwt beam="1">  1       21 0.36050789E-02 0.12500000E+03</pdfrwt>
<pdfrwt beam="2">  1       21 0.25645936E-01 0.12500000E+03</pdfrwt>
<totfact> 0.66007841E+06</totfact>
</mgrwt>
</event>
<event>
 3    1  0.1604658E-001  0.1250000E+03  0.7546771E-02  0.1235069E+00
         21   -1    0    0  502  501  0.00000000000E+00  0.00000000000E+00  0.13365574264E+02  0.13365574264E+02  0.00000000000E+00 0.  1.
         21   -1    0    0  501  502 -0.00000000000E+00 -0.00000000000E+00 -0.29226203999E+03  0.29226203999E+03  0.00000000000E+00 0.  1.
         25    1    1    2    0    0  0.00000000000E+00  0.00000000000E+00 -0.27889646573E+03  0.30562761426E+03  0.12500000000E+03 0.  0.
<mgrwt>
<rscale>  0 0.12500000E+03</rscale>
<asrwt>0</asrwt>
<pdfrwt beam="1">  1       21 0.20562423E-02 0.12500000E+03</pdfrwt>
<pdfrwt beam="2">  1       21 0.44963389E-01 0.12500000E+03</pdfrwt>
<totfact> 0.54991716E+06</totfact>
</mgrwt>
</event>
<event>
 3    1  0.1604658E-001  0.1250000E+03  0.7546771E-02  0.1235069E+00
         21   -1    0    0  502  501  0.00000000000E+00  0.00000000000E+00  0.48507149673E+03  0.48507149673E+03  0.00000000000E+00 0. -1.
         21   -1    0    0  501  502 -0.00000000000E+00 -0.00000000000E+00 -0.80529365801E+01  0.80529365801E+01  0.00000000000E+00 0. -1.
         25    1    1    2    0    0  0.00000000000E+00  0.00000000000E+00  0.47701856015E+03  0.49312443331E+03  0.12500000000E+03 0.  0.
<mgrwt>
<rscale>  0 0.12500000E+03</rscale>
<asrwt>0</asrwt>
<pdfrwt beam="1">  1       21 0.74626361E-01 0.12500000E+03</pdfrwt>
<pdfrwt beam="2">  1       21 0.12389137E-02 0.12500000E+03</pdfrwt>
<totfact> 0.42419427E+06</totfact>
</mgrwt>
</event>
<event>
 3    1  0.1604658E-001  0.1250000E+03  0.7546771E-02  0.1235069E+00
         21   -1    0    0  502  501  0.00000000000E+00  0.00000000000E+00  0.33262095318E+03  0.33262095318E+03  0.00000000000E+00 0.  1.
         21   -1    0    0  501  502 -0.00000000000E+00 -0.00000000000E+00 -0.11743848253E+02  0.11743848253E+02  0.00000000000E+00 0.  1.
         25    1    1    2    0    0  0.00000000000E+00  0.00000000000E+00  0.32087710493E+03  0.34436480143E+03  0.12500000000E+03 0.  0.
<mgrwt>
<rscale>  0 0.12500000E+03</rscale>
<asrwt>0</asrwt>
<pdfrwt beam="1">  1       21 0.51172447E-01 0.12500000E+03</pdfrwt>
<pdfrwt beam="2">  1       21 0.18067461E-02 0.12500000E+03</pdfrwt>
<totfact> 0.51957321E+06</totfact>
</mgrwt>
</event>
<event>
 3    1  0.1604658E-001  0.1250000E+03  0.7546771E-02  0.1235069E+00
         21   -1    0    0  502  501  0.00000000000E+00  0.00000000000E+00  0.21042094666E+02  0.21042094666E+02  0.00000000000E+00 0. -1.
         21   -1    0    0  501  502 -0.00000000000E+00 -0.00000000000E+00 -0.18563978834E+03  0.18563978834E+03  0.00000000000E+00 0. -1.
         25    1    1    2    0    0  0.00000000000E+00  0.00000000000E+00 -0.16459769367E+03  0.20668188300E+03  0.12500000000E+03 0.  0.
<mgrwt>
<rscale>  0 0.12500000E+03</rscale>
<asrwt>0</asrwt>
<pdfrwt beam="1">  1       21 0.32372454E-02 0.12500000E+03</pdfrwt>
<pdfrwt beam="2">  1       21 0.28559967E-01 0.12500000E+03</pdfrwt>
<totfact> 0.64210339E+06</totfact>
</mgrwt>
</event>
<event>
 3    1  0.1604658E-001  0.1250000E+03  0.7546771E-02  0.1235069E+00
         21   -1    0    0  502  501  0.00000000000E+00  0.00000000000E+00  0.15364257280E+02  0.15364257280E+02  0.00000000000E+00 0.  1.
         21   -1    0    0  501  502 -0.00000000000E+00 -0.00000000000E+00 -0.25424268345E+03  0.25424268345E+03  0.00000000000E+00 0.  1.
         25    1    1    2    0    0  0.00000000000E+00  0.00000000000E+00 -0.23887842617E+03  0.26960694073E+03  0.12500000000E+03 0.  0.
<mgrwt>
<rscale>  0 0.12500000E+03</rscale>
<asrwt>0</asrwt>
<pdfrwt beam="1">  1       21 0.23637320E-02 0.12500000E+03</pdfrwt>
<pdfrwt beam="2">  1       21 0.39114257E-01 0.12500000E+03</pdfrwt>
<totfact> 0.58079777E+06</totfact>
</mgrwt>
</event>
<event>
 3    1  0.1604658E-001  0.1250000E+03  0.7546771E-02  0.1235069E+00
         21   -1    0    0  502  501  0.00000000000E+00  0.00000000000E+00  0.49999127932E+01  0.49999127932E+01  0.00000000000E+00 0.  1.
         21   -1    0    0  501  502 -0.00000000000E+00 -0.00000000000E+00 -0.78126362630E+03  0.78126362630E+03  0.00000000000E+00 0.  1.
         25    1    1    2    0    0  0.00000000000E+00  0.00000000000E+00 -0.77626371351E+03  0.78626353910E+03  0.12500000000E+03 0.  0.
<mgrwt>
<rscale>  0 0.12500000E+03</rscale>
<asrwt>0</asrwt>
<pdfrwt beam="1">  1       21 0.76921738E-03 0.12500000E+03</pdfrwt>
<pdfrwt beam="2">  1       21 0.12019440E+00 0.12500000E+03</pdfrwt>
<totfact> 0.29823021E+06</totfact>
</mgrwt>
</event>
<event>
 3    1  0.1604658E-001  0.1250000E+03  0.7546771E-02  0.1235069E+00
         21   -1    0    0  502  501  0.00000000000E+00  0.00000000000E+00  0.21065181235E+02  0.21065181235E+02  0.00000000000E+00 0.  1.
         21   -1    0    0  501  502 -0.00000000000E+00 -0.00000000000E+00 -0.18543633480E+03  0.18543633480E+03  0.00000000000E+00 0.  1.
         25    1    1    2    0    0  0.00000000000E+00  0.00000000000E+00 -0.16437115356E+03  0.20650151603E+03  0.12500000000E+03 0.  0.
<mgrwt>
<rscale>  0 0.12500000E+03</rscale>
<asrwt>0</asrwt>
<pdfrwt beam="1">  1       21 0.32407971E-02 0.12500000E+03</pdfrwt>
<pdfrwt beam="2">  1       21 0.28528667E-01 0.12500000E+03</pdfrwt>
<totfact> 0.64229506E+06</totfact>
</mgrwt>
</event>
<event>
 3    1  0.1604658E-001  0.1250000E+03  0.7546771E-02  0.1235069E+00
         21   -1    0    0  502  501  0.00000000000E+00  0.00000000000E+00  0.46220770220E+03  0.46220770220E+03  0.00000000000E+00 0. -1.
         21   -1    0    0  501  502 -0.00000000000E+00 -0.00000000000E+00 -0.84512871192E+01  0.84512871192E+01  0.00000000000E+00 0. -1.
         25    1    1    2    0    0  0.00000000000E+00  0.00000000000E+00  0.45375641508E+03  0.47065898932E+03  0.12500000000E+03 0.  0.
<mgrwt>
<rscale>  0 0.12500000E+03</rscale>
<asrwt>0</asrwt>
<pdfrwt beam="1">  1       21 0.71108857E-01 0.12500000E+03</pdfrwt>
<pdfrwt beam="2">  1       21 0.13001984E-02 0.12500000E+03</pdfrwt>
<totfact> 0.43681350E+06</totfact>
</mgrwt>
</event>
<event>
 3    1  0.1604658E-001  0.1250000E+03  0.7546771E-02  0.1235069E+00
         21   -1    0    0  502  501  0.00000000000E+00  0.00000000000E+00  0.23307727919E+02  0.23307727919E+02  0.00000000000E+00 0.  1.
         21   -1    0    0  501  502 -0.00000000000E+00 -0.00000000000E+00 -0.16759462842E+03  0.16759462842E+03  0.00000000000E+00 0.  1.
         25    1    1    2    0    0  0.00000000000E+00  0.00000000000E+00 -0.14428690050E+03  0.19090235634E+03  0.12500000000E+03 0.  0.
<mgrwt>
<rscale>  0 0.12500000E+03</rscale>
<asrwt>0</asrwt>
<pdfrwt beam="1">  1       21 0.35858042E-02 0.12500000E+03</pdfrwt>
<pdfrwt beam="2">  1       21 0.25783790E-01 0.12500000E+03</pdfrwt>
<totfact> 0.65922315E+06</totfact>
</mgrwt>
</event>
<event>
 3    1  0.1604658E-001  0.1250000E+03  0.7546771E-02  0.1235069E+00
         21   -1    0    0  502  501  0.00000000000E+00  0.00000000000E+00  0.68303627473E+01  0.68303627473E+01  0.00000000000E+00 0.  1.
         21   -1    0    0  501  502 -0.00000000000E+00 -0.00000000000E+00 -0.57189495559E+03  0.57189495559E+03  0.00000000000E+00 0.  1.
         25    1    1    2    0    0  0.00000000000E+00  0.00000000000E+00 -0.56506459284E+03  0.57872531834E+03  0.12500000000E+03 0.  0.
<mgrwt>
<rscale>  0 0.12500000E+03</rscale>
<asrwt>0</asrwt>
<pdfrwt beam="1">  1       21 0.10508251E-02 0.12500000E+03</pdfrwt>
<pdfrwt beam="2">  1       21 0.87983832E-01 0.12500000E+03</pdfrwt>
<totfact> 0.38072773E+06</totfact>
</mgrwt>
</event>
<event>
 3    1  0.1604658E-001  0.1250000E+03  0.7546771E-02  0.1235069E+00
         21   -1    0    0  502  501  0.00000000000E+00  0.00000000000E+00  0.10173220882E+02  0.10173220882E+02  0.00000000000E+00 0. -1.
         21   -1    0    0  501  502 -0.00000000000E+00 -0.00000000000E+00 -0.38397377246E+03  0.38397377246E+03  0.00000000000E+00 0. -1.
         25    1    1    2    0    0  0.00000000000E+00  0.00000000000E+00 -0.37380055158E+03  0.39414699334E+03  0.12500000000E+03 0.  0.
<mgrwt>
<rscale>  0 0.12500000E+03</rscale>
<asrwt>0</asrwt>
<pdfrwt beam="1">  1       21 0.15651111E-02 0.12500000E+03</pdfrwt>
<pdfrwt beam="2">  1       21 0.59072880E-01 0.12500000E+03</pdfrwt>
<totfact> 0.48432016E+06</totfact>
</mgrwt>
</event>
<event>
 3    1  0.1604658E-001  0.1250000E+03  0.7546771E-02  0.1235069E+00
         21   -1    0    0  502  501  0.00000000000E+00  0.00000000000E+00  0.16121645796E+03  0.16121645796E+03  0.00000000000E+00 0. -1.
         21   -1    0    0  501  502 -0.00000000000E+00 -0.00000000000E+00 -0.24229846316E+02  0.24229846316E+02  0.00000000000E+00 0. -1.
         25    1    1    2    0    0  0.00000000000E+00  0.00000000000E+00  0.13698661165E+03  0.18544630428E+03  0.12500000000E+03 0.  0.
<mgrwt>
<rscale>  0 0.12500000E+03</rscale>
<asrwt>0</asrwt>
<pdfrwt beam="1">  1       21 0.24802531E-01 0.12500000E+03</pdfrwt>
<pdfrwt beam="2">  1       21 0.37276688E-02 0.12500000E+03</pdfrwt>
<totfact> 0.66532179E+06</totfact>
</mgrwt>
</event>
<event>
 3    1  0.1604658E-001  0.1250000E+03  0.7546771E-02  0.1235069E+00
         21   -1    0    0  502  501  0.00000000000E+00  0.00000000000E+00  0.27884275043E+03  0.27884275043E+03  0.00000000000E+00 0.  1.
         21   -1    0    0  501  502 -0.00000000000E+00 -0.00000000000E+00 -0.14008791672E+02  0.14008791672E+02  0.00000000000E+00 0.  1.
         25    1    1    2    0    0  0.00000000000E+00  0.00000000000E+00  0.26483395876E+03  0.29285154210E+03  0.12500000000E+03 0.  0.
<mgrwt>
<rscale>  0 0.12500000E+03</rscale>
<asrwt>0</asrwt>
<pdfrwt beam="1">  1       21 0.42898881E-01 0.12500000E+03</pdfrwt>
<pdfrwt beam="2">  1       21 0.21551989E-02 0.12500000E+03</pdfrwt>
<totfact> 0.56055522E+06</totfact>
</mgrwt>
</event>
<event>
 3    1  0.1604658E-001  0.1250000E+03  0.7546771E-02  0.1235069E+00
         21   -1    0    0  502  501  0.00000000000E+00  0.00000000000E+00  0.38732272166E+03  0.38732272166E+03  0.00000000000E+00 0.  1.
         21   -1    0    0  501  502 -0.00000000000E+00 -0.00000000000E+00 -0.10085259091E+02  0.10085259091E+02  0.00000000000E+00 0.  1.
         25    1    1    2    0    0  0.00000000000E+00  0.00000000000E+00  0.37723746257E+03  0.39740798076E+03  0.12500000000E+03 0.  0.
<mgrwt>
<rscale>  0 0.12500000E+03</rscale>
<asrwt>0</asrwt>
<pdfrwt beam="1">  1       21 0.59588099E-01 0.12500000E+03</pdfrwt>
<pdfrwt beam="2">  1       21 0.15515786E-02 0.12500000E+03</pdfrwt>
<totfact> 0.48213758E+06</totfact>
</mgrwt>
</event>
<event>
 3    1  0.1604658E-001  0.1250000E+03  0.7546771E-02  0.1235069E+00
         21   -1    0    0  502  501  0.00000000000E+00  0.00000000000E+00  0.40073154396E+02  0.40073154396E+02  0.00000000000E+00 0.  1.
         21   -1    0    0  501  502 -0.00000000000E+00 -0.00000000000E+00 -0.97477976438E+02  0.97477976438E+02  0.00000000000E+00 0.  1.
         25    1    1    2    0    0  0.00000000000E+00  0.00000000000E+00 -0.57404822043E+02  0.13755113083E+03  0.12500000000E+03 0.  0.
<mgrwt>
<rscale>  0 0.12500000E+03</rscale>
<asrwt>0</asrwt>
<pdfrwt beam="1">  1       21 0.61651007E-02 0.12500000E+03</pdfrwt>
<pdfrwt beam="2">  1       21 0.14996612E-01 0.12500000E+03</pdfrwt>
<totfact> 0.72360414E+06</totfact>
</mgrwt>
</event>
<event>
 3    1  0.1604658E-001  0.1250000E+03  0.7546771E-02  0.1235069E+00
         21   -1    0    0  502  501  0.00000000000E+00  0.00000000000E+00  0.26890065251E+02  0.26890065251E+02  0.00000000000E+00 0.  1.
         21   -1    0    0  501  502 -0.00000000000E+00 -0.00000000000E+00 -0.14526740502E+03  0.14526740502E+03  0.00000000000E+00 0.  1.
         25    1    1    2    0    0  0.00000000000E+00  0.00000000000E+00 -0.11837733977E+03  0.17215747028E+03  0.12500000000E+03 0.  0.
<mgrwt>
<rscale>  0 0.12500000E+03</rscale>
<asrwt>0</asrwt>
<pdfrwt beam="1">  1       21 0.41369331E-02 0.12500000E+03</pdfrwt>
<pdfrwt beam="2">  1       21 0.22348831E-01 0.12500000E+03</pdfrwt>
<totfact> 0.68062796E+06</totfact>
</mgrwt>
</event>
<event>
 3    1  0.1604658E-001  0.1250000E+03  0.7546771E-02  0.1235069E+00
         21   -1    0    0  502  501  0.00000000000E+00  0.00000000000E+00  0.37771963636E+02  0.37771963636E+02  0.00000000000E+00 0. -1.
         21   -1    0    0  501  502 -0.00000000000E+00 -0.00000000000E+00 -0.10341665150E+03  0.10341665150E+03  0.00000000000E+00 0. -1.
         25    1    1    2    0    0  0.00000000000E+00  0.00000000000E+00 -0.65644687868E+02  0.14118861514E+03  0.12500000000E+03 0.  0.
<mgrwt>
<rscale>  0 0.12500000E+03</rscale>
<asrwt>0</asrwt>
<pdfrwt beam="1">  1       21 0.58110714E-02 0.12500000E+03</pdfrwt>
<pdfrwt beam="2">  1       21 0.15910254E-01 0.12500000E+03</pdfrwt>
<totfact> 0.71884515E+06</totfact>
</mgrwt>
</event>
<event>
 3    1  0.1604658E-001  0.1250000E+03  0.7546771E-02  0.1235069E+00
         21   -1    0    0  502  501  0.00000000000E+00  0.00000000000E+00  0.16405203556E+03  0.16405203556E+03  0.00000000000E+00 0. -1.
         21   -1    0    0  501  502 -0.00000000000E+00 -0.00000000000E+00 -0.23811042556E+02  0.23811042556E+02  0.00000000000E+00 0. -1.
         25    1    1    2    0    0  0.00000000000E+00  0.00000000000E+00  0.14024099300E+03  0.18786307811E+03  0.12500000000E+03 0.  0.
<mgrwt>
<rscale>  0 0.12500000E+03</rscale>
<asrwt>0</asrwt>
<pdfrwt beam="1">  1       21 0.25238774E-01 0.12500000E+03</pdfrwt>
<pdfrwt beam="2">  1       21 0.36632374E-02 0.12500000E+03</pdfrwt>
<totfact> 0.66260754E+06</totfact>
</mgrwt>
</event>
<event>
 3    1  0.1604658E-001  0.1250000E+03  0.7546771E-02  0.1235069E+00
         21   -1    0    0  502  501  0.00000000000E+00  0.00000000000E+00  0.16945181358E+02  0.16945181358E+02  0.00000000000E+00 0. -1.
         21   -1    0    0  501  502 -0.00000000000E+00 -0.00000000000E+00 -0.23052276146E+03  0.23052276146E+03  0.00000000000E+00 0. -1.
         25    1    1    2    0    0  0.00000000000E+00  0.00000000000E+00 -0.21357758010E+03  0.24746794282E+03  0.12500000000E+03 0.  0.
<mgrwt>
<rscale>  0 0.12500000E+03</rscale>
<asrwt>0</asrwt>
<pdfrwt beam="1">  1       21 0.26069512E-02 0.12500000E+03</pdfrwt>
<pdfrwt beam="2">  1       21 0.35465037E-01 0.12500000E+03</pdfrwt>
<totfact> 0.60117403E+06</totfact>
</mgrwt>
</event>
<event>
 3    1  0.1604658E-001  0.1250000E+03  0.7546771E-02  0.1235069E+00
         21   -1    0    0  502  501  0.00000000000E+00  0.00000000000E+00  0.19787241465E+02  0.19787241465E+02  0.00000000000E+00 0. -1.
         21   -1    0    0  501  502 -0.00000000000E+00 -0.00000000000E+00 -0.19741256035E+03  0.19741256035E+03  0.00000000000E+00 0. -1.
         25    1    1    2    0    0  0.00000000000E+00  0.00000000000E+00 -0.17762531889E+03  0.21719980182E+03  0.12500000000E+03 0.  0.
<mgrwt>
<rscale>  0 0.12500000E+03</rscale>
<asrwt>0</asrwt>
<pdfrwt beam="1">  1       21 0.30441910E-02 0.12500000E+03</pdfrwt>
<pdfrwt beam="2">  1       21 0.30371163E-01 0.12500000E+03</pdfrwt>
<totfact> 0.63109905E+06</totfact>
</mgrwt>
</event>
<event>
 3    1  0.1604658E-001  0.1250000E+03  0.7546771E-02  0.1235069E+00
         21   -1    0    0  502  501  0.00000000000E+00  0.00000000000E+00  0.69550207944E+01  0.69550207944E+01  0.00000000000E+00 0.  1.
         21   -1    0    0  501  502 -0.00000000000E+00 -0.00000000000E+00 -0.56164461839E+03  0.56164461839E+03  0.00000000000E+00 0.  1.
         25    1    1    2    0    0  0.00000000000E+00  0.00000000000E+00 -0.55468959760E+03  0.56859963919E+03  0.12500000000E+03 0.  0.
<mgrwt>
<rscale>  0 0.12500000E+03</rscale>
<asrwt>0</asrwt>
<pdfrwt beam="1">  1       21 0.10700032E-02 0.12500000E+03</pdfrwt>
<pdfrwt beam="2">  1       21 0.86406862E-01 0.12500000E+03</pdfrwt>
<totfact> 0.38552300E+06</totfact>
</mgrwt>
</event>
<event>
 3    1  0.1604658E-001  0.1250000E+03  0.7546771E-02  0.1235069E+00
         21   -1    0    0  502  501  0.00000000000E+00  0.00000000000E+00  0.26589375741E+03  0.26589375741E+03  0.00000000000E+00 0. -1.
         21   -1    0    0  501  502 -0.00000000000E+00 -0.00000000000E+00 -0.14691018089E+02  0.14691018089E+02  0.00000000000E+00 0. -1.
         25    1    1    2    0    0  0.00000000000E+00  0.00000000000E+00  0.25120273932E+03  0.28058477550E+03  0.12500000000E+03 0.  0.
<mgrwt>
<rscale>  0 0.12500000E+03</rscale>
<asrwt>0</asrwt>
<pdfrwt beam="1">  1       21 0.40906728E-01 0.12500000E+03</pdfrwt>
<pdfrwt beam="2">  1       21 0.22601568E-02 0.12500000E+03</pdfrwt>
<totfact> 0.57109265E+06</totfact>
</mgrwt>
</event>
<event>
 3    1  0.1604658E-001  0.1250000E+03  0.7546771E-02  0.1235069E+00
         21   -1    0    0  502  501  0.00000000000E+00  0.00000000000E+00  0.10007870414E+03  0.10007870414E+03  0.00000000000E+00 0. -1.
         21   -1    0    0  501  502 -0.00000000000E+00 -0.00000000000E+00 -0.39031780371E+02  0.39031780371E+02  0.00000000000E+00 0. -1.
         25    1    1    2    0    0  0.00000000000E+00  0.00000000000E+00  0.61046923773E+02  0.13911048452E+03  0.12500000000E+03 0.  0.
<mgrwt>
<rscale>  0 0.12500000E+03</rscale>
<asrwt>0</asrwt>
<pdfrwt beam="1">  1       21 0.15396724E-01 0.12500000E+03</pdfrwt>
<pdfrwt beam="2">  1       21 0.60048893E-02 0.12500000E+03</pdfrwt>
<totfact> 0.72155646E+06</totfact>
</mgrwt>
</event>
<event>
 3    1  0.1604658E-001  0.1250000E+03  0.7546771E-02  0.1235069E+00
         21   -1    0    0  502  501  0.00000000000E+00  0.00000000000E+00  0.75578104664E+02  0.75578104664E+02  0.00000000000E+00 0. -1.
         21   -1    0    0  501  502 -0.00000000000E+00 -0.00000000000E+00 -0.51684942582E+02  0.51684942582E+02  0.00000000000E+00 0. -1.
         25    1    1    2    0    0  0.00000000000E+00  0.00000000000E+00  0.23893162082E+02  0.12726304725E+03  0.12500000000E+03 0.  0.
<mgrwt>
<rscale>  0 0.12500000E+03</rscale>
<asrwt>0</asrwt>
<pdfrwt beam="1">  1       21 0.11627401E-01 0.12500000E+03</pdfrwt>
<pdfrwt beam="2">  1       21 0.79515297E-02 0.12500000E+03</pdfrwt>
<totfact> 0.73733370E+06</totfact>
</mgrwt>
</event>
<event>
 3    1  0.1604658E-001  0.1250000E+03  0.7546771E-02  0.1235069E+00
         21   -1    0    0  502  501  0.00000000000E+00  0.00000000000E+00  0.27645617185E+03  0.27645617185E+03  0.00000000000E+00 0.  1.
         21   -1    0    0  501  502 -0.00000000000E+00 -0.00000000000E+00 -0.14129726147E+02  0.14129726147E+02  0.00000000000E+00 0.  1.
         25    1    1    2    0    0  0.00000000000E+00  0.00000000000E+00  0.26232644570E+03  0.29058589800E+03  0.12500000000E+03 0.  0.
<mgrwt>
<rscale>  0 0.12500000E+03</rscale>
<asrwt>0</asrwt>
<pdfrwt beam="1">  1       21 0.42531715E-01 0.12500000E+03</pdfrwt>
<pdfrwt beam="2">  1       21 0.21738042E-02 0.12500000E+03</pdfrwt>
<totfact> 0.56247712E+06</totfact>
</mgrwt>
</event>
<event>
 3    1  0.1604658E-001  0.1250000E+03  0.7546771E-02  0.1235069E+00
         21   -1    0    0  502  501  0.00000000000E+00  0.00000000000E+00  0.64282459008E+01  0.64282459008E+01  0.00000000000E+00 0.  1.
         21   -1    0    0  501  502 -0.00000000000E+00 -0.00000000000E+00 -0.60766965986E+03  0.60766965986E+03  0.00000000000E+00 0.  1.
         25    1    1    2    0    0  0.00000000000E+00  0.00000000000E+00 -0.60124141396E+03  0.61409790576E+03  0.12500000000E+03 0.  0.
<mgrwt>
<rscale>  0 0.12500000E+03</rscale>
<asrwt>0</asrwt>
<pdfrwt beam="1">  1       21 0.98896068E-03 0.12500000E+03</pdfrwt>
<pdfrwt beam="2">  1       21 0.93487662E-01 0.12500000E+03</pdfrwt>
<totfact> 0.36462728E+06</totfact>
</mgrwt>
</event>
<event>
 3    1  0.1604658E-001  0.1250000E+03  0.7546771E-02  0.1235069E+00
         21   -1    0    0  502  501  0.00000000000E+00  0.00000000000E+00  0.84346514780E+02  0.84346514780E+02  0.00000000000E+00 0.  1.
         21   -1    0    0  501  502 -0.00000000000E+00 -0.00000000000E+00 -0.46311931325E+02  0.46311931325E+02  0.00000000000E+00 0.  1.
         25    1    1    2    0    0  0.00000000000E+00  0.00000000000E+00  0.38034583456E+02  0.13065844611E+03  0.12500000000E+03 0.  0.
<mgrwt>
<rscale>  0 0.12500000E+03</rscale>
<asrwt>0</asrwt>
<pdfrwt beam="1">  1       21 0.12976387E-01 0.12500000E+03</pdfrwt>
<pdfrwt beam="2">  1       21 0.71249125E-02 0.12500000E+03</pdfrwt>
<totfact> 0.73276736E+06</totfact>
</mgrwt>
</event>
<event>
 3    1  0.1604658E-001  0.1250000E+03  0.7546771E-02  0.1235069E+00
         21   -1    0    0  502  501  0.00000000000E+00  0.00000000000E+00  0.20849008156E+01  0.20849008156E+01  0.00000000000E+00 0. -1.
         21   -1    0    0  501  502 -0.00000000000E+00 -0.00000000000E+00 -0.18735903266E+04  0.18735903266E+04  0.00000000000E+00 0. -1.
         25    1    1    2    0    0  0.00000000000E+00  0.00000000000E+00 -0.18715054258E+04  0.18756752274E+04  0.12500000000E+03 0.  0.
<mgrwt>
<rscale>  0 0.12500000E+03</rscale>
<asrwt>0</asrwt>
<pdfrwt beam="1">  1       21 0.32075569E-03 0.12500000E+03</pdfrwt>
<pdfrwt beam="2">  1       21 0.28824312E+00 0.12500000E+03</pdfrwt>
<totfact> 0.92256469E+05</totfact>
</mgrwt>
</event>
<event>
 3    1  0.1604658E-001  0.1250000E+03  0.7546771E-02  0.1235069E+00
         21   -1    0    0  502  501  0.00000000000E+00  0.00000000000E+00  0.43312033285E+01  0.43312033285E+01  0.00000000000E+00 0.  1.
         21   -1    0    0  501  502 -0.00000000000E+00 -0.00000000000E+00 -0.90188562017E+03  0.90188562017E+03  0.00000000000E+00 0.  1.
         25    1    1    2    0    0  0.00000000000E+00  0.00000000000E+00 -0.89755441684E+03  0.90621682350E+03  0.12500000000E+03 0.  0.
<mgrwt>
<rscale>  0 0.12500000E+03</rscale>
<asrwt>0</asrwt>
<pdfrwt beam="1">  1       21 0.66633855E-03 0.12500000E+03</pdfrwt>
<pdfrwt beam="2">  1       21 0.13875172E+00 0.12500000E+03</pdfrwt>
<totfact> 0.26121132E+06</totfact>
</mgrwt>
</event>
<event>
 3    1  0.1604658E-001  0.1250000E+03  0.7546771E-02  0.1235069E+00
         21   -1    0    0  502  501  0.00000000000E+00  0.00000000000E+00  0.43092814249E+03  0.43092814249E+03  0.00000000000E+00 0.  1.
         21   -1    0    0  501  502 -0.00000000000E+00 -0.00000000000E+00 -0.90647363558E+01  0.90647363558E+01  0.00000000000E+00 0.  1.
         25    1    1    2    0    0  0.00000000000E+00  0.00000000000E+00  0.42186340614E+03  0.43999287885E+03  0.12500000000E+03 0.  0.
<mgrwt>
<rscale>  0 0.12500000E+03</rscale>
<asrwt>0</asrwt>
<pdfrwt beam="1">  1       21 0.66296621E-01 0.12500000E+03</pdfrwt>
<pdfrwt beam="2">  1       21 0.13945752E-02 0.12500000E+03</pdfrwt>
<totfact> 0.45497065E+06</totfact>
</mgrwt>
</event>
<event>
 3    1  0.1604658E-001  0.1250000E+03  0.7546771E-02  0.1235069E+00
         21   -1    0    0  502  501  0.00000000000E+00  0.00000000000E+00  0.30130781989E+03  0.30130781989E+03  0.00000000000E+00 0. -1.
         21   -1    0    0  501  502 -0.00000000000E+00 -0.00000000000E+00 -0.12964316696E+02  0.12964316696E+02  0.00000000000E+00 0. -1.
         25    1    1    2    0    0  0.00000000000E+00  0.00000000000E+00  0.28834350319E+03  0.31427213658E+03  0.12500000000E+03 0.  0.
<mgrwt>
<rscale>  0 0.12500000E+03</rscale>
<asrwt>0</asrwt>
<pdfrwt beam="1">  1       21 0.46355044E-01 0.12500000E+03</pdfrwt>
<pdfrwt beam="2">  1       21 0.19945105E-02 0.12500000E+03</pdfrwt>
<totfact> 0.54290393E+06</totfact>
</mgrwt>
</event>
<event>
 3    1  0.1604658E-001  0.1250000E+03  0.7546771E-02  0.1235069E+00
         21   -1    0    0  502  501  0.00000000000E+00  0.00000000000E+00  0.74553316493E+02  0.74553316493E+02  0.00000000000E+00 0. -1.
         21   -1    0    0  501  502 -0.00000000000E+00 -0.00000000000E+00 -0.52395388747E+02  0.52395388747E+02  0.00000000000E+00 0. -1.
         25    1    1    2    0    0  0.00000000000E+00  0.00000000000E+00  0.22157927746E+02  0.12694870524E+03  0.12500000000E+03 0.  0.
<mgrwt>
<rscale>  0 0.12500000E+03</rscale>
<asrwt>0</asrwt>
<pdfrwt beam="1">  1       21 0.11469741E-01 0.12500000E+03</pdfrwt>
<pdfrwt beam="2">  1       21 0.80608290E-02 0.12500000E+03</pdfrwt>
<totfact> 0.73776121E+06</totfact>
</mgrwt>
</event>
<event>
 3    1  0.1604658E-001  0.1250000E+03  0.7546771E-02  0.1235069E+00
         21   -1    0    0  502  501  0.00000000000E+00  0.00000000000E+00  0.96714167500E+01  0.96714167500E+01  0.00000000000E+00 0. -1.
         21   -1    0    0  501  502 -0.00000000000E+00 -0.00000000000E+00 -0.40389635779E+03  0.40389635779E+03  0.00000000000E+00 0. -1.
         25    1    1    2    0    0  0.00000000000E+00  0.00000000000E+00 -0.39422494104E+03  0.41356777454E+03  0.12500000000E+03 0.  0.
<mgrwt>
<rscale>  0 0.12500000E+03</rscale>
<asrwt>0</asrwt>
<pdfrwt beam="1">  1       21 0.14879103E-02 0.12500000E+03</pdfrwt>
<pdfrwt beam="2">  1       21 0.62137900E-01 0.12500000E+03</pdfrwt>
<totfact> 0.47154247E+06</totfact>
</mgrwt>
</event>
<event>
 3    1  0.1604658E-001  0.1250000E+03  0.7546771E-02  0.1235069E+00
         21   -1    0    0  502  501  0.00000000000E+00  0.00000000000E+00  0.93955841650E+01  0.93955841650E+01  0.00000000000E+00 0. -1.
         21   -1    0    0  501  502 -0.00000000000E+00 -0.00000000000E+00 -0.41575381918E+03  0.41575381918E+03  0.00000000000E+00 0. -1.
         25    1    1    2    0    0  0.00000000000E+00  0.00000000000E+00 -0.40635823501E+03  0.42514940334E+03  0.12500000000E+03 0.  0.
<mgrwt>
<rscale>  0 0.12500000E+03</rscale>
<asrwt>0</asrwt>
<pdfrwt beam="1">  1       21 0.14454748E-02 0.12500000E+03</pdfrwt>
<pdfrwt beam="2">  1       21 0.63962110E-01 0.12500000E+03</pdfrwt>
<totfact> 0.46416767E+06</totfact>
</mgrwt>
</event>
<event>
 3    1  0.1604658E-001  0.1250000E+03  0.7546771E-02  0.1235069E+00
         21   -1    0    0  502  501  0.00000000000E+00  0.00000000000E+00  0.54726153765E+01  0.54726153765E+01  0.00000000000E+00 0. -1.
         21   -1    0    0  501  502 -0.00000000000E+00 -0.00000000000E+00 -0.71378120537E+03  0.71378120537E+03  0.00000000000E+00 0. -1.
         25    1    1    2    0    0  0.00000000000E+00  0.00000000000E+00 -0.70830859000E+03  0.71925382075E+03  0.12500000000E+03 0.  0.
<mgrwt>
<rscale>  0 0.12500000E+03</rscale>
<asrwt>0</asrwt>
<pdfrwt beam="1">  1       21 0.84194120E-03 0.12500000E+03</pdfrwt>
<pdfrwt beam="2">  1       21 0.10981245E+00 0.12500000E+03</pdfrwt>
<totfact> 0.32180946E+06</totfact>
</mgrwt>
</event>
<event>
 3    1  0.1604658E-001  0.1250000E+03  0.7546771E-02  0.1235069E+00
         21   -1    0    0  502  501  0.00000000000E+00  0.00000000000E+00  0.41370924636E+02  0.41370924636E+02  0.00000000000E+00 0. -1.
         21   -1    0    0  501  502 -0.00000000000E+00 -0.00000000000E+00 -0.94420176352E+02  0.94420176352E+02  0.00000000000E+00 0. -1.
         25    1    1    2    0    0  0.00000000000E+00  0.00000000000E+00 -0.53049251715E+02  0.13579110099E+03  0.12500000000E+03 0.  0.
<mgrwt>
<rscale>  0 0.12500000E+03</rscale>
<asrwt>0</asrwt>
<pdfrwt beam="1">  1       21 0.63647577E-02 0.12500000E+03</pdfrwt>
<pdfrwt beam="2">  1       21 0.14526181E-01 0.12500000E+03</pdfrwt>
<totfact> 0.72591894E+06</totfact>
</mgrwt>
</event>
<event>
 3    1  0.1604658E-001  0.1250000E+03  0.7546771E-02  0.1235069E+00
         21   -1    0    0  502  501  0.00000000000E+00  0.00000000000E+00  0.51361780795E+01  0.51361780795E+01  0.00000000000E+00 0.  1.
         21   -1    0    0  501  502 -0.00000000000E+00 -0.00000000000E+00 -0.76053632479E+03  0.76053632479E+03  0.00000000000E+00 0.  1.
         25    1    1    2    0    0  0.00000000000E+00  0.00000000000E+00 -0.75540014671E+03  0.76567250287E+03  0.12500000000E+03 0.  0.
<mgrwt>
<rscale>  0 0.12500000E+03</rscale>
<asrwt>0</asrwt>
<pdfrwt beam="1">  1       21 0.79018082E-03 0.12500000E+03</pdfrwt>
<pdfrwt beam="2">  1       21 0.11700565E+00 0.12500000E+03</pdfrwt>
<totfact> 0.30525134E+06</totfact>
</mgrwt>
</event>
<event>
 3    1  0.1604658E-001  0.1250000E+03  0.7546771E-02  0.1235069E+00
         21   -1    0    0  502  501  0.00000000000E+00  0.00000000000E+00  0.38552166629E+01  0.38552166629E+01  0.00000000000E+00 0. -1.
         21   -1    0    0  501  502 -0.00000000000E+00 -0.00000000000E+00 -0.10132374757E+04  0.10132374757E+04  0.00000000000E+00 0. -1.
         25    1    1    2    0    0  0.00000000000E+00  0.00000000000E+00 -0.10093822591E+04  0.10170926924E+04  0.12500000000E+03 0.  0.
<mgrwt>
<rscale>  0 0.12500000E+03</rscale>
<asrwt>0</asrwt>
<pdfrwt beam="1">  1       21 0.59310907E-03 0.12500000E+03</pdfrwt>
<pdfrwt beam="2">  1       21 0.15588300E+00 0.12500000E+03</pdfrwt>
<totfact> 0.23195082E+06</totfact>
</mgrwt>
</event>
<event>
 3    1  0.1604658E-001  0.1250000E+03  0.7546771E-02  0.1235069E+00
         21   -1    0    0  502  501  0.00000000000E+00  0.00000000000E+00  0.39572718292E+02  0.39572718292E+02  0.00000000000E+00 0. -1.
         21   -1    0    0  501  502 -0.00000000000E+00 -0.00000000000E+00 -0.98710681718E+02  0.98710681718E+02  0.00000000000E+00 0. -1.
         25    1    1    2    0    0  0.00000000000E+00  0.00000000000E+00 -0.59137963426E+02  0.13828340001E+03  0.12500000000E+03 0.  0.
<mgrwt>
<rscale>  0 0.12500000E+03</rscale>
<asrwt>0</asrwt>
<pdfrwt beam="1">  1       21 0.60881106E-02 0.12500000E+03</pdfrwt>
<pdfrwt beam="2">  1       21 0.15186258E-01 0.12500000E+03</pdfrwt>
<totfact> 0.72264207E+06</totfact>
</mgrwt>
</event>
<event>
 3    1  0.1604658E-001  0.1250000E+03  0.7546771E-02  0.1235069E+00
         21   -1    0    0  502  501  0.00000000000E+00  0.00000000000E+00  0.33587449808E+02  0.33587449808E+02  0.00000000000E+00 0. -1.
         21   -1    0    0  501  502 -0.00000000000E+00 -0.00000000000E+00 -0.11630088090E+03  0.11630088090E+03  0.00000000000E+00 0. -1.
         25    1    1    2    0    0  0.00000000000E+00  0.00000000000E+00 -0.82713431096E+02  0.14988833071E+03  0.12500000000E+03 0.  0.
<mgrwt>
<rscale>  0 0.12500000E+03</rscale>
<asrwt>0</asrwt>
<pdfrwt beam="1">  1       21 0.51672999E-02 0.12500000E+03</pdfrwt>
<pdfrwt beam="2">  1       21 0.17892443E-01 0.12500000E+03</pdfrwt>
<totfact> 0.70773231E+06</totfact>
</mgrwt>
</event>
<event>
 3    1  0.1604658E-001  0.1250000E+03  0.7546771E-02  0.1235069E+00
         21   -1    0    0  502  501  0.00000000000E+00  0.00000000000E+00  0.38170807696E+02  0.38170807696E+02  0.00000000000E+00 0.  1.
         21   -1    0    0  501  502 -0.00000000000E+00 -0.00000000000E+00 -0.10233605825E+03  0.10233605825E+03  0.00000000000E+00 0.  1.
         25    1    1    2    0    0  0.00000000000E+00  0.00000000000E+00 -0.64165250558E+02  0.14050686595E+03  0.12500000000E+03 0.  0.
<mgrwt>
<rscale>  0 0.12500000E+03</rscale>
<asrwt>0</asrwt>
<pdfrwt beam="1">  1       21 0.58724320E-02 0.12500000E+03</pdfrwt>
<pdfrwt beam="2">  1       21 0.15744009E-01 0.12500000E+03</pdfrwt>
<totfact> 0.71973207E+06</totfact>
</mgrwt>
</event>
<event>
 3    1  0.1604658E-001  0.1250000E+03  0.7546771E-02  0.1235069E+00
         21   -1    0    0  502  501  0.00000000000E+00  0.00000000000E+00  0.31102972591E+03  0.31102972591E+03  0.00000000000E+00 0. -1.
         21   -1    0    0  501  502 -0.00000000000E+00 -0.00000000000E+00 -0.12559088970E+02  0.12559088970E+02  0.00000000000E+00 0. -1.
         25    1    1    2    0    0  0.00000000000E+00  0.00000000000E+00  0.29847063695E+03  0.32358881488E+03  0.12500000000E+03 0.  0.
<mgrwt>
<rscale>  0 0.12500000E+03</rscale>
<asrwt>0</asrwt>
<pdfrwt beam="1">  1       21 0.47850721E-01 0.12500000E+03</pdfrwt>
<pdfrwt beam="2">  1       21 0.19321678E-02 0.12500000E+03</pdfrwt>
<totfact> 0.53550170E+06</totfact>
</mgrwt>
</event>
<event>
 3    1  0.1604658E-001  0.1250000E+03  0.7546771E-02  0.1235069E+00
         21   -1    0    0  502  501  0.00000000000E+00  0.00000000000E+00  0.44128380187E+02  0.44128380187E+02  0.00000000000E+00 0. -1.
         21   -1    0    0  501  502 -0.00000000000E+00 -0.00000000000E+00 -0.88520131114E+02  0.88520131114E+02  0.00000000000E+00 0. -1.
         25    1    1    2    0    0  0.00000000000E+00  0.00000000000E+00 -0.44391750927E+02  0.13264851130E+03  0.12500000000E+03 0.  0.
<mgrwt>
<rscale>  0 0.12500000E+03</rscale>
<asrwt>0</asrwt>
<pdfrwt beam="1">  1       21 0.67889817E-02 0.12500000E+03</pdfrwt>
<pdfrwt beam="2">  1       21 0.13618481E-01 0.12500000E+03</pdfrwt>
<totfact> 0.73009370E+06</totfact>
</mgrwt>
</event>
<event>
 3    1  0.1604658E-001  0.1250000E+03  0.7546771E-02  0.1235069E+00
         21   -1    0    0  502  501  0.00000000000E+00  0.00000000000E+00  0.84883515687E+02  0.84883515687E+02  0.00000000000E+00 0. -1.
         21   -1    0    0  501  502 -0.00000000000E+00 -0.00000000000E+00 -0.46018946887E+02  0.46018946887E+02  0.00000000000E+00 0. -1.
         25    1    1    2    0    0  0.00000000000E+00  0.00000000000E+00  0.38864568800E+02  0.13090246257E+03  0.12500000000E+03 0.  0.
<mgrwt>
<rscale>  0 0.12500000E+03</rscale>
<asrwt>0</asrwt>
<pdfrwt beam="1">  1       21 0.13059002E-01 0.12500000E+03</pdfrwt>
<pdfrwt beam="2">  1       21 0.70798380E-02 0.12500000E+03</pdfrwt>
<totfact> 0.73243818E+06</totfact>
</mgrwt>
</event>
<event>
 3    1  0.1604658E-001  0.1250000E+03  0.7546771E-02  0.1235069E+00
         21   -1    0    0  502  501  0.00000000000E+00  0.00000000000E+00  0.52196476054E+02  0.52196476054E+02  0.00000000000E+00 0. -1.
         21   -1    0    0  501  502 -0.00000000000E+00 -0.00000000000E+00 -0.74837427644E+02  0.74837427644E+02  0.00000000000E+00 0. -1.
         25    1    1    2    0    0  0.00000000000E+00  0.00000000000E+00 -0.22640951590E+02  0.12703390370E+03  0.12500000000E+03 0.  0.
<mgrwt>
<rscale>  0 0.12500000E+03</rscale>
<asrwt>0</asrwt>
<pdfrwt beam="1">  1       21 0.80302271E-02 0.12500000E+03</pdfrwt>
<pdfrwt beam="2">  1       21 0.11513450E-01 0.12500000E+03</pdfrwt>
<totfact> 0.73764522E+06</totfact>
</mgrwt>
</event>
<event>
 3    1  0.1604658E-001  0.1250000E+03  0.7546771E-02  0.1235069E+00
         21   -1    0    0  502  501  0.00000000000E+00  0.00000000000E+00  0.23860087875E+02  0.23860087875E+02  0.00000000000E+00 0. -1.
         21   -1    0    0  501  502 -0.00000000000E+00 -0.00000000000E+00 -0.16371482035E+03  0.16371482035E+03  0.00000000000E+00 0. -1.
         25    1    1    2    0    0  0.00000000000E+00  0.00000000000E+00 -0.13985473248E+03  0.18757490823E+03  0.12500000000E+03 0.  0.
<mgrwt>
<rscale>  0 0.12500000E+03</rscale>
<asrwt>0</asrwt>
<pdfrwt beam="1">  1       21 0.36707827E-02 0.12500000E+03</pdfrwt>
<pdfrwt beam="2">  1       21 0.25186896E-01 0.12500000E+03</pdfrwt>
<totfact> 0.66293009E+06</totfact>
</mgrwt>
</event>
<event>
 3    1  0.1604658E-001  0.1250000E+03  0.7546771E-02  0.1235069E+00
         21   -1    0    0  502  501  0.00000000000E+00  0.00000000000E+00  0.16413106882E+03  0.16413106882E+03  0.00000000000E+00 0. -1.
         21   -1    0    0  501  502 -0.00000000000E+00 -0.00000000000E+00 -0.23799576936E+02  0.23799576936E+02  0.00000000000E+00 0. -1.
         25    1    1    2    0    0  0.00000000000E+00  0.00000000000E+00  0.14033149188E+03  0.18793064576E+03  0.12500000000E+03 0.  0.
<mgrwt>
<rscale>  0 0.12500000E+03</rscale>
<asrwt>0</asrwt>
<pdfrwt beam="1">  1       21 0.25250933E-01 0.12500000E+03</pdfrwt>
<pdfrwt beam="2">  1       21 0.36614735E-02 0.12500000E+03</pdfrwt>
<totfact> 0.66253195E+06</totfact>
</mgrwt>
</event>
<event>
 3    1  0.1604658E-001  0.1250000E+03  0.7546771E-02  0.1235069E+00
         21   -1    0    0  502  501  0.00000000000E+00  0.00000000000E+00  0.64525593478E+02  0.64525593478E+02  0.00000000000E+00 0.  1.
         21   -1    0    0  501  502 -0.00000000000E+00 -0.00000000000E+00 -0.60537994142E+02  0.60537994142E+02  0.00000000000E+00 0.  1.
         25    1    1    2    0    0  0.00000000000E+00  0.00000000000E+00  0.39875993358E+01  0.12506358762E+03  0.12500000000E+03 0.  0.
<mgrwt>
<rscale>  0 0.12500000E+03</rscale>
<asrwt>0</asrwt>
<pdfrwt beam="1">  1       21 0.99270143E-02 0.12500000E+03</pdfrwt>
<pdfrwt beam="2">  1       21 0.93135376E-02 0.12500000E+03</pdfrwt>
<totfact> 0.74034993E+06</totfact>
</mgrwt>
</event>
<event>
 3    1  0.1604658E-001  0.1250000E+03  0.7546771E-02  0.1235069E+00
         21   -1    0    0  502  501  0.00000000000E+00  0.00000000000E+00  0.41430565625E+01  0.41430565625E+01  0.00000000000E+00 0.  1.
         21   -1    0    0  501  502 -0.00000000000E+00 -0.00000000000E+00 -0.94284254659E+03  0.94284254659E+03  0.00000000000E+00 0.  1.
         25    1    1    2    0    0  0.00000000000E+00  0.00000000000E+00 -0.93869949002E+03  0.94698560315E+03  0.12500000000E+03 0.  0.
<mgrwt>
<rscale>  0 0.12500000E+03</rscale>
<asrwt>0</asrwt>
<pdfrwt beam="1">  1       21 0.63739371E-03 0.12500000E+03</pdfrwt>
<pdfrwt beam="2">  1       21 0.14505261E+00 0.12500000E+03</pdfrwt>
<totfact> 0.24992301E+06</totfact>
</mgrwt>
</event>
<event>
 3    1  0.1604658E-001  0.1250000E+03  0.7546771E-02  0.1235069E+00
         21   -1    0    0  502  501  0.00000000000E+00  0.00000000000E+00  0.19886967649E+02  0.19886967649E+02  0.00000000000E+00 0. -1.
         21   -1    0    0  501  502 -0.00000000000E+00 -0.00000000000E+00 -0.19642260544E+03  0.19642260544E+03  0.00000000000E+00 0. -1.
         25    1    1    2    0    0  0.00000000000E+00  0.00000000000E+00 -0.17653563779E+03  0.21630957309E+03  0.12500000000E+03 0.  0.
<mgrwt>
<rscale>  0 0.12500000E+03</rscale>
<asrwt>0</asrwt>
<pdfrwt beam="1">  1       21 0.30595334E-02 0.12500000E+03</pdfrwt>
<pdfrwt beam="2">  1       21 0.30218863E-01 0.12500000E+03</pdfrwt>
<totfact> 0.63201749E+06</totfact>
</mgrwt>
</event>
<event>
 3    1  0.1604658E-001  0.1250000E+03  0.7546771E-02  0.1235069E+00
         21   -1    0    0  502  501  0.00000000000E+00  0.00000000000E+00  0.27120639832E+02  0.27120639832E+02  0.00000000000E+00 0. -1.
         21   -1    0    0  501  502 -0.00000000000E+00 -0.00000000000E+00 -0.14403236886E+03  0.14403236886E+03  0.00000000000E+00 0. -1.
         25    1    1    2    0    0  0.00000000000E+00  0.00000000000E+00 -0.11691172903E+03  0.17115300869E+03  0.12500000000E+03 0.  0.
<mgrwt>
<rscale>  0 0.12500000E+03</rscale>
<asrwt>0</asrwt>
<pdfrwt beam="1">  1       21 0.41724061E-02 0.12500000E+03</pdfrwt>
<pdfrwt beam="2">  1       21 0.22158826E-01 0.12500000E+03</pdfrwt>
<totfact> 0.68181215E+06</totfact>
</mgrwt>
</event>
<event>
 3    1  0.1604658E-001  0.1250000E+03  0.7546771E-02  0.1235069E+00
         21   -1    0    0  502  501  0.00000000000E+00  0.00000000000E+00  0.16283272677E+03  0.16283272677E+03  0.00000000000E+00 0.  1.
         21   -1    0    0  501  502 -0.00000000000E+00 -0.00000000000E+00 -0.23989342177E+02  0.23989342177E+02  0.00000000000E+00 0.  1.
         25    1    1    2    0    0  0.00000000000E+00  0.00000000000E+00  0.13884338459E+03  0.18682206894E+03  0.12500000000E+03 0.  0.
<mgrwt>
<rscale>  0 0.12500000E+03</rscale>
<asrwt>0</asrwt>
<pdfrwt beam="1">  1       21 0.25051188E-01 0.12500000E+03</pdfrwt>
<pdfrwt beam="2">  1       21 0.36906681E-02 0.12500000E+03</pdfrwt>
<totfact> 0.66377416E+06</totfact>
</mgrwt>
</event>
<event>
 3    1  0.1604658E-001  0.1250000E+03  0.7546771E-02  0.1235069E+00
         21   -1    0    0  502  501  0.00000000000E+00  0.00000000000E+00  0.72837807166E+02  0.72837807166E+02  0.00000000000E+00 0. -1.
         21   -1    0    0  501  502 -0.00000000000E+00 -0.00000000000E+00 -0.53629428891E+02  0.53629428891E+02  0.00000000000E+00 0. -1.
         25    1    1    2    0    0  0.00000000000E+00  0.00000000000E+00  0.19208378274E+02  0.12646723606E+03  0.12500000000E+03 0.  0.
<mgrwt>
<rscale>  0 0.12500000E+03</rscale>
<asrwt>0</asrwt>
<pdfrwt beam="1">  1       21 0.11205817E-01 0.12500000E+03</pdfrwt>
<pdfrwt beam="2">  1       21 0.82506813E-02 0.12500000E+03</pdfrwt>
<totfact> 0.73841858E+06</totfact>
</mgrwt>
</event>
<event>
 3    1  0.1604658E-001  0.1250000E+03  0.7546771E-02  0.1235069E+00
         21   -1    0    0  502  501  0.00000000000E+00  0.00000000000E+00  0.33903875151E+03  0.33903875151E+03  0.00000000000E+00 0. -1.
         21   -1    0    0  501  502 -0.00000000000E+00 -0.00000000000E+00 -0.11521544315E+02  0.11521544315E+02  0.00000000000E+00 0. -1.
         25    1    1    2    0    0  0.00000000000E+00  0.00000000000E+00  0.32751720720E+03  0.35056029583E+03  0.12500000000E+03 0.  0.
<mgrwt>
<rscale>  0 0.12500000E+03</rscale>
<asrwt>0</asrwt>
<pdfrwt beam="1">  1       21 0.52159800E-01 0.12500000E+03</pdfrwt>
<pdfrwt beam="2">  1       21 0.17725455E-02 0.12500000E+03</pdfrwt>
<totfact> 0.51497082E+06</totfact>
</mgrwt>
</event>
<event>
 3    1  0.1604658E-001  0.1250000E+03  0.7546771E-02  0.1235069E+00
         21   -1    0    0  502  501  0.00000000000E+00  0.00000000000E+00  0.17107093857E+02  0.17107093857E+02  0.00000000000E+00 0.  1.
         21   -1    0    0  501  502 -0.00000000000E+00 -0.00000000000E+00 -0.22834094632E+03  0.22834094632E+03  0.00000000000E+00 0.  1.
         25    1    1    2    0    0  0.00000000000E+00  0.00000000000E+00 -0.21123385246E+03  0.24544804018E+03  0.12500000000E+03 0.  0.
<mgrwt>
<rscale>  0 0.12500000E+03</rscale>
<asrwt>0</asrwt>
<pdfrwt beam="1">  1       21 0.26318607E-02 0.12500000E+03</pdfrwt>
<pdfrwt beam="2">  1       21 0.35129375E-01 0.12500000E+03</pdfrwt>
<totfact> 0.60309417E+06</totfact>
</mgrwt>
</event>
<event>
 3    1  0.1604658E-001  0.1250000E+03  0.7546771E-02  0.1235069E+00
         21   -1    0    0  502  501  0.00000000000E+00  0.00000000000E+00  0.28863553539E+02  0.28863553539E+02  0.00000000000E+00 0.  1.
         21   -1    0    0  501  502 -0.00000000000E+00 -0.00000000000E+00 -0.13533503401E+03  0.13533503401E+03  0.00000000000E+00 0.  1.
         25    1    1    2    0    0  0.00000000000E+00  0.00000000000E+00 -0.10647148047E+03  0.16419858755E+03  0.12500000000E+03 0.  0.
<mgrwt>
<rscale>  0 0.12500000E+03</rscale>
<asrwt>0</asrwt>
<pdfrwt beam="1">  1       21 0.44405466E-02 0.12500000E+03</pdfrwt>
<pdfrwt beam="2">  1       21 0.20820775E-01 0.12500000E+03</pdfrwt>
<totfact> 0.69010078E+06</totfact>
</mgrwt>
</event>
<event>
 3    1  0.1604658E-001  0.1250000E+03  0.7546771E-02  0.1235069E+00
         21   -1    0    0  502  501  0.00000000000E+00  0.00000000000E+00  0.86899138004E+01  0.86899138004E+01  0.00000000000E+00 0.  1.
         21   -1    0    0  501  502 -0.00000000000E+00 -0.00000000000E+00 -0.44951539103E+03  0.44951539103E+03  0.00000000000E+00 0.  1.
         25    1    1    2    0    0  0.00000000000E+00  0.00000000000E+00 -0.44082547723E+03  0.45820530483E+03  0.12500000000E+03 0.  0.
<mgrwt>
<rscale>  0 0.12500000E+03</rscale>
<asrwt>0</asrwt>
<pdfrwt beam="1">  1       21 0.13369094E-02 0.12500000E+03</pdfrwt>
<pdfrwt beam="2">  1       21 0.69156234E-01 0.12500000E+03</pdfrwt>
<totfact> 0.44405311E+06</totfact>
</mgrwt>
</event>
<event>
 3    1  0.1604658E-001  0.1250000E+03  0.7546771E-02  0.1235069E+00
         21   -1    0    0  502  501  0.00000000000E+00  0.00000000000E+00  0.10471166153E+03  0.10471166153E+03  0.00000000000E+00 0. -1.
         21   -1    0    0  501  502 -0.00000000000E+00 -0.00000000000E+00 -0.37304823007E+02  0.37304823007E+02  0.00000000000E+00 0. -1.
         25    1    1    2    0    0  0.00000000000E+00  0.00000000000E+00  0.67406838518E+02  0.14201648453E+03  0.12500000000E+03 0.  0.
<mgrwt>
<rscale>  0 0.12500000E+03</rscale>
<asrwt>0</asrwt>
<pdfrwt beam="1">  1       21 0.16109486E-01 0.12500000E+03</pdfrwt>
<pdfrwt beam="2">  1       21 0.57392036E-02 0.12500000E+03</pdfrwt>
<totfact> 0.71777142E+06</totfact>
</mgrwt>
</event>
<event>
 3    1  0.1604658E-001  0.1250000E+03  0.7546771E-02  0.1235069E+00
         21   -1    0    0  502  501  0.00000000000E+00  0.00000000000E+00  0.65049331346E+02  0.65049331346E+02  0.00000000000E+00 0.  1.
         21   -1    0    0  501  502 -0.00000000000E+00 -0.00000000000E+00 -0.60050578833E+02  0.60050578833E+02  0.00000000000E+00 0.  1.
         25    1    1    2    0    0  0.00000000000E+00  0.00000000000E+00  0.49987525125E+01  0.12509991018E+03  0.12500000000E+03 0.  0.
<mgrwt>
<rscale>  0 0.12500000E+03</rscale>
<asrwt>0</asrwt>
<pdfrwt beam="1">  1       21 0.10007589E-01 0.12500000E+03</pdfrwt>
<pdfrwt beam="2">  1       21 0.92385507E-02 0.12500000E+03</pdfrwt>
<totfact> 0.74030087E+06</totfact>
</mgrwt>
</event>
<event>
 3    1  0.1604658E-001  0.1250000E+03  0.7546771E-02  0.1235069E+00
         21   -1    0    0  502  501  0.00000000000E+00  0.00000000000E+00  0.53430016351E+01  0.53430016351E+01  0.00000000000E+00 0. -1.
         21   -1    0    0  501  502 -0.00000000000E+00 -0.00000000000E+00 -0.73109653839E+03  0.73109653839E+03  0.00000000000E+00 0. -1.
         25    1    1    2    0    0  0.00000000000E+00  0.00000000000E+00 -0.72575353675E+03  0.73643954002E+03  0.12500000000E+03 0.  0.
<mgrwt>
<rscale>  0 0.12500000E+03</rscale>
<asrwt>0</asrwt>
<pdfrwt beam="1">  1       21 0.82200039E-03 0.12500000E+03</pdfrwt>
<pdfrwt beam="2">  1       21 0.11247637E+00 0.12500000E+03</pdfrwt>
<totfact> 0.31551654E+06</totfact>
</mgrwt>
</event>
<event>
 3    1  0.1604658E-001  0.1250000E+03  0.7546771E-02  0.1235069E+00
         21   -1    0    0  502  501  0.00000000000E+00  0.00000000000E+00  0.19070956936E+02  0.19070956936E+02  0.00000000000E+00 0. -1.
         21   -1    0    0  501  502 -0.00000000000E+00 -0.00000000000E+00 -0.20482716274E+03  0.20482716274E+03  0.00000000000E+00 0. -1.
         25    1    1    2    0    0  0.00000000000E+00  0.00000000000E+00 -0.18575620580E+03  0.22389811968E+03  0.12500000000E+03 0.  0.
<mgrwt>
<rscale>  0 0.12500000E+03</rscale>
<asrwt>0</asrwt>
<pdfrwt beam="1">  1       21 0.29339933E-02 0.12500000E+03</pdfrwt>
<pdfrwt beam="2">  1       21 0.31511872E-01 0.12500000E+03</pdfrwt>
<totfact> 0.62426303E+06</totfact>
</mgrwt>
</event>
<event>
 3    1  0.1604658E-001  0.1250000E+03  0.7546771E-02  0.1235069E+00
         21   -1    0    0  502  501  0.00000000000E+00  0.00000000000E+00  0.47761222872E+01  0.47761222872E+01  0.00000000000E+00 0.  1.
         21   -1    0    0  501  502 -0.00000000000E+00 -0.00000000000E+00 -0.81787059984E+03  0.81787059984E+03  0.00000000000E+00 0.  1.
         25    1    1    2    0    0  0.00000000000E+00  0.00000000000E+00 -0.81309447756E+03  0.82264672213E+03  0.12500000000E+03 0.  0.
<mgrwt>
<rscale>  0 0.12500000E+03</rscale>
<asrwt>0</asrwt>
<pdfrwt beam="1">  1       21 0.73478733E-03 0.12500000E+03</pdfrwt>
<pdfrwt beam="2">  1       21 0.12582637E+00 0.12500000E+03</pdfrwt>
<totfact> 0.28626073E+06</totfact>
</mgrwt>
</event>
<event>
 3    1  0.1604658E-001  0.1250000E+03  0.7546771E-02  0.1235069E+00
         21   -1    0    0  502  501  0.00000000000E+00  0.00000000000E+00  0.56344423580E+02  0.56344423580E+02  0.00000000000E+00 0.  1.
         21   -1    0    0  501  502 -0.00000000000E+00 -0.00000000000E+00 -0.69328067479E+02  0.69328067479E+02  0.00000000000E+00 0.  1.
         25    1    1    2    0    0  0.00000000000E+00  0.00000000000E+00 -0.12983643899E+02  0.12567249106E+03  0.12500000000E+03 0.  0.
<mgrwt>
<rscale>  0 0.12500000E+03</rscale>
<asrwt>0</asrwt>
<pdfrwt beam="1">  1       21 0.86683728E-02 0.12500000E+03</pdfrwt>
<pdfrwt beam="2">  1       21 0.10665857E-01 0.12500000E+03</pdfrwt>
<totfact> 0.73951358E+06</totfact>
</mgrwt>
</event>
<event>
 3    1  0.1604658E-001  0.1250000E+03  0.7546771E-02  0.1235069E+00
         21   -1    0    0  502  501  0.00000000000E+00  0.00000000000E+00  0.16074262946E+03  0.16074262946E+03  0.00000000000E+00 0.  1.
         21   -1    0    0  501  502 -0.00000000000E+00 -0.00000000000E+00 -0.24301269758E+02  0.24301269758E+02  0.00000000000E+00 0.  1.
         25    1    1    2    0    0  0.00000000000E+00  0.00000000000E+00  0.13644135970E+03  0.18504389922E+03  0.12500000000E+03 0.  0.
<mgrwt>
<rscale>  0 0.12500000E+03</rscale>
<asrwt>0</asrwt>
<pdfrwt beam="1">  1       21 0.24729635E-01 0.12500000E+03</pdfrwt>
<pdfrwt beam="2">  1       21 0.37386570E-02 0.12500000E+03</pdfrwt>
<totfact> 0.66577574E+06</totfact>
</mgrwt>
</event>
<event>
 3    1  0.1604658E-001  0.1250000E+03  0.7546771E-02  0.1235069E+00
         21   -1    0    0  502  501  0.00000000000E+00  0.00000000000E+00  0.64210201064E+02  0.64210201064E+02  0.00000000000E+00 0.  1.
         21   -1    0    0  501  502 -0.00000000000E+00 -0.00000000000E+00 -0.60835349138E+02  0.60835349138E+02  0.00000000000E+00 0.  1.
         25    1    1    2    0    0  0.00000000000E+00  0.00000000000E+00  0.33748519258E+01  0.12504555020E+03  0.12500000000E+03 0.  0.
<mgrwt>
<rscale>  0 0.12500000E+03</rscale>
<asrwt>0</asrwt>
<pdfrwt beam="1">  1       21 0.98784925E-02 0.12500000E+03</pdfrwt>
<pdfrwt beam="2">  1       21 0.93592844E-02 0.12500000E+03</pdfrwt>
<totfact> 0.74037429E+06</totfact>
</mgrwt>
</event>
<event>
 3    1  0.1604658E-001  0.1250000E+03  0.7546771E-02  0.1235069E+00
         21   -1    0    0  502  501  0.00000000000E+00  0.00000000000E+00  0.18256581260E+02  0.18256581260E+02  0.00000000000E+00 0.  1.
         21   -1    0    0  501  502 -0.00000000000E+00 -0.00000000000E+00 -0.21396393686E+03  0.21396393686E+03  0.00000000000E+00 0.  1.
         25    1    1    2    0    0  0.00000000000E+00  0.00000000000E+00 -0.19570735560E+03  0.23222051812E+03  0.12500000000E+03 0.  0.
<mgrwt>
<rscale>  0 0.12500000E+03</rscale>
<asrwt>0</asrwt>
<pdfrwt beam="1">  1       21 0.28087049E-02 0.12500000E+03</pdfrwt>
<pdfrwt beam="2">  1       21 0.32917528E-01 0.12500000E+03</pdfrwt>
<totfact> 0.61593691E+06</totfact>
</mgrwt>
</event>
<event>
 3    1  0.1604658E-001  0.1250000E+03  0.7546771E-02  0.1235069E+00
         21   -1    0    0  502  501  0.00000000000E+00  0.00000000000E+00  0.23088520608E+03  0.23088520608E+03  0.00000000000E+00 0.  1.
         21   -1    0    0  501  502 -0.00000000000E+00 -0.00000000000E+00 -0.16918580737E+02  0.16918580737E+02  0.00000000000E+00 0.  1.
         25    1    1    2    0    0  0.00000000000E+00  0.00000000000E+00  0.21396662535E+03  0.24780378682E+03  0.12500000000E+03 0.  0.
<mgrwt>
<rscale>  0 0.12500000E+03</rscale>
<asrwt>0</asrwt>
<pdfrwt beam="1">  1       21 0.35520799E-01 0.12500000E+03</pdfrwt>
<pdfrwt beam="2">  1       21 0.26028587E-02 0.12500000E+03</pdfrwt>
<totfact> 0.60085579E+06</totfact>
</mgrwt>
</event>
<event>
 3    1  0.1604658E-001  0.1250000E+03  0.7546771E-02  0.1235069E+00
         21   -1    0    0  502  501  0.00000000000E+00  0.00000000000E+00  0.12847948448E+02  0.12847948448E+02  0.00000000000E+00 0. -1.
         21   -1    0    0  501  502 -0.00000000000E+00 -0.00000000000E+00 -0.30403686750E+03  0.30403686750E+03  0.00000000000E+00 0. -1.
         25    1    1    2    0    0  0.00000000000E+00  0.00000000000E+00 -0.29118891906E+03  0.31688481595E+03  0.12500000000E+03 0.  0.
<mgrwt>
<rscale>  0 0.12500000E+03</rscale>
<asrwt>0</asrwt>
<pdfrwt beam="1">  1       21 0.19766075E-02 0.12500000E+03</pdfrwt>
<pdfrwt beam="2">  1       21 0.46774902E-01 0.12500000E+03</pdfrwt>
<totfact> 0.54081132E+06</totfact>
</mgrwt>
</event>
<event>
 3    1  0.1604658E-001  0.1250000E+03  0.7546771E-02  0.1235069E+00
         21   -1    0    0  502  501  0.00000000000E+00  0.00000000000E+00  0.48740500865E+01  0.48740500865E+01  0.00000000000E+00 0. -1.
         21   -1    0    0  501  502 -0.00000000000E+00 -0.00000000000E+00 -0.80143821477E+03  0.80143821477E+03  0.00000000000E+00 0. -1.
         25    1    1    2    0    0  0.00000000000E+00  0.00000000000E+00 -0.79656416468E+03  0.80631226485E+03  0.12500000000E+03 0.  0.
<mgrwt>
<rscale>  0 0.12500000E+03</rscale>
<asrwt>0</asrwt>
<pdfrwt beam="1">  1       21 0.74985361E-03 0.12500000E+03</pdfrwt>
<pdfrwt beam="2">  1       21 0.12329823E+00 0.12500000E+03</pdfrwt>
<totfact> 0.29154728E+06</totfact>
</mgrwt>
</event>
<event>
 3    1  0.1604658E-001  0.1250000E+03  0.7546771E-02  0.1235069E+00
         21   -1    0    0  502  501  0.00000000000E+00  0.00000000000E+00  0.58076010568E+02  0.58076010568E+02  0.00000000000E+00 0.  1.
         21   -1    0    0  501  502 -0.00000000000E+00 -0.00000000000E+00 -0.67260990584E+02  0.67260990584E+02  0.00000000000E+00 0.  1.
         25    1    1    2    0    0  0.00000000000E+00  0.00000000000E+00 -0.91849800160E+01  0.12533700115E+03  0.12500000000E+03 0.  0.
<mgrwt>
<rscale>  0 0.12500000E+03</rscale>
<asrwt>0</asrwt>
<pdfrwt beam="1">  1       21 0.89347709E-02 0.12500000E+03</pdfrwt>
<pdfrwt beam="2">  1       21 0.10347845E-01 0.12500000E+03</pdfrwt>
<totfact> 0.73998077E+06</totfact>
</mgrwt>
</event>
<event>
 3    1  0.1604658E-001  0.1250000E+03  0.7546771E-02  0.1235069E+00
         21   -1    0    0  502  501  0.00000000000E+00  0.00000000000E+00  0.24084124700E+03  0.24084124700E+03  0.00000000000E+00 0.  1.
         21   -1    0    0  501  502 -0.00000000000E+00 -0.00000000000E+00 -0.16219190229E+02  0.16219190229E+02  0.00000000000E+00 0.  1.
         25    1    1    2    0    0  0.00000000000E+00  0.00000000000E+00  0.22462205677E+03  0.25706043723E+03  0.12500000000E+03 0.  0.
<mgrwt>
<rscale>  0 0.12500000E+03</rscale>
<asrwt>0</asrwt>
<pdfrwt beam="1">  1       21 0.37052497E-01 0.12500000E+03</pdfrwt>
<pdfrwt beam="2">  1       21 0.24952602E-02 0.12500000E+03</pdfrwt>
<totfact> 0.59219756E+06</totfact>
</mgrwt>
</event>
<event>
 3    1  0.1604658E-001  0.1250000E+03  0.7546771E-02  0.1235069E+00
         21   -1    0    0  502  501  0.00000000000E+00  0.00000000000E+00  0.27347517269E+03  0.27347517269E+03  0.00000000000E+00 0. -1.
         21   -1    0    0  501  502 -0.00000000000E+00 -0.00000000000E+00 -0.14283746351E+02  0.14283746351E+02  0.00000000000E+00 0. -1.
         25    1    1    2    0    0  0.00000000000E+00  0.00000000000E+00  0.25919142634E+03  0.28775891904E+03  0.12500000000E+03 0.  0.
<mgrwt>
<rscale>  0 0.12500000E+03</rscale>
<asrwt>0</asrwt>
<pdfrwt beam="1">  1       21 0.42073100E-01 0.12500000E+03</pdfrwt>
<pdfrwt beam="2">  1       21 0.21974996E-02 0.12500000E+03</pdfrwt>
<totfact> 0.56489051E+06</totfact>
</mgrwt>
</event>
<event>
 3    1  0.1604658E-001  0.1250000E+03  0.7546771E-02  0.1235069E+00
         21   -1    0    0  502  501  0.00000000000E+00  0.00000000000E+00  0.84862066217E+01  0.84862066217E+01  0.00000000000E+00 0. -1.
         21   -1    0    0  501  502 -0.00000000000E+00 -0.00000000000E+00 -0.46030578492E+03  0.46030578492E+03  0.00000000000E+00 0. -1.
         25    1    1    2    0    0  0.00000000000E+00  0.00000000000E+00 -0.45181957830E+03  0.46879199154E+03  0.12500000000E+03 0.  0.
<mgrwt>
<rscale>  0 0.12500000E+03</rscale>
<asrwt>0</asrwt>
<pdfrwt beam="1">  1       21 0.13055700E-02 0.12500000E+03</pdfrwt>
<pdfrwt beam="2">  1       21 0.70816290E-01 0.12500000E+03</pdfrwt>
<totfact> 0.43788734E+06</totfact>
</mgrwt>
</event>
<event>
 3    1  0.1604658E-001  0.1250000E+03  0.7546771E-02  0.1235069E+00
         21   -1    0    0  502  501  0.00000000000E+00  0.00000000000E+00  0.13028237611E+03  0.13028237611E+03  0.00000000000E+00 0. -1.
         21   -1    0    0  501  502 -0.00000000000E+00 -0.00000000000E+00 -0.29982950239E+02  0.29982950239E+02  0.00000000000E+00 0. -1.
         25    1    1    2    0    0  0.00000000000E+00  0.00000000000E+00  0.10029942587E+03  0.16026532635E+03  0.12500000000E+03 0.  0.
<mgrwt>
<rscale>  0 0.12500000E+03</rscale>
<asrwt>0</asrwt>
<pdfrwt beam="1">  1       21 0.20043442E-01 0.12500000E+03</pdfrwt>
<pdfrwt beam="2">  1       21 0.46127617E-02 0.12500000E+03</pdfrwt>
<totfact> 0.69487091E+06</totfact>
</mgrwt>
</event>
<event>
 3    1  0.1604658E-001  0.1250000E+03  0.7546771E-02  0.1235069E+00
         21   -1    0    0  502  501  0.00000000000E+00  0.00000000000E+00  0.77552216842E+02  0.77552216842E+02  0.00000000000E+00 0. -1.
         21   -1    0    0  501  502 -0.00000000000E+00 -0.00000000000E+00 -0.50369288707E+02  0.50369288707E+02  0.00000000000E+00 0. -1.
         25    1    1    2    0    0  0.00000000000E+00  0.00000000000E+00  0.27182928135E+02  0.12792150555E+03  0.12500000000E+03 0.  0.
<mgrwt>
<rscale>  0 0.12500000E+03</rscale>
<asrwt>0</asrwt>
<pdfrwt beam="1">  1       21 0.11931110E-01 0.12500000E+03</pdfrwt>
<pdfrwt beam="2">  1       21 0.77491213E-02 0.12500000E+03</pdfrwt>
<totfact> 0.73644165E+06</totfact>
</mgrwt>
</event>
<event>
 3    1  0.1604658E-001  0.1250000E+03  0.7546771E-02  0.1235069E+00
         21   -1    0    0  502  501  0.00000000000E+00  0.00000000000E+00  0.13879329324E+04  0.13879329324E+04  0.00000000000E+00 0.  1.
         21   -1    0    0  501  502 -0.00000000000E+00 -0.00000000000E+00 -0.28144371453E+01  0.28144371453E+01  0.00000000000E+00 0.  1.
         25    1    1    2    0    0  0.00000000000E+00  0.00000000000E+00  0.13851184952E+04  0.13907473695E+04  0.12500000000E+03 0.  0.
<mgrwt>
<rscale>  0 0.12500000E+03</rscale>
<asrwt>0</asrwt>
<pdfrwt beam="1">  1       21 0.21352760E+00 0.12500000E+03</pdfrwt>
<pdfrwt beam="2">  1       21 0.43299144E-03 0.12500000E+03</pdfrwt>
<totfact> 0.15696116E+06</totfact>
</mgrwt>
</event>
<event>
 3    1  0.1604658E-001  0.1250000E+03  0.7546771E-02  0.1235069E+00
         21   -1    0    0  502  501  0.00000000000E+00  0.00000000000E+00  0.10166039674E+03  0.10166039674E+03  0.00000000000E+00 0.  1.
         21   -1    0    0  501  502 -0.00000000000E+00 -0.00000000000E+00 -0.38424500840E+02  0.38424500840E+02  0.00000000000E+00 0.  1.
         25    1    1    2    0    0  0.00000000000E+00  0.00000000000E+00  0.63235895901E+02  0.14008489758E+03  0.12500000000E+03 0.  0.
<mgrwt>
<rscale>  0 0.12500000E+03</rscale>
<asrwt>0</asrwt>
<pdfrwt beam="1">  1       21 0.15640061E-01 0.12500000E+03</pdfrwt>
<pdfrwt beam="2">  1       21 0.59114617E-02 0.12500000E+03</pdfrwt>
<totfact> 0.72028227E+06</totfact>
</mgrwt>
</event>
<event>
 3    1  0.1604658E-001  0.1250000E+03  0.7546771E-02  0.1235069E+00
         21   -1    0    0  502  501  0.00000000000E+00  0.00000000000E+00  0.13140832746E+02  0.13140832746E+02  0.00000000000E+00 0.  1.
         21   -1    0    0  501  502 -0.00000000000E+00 -0.00000000000E+00 -0.29726046100E+03  0.29726046100E+03  0.00000000000E+00 0.  1.
         25    1    1    2    0    0  0.00000000000E+00  0.00000000000E+00 -0.28411962826E+03  0.31040129375E+03  0.12500000000E+03 0.  0.
<mgrwt>
<rscale>  0 0.12500000E+03</rscale>
<asrwt>0</asrwt>
<pdfrwt beam="1">  1       21 0.20216668E-02 0.12500000E+03</pdfrwt>
<pdfrwt beam="2">  1       21 0.45732374E-01 0.12500000E+03</pdfrwt>
<totfact> 0.54602714E+06</totfact>
</mgrwt>
</event>
<event>
 3    1  0.1604658E-001  0.1250000E+03  0.7546771E-02  0.1235069E+00
         21   -1    0    0  502  501  0.00000000000E+00  0.00000000000E+00  0.61929298408E+02  0.61929298408E+02  0.00000000000E+00 0. -1.
         21   -1    0    0  501  502 -0.00000000000E+00 -0.00000000000E+00 -0.63075960820E+02  0.63075960820E+02  0.00000000000E+00 0. -1.
         25    1    1    2    0    0  0.00000000000E+00  0.00000000000E+00 -0.11466624119E+01  0.12500525923E+03  0.12500000000E+03 0.  0.
<mgrwt>
<rscale>  0 0.12500000E+03</rscale>
<asrwt>0</asrwt>
<pdfrwt beam="1">  1       21 0.95275844E-02 0.12500000E+03</pdfrwt>
<pdfrwt beam="2">  1       21 0.97039940E-02 0.12500000E+03</pdfrwt>
<totfact> 0.74042871E+06</totfact>
</mgrwt>
</event>
<event>
 3    1  0.1604658E-001  0.1250000E+03  0.7546771E-02  0.1235069E+00
         21   -1    0    0  502  501  0.00000000000E+00  0.00000000000E+00  0.90305068898E+02  0.90305068898E+02  0.00000000000E+00 0. -1.
         21   -1    0    0  501  502 -0.00000000000E+00 -0.00000000000E+00 -0.43256154363E+02  0.43256154363E+02  0.00000000000E+00 0. -1.
         25    1    1    2    0    0  0.00000000000E+00  0.00000000000E+00  0.47048914535E+02  0.13356122326E+03  0.12500000000E+03 0.  0.
<mgrwt>
<rscale>  0 0.12500000E+03</rscale>
<asrwt>0</asrwt>
<pdfrwt beam="1">  1       21 0.13893087E-01 0.12500000E+03</pdfrwt>
<pdfrwt beam="2">  1       21 0.66547930E-02 0.12500000E+03</pdfrwt>
<totfact> 0.72887547E+06</totfact>
</mgrwt>
</event>
<event>
 3    1  0.1604658E-001  0.1250000E+03  0.7546771E-02  0.1235069E+00
         21   -1    0    0  502  501  0.00000000000E+00  0.00000000000E+00  0.10003483692E+02  0.10003483692E+02  0.00000000000E+00 0. -1.
         21   -1    0    0  501  502 -0.00000000000E+00 -0.00000000000E+00 -0.39048896566E+03  0.39048896566E+03  0.00000000000E+00 0. -1.
         25    1    1    2    0    0  0.00000000000E+00  0.00000000000E+00 -0.38048548197E+03  0.40049244935E+03  0.12500000000E+03 0.  0.
<mgrwt>
<rscale>  0 0.12500000E+03</rscale>
<asrwt>0</asrwt>
<pdfrwt beam="1">  1       21 0.15389979E-02 0.12500000E+03</pdfrwt>
<pdfrwt beam="2">  1       21 0.60075211E-01 0.12500000E+03</pdfrwt>
<totfact> 0.48008710E+06</totfact>
</mgrwt>
</event>
<event>
 3    1  0.1604658E-001  0.1250000E+03  0.7546771E-02  0.1235069E+00
         21   -1    0    0  502  501  0.00000000000E+00  0.00000000000E+00  0.62482654845E+03  0.62482654845E+03  0.00000000000E+00 0.  1.
         21   -1    0    0  501  502 -0.00000000000E+00 -0.00000000000E+00 -0.62517349970E+01  0.62517349970E+01  0.00000000000E+00 0.  1.
         25    1    1    2    0    0  0.00000000000E+00  0.00000000000E+00  0.61857481345E+03  0.63107828345E+03  0.12500000000E+03 0.  0.
<mgrwt>
<rscale>  0 0.12500000E+03</rscale>
<asrwt>0</asrwt>
<pdfrwt beam="1">  1       21 0.96127112E-01 0.12500000E+03</pdfrwt>
<pdfrwt beam="2">  1       21 0.96180588E-03 0.12500000E+03</pdfrwt>
<totfact> 0.35723845E+06</totfact>
</mgrwt>
</event>
<event>
 3    1  0.1604658E-001  0.1250000E+03  0.7546771E-02  0.1235069E+00
         21   -1    0    0  502  501  0.00000000000E+00  0.00000000000E+00  0.11156316684E+04  0.11156316684E+04  0.00000000000E+00 0.  1.
         21   -1    0    0  501  502 -0.00000000000E+00 -0.00000000000E+00 -0.35013796316E+01  0.35013796316E+01  0.00000000000E+00 0.  1.
         25    1    1    2    0    0  0.00000000000E+00  0.00000000000E+00  0.11121302887E+04  0.11191330480E+04  0.12500000000E+03 0.  0.
<mgrwt>
<rscale>  0 0.12500000E+03</rscale>
<asrwt>0</asrwt>
<pdfrwt beam="1">  1       21 0.17163536E+00 0.12500000E+03</pdfrwt>
<pdfrwt beam="2">  1       21 0.53867468E-03 0.12500000E+03</pdfrwt>
<totfact> 0.20830884E+06</totfact>
</mgrwt>
</event>
<event>
 3    1  0.1604658E-001  0.1250000E+03  0.7546771E-02  0.1235069E+00
         21   -1    0    0  502  501  0.00000000000E+00  0.00000000000E+00  0.18201221464E+02  0.18201221464E+02  0.00000000000E+00 0. -1.
         21   -1    0    0  501  502 -0.00000000000E+00 -0.00000000000E+00 -0.21461471735E+03  0.21461471735E+03  0.00000000000E+00 0. -1.
         25    1    1    2    0    0  0.00000000000E+00  0.00000000000E+00 -0.19641349589E+03  0.23281593881E+03  0.12500000000E+03 0.  0.
<mgrwt>
<rscale>  0 0.12500000E+03</rscale>
<asrwt>0</asrwt>
<pdfrwt beam="1">  1       21 0.28001877E-02 0.12500000E+03</pdfrwt>
<pdfrwt beam="2">  1       21 0.33017651E-01 0.12500000E+03</pdfrwt>
<totfact> 0.61534854E+06</totfact>
</mgrwt>
</event>
<event>
 3    1  0.1604658E-001  0.1250000E+03  0.7546771E-02  0.1235069E+00
         21   -1    0    0  502  501  0.00000000000E+00  0.00000000000E+00  0.12447206763E+02  0.12447206763E+02  0.00000000000E+00 0.  1.
         21   -1    0    0  501  502 -0.00000000000E+00 -0.00000000000E+00 -0.31382542883E+03  0.31382542883E+03  0.00000000000E+00 0.  1.
         25    1    1    2    0    0  0.00000000000E+00  0.00000000000E+00 -0.30137822206E+03  0.32627263559E+03  0.12500000000E+03 0.  0.
<mgrwt>
<rscale>  0 0.12500000E+03</rscale>
<asrwt>0</asrwt>
<pdfrwt beam="1">  1       21 0.19149548E-02 0.12500000E+03</pdfrwt>
<pdfrwt beam="2">  1       21 0.48280838E-01 0.12500000E+03</pdfrwt>
<totfact> 0.53339980E+06</totfact>
</mgrwt>
</event>
<event>
 3    1  0.1604658E-001  0.1250000E+03  0.7546771E-02  0.1235069E+00
         21   -1    0    0  502  501  0.00000000000E+00  0.00000000000E+00  0.10787104357E+02  0.10787104357E+02  0.00000000000E+00 0. -1.
         21   -1    0    0  501  502 -0.00000000000E+00 -0.00000000000E+00 -0.36212220358E+03  0.36212220358E+03  0.00000000000E+00 0. -1.
         25    1    1    2    0    0  0.00000000000E+00  0.00000000000E+00 -0.35133509923E+03  0.37290930794E+03  0.12500000000E+03 0.  0.
<mgrwt>
<rscale>  0 0.12500000E+03</rscale>
<asrwt>0</asrwt>
<pdfrwt beam="1">  1       21 0.16595546E-02 0.12500000E+03</pdfrwt>
<pdfrwt beam="2">  1       21 0.55711105E-01 0.12500000E+03</pdfrwt>
<totfact> 0.49889753E+06</totfact>
</mgrwt>
</event>
<event>
 3    1  0.1604658E-001  0.1250000E+03  0.7546771E-02  0.1235069E+00
         21   -1    0    0  502  501  0.00000000000E+00  0.00000000000E+00  0.54496637900E+03  0.54496637900E+03  0.00000000000E+00 0. -1.
         21   -1    0    0  501  502 -0.00000000000E+00 -0.00000000000E+00 -0.71678733781E+01  0.71678733781E+01  0.00000000000E+00 0. -1.
         25    1    1    2    0    0  0.00000000000E+00  0.00000000000E+00  0.53779850562E+03  0.55213425238E+03  0.12500000000E+03 0.  0.
<mgrwt>
<rscale>  0 0.12500000E+03</rscale>
<asrwt>0</asrwt>
<pdfrwt beam="1">  1       21 0.83840949E-01 0.12500000E+03</pdfrwt>
<pdfrwt beam="2">  1       21 0.11027502E-02 0.12500000E+03</pdfrwt>
<totfact> 0.39350833E+06</totfact>
</mgrwt>
</event>
<event>
 3    1  0.1604658E-001  0.1250000E+03  0.7546771E-02  0.1235069E+00
         21   -1    0    0  502  501  0.00000000000E+00  0.00000000000E+00  0.29741520629E+02  0.29741520629E+02  0.00000000000E+00 0. -1.
         21   -1    0    0  501  502 -0.00000000000E+00 -0.00000000000E+00 -0.13133995564E+03  0.13133995564E+03  0.00000000000E+00 0. -1.
         25    1    1    2    0    0  0.00000000000E+00  0.00000000000E+00 -0.10159843501E+03  0.16108147627E+03  0.12500000000E+03 0.  0.
<mgrwt>
<rscale>  0 0.12500000E+03</rscale>
<asrwt>0</asrwt>
<pdfrwt beam="1">  1       21 0.45756186E-02 0.12500000E+03</pdfrwt>
<pdfrwt beam="2">  1       21 0.20206147E-01 0.12500000E+03</pdfrwt>
<totfact> 0.69387592E+06</totfact>
</mgrwt>
</event>
<event>
 3    1  0.1604658E-001  0.1250000E+03  0.7546771E-02  0.1235069E+00
         21   -1    0    0  502  501  0.00000000000E+00  0.00000000000E+00  0.37153680381E+02  0.37153680381E+02  0.00000000000E+00 0. -1.
         21   -1    0    0  501  502 -0.00000000000E+00 -0.00000000000E+00 -0.10513763266E+03  0.10513763266E+03  0.00000000000E+00 0. -1.
         25    1    1    2    0    0  0.00000000000E+00  0.00000000000E+00 -0.67983952282E+02  0.14229131304E+03  0.12500000000E+03 0.  0.
<mgrwt>
<rscale>  0 0.12500000E+03</rscale>
<asrwt>0</asrwt>
<pdfrwt beam="1">  1       21 0.57159508E-02 0.12500000E+03</pdfrwt>
<pdfrwt beam="2">  1       21 0.16175020E-01 0.12500000E+03</pdfrwt>
<totfact> 0.71741576E+06</totfact>
</mgrwt>
</event>
<event>
 3    1  0.1604658E-001  0.1250000E+03  0.7546771E-02  0.1235069E+00
         21   -1    0    0  502  501  0.00000000000E+00  0.00000000000E+00  0.12248788702E+02  0.12248788702E+02  0.00000000000E+00 0. -1.
         21   -1    0    0  501  502 -0.00000000000E+00 -0.00000000000E+00 -0.31890908522E+03  0.31890908522E+03  0.00000000000E+00 0. -1.
         25    1    1    2    0    0  0.00000000000E+00  0.00000000000E+00 -0.30666029652E+03  0.33115787392E+03  0.12500000000E+03 0.  0.
<mgrwt>
<rscale>  0 0.12500000E+03</rscale>
<asrwt>0</asrwt>
<pdfrwt beam="1">  1       21 0.18844295E-02 0.12500000E+03</pdfrwt>
<pdfrwt beam="2">  1       21 0.49062925E-01 0.12500000E+03</pdfrwt>
<totfact> 0.52960821E+06</totfact>
</mgrwt>
</event>
<event>
 3    1  0.1604658E-001  0.1250000E+03  0.7546771E-02  0.1235069E+00
         21   -1    0    0  502  501  0.00000000000E+00  0.00000000000E+00  0.11657577379E+03  0.11657577379E+03  0.00000000000E+00 0.  1.
         21   -1    0    0  501  502 -0.00000000000E+00 -0.00000000000E+00 -0.33508248524E+02  0.33508248524E+02  0.00000000000E+00 0.  1.
         25    1    1    2    0    0  0.00000000000E+00  0.00000000000E+00  0.83067525265E+02  0.15008402231E+03  0.12500000000E+03 0.  0.
<mgrwt>
<rscale>  0 0.12500000E+03</rscale>
<asrwt>0</asrwt>
<pdfrwt beam="1">  1       21 0.17934734E-01 0.12500000E+03</pdfrwt>
<pdfrwt beam="2">  1       21 0.51551152E-02 0.12500000E+03</pdfrwt>
<totfact> 0.70748648E+06</totfact>
</mgrwt>
</event>
<event>
 3    1  0.1604658E-001  0.1250000E+03  0.7546771E-02  0.1235069E+00
         21   -1    0    0  502  501  0.00000000000E+00  0.00000000000E+00  0.77941295320E+01  0.77941295320E+01  0.00000000000E+00 0.  1.
         21   -1    0    0  501  502 -0.00000000000E+00 -0.00000000000E+00 -0.50117848106E+03  0.50117848106E+03  0.00000000000E+00 0.  1.
         25    1    1    2    0    0  0.00000000000E+00  0.00000000000E+00 -0.49338435152E+03  0.50897261059E+03  0.12500000000E+03 0.  0.
<mgrwt>
<rscale>  0 0.12500000E+03</rscale>
<asrwt>0</asrwt>
<pdfrwt beam="1">  1       21 0.11990968E-02 0.12500000E+03</pdfrwt>
<pdfrwt beam="2">  1       21 0.77104388E-01 0.12500000E+03</pdfrwt>
<totfact> 0.41561607E+06</totfact>
</mgrwt>
</event>
<event>
 3    1  0.1604658E-001  0.1250000E+03  0.7546771E-02  0.1235069E+00
         21   -1    0    0  502  501  0.00000000000E+00  0.00000000000E+00  0.19849723281E+03  0.19849723281E+03  0.00000000000E+00 0. -1.
         21   -1    0    0  501  502 -0.00000000000E+00 -0.00000000000E+00 -0.19679115646E+02  0.19679115646E+02  0.00000000000E+00 0. -1.
         25    1    1    2    0    0  0.00000000000E+00  0.00000000000E+00  0.17881811717E+03  0.21817634846E+03  0.12500000000E+03 0.  0.
<mgrwt>
<rscale>  0 0.12500000E+03</rscale>
<asrwt>0</asrwt>
<pdfrwt beam="1">  1       21 0.30538034E-01 0.12500000E+03</pdfrwt>
<pdfrwt beam="2">  1       21 0.30275564E-02 0.12500000E+03</pdfrwt>
<totfact> 0.63009425E+06</totfact>
</mgrwt>
</event>
<event>
 3    1  0.1604658E-001  0.1250000E+03  0.7546771E-02  0.1235069E+00
         21   -1    0    0  502  501  0.00000000000E+00  0.00000000000E+00  0.24086917576E+01  0.24086917576E+01  0.00000000000E+00 0.  1.
         21   -1    0    0  501  502 -0.00000000000E+00 -0.00000000000E+00 -0.16217309615E+04  0.16217309615E+04  0.00000000000E+00 0.  1.
         25    1    1    2    0    0  0.00000000000E+00  0.00000000000E+00 -0.16193222698E+04  0.16241396533E+04  0.12500000000E+03 0.  0.
<mgrwt>
<rscale>  0 0.12500000E+03</rscale>
<asrwt>0</asrwt>
<pdfrwt beam="1">  1       21 0.37056798E-03 0.12500000E+03</pdfrwt>
<pdfrwt beam="2">  1       21 0.24949706E+00 0.12500000E+03</pdfrwt>
<totfact> 0.12248844E+06</totfact>
</mgrwt>
</event>
<event>
 3    1  0.1604658E-001  0.1250000E+03  0.7546771E-02  0.1235069E+00
         21   -1    0    0  502  501  0.00000000000E+00  0.00000000000E+00  0.65926429966E+02  0.65926429966E+02  0.00000000000E+00 0. -1.
         21   -1    0    0  501  502 -0.00000000000E+00 -0.00000000000E+00 -0.59251653730E+02  0.59251653730E+02  0.00000000000E+00 0. -1.
         25    1    1    2    0    0  0.00000000000E+00  0.00000000000E+00  0.66747762366E+01  0.12517808370E+03  0.12500000000E+03 0.  0.
<mgrwt>
<rscale>  0 0.12500000E+03</rscale>
<asrwt>0</asrwt>
<pdfrwt beam="1">  1       21 0.10142528E-01 0.12500000E+03</pdfrwt>
<pdfrwt beam="2">  1       21 0.91156390E-02 0.12500000E+03</pdfrwt>
<totfact> 0.74019531E+06</totfact>
</mgrwt>
</event>
<event>
 3    1  0.1604658E-001  0.1250000E+03  0.7546771E-02  0.1235069E+00
         21   -1    0    0  502  501  0.00000000000E+00  0.00000000000E+00  0.94695973884E+02  0.94695973884E+02  0.00000000000E+00 0. -1.
         21   -1    0    0  501  502 -0.00000000000E+00 -0.00000000000E+00 -0.41250433781E+02  0.41250433781E+02  0.00000000000E+00 0. -1.
         25    1    1    2    0    0  0.00000000000E+00  0.00000000000E+00  0.53445540103E+02  0.13594640766E+03  0.12500000000E+03 0.  0.
<mgrwt>
<rscale>  0 0.12500000E+03</rscale>
<asrwt>0</asrwt>
<pdfrwt beam="1">  1       21 0.14568611E-01 0.12500000E+03</pdfrwt>
<pdfrwt beam="2">  1       21 0.63462206E-02 0.12500000E+03</pdfrwt>
<totfact> 0.72571403E+06</totfact>
</mgrwt>
</event>
<event>
 3    1  0.1604658E-001  0.1250000E+03  0.7546771E-02  0.1235069E+00
         21   -1    0    0  502  501  0.00000000000E+00  0.00000000000E+00  0.53361535580E+02  0.53361535580E+02  0.00000000000E+00 0. -1.
         21   -1    0    0  501  502 -0.00000000000E+00 -0.00000000000E+00 -0.73203478077E+02  0.73203478077E+02  0.00000000000E+00 0. -1.
         25    1    1    2    0    0  0.00000000000E+00  0.00000000000E+00 -0.19841942497E+02  0.12656501366E+03  0.12500000000E+03 0.  0.
<mgrwt>
<rscale>  0 0.12500000E+03</rscale>
<asrwt>0</asrwt>
<pdfrwt beam="1">  1       21 0.82094671E-02 0.12500000E+03</pdfrwt>
<pdfrwt beam="2">  1       21 0.11262073E-01 0.12500000E+03</pdfrwt>
<totfact> 0.73828479E+06</totfact>
</mgrwt>
</event>
<event>
 3    1  0.1604658E-001  0.1250000E+03  0.7546771E-02  0.1235069E+00
         21   -1    0    0  502  501  0.00000000000E+00  0.00000000000E+00  0.13568876541E+03  0.13568876541E+03  0.00000000000E+00 0. -1.
         21   -1    0    0  501  502 -0.00000000000E+00 -0.00000000000E+00 -0.28788308215E+02  0.28788308215E+02  0.00000000000E+00 0. -1.
         25    1    1    2    0    0  0.00000000000E+00  0.00000000000E+00  0.10690045720E+03  0.16447707363E+03  0.12500000000E+03 0.  0.
<mgrwt>
<rscale>  0 0.12500000E+03</rscale>
<asrwt>0</asrwt>
<pdfrwt beam="1">  1       21 0.20875194E-01 0.12500000E+03</pdfrwt>
<pdfrwt beam="2">  1       21 0.44289706E-02 0.12500000E+03</pdfrwt>
<totfact> 0.68976542E+06</totfact>
</mgrwt>
</event>
<event>
 3    1  0.1604658E-001  0.1250000E+03  0.7546771E-02  0.1235069E+00
         21   -1    0    0  502  501  0.00000000000E+00  0.00000000000E+00  0.64814143904E+03  0.64814143904E+03  0.00000000000E+00 0.  1.
         21   -1    0    0  501  502 -0.00000000000E+00 -0.00000000000E+00 -0.60268480993E+01  0.60268480993E+01  0.00000000000E+00 0.  1.
         25    1    1    2    0    0  0.00000000000E+00  0.00000000000E+00  0.64211459094E+03  0.65416828714E+03  0.12500000000E+03 0.  0.
<mgrwt>
<rscale>  0 0.12500000E+03</rscale>
<asrwt>0</asrwt>
<pdfrwt beam="1">  1       21 0.99714013E-01 0.12500000E+03</pdfrwt>
<pdfrwt beam="2">  1       21 0.92720791E-03 0.12500000E+03</pdfrwt>
<totfact> 0.34751784E+06</totfact>
</mgrwt>
</event>
<event>
 3    1  0.1604658E-001  0.1250000E+03  0.7546771E-02  0.1235069E+00
         21   -1    0    0  502  501  0.00000000000E+00  0.00000000000E+00  0.44112647661E+02  0.44112647661E+02  0.00000000000E+00 0.  1.
         21   -1    0    0  501  502 -0.00000000000E+00 -0.00000000000E+00 -0.88551701318E+02  0.88551701318E+02  0.00000000000E+00 0.  1.
         25    1    1    2    0    0  0.00000000000E+00  0.00000000000E+00 -0.44439053657E+02  0.13266434898E+03  0.12500000000E+03 0.  0.
<mgrwt>
<rscale>  0 0.12500000E+03</rscale>
<asrwt>0</asrwt>
<pdfrwt beam="1">  1       21 0.67865612E-02 0.12500000E+03</pdfrwt>
<pdfrwt beam="2">  1       21 0.13623339E-01 0.12500000E+03</pdfrwt>
<totfact> 0.73007252E+06</totfact>
</mgrwt>
</event>
<event>
 3    1  0.1604658E-001  0.1250000E+03  0.7546771E-02  0.1235069E+00
         21   -1    0    0  502  501  0.00000000000E+00  0.00000000000E+00  0.11104390608E+01  0.11104390608E+01  0.00000000000E+00 0. -1.
         21   -1    0    0  501  502 -0.00000000000E+00 -0.00000000000E+00 -0.35177526961E+04  0.35177526961E+04  0.00000000000E+00 0. -1.
         25    1    1    2    0    0  0.00000000000E+00  0.00000000000E+00 -0.35166422570E+04  0.35188631351E+04  0.12500000000E+03 0.  0.
<mgrwt>
<rscale>  0 0.12500000E+03</rscale>
<asrwt>0</asrwt>
<pdfrwt beam="1">  1       21 0.17083741E-03 0.12500000E+03</pdfrwt>
<pdfrwt beam="2">  1       21 0.54119072E+00 0.12500000E+03</pdfrwt>
<totfact> 0.60988047E+04</totfact>
</mgrwt>
</event>
<event>
 3    1  0.1604658E-001  0.1250000E+03  0.7546771E-02  0.1235069E+00
         21   -1    0    0  502  501  0.00000000000E+00  0.00000000000E+00  0.11547627310E+03  0.11547627310E+03  0.00000000000E+00 0. -1.
         21   -1    0    0  501  502 -0.00000000000E+00 -0.00000000000E+00 -0.33827295384E+02  0.33827295384E+02  0.00000000000E+00 0. -1.
         25    1    1    2    0    0  0.00000000000E+00  0.00000000000E+00  0.81648977717E+02  0.14930356848E+03  0.12500000000E+03 0.  0.
<mgrwt>
<rscale>  0 0.12500000E+03</rscale>
<asrwt>0</asrwt>
<pdfrwt beam="1">  1       21 0.17765580E-01 0.12500000E+03</pdfrwt>
<pdfrwt beam="2">  1       21 0.52041993E-02 0.12500000E+03</pdfrwt>
<totfact> 0.70846795E+06</totfact>
</mgrwt>
</event>
<event>
 3    1  0.1604658E-001  0.1250000E+03  0.7546771E-02  0.1235069E+00
         21   -1    0    0  502  501  0.00000000000E+00  0.00000000000E+00  0.12954574578E+04  0.12954574578E+04  0.00000000000E+00 0.  1.
         21   -1    0    0  501  502 -0.00000000000E+00 -0.00000000000E+00 -0.30153440983E+01  0.30153440983E+01  0.00000000000E+00 0.  1.
         25    1    1    2    0    0  0.00000000000E+00  0.00000000000E+00  0.12924421137E+04  0.12984728019E+04  0.12500000000E+03 0.  0.
<mgrwt>
<rscale>  0 0.12500000E+03</rscale>
<asrwt>0</asrwt>
<pdfrwt beam="1">  1       21 0.19930070E+00 0.12500000E+03</pdfrwt>
<pdfrwt beam="2">  1       21 0.46390013E-03 0.12500000E+03</pdfrwt>
<totfact> 0.17279834E+06</totfact>
</mgrwt>
</event>
<event>
 3    1  0.1604658E-001  0.1250000E+03  0.7546771E-02  0.1235069E+00
         21   -1    0    0  502  501  0.00000000000E+00  0.00000000000E+00  0.93653418210E+03  0.93653418210E+03  0.00000000000E+00 0.  1.
         21   -1    0    0  501  502 -0.00000000000E+00 -0.00000000000E+00 -0.41709636174E+01  0.41709636174E+01  0.00000000000E+00 0.  1.
         25    1    1    2    0    0  0.00000000000E+00  0.00000000000E+00  0.93236321848E+03  0.94070514571E+03  0.12500000000E+03 0.  0.
<mgrwt>
<rscale>  0 0.12500000E+03</rscale>
<asrwt>0</asrwt>
<pdfrwt beam="1">  1       21 0.14408201E+00 0.12500000E+03</pdfrwt>
<pdfrwt beam="2">  1       21 0.64168745E-03 0.12500000E+03</pdfrwt>
<totfact> 0.25161956E+06</totfact>
</mgrwt>
</event>
<event>
 3    1  0.1604658E-001  0.1250000E+03  0.7546771E-02  0.1235069E+00
         21   -1    0    0  502  501  0.00000000000E+00  0.00000000000E+00  0.13158444652E+04  0.13158444652E+04  0.00000000000E+00 0. -1.
         21   -1    0    0  501  502 -0.00000000000E+00 -0.00000000000E+00 -0.29686259306E+01  0.29686259306E+01  0.00000000000E+00 0. -1.
         25    1    1    2    0    0  0.00000000000E+00  0.00000000000E+00  0.13128758393E+04  0.13188130911E+04  0.12500000000E+03 0.  0.
<mgrwt>
<rscale>  0 0.12500000E+03</rscale>
<asrwt>0</asrwt>
<pdfrwt beam="1">  1       21 0.20243714E+00 0.12500000E+03</pdfrwt>
<pdfrwt beam="2">  1       21 0.45671273E-03 0.12500000E+03</pdfrwt>
<totfact> 0.16917950E+06</totfact>
</mgrwt>
</event>
<event>
 3    1  0.1604658E-001  0.1250000E+03  0.7546771E-02  0.1235069E+00
         21   -1    0    0  502  501  0.00000000000E+00  0.00000000000E+00  0.61633238628E+03  0.61633238628E+03  0.00000000000E+00 0.  1.
         21   -1    0    0  501  502 -0.00000000000E+00 -0.00000000000E+00 -0.63378950822E+01  0.63378950822E+01  0.00000000000E+00 0.  1.
         25    1    1    2    0    0  0.00000000000E+00  0.00000000000E+00  0.60999449120E+03  0.62267028136E+03  0.12500000000E+03 0.  0.
<mgrwt>
<rscale>  0 0.12500000E+03</rscale>
<asrwt>0</asrwt>
<pdfrwt beam="1">  1       21 0.94820320E-01 0.12500000E+03</pdfrwt>
<pdfrwt beam="2">  1       21 0.97506126E-03 0.12500000E+03</pdfrwt>
<totfact> 0.36087072E+06</totfact>
</mgrwt>
</event>
<event>
 3    1  0.1604658E-001  0.1250000E+03  0.7546771E-02  0.1235069E+00
         21   -1    0    0  502  501  0.00000000000E+00  0.00000000000E+00  0.12600311429E+03  0.12600311429E+03  0.00000000000E+00 0.  1.
         21   -1    0    0  501  502 -0.00000000000E+00 -0.00000000000E+00 -0.31001217883E+02  0.31001217883E+02  0.00000000000E+00 0.  1.
         25    1    1    2    0    0  0.00000000000E+00  0.00000000000E+00  0.95001896408E+02  0.15700433217E+03  0.12500000000E+03 0.  0.
<mgrwt>
<rscale>  0 0.12500000E+03</rscale>
<asrwt>0</asrwt>
<pdfrwt beam="1">  1       21 0.19385094E-01 0.12500000E+03</pdfrwt>
<pdfrwt beam="2">  1       21 0.47694182E-02 0.12500000E+03</pdfrwt>
<totfact> 0.69887399E+06</totfact>
</mgrwt>
</event>
<event>
 3    1  0.1604658E-001  0.1250000E+03  0.7546771E-02  0.1235069E+00
         21   -1    0    0  502  501  0.00000000000E+00  0.00000000000E+00  0.20426352989E+01  0.20426352989E+01  0.00000000000E+00 0.  1.
         21   -1    0    0  501  502 -0.00000000000E+00 -0.00000000000E+00 -0.19123580221E+04  0.19123580221E+04  0.00000000000E+00 0.  1.
         25    1    1    2    0    0  0.00000000000E+00  0.00000000000E+00 -0.19103153868E+04  0.19144006574E+04  0.12500000000E+03 0.  0.
<mgrwt>
<rscale>  0 0.12500000E+03</rscale>
<asrwt>0</asrwt>
<pdfrwt beam="1">  1       21 0.31425179E-03 0.12500000E+03</pdfrwt>
<pdfrwt beam="2">  1       21 0.29420873E+00 0.12500000E+03</pdfrwt>
<totfact> 0.88132640E+05</totfact>
</mgrwt>
</event>
<event>
 3    1  0.1604658E-001  0.1250000E+03  0.7546771E-02  0.1235069E+00
         21   -1    0    0  502  501  0.00000000000E+00  0.00000000000E+00  0.61220482840E+01  0.61220482840E+01  0.00000000000E+00 0.  1.
         21   -1    0    0  501  502 -0.00000000000E+00 -0.00000000000E+00 -0.63806259259E+03  0.63806259259E+03  0.00000000000E+00 0.  1.
         25    1    1    2    0    0  0.00000000000E+00  0.00000000000E+00 -0.63194054430E+03  0.64418464087E+03  0.12500000000E+03 0.  0.
<mgrwt>
<rscale>  0 0.12500000E+03</rscale>
<asrwt>0</asrwt>
<pdfrwt beam="1">  1       21 0.94185390E-03 0.12500000E+03</pdfrwt>
<pdfrwt beam="2">  1       21 0.98163442E-01 0.12500000E+03</pdfrwt>
<totfact> 0.35167560E+06</totfact>
</mgrwt>
</event>
<event>
 3    1  0.1604658E-001  0.1250000E+03  0.7546771E-02  0.1235069E+00
         21   -1    0    0  502  501  0.00000000000E+00  0.00000000000E+00  0.11814022429E+04  0.11814022429E+04  0.00000000000E+00 0.  1.
         21   -1    0    0  501  502 -0.00000000000E+00 -0.00000000000E+00 -0.33064521617E+01  0.33064521617E+01  0.00000000000E+00 0.  1.
         25    1    1    2    0    0  0.00000000000E+00  0.00000000000E+00  0.11780957908E+04  0.11847086951E+04  0.12500000000E+03 0.  0.
<mgrwt>
<rscale>  0 0.12500000E+03</rscale>
<asrwt>0</asrwt>
<pdfrwt beam="1">  1       21 0.18175386E+00 0.12500000E+03</pdfrwt>
<pdfrwt beam="2">  1       21 0.50868589E-03 0.12500000E+03</pdfrwt>
<totfact> 0.19450835E+06</totfact>
</mgrwt>
</event>
<event>
 3    1  0.1604658E-001  0.1250000E+03  0.7546771E-02  0.1235069E+00
         21   -1    0    0  502  501  0.00000000000E+00  0.00000000000E+00  0.75450813241E+03  0.75450813241E+03  0.00000000000E+00 0. -1.
         21   -1    0    0  501  502 -0.00000000000E+00 -0.00000000000E+00 -0.51772139122E+01  0.51772139122E+01  0.00000000000E+00 0. -1.
         25    1    1    2    0    0  0.00000000000E+00  0.00000000000E+00  0.74933091850E+03  0.75968534633E+03  0.12500000000E+03 0.  0.
<mgrwt>
<rscale>  0 0.12500000E+03</rscale>
<asrwt>0</asrwt>
<pdfrwt beam="1">  1       21 0.11607809E+00 0.12500000E+03</pdfrwt>
<pdfrwt beam="2">  1       21 0.79649505E-03 0.12500000E+03</pdfrwt>
<totfact> 0.30731127E+06</totfact>
</mgrwt>
</event>
<event>
 3    1  0.1604658E-001  0.1250000E+03  0.7546771E-02  0.1235069E+00
         21   -1    0    0  502  501  0.00000000000E+00  0.00000000000E+00  0.66225237126E+01  0.66225237126E+01  0.00000000000E+00 0. -1.
         21   -1    0    0  501  502 -0.00000000000E+00 -0.00000000000E+00 -0.58984311261E+03  0.58984311261E+03  0.00000000000E+00 0. -1.
         25    1    1    2    0    0  0.00000000000E+00  0.00000000000E+00 -0.58322058890E+03  0.59646563633E+03  0.12500000000E+03 0.  0.
<mgrwt>
<rscale>  0 0.12500000E+03</rscale>
<asrwt>0</asrwt>
<pdfrwt beam="1">  1       21 0.10188501E-02 0.12500000E+03</pdfrwt>
<pdfrwt beam="2">  1       21 0.90745069E-01 0.12500000E+03</pdfrwt>
<totfact> 0.37252964E+06</totfact>
</mgrwt>
</event>
<event>
 3    1  0.1604658E-001  0.1250000E+03  0.7546771E-02  0.1235069E+00
         21   -1    0    0  502  501  0.00000000000E+00  0.00000000000E+00  0.10161968481E+03  0.10161968481E+03  0.00000000000E+00 0. -1.
         21   -1    0    0  501  502 -0.00000000000E+00 -0.00000000000E+00 -0.38439894861E+02  0.38439894861E+02  0.00000000000E+00 0. -1.
         25    1    1    2    0    0  0.00000000000E+00  0.00000000000E+00  0.63179789950E+02  0.14005957967E+03  0.12500000000E+03 0.  0.
<mgrwt>
<rscale>  0 0.12500000E+03</rscale>
<asrwt>0</asrwt>
<pdfrwt beam="1">  1       21 0.15633798E-01 0.12500000E+03</pdfrwt>
<pdfrwt beam="2">  1       21 0.59138300E-02 0.12500000E+03</pdfrwt>
<totfact> 0.72031531E+06</totfact>
</mgrwt>
</event>
<event>
 3    1  0.1604658E-001  0.1250000E+03  0.7546771E-02  0.1235069E+00
         21   -1    0    0  502  501  0.00000000000E+00  0.00000000000E+00  0.15653418100E+03  0.15653418100E+03  0.00000000000E+00 0.  1.
         21   -1    0    0  501  502 -0.00000000000E+00 -0.00000000000E+00 -0.24954613587E+02  0.24954613587E+02  0.00000000000E+00 0.  1.
         25    1    1    2    0    0  0.00000000000E+00  0.00000000000E+00  0.13157956742E+03  0.18148879459E+03  0.12500000000E+03 0.  0.
<mgrwt>
<rscale>  0 0.12500000E+03</rscale>
<asrwt>0</asrwt>
<pdfrwt beam="1">  1       21 0.24082181E-01 0.12500000E+03</pdfrwt>
<pdfrwt beam="2">  1       21 0.38391714E-02 0.12500000E+03</pdfrwt>
<totfact> 0.66981156E+06</totfact>
</mgrwt>
</event>
<event>
 3    1  0.1604658E-001  0.1250000E+03  0.7546771E-02  0.1235069E+00
         21   -1    0    0  502  501  0.00000000000E+00  0.00000000000E+00  0.42647376955E+03  0.42647376955E+03  0.00000000000E+00 0.  1.
         21   -1    0    0  501  502 -0.00000000000E+00 -0.00000000000E+00 -0.91594144328E+01  0.91594144328E+01  0.00000000000E+00 0.  1.
         25    1    1    2    0    0  0.00000000000E+00  0.00000000000E+00  0.41731435512E+03  0.43563318398E+03  0.12500000000E+03 0.  0.
<mgrwt>
<rscale>  0 0.12500000E+03</rscale>
<asrwt>0</asrwt>
<pdfrwt beam="1">  1       21 0.65611334E-01 0.12500000E+03</pdfrwt>
<pdfrwt beam="2">  1       21 0.14091410E-02 0.12500000E+03</pdfrwt>
<totfact> 0.45764291E+06</totfact>
</mgrwt>
</event>
<event>
 3    1  0.1604658E-001  0.1250000E+03  0.7546771E-02  0.1235069E+00
         21   -1    0    0  502  501  0.00000000000E+00  0.00000000000E+00  0.23444440147E+02  0.23444440147E+02  0.00000000000E+00 0. -1.
         21   -1    0    0  501  502 -0.00000000000E+00 -0.00000000000E+00 -0.16661732912E+03  0.16661732912E+03  0.00000000000E+00 0. -1.
         25    1    1    2    0    0  0.00000000000E+00  0.00000000000E+00 -0.14317288897E+03  0.19006176926E+03  0.12500000000E+03 0.  0.
<mgrwt>
<rscale>  0 0.12500000E+03</rscale>
<asrwt>0</asrwt>
<pdfrwt beam="1">  1       21 0.36068369E-02 0.12500000E+03</pdfrwt>
<pdfrwt beam="2">  1       21 0.25633435E-01 0.12500000E+03</pdfrwt>
<totfact> 0.66015599E+06</totfact>
</mgrwt>
</event>
<event>
 3    1  0.1604658E-001  0.1250000E+03  0.7546771E-02  0.1235069E+00
         21   -1    0    0  502  501  0.00000000000E+00  0.00000000000E+00  0.60973515222E+03  0.60973515222E+03  0.00000000000E+00 0.  1.
         21   -1    0    0  501  502 -0.00000000000E+00 -0.00000000000E+00 -0.64064700646E+01  0.64064700646E+01  0.00000000000E+00 0.  1.
         25    1    1    2    0    0  0.00000000000E+00  0.00000000000E+00  0.60332868215E+03  0.61614162228E+03  0.12500000000E+03 0.  0.
<mgrwt>
<rscale>  0 0.12500000E+03</rscale>
<asrwt>0</asrwt>
<pdfrwt beam="1">  1       21 0.93805362E-01 0.12500000E+03</pdfrwt>
<pdfrwt beam="2">  1       21 0.98561126E-03 0.12500000E+03</pdfrwt>
<totfact> 0.36372687E+06</totfact>
</mgrwt>
</event>
<event>
 3    1  0.1604658E-001  0.1250000E+03  0.7546771E-02  0.1235069E+00
         21   -1    0    0  502  501  0.00000000000E+00  0.00000000000E+00  0.63226038247E+02  0.63226038247E+02  0.00000000000E+00 0.  1.
         21   -1    0    0  501  502 -0.00000000000E+00 -0.00000000000E+00 -0.61782299007E+02  0.61782299007E+02  0.00000000000E+00 0.  1.
         25    1    1    2    0    0  0.00000000000E+00  0.00000000000E+00  0.14437392409E+01  0.12500833725E+03  0.12500000000E+03 0.  0.
<mgrwt>
<rscale>  0 0.12500000E+03</rscale>
<asrwt>0</asrwt>
<pdfrwt beam="1">  1       21 0.97270828E-02 0.12500000E+03</pdfrwt>
<pdfrwt beam="2">  1       21 0.95049691E-02 0.12500000E+03</pdfrwt>
<totfact> 0.74042455E+06</totfact>
</mgrwt>
</event>
<event>
 3    1  0.1604658E-001  0.1250000E+03  0.7546771E-02  0.1235069E+00
         21   -1    0    0  502  501  0.00000000000E+00  0.00000000000E+00  0.70841671985E+03  0.70841671985E+03  0.00000000000E+00 0. -1.
         21   -1    0    0  501  502 -0.00000000000E+00 -0.00000000000E+00 -0.55140567558E+01  0.55140567558E+01  0.00000000000E+00 0. -1.
         25    1    1    2    0    0  0.00000000000E+00  0.00000000000E+00  0.70290266309E+03  0.71393077660E+03  0.12500000000E+03 0.  0.
<mgrwt>
<rscale>  0 0.12500000E+03</rscale>
<asrwt>0</asrwt>
<pdfrwt beam="1">  1       21 0.10898712E+00 0.12500000E+03</pdfrwt>
<pdfrwt beam="2">  1       21 0.84831699E-03 0.12500000E+03</pdfrwt>
<totfact> 0.32379954E+06</totfact>
</mgrwt>
</event>
<event>
 3    1  0.1604658E-001  0.1250000E+03  0.7546771E-02  0.1235069E+00
         21   -1    0    0  502  501  0.00000000000E+00  0.00000000000E+00  0.32274243457E+03  0.32274243457E+03  0.00000000000E+00 0. -1.
         21   -1    0    0  501  502 -0.00000000000E+00 -0.00000000000E+00 -0.12103304622E+02  0.12103304622E+02  0.00000000000E+00 0. -1.
         25    1    1    2    0    0  0.00000000000E+00  0.00000000000E+00  0.31063912994E+03  0.33484573919E+03  0.12500000000E+03 0.  0.
<mgrwt>
<rscale>  0 0.12500000E+03</rscale>
<asrwt>0</asrwt>
<pdfrwt beam="1">  1       21 0.49652676E-01 0.12500000E+03</pdfrwt>
<pdfrwt beam="2">  1       21 0.18620471E-02 0.12500000E+03</pdfrwt>
<totfact> 0.52677473E+06</totfact>
</mgrwt>
</event>
<event>
 3    1  0.1604658E-001  0.1250000E+03  0.7546771E-02  0.1235069E+00
         21   -1    0    0  502  501  0.00000000000E+00  0.00000000000E+00  0.99664922636E+02  0.99664922636E+02  0.00000000000E+00 0. -1.
         21   -1    0    0  501  502 -0.00000000000E+00 -0.00000000000E+00 -0.39193829651E+02  0.39193829651E+02  0.00000000000E+00 0. -1.
         25    1    1    2    0    0  0.00000000000E+00  0.00000000000E+00  0.60471092985E+02  0.13885875229E+03  0.12500000000E+03 0.  0.
<mgrwt>
<rscale>  0 0.12500000E+03</rscale>
<asrwt>0</asrwt>
<pdfrwt beam="1">  1       21 0.15333065E-01 0.12500000E+03</pdfrwt>
<pdfrwt beam="2">  1       21 0.60298200E-02 0.12500000E+03</pdfrwt>
<totfact> 0.72188648E+06</totfact>
</mgrwt>
</event>
<event>
 3    1  0.1604658E-001  0.1250000E+03  0.7546771E-02  0.1235069E+00
         21   -1    0    0  502  501  0.00000000000E+00  0.00000000000E+00  0.60635012947E+01  0.60635012947E+01  0.00000000000E+00 0.  1.
         21   -1    0    0  501  502 -0.00000000000E+00 -0.00000000000E+00 -0.64422349566E+03  0.64422349566E+03  0.00000000000E+00 0.  1.
         25    1    1    2    0    0  0.00000000000E+00  0.00000000000E+00 -0.63815999436E+03  0.65028699695E+03  0.12500000000E+03 0.  0.
<mgrwt>
<rscale>  0 0.12500000E+03</rscale>
<asrwt>0</asrwt>
<pdfrwt beam="1">  1       21 0.93284687E-03 0.12500000E+03</pdfrwt>
<pdfrwt beam="2">  1       21 0.99111252E-01 0.12500000E+03</pdfrwt>
<totfact> 0.34912614E+06</totfact>
</mgrwt>
</event>
<event>
 3    1  0.1604658E-001  0.1250000E+03  0.7546771E-02  0.1235069E+00
         21   -1    0    0  502  501  0.00000000000E+00  0.00000000000E+00  0.19275837195E+03  0.19275837195E+03  0.00000000000E+00 0. -1.
         21   -1    0    0  501  502 -0.00000000000E+00 -0.00000000000E+00 -0.20265008261E+02  0.20265008261E+02  0.00000000000E+00 0. -1.
         25    1    1    2    0    0  0.00000000000E+00  0.00000000000E+00  0.17249336369E+03  0.21302338021E+03  0.12500000000E+03 0.  0.
<mgrwt>
<rscale>  0 0.12500000E+03</rscale>
<asrwt>0</asrwt>
<pdfrwt beam="1">  1       21 0.29655133E-01 0.12500000E+03</pdfrwt>
<pdfrwt beam="2">  1       21 0.31176937E-02 0.12500000E+03</pdfrwt>
<totfact> 0.63542839E+06</totfact>
</mgrwt>
</event>
<event>
 3    1  0.1604658E-001  0.1250000E+03  0.7546771E-02  0.1235069E+00
         21   -1    0    0  502  501  0.00000000000E+00  0.00000000000E+00  0.26908577516E+03  0.26908577516E+03  0.00000000000E+00 0.  1.
         21   -1    0    0  501  502 -0.00000000000E+00 -0.00000000000E+00 -0.14516746556E+02  0.14516746556E+02  0.00000000000E+00 0.  1.
         25    1    1    2    0    0  0.00000000000E+00  0.00000000000E+00  0.25456902861E+03  0.28360252172E+03  0.12500000000E+03 0.  0.
<mgrwt>
<rscale>  0 0.12500000E+03</rscale>
<asrwt>0</asrwt>
<pdfrwt beam="1">  1       21 0.41397808E-01 0.12500000E+03</pdfrwt>
<pdfrwt beam="2">  1       21 0.22333458E-02 0.12500000E+03</pdfrwt>
<totfact> 0.56847008E+06</totfact>
</mgrwt>
</event>
<event>
 3    1  0.1604658E-001  0.1250000E+03  0.7546771E-02  0.1235069E+00
         21   -1    0    0  502  501  0.00000000000E+00  0.00000000000E+00  0.52263441315E+02  0.52263441315E+02  0.00000000000E+00 0.  1.
         21   -1    0    0  501  502 -0.00000000000E+00 -0.00000000000E+00 -0.74741538285E+02  0.74741538285E+02  0.00000000000E+00 0.  1.
         25    1    1    2    0    0  0.00000000000E+00  0.00000000000E+00 -0.22478096970E+02  0.12700497960E+03  0.12500000000E+03 0.  0.
<mgrwt>
<rscale>  0 0.12500000E+03</rscale>
<asrwt>0</asrwt>
<pdfrwt beam="1">  1       21 0.80405295E-02 0.12500000E+03</pdfrwt>
<pdfrwt beam="2">  1       21 0.11498698E-01 0.12500000E+03</pdfrwt>
<totfact> 0.73768458E+06</totfact>
</mgrwt>
</event>
<event>
 3    1  0.1604658E-001  0.1250000E+03  0.7546771E-02  0.1235069E+00
         21   -1    0    0  502  501  0.00000000000E+00  0.00000000000E+00  0.28894107012E+02  0.28894107012E+02  0.00000000000E+00 0.  1.
         21   -1    0    0  501  502 -0.00000000000E+00 -0.00000000000E+00 -0.13519192680E+03  0.13519192680E+03  0.00000000000E+00 0.  1.
         25    1    1    2    0    0  0.00000000000E+00  0.00000000000E+00 -0.10629781979E+03  0.16408603381E+03  0.12500000000E+03 0.  0.
<mgrwt>
<rscale>  0 0.12500000E+03</rscale>
<asrwt>0</asrwt>
<pdfrwt beam="1">  1       21 0.44452473E-02 0.12500000E+03</pdfrwt>
<pdfrwt beam="2">  1       21 0.20798758E-01 0.12500000E+03</pdfrwt>
<totfact> 0.69023642E+06</totfact>
</mgrwt>
</event>
<event>
 3    1  0.1604658E-001  0.1250000E+03  0.7546771E-02  0.1235069E+00
         21   -1    0    0  502  501  0.00000000000E+00  0.00000000000E+00  0.37279467911E+02  0.37279467911E+02  0.00000000000E+00 0.  1.
         21   -1    0    0  501  502 -0.00000000000E+00 -0.00000000000E+00 -0.10478287966E+03  0.10478287966E+03  0.00000000000E+00 0.  1.
         25    1    1    2    0    0  0.00000000000E+00  0.00000000000E+00 -0.67503411750E+02  0.14206234757E+03  0.12500000000E+03 0.  0.
<mgrwt>
<rscale>  0 0.12500000E+03</rscale>
<asrwt>0</asrwt>
<pdfrwt beam="1">  1       21 0.57353029E-02 0.12500000E+03</pdfrwt>
<pdfrwt beam="2">  1       21 0.16120443E-01 0.12500000E+03</pdfrwt>
<totfact> 0.71771204E+06</totfact>
</mgrwt>
</event>
<event>
 3    1  0.1604658E-001  0.1250000E+03  0.7546771E-02  0.1235069E+00
         21   -1    0    0  502  501  0.00000000000E+00  0.00000000000E+00  0.10805403215E+04  0.10805403215E+04  0.00000000000E+00 0.  1.
         21   -1    0    0  501  502 -0.00000000000E+00 -0.00000000000E+00 -0.36150895271E+01  0.36150895271E+01  0.00000000000E+00 0.  1.
         25    1    1    2    0    0  0.00000000000E+00  0.00000000000E+00  0.10769252320E+04  0.10841554111E+04  0.12500000000E+03 0.  0.
<mgrwt>
<rscale>  0 0.12500000E+03</rscale>
<asrwt>0</asrwt>
<pdfrwt beam="1">  1       21 0.16623672E+00 0.12500000E+03</pdfrwt>
<pdfrwt beam="2">  1       21 0.55616848E-03 0.12500000E+03</pdfrwt>
<totfact> 0.21607308E+06</totfact>
</mgrwt>
</event>
<event>
 3    1  0.1604658E-001  0.1250000E+03  0.7546771E-02  0.1235069E+00
         21   -1    0    0  502  501  0.00000000000E+00  0.00000000000E+00  0.12664047724E+02  0.12664047724E+02  0.00000000000E+00 0. -1.
         21   -1    0    0  501  502 -0.00000000000E+00 -0.00000000000E+00 -0.30845193300E+03  0.30845193300E+03  0.00000000000E+00 0. -1.
         25    1    1    2    0    0  0.00000000000E+00  0.00000000000E+00 -0.29578788528E+03  0.32111598073E+03  0.12500000000E+03 0.  0.
<mgrwt>
<rscale>  0 0.12500000E+03</rscale>
<asrwt>0</asrwt>
<pdfrwt beam="1">  1       21 0.19483151E-02 0.12500000E+03</pdfrwt>
<pdfrwt beam="2">  1       21 0.47454142E-01 0.12500000E+03</pdfrwt>
<totfact> 0.53745026E+06</totfact>
</mgrwt>
</event>
<event>
 3    1  0.1604658E-001  0.1250000E+03  0.7546771E-02  0.1235069E+00
         21   -1    0    0  502  501  0.00000000000E+00  0.00000000000E+00  0.17197343964E+03  0.17197343964E+03  0.00000000000E+00 0. -1.
         21   -1    0    0  501  502 -0.00000000000E+00 -0.00000000000E+00 -0.22714263367E+02  0.22714263367E+02  0.00000000000E+00 0. -1.
         25    1    1    2    0    0  0.00000000000E+00  0.00000000000E+00  0.14925917627E+03  0.19468770301E+03  0.12500000000E+03 0.  0.
<mgrwt>
<rscale>  0 0.12500000E+03</rscale>
<asrwt>0</asrwt>
<pdfrwt beam="1">  1       21 0.26457451E-01 0.12500000E+03</pdfrwt>
<pdfrwt beam="2">  1       21 0.34945022E-02 0.12500000E+03</pdfrwt>
<totfact> 0.65505219E+06</totfact>
</mgrwt>
</event>
<event>
 3    1  0.1604658E-001  0.1250000E+03  0.7546771E-02  0.1235069E+00
         21   -1    0    0  502  501  0.00000000000E+00  0.00000000000E+00  0.82267319280E+02  0.82267319280E+02  0.00000000000E+00 0. -1.
         21   -1    0    0  501  502 -0.00000000000E+00 -0.00000000000E+00 -0.47482402905E+02  0.47482402905E+02  0.00000000000E+00 0. -1.
         25    1    1    2    0    0  0.00000000000E+00  0.00000000000E+00  0.34784916375E+02  0.12974972219E+03  0.12500000000E+03 0.  0.
<mgrwt>
<rscale>  0 0.12500000E+03</rscale>
<asrwt>0</asrwt>
<pdfrwt beam="1">  1       21 0.12656511E-01 0.12500000E+03</pdfrwt>
<pdfrwt beam="2">  1       21 0.73049851E-02 0.12500000E+03</pdfrwt>
<totfact> 0.73398383E+06</totfact>
</mgrwt>
</event>
<event>
 3    1  0.1604658E-001  0.1250000E+03  0.7546771E-02  0.1235069E+00
         21   -1    0    0  502  501  0.00000000000E+00  0.00000000000E+00  0.27550491622E+02  0.27550491622E+02  0.00000000000E+00 0.  1.
         21   -1    0    0  501  502 -0.00000000000E+00 -0.00000000000E+00 -0.14178512869E+03  0.14178512869E+03  0.00000000000E+00 0.  1.
         25    1    1    2    0    0  0.00000000000E+00  0.00000000000E+00 -0.11423463707E+03  0.16933562031E+03  0.12500000000E+03 0.  0.
<mgrwt>
<rscale>  0 0.12500000E+03</rscale>
<asrwt>0</asrwt>
<pdfrwt beam="1">  1       21 0.42385371E-02 0.12500000E+03</pdfrwt>
<pdfrwt beam="2">  1       21 0.21813097E-01 0.12500000E+03</pdfrwt>
<totfact> 0.68396393E+06</totfact>
</mgrwt>
</event>
<event>
 3    1  0.1604658E-001  0.1250000E+03  0.7546771E-02  0.1235069E+00
         21   -1    0    0  502  501  0.00000000000E+00  0.00000000000E+00  0.18253728922E+02  0.18253728922E+02  0.00000000000E+00 0.  1.
         21   -1    0    0  501  502 -0.00000000000E+00 -0.00000000000E+00 -0.21399737099E+03  0.21399737099E+03  0.00000000000E+00 0.  1.
         25    1    1    2    0    0  0.00000000000E+00  0.00000000000E+00 -0.19574364207E+03  0.23225109991E+03  0.12500000000E+03 0.  0.
<mgrwt>
<rscale>  0 0.12500000E+03</rscale>
<asrwt>0</asrwt>
<pdfrwt beam="1">  1       21 0.28082660E-02 0.12500000E+03</pdfrwt>
<pdfrwt beam="2">  1       21 0.32922673E-01 0.12500000E+03</pdfrwt>
<totfact> 0.61590666E+06</totfact>
</mgrwt>
</event>
<event>
 3    1  0.1604658E-001  0.1250000E+03  0.7546771E-02  0.1235069E+00
         21   -1    0    0  502  501  0.00000000000E+00  0.00000000000E+00  0.61354105320E+02  0.61354105320E+02  0.00000000000E+00 0. -1.
         21   -1    0    0  501  502 -0.00000000000E+00 -0.00000000000E+00 -0.63667296257E+02  0.63667296257E+02  0.00000000000E+00 0. -1.
         25    1    1    2    0    0  0.00000000000E+00  0.00000000000E+00 -0.23131909372E+01  0.12502140158E+03  0.12500000000E+03 0.  0.
<mgrwt>
<rscale>  0 0.12500000E+03</rscale>
<asrwt>0</asrwt>
<pdfrwt beam="1">  1       21 0.94390931E-02 0.12500000E+03</pdfrwt>
<pdfrwt beam="2">  1       21 0.97949687E-02 0.12500000E+03</pdfrwt>
<totfact> 0.74040691E+06</totfact>
</mgrwt>
</event>
<event>
 3    1  0.1604658E-001  0.1250000E+03  0.7546771E-02  0.1235069E+00
         21   -1    0    0  502  501  0.00000000000E+00  0.00000000000E+00  0.34860359713E+02  0.34860359713E+02  0.00000000000E+00 0. -1.
         21   -1    0    0  501  502 -0.00000000000E+00 -0.00000000000E+00 -0.11205420805E+03  0.11205420805E+03  0.00000000000E+00 0. -1.
         25    1    1    2    0    0  0.00000000000E+00  0.00000000000E+00 -0.77193848339E+02  0.14691456776E+03  0.12500000000E+03 0.  0.
<mgrwt>
<rscale>  0 0.12500000E+03</rscale>
<asrwt>0</asrwt>
<pdfrwt beam="1">  1       21 0.53631322E-02 0.12500000E+03</pdfrwt>
<pdfrwt beam="2">  1       21 0.17239109E-01 0.12500000E+03</pdfrwt>
<totfact> 0.71148974E+06</totfact>
</mgrwt>
</event>
<event>
 3    1  0.1604658E-001  0.1250000E+03  0.7546771E-02  0.1235069E+00
         21   -1    0    0  502  501  0.00000000000E+00  0.00000000000E+00  0.39838179691E+02  0.39838179691E+02  0.00000000000E+00 0. -1.
         21   -1    0    0  501  502 -0.00000000000E+00 -0.00000000000E+00 -0.98052923860E+02  0.98052923860E+02  0.00000000000E+00 0. -1.
         25    1    1    2    0    0  0.00000000000E+00  0.00000000000E+00 -0.58214744169E+02  0.13789110355E+03  0.12500000000E+03 0.  0.
<mgrwt>
<rscale>  0 0.12500000E+03</rscale>
<asrwt>0</asrwt>
<pdfrwt beam="1">  1       21 0.61289507E-02 0.12500000E+03</pdfrwt>
<pdfrwt beam="2">  1       21 0.15085065E-01 0.12500000E+03</pdfrwt>
<totfact> 0.72315830E+06</totfact>
</mgrwt>
</event>
<event>
 3    1  0.1604658E-001  0.1250000E+03  0.7546771E-02  0.1235069E+00
         21   -1    0    0  502  501  0.00000000000E+00  0.00000000000E+00  0.11262719045E+02  0.11262719045E+02  0.00000000000E+00 0.  1.
         21   -1    0    0  501  502 -0.00000000000E+00 -0.00000000000E+00 -0.34683010243E+03  0.34683010243E+03  0.00000000000E+00 0.  1.
         25    1    1    2    0    0  0.00000000000E+00  0.00000000000E+00 -0.33556738338E+03  0.35809282147E+03  0.12500000000E+03 0.  0.
<mgrwt>
<rscale>  0 0.12500000E+03</rscale>
<asrwt>0</asrwt>
<pdfrwt beam="1">  1       21 0.17327260E-02 0.12500000E+03</pdfrwt>
<pdfrwt beam="2">  1       21 0.53358479E-01 0.12500000E+03</pdfrwt>
<totfact> 0.50946252E+06</totfact>
</mgrwt>
</event>
<event>
 3    1  0.1604658E-001  0.1250000E+03  0.7546771E-02  0.1235069E+00
         21   -1    0    0  502  501  0.00000000000E+00  0.00000000000E+00  0.24085496584E+02  0.24085496584E+02  0.00000000000E+00 0.  1.
         21   -1    0    0  501  502 -0.00000000000E+00 -0.00000000000E+00 -0.16218266401E+03  0.16218266401E+03  0.00000000000E+00 0.  1.
         25    1    1    2    0    0  0.00000000000E+00  0.00000000000E+00 -0.13809716742E+03  0.18626816059E+03  0.12500000000E+03 0.  0.
<mgrwt>
<rscale>  0 0.12500000E+03</rscale>
<asrwt>0</asrwt>
<pdfrwt beam="1">  1       21 0.37054610E-02 0.12500000E+03</pdfrwt>
<pdfrwt beam="2">  1       21 0.24951179E-01 0.12500000E+03</pdfrwt>
<totfact> 0.66439645E+06</totfact>
</mgrwt>
</event>
<event>
 3    1  0.1604658E-001  0.1250000E+03  0.7546771E-02  0.1235069E+00
         21   -1    0    0  502  501  0.00000000000E+00  0.00000000000E+00  0.75530985451E+02  0.75530985451E+02  0.00000000000E+00 0.  1.
         21   -1    0    0  501  502 -0.00000000000E+00 -0.00000000000E+00 -0.51717185691E+02  0.51717185691E+02  0.00000000000E+00 0.  1.
         25    1    1    2    0    0  0.00000000000E+00  0.00000000000E+00  0.23813799761E+02  0.12724817114E+03  0.12500000000E+03 0.  0.
<mgrwt>
<rscale>  0 0.12500000E+03</rscale>
<asrwt>0</asrwt>
<pdfrwt beam="1">  1       21 0.11620152E-01 0.12500000E+03</pdfrwt>
<pdfrwt beam="2">  1       21 0.79564901E-02 0.12500000E+03</pdfrwt>
<totfact> 0.73735390E+06</totfact>
</mgrwt>
</event>
<event>
 3    1  0.1604658E-001  0.1250000E+03  0.7546771E-02  0.1235069E+00
         21   -1    0    0  502  501  0.00000000000E+00  0.00000000000E+00  0.95458394361E+02  0.95458394361E+02  0.00000000000E+00 0. -1.
         21   -1    0    0  501  502 -0.00000000000E+00 -0.00000000000E+00 -0.40920969037E+02  0.40920969037E+02  0.00000000000E+00 0. -1.
         25    1    1    2    0    0  0.00000000000E+00  0.00000000000E+00  0.54537425324E+02  0.13637936340E+03  0.12500000000E+03 0.  0.
<mgrwt>
<rscale>  0 0.12500000E+03</rscale>
<asrwt>0</asrwt>
<pdfrwt beam="1">  1       21 0.14685907E-01 0.12500000E+03</pdfrwt>
<pdfrwt beam="2">  1       21 0.62955337E-02 0.12500000E+03</pdfrwt>
<totfact> 0.72514346E+06</totfact>
</mgrwt>
</event>
<event>
 3    1  0.1604658E-001  0.1250000E+03  0.7546771E-02  0.1235069E+00
         21   -1    0    0  502  501  0.00000000000E+00  0.00000000000E+00  0.99748827975E+02  0.99748827975E+02  0.00000000000E+00 0.  1.
         21   -1    0    0  501  502 -0.00000000000E+00 -0.00000000000E+00 -0.39160861128E+02  0.39160861128E+02  0.00000000000E+00 0.  1.
         25    1    1    2    0    0  0.00000000000E+00  0.00000000000E+00  0.60587966847E+02  0.13890968910E+03  0.12500000000E+03 0.  0.
<mgrwt>
<rscale>  0 0.12500000E+03</rscale>
<asrwt>0</asrwt>
<pdfrwt beam="1">  1       21 0.15345973E-01 0.12500000E+03</pdfrwt>
<pdfrwt beam="2">  1       21 0.60247479E-02 0.12500000E+03</pdfrwt>
<totfact> 0.72181967E+06</totfact>
</mgrwt>
</event>
<event>
 3    1  0.1604658E-001  0.1250000E+03  0.7546771E-02  0.1235069E+00
         21   -1    0    0  502  501  0.00000000000E+00  0.00000000000E+00  0.18756653982E+02  0.18756653982E+02  0.00000000000E+00 0. -1.
         21   -1    0    0  501  502 -0.00000000000E+00 -0.00000000000E+00 -0.20825942643E+03  0.20825942643E+03  0.00000000000E+00 0. -1.
         25    1    1    2    0    0  0.00000000000E+00  0.00000000000E+00 -0.18950277245E+03  0.22701608041E+03  0.12500000000E+03 0.  0.
<mgrwt>
<rscale>  0 0.12500000E+03</rscale>
<asrwt>0</asrwt>
<pdfrwt beam="1">  1       21 0.28856391E-02 0.12500000E+03</pdfrwt>
<pdfrwt beam="2">  1       21 0.32039912E-01 0.12500000E+03</pdfrwt>
<totfact> 0.62112190E+06</totfact>
</mgrwt>
</event>
<event>
 3    1  0.1604658E-001  0.1250000E+03  0.7546771E-02  0.1235069E+00
         21   -1    0    0  502  501  0.00000000000E+00  0.00000000000E+00  0.12209163213E+03  0.12209163213E+03  0.00000000000E+00 0.  1.
         21   -1    0    0  501  502 -0.00000000000E+00 -0.00000000000E+00 -0.31994412163E+02  0.31994412163E+02  0.00000000000E+00 0.  1.
         25    1    1    2    0    0  0.00000000000E+00  0.00000000000E+00  0.90097219965E+02  0.15408604429E+03  0.12500000000E+03 0.  0.
<mgrwt>
<rscale>  0 0.12500000E+03</rscale>
<asrwt>0</asrwt>
<pdfrwt beam="1">  1       21 0.18783328E-01 0.12500000E+03</pdfrwt>
<pdfrwt beam="2">  1       21 0.49222173E-02 0.12500000E+03</pdfrwt>
<totfact> 0.70249430E+06</totfact>
</mgrwt>
</event>
<event>
 3    1  0.1604658E-001  0.1250000E+03  0.7546771E-02  0.1235069E+00
         21   -1    0    0  502  501  0.00000000000E+00  0.00000000000E+00  0.21328276198E+02  0.21328276198E+02  0.00000000000E+00 0.  1.
         21   -1    0    0  501  502 -0.00000000000E+00 -0.00000000000E+00 -0.18314888478E+03  0.18314888478E+03  0.00000000000E+00 0.  1.
         25    1    1    2    0    0  0.00000000000E+00  0.00000000000E+00 -0.16182060858E+03  0.20447716098E+03  0.12500000000E+03 0.  0.
<mgrwt>
<rscale>  0 0.12500000E+03</rscale>
<asrwt>0</asrwt>
<pdfrwt beam="1">  1       21 0.32812733E-02 0.12500000E+03</pdfrwt>
<pdfrwt beam="2">  1       21 0.28176751E-01 0.12500000E+03</pdfrwt>
<totfact> 0.64445327E+06</totfact>
</mgrwt>
</event>
<event>
 3    1  0.1604658E-001  0.1250000E+03  0.7546771E-02  0.1235069E+00
         21   -1    0    0  502  501  0.00000000000E+00  0.00000000000E+00  0.10772549987E+02  0.10772549987E+02  0.00000000000E+00 0.  1.
         21   -1    0    0  501  502 -0.00000000000E+00 -0.00000000000E+00 -0.36261145270E+03  0.36261145270E+03  0.00000000000E+00 0.  1.
         25    1    1    2    0    0  0.00000000000E+00  0.00000000000E+00 -0.35183890271E+03  0.37338400269E+03  0.12500000000E+03 0.  0.
<mgrwt>
<rscale>  0 0.12500000E+03</rscale>
<asrwt>0</asrwt>
<pdfrwt beam="1">  1       21 0.16573155E-02 0.12500000E+03</pdfrwt>
<pdfrwt beam="2">  1       21 0.55786374E-01 0.12500000E+03</pdfrwt>
<totfact> 0.49856480E+06</totfact>
</mgrwt>
</event>
<event>
 3    1  0.1604658E-001  0.1250000E+03  0.7546771E-02  0.1235069E+00
         21   -1    0    0  502  501  0.00000000000E+00  0.00000000000E+00  0.20464230617E+02  0.20464230617E+02  0.00000000000E+00 0.  1.
         21   -1    0    0  501  502 -0.00000000000E+00 -0.00000000000E+00 -0.19088184027E+03  0.19088184027E+03  0.00000000000E+00 0.  1.
         25    1    1    2    0    0  0.00000000000E+00  0.00000000000E+00 -0.17041760966E+03  0.21134607089E+03  0.12500000000E+03 0.  0.
<mgrwt>
<rscale>  0 0.12500000E+03</rscale>
<asrwt>0</asrwt>
<pdfrwt beam="1">  1       21 0.31483433E-02 0.12500000E+03</pdfrwt>
<pdfrwt beam="2">  1       21 0.29366436E-01 0.12500000E+03</pdfrwt>
<totfact> 0.63718192E+06</totfact>
</mgrwt>
</event>
<event>
 3    1  0.1604658E-001  0.1250000E+03  0.7546771E-02  0.1235069E+00
         21   -1    0    0  502  501  0.00000000000E+00  0.00000000000E+00  0.36953506379E+01  0.36953506379E+01  0.00000000000E+00 0. -1.
         21   -1    0    0  501  502 -0.00000000000E+00 -0.00000000000E+00 -0.10570715428E+04  0.10570715428E+04  0.00000000000E+00 0. -1.
         25    1    1    2    0    0  0.00000000000E+00  0.00000000000E+00 -0.10533761922E+04  0.10607668934E+04  0.12500000000E+03 0.  0.
<mgrwt>
<rscale>  0 0.12500000E+03</rscale>
<asrwt>0</asrwt>
<pdfrwt beam="1">  1       21 0.56851471E-03 0.12500000E+03</pdfrwt>
<pdfrwt beam="2">  1       21 0.16262661E+00 0.12500000E+03</pdfrwt>
<totfact> 0.22145678E+06</totfact>
</mgrwt>
</event>
<event>
 3    1  0.1604658E-001  0.1250000E+03  0.7546771E-02  0.1235069E+00
         21   -1    0    0  502  501  0.00000000000E+00  0.00000000000E+00  0.84797362951E+03  0.84797362951E+03  0.00000000000E+00 0. -1.
         21   -1    0    0  501  502 -0.00000000000E+00 -0.00000000000E+00 -0.46065701386E+01  0.46065701386E+01  0.00000000000E+00 0. -1.
         25    1    1    2    0    0  0.00000000000E+00  0.00000000000E+00  0.84336705937E+03  0.85258019965E+03  0.12500000000E+03 0.  0.
<mgrwt>
<rscale>  0 0.12500000E+03</rscale>
<asrwt>0</asrwt>
<pdfrwt beam="1">  1       21 0.13045736E+00 0.12500000E+03</pdfrwt>
<pdfrwt beam="2">  1       21 0.70870377E-03 0.12500000E+03</pdfrwt>
<totfact> 0.27693083E+06</totfact>
</mgrwt>
</event>
<event>
 3    1  0.1604658E-001  0.1250000E+03  0.7546771E-02  0.1235069E+00
         21   -1    0    0  502  501  0.00000000000E+00  0.00000000000E+00  0.77907377209E+02  0.77907377209E+02  0.00000000000E+00 0.  1.
         21   -1    0    0  501  502 -0.00000000000E+00 -0.00000000000E+00 -0.50139667640E+02  0.50139667640E+02  0.00000000000E+00 0.  1.
         25    1    1    2    0    0  0.00000000000E+00  0.00000000000E+00  0.27767709569E+02  0.12804704485E+03  0.12500000000E+03 0.  0.
<mgrwt>
<rscale>  0 0.12500000E+03</rscale>
<asrwt>0</asrwt>
<pdfrwt beam="1">  1       21 0.11985750E-01 0.12500000E+03</pdfrwt>
<pdfrwt beam="2">  1       21 0.77137950E-02 0.12500000E+03</pdfrwt>
<totfact> 0.73627205E+06</totfact>
</mgrwt>
</event>
<event>
 3    1  0.1604658E-001  0.1250000E+03  0.7546771E-02  0.1235069E+00
         21   -1    0    0  502  501  0.00000000000E+00  0.00000000000E+00  0.45801772575E+01  0.45801772575E+01  0.00000000000E+00 0. -1.
         21   -1    0    0  501  502 -0.00000000000E+00 -0.00000000000E+00 -0.85286000527E+03  0.85286000527E+03  0.00000000000E+00 0. -1.
         25    1    1    2    0    0  0.00000000000E+00  0.00000000000E+00 -0.84827982801E+03  0.85744018253E+03  0.12500000000E+03 0.  0.
<mgrwt>
<rscale>  0 0.12500000E+03</rscale>
<asrwt>0</asrwt>
<pdfrwt beam="1">  1       21 0.70464289E-03 0.12500000E+03</pdfrwt>
<pdfrwt beam="2">  1       21 0.13120919E+00 0.12500000E+03</pdfrwt>
<totfact> 0.27545779E+06</totfact>
</mgrwt>
</event>
<event>
 3    1  0.1604658E-001  0.1250000E+03  0.7546771E-02  0.1235069E+00
         21   -1    0    0  502  501  0.00000000000E+00  0.00000000000E+00  0.28727880524E+03  0.28727880524E+03  0.00000000000E+00 0.  1.
         21   -1    0    0  501  502 -0.00000000000E+00 -0.00000000000E+00 -0.13597418009E+02  0.13597418009E+02  0.00000000000E+00 0.  1.
         25    1    1    2    0    0  0.00000000000E+00  0.00000000000E+00  0.27368138723E+03  0.30087622325E+03  0.12500000000E+03 0.  0.
<mgrwt>
<rscale>  0 0.12500000E+03</rscale>
<asrwt>0</asrwt>
<pdfrwt beam="1">  1       21 0.44196735E-01 0.12500000E+03</pdfrwt>
<pdfrwt beam="2">  1       21 0.20919107E-02 0.12500000E+03</pdfrwt>
<totfact> 0.55383437E+06</totfact>
</mgrwt>
</event>
<event>
 3    1  0.1604658E-001  0.1250000E+03  0.7546771E-02  0.1235069E+00
         21   -1    0    0  502  501  0.00000000000E+00  0.00000000000E+00  0.28705028062E+02  0.28705028062E+02  0.00000000000E+00 0. -1.
         21   -1    0    0  501  502 -0.00000000000E+00 -0.00000000000E+00 -0.13608243098E+03  0.13608243098E+03  0.00000000000E+00 0. -1.
         25    1    1    2    0    0  0.00000000000E+00  0.00000000000E+00 -0.10737740292E+03  0.16478745904E+03  0.12500000000E+03 0.  0.
<mgrwt>
<rscale>  0 0.12500000E+03</rscale>
<asrwt>0</asrwt>
<pdfrwt beam="1">  1       21 0.44161581E-02 0.12500000E+03</pdfrwt>
<pdfrwt beam="2">  1       21 0.20935759E-01 0.12500000E+03</pdfrwt>
<totfact> 0.68939200E+06</totfact>
</mgrwt>
</event>
<event>
 3    1  0.1604658E-001  0.1250000E+03  0.7546771E-02  0.1235069E+00
         21   -1    0    0  502  501  0.00000000000E+00  0.00000000000E+00  0.27116572130E+02  0.27116572130E+02  0.00000000000E+00 0.  1.
         21   -1    0    0  501  502 -0.00000000000E+00 -0.00000000000E+00 -0.14405397486E+03  0.14405397486E+03  0.00000000000E+00 0.  1.
         25    1    1    2    0    0  0.00000000000E+00  0.00000000000E+00 -0.11693740273E+03  0.17117054699E+03  0.12500000000E+03 0.  0.
<mgrwt>
<rscale>  0 0.12500000E+03</rscale>
<asrwt>0</asrwt>
<pdfrwt beam="1">  1       21 0.41717803E-02 0.12500000E+03</pdfrwt>
<pdfrwt beam="2">  1       21 0.22162150E-01 0.12500000E+03</pdfrwt>
<totfact> 0.68179144E+06</totfact>
</mgrwt>
</event>
<event>
 3    1  0.1604658E-001  0.1250000E+03  0.7546771E-02  0.1235069E+00
         21   -1    0    0  502  501  0.00000000000E+00  0.00000000000E+00  0.84411677837E+03  0.84411677837E+03  0.00000000000E+00 0.  1.
         21   -1    0    0  501  502 -0.00000000000E+00 -0.00000000000E+00 -0.46276180028E+01  0.46276180028E+01  0.00000000000E+00 0.  1.
         25    1    1    2    0    0  0.00000000000E+00  0.00000000000E+00  0.83948916036E+03  0.84874439637E+03  0.12500000000E+03 0.  0.
<mgrwt>
<rscale>  0 0.12500000E+03</rscale>
<asrwt>0</asrwt>
<pdfrwt beam="1">  1       21 0.12986400E+00 0.12500000E+03</pdfrwt>
<pdfrwt beam="2">  1       21 0.71194190E-03 0.12500000E+03</pdfrwt>
<totfact> 0.27810141E+06</totfact>
</mgrwt>
</event>
<event>
 3    1  0.1604658E-001  0.1250000E+03  0.7546771E-02  0.1235069E+00
         21   -1    0    0  502  501  0.00000000000E+00  0.00000000000E+00  0.45500467171E+02  0.45500467171E+02  0.00000000000E+00 0. -1.
         21   -1    0    0  501  502 -0.00000000000E+00 -0.00000000000E+00 -0.85850766880E+02  0.85850766880E+02  0.00000000000E+00 0. -1.
         25    1    1    2    0    0  0.00000000000E+00  0.00000000000E+00 -0.40350299709E+02  0.13135123405E+03  0.12500000000E+03 0.  0.
<mgrwt>
<rscale>  0 0.12500000E+03</rscale>
<asrwt>0</asrwt>
<pdfrwt beam="1">  1       21 0.70000719E-02 0.12500000E+03</pdfrwt>
<pdfrwt beam="2">  1       21 0.13207810E-01 0.12500000E+03</pdfrwt>
<totfact> 0.73183379E+06</totfact>
</mgrwt>
</event>
<event>
 3    1  0.1604658E-001  0.1250000E+03  0.7546771E-02  0.1235069E+00
         21   -1    0    0  502  501  0.00000000000E+00  0.00000000000E+00  0.22073986989E+02  0.22073986989E+02  0.00000000000E+00 0. -1.
         21   -1    0    0  501  502 -0.00000000000E+00 -0.00000000000E+00 -0.17696168807E+03  0.17696168807E+03  0.00000000000E+00 0. -1.
         25    1    1    2    0    0  0.00000000000E+00  0.00000000000E+00 -0.15488770108E+03  0.19903567506E+03  0.12500000000E+03 0.  0.
<mgrwt>
<rscale>  0 0.12500000E+03</rscale>
<asrwt>0</asrwt>
<pdfrwt beam="1">  1       21 0.33959980E-02 0.12500000E+03</pdfrwt>
<pdfrwt beam="2">  1       21 0.27224875E-01 0.12500000E+03</pdfrwt>
<totfact> 0.65031893E+06</totfact>
</mgrwt>
</event>
<event>
 3    1  0.1604658E-001  0.1250000E+03  0.7546771E-02  0.1235069E+00
         21   -1    0    0  502  501  0.00000000000E+00  0.00000000000E+00  0.16349534462E+03  0.16349534462E+03  0.00000000000E+00 0.  1.
         21   -1    0    0  501  502 -0.00000000000E+00 -0.00000000000E+00 -0.23892117595E+02  0.23892117595E+02  0.00000000000E+00 0.  1.
         25    1    1    2    0    0  0.00000000000E+00  0.00000000000E+00  0.13960322703E+03  0.18738746222E+03  0.12500000000E+03 0.  0.
<mgrwt>
<rscale>  0 0.12500000E+03</rscale>
<asrwt>0</asrwt>
<pdfrwt beam="1">  1       21 0.25153129E-01 0.12500000E+03</pdfrwt>
<pdfrwt beam="2">  1       21 0.36757105E-02 0.12500000E+03</pdfrwt>
<totfact> 0.66314007E+06</totfact>
</mgrwt>
</event>
<event>
 3    1  0.1604658E-001  0.1250000E+03  0.7546771E-02  0.1235069E+00
         21   -1    0    0  502  501  0.00000000000E+00  0.00000000000E+00  0.12145839007E+03  0.12145839007E+03  0.00000000000E+00 0.  1.
         21   -1    0    0  501  502 -0.00000000000E+00 -0.00000000000E+00 -0.32161219968E+02  0.32161219968E+02  0.00000000000E+00 0.  1.
         25    1    1    2    0    0  0.00000000000E+00  0.00000000000E+00  0.89297170101E+02  0.15361961004E+03  0.12500000000E+03 0.  0.
<mgrwt>
<rscale>  0 0.12500000E+03</rscale>
<asrwt>0</asrwt>
<pdfrwt beam="1">  1       21 0.18685906E-01 0.12500000E+03</pdfrwt>
<pdfrwt beam="2">  1       21 0.49478801E-02 0.12500000E+03</pdfrwt>
<totfact> 0.70307418E+06</totfact>
</mgrwt>
</event>
<event>
 3    1  0.1604658E-001  0.1250000E+03  0.7546771E-02  0.1235069E+00
         21   -1    0    0  502  501  0.00000000000E+00  0.00000000000E+00  0.12741437795E+02  0.12741437795E+02  0.00000000000E+00 0. -1.
         21   -1    0    0  501  502 -0.00000000000E+00 -0.00000000000E+00 -0.30657843037E+03  0.30657843037E+03  0.00000000000E+00 0. -1.
         25    1    1    2    0    0  0.00000000000E+00  0.00000000000E+00 -0.29383699258E+03  0.31931986817E+03  0.12500000000E+03 0.  0.
<mgrwt>
<rscale>  0 0.12500000E+03</rscale>
<asrwt>0</asrwt>
<pdfrwt beam="1">  1       21 0.19602217E-02 0.12500000E+03</pdfrwt>
<pdfrwt beam="2">  1       21 0.47165901E-01 0.12500000E+03</pdfrwt>
<totfact> 0.53887289E+06</totfact>
</mgrwt>
</event>
<event>
 3    1  0.1604658E-001  0.1250000E+03  0.7546771E-02  0.1235069E+00
         21   -1    0    0  502  501  0.00000000000E+00  0.00000000000E+00  0.29127031739E+02  0.29127031739E+02  0.00000000000E+00 0. -1.
         21   -1    0    0  501  502 -0.00000000000E+00 -0.00000000000E+00 -0.13411081620E+03  0.13411081620E+03  0.00000000000E+00 0. -1.
         25    1    1    2    0    0  0.00000000000E+00  0.00000000000E+00 -0.10498378446E+03  0.16323784794E+03  0.12500000000E+03 0.  0.
<mgrwt>
<rscale>  0 0.12500000E+03</rscale>
<asrwt>0</asrwt>
<pdfrwt beam="1">  1       21 0.44810818E-02 0.12500000E+03</pdfrwt>
<pdfrwt beam="2">  1       21 0.20632433E-01 0.12500000E+03</pdfrwt>
<totfact> 0.69126014E+06</totfact>
</mgrwt>
</event>
<event>
 3    1  0.1604658E-001  0.1250000E+03  0.7546771E-02  0.1235069E+00
         21   -1    0    0  502  501  0.00000000000E+00  0.00000000000E+00  0.19336386329E+03  0.19336386329E+03  0.00000000000E+00 0. -1.
         21   -1    0    0  501  502 -0.00000000000E+00 -0.00000000000E+00 -0.20201551280E+02  0.20201551280E+02  0.00000000000E+00 0. -1.
         25    1    1    2    0    0  0.00000000000E+00  0.00000000000E+00  0.17316231201E+03  0.21356541457E+03  0.12500000000E+03 0.  0.
<mgrwt>
<rscale>  0 0.12500000E+03</rscale>
<asrwt>0</asrwt>
<pdfrwt beam="1">  1       21 0.29748286E-01 0.12500000E+03</pdfrwt>
<pdfrwt beam="2">  1       21 0.31079311E-02 0.12500000E+03</pdfrwt>
<totfact> 0.63486355E+06</totfact>
</mgrwt>
</event>
<event>
 3    1  0.1604658E-001  0.1250000E+03  0.7546771E-02  0.1235069E+00
         21   -1    0    0  502  501  0.00000000000E+00  0.00000000000E+00  0.17775058506E+03  0.17775058506E+03  0.00000000000E+00 0.  1.
         21   -1    0    0  501  502 -0.00000000000E+00 -0.00000000000E+00 -0.21976017681E+02  0.21976017681E+02  0.00000000000E+00 0.  1.
         25    1    1    2    0    0  0.00000000000E+00  0.00000000000E+00  0.15577456738E+03  0.19972660274E+03  0.12500000000E+03 0.  0.
<mgrwt>
<rscale>  0 0.12500000E+03</rscale>
<asrwt>0</asrwt>
<pdfrwt beam="1">  1       21 0.27346243E-01 0.12500000E+03</pdfrwt>
<pdfrwt beam="2">  1       21 0.33809259E-02 0.12500000E+03</pdfrwt>
<totfact> 0.64956889E+06</totfact>
</mgrwt>
</event>
<event>
 3    1  0.1604658E-001  0.1250000E+03  0.7546771E-02  0.1235069E+00
         21   -1    0    0  502  501  0.00000000000E+00  0.00000000000E+00  0.75338631641E+01  0.75338631641E+01  0.00000000000E+00 0. -1.
         21   -1    0    0  501  502 -0.00000000000E+00 -0.00000000000E+00 -0.51849229471E+03  0.51849229471E+03  0.00000000000E+00 0. -1.
         25    1    1    2    0    0  0.00000000000E+00  0.00000000000E+00 -0.51095843155E+03  0.52602615787E+03  0.12500000000E+03 0.  0.
<mgrwt>
<rscale>  0 0.12500000E+03</rscale>
<asrwt>0</asrwt>
<pdfrwt beam="1">  1       21 0.11590557E-02 0.12500000E+03</pdfrwt>
<pdfrwt beam="2">  1       21 0.79768054E-01 0.12500000E+03</pdfrwt>
<totfact> 0.40666893E+06</totfact>
</mgrwt>
</event>
<event>
 3    1  0.1604658E-001  0.1250000E+03  0.7546771E-02  0.1235069E+00
         21   -1    0    0  502  501  0.00000000000E+00  0.00000000000E+00  0.54102328847E+02  0.54102328847E+02  0.00000000000E+00 0.  1.
         21   -1    0    0  501  502 -0.00000000000E+00 -0.00000000000E+00 -0.72201143338E+02  0.72201143338E+02  0.00000000000E+00 0.  1.
         25    1    1    2    0    0  0.00000000000E+00  0.00000000000E+00 -0.18098814491E+02  0.12630347219E+03  0.12500000000E+03 0.  0.
<mgrwt>
<rscale>  0 0.12500000E+03</rscale>
<asrwt>0</asrwt>
<pdfrwt beam="1">  1       21 0.83234352E-02 0.12500000E+03</pdfrwt>
<pdfrwt beam="2">  1       21 0.11107868E-01 0.12500000E+03</pdfrwt>
<totfact> 0.73864302E+06</totfact>
</mgrwt>
</event>
<event>
 3    1  0.1604658E-001  0.1250000E+03  0.7546771E-02  0.1235069E+00
         21   -1    0    0  502  501  0.00000000000E+00  0.00000000000E+00  0.23218472821E+03  0.23218472821E+03  0.00000000000E+00 0.  1.
         21   -1    0    0  501  502 -0.00000000000E+00 -0.00000000000E+00 -0.16823888591E+02  0.16823888591E+02  0.00000000000E+00 0.  1.
         25    1    1    2    0    0  0.00000000000E+00  0.00000000000E+00  0.21536083962E+03  0.24900861680E+03  0.12500000000E+03 0.  0.
<mgrwt>
<rscale>  0 0.12500000E+03</rscale>
<asrwt>0</asrwt>
<pdfrwt beam="1">  1       21 0.35720725E-01 0.12500000E+03</pdfrwt>
<pdfrwt beam="2">  1       21 0.25882907E-02 0.12500000E+03</pdfrwt>
<totfact> 0.59971653E+06</totfact>
</mgrwt>
</event>
<event>
 3    1  0.1604658E-001  0.1250000E+03  0.7546771E-02  0.1235069E+00
         21   -1    0    0  502  501  0.00000000000E+00  0.00000000000E+00  0.10861723303E+03  0.10861723303E+03  0.00000000000E+00 0. -1.
         21   -1    0    0  501  502 -0.00000000000E+00 -0.00000000000E+00 -0.35963446047E+02  0.35963446047E+02  0.00000000000E+00 0. -1.
         25    1    1    2    0    0  0.00000000000E+00  0.00000000000E+00  0.72653786988E+02  0.14458067908E+03  0.12500000000E+03 0.  0.
<mgrwt>
<rscale>  0 0.12500000E+03</rscale>
<asrwt>0</asrwt>
<pdfrwt beam="1">  1       21 0.16710343E-01 0.12500000E+03</pdfrwt>
<pdfrwt beam="2">  1       21 0.55328379E-02 0.12500000E+03</pdfrwt>
<totfact> 0.71446804E+06</totfact>
</mgrwt>
</event>
<event>
 3    1  0.1604658E-001  0.1250000E+03  0.7546771E-02  0.1235069E+00
         21   -1    0    0  502  501  0.00000000000E+00  0.00000000000E+00  0.69063077182E+02  0.69063077182E+02  0.00000000000E+00 0.  1.
         21   -1    0    0  501  502 -0.00000000000E+00 -0.00000000000E+00 -0.56560613274E+02  0.56560613274E+02  0.00000000000E+00 0.  1.
         25    1    1    2    0    0  0.00000000000E+00  0.00000000000E+00  0.12502463907E+02  0.12562369046E+03  0.12500000000E+03 0.  0.
<mgrwt>
<rscale>  0 0.12500000E+03</rscale>
<asrwt>0</asrwt>
<pdfrwt beam="1">  1       21 0.10625089E-01 0.12500000E+03</pdfrwt>
<pdfrwt beam="2">  1       21 0.87016328E-02 0.12500000E+03</pdfrwt>
<totfact> 0.73958144E+06</totfact>
</mgrwt>
</event>
<event>
 3    1  0.1604658E-001  0.1250000E+03  0.7546771E-02  0.1235069E+00
         21   -1    0    0  502  501  0.00000000000E+00  0.00000000000E+00  0.27054234682E+02  0.27054234682E+02  0.00000000000E+00 0.  1.
         21   -1    0    0  501  502 -0.00000000000E+00 -0.00000000000E+00 -0.14438589913E+03  0.14438589913E+03  0.00000000000E+00 0.  1.
         25    1    1    2    0    0  0.00000000000E+00  0.00000000000E+00 -0.11733166445E+03  0.17144013382E+03  0.12500000000E+03 0.  0.
<mgrwt>
<rscale>  0 0.12500000E+03</rscale>
<asrwt>0</asrwt>
<pdfrwt beam="1">  1       21 0.41621900E-02 0.12500000E+03</pdfrwt>
<pdfrwt beam="2">  1       21 0.22213215E-01 0.12500000E+03</pdfrwt>
<totfact> 0.68147325E+06</totfact>
</mgrwt>
</event>
<event>
 3    1  0.1604658E-001  0.1250000E+03  0.7546771E-02  0.1235069E+00
         21   -1    0    0  502  501  0.00000000000E+00  0.00000000000E+00  0.18770643094E+02  0.18770643094E+02  0.00000000000E+00 0.  1.
         21   -1    0    0  501  502 -0.00000000000E+00 -0.00000000000E+00 -0.20810421787E+03  0.20810421787E+03  0.00000000000E+00 0.  1.
         25    1    1    2    0    0  0.00000000000E+00  0.00000000000E+00 -0.18933357478E+03  0.22687486097E+03  0.12500000000E+03 0.  0.
<mgrwt>
<rscale>  0 0.12500000E+03</rscale>
<asrwt>0</asrwt>
<pdfrwt beam="1">  1       21 0.28877912E-02 0.12500000E+03</pdfrwt>
<pdfrwt beam="2">  1       21 0.32016034E-01 0.12500000E+03</pdfrwt>
<totfact> 0.62126366E+06</totfact>
</mgrwt>
</event>
<event>
 3    1  0.1604658E-001  0.1250000E+03  0.7546771E-02  0.1235069E+00
         21   -1    0    0  502  501  0.00000000000E+00  0.00000000000E+00  0.24325879854E+02  0.24325879854E+02  0.00000000000E+00 0. -1.
         21   -1    0    0  501  502 -0.00000000000E+00 -0.00000000000E+00 -0.16058000876E+03  0.16058000876E+03  0.00000000000E+00 0. -1.
         25    1    1    2    0    0  0.00000000000E+00  0.00000000000E+00 -0.13625412890E+03  0.18490588861E+03  0.12500000000E+03 0.  0.
<mgrwt>
<rscale>  0 0.12500000E+03</rscale>
<asrwt>0</asrwt>
<pdfrwt beam="1">  1       21 0.37424431E-02 0.12500000E+03</pdfrwt>
<pdfrwt beam="2">  1       21 0.24704616E-01 0.12500000E+03</pdfrwt>
<totfact> 0.66593156E+06</totfact>
</mgrwt>
</event>
<event>
 3    1  0.1604658E-001  0.1250000E+03  0.7546771E-02  0.1235069E+00
         21   -1    0    0  502  501  0.00000000000E+00  0.00000000000E+00  0.11496171881E+04  0.11496171881E+04  0.00000000000E+00 0.  1.
         21   -1    0    0  501  502 -0.00000000000E+00 -0.00000000000E+00 -0.33978702131E+01  0.33978702131E+01  0.00000000000E+00 0.  1.
         25    1    1    2    0    0  0.00000000000E+00  0.00000000000E+00  0.11462193179E+04  0.11530150583E+04  0.12500000000E+03 0.  0.
<mgrwt>
<rscale>  0 0.12500000E+03</rscale>
<asrwt>0</asrwt>
<pdfrwt beam="1">  1       21 0.17686387E+00 0.12500000E+03</pdfrwt>
<pdfrwt beam="2">  1       21 0.52275018E-03 0.12500000E+03</pdfrwt>
<totfact> 0.20105636E+06</totfact>
</mgrwt>
</event>
<event>
 3    1  0.1604658E-001  0.1250000E+03  0.7546771E-02  0.1235069E+00
         21   -1    0    0  502  501  0.00000000000E+00  0.00000000000E+00  0.73092415272E+02  0.73092415272E+02  0.00000000000E+00 0. -1.
         21   -1    0    0  501  502 -0.00000000000E+00 -0.00000000000E+00 -0.53442617616E+02  0.53442617616E+02  0.00000000000E+00 0. -1.
         25    1    1    2    0    0  0.00000000000E+00  0.00000000000E+00  0.19649797656E+02  0.12653503289E+03  0.12500000000E+03 0.  0.
<mgrwt>
<rscale>  0 0.12500000E+03</rscale>
<asrwt>0</asrwt>
<pdfrwt beam="1">  1       21 0.11244987E-01 0.12500000E+03</pdfrwt>
<pdfrwt beam="2">  1       21 0.82219412E-02 0.12500000E+03</pdfrwt>
<totfact> 0.73832580E+06</totfact>
</mgrwt>
</event>
<event>
 3    1  0.1604658E-001  0.1250000E+03  0.7546771E-02  0.1235069E+00
         21   -1    0    0  502  501  0.00000000000E+00  0.00000000000E+00  0.70007260008E+01  0.70007260008E+01  0.00000000000E+00 0. -1.
         21   -1    0    0  501  502 -0.00000000000E+00 -0.00000000000E+00 -0.55797784395E+03  0.55797784395E+03  0.00000000000E+00 0. -1.
         25    1    1    2    0    0  0.00000000000E+00  0.00000000000E+00 -0.55097711794E+03  0.56497856995E+03  0.12500000000E+03 0.  0.
<mgrwt>
<rscale>  0 0.12500000E+03</rscale>
<asrwt>0</asrwt>
<pdfrwt beam="1">  1       21 0.10770346E-02 0.12500000E+03</pdfrwt>
<pdfrwt beam="2">  1       21 0.85842758E-01 0.12500000E+03</pdfrwt>
<totfact> 0.38725888E+06</totfact>
</mgrwt>
</event>
<event>
 3    1  0.1604658E-001  0.1250000E+03  0.7546771E-02  0.1235069E+00
         21   -1    0    0  502  501  0.00000000000E+00  0.00000000000E+00  0.62255567919E+02  0.62255567919E+02  0.00000000000E+00 0. -1.
         21   -1    0    0  501  502 -0.00000000000E+00 -0.00000000000E+00 -0.62745391787E+02  0.62745391787E+02  0.00000000000E+00 0. -1.
         25    1    1    2    0    0  0.00000000000E+00  0.00000000000E+00 -0.48982386798E+00  0.12500095971E+03  0.12500000000E+03 0.  0.
<mgrwt>
<rscale>  0 0.12500000E+03</rscale>
<asrwt>0</asrwt>
<pdfrwt beam="1">  1       21 0.95777797E-02 0.12500000E+03</pdfrwt>
<pdfrwt beam="2">  1       21 0.96531372E-02 0.12500000E+03</pdfrwt>
<totfact> 0.74043452E+06</totfact>
</mgrwt>
</event>
<event>
 3    1  0.1604658E-001  0.1250000E+03  0.7546771E-02  0.1235069E+00
         21   -1    0    0  502  501  0.00000000000E+00  0.00000000000E+00  0.39260159644E+03  0.39260159644E+03  0.00000000000E+00 0.  1.
         21   -1    0    0  501  502 -0.00000000000E+00 -0.00000000000E+00 -0.99496538869E+01  0.99496538869E+01  0.00000000000E+00 0.  1.
         25    1    1    2    0    0  0.00000000000E+00  0.00000000000E+00  0.38265194255E+03  0.40255125032E+03  0.12500000000E+03 0.  0.
<mgrwt>
<rscale>  0 0.12500000E+03</rscale>
<asrwt>0</asrwt>
<pdfrwt beam="1">  1       21 0.60400234E-01 0.12500000E+03</pdfrwt>
<pdfrwt beam="2">  1       21 0.15307163E-02 0.12500000E+03</pdfrwt>
<totfact> 0.47872593E+06</totfact>
</mgrwt>
</event>
<event>
 3    1  0.1604658E-001  0.1250000E+03  0.7546771E-02  0.1235069E+00
         21   -1    0    0  502  501  0.00000000000E+00  0.00000000000E+00  0.10192959306E+03  0.10192959306E+03  0.00000000000E+00 0.  1.
         21   -1    0    0  501  502 -0.00000000000E+00 -0.00000000000E+00 -0.38323021635E+02  0.38323021635E+02  0.00000000000E+00 0.  1.
         25    1    1    2    0    0  0.00000000000E+00  0.00000000000E+00  0.63606571423E+02  0.14025261469E+03  0.12500000000E+03 0.  0.
<mgrwt>
<rscale>  0 0.12500000E+03</rscale>
<asrwt>0</asrwt>
<pdfrwt beam="1">  1       21 0.15681476E-01 0.12500000E+03</pdfrwt>
<pdfrwt beam="2">  1       21 0.58958495E-02 0.12500000E+03</pdfrwt>
<totfact> 0.72006347E+06</totfact>
</mgrwt>
</event>
<event>
 3    1  0.1604658E-001  0.1250000E+03  0.7546771E-02  0.1235069E+00
         21   -1    0    0  502  501  0.00000000000E+00  0.00000000000E+00  0.12887198188E+04  0.12887198188E+04  0.00000000000E+00 0. -1.
         21   -1    0    0  501  502 -0.00000000000E+00 -0.00000000000E+00 -0.30311088127E+01  0.30311088127E+01  0.00000000000E+00 0. -1.
         25    1    1    2    0    0  0.00000000000E+00  0.00000000000E+00  0.12856887100E+04  0.12917509277E+04  0.12500000000E+03 0.  0.
<mgrwt>
<rscale>  0 0.12500000E+03</rscale>
<asrwt>0</asrwt>
<pdfrwt beam="1">  1       21 0.19826415E+00 0.12500000E+03</pdfrwt>
<pdfrwt beam="2">  1       21 0.46632546E-03 0.12500000E+03</pdfrwt>
<totfact> 0.17401161E+06</totfact>
</mgrwt>
</event>
<event>
 3    1  0.1604658E-001  0.1250000E+03  0.7546771E-02  0.1235069E+00
         21   -1    0    0  502  501  0.00000000000E+00  0.00000000000E+00  0.24348606835E+03  0.24348606835E+03  0.00000000000E+00 0.  1.
         21   -1    0    0  501  502 -0.00000000000E+00 -0.00000000000E+00 -0.16043012343E+02  0.16043012343E+02  0.00000000000E+00 0.  1.
         25    1    1    2    0    0  0.00000000000E+00  0.00000000000E+00  0.22744305601E+03  0.25952908069E+03  0.12500000000E+03 0.  0.
<mgrwt>
<rscale>  0 0.12500000E+03</rscale>
<asrwt>0</asrwt>
<pdfrwt beam="1">  1       21 0.37459393E-01 0.12500000E+03</pdfrwt>
<pdfrwt beam="2">  1       21 0.24681559E-02 0.12500000E+03</pdfrwt>
<totfact> 0.58992462E+06</totfact>
</mgrwt>
</event>
<event>
 3    1  0.1604658E-001  0.1250000E+03  0.7546771E-02  0.1235069E+00
         21   -1    0    0  502  501  0.00000000000E+00  0.00000000000E+00  0.14023007384E+02  0.14023007384E+02  0.00000000000E+00 0. -1.
         21   -1    0    0  501  502 -0.00000000000E+00 -0.00000000000E+00 -0.27856007580E+03  0.27856007580E+03  0.00000000000E+00 0. -1.
         25    1    1    2    0    0  0.00000000000E+00  0.00000000000E+00 -0.26453706842E+03  0.29258308319E+03  0.12500000000E+03 0.  0.
<mgrwt>
<rscale>  0 0.12500000E+03</rscale>
<asrwt>0</asrwt>
<pdfrwt beam="1">  1       21 0.21573857E-02 0.12500000E+03</pdfrwt>
<pdfrwt beam="2">  1       21 0.42855396E-01 0.12500000E+03</pdfrwt>
<totfact> 0.56078236E+06</totfact>
</mgrwt>
</event>
<event>
 3    1  0.1604658E-001  0.1250000E+03  0.7546771E-02  0.1235069E+00
         21   -1    0    0  502  501  0.00000000000E+00  0.00000000000E+00  0.84953652304E+03  0.84953652304E+03  0.00000000000E+00 0. -1.
         21   -1    0    0  501  502 -0.00000000000E+00 -0.00000000000E+00 -0.45980954250E+01  0.45980954250E+01  0.00000000000E+00 0. -1.
         25    1    1    2    0    0  0.00000000000E+00  0.00000000000E+00  0.84493842761E+03  0.85413461846E+03  0.12500000000E+03 0.  0.
<mgrwt>
<rscale>  0 0.12500000E+03</rscale>
<asrwt>0</asrwt>
<pdfrwt beam="1">  1       21 0.13069780E+00 0.12500000E+03</pdfrwt>
<pdfrwt beam="2">  1       21 0.70739997E-03 0.12500000E+03</pdfrwt>
<totfact> 0.27645850E+06</totfact>
</mgrwt>
</event>
<event>
 3    1  0.1604658E-001  0.1250000E+03  0.7546771E-02  0.1235069E+00
         21   -1    0    0  502  501  0.00000000000E+00  0.00000000000E+00  0.97150869971E+02  0.97150869971E+02  0.00000000000E+00 0.  1.
         21   -1    0    0  501  502 -0.00000000000E+00 -0.00000000000E+00 -0.40208080495E+02  0.40208080495E+02  0.00000000000E+00 0.  1.
         25    1    1    2    0    0  0.00000000000E+00  0.00000000000E+00  0.56942789476E+02  0.13735895047E+03  0.12500000000E+03 0.  0.
<mgrwt>
<rscale>  0 0.12500000E+03</rscale>
<asrwt>0</asrwt>
<pdfrwt beam="1">  1       21 0.14946288E-01 0.12500000E+03</pdfrwt>
<pdfrwt beam="2">  1       21 0.61858585E-02 0.12500000E+03</pdfrwt>
<totfact> 0.72385612E+06</totfact>
</mgrwt>
</event>
<event>
 3    1  0.1604658E-001  0.1250000E+03  0.7546771E-02  0.1235069E+00
         21   -1    0    0  502  501  0.00000000000E+00  0.00000000000E+00  0.20183346341E+02  0.20183346341E+02  0.00000000000E+00 0. -1.
         21   -1    0    0  501  502 -0.00000000000E+00 -0.00000000000E+00 -0.19353827329E+03  0.19353827329E+03  0.00000000000E+00 0. -1.
         25    1    1    2    0    0  0.00000000000E+00  0.00000000000E+00 -0.17335492695E+03  0.21372161963E+03  0.12500000000E+03 0.  0.
<mgrwt>
<rscale>  0 0.12500000E+03</rscale>
<asrwt>0</asrwt>
<pdfrwt beam="1">  1       21 0.31051302E-02 0.12500000E+03</pdfrwt>
<pdfrwt beam="2">  1       21 0.29775119E-01 0.12500000E+03</pdfrwt>
<totfact> 0.63470094E+06</totfact>
</mgrwt>
</event>
<event>
 3    1  0.1604658E-001  0.1250000E+03  0.7546771E-02  0.1235069E+00
         21   -1    0    0  502  501  0.00000000000E+00  0.00000000000E+00  0.19355221081E+04  0.19355221081E+04  0.00000000000E+00 0. -1.
         21   -1    0    0  501  502 -0.00000000000E+00 -0.00000000000E+00 -0.20181892956E+01  0.20181892956E+01  0.00000000000E+00 0. -1.
         25    1    1    2    0    0  0.00000000000E+00  0.00000000000E+00  0.19335039188E+04  0.19375402974E+04  0.12500000000E+03 0.  0.
<mgrwt>
<rscale>  0 0.12500000E+03</rscale>
<asrwt>0</asrwt>
<pdfrwt beam="1">  1       21 0.29777115E+00 0.12500000E+03</pdfrwt>
<pdfrwt beam="2">  1       21 0.31049221E-03 0.12500000E+03</pdfrwt>
<totfact> 0.85733356E+05</totfact>
</mgrwt>
</event>
<event>
 3    1  0.1604658E-001  0.1250000E+03  0.7546771E-02  0.1235069E+00
         21   -1    0    0  502  501  0.00000000000E+00  0.00000000000E+00  0.12963138720E+03  0.12963138720E+03  0.00000000000E+00 0.  1.
         21   -1    0    0  501  502 -0.00000000000E+00 -0.00000000000E+00 -0.30133520009E+02  0.30133520009E+02  0.00000000000E+00 0.  1.
         25    1    1    2    0    0  0.00000000000E+00  0.00000000000E+00  0.99497867194E+02  0.15976490721E+03  0.12500000000E+03 0.  0.
<mgrwt>
<rscale>  0 0.12500000E+03</rscale>
<asrwt>0</asrwt>
<pdfrwt beam="1">  1       21 0.19943290E-01 0.12500000E+03</pdfrwt>
<pdfrwt beam="2">  1       21 0.46359262E-02 0.12500000E+03</pdfrwt>
<totfact> 0.69548233E+06</totfact>
</mgrwt>
</event>
<event>
 3    1  0.1604658E-001  0.1250000E+03  0.7546771E-02  0.1235069E+00
         21   -1    0    0  502  501  0.00000000000E+00  0.00000000000E+00  0.63336461255E+02  0.63336461255E+02  0.00000000000E+00 0.  1.
         21   -1    0    0  501  502 -0.00000000000E+00 -0.00000000000E+00 -0.61674585580E+02  0.61674585580E+02  0.00000000000E+00 0.  1.
         25    1    1    2    0    0  0.00000000000E+00  0.00000000000E+00  0.16618756758E+01  0.12501104683E+03  0.12500000000E+03 0.  0.
<mgrwt>
<rscale>  0 0.12500000E+03</rscale>
<asrwt>0</asrwt>
<pdfrwt beam="1">  1       21 0.97440710E-02 0.12500000E+03</pdfrwt>
<pdfrwt beam="2">  1       21 0.94883978E-02 0.12500000E+03</pdfrwt>
<totfact> 0.74042089E+06</totfact>
</mgrwt>
</event>
<event>
 3    1  0.1604658E-001  0.1250000E+03  0.7546771E-02  0.1235069E+00
         21   -1    0    0  502  501  0.00000000000E+00  0.00000000000E+00  0.36480929840E+01  0.36480929840E+01  0.00000000000E+00 0.  1.
         21   -1    0    0  501  502 -0.00000000000E+00 -0.00000000000E+00 -0.10707649221E+04  0.10707649221E+04  0.00000000000E+00 0.  1.
         25    1    1    2    0    0  0.00000000000E+00  0.00000000000E+00 -0.10671168292E+04  0.10744130151E+04  0.12500000000E+03 0.  0.
<mgrwt>
<rscale>  0 0.12500000E+03</rscale>
<asrwt>0</asrwt>
<pdfrwt beam="1">  1       21 0.56124471E-03 0.12500000E+03</pdfrwt>
<pdfrwt beam="2">  1       21 0.16473317E+00 0.12500000E+03</pdfrwt>
<totfact> 0.21829603E+06</totfact>
</mgrwt>
</event>
<event>
 3    1  0.1604658E-001  0.1250000E+03  0.7546771E-02  0.1235069E+00
         21   -1    0    0  502  501  0.00000000000E+00  0.00000000000E+00  0.28818211807E+02  0.28818211807E+02  0.00000000000E+00 0.  1.
         21   -1    0    0  501  502 -0.00000000000E+00 -0.00000000000E+00 -0.13554796620E+03  0.13554796620E+03  0.00000000000E+00 0.  1.
         25    1    1    2    0    0  0.00000000000E+00  0.00000000000E+00 -0.10672975440E+03  0.16436617801E+03  0.12500000000E+03 0.  0.
<mgrwt>
<rscale>  0 0.12500000E+03</rscale>
<asrwt>0</asrwt>
<pdfrwt beam="1">  1       21 0.44335710E-02 0.12500000E+03</pdfrwt>
<pdfrwt beam="2">  1       21 0.20853533E-01 0.12500000E+03</pdfrwt>
<totfact> 0.68989893E+06</totfact>
</mgrwt>
</event>
<event>
 3    1  0.1604658E-001  0.1250000E+03  0.7546771E-02  0.1235069E+00
         21   -1    0    0  502  501  0.00000000000E+00  0.00000000000E+00  0.12424077952E+02  0.12424077952E+02  0.00000000000E+00 0. -1.
         21   -1    0    0  501  502 -0.00000000000E+00 -0.00000000000E+00 -0.31440964996E+03  0.31440964996E+03  0.00000000000E+00 0. -1.
         25    1    1    2    0    0  0.00000000000E+00  0.00000000000E+00 -0.30198557201E+03  0.32683372791E+03  0.12500000000E+03 0.  0.
<mgrwt>
<rscale>  0 0.12500000E+03</rscale>
<asrwt>0</asrwt>
<pdfrwt beam="1">  1       21 0.19113964E-02 0.12500000E+03</pdfrwt>
<pdfrwt beam="2">  1       21 0.48370720E-01 0.12500000E+03</pdfrwt>
<totfact> 0.53296207E+06</totfact>
</mgrwt>
</event>
<event>
 3    1  0.1604658E-001  0.1250000E+03  0.7546771E-02  0.1235069E+00
         21   -1    0    0  502  501  0.00000000000E+00  0.00000000000E+00  0.21731311963E+02  0.21731311963E+02  0.00000000000E+00 0.  1.
         21   -1    0    0  501  502 -0.00000000000E+00 -0.00000000000E+00 -0.17975214781E+03  0.17975214781E+03  0.00000000000E+00 0.  1.
         25    1    1    2    0    0  0.00000000000E+00  0.00000000000E+00 -0.15802083585E+03  0.20148345977E+03  0.12500000000E+03 0.  0.
<mgrwt>
<rscale>  0 0.12500000E+03</rscale>
<asrwt>0</asrwt>
<pdfrwt beam="1">  1       21 0.33432788E-02 0.12500000E+03</pdfrwt>
<pdfrwt beam="2">  1       21 0.27654176E-01 0.12500000E+03</pdfrwt>
<totfact> 0.64766864E+06</totfact>
</mgrwt>
</event>
<event>
 3    1  0.1604658E-001  0.1250000E+03  0.7546771E-02  0.1235069E+00
         21   -1    0    0  502  501  0.00000000000E+00  0.00000000000E+00  0.29537385550E+03  0.29537385550E+03  0.00000000000E+00 0. -1.
         21   -1    0    0  501  502 -0.00000000000E+00 -0.00000000000E+00 -0.13224765589E+02  0.13224765589E+02  0.00000000000E+00 0. -1.
         25    1    1    2    0    0  0.00000000000E+00  0.00000000000E+00  0.28214908991E+03  0.30859862109E+03  0.12500000000E+03 0.  0.
<mgrwt>
<rscale>  0 0.12500000E+03</rscale>
<asrwt>0</asrwt>
<pdfrwt beam="1">  1       21 0.45442127E-01 0.12500000E+03</pdfrwt>
<pdfrwt beam="2">  1       21 0.20345795E-02 0.12500000E+03</pdfrwt>
<totfact> 0.54749082E+06</totfact>
</mgrwt>
</event>
<event>
 3    1  0.1604658E-001  0.1250000E+03  0.7546771E-02  0.1235069E+00
         21   -1    0    0  502  501  0.00000000000E+00  0.00000000000E+00  0.19864400186E+02  0.19864400186E+02  0.00000000000E+00 0.  1.
         21   -1    0    0  501  502 -0.00000000000E+00 -0.00000000000E+00 -0.19664575640E+03  0.19664575640E+03  0.00000000000E+00 0.  1.
         25    1    1    2    0    0  0.00000000000E+00  0.00000000000E+00 -0.17678135621E+03  0.21651015659E+03  0.12500000000E+03 0.  0.
<mgrwt>
<rscale>  0 0.12500000E+03</rscale>
<asrwt>0</asrwt>
<pdfrwt beam="1">  1       21 0.30560617E-02 0.12500000E+03</pdfrwt>
<pdfrwt beam="2">  1       21 0.30253192E-01 0.12500000E+03</pdfrwt>
<totfact> 0.63181035E+06</totfact>
</mgrwt>
</event>
<event>
 3    1  0.1604658E-001  0.1250000E+03  0.7546771E-02  0.1235069E+00
         21   -1    0    0  502  501  0.00000000000E+00  0.00000000000E+00  0.26776760440E+03  0.26776760440E+03  0.00000000000E+00 0.  1.
         21   -1    0    0  501  502 -0.00000000000E+00 -0.00000000000E+00 -0.14588209835E+02  0.14588209835E+02  0.00000000000E+00 0.  1.
         25    1    1    2    0    0  0.00000000000E+00  0.00000000000E+00  0.25317939457E+03  0.28235581424E+03  0.12500000000E+03 0.  0.
<mgrwt>
<rscale>  0 0.12500000E+03</rscale>
<asrwt>0</asrwt>
<pdfrwt beam="1">  1       21 0.41195013E-01 0.12500000E+03</pdfrwt>
<pdfrwt beam="2">  1       21 0.22443402E-02 0.12500000E+03</pdfrwt>
<totfact> 0.56955110E+06</totfact>
</mgrwt>
</event>
<event>
 3    1  0.1604658E-001  0.1250000E+03  0.7546771E-02  0.1235069E+00
         21   -1    0    0  502  501  0.00000000000E+00  0.00000000000E+00  0.12589588519E+03  0.12589588519E+03  0.00000000000E+00 0.  1.
         21   -1    0    0  501  502 -0.00000000000E+00 -0.00000000000E+00 -0.31027622501E+02  0.31027622501E+02  0.00000000000E+00 0.  1.
         25    1    1    2    0    0  0.00000000000E+00  0.00000000000E+00  0.94868262685E+02  0.15692350769E+03  0.12500000000E+03 0.  0.
<mgrwt>
<rscale>  0 0.12500000E+03</rscale>
<asrwt>0</asrwt>
<pdfrwt beam="1">  1       21 0.19368597E-01 0.12500000E+03</pdfrwt>
<pdfrwt beam="2">  1       21 0.47734805E-02 0.12500000E+03</pdfrwt>
<totfact> 0.69897377E+06</totfact>
</mgrwt>
</event>
<event>
 3    1  0.1604658E-001  0.1250000E+03  0.7546771E-02  0.1235069E+00
         21   -1    0    0  502  501  0.00000000000E+00  0.00000000000E+00  0.23585709513E+03  0.23585709513E+03  0.00000000000E+00 0. -1.
         21   -1    0    0  501  502 -0.00000000000E+00 -0.00000000000E+00 -0.16561935514E+02  0.16561935514E+02  0.00000000000E+00 0. -1.
         25    1    1    2    0    0  0.00000000000E+00  0.00000000000E+00  0.21929515962E+03  0.25241903064E+03  0.12500000000E+03 0.  0.
<mgrwt>
<rscale>  0 0.12500000E+03</rscale>
<asrwt>0</asrwt>
<pdfrwt beam="1">  1       21 0.36285704E-01 0.12500000E+03</pdfrwt>
<pdfrwt beam="2">  1       21 0.25479903E-02 0.12500000E+03</pdfrwt>
<totfact> 0.59651187E+06</totfact>
</mgrwt>
</event>
<event>
 3    1  0.1604658E-001  0.1250000E+03  0.7546771E-02  0.1235069E+00
         21   -1    0    0  502  501  0.00000000000E+00  0.00000000000E+00  0.95137138126E+01  0.95137138126E+01  0.00000000000E+00 0.  1.
         21   -1    0    0  501  502 -0.00000000000E+00 -0.00000000000E+00 -0.41059149738E+03  0.41059149738E+03  0.00000000000E+00 0.  1.
         25    1    1    2    0    0  0.00000000000E+00  0.00000000000E+00 -0.40107778357E+03  0.42010521120E+03  0.12500000000E+03 0.  0.
<mgrwt>
<rscale>  0 0.12500000E+03</rscale>
<asrwt>0</asrwt>
<pdfrwt beam="1">  1       21 0.14636480E-02 0.12500000E+03</pdfrwt>
<pdfrwt beam="2">  1       21 0.63167935E-01 0.12500000E+03</pdfrwt>
<totfact> 0.46735767E+06</totfact>
</mgrwt>
</event>
<event>
 3    1  0.1604658E-001  0.1250000E+03  0.7546771E-02  0.1235069E+00
         21   -1    0    0  502  501  0.00000000000E+00  0.00000000000E+00  0.19369672691E+03  0.19369672691E+03  0.00000000000E+00 0.  1.
         21   -1    0    0  501  502 -0.00000000000E+00 -0.00000000000E+00 -0.20166835353E+02  0.20166835353E+02  0.00000000000E+00 0.  1.
         25    1    1    2    0    0  0.00000000000E+00  0.00000000000E+00  0.17352989155E+03  0.21386356226E+03  0.12500000000E+03 0.  0.
<mgrwt>
<rscale>  0 0.12500000E+03</rscale>
<asrwt>0</asrwt>
<pdfrwt beam="1">  1       21 0.29799495E-01 0.12500000E+03</pdfrwt>
<pdfrwt beam="2">  1       21 0.31025902E-02 0.12500000E+03</pdfrwt>
<totfact> 0.63455324E+06</totfact>
</mgrwt>
</event>
<event>
 3    1  0.1604658E-001  0.1250000E+03  0.7546771E-02  0.1235069E+00
         21   -1    0    0  502  501  0.00000000000E+00  0.00000000000E+00  0.11317635807E+03  0.11317635807E+03  0.00000000000E+00 0.  1.
         21   -1    0    0  501  502 -0.00000000000E+00 -0.00000000000E+00 -0.34514717265E+02  0.34514717265E+02  0.00000000000E+00 0.  1.
         25    1    1    2    0    0  0.00000000000E+00  0.00000000000E+00  0.78661640807E+02  0.14769107534E+03  0.12500000000E+03 0.  0.
<mgrwt>
<rscale>  0 0.12500000E+03</rscale>
<asrwt>0</asrwt>
<pdfrwt beam="1">  1       21 0.17411747E-01 0.12500000E+03</pdfrwt>
<pdfrwt beam="2">  1       21 0.53099566E-02 0.12500000E+03</pdfrwt>
<totfact> 0.71050463E+06</totfact>
</mgrwt>
</event>
<event>
 3    1  0.1604658E-001  0.1250000E+03  0.7546771E-02  0.1235069E+00
         21   -1    0    0  502  501  0.00000000000E+00  0.00000000000E+00  0.11153318988E+02  0.11153318988E+02  0.00000000000E+00 0. -1.
         21   -1    0    0  501  502 -0.00000000000E+00 -0.00000000000E+00 -0.35023207031E+03  0.35023207031E+03  0.00000000000E+00 0. -1.
         25    1    1    2    0    0  0.00000000000E+00  0.00000000000E+00 -0.33907875132E+03  0.36138538929E+03  0.12500000000E+03 0.  0.
<mgrwt>
<rscale>  0 0.12500000E+03</rscale>
<asrwt>0</asrwt>
<pdfrwt beam="1">  1       21 0.17158954E-02 0.12500000E+03</pdfrwt>
<pdfrwt beam="2">  1       21 0.53881853E-01 0.12500000E+03</pdfrwt>
<totfact> 0.50708426E+06</totfact>
</mgrwt>
</event>
<event>
 3    1  0.1604658E-001  0.1250000E+03  0.7546771E-02  0.1235069E+00
         21   -1    0    0  502  501  0.00000000000E+00  0.00000000000E+00  0.69851104217E+03  0.69851104217E+03  0.00000000000E+00 0. -1.
         21   -1    0    0  501  502 -0.00000000000E+00 -0.00000000000E+00 -0.55922523256E+01  0.55922523256E+01  0.00000000000E+00 0. -1.
         25    1    1    2    0    0  0.00000000000E+00  0.00000000000E+00  0.69291878984E+03  0.70410329449E+03  0.12500000000E+03 0.  0.
<mgrwt>
<rscale>  0 0.12500000E+03</rscale>
<asrwt>0</asrwt>
<pdfrwt beam="1">  1       21 0.10746317E+00 0.12500000E+03</pdfrwt>
<pdfrwt beam="2">  1       21 0.86034707E-03 0.12500000E+03</pdfrwt>
<totfact> 0.32752560E+06</totfact>
</mgrwt>
</event>
<event>
 3    1  0.1604658E-001  0.1250000E+03  0.7546771E-02  0.1235069E+00
         21   -1    0    0  502  501  0.00000000000E+00  0.00000000000E+00  0.62690548596E+02  0.62690548596E+02  0.00000000000E+00 0.  1.
         21   -1    0    0  501  502 -0.00000000000E+00 -0.00000000000E+00 -0.62310030578E+02  0.62310030578E+02  0.00000000000E+00 0.  1.
         25    1    1    2    0    0  0.00000000000E+00  0.00000000000E+00  0.38051801827E+00  0.12500057917E+03  0.12500000000E+03 0.  0.
<mgrwt>
<rscale>  0 0.12500000E+03</rscale>
<asrwt>0</asrwt>
<pdfrwt beam="1">  1       21 0.96446999E-02 0.12500000E+03</pdfrwt>
<pdfrwt beam="2">  1       21 0.95861585E-02 0.12500000E+03</pdfrwt>
<totfact> 0.74043503E+06</totfact>
</mgrwt>
</event>
<event>
 3    1  0.1604658E-001  0.1250000E+03  0.7546771E-02  0.1235069E+00
         21   -1    0    0  502  501  0.00000000000E+00  0.00000000000E+00  0.41676121810E+02  0.41676121810E+02  0.00000000000E+00 0.  1.
         21   -1    0    0  501  502 -0.00000000000E+00 -0.00000000000E+00 -0.93728730754E+02  0.93728730754E+02  0.00000000000E+00 0.  1.
         25    1    1    2    0    0  0.00000000000E+00  0.00000000000E+00 -0.52052608944E+02  0.13540485256E+03  0.12500000000E+03 0.  0.
<mgrwt>
<rscale>  0 0.12500000E+03</rscale>
<asrwt>0</asrwt>
<pdfrwt beam="1">  1       21 0.64117111E-02 0.12500000E+03</pdfrwt>
<pdfrwt beam="2">  1       21 0.14419805E-01 0.12500000E+03</pdfrwt>
<totfact> 0.72642911E+06</totfact>
</mgrwt>
</event>
<event>
 3    1  0.1604658E-001  0.1250000E+03  0.7546771E-02  0.1235069E+00
         21   -1    0    0  502  501  0.00000000000E+00  0.00000000000E+00  0.27473266484E+03  0.27473266484E+03  0.00000000000E+00 0. -1.
         21   -1    0    0  501  502 -0.00000000000E+00 -0.00000000000E+00 -0.14218367526E+02  0.14218367526E+02  0.00000000000E+00 0. -1.
         25    1    1    2    0    0  0.00000000000E+00  0.00000000000E+00  0.26051429732E+03  0.28895103237E+03  0.12500000000E+03 0.  0.
<mgrwt>
<rscale>  0 0.12500000E+03</rscale>
<asrwt>0</asrwt>
<pdfrwt beam="1">  1       21 0.42266560E-01 0.12500000E+03</pdfrwt>
<pdfrwt beam="2">  1       21 0.21874414E-02 0.12500000E+03</pdfrwt>
<totfact> 0.56387072E+06</totfact>
</mgrwt>
</event>
<event>
 3    1  0.1604658E-001  0.1250000E+03  0.7546771E-02  0.1235069E+00
         21   -1    0    0  502  501  0.00000000000E+00  0.00000000000E+00  0.11926119619E+02  0.11926119619E+02  0.00000000000E+00 0. -1.
         21   -1    0    0  501  502 -0.00000000000E+00 -0.00000000000E+00 -0.32753738222E+03  0.32753738222E+03  0.00000000000E+00 0. -1.
         25    1    1    2    0    0  0.00000000000E+00  0.00000000000E+00 -0.31561126260E+03  0.33946350184E+03  0.12500000000E+03 0.  0.
<mgrwt>
<rscale>  0 0.12500000E+03</rscale>
<asrwt>0</asrwt>
<pdfrwt beam="1">  1       21 0.18347878E-02 0.12500000E+03</pdfrwt>
<pdfrwt beam="2">  1       21 0.50390362E-01 0.12500000E+03</pdfrwt>
<totfact> 0.52326124E+06</totfact>
</mgrwt>
</event>
<event>
 3    1  0.1604658E-001  0.1250000E+03  0.7546771E-02  0.1235069E+00
         21   -1    0    0  502  501  0.00000000000E+00  0.00000000000E+00  0.72161080498E+02  0.72161080498E+02  0.00000000000E+00 0.  1.
         21   -1    0    0  501  502 -0.00000000000E+00 -0.00000000000E+00 -0.54132365716E+02  0.54132365716E+02  0.00000000000E+00 0.  1.
         25    1    1    2    0    0  0.00000000000E+00  0.00000000000E+00  0.18028714781E+02  0.12629344621E+03  0.12500000000E+03 0.  0.
<mgrwt>
<rscale>  0 0.12500000E+03</rscale>
<asrwt>0</asrwt>
<pdfrwt beam="1">  1       21 0.11101705E-01 0.12500000E+03</pdfrwt>
<pdfrwt beam="2">  1       21 0.83280563E-02 0.12500000E+03</pdfrwt>
<totfact> 0.73865678E+06</totfact>
</mgrwt>
</event>
<event>
 3    1  0.1604658E-001  0.1250000E+03  0.7546771E-02  0.1235069E+00
         21   -1    0    0  502  501  0.00000000000E+00  0.00000000000E+00  0.10633217854E+02  0.10633217854E+02  0.00000000000E+00 0.  1.
         21   -1    0    0  501  502 -0.00000000000E+00 -0.00000000000E+00 -0.36736292378E+03  0.36736292378E+03  0.00000000000E+00 0.  1.
         25    1    1    2    0    0  0.00000000000E+00  0.00000000000E+00 -0.35672970593E+03  0.37799614164E+03  0.12500000000E+03 0.  0.
<mgrwt>
<rscale>  0 0.12500000E+03</rscale>
<asrwt>0</asrwt>
<pdfrwt beam="1">  1       21 0.16358794E-02 0.12500000E+03</pdfrwt>
<pdfrwt beam="2">  1       21 0.56517384E-01 0.12500000E+03</pdfrwt>
<totfact> 0.49534993E+06</totfact>
</mgrwt>
</event>
<event>
 3    1  0.1604658E-001  0.1250000E+03  0.7546771E-02  0.1235069E+00
         21   -1    0    0  502  501  0.00000000000E+00  0.00000000000E+00  0.10123250744E+02  0.10123250744E+02  0.00000000000E+00 0.  1.
         21   -1    0    0  501  502 -0.00000000000E+00 -0.00000000000E+00 -0.38586913419E+03  0.38586913419E+03  0.00000000000E+00 0.  1.
         25    1    1    2    0    0  0.00000000000E+00  0.00000000000E+00 -0.37574588345E+03  0.39599238494E+03  0.12500000000E+03 0.  0.
<mgrwt>
<rscale>  0 0.12500000E+03</rscale>
<asrwt>0</asrwt>
<pdfrwt beam="1">  1       21 0.15574231E-02 0.12500000E+03</pdfrwt>
<pdfrwt beam="2">  1       21 0.59364487E-01 0.12500000E+03</pdfrwt>
<totfact> 0.48308310E+06</totfact>
</mgrwt>
</event>
<event>
 3    1  0.1604658E-001  0.1250000E+03  0.7546771E-02  0.1235069E+00
         21   -1    0    0  502  501  0.00000000000E+00  0.00000000000E+00  0.13610057584E+02  0.13610057584E+02  0.00000000000E+00 0.  1.
         21   -1    0    0  501  502 -0.00000000000E+00 -0.00000000000E+00 -0.28701201121E+03  0.28701201121E+03  0.00000000000E+00 0.  1.
         25    1    1    2    0    0  0.00000000000E+00  0.00000000000E+00 -0.27340195363E+03  0.30062206880E+03  0.12500000000E+03 0.  0.
<mgrwt>
<rscale>  0 0.12500000E+03</rscale>
<asrwt>0</asrwt>
<pdfrwt beam="1">  1       21 0.20938550E-02 0.12500000E+03</pdfrwt>
<pdfrwt beam="2">  1       21 0.44155694E-01 0.12500000E+03</pdfrwt>
<totfact> 0.55404516E+06</totfact>
</mgrwt>
</event>
<event>
 3    1  0.1604658E-001  0.1250000E+03  0.7546771E-02  0.1235069E+00
         21   -1    0    0  502  501  0.00000000000E+00  0.00000000000E+00  0.61169730017E+02  0.61169730017E+02  0.00000000000E+00 0.  1.
         21   -1    0    0  501  502 -0.00000000000E+00 -0.00000000000E+00 -0.63859199622E+02  0.63859199622E+02  0.00000000000E+00 0.  1.
         25    1    1    2    0    0  0.00000000000E+00  0.00000000000E+00 -0.26894696054E+01  0.12502892964E+03  0.12500000000E+03 0.  0.
<mgrwt>
<rscale>  0 0.12500000E+03</rscale>
<asrwt>0</asrwt>
<pdfrwt beam="1">  1       21 0.94107277E-02 0.12500000E+03</pdfrwt>
<pdfrwt beam="2">  1       21 0.98244923E-02 0.12500000E+03</pdfrwt>
<totfact> 0.74039674E+06</totfact>
</mgrwt>
</event>
<event>
 3    1  0.1604658E-001  0.1250000E+03  0.7546771E-02  0.1235069E+00
         21   -1    0    0  502  501  0.00000000000E+00  0.00000000000E+00  0.19959852173E+03  0.19959852173E+03  0.00000000000E+00 0. -1.
         21   -1    0    0  501  502 -0.00000000000E+00 -0.00000000000E+00 -0.19570535724E+02  0.19570535724E+02  0.00000000000E+00 0. -1.
         25    1    1    2    0    0  0.00000000000E+00  0.00000000000E+00  0.18002798601E+03  0.21916905746E+03  0.12500000000E+03 0.  0.
<mgrwt>
<rscale>  0 0.12500000E+03</rscale>
<asrwt>0</asrwt>
<pdfrwt beam="1">  1       21 0.30707463E-01 0.12500000E+03</pdfrwt>
<pdfrwt beam="2">  1       21 0.30108518E-02 0.12500000E+03</pdfrwt>
<totfact> 0.62907571E+06</totfact>
</mgrwt>
</event>
<event>
 3    1  0.1604658E-001  0.1250000E+03  0.7546771E-02  0.1235069E+00
         21   -1    0    0  502  501  0.00000000000E+00  0.00000000000E+00  0.42814014258E+01  0.42814014258E+01  0.00000000000E+00 0.  1.
         21   -1    0    0  501  502 -0.00000000000E+00 -0.00000000000E+00 -0.91237648880E+03  0.91237648880E+03  0.00000000000E+00 0.  1.
         25    1    1    2    0    0  0.00000000000E+00  0.00000000000E+00 -0.90809508738E+03  0.91665789023E+03  0.12500000000E+03 0.  0.
<mgrwt>
<rscale>  0 0.12500000E+03</rscale>
<asrwt>0</asrwt>
<pdfrwt beam="1">  1       21 0.65867654E-03 0.12500000E+03</pdfrwt>
<pdfrwt beam="2">  1       21 0.14036574E+00 0.12500000E+03</pdfrwt>
<totfact> 0.25825766E+06</totfact>
</mgrwt>
</event>
<event>
 3    1  0.1604658E-001  0.1250000E+03  0.7546771E-02  0.1235069E+00
         21   -1    0    0  502  501  0.00000000000E+00  0.00000000000E+00  0.71157010711E+01  0.71157010711E+01  0.00000000000E+00 0. -1.
         21   -1    0    0  501  502 -0.00000000000E+00 -0.00000000000E+00 -0.54896207148E+03  0.54896207148E+03  0.00000000000E+00 0. -1.
         25    1    1    2    0    0  0.00000000000E+00  0.00000000000E+00 -0.54184637041E+03  0.55607777255E+03  0.12500000000E+03 0.  0.
<mgrwt>
<rscale>  0 0.12500000E+03</rscale>
<asrwt>0</asrwt>
<pdfrwt beam="1">  1       21 0.10947231E-02 0.12500000E+03</pdfrwt>
<pdfrwt beam="2">  1       21 0.84455718E-01 0.12500000E+03</pdfrwt>
<totfact> 0.39157408E+06</totfact>
</mgrwt>
</event>
<event>
 3    1  0.1604658E-001  0.1250000E+03  0.7546771E-02  0.1235069E+00
         21   -1    0    0  502  501  0.00000000000E+00  0.00000000000E+00  0.36345414241E+02  0.36345414241E+02  0.00000000000E+00 0.  1.
         21   -1    0    0  501  502 -0.00000000000E+00 -0.00000000000E+00 -0.10747573199E+03  0.10747573199E+03  0.00000000000E+00 0.  1.
         25    1    1    2    0    0  0.00000000000E+00  0.00000000000E+00 -0.71130317747E+02  0.14382114623E+03  0.12500000000E+03 0.  0.
<mgrwt>
<rscale>  0 0.12500000E+03</rscale>
<asrwt>0</asrwt>
<pdfrwt beam="1">  1       21 0.55916022E-02 0.12500000E+03</pdfrwt>
<pdfrwt beam="2">  1       21 0.16534728E-01 0.12500000E+03</pdfrwt>
<totfact> 0.71544306E+06</totfact>
</mgrwt>
</event>
<event>
 3    1  0.1604658E-001  0.1250000E+03  0.7546771E-02  0.1235069E+00
         21   -1    0    0  502  501  0.00000000000E+00  0.00000000000E+00  0.48160321975E+02  0.48160321975E+02  0.00000000000E+00 0. -1.
         21   -1    0    0  501  502 -0.00000000000E+00 -0.00000000000E+00 -0.81109299934E+02  0.81109299934E+02  0.00000000000E+00 0. -1.
         25    1    1    2    0    0  0.00000000000E+00  0.00000000000E+00 -0.32948977958E+02  0.12926962191E+03  0.12500000000E+03 0.  0.
<mgrwt>
<rscale>  0 0.12500000E+03</rscale>
<asrwt>0</asrwt>
<pdfrwt beam="1">  1       21 0.74092804E-02 0.12500000E+03</pdfrwt>
<pdfrwt beam="2">  1       21 0.12478354E-01 0.12500000E+03</pdfrwt>
<totfact> 0.73462696E+06</totfact>
</mgrwt>
</event>
<event>
 3    1  0.1604658E-001  0.1250000E+03  0.7546771E-02  0.1235069E+00
         21   -1    0    0  502  501  0.00000000000E+00  0.00000000000E+00  0.13445667314E+04  0.13445667314E+04  0.00000000000E+00 0.  1.
         21   -1    0    0  501  502 -0.00000000000E+00 -0.00000000000E+00 -0.29052109566E+01  0.29052109566E+01  0.00000000000E+00 0.  1.
         25    1    1    2    0    0  0.00000000000E+00  0.00000000000E+00  0.13416615205E+04  0.13474719424E+04  0.12500000000E+03 0.  0.
<mgrwt>
<rscale>  0 0.12500000E+03</rscale>
<asrwt>0</asrwt>
<pdfrwt beam="1">  1       21 0.20685592E+00 0.12500000E+03</pdfrwt>
<pdfrwt beam="2">  1       21 0.44695661E-03 0.12500000E+03</pdfrwt>
<totfact> 0.16420982E+06</totfact>
</mgrwt>
</event>
<event>
 3    1  0.1604658E-001  0.1250000E+03  0.7546771E-02  0.1235069E+00
         21   -1    0    0  502  501  0.00000000000E+00  0.00000000000E+00  0.78747039029E+01  0.78747039029E+01  0.00000000000E+00 0. -1.
         21   -1    0    0  501  502 -0.00000000000E+00 -0.00000000000E+00 -0.49605039734E+03  0.49605039734E+03  0.00000000000E+00 0. -1.
         25    1    1    2    0    0  0.00000000000E+00  0.00000000000E+00 -0.48817569344E+03  0.50392510125E+03  0.12500000000E+03 0.  0.
<mgrwt>
<rscale>  0 0.12500000E+03</rscale>
<asrwt>0</asrwt>
<pdfrwt beam="1">  1       21 0.12114929E-02 0.12500000E+03</pdfrwt>
<pdfrwt beam="2">  1       21 0.76315445E-01 0.12500000E+03</pdfrwt>
<totfact> 0.41832001E+06</totfact>
</mgrwt>
</event>
<event>
 3    1  0.1604658E-001  0.1250000E+03  0.7546771E-02  0.1235069E+00
         21   -1    0    0  502  501  0.00000000000E+00  0.00000000000E+00  0.30946233912E+03  0.30946233912E+03  0.00000000000E+00 0.  1.
         21   -1    0    0  501  502 -0.00000000000E+00 -0.00000000000E+00 -0.12622699134E+02  0.12622699134E+02  0.00000000000E+00 0.  1.
         25    1    1    2    0    0  0.00000000000E+00  0.00000000000E+00  0.29683963999E+03  0.32208503825E+03  0.12500000000E+03 0.  0.
<mgrwt>
<rscale>  0 0.12500000E+03</rscale>
<asrwt>0</asrwt>
<pdfrwt beam="1">  1       21 0.47609585E-01 0.12500000E+03</pdfrwt>
<pdfrwt beam="2">  1       21 0.19419539E-02 0.12500000E+03</pdfrwt>
<totfact> 0.53668529E+06</totfact>
</mgrwt>
</event>
<event>
 3    1  0.1604658E-001  0.1250000E+03  0.7546771E-02  0.1235069E+00
         21   -1    0    0  502  501  0.00000000000E+00  0.00000000000E+00  0.33169062895E+03  0.33169062895E+03  0.00000000000E+00 0.  1.
         21   -1    0    0  501  502 -0.00000000000E+00 -0.00000000000E+00 -0.11776787341E+02  0.11776787341E+02  0.00000000000E+00 0.  1.
         25    1    1    2    0    0  0.00000000000E+00  0.00000000000E+00  0.31991384161E+03  0.34346741629E+03  0.12500000000E+03 0.  0.
<mgrwt>
<rscale>  0 0.12500000E+03</rscale>
<asrwt>0</asrwt>
<pdfrwt beam="1">  1       21 0.51029320E-01 0.12500000E+03</pdfrwt>
<pdfrwt beam="2">  1       21 0.18118137E-02 0.12500000E+03</pdfrwt>
<totfact> 0.52024532E+06</totfact>
</mgrwt>
</event>
<event>
 3    1  0.1604658E-001  0.1250000E+03  0.7546771E-02  0.1235069E+00
         21   -1    0    0  502  501  0.00000000000E+00  0.00000000000E+00  0.20640505235E+03  0.20640505235E+03  0.00000000000E+00 0. -1.
         21   -1    0    0  501  502 -0.00000000000E+00 -0.00000000000E+00 -0.18925166587E+02  0.18925166587E+02  0.00000000000E+00 0. -1.
         25    1    1    2    0    0  0.00000000000E+00  0.00000000000E+00  0.18747988576E+03  0.22533021893E+03  0.12500000000E+03 0.  0.
<mgrwt>
<rscale>  0 0.12500000E+03</rscale>
<asrwt>0</asrwt>
<pdfrwt beam="1">  1       21 0.31754622E-01 0.12500000E+03</pdfrwt>
<pdfrwt beam="2">  1       21 0.29115642E-02 0.12500000E+03</pdfrwt>
<totfact> 0.62281796E+06</totfact>
</mgrwt>
</event>
<event>
 3    1  0.1604658E-001  0.1250000E+03  0.7546771E-02  0.1235069E+00
         21   -1    0    0  502  501  0.00000000000E+00  0.00000000000E+00  0.17831827640E+03  0.17831827640E+03  0.00000000000E+00 0. -1.
         21   -1    0    0  501  502 -0.00000000000E+00 -0.00000000000E+00 -0.21906055166E+02  0.21906055166E+02  0.00000000000E+00 0. -1.
         25    1    1    2    0    0  0.00000000000E+00  0.00000000000E+00  0.15641222124E+03  0.20022433157E+03  0.12500000000E+03 0.  0.
<mgrwt>
<rscale>  0 0.12500000E+03</rscale>
<asrwt>0</asrwt>
<pdfrwt beam="1">  1       21 0.27433580E-01 0.12500000E+03</pdfrwt>
<pdfrwt beam="2">  1       21 0.33701625E-02 0.12500000E+03</pdfrwt>
<totfact> 0.64902953E+06</totfact>
</mgrwt>
</event>
<event>
 3    1  0.1604658E-001  0.1250000E+03  0.7546771E-02  0.1235069E+00
         21   -1    0    0  502  501  0.00000000000E+00  0.00000000000E+00  0.63273238071E+03  0.63273238071E+03  0.00000000000E+00 0. -1.
         21   -1    0    0  501  502 -0.00000000000E+00 -0.00000000000E+00 -0.61736211376E+01  0.61736211376E+01  0.00000000000E+00 0. -1.
         25    1    1    2    0    0  0.00000000000E+00  0.00000000000E+00  0.62655875958E+03  0.63890600185E+03  0.12500000000E+03 0.  0.
<mgrwt>
<rscale>  0 0.12500000E+03</rscale>
<asrwt>0</asrwt>
<pdfrwt beam="1">  1       21 0.97343392E-01 0.12500000E+03</pdfrwt>
<pdfrwt beam="2">  1       21 0.94978837E-03 0.12500000E+03</pdfrwt>
<totfact> 0.35390189E+06</totfact>
</mgrwt>
</event>
<event>
 3    1  0.1604658E-001  0.1250000E+03  0.7546771E-02  0.1235069E+00
         21   -1    0    0  502  501  0.00000000000E+00  0.00000000000E+00  0.54664171766E+03  0.54664171766E+03  0.00000000000E+00 0.  1.
         21   -1    0    0  501  502 -0.00000000000E+00 -0.00000000000E+00 -0.71459053962E+01  0.71459053962E+01  0.00000000000E+00 0.  1.
         25    1    1    2    0    0  0.00000000000E+00  0.00000000000E+00  0.53949581226E+03  0.55378762306E+03  0.12500000000E+03 0.  0.
<mgrwt>
<rscale>  0 0.12500000E+03</rscale>
<asrwt>0</asrwt>
<pdfrwt beam="1">  1       21 0.84098693E-01 0.12500000E+03</pdfrwt>
<pdfrwt beam="2">  1       21 0.10993705E-02 0.12500000E+03</pdfrwt>
<totfact> 0.39269575E+06</totfact>
</mgrwt>
</event>
<event>
 3    1  0.1604658E-001  0.1250000E+03  0.7546771E-02  0.1235069E+00
         21   -1    0    0  502  501  0.00000000000E+00  0.00000000000E+00  0.10686008131E+03  0.10686008131E+03  0.00000000000E+00 0.  1.
         21   -1    0    0  501  502 -0.00000000000E+00 -0.00000000000E+00 -0.36554810293E+02  0.36554810293E+02  0.00000000000E+00 0.  1.
         25    1    1    2    0    0  0.00000000000E+00  0.00000000000E+00  0.70305271014E+02  0.14341489160E+03  0.12500000000E+03 0.  0.
<mgrwt>
<rscale>  0 0.12500000E+03</rscale>
<asrwt>0</asrwt>
<pdfrwt beam="1">  1       21 0.16440012E-01 0.12500000E+03</pdfrwt>
<pdfrwt beam="2">  1       21 0.56238170E-02 0.12500000E+03</pdfrwt>
<totfact> 0.71596576E+06</totfact>
</mgrwt>
</event>
<event>
 3    1  0.1604658E-001  0.1250000E+03  0.7546771E-02  0.1235069E+00
         21   -1    0    0  502  501  0.00000000000E+00  0.00000000000E+00  0.28492254183E+03  0.28492254183E+03  0.00000000000E+00 0. -1.
         21   -1    0    0  501  502 -0.00000000000E+00 -0.00000000000E+00 -0.13709866460E+02  0.13709866460E+02  0.00000000000E+00 0. -1.
         25    1    1    2    0    0  0.00000000000E+00  0.00000000000E+00  0.27121267537E+03  0.29863240829E+03  0.12500000000E+03 0.  0.
<mgrwt>
<rscale>  0 0.12500000E+03</rscale>
<asrwt>0</asrwt>
<pdfrwt beam="1">  1       21 0.43834233E-01 0.12500000E+03</pdfrwt>
<pdfrwt beam="2">  1       21 0.21092104E-02 0.12500000E+03</pdfrwt>
<totfact> 0.55570020E+06</totfact>
</mgrwt>
</event>
<event>
 3    1  0.1604658E-001  0.1250000E+03  0.7546771E-02  0.1235069E+00
         21   -1    0    0  502  501  0.00000000000E+00  0.00000000000E+00  0.25480560360E+02  0.25480560360E+02  0.00000000000E+00 0. -1.
         21   -1    0    0  501  502 -0.00000000000E+00 -0.00000000000E+00 -0.15330314345E+03  0.15330314345E+03  0.00000000000E+00 0. -1.
         25    1    1    2    0    0  0.00000000000E+00  0.00000000000E+00 -0.12782258309E+03  0.17878370381E+03  0.12500000000E+03 0.  0.
<mgrwt>
<rscale>  0 0.12500000E+03</rscale>
<asrwt>0</asrwt>
<pdfrwt beam="1">  1       21 0.39200863E-02 0.12500000E+03</pdfrwt>
<pdfrwt beam="2">  1       21 0.23585099E-01 0.12500000E+03</pdfrwt>
<totfact> 0.67291341E+06</totfact>
</mgrwt>
</event>
<event>
 3    1  0.1604658E-001  0.1250000E+03  0.7546771E-02  0.1235069E+00
         21   -1    0    0  502  501  0.00000000000E+00  0.00000000000E+00  0.22251067027E+01  0.22251067027E+01  0.00000000000E+00 0.  1.
         21   -1    0    0  501  502 -0.00000000000E+00 -0.00000000000E+00 -0.17555337887E+04  0.17555337887E+04  0.00000000000E+00 0.  1.
         25    1    1    2    0    0  0.00000000000E+00  0.00000000000E+00 -0.17533086820E+04  0.17577588954E+04  0.12500000000E+03 0.  0.
<mgrwt>
<rscale>  0 0.12500000E+03</rscale>
<asrwt>0</asrwt>
<pdfrwt beam="1">  1       21 0.34232454E-03 0.12500000E+03</pdfrwt>
<pdfrwt beam="2">  1       21 0.27008178E+00 0.12500000E+03</pdfrwt>
<totfact> 0.10564751E+06</totfact>
</mgrwt>
</event>
<event>
 3    1  0.1604658E-001  0.1250000E+03  0.7546771E-02  0.1235069E+00
         21   -1    0    0  502  501  0.00000000000E+00  0.00000000000E+00  0.22459509307E+01  0.22459509307E+01  0.00000000000E+00 0. -1.
         21   -1    0    0  501  502 -0.00000000000E+00 -0.00000000000E+00 -0.17392410255E+04  0.17392410255E+04  0.00000000000E+00 0. -1.
         25    1    1    2    0    0  0.00000000000E+00  0.00000000000E+00 -0.17369950746E+04  0.17414869764E+04  0.12500000000E+03 0.  0.
<mgrwt>
<rscale>  0 0.12500000E+03</rscale>
<asrwt>0</asrwt>
<pdfrwt beam="1">  1       21 0.34553070E-03 0.12500000E+03</pdfrwt>
<pdfrwt beam="2">  1       21 0.26757571E+00 0.12500000E+03</pdfrwt>
<totfact> 0.10760062E+06</totfact>
</mgrwt>
</event>
<event>
 3    1  0.1604658E-001  0.1250000E+03  0.7546771E-02  0.1235069E+00
         21   -1    0    0  502  501  0.00000000000E+00  0.00000000000E+00  0.10143524324E+03  0.10143524324E+03  0.00000000000E+00 0. -1.
         21   -1    0    0  501  502 -0.00000000000E+00 -0.00000000000E+00 -0.38509790829E+02  0.38509790829E+02  0.00000000000E+00 0. -1.
         25    1    1    2    0    0  0.00000000000E+00  0.00000000000E+00  0.62925452413E+02  0.13994503407E+03  0.12500000000E+03 0.  0.
<mgrwt>
<rscale>  0 0.12500000E+03</rscale>
<asrwt>0</asrwt>
<pdfrwt beam="1">  1       21 0.15605422E-01 0.12500000E+03</pdfrwt>
<pdfrwt beam="2">  1       21 0.59245833E-02 0.12500000E+03</pdfrwt>
<totfact> 0.72046485E+06</totfact>
</mgrwt>
</event>
<event>
 3    1  0.1604658E-001  0.1250000E+03  0.7546771E-02  0.1235069E+00
         21   -1    0    0  502  501  0.00000000000E+00  0.00000000000E+00  0.85283692923E+01  0.85283692923E+01  0.00000000000E+00 0.  1.
         21   -1    0    0  501  502 -0.00000000000E+00 -0.00000000000E+00 -0.45803011879E+03  0.45803011879E+03  0.00000000000E+00 0.  1.
         25    1    1    2    0    0  0.00000000000E+00  0.00000000000E+00 -0.44950174949E+03  0.46655848808E+03  0.12500000000E+03 0.  0.
<mgrwt>
<rscale>  0 0.12500000E+03</rscale>
<asrwt>0</asrwt>
<pdfrwt beam="1">  1       21 0.13120565E-02 0.12500000E+03</pdfrwt>
<pdfrwt beam="2">  1       21 0.70466187E-01 0.12500000E+03</pdfrwt>
<totfact> 0.43917737E+06</totfact>
</mgrwt>
</event>
<event>
 3    1  0.1604658E-001  0.1250000E+03  0.7546771E-02  0.1235069E+00
         21   -1    0    0  502  501  0.00000000000E+00  0.00000000000E+00  0.23966449046E+03  0.23966449046E+03  0.00000000000E+00 0.  1.
         21   -1    0    0  501  502 -0.00000000000E+00 -0.00000000000E+00 -0.16298826716E+02  0.16298826716E+02  0.00000000000E+00 0.  1.
         25    1    1    2    0    0  0.00000000000E+00  0.00000000000E+00  0.22336566374E+03  0.25596331717E+03  0.12500000000E+03 0.  0.
<mgrwt>
<rscale>  0 0.12500000E+03</rscale>
<asrwt>0</asrwt>
<pdfrwt beam="1">  1       21 0.36871457E-01 0.12500000E+03</pdfrwt>
<pdfrwt beam="2">  1       21 0.25075120E-02 0.12500000E+03</pdfrwt>
<totfact> 0.59321252E+06</totfact>
</mgrwt>
</event>
<event>
 3    1  0.1604658E-001  0.1250000E+03  0.7546771E-02  0.1235069E+00
         21   -1    0    0  502  501  0.00000000000E+00  0.00000000000E+00  0.18394012379E+02  0.18394012379E+02  0.00000000000E+00 0. -1.
         21   -1    0    0  501  502 -0.00000000000E+00 -0.00000000000E+00 -0.21236530234E+03  0.21236530234E+03  0.00000000000E+00 0. -1.
         25    1    1    2    0    0  0.00000000000E+00  0.00000000000E+00 -0.19397128996E+03  0.23075931472E+03  0.12500000000E+03 0.  0.
<mgrwt>
<rscale>  0 0.12500000E+03</rscale>
<asrwt>0</asrwt>
<pdfrwt beam="1">  1       21 0.28298483E-02 0.12500000E+03</pdfrwt>
<pdfrwt beam="2">  1       21 0.32671583E-01 0.12500000E+03</pdfrwt>
<totfact> 0.61738497E+06</totfact>
</mgrwt>
</event>
<event>
 3    1  0.1604658E-001  0.1250000E+03  0.7546771E-02  0.1235069E+00
         21   -1    0    0  502  501  0.00000000000E+00  0.00000000000E+00  0.33968898738E+03  0.33968898738E+03  0.00000000000E+00 0. -1.
         21   -1    0    0  501  502 -0.00000000000E+00 -0.00000000000E+00 -0.11499489666E+02  0.11499489666E+02  0.00000000000E+00 0. -1.
         25    1    1    2    0    0  0.00000000000E+00  0.00000000000E+00  0.32818949771E+03  0.35118847705E+03  0.12500000000E+03 0.  0.
<mgrwt>
<rscale>  0 0.12500000E+03</rscale>
<asrwt>0</asrwt>
<pdfrwt beam="1">  1       21 0.52259837E-01 0.12500000E+03</pdfrwt>
<pdfrwt beam="2">  1       21 0.17691525E-02 0.12500000E+03</pdfrwt>
<totfact> 0.51450782E+06</totfact>
</mgrwt>
</event>
<event>
 3    1  0.1604658E-001  0.1250000E+03  0.7546771E-02  0.1235069E+00
         21   -1    0    0  502  501  0.00000000000E+00  0.00000000000E+00  0.73183879967E+03  0.73183879967E+03  0.00000000000E+00 0.  1.
         21   -1    0    0  501  502 -0.00000000000E+00 -0.00000000000E+00 -0.53375825411E+01  0.53375825411E+01  0.00000000000E+00 0.  1.
         25    1    1    2    0    0  0.00000000000E+00  0.00000000000E+00  0.72650121713E+03  0.73717638221E+03  0.12500000000E+03 0.  0.
<mgrwt>
<rscale>  0 0.12500000E+03</rscale>
<asrwt>0</asrwt>
<pdfrwt beam="1">  1       21 0.11259050E+00 0.12500000E+03</pdfrwt>
<pdfrwt beam="2">  1       21 0.82116713E-03 0.12500000E+03</pdfrwt>
<totfact> 0.31525129E+06</totfact>
</mgrwt>
</event>
<event>
 3    1  0.1604658E-001  0.1250000E+03  0.7546771E-02  0.1235069E+00
         21   -1    0    0  502  501  0.00000000000E+00  0.00000000000E+00  0.40004228172E+01  0.40004228172E+01  0.00000000000E+00 0. -1.
         21   -1    0    0  501  502 -0.00000000000E+00 -0.00000000000E+00 -0.97645928405E+03  0.97645928405E+03  0.00000000000E+00 0. -1.
         25    1    1    2    0    0  0.00000000000E+00  0.00000000000E+00 -0.97245886124E+03  0.98045970687E+03  0.12500000000E+03 0.  0.
<mgrwt>
<rscale>  0 0.12500000E+03</rscale>
<asrwt>0</asrwt>
<pdfrwt beam="1">  1       21 0.61545043E-03 0.12500000E+03</pdfrwt>
<pdfrwt beam="2">  1       21 0.15022432E+00 0.12500000E+03</pdfrwt>
<totfact> 0.24113265E+06</totfact>
</mgrwt>
</event>
<event>
 3    1  0.1604658E-001  0.1250000E+03  0.7546771E-02  0.1235069E+00
         21   -1    0    0  502  501  0.00000000000E+00  0.00000000000E+00  0.70111728944E+01  0.70111728944E+01  0.00000000000E+00 0.  1.
         21   -1    0    0  501  502 -0.00000000000E+00 -0.00000000000E+00 -0.55714643738E+03  0.55714643738E+03  0.00000000000E+00 0.  1.
         25    1    1    2    0    0  0.00000000000E+00  0.00000000000E+00 -0.55013526449E+03  0.56415761028E+03  0.12500000000E+03 0.  0.
<mgrwt>
<rscale>  0 0.12500000E+03</rscale>
<asrwt>0</asrwt>
<pdfrwt beam="1">  1       21 0.10786414E-02 0.12500000E+03</pdfrwt>
<pdfrwt beam="2">  1       21 0.85714881E-01 0.12500000E+03</pdfrwt>
<totfact> 0.38765391E+06</totfact>
</mgrwt>
</event>
<event>
 3    1  0.1604658E-001  0.1250000E+03  0.7546771E-02  0.1235069E+00
         21   -1    0    0  502  501  0.00000000000E+00  0.00000000000E+00  0.55956072764E+03  0.55956072764E+03  0.00000000000E+00 0.  1.
         21   -1    0    0  501  502 -0.00000000000E+00 -0.00000000000E+00 -0.69809223683E+01  0.69809223683E+01  0.00000000000E+00 0.  1.
         25    1    1    2    0    0  0.00000000000E+00  0.00000000000E+00  0.55257980527E+03  0.56654165001E+03  0.12500000000E+03 0.  0.
<mgrwt>
<rscale>  0 0.12500000E+03</rscale>
<asrwt>0</asrwt>
<pdfrwt beam="1">  1       21 0.86086230E-01 0.12500000E+03</pdfrwt>
<pdfrwt beam="2">  1       21 0.10739885E-02 0.12500000E+03</pdfrwt>
<totfact> 0.38650832E+06</totfact>
</mgrwt>
</event>
<event>
 3    1  0.1604658E-001  0.1250000E+03  0.7546771E-02  0.1235069E+00
         21   -1    0    0  502  501  0.00000000000E+00  0.00000000000E+00  0.27057767958E+02  0.27057767958E+02  0.00000000000E+00 0.  1.
         21   -1    0    0  501  502 -0.00000000000E+00 -0.00000000000E+00 -0.14436704484E+03  0.14436704484E+03  0.00000000000E+00 0.  1.
         25    1    1    2    0    0  0.00000000000E+00  0.00000000000E+00 -0.11730927688E+03  0.17142481279E+03  0.12500000000E+03 0.  0.
<mgrwt>
<rscale>  0 0.12500000E+03</rscale>
<asrwt>0</asrwt>
<pdfrwt beam="1">  1       21 0.41627336E-02 0.12500000E+03</pdfrwt>
<pdfrwt beam="2">  1       21 0.22210314E-01 0.12500000E+03</pdfrwt>
<totfact> 0.68149133E+06</totfact>
</mgrwt>
</event>
<event>
 3    1  0.1604658E-001  0.1250000E+03  0.7546771E-02  0.1235069E+00
         21   -1    0    0  502  501  0.00000000000E+00  0.00000000000E+00  0.13278554549E+04  0.13278554549E+04  0.00000000000E+00 0. -1.
         21   -1    0    0  501  502 -0.00000000000E+00 -0.00000000000E+00 -0.29417735082E+01  0.29417735082E+01  0.00000000000E+00 0. -1.
         25    1    1    2    0    0  0.00000000000E+00  0.00000000000E+00  0.13249136814E+04  0.13307972284E+04  0.12500000000E+03 0.  0.
<mgrwt>
<rscale>  0 0.12500000E+03</rscale>
<asrwt>0</asrwt>
<pdfrwt beam="1">  1       21 0.20428498E+00 0.12500000E+03</pdfrwt>
<pdfrwt beam="2">  1       21 0.45258160E-03 0.12500000E+03</pdfrwt>
<totfact> 0.16708342E+06</totfact>
</mgrwt>
</event>
<event>
 3    1  0.1604658E-001  0.1250000E+03  0.7546771E-02  0.1235069E+00
         21   -1    0    0  502  501  0.00000000000E+00  0.00000000000E+00  0.55798351109E+02  0.55798351109E+02  0.00000000000E+00 0.  1.
         21   -1    0    0  501  502 -0.00000000000E+00 -0.00000000000E+00 -0.70006548982E+02  0.70006548982E+02  0.00000000000E+00 0.  1.
         25    1    1    2    0    0  0.00000000000E+00  0.00000000000E+00 -0.14208197873E+02  0.12580490009E+03  0.12500000000E+03 0.  0.
<mgrwt>
<rscale>  0 0.12500000E+03</rscale>
<asrwt>0</asrwt>
<pdfrwt beam="1">  1       21 0.85843617E-02 0.12500000E+03</pdfrwt>
<pdfrwt beam="2">  1       21 0.10770238E-01 0.12500000E+03</pdfrwt>
<totfact> 0.73932993E+06</totfact>
</mgrwt>
</event>
<event>
 3    1  0.1604658E-001  0.1250000E+03  0.7546771E-02  0.1235069E+00
         21   -1    0    0  502  501  0.00000000000E+00  0.00000000000E+00  0.31762223371E+03  0.31762223371E+03  0.00000000000E+00 0. -1.
         21   -1    0    0  501  502 -0.00000000000E+00 -0.00000000000E+00 -0.12298414864E+02  0.12298414864E+02  0.00000000000E+00 0. -1.
         25    1    1    2    0    0  0.00000000000E+00  0.00000000000E+00  0.30532381884E+03  0.32992064857E+03  0.12500000000E+03 0.  0.
<mgrwt>
<rscale>  0 0.12500000E+03</rscale>
<asrwt>0</asrwt>
<pdfrwt beam="1">  1       21 0.48864953E-01 0.12500000E+03</pdfrwt>
<pdfrwt beam="2">  1       21 0.18920641E-02 0.12500000E+03</pdfrwt>
<totfact> 0.53056431E+06</totfact>
</mgrwt>
</event>
<event>
 3    1  0.1604658E-001  0.1250000E+03  0.7546771E-02  0.1235069E+00
         21   -1    0    0  502  501  0.00000000000E+00  0.00000000000E+00  0.19691876827E+04  0.19691876827E+04  0.00000000000E+00 0. -1.
         21   -1    0    0  501  502 -0.00000000000E+00 -0.00000000000E+00 -0.19836859809E+01  0.19836859809E+01  0.00000000000E+00 0. -1.
         25    1    1    2    0    0  0.00000000000E+00  0.00000000000E+00  0.19672039967E+04  0.19711713687E+04  0.12500000000E+03 0.  0.
<mgrwt>
<rscale>  0 0.12500000E+03</rscale>
<asrwt>0</asrwt>
<pdfrwt beam="1">  1       21 0.30295039E+00 0.12500000E+03</pdfrwt>
<pdfrwt beam="2">  1       21 0.30518403E-03 0.12500000E+03</pdfrwt>
<totfact> 0.82326907E+05</totfact>
</mgrwt>
</event>
<event>
 3    1  0.1604658E-001  0.1250000E+03  0.7546771E-02  0.1235069E+00
         21   -1    0    0  502  501  0.00000000000E+00  0.00000000000E+00  0.18162846766E+02  0.18162846766E+02  0.00000000000E+00 0. -1.
         21   -1    0    0  501  502 -0.00000000000E+00 -0.00000000000E+00 -0.21506815811E+03  0.21506815811E+03  0.00000000000E+00 0. -1.
         25    1    1    2    0    0  0.00000000000E+00  0.00000000000E+00 -0.19690531134E+03  0.23323100487E+03  0.12500000000E+03 0.  0.
<mgrwt>
<rscale>  0 0.12500000E+03</rscale>
<asrwt>0</asrwt>
<pdfrwt beam="1">  1       21 0.27942843E-02 0.12500000E+03</pdfrwt>
<pdfrwt beam="2">  1       21 0.33087407E-01 0.12500000E+03</pdfrwt>
<totfact> 0.61493901E+06</totfact>
</mgrwt>
</event>
<event>
 3    1  0.1604658E-001  0.1250000E+03  0.7546771E-02  0.1235069E+00
         21   -1    0    0  502  501  0.00000000000E+00  0.00000000000E+00  0.84177180308E+01  0.84177180308E+01  0.00000000000E+00 0.  1.
         21   -1    0    0  501  502 -0.00000000000E+00 -0.00000000000E+00 -0.46405094418E+03  0.46405094418E+03  0.00000000000E+00 0.  1.
         25    1    1    2    0    0  0.00000000000E+00  0.00000000000E+00 -0.45563322615E+03  0.47246866221E+03  0.12500000000E+03 0.  0.
<mgrwt>
<rscale>  0 0.12500000E+03</rscale>
<asrwt>0</asrwt>
<pdfrwt beam="1">  1       21 0.12950334E-02 0.12500000E+03</pdfrwt>
<pdfrwt beam="2">  1       21 0.71392459E-01 0.12500000E+03</pdfrwt>
<totfact> 0.43577619E+06</totfact>
</mgrwt>
</event>
<event>
 3    1  0.1604658E-001  0.1250000E+03  0.7546771E-02  0.1235069E+00
         21   -1    0    0  502  501  0.00000000000E+00  0.00000000000E+00  0.29457697677E+02  0.29457697677E+02  0.00000000000E+00 0.  1.
         21   -1    0    0  501  502 -0.00000000000E+00 -0.00000000000E+00 -0.13260540735E+03  0.13260540735E+03  0.00000000000E+00 0.  1.
         25    1    1    2    0    0  0.00000000000E+00  0.00000000000E+00 -0.10314770967E+03  0.16206310503E+03  0.12500000000E+03 0.  0.
<mgrwt>
<rscale>  0 0.12500000E+03</rscale>
<asrwt>0</asrwt>
<pdfrwt beam="1">  1       21 0.45319536E-02 0.12500000E+03</pdfrwt>
<pdfrwt beam="2">  1       21 0.20400832E-01 0.12500000E+03</pdfrwt>
<totfact> 0.69268282E+06</totfact>
</mgrwt>
</event>
<event>
 3    1  0.1604658E-001  0.1250000E+03  0.7546771E-02  0.1235069E+00
         21   -1    0    0  502  501  0.00000000000E+00  0.00000000000E+00  0.11728182324E+02  0.11728182324E+02  0.00000000000E+00 0.  1.
         21   -1    0    0  501  502 -0.00000000000E+00 -0.00000000000E+00 -0.33306525190E+03  0.33306525190E+03  0.00000000000E+00 0.  1.
         25    1    1    2    0    0  0.00000000000E+00  0.00000000000E+00 -0.32133706958E+03  0.34479343423E+03  0.12500000000E+03 0.  0.
<mgrwt>
<rscale>  0 0.12500000E+03</rscale>
<asrwt>0</asrwt>
<pdfrwt beam="1">  1       21 0.18043358E-02 0.12500000E+03</pdfrwt>
<pdfrwt beam="2">  1       21 0.51240805E-01 0.12500000E+03</pdfrwt>
<totfact> 0.51925266E+06</totfact>
</mgrwt>
</event>
<event>
 3    1  0.1604658E-001  0.1250000E+03  0.7546771E-02  0.1235069E+00
         21   -1    0    0  502  501  0.00000000000E+00  0.00000000000E+00  0.16311852910E+03  0.16311852910E+03  0.00000000000E+00 0. -1.
         21   -1    0    0  501  502 -0.00000000000E+00 -0.00000000000E+00 -0.23947310104E+02  0.23947310104E+02  0.00000000000E+00 0. -1.
         25    1    1    2    0    0  0.00000000000E+00  0.00000000000E+00  0.13917121899E+03  0.18706583920E+03  0.12500000000E+03 0.  0.
<mgrwt>
<rscale>  0 0.12500000E+03</rscale>
<asrwt>0</asrwt>
<pdfrwt beam="1">  1       21 0.25095158E-01 0.12500000E+03</pdfrwt>
<pdfrwt beam="2">  1       21 0.36842016E-02 0.12500000E+03</pdfrwt>
<totfact> 0.66350063E+06</totfact>
</mgrwt>
</event>
<event>
 3    1  0.1604658E-001  0.1250000E+03  0.7546771E-02  0.1235069E+00
         21   -1    0    0  502  501  0.00000000000E+00  0.00000000000E+00  0.90092710642E+01  0.90092710642E+01  0.00000000000E+00 0.  1.
         21   -1    0    0  501  502 -0.00000000000E+00 -0.00000000000E+00 -0.43358113794E+03  0.43358113794E+03  0.00000000000E+00 0.  1.
         25    1    1    2    0    0  0.00000000000E+00  0.00000000000E+00 -0.42457186687E+03  0.44259040900E+03  0.12500000000E+03 0.  0.
<mgrwt>
<rscale>  0 0.12500000E+03</rscale>
<asrwt>0</asrwt>
<pdfrwt beam="1">  1       21 0.13860414E-02 0.12500000E+03</pdfrwt>
<pdfrwt beam="2">  1       21 0.66704803E-01 0.12500000E+03</pdfrwt>
<totfact> 0.45338965E+06</totfact>
</mgrwt>
</event>
<event>
 3    1  0.1604658E-001  0.1250000E+03  0.7546771E-02  0.1235069E+00
         21   -1    0    0  502  501  0.00000000000E+00  0.00000000000E+00  0.14913079490E+03  0.14913079490E+03  0.00000000000E+00 0. -1.
         21   -1    0    0  501  502 -0.00000000000E+00 -0.00000000000E+00 -0.26193449868E+02  0.26193449868E+02  0.00000000000E+00 0. -1.
         25    1    1    2    0    0  0.00000000000E+00  0.00000000000E+00  0.12293734503E+03  0.17532424477E+03  0.12500000000E+03 0.  0.
<mgrwt>
<rscale>  0 0.12500000E+03</rscale>
<asrwt>0</asrwt>
<pdfrwt beam="1">  1       21 0.22943199E-01 0.12500000E+03</pdfrwt>
<pdfrwt beam="2">  1       21 0.40297616E-02 0.12500000E+03</pdfrwt>
<totfact> 0.67692015E+06</totfact>
</mgrwt>
</event>
<event>
 3    1  0.1604658E-001  0.1250000E+03  0.7546771E-02  0.1235069E+00
         21   -1    0    0  502  501  0.00000000000E+00  0.00000000000E+00  0.11593133515E+04  0.11593133515E+04  0.00000000000E+00 0. -1.
         21   -1    0    0  501  502 -0.00000000000E+00 -0.00000000000E+00 -0.33694514041E+01  0.33694514041E+01  0.00000000000E+00 0. -1.
         25    1    1    2    0    0  0.00000000000E+00  0.00000000000E+00  0.11559439001E+04  0.11626828029E+04  0.12500000000E+03 0.  0.
<mgrwt>
<rscale>  0 0.12500000E+03</rscale>
<asrwt>0</asrwt>
<pdfrwt beam="1">  1       21 0.17835558E+00 0.12500000E+03</pdfrwt>
<pdfrwt beam="2">  1       21 0.51837806E-03 0.12500000E+03</pdfrwt>
<totfact> 0.19903335E+06</totfact>
</mgrwt>
</event>
<event>
 3    1  0.1604658E-001  0.1250000E+03  0.7546771E-02  0.1235069E+00
         21   -1    0    0  502  501  0.00000000000E+00  0.00000000000E+00  0.18708421775E+03  0.18708421775E+03  0.00000000000E+00 0. -1.
         21   -1    0    0  501  502 -0.00000000000E+00 -0.00000000000E+00 -0.20879634033E+02  0.20879634033E+02  0.00000000000E+00 0. -1.
         25    1    1    2    0    0  0.00000000000E+00  0.00000000000E+00  0.16620458372E+03  0.20796385178E+03  0.12500000000E+03 0.  0.
<mgrwt>
<rscale>  0 0.12500000E+03</rscale>
<asrwt>0</asrwt>
<pdfrwt beam="1">  1       21 0.28782186E-01 0.12500000E+03</pdfrwt>
<pdfrwt beam="2">  1       21 0.32122515E-02 0.12500000E+03</pdfrwt>
<totfact> 0.64074401E+06</totfact>
</mgrwt>
</event>
<event>
 3    1  0.1604658E-001  0.1250000E+03  0.7546771E-02  0.1235069E+00
         21   -1    0    0  502  501  0.00000000000E+00  0.00000000000E+00  0.54353728427E+02  0.54353728427E+02  0.00000000000E+00 0.  1.
         21   -1    0    0  501  502 -0.00000000000E+00 -0.00000000000E+00 -0.71867195003E+02  0.71867195003E+02  0.00000000000E+00 0.  1.
         25    1    1    2    0    0  0.00000000000E+00  0.00000000000E+00 -0.17513466577E+02  0.12622092343E+03  0.12500000000E+03 0.  0.
<mgrwt>
<rscale>  0 0.12500000E+03</rscale>
<asrwt>0</asrwt>
<pdfrwt beam="1">  1       21 0.83621121E-02 0.12500000E+03</pdfrwt>
<pdfrwt beam="2">  1       21 0.11056492E-01 0.12500000E+03</pdfrwt>
<totfact> 0.73875635E+06</totfact>
</mgrwt>
</event>
<event>
 3    1  0.1604658E-001  0.1250000E+03  0.7546771E-02  0.1235069E+00
         21   -1    0    0  502  501  0.00000000000E+00  0.00000000000E+00  0.16335988364E+03  0.16335988364E+03  0.00000000000E+00 0.  1.
         21   -1    0    0  501  502 -0.00000000000E+00 -0.00000000000E+00 -0.23911929374E+02  0.23911929374E+02  0.00000000000E+00 0.  1.
         25    1    1    2    0    0  0.00000000000E+00  0.00000000000E+00  0.13944795426E+03  0.18727181301E+03  0.12500000000E+03 0.  0.
<mgrwt>
<rscale>  0 0.12500000E+03</rscale>
<asrwt>0</asrwt>
<pdfrwt beam="1">  1       21 0.25132289E-01 0.12500000E+03</pdfrwt>
<pdfrwt beam="2">  1       21 0.36787585E-02 0.12500000E+03</pdfrwt>
<totfact> 0.66326968E+06</totfact>
</mgrwt>
</event>
<event>
 3    1  0.1604658E-001  0.1250000E+03  0.7546771E-02  0.1235069E+00
         21   -1    0    0  502  501  0.00000000000E+00  0.00000000000E+00  0.14238877662E+03  0.14238877662E+03  0.00000000000E+00 0.  1.
         21   -1    0    0  501  502 -0.00000000000E+00 -0.00000000000E+00 -0.27433693109E+02  0.27433693109E+02  0.00000000000E+00 0.  1.
         25    1    1    2    0    0  0.00000000000E+00  0.00000000000E+00  0.11495508351E+03  0.16982246973E+03  0.12500000000E+03 0.  0.
<mgrwt>
<rscale>  0 0.12500000E+03</rscale>
<asrwt>0</asrwt>
<pdfrwt beam="1">  1       21 0.21905965E-01 0.12500000E+03</pdfrwt>
<pdfrwt beam="2">  1       21 0.42205682E-02 0.12500000E+03</pdfrwt>
<totfact> 0.68338686E+06</totfact>
</mgrwt>
</event>
<event>
 3    1  0.1604658E-001  0.1250000E+03  0.7546771E-02  0.1235069E+00
         21   -1    0    0  502  501  0.00000000000E+00  0.00000000000E+00  0.23141279831E+03  0.23141279831E+03  0.00000000000E+00 0. -1.
         21   -1    0    0  501  502 -0.00000000000E+00 -0.00000000000E+00 -0.16880008489E+02  0.16880008489E+02  0.00000000000E+00 0. -1.
         25    1    1    2    0    0  0.00000000000E+00  0.00000000000E+00  0.21453278982E+03  0.24829280680E+03  0.12500000000E+03 0.  0.
<mgrwt>
<rscale>  0 0.12500000E+03</rscale>
<asrwt>0</asrwt>
<pdfrwt beam="1">  1       21 0.35601967E-01 0.12500000E+03</pdfrwt>
<pdfrwt beam="2">  1       21 0.25969246E-02 0.12500000E+03</pdfrwt>
<totfact> 0.60039293E+06</totfact>
</mgrwt>
</event>
<event>
 3    1  0.1604658E-001  0.1250000E+03  0.7546771E-02  0.1235069E+00
         21   -1    0    0  502  501  0.00000000000E+00  0.00000000000E+00  0.14386551273E+03  0.14386551273E+03  0.00000000000E+00 0.  1.
         21   -1    0    0  501  502 -0.00000000000E+00 -0.00000000000E+00 -0.27152094521E+02  0.27152094521E+02  0.00000000000E+00 0.  1.
         25    1    1    2    0    0  0.00000000000E+00  0.00000000000E+00  0.11671341821E+03  0.17101760725E+03  0.12500000000E+03 0.  0.
<mgrwt>
<rscale>  0 0.12500000E+03</rscale>
<asrwt>0</asrwt>
<pdfrwt beam="1">  1       21 0.22133155E-01 0.12500000E+03</pdfrwt>
<pdfrwt beam="2">  1       21 0.41772454E-02 0.12500000E+03</pdfrwt>
<totfact> 0.68197209E+06</totfact>
</mgrwt>
</event>
<event>
 3    1  0.1604658E-001  0.1250000E+03  0.7546771E-02  0.1235069E+00
         21   -1    0    0  502  501  0.00000000000E+00  0.00000000000E+00  0.49839449759E+03  0.49839449759E+03  0.00000000000E+00 0. -1.
         21   -1    0    0  501  502 -0.00000000000E+00 -0.00000000000E+00 -0.78376667858E+01  0.78376667858E+01  0.00000000000E+00 0. -1.
         25    1    1    2    0    0  0.00000000000E+00  0.00000000000E+00  0.49055683081E+03  0.50623216438E+03  0.12500000000E+03 0.  0.
<mgrwt>
<rscale>  0 0.12500000E+03</rscale>
<asrwt>0</asrwt>
<pdfrwt beam="1">  1       21 0.76676052E-01 0.12500000E+03</pdfrwt>
<pdfrwt beam="2">  1       21 0.12057953E-02 0.12500000E+03</pdfrwt>
<totfact> 0.41708099E+06</totfact>
</mgrwt>
</event>
<event>
 3    1  0.1604658E-001  0.1250000E+03  0.7546771E-02  0.1235069E+00
         21   -1    0    0  502  501  0.00000000000E+00  0.00000000000E+00  0.21877890648E+02  0.21877890648E+02  0.00000000000E+00 0.  1.
         21   -1    0    0  501  502 -0.00000000000E+00 -0.00000000000E+00 -0.17854783457E+03  0.17854783457E+03  0.00000000000E+00 0.  1.
         25    1    1    2    0    0  0.00000000000E+00  0.00000000000E+00 -0.15666994392E+03  0.20042572521E+03  0.12500000000E+03 0.  0.
<mgrwt>
<rscale>  0 0.12500000E+03</rscale>
<asrwt>0</asrwt>
<pdfrwt beam="1">  1       21 0.33658295E-02 0.12500000E+03</pdfrwt>
<pdfrwt beam="2">  1       21 0.27468896E-01 0.12500000E+03</pdfrwt>
<totfact> 0.64881152E+06</totfact>
</mgrwt>
</event>
<event>
 3    1  0.1604658E-001  0.1250000E+03  0.7546771E-02  0.1235069E+00
         21   -1    0    0  502  501  0.00000000000E+00  0.00000000000E+00  0.31367644693E+02  0.31367644693E+02  0.00000000000E+00 0. -1.
         21   -1    0    0  501  502 -0.00000000000E+00 -0.00000000000E+00 -0.12453118614E+03  0.12453118614E+03  0.00000000000E+00 0. -1.
         25    1    1    2    0    0  0.00000000000E+00  0.00000000000E+00 -0.93163541446E+02  0.15589883083E+03  0.12500000000E+03 0.  0.
<mgrwt>
<rscale>  0 0.12500000E+03</rscale>
<asrwt>0</asrwt>
<pdfrwt beam="1">  1       21 0.48257914E-02 0.12500000E+03</pdfrwt>
<pdfrwt beam="2">  1       21 0.19158644E-01 0.12500000E+03</pdfrwt>
<totfact> 0.70024117E+06</totfact>
</mgrwt>
</event>
<event>
 3    1  0.1604658E-001  0.1250000E+03  0.7546771E-02  0.1235069E+00
         21   -1    0    0  502  501  0.00000000000E+00  0.00000000000E+00  0.17521783272E+02  0.17521783272E+02  0.00000000000E+00 0.  1.
         21   -1    0    0  501  502 -0.00000000000E+00 -0.00000000000E+00 -0.22293678328E+03  0.22293678328E+03  0.00000000000E+00 0.  1.
         25    1    1    2    0    0  0.00000000000E+00  0.00000000000E+00 -0.20541500001E+03  0.24045856655E+03  0.12500000000E+03 0.  0.
<mgrwt>
<rscale>  0 0.12500000E+03</rscale>
<asrwt>0</asrwt>
<pdfrwt beam="1">  1       21 0.26956590E-02 0.12500000E+03</pdfrwt>
<pdfrwt beam="2">  1       21 0.34297966E-01 0.12500000E+03</pdfrwt>
<totfact> 0.60788316E+06</totfact>
</mgrwt>
</event>
<event>
 3    1  0.1604658E-001  0.1250000E+03  0.7546771E-02  0.1235069E+00
         21   -1    0    0  502  501  0.00000000000E+00  0.00000000000E+00  0.41490192710E+02  0.41490192710E+02  0.00000000000E+00 0. -1.
         21   -1    0    0  501  502 -0.00000000000E+00 -0.00000000000E+00 -0.94148755281E+02  0.94148755281E+02  0.00000000000E+00 0. -1.
         25    1    1    2    0    0  0.00000000000E+00  0.00000000000E+00 -0.52658562572E+02  0.13563894799E+03  0.12500000000E+03 0.  0.
<mgrwt>
<rscale>  0 0.12500000E+03</rscale>
<asrwt>0</asrwt>
<pdfrwt beam="1">  1       21 0.63831067E-02 0.12500000E+03</pdfrwt>
<pdfrwt beam="2">  1       21 0.14484424E-01 0.12500000E+03</pdfrwt>
<totfact> 0.72611982E+06</totfact>
</mgrwt>
</event>
<event>
 3    1  0.1604658E-001  0.1250000E+03  0.7546771E-02  0.1235069E+00
         21   -1    0    0  502  501  0.00000000000E+00  0.00000000000E+00  0.83064744033E+02  0.83064744033E+02  0.00000000000E+00 0.  1.
         21   -1    0    0  501  502 -0.00000000000E+00 -0.00000000000E+00 -0.47026570002E+02  0.47026570002E+02  0.00000000000E+00 0.  1.
         25    1    1    2    0    0  0.00000000000E+00  0.00000000000E+00  0.36038174031E+02  0.13009131404E+03  0.12500000000E+03 0.  0.
<mgrwt>
<rscale>  0 0.12500000E+03</rscale>
<asrwt>0</asrwt>
<pdfrwt beam="1">  1       21 0.12779191E-01 0.12500000E+03</pdfrwt>
<pdfrwt beam="2">  1       21 0.72348569E-02 0.12500000E+03</pdfrwt>
<totfact> 0.73352713E+06</totfact>
</mgrwt>
</event>
<event>
 3    1  0.1604658E-001  0.1250000E+03  0.7546771E-02  0.1235069E+00
         21   -1    0    0  502  501  0.00000000000E+00  0.00000000000E+00  0.11281333491E+02  0.11281333491E+02  0.00000000000E+00 0.  1.
         21   -1    0    0  501  502 -0.00000000000E+00 -0.00000000000E+00 -0.34625782521E+03  0.34625782521E+03  0.00000000000E+00 0.  1.
         25    1    1    2    0    0  0.00000000000E+00  0.00000000000E+00 -0.33497649172E+03  0.35753915870E+03  0.12500000000E+03 0.  0.
<mgrwt>
<rscale>  0 0.12500000E+03</rscale>
<asrwt>0</asrwt>
<pdfrwt beam="1">  1       21 0.17355900E-02 0.12500000E+03</pdfrwt>
<pdfrwt beam="2">  1       21 0.53270428E-01 0.12500000E+03</pdfrwt>
<totfact> 0.50986422E+06</totfact>
</mgrwt>
</event>
<event>
 3    1  0.1604658E-001  0.1250000E+03  0.7546771E-02  0.1235069E+00
         21   -1    0    0  502  501  0.00000000000E+00  0.00000000000E+00  0.16744793139E+04  0.16744793139E+04  0.00000000000E+00 0.  1.
         21   -1    0    0  501  502 -0.00000000000E+00 -0.00000000000E+00 -0.23328147249E+01  0.23328147249E+01  0.00000000000E+00 0.  1.
         25    1    1    2    0    0  0.00000000000E+00  0.00000000000E+00  0.16721464992E+04  0.16768121286E+04  0.12500000000E+03 0.  0.
<mgrwt>
<rscale>  0 0.12500000E+03</rscale>
<asrwt>0</asrwt>
<pdfrwt beam="1">  1       21 0.25761124E+00 0.12500000E+03</pdfrwt>
<pdfrwt beam="2">  1       21 0.35889591E-03 0.12500000E+03</pdfrwt>
<totfact> 0.11562361E+06</totfact>
</mgrwt>
</event>
<event>
 3    1  0.1604658E-001  0.1250000E+03  0.7546771E-02  0.1235069E+00
         21   -1    0    0  502  501  0.00000000000E+00  0.00000000000E+00  0.27982094037E+03  0.27982094037E+03  0.00000000000E+00 0. -1.
         21   -1    0    0  501  502 -0.00000000000E+00 -0.00000000000E+00 -0.13959820144E+02  0.13959820144E+02  0.00000000000E+00 0. -1.
         25    1    1    2    0    0  0.00000000000E+00  0.00000000000E+00  0.26586112022E+03  0.29378076051E+03  0.12500000000E+03 0.  0.
<mgrwt>
<rscale>  0 0.12500000E+03</rscale>
<asrwt>0</asrwt>
<pdfrwt beam="1">  1       21 0.43049371E-01 0.12500000E+03</pdfrwt>
<pdfrwt beam="2">  1       21 0.21476648E-02 0.12500000E+03</pdfrwt>
<totfact> 0.55977011E+06</totfact>
</mgrwt>
</event>
<event>
 3    1  0.1604658E-001  0.1250000E+03  0.7546771E-02  0.1235069E+00
         21   -1    0    0  502  501  0.00000000000E+00  0.00000000000E+00  0.14109891073E+04  0.14109891073E+04  0.00000000000E+00 0. -1.
         21   -1    0    0  501  502 -0.00000000000E+00 -0.00000000000E+00 -0.27684480198E+01  0.27684480198E+01  0.00000000000E+00 0. -1.
         25    1    1    2    0    0  0.00000000000E+00  0.00000000000E+00  0.14082206593E+04  0.14137575553E+04  0.12500000000E+03 0.  0.
<mgrwt>
<rscale>  0 0.12500000E+03</rscale>
<asrwt>0</asrwt>
<pdfrwt beam="1">  1       21 0.21707467E+00 0.12500000E+03</pdfrwt>
<pdfrwt beam="2">  1       21 0.42591621E-03 0.12500000E+03</pdfrwt>
<totfact> 0.15322440E+06</totfact>
</mgrwt>
</event>
<event>
 3    1  0.1604658E-001  0.1250000E+03  0.7546771E-02  0.1235069E+00
         21   -1    0    0  502  501  0.00000000000E+00  0.00000000000E+00  0.74339623020E+02  0.74339623020E+02  0.00000000000E+00 0. -1.
         21   -1    0    0  501  502 -0.00000000000E+00 -0.00000000000E+00 -0.52546002271E+02  0.52546002271E+02  0.00000000000E+00 0. -1.
         25    1    1    2    0    0  0.00000000000E+00  0.00000000000E+00  0.21793620749E+02  0.12688562529E+03  0.12500000000E+03 0.  0.
<mgrwt>
<rscale>  0 0.12500000E+03</rscale>
<asrwt>0</asrwt>
<pdfrwt beam="1">  1       21 0.11436865E-01 0.12500000E+03</pdfrwt>
<pdfrwt beam="2">  1       21 0.80840003E-02 0.12500000E+03</pdfrwt>
<totfact> 0.73784714E+06</totfact>
</mgrwt>
</event>
<event>
 3    1  0.1604658E-001  0.1250000E+03  0.7546771E-02  0.1235069E+00
         21   -1    0    0  502  501  0.00000000000E+00  0.00000000000E+00  0.16294699804E+02  0.16294699804E+02  0.00000000000E+00 0. -1.
         21   -1    0    0  501  502 -0.00000000000E+00 -0.00000000000E+00 -0.23972518960E+03  0.23972518960E+03  0.00000000000E+00 0. -1.
         25    1    1    2    0    0  0.00000000000E+00  0.00000000000E+00 -0.22343048979E+03  0.25601988940E+03  0.12500000000E+03 0.  0.
<mgrwt>
<rscale>  0 0.12500000E+03</rscale>
<asrwt>0</asrwt>
<pdfrwt beam="1">  1       21 0.25068768E-02 0.12500000E+03</pdfrwt>
<pdfrwt beam="2">  1       21 0.36880800E-01 0.12500000E+03</pdfrwt>
<totfact> 0.59316009E+06</totfact>
</mgrwt>
</event>
<event>
 3    1  0.1604658E-001  0.1250000E+03  0.7546771E-02  0.1235069E+00
         21   -1    0    0  502  501  0.00000000000E+00  0.00000000000E+00  0.21899680888E+02  0.21899680888E+02  0.00000000000E+00 0. -1.
         21   -1    0    0  501  502 -0.00000000000E+00 -0.00000000000E+00 -0.17837017900E+03  0.17837017900E+03  0.00000000000E+00 0. -1.
         25    1    1    2    0    0  0.00000000000E+00  0.00000000000E+00 -0.15647049811E+03  0.20026985988E+03  0.12500000000E+03 0.  0.
<mgrwt>
<rscale>  0 0.12500000E+03</rscale>
<asrwt>0</asrwt>
<pdfrwt beam="1">  1       21 0.33691818E-02 0.12500000E+03</pdfrwt>
<pdfrwt beam="2">  1       21 0.27441565E-01 0.12500000E+03</pdfrwt>
<totfact> 0.64898024E+06</totfact>
</mgrwt>
</event>
<event>
 3    1  0.1604658E-001  0.1250000E+03  0.7546771E-02  0.1235069E+00
         21   -1    0    0  502  501  0.00000000000E+00  0.00000000000E+00  0.84865713251E+03  0.84865713251E+03  0.00000000000E+00 0.  1.
         21   -1    0    0  501  502 -0.00000000000E+00 -0.00000000000E+00 -0.46028600366E+01  0.46028600366E+01  0.00000000000E+00 0.  1.
         25    1    1    2    0    0  0.00000000000E+00  0.00000000000E+00  0.84405427248E+03  0.85325999255E+03  0.12500000000E+03 0.  0.
<mgrwt>
<rscale>  0 0.12500000E+03</rscale>
<asrwt>0</asrwt>
<pdfrwt beam="1">  1       21 0.13056251E+00 0.12500000E+03</pdfrwt>
<pdfrwt beam="2">  1       21 0.70813299E-03 0.12500000E+03</pdfrwt>
<totfact> 0.27672412E+06</totfact>
</mgrwt>
</event>
<event>
 3    1  0.1604658E-001  0.1250000E+03  0.7546771E-02  0.1235069E+00
         21   -1    0    0  502  501  0.00000000000E+00  0.00000000000E+00  0.33409546092E+02  0.33409546092E+02  0.00000000000E+00 0.  1.
         21   -1    0    0  501  502 -0.00000000000E+00 -0.00000000000E+00 -0.11692017573E+03  0.11692017573E+03  0.00000000000E+00 0.  1.
         25    1    1    2    0    0  0.00000000000E+00  0.00000000000E+00 -0.83510629636E+02  0.15032972182E+03  0.12500000000E+03 0.  0.
<mgrwt>
<rscale>  0 0.12500000E+03</rscale>
<asrwt>0</asrwt>
<pdfrwt beam="1">  1       21 0.51399302E-02 0.12500000E+03</pdfrwt>
<pdfrwt beam="2">  1       21 0.17987719E-01 0.12500000E+03</pdfrwt>
<totfact> 0.70717807E+06</totfact>
</mgrwt>
</event>
<event>
 3    1  0.1604658E-001  0.1250000E+03  0.7546771E-02  0.1235069E+00
         21   -1    0    0  502  501  0.00000000000E+00  0.00000000000E+00  0.22260183051E+03  0.22260183051E+03  0.00000000000E+00 0.  1.
         21   -1    0    0  501  502 -0.00000000000E+00 -0.00000000000E+00 -0.17548148598E+02  0.17548148598E+02  0.00000000000E+00 0.  1.
         25    1    1    2    0    0  0.00000000000E+00  0.00000000000E+00  0.20505368191E+03  0.24014997910E+03  0.12500000000E+03 0.  0.
<mgrwt>
<rscale>  0 0.12500000E+03</rscale>
<asrwt>0</asrwt>
<pdfrwt beam="1">  1       21 0.34246433E-01 0.12500000E+03</pdfrwt>
<pdfrwt beam="2">  1       21 0.26997153E-02 0.12500000E+03</pdfrwt>
<totfact> 0.60818154E+06</totfact>
</mgrwt>
</event>
<event>
 3    1  0.1604658E-001  0.1250000E+03  0.7546771E-02  0.1235069E+00
         21   -1    0    0  502  501  0.00000000000E+00  0.00000000000E+00  0.93956131933E+01  0.93956131933E+01  0.00000000000E+00 0.  1.
         21   -1    0    0  501  502 -0.00000000000E+00 -0.00000000000E+00 -0.41575253468E+03  0.41575253468E+03  0.00000000000E+00 0.  1.
         25    1    1    2    0    0  0.00000000000E+00  0.00000000000E+00 -0.40635692149E+03  0.42514814787E+03  0.12500000000E+03 0.  0.
<mgrwt>
<rscale>  0 0.12500000E+03</rscale>
<asrwt>0</asrwt>
<pdfrwt beam="1">  1       21 0.14454792E-02 0.12500000E+03</pdfrwt>
<pdfrwt beam="2">  1       21 0.63961916E-01 0.12500000E+03</pdfrwt>
<totfact> 0.46416844E+06</totfact>
</mgrwt>
</event>
<event>
 3    1  0.1604658E-001  0.1250000E+03  0.7546771E-02  0.1235069E+00
         21   -1    0    0  502  501  0.00000000000E+00  0.00000000000E+00  0.10392181018E+03  0.10392181018E+03  0.00000000000E+00 0. -1.
         21   -1    0    0  501  502 -0.00000000000E+00 -0.00000000000E+00 -0.37588356029E+02  0.37588356029E+02  0.00000000000E+00 0. -1.
         25    1    1    2    0    0  0.00000000000E+00  0.00000000000E+00  0.66333454147E+02  0.14151016620E+03  0.12500000000E+03 0.  0.
<mgrwt>
<rscale>  0 0.12500000E+03</rscale>
<asrwt>0</asrwt>
<pdfrwt beam="1">  1       21 0.15987971E-01 0.12500000E+03</pdfrwt>
<pdfrwt beam="2">  1       21 0.57828241E-02 0.12500000E+03</pdfrwt>
<totfact> 0.71842768E+06</totfact>
</mgrwt>
</event>
<event>
 3    1  0.1604658E-001  0.1250000E+03  0.7546771E-02  0.1235069E+00
         21   -1    0    0  502  501  0.00000000000E+00  0.00000000000E+00  0.37366269202E+03  0.37366269202E+03  0.00000000000E+00 0.  1.
         21   -1    0    0  501  502 -0.00000000000E+00 -0.00000000000E+00 -0.10453947058E+02  0.10453947058E+02  0.00000000000E+00 0.  1.
         25    1    1    2    0    0  0.00000000000E+00  0.00000000000E+00  0.36320874496E+03  0.38411663908E+03  0.12500000000E+03 0.  0.
<mgrwt>
<rscale>  0 0.12500000E+03</rscale>
<asrwt>0</asrwt>
<pdfrwt beam="1">  1       21 0.57486558E-01 0.12500000E+03</pdfrwt>
<pdfrwt beam="2">  1       21 0.16082998E-02 0.12500000E+03</pdfrwt>
<totfact> 0.49113037E+06</totfact>
</mgrwt>
</event>
<event>
 3    1  0.1604658E-001  0.1250000E+03  0.7546771E-02  0.1235069E+00
         21   -1    0    0  502  501  0.00000000000E+00  0.00000000000E+00  0.87288914556E+03  0.87288914556E+03  0.00000000000E+00 0.  1.
         21   -1    0    0  501  502 -0.00000000000E+00 -0.00000000000E+00 -0.44750814234E+01  0.44750814234E+01  0.00000000000E+00 0.  1.
         25    1    1    2    0    0  0.00000000000E+00  0.00000000000E+00  0.86841406414E+03  0.87736422699E+03  0.12500000000E+03 0.  0.
<mgrwt>
<rscale>  0 0.12500000E+03</rscale>
<asrwt>0</asrwt>
<pdfrwt beam="1">  1       21 0.13429050E+00 0.12500000E+03</pdfrwt>
<pdfrwt beam="2">  1       21 0.68847476E-03 0.12500000E+03</pdfrwt>
<totfact> 0.26953607E+06</totfact>
</mgrwt>
</event>
<event>
 3    1  0.1604658E-001  0.1250000E+03  0.7546771E-02  0.1235069E+00
         21   -1    0    0  502  501  0.00000000000E+00  0.00000000000E+00  0.39244279906E+02  0.39244279906E+02  0.00000000000E+00 0. -1.
         21   -1    0    0  501  502 -0.00000000000E+00 -0.00000000000E+00 -0.99536798976E+02  0.99536798976E+02  0.00000000000E+00 0. -1.
         25    1    1    2    0    0  0.00000000000E+00  0.00000000000E+00 -0.60292519070E+02  0.13878107888E+03  0.12500000000E+03 0.  0.
<mgrwt>
<rscale>  0 0.12500000E+03</rscale>
<asrwt>0</asrwt>
<pdfrwt beam="1">  1       21 0.60375816E-02 0.12500000E+03</pdfrwt>
<pdfrwt beam="2">  1       21 0.15313354E-01 0.12500000E+03</pdfrwt>
<totfact> 0.72198838E+06</totfact>
</mgrwt>
</event>
<event>
 3    1  0.1604658E-001  0.1250000E+03  0.7546771E-02  0.1235069E+00
         21   -1    0    0  502  501  0.00000000000E+00  0.00000000000E+00  0.19607513965E+03  0.19607513965E+03  0.00000000000E+00 0.  1.
         21   -1    0    0  501  502 -0.00000000000E+00 -0.00000000000E+00 -0.19922209450E+02  0.19922209450E+02  0.00000000000E+00 0.  1.
         25    1    1    2    0    0  0.00000000000E+00  0.00000000000E+00  0.17615293020E+03  0.21599734910E+03  0.12500000000E+03 0.  0.
<mgrwt>
<rscale>  0 0.12500000E+03</rscale>
<asrwt>0</asrwt>
<pdfrwt beam="1">  1       21 0.30165405E-01 0.12500000E+03</pdfrwt>
<pdfrwt beam="2">  1       21 0.30649554E-02 0.12500000E+03</pdfrwt>
<totfact> 0.63234018E+06</totfact>
</mgrwt>
</event>
<event>
 3    1  0.1604658E-001  0.1250000E+03  0.7546771E-02  0.1235069E+00
         21   -1    0    0  502  501  0.00000000000E+00  0.00000000000E+00  0.35431143691E+03  0.35431143691E+03  0.00000000000E+00 0. -1.
         21   -1    0    0  501  502 -0.00000000000E+00 -0.00000000000E+00 -0.11024905191E+02  0.11024905191E+02  0.00000000000E+00 0. -1.
         25    1    1    2    0    0  0.00000000000E+00  0.00000000000E+00  0.34328653172E+03  0.36533634210E+03  0.12500000000E+03 0.  0.
<mgrwt>
<rscale>  0 0.12500000E+03</rscale>
<asrwt>0</asrwt>
<pdfrwt beam="1">  1       21 0.54509443E-01 0.12500000E+03</pdfrwt>
<pdfrwt beam="2">  1       21 0.16961395E-02 0.12500000E+03</pdfrwt>
<totfact> 0.50425366E+06</totfact>
</mgrwt>
</event>
<event>
 3    1  0.1604658E-001  0.1250000E+03  0.7546771E-02  0.1235069E+00
         21   -1    0    0  502  501  0.00000000000E+00  0.00000000000E+00  0.28962706580E+02  0.28962706580E+02  0.00000000000E+00 0.  1.
         21   -1    0    0  501  502 -0.00000000000E+00 -0.00000000000E+00 -0.13487171819E+03  0.13487171819E+03  0.00000000000E+00 0.  1.
         25    1    1    2    0    0  0.00000000000E+00  0.00000000000E+00 -0.10590901161E+03  0.16383442477E+03  0.12500000000E+03 0.  0.
<mgrwt>
<rscale>  0 0.12500000E+03</rscale>
<asrwt>0</asrwt>
<pdfrwt beam="1">  1       21 0.44558010E-02 0.12500000E+03</pdfrwt>
<pdfrwt beam="2">  1       21 0.20749495E-01 0.12500000E+03</pdfrwt>
<totfact> 0.69053980E+06</totfact>
</mgrwt>
</event>
<event>
 3    1  0.1604658E-001  0.1250000E+03  0.7546771E-02  0.1235069E+00
         21   -1    0    0  502  501  0.00000000000E+00  0.00000000000E+00  0.12310940849E+03  0.12310940849E+03  0.00000000000E+00 0.  1.
         21   -1    0    0  501  502 -0.00000000000E+00 -0.00000000000E+00 -0.31729906333E+02  0.31729906333E+02  0.00000000000E+00 0.  1.
         25    1    1    2    0    0  0.00000000000E+00  0.00000000000E+00  0.91379502153E+02  0.15483931482E+03  0.12500000000E+03 0.  0.
<mgrwt>
<rscale>  0 0.12500000E+03</rscale>
<asrwt>0</asrwt>
<pdfrwt beam="1">  1       21 0.18939909E-01 0.12500000E+03</pdfrwt>
<pdfrwt beam="2">  1       21 0.48815241E-02 0.12500000E+03</pdfrwt>
<totfact> 0.70155636E+06</totfact>
</mgrwt>
</event>
<event>
 3    1  0.1604658E-001  0.1250000E+03  0.7546771E-02  0.1235069E+00
         21   -1    0    0  502  501  0.00000000000E+00  0.00000000000E+00  0.47495047350E+02  0.47495047350E+02  0.00000000000E+00 0. -1.
         21   -1    0    0  501  502 -0.00000000000E+00 -0.00000000000E+00 -0.82245417532E+02  0.82245417532E+02  0.00000000000E+00 0. -1.
         25    1    1    2    0    0  0.00000000000E+00  0.00000000000E+00 -0.34750370182E+02  0.12974046488E+03  0.12500000000E+03 0.  0.
<mgrwt>
<rscale>  0 0.12500000E+03</rscale>
<asrwt>0</asrwt>
<pdfrwt beam="1">  1       21 0.73069304E-02 0.12500000E+03</pdfrwt>
<pdfrwt beam="2">  1       21 0.12653141E-01 0.12500000E+03</pdfrwt>
<totfact> 0.73399622E+06</totfact>
</mgrwt>
</event>
<event>
 3    1  0.1604658E-001  0.1250000E+03  0.7546771E-02  0.1235069E+00
         21   -1    0    0  502  501  0.00000000000E+00  0.00000000000E+00  0.35976720409E+03  0.35976720409E+03  0.00000000000E+00 0. -1.
         21   -1    0    0  501  502 -0.00000000000E+00 -0.00000000000E+00 -0.10857715644E+02  0.10857715644E+02  0.00000000000E+00 0. -1.
         25    1    1    2    0    0  0.00000000000E+00  0.00000000000E+00  0.34890948845E+03  0.37062491973E+03  0.12500000000E+03 0.  0.
<mgrwt>
<rscale>  0 0.12500000E+03</rscale>
<asrwt>0</asrwt>
<pdfrwt beam="1">  1       21 0.55348792E-01 0.12500000E+03</pdfrwt>
<pdfrwt beam="2">  1       21 0.16704181E-02 0.12500000E+03</pdfrwt>
<totfact> 0.50050373E+06</totfact>
</mgrwt>
</event>
<event>
 3    1  0.1604658E-001  0.1250000E+03  0.7546771E-02  0.1235069E+00
         21   -1    0    0  502  501  0.00000000000E+00  0.00000000000E+00  0.50159453522E+02  0.50159453522E+02  0.00000000000E+00 0.  1.
         21   -1    0    0  501  502 -0.00000000000E+00 -0.00000000000E+00 -0.77876645891E+02  0.77876645891E+02  0.00000000000E+00 0.  1.
         25    1    1    2    0    0  0.00000000000E+00  0.00000000000E+00 -0.27717192369E+02  0.12803609941E+03  0.12500000000E+03 0.  0.
<mgrwt>
<rscale>  0 0.12500000E+03</rscale>
<asrwt>0</asrwt>
<pdfrwt beam="1">  1       21 0.77168390E-02 0.12500000E+03</pdfrwt>
<pdfrwt beam="2">  1       21 0.11981022E-01 0.12500000E+03</pdfrwt>
<totfact> 0.73628683E+06</totfact>
</mgrwt>
</event>
<event>
 3    1  0.1604658E-001  0.1250000E+03  0.7546771E-02  0.1235069E+00
         21   -1    0    0  502  501  0.00000000000E+00  0.00000000000E+00  0.27711492294E+02  0.27711492294E+02  0.00000000000E+00 0.  1.
         21   -1    0    0  501  502 -0.00000000000E+00 -0.00000000000E+00 -0.14096137294E+03  0.14096137294E+03  0.00000000000E+00 0.  1.
         25    1    1    2    0    0  0.00000000000E+00  0.00000000000E+00 -0.11324988065E+03  0.16867286524E+03  0.12500000000E+03 0.  0.
<mgrwt>
<rscale>  0 0.12500000E+03</rscale>
<asrwt>0</asrwt>
<pdfrwt beam="1">  1       21 0.42633065E-02 0.12500000E+03</pdfrwt>
<pdfrwt beam="2">  1       21 0.21686365E-01 0.12500000E+03</pdfrwt>
<totfact> 0.68474987E+06</totfact>
</mgrwt>
</event>
<event>
 3    1  0.1604658E-001  0.1250000E+03  0.7546771E-02  0.1235069E+00
         21   -1    0    0  502  501  0.00000000000E+00  0.00000000000E+00  0.42250244138E+03  0.42250244138E+03  0.00000000000E+00 0. -1.
         21   -1    0    0  501  502 -0.00000000000E+00 -0.00000000000E+00 -0.92455087058E+01  0.92455087058E+01  0.00000000000E+00 0. -1.
         25    1    1    2    0    0  0.00000000000E+00  0.00000000000E+00  0.41325693267E+03  0.43174795008E+03  0.12500000000E+03 0.  0.
<mgrwt>
<rscale>  0 0.12500000E+03</rscale>
<asrwt>0</asrwt>
<pdfrwt beam="1">  1       21 0.65000361E-01 0.12500000E+03</pdfrwt>
<pdfrwt beam="2">  1       21 0.14223863E-02 0.12500000E+03</pdfrwt>
<totfact> 0.46004453E+06</totfact>
</mgrwt>
</event>
<event>
 3    1  0.1604658E-001  0.1250000E+03  0.7546771E-02  0.1235069E+00
         21   -1    0    0  502  501  0.00000000000E+00  0.00000000000E+00  0.83901988891E+01  0.83901988891E+01  0.00000000000E+00 0.  1.
         21   -1    0    0  501  502 -0.00000000000E+00 -0.00000000000E+00 -0.46557299197E+03  0.46557299197E+03  0.00000000000E+00 0.  1.
         25    1    1    2    0    0  0.00000000000E+00  0.00000000000E+00 -0.45718279308E+03  0.47396319086E+03  0.12500000000E+03 0.  0.
<mgrwt>
<rscale>  0 0.12500000E+03</rscale>
<asrwt>0</asrwt>
<pdfrwt beam="1">  1       21 0.12908000E-02 0.12500000E+03</pdfrwt>
<pdfrwt beam="2">  1       21 0.71626603E-01 0.12500000E+03</pdfrwt>
<totfact> 0.43492244E+06</totfact>
</mgrwt>
</event>
<event>
 3    1  0.1604658E-001  0.1250000E+03  0.7546771E-02  0.1235069E+00
         21   -1    0    0  502  501  0.00000000000E+00  0.00000000000E+00  0.64006826585E+02  0.64006826585E+02  0.00000000000E+00 0. -1.
         21   -1    0    0  501  502 -0.00000000000E+00 -0.00000000000E+00 -0.61028646606E+02  0.61028646606E+02  0.00000000000E+00 0. -1.
         25    1    1    2    0    0  0.00000000000E+00  0.00000000000E+00  0.29781799792E+01  0.12503547319E+03  0.12500000000E+03 0.  0.
<mgrwt>
<rscale>  0 0.12500000E+03</rscale>
<asrwt>0</asrwt>
<pdfrwt beam="1">  1       21 0.98472041E-02 0.12500000E+03</pdfrwt>
<pdfrwt beam="2">  1       21 0.93890225E-02 0.12500000E+03</pdfrwt>
<totfact> 0.74038790E+06</totfact>
</mgrwt>
</event>
<event>
 3    1  0.1604658E-001  0.1250000E+03  0.7546771E-02  0.1235069E+00
         21   -1    0    0  502  501  0.00000000000E+00  0.00000000000E+00  0.66538723624E+02  0.66538723624E+02  0.00000000000E+00 0.  1.
         21   -1    0    0  501  502 -0.00000000000E+00 -0.00000000000E+00 -0.58706416163E+02  0.58706416163E+02  0.00000000000E+00 0.  1.
         25    1    1    2    0    0  0.00000000000E+00  0.00000000000E+00  0.78323074614E+01  0.12524513979E+03  0.12500000000E+03 0.  0.
<mgrwt>
<rscale>  0 0.12500000E+03</rscale>
<asrwt>0</asrwt>
<pdfrwt beam="1">  1       21 0.10236727E-01 0.12500000E+03</pdfrwt>
<pdfrwt beam="2">  1       21 0.90317563E-02 0.12500000E+03</pdfrwt>
<totfact> 0.74010478E+06</totfact>
</mgrwt>
</event>
<event>
 3    1  0.1604658E-001  0.1250000E+03  0.7546771E-02  0.1235069E+00
         21   -1    0    0  502  501  0.00000000000E+00  0.00000000000E+00  0.68782613400E+03  0.68782613400E+03  0.00000000000E+00 0.  1.
         21   -1    0    0  501  502 -0.00000000000E+00 -0.00000000000E+00 -0.56791241375E+01  0.56791241375E+01  0.00000000000E+00 0.  1.
         25    1    1    2    0    0  0.00000000000E+00  0.00000000000E+00  0.68214700986E+03  0.69350525814E+03  0.12500000000E+03 0.  0.
<mgrwt>
<rscale>  0 0.12500000E+03</rscale>
<asrwt>0</asrwt>
<pdfrwt beam="1">  1       21 0.10581934E+00 0.12500000E+03</pdfrwt>
<pdfrwt beam="2">  1       21 0.87371195E-03 0.12500000E+03</pdfrwt>
<totfact> 0.33162058E+06</totfact>
</mgrwt>
</event>
<event>
 3    1  0.1604658E-001  0.1250000E+03  0.7546771E-02  0.1235069E+00
         21   -1    0    0  502  501  0.00000000000E+00  0.00000000000E+00  0.36532284010E+01  0.36532284010E+01  0.00000000000E+00 0.  1.
         21   -1    0    0  501  502 -0.00000000000E+00 -0.00000000000E+00 -0.10692597262E+04  0.10692597262E+04  0.00000000000E+00 0.  1.
         25    1    1    2    0    0  0.00000000000E+00  0.00000000000E+00 -0.10656064978E+04  0.10729129546E+04  0.12500000000E+03 0.  0.
<mgrwt>
<rscale>  0 0.12500000E+03</rscale>
<asrwt>0</asrwt>
<pdfrwt beam="1">  1       21 0.56203535E-03 0.12500000E+03</pdfrwt>
<pdfrwt beam="2">  1       21 0.16450143E+00 0.12500000E+03</pdfrwt>
<totfact> 0.21864108E+06</totfact>
</mgrwt>
</event>
<event>
 3    1  0.1604658E-001  0.1250000E+03  0.7546771E-02  0.1235069E+00
         21   -1    0    0  502  501  0.00000000000E+00  0.00000000000E+00  0.88464570623E+02  0.88464570623E+02  0.00000000000E+00 0. -1.
         21   -1    0    0  501  502 -0.00000000000E+00 -0.00000000000E+00 -0.44156095175E+02  0.44156095175E+02  0.00000000000E+00 0. -1.
         25    1    1    2    0    0  0.00000000000E+00  0.00000000000E+00  0.44308475448E+02  0.13262066580E+03  0.12500000000E+03 0.  0.
<mgrwt>
<rscale>  0 0.12500000E+03</rscale>
<asrwt>0</asrwt>
<pdfrwt beam="1">  1       21 0.13609934E-01 0.12500000E+03</pdfrwt>
<pdfrwt beam="2">  1       21 0.67932454E-02 0.12500000E+03</pdfrwt>
<totfact> 0.73013094E+06</totfact>
</mgrwt>
</event>
<event>
 3    1  0.1604658E-001  0.1250000E+03  0.7546771E-02  0.1235069E+00
         21   -1    0    0  502  501  0.00000000000E+00  0.00000000000E+00  0.19636069796E+03  0.19636069796E+03  0.00000000000E+00 0.  1.
         21   -1    0    0  501  502 -0.00000000000E+00 -0.00000000000E+00 -0.19893237499E+02  0.19893237499E+02  0.00000000000E+00 0.  1.
         25    1    1    2    0    0  0.00000000000E+00  0.00000000000E+00  0.17646746046E+03  0.21625393546E+03  0.12500000000E+03 0.  0.
<mgrwt>
<rscale>  0 0.12500000E+03</rscale>
<asrwt>0</asrwt>
<pdfrwt beam="1">  1       21 0.30209337E-01 0.12500000E+03</pdfrwt>
<pdfrwt beam="2">  1       21 0.30604982E-02 0.12500000E+03</pdfrwt>
<totfact> 0.63207498E+06</totfact>
</mgrwt>
</event>
<event>
 3    1  0.1604658E-001  0.1250000E+03  0.7546771E-02  0.1235069E+00
         21   -1    0    0  502  501  0.00000000000E+00  0.00000000000E+00  0.13429409751E+03  0.13429409751E+03  0.00000000000E+00 0. -1.
         21   -1    0    0  501  502 -0.00000000000E+00 -0.00000000000E+00 -0.29087279877E+02  0.29087279877E+02  0.00000000000E+00 0. -1.
         25    1    1    2    0    0  0.00000000000E+00  0.00000000000E+00  0.10520681763E+03  0.16338137738E+03  0.12500000000E+03 0.  0.
<mgrwt>
<rscale>  0 0.12500000E+03</rscale>
<asrwt>0</asrwt>
<pdfrwt beam="1">  1       21 0.20660630E-01 0.12500000E+03</pdfrwt>
<pdfrwt beam="2">  1       21 0.44749662E-02 0.12500000E+03</pdfrwt>
<totfact> 0.69108671E+06</totfact>
</mgrwt>
</event>
<event>
 3    1  0.1604658E-001  0.1250000E+03  0.7546771E-02  0.1235069E+00
         21   -1    0    0  502  501  0.00000000000E+00  0.00000000000E+00  0.20762682351E+02  0.20762682351E+02  0.00000000000E+00 0. -1.
         21   -1    0    0  501  502 -0.00000000000E+00 -0.00000000000E+00 -0.18813802253E+03  0.18813802253E+03  0.00000000000E+00 0. -1.
         25    1    1    2    0    0  0.00000000000E+00  0.00000000000E+00 -0.16737534018E+03  0.20890070488E+03  0.12500000000E+03 0.  0.
<mgrwt>
<rscale>  0 0.12500000E+03</rscale>
<asrwt>0</asrwt>
<pdfrwt beam="1">  1       21 0.31942587E-02 0.12500000E+03</pdfrwt>
<pdfrwt beam="2">  1       21 0.28944312E-01 0.12500000E+03</pdfrwt>
<totfact> 0.63975379E+06</totfact>
</mgrwt>
</event>
<event>
 3    1  0.1604658E-001  0.1250000E+03  0.7546771E-02  0.1235069E+00
         21   -1    0    0  502  501  0.00000000000E+00  0.00000000000E+00  0.35196847536E+03  0.35196847536E+03  0.00000000000E+00 0. -1.
         21   -1    0    0  501  502 -0.00000000000E+00 -0.00000000000E+00 -0.11098295085E+02  0.11098295085E+02  0.00000000000E+00 0. -1.
         25    1    1    2    0    0  0.00000000000E+00  0.00000000000E+00  0.34087018028E+03  0.36306677044E+03  0.12500000000E+03 0.  0.
<mgrwt>
<rscale>  0 0.12500000E+03</rscale>
<asrwt>0</asrwt>
<pdfrwt beam="1">  1       21 0.54148988E-01 0.12500000E+03</pdfrwt>
<pdfrwt beam="2">  1       21 0.17074303E-02 0.12500000E+03</pdfrwt>
<totfact> 0.50587660E+06</totfact>
</mgrwt>
</event>
<event>
 3    1  0.1604658E-001  0.1250000E+03  0.7546771E-02  0.1235069E+00
         21   -1    0    0  502  501  0.00000000000E+00  0.00000000000E+00  0.11045222419E+03  0.11045222419E+03  0.00000000000E+00 0.  1.
         21   -1    0    0  501  502 -0.00000000000E+00 -0.00000000000E+00 -0.35365969572E+02  0.35365969572E+02  0.00000000000E+00 0.  1.
         25    1    1    2    0    0  0.00000000000E+00  0.00000000000E+00  0.75086254621E+02  0.14581819377E+03  0.12500000000E+03 0.  0.
<mgrwt>
<rscale>  0 0.12500000E+03</rscale>
<asrwt>0</asrwt>
<pdfrwt beam="1">  1       21 0.16992650E-01 0.12500000E+03</pdfrwt>
<pdfrwt beam="2">  1       21 0.54409185E-02 0.12500000E+03</pdfrwt>
<totfact> 0.71288554E+06</totfact>
</mgrwt>
</event>
<event>
 3    1  0.1604658E-001  0.1250000E+03  0.7546771E-02  0.1235069E+00
         21   -1    0    0  502  501  0.00000000000E+00  0.00000000000E+00  0.25072593862E+03  0.25072593862E+03  0.00000000000E+00 0. -1.
         21   -1    0    0  501  502 -0.00000000000E+00 -0.00000000000E+00 -0.15579760202E+02  0.15579760202E+02  0.00000000000E+00 0. -1.
         25    1    1    2    0    0  0.00000000000E+00  0.00000000000E+00  0.23514617841E+03  0.26630569882E+03  0.12500000000E+03 0.  0.
<mgrwt>
<rscale>  0 0.12500000E+03</rscale>
<asrwt>0</asrwt>
<pdfrwt beam="1">  1       21 0.38573219E-01 0.12500000E+03</pdfrwt>
<pdfrwt beam="2">  1       21 0.23968864E-02 0.12500000E+03</pdfrwt>
<totfact> 0.58376099E+06</totfact>
</mgrwt>
</event>
<event>
 3    1  0.1604658E-001  0.1250000E+03  0.7546771E-02  0.1235069E+00
         21   -1    0    0  502  501  0.00000000000E+00  0.00000000000E+00  0.46389710076E+01  0.46389710076E+01  0.00000000000E+00 0. -1.
         21   -1    0    0  501  502 -0.00000000000E+00 -0.00000000000E+00 -0.84205096208E+03  0.84205096208E+03  0.00000000000E+00 0. -1.
         25    1    1    2    0    0  0.00000000000E+00  0.00000000000E+00 -0.83741199107E+03  0.84668993309E+03  0.12500000000E+03 0.  0.
<mgrwt>
<rscale>  0 0.12500000E+03</rscale>
<asrwt>0</asrwt>
<pdfrwt beam="1">  1       21 0.71368806E-03 0.12500000E+03</pdfrwt>
<pdfrwt beam="2">  1       21 0.12954626E+00 0.12500000E+03</pdfrwt>
<totfact> 0.27873117E+06</totfact>
</mgrwt>
</event>
<event>
 3    1  0.1604658E-001  0.1250000E+03  0.7546771E-02  0.1235069E+00
         21   -1    0    0  502  501  0.00000000000E+00  0.00000000000E+00  0.18415036024E+02  0.18415036024E+02  0.00000000000E+00 0.  1.
         21   -1    0    0  501  502 -0.00000000000E+00 -0.00000000000E+00 -0.21212285411E+03  0.21212285411E+03  0.00000000000E+00 0.  1.
         25    1    1    2    0    0  0.00000000000E+00  0.00000000000E+00 -0.19370781808E+03  0.23053789013E+03  0.12500000000E+03 0.  0.
<mgrwt>
<rscale>  0 0.12500000E+03</rscale>
<asrwt>0</asrwt>
<pdfrwt beam="1">  1       21 0.28330826E-02 0.12500000E+03</pdfrwt>
<pdfrwt beam="2">  1       21 0.32634284E-01 0.12500000E+03</pdfrwt>
<totfact> 0.61760491E+06</totfact>
</mgrwt>
</event>
<event>
 3    1  0.1604658E-001  0.1250000E+03  0.7546771E-02  0.1235069E+00
         21   -1    0    0  502  501  0.00000000000E+00  0.00000000000E+00  0.26495406708E+02  0.26495406708E+02  0.00000000000E+00 0.  1.
         21   -1    0    0  501  502 -0.00000000000E+00 -0.00000000000E+00 -0.14743121489E+03  0.14743121489E+03  0.00000000000E+00 0.  1.
         25    1    1    2    0    0  0.00000000000E+00  0.00000000000E+00 -0.12093580818E+03  0.17392662160E+03  0.12500000000E+03 0.  0.
<mgrwt>
<rscale>  0 0.12500000E+03</rscale>
<asrwt>0</asrwt>
<pdfrwt beam="1">  1       21 0.40762163E-02 0.12500000E+03</pdfrwt>
<pdfrwt beam="2">  1       21 0.22681726E-01 0.12500000E+03</pdfrwt>
<totfact> 0.67855178E+06</totfact>
</mgrwt>
</event>
<event>
 3    1  0.1604658E-001  0.1250000E+03  0.7546771E-02  0.1235069E+00
         21   -1    0    0  502  501  0.00000000000E+00  0.00000000000E+00  0.11792855306E+04  0.11792855306E+04  0.00000000000E+00 0.  1.
         21   -1    0    0  501  502 -0.00000000000E+00 -0.00000000000E+00 -0.33123869485E+01  0.33123869485E+01  0.00000000000E+00 0.  1.
         25    1    1    2    0    0  0.00000000000E+00  0.00000000000E+00  0.11759731436E+04  0.11825979175E+04  0.12500000000E+03 0.  0.
<mgrwt>
<rscale>  0 0.12500000E+03</rscale>
<asrwt>0</asrwt>
<pdfrwt beam="1">  1       21 0.18142821E+00 0.12500000E+03</pdfrwt>
<pdfrwt beam="2">  1       21 0.50959893E-03 0.12500000E+03</pdfrwt>
<totfact> 0.19493700E+06</totfact>
</mgrwt>
</event>
<event>
 3    1  0.1604658E-001  0.1250000E+03  0.7546771E-02  0.1235069E+00
         21   -1    0    0  502  501  0.00000000000E+00  0.00000000000E+00  0.11332684629E+02  0.11332684629E+02  0.00000000000E+00 0.  1.
         21   -1    0    0  501  502 -0.00000000000E+00 -0.00000000000E+00 -0.34468884716E+03  0.34468884716E+03  0.00000000000E+00 0.  1.
         25    1    1    2    0    0  0.00000000000E+00  0.00000000000E+00 -0.33335616253E+03  0.35602153178E+03  0.12500000000E+03 0.  0.
<mgrwt>
<rscale>  0 0.12500000E+03</rscale>
<asrwt>0</asrwt>
<pdfrwt beam="1">  1       21 0.17434899E-02 0.12500000E+03</pdfrwt>
<pdfrwt beam="2">  1       21 0.53029053E-01 0.12500000E+03</pdfrwt>
<totfact> 0.51096777E+06</totfact>
</mgrwt>
</event>
<event>
 3    1  0.1604658E-001  0.1250000E+03  0.7546771E-02  0.1235069E+00
         21   -1    0    0  502  501  0.00000000000E+00  0.00000000000E+00  0.93361559530E+01  0.93361559530E+01  0.00000000000E+00 0. -1.
         21   -1    0    0  501  502 -0.00000000000E+00 -0.00000000000E+00 -0.41840025163E+03  0.41840025163E+03  0.00000000000E+00 0. -1.
         25    1    1    2    0    0  0.00000000000E+00  0.00000000000E+00 -0.40906409568E+03  0.42773640758E+03  0.12500000000E+03 0.  0.
<mgrwt>
<rscale>  0 0.12500000E+03</rscale>
<asrwt>0</asrwt>
<pdfrwt beam="1">  1       21 0.14363315E-02 0.12500000E+03</pdfrwt>
<pdfrwt beam="2">  1       21 0.64369278E-01 0.12500000E+03</pdfrwt>
<totfact> 0.46254437E+06</totfact>
</mgrwt>
</event>
<event>
 3    1  0.1604658E-001  0.1250000E+03  0.7546771E-02  0.1235069E+00
         21   -1    0    0  502  501  0.00000000000E+00  0.00000000000E+00  0.74112697254E+02  0.74112697254E+02  0.00000000000E+00 0. -1.
         21   -1    0    0  501  502 -0.00000000000E+00 -0.00000000000E+00 -0.52706892945E+02  0.52706892945E+02  0.00000000000E+00 0. -1.
         25    1    1    2    0    0  0.00000000000E+00  0.00000000000E+00  0.21405804310E+02  0.12681959020E+03  0.12500000000E+03 0.  0.
<mgrwt>
<rscale>  0 0.12500000E+03</rscale>
<asrwt>0</asrwt>
<pdfrwt beam="1">  1       21 0.11401953E-01 0.12500000E+03</pdfrwt>
<pdfrwt beam="2">  1       21 0.81087527E-02 0.12500000E+03</pdfrwt>
<totfact> 0.73793716E+06</totfact>
</mgrwt>
</event>
<event>
 3    1  0.1604658E-001  0.1250000E+03  0.7546771E-02  0.1235069E+00
         21   -1    0    0  502  501  0.00000000000E+00  0.00000000000E+00  0.16302826938E+02  0.16302826938E+02  0.00000000000E+00 0.  1.
         21   -1    0    0  501  502 -0.00000000000E+00 -0.00000000000E+00 -0.23960568403E+03  0.23960568403E+03  0.00000000000E+00 0.  1.
         25    1    1    2    0    0  0.00000000000E+00  0.00000000000E+00 -0.22330285709E+03  0.25590851096E+03  0.12500000000E+03 0.  0.
<mgrwt>
<rscale>  0 0.12500000E+03</rscale>
<asrwt>0</asrwt>
<pdfrwt beam="1">  1       21 0.25081274E-02 0.12500000E+03</pdfrwt>
<pdfrwt beam="2">  1       21 0.36862410E-01 0.12500000E+03</pdfrwt>
<totfact> 0.59326330E+06</totfact>
</mgrwt>
</event>
<event>
 3    1  0.1604658E-001  0.1250000E+03  0.7546771E-02  0.1235069E+00
         21   -1    0    0  502  501  0.00000000000E+00  0.00000000000E+00  0.21384749962E+03  0.21384749962E+03  0.00000000000E+00 0. -1.
         21   -1    0    0  501  502 -0.00000000000E+00 -0.00000000000E+00 -0.18266521736E+02  0.18266521736E+02  0.00000000000E+00 0. -1.
         25    1    1    2    0    0  0.00000000000E+00  0.00000000000E+00  0.19558097788E+03  0.23211402136E+03  0.12500000000E+03 0.  0.
<mgrwt>
<rscale>  0 0.12500000E+03</rscale>
<asrwt>0</asrwt>
<pdfrwt beam="1">  1       21 0.32899614E-01 0.12500000E+03</pdfrwt>
<pdfrwt beam="2">  1       21 0.28102343E-02 0.12500000E+03</pdfrwt>
<totfact> 0.61604225E+06</totfact>
</mgrwt>
</event>
<event>
 3    1  0.1604658E-001  0.1250000E+03  0.7546771E-02  0.1235069E+00
         21   -1    0    0  502  501  0.00000000000E+00  0.00000000000E+00  0.22477582871E+02  0.22477582871E+02  0.00000000000E+00 0. -1.
         21   -1    0    0  501  502 -0.00000000000E+00 -0.00000000000E+00 -0.17378425529E+03  0.17378425529E+03  0.00000000000E+00 0. -1.
         25    1    1    2    0    0  0.00000000000E+00  0.00000000000E+00 -0.15130667242E+03  0.19626183816E+03  0.12500000000E+03 0.  0.
<mgrwt>
<rscale>  0 0.12500000E+03</rscale>
<asrwt>0</asrwt>
<pdfrwt beam="1">  1       21 0.34580897E-02 0.12500000E+03</pdfrwt>
<pdfrwt beam="2">  1       21 0.26736039E-01 0.12500000E+03</pdfrwt>
<totfact> 0.65333183E+06</totfact>
</mgrwt>
</event>
<event>
 3    1  0.1604658E-001  0.1250000E+03  0.7546771E-02  0.1235069E+00
         21   -1    0    0  502  501  0.00000000000E+00  0.00000000000E+00  0.89188570312E+02  0.89188570312E+02  0.00000000000E+00 0. -1.
         21   -1    0    0  501  502 -0.00000000000E+00 -0.00000000000E+00 -0.43797652393E+02  0.43797652393E+02  0.00000000000E+00 0. -1.
         25    1    1    2    0    0  0.00000000000E+00  0.00000000000E+00  0.45390917919E+02  0.13298622271E+03  0.12500000000E+03 0.  0.
<mgrwt>
<rscale>  0 0.12500000E+03</rscale>
<asrwt>0</asrwt>
<pdfrwt beam="1">  1       21 0.13721318E-01 0.12500000E+03</pdfrwt>
<pdfrwt beam="2">  1       21 0.67381004E-02 0.12500000E+03</pdfrwt>
<totfact> 0.72964238E+06</totfact>
</mgrwt>
</event>
<event>
 3    1  0.1604658E-001  0.1250000E+03  0.7546771E-02  0.1235069E+00
         21   -1    0    0  502  501  0.00000000000E+00  0.00000000000E+00  0.71079383021E+02  0.71079383021E+02  0.00000000000E+00 0.  1.
         21   -1    0    0  501  502 -0.00000000000E+00 -0.00000000000E+00 -0.54956160759E+02  0.54956160759E+02  0.00000000000E+00 0.  1.
         25    1    1    2    0    0  0.00000000000E+00  0.00000000000E+00  0.16123222262E+02  0.12603554378E+03  0.12500000000E+03 0.  0.
<mgrwt>
<rscale>  0 0.12500000E+03</rscale>
<asrwt>0</asrwt>
<pdfrwt beam="1">  1       21 0.10935290E-01 0.12500000E+03</pdfrwt>
<pdfrwt beam="2">  1       21 0.84547940E-02 0.12500000E+03</pdfrwt>
<totfact> 0.73901139E+06</totfact>
</mgrwt>
</event>
<event>
 3    1  0.1604658E-001  0.1250000E+03  0.7546771E-02  0.1235069E+00
         21   -1    0    0  502  501  0.00000000000E+00  0.00000000000E+00  0.28852355911E+03  0.28852355911E+03  0.00000000000E+00 0.  1.
         21   -1    0    0  501  502 -0.00000000000E+00 -0.00000000000E+00 -0.13538755768E+02  0.13538755768E+02  0.00000000000E+00 0.  1.
         25    1    1    2    0    0  0.00000000000E+00  0.00000000000E+00  0.27498480334E+03  0.30206231487E+03  0.12500000000E+03 0.  0.
<mgrwt>
<rscale>  0 0.12500000E+03</rscale>
<asrwt>0</asrwt>
<pdfrwt beam="1">  1       21 0.44388235E-01 0.12500000E+03</pdfrwt>
<pdfrwt beam="2">  1       21 0.20828857E-02 0.12500000E+03</pdfrwt>
<totfact> 0.55285224E+06</totfact>
</mgrwt>
</event>
<event>
 3    1  0.1604658E-001  0.1250000E+03  0.7546771E-02  0.1235069E+00
         21   -1    0    0  502  501  0.00000000000E+00  0.00000000000E+00  0.97949012341E+01  0.97949012341E+01  0.00000000000E+00 0.  1.
         21   -1    0    0  501  502 -0.00000000000E+00 -0.00000000000E+00 -0.39880442963E+03  0.39880442963E+03  0.00000000000E+00 0.  1.
         25    1    1    2    0    0  0.00000000000E+00  0.00000000000E+00 -0.38900952840E+03  0.40859933087E+03  0.12500000000E+03 0.  0.
<mgrwt>
<rscale>  0 0.12500000E+03</rscale>
<asrwt>0</asrwt>
<pdfrwt beam="1">  1       21 0.15069084E-02 0.12500000E+03</pdfrwt>
<pdfrwt beam="2">  1       21 0.61354507E-01 0.12500000E+03</pdfrwt>
<totfact> 0.47476157E+06</totfact>
</mgrwt>
</event>
<event>
 3    1  0.1604658E-001  0.1250000E+03  0.7546771E-02  0.1235069E+00
         21   -1    0    0  502  501  0.00000000000E+00  0.00000000000E+00  0.29915281844E+02  0.29915281844E+02  0.00000000000E+00 0. -1.
         21   -1    0    0  501  502 -0.00000000000E+00 -0.00000000000E+00 -0.13057707497E+03  0.13057707497E+03  0.00000000000E+00 0. -1.
         25    1    1    2    0    0  0.00000000000E+00  0.00000000000E+00 -0.10066179312E+03  0.16049235681E+03  0.12500000000E+03 0.  0.
<mgrwt>
<rscale>  0 0.12500000E+03</rscale>
<asrwt>0</asrwt>
<pdfrwt beam="1">  1       21 0.46023510E-02 0.12500000E+03</pdfrwt>
<pdfrwt beam="2">  1       21 0.20088781E-01 0.12500000E+03</pdfrwt>
<totfact> 0.69459385E+06</totfact>
</mgrwt>
</event>
<event>
 3    1  0.1604658E-001  0.1250000E+03  0.7546771E-02  0.1235069E+00
         21   -1    0    0  502  501  0.00000000000E+00  0.00000000000E+00  0.57611401966E+02  0.57611401966E+02  0.00000000000E+00 0. -1.
         21   -1    0    0  501  502 -0.00000000000E+00 -0.00000000000E+00 -0.67803418537E+02  0.67803418537E+02  0.00000000000E+00 0. -1.
         25    1    1    2    0    0  0.00000000000E+00  0.00000000000E+00 -0.10192016571E+02  0.12541482050E+03  0.12500000000E+03 0.  0.
<mgrwt>
<rscale>  0 0.12500000E+03</rscale>
<asrwt>0</asrwt>
<pdfrwt beam="1">  1       21 0.88632926E-02 0.12500000E+03</pdfrwt>
<pdfrwt beam="2">  1       21 0.10431295E-01 0.12500000E+03</pdfrwt>
<totfact> 0.73987330E+06</totfact>
</mgrwt>
</event>
<event>
 3    1  0.1604658E-001  0.1250000E+03  0.7546771E-02  0.1235069E+00
         21   -1    0    0  502  501  0.00000000000E+00  0.00000000000E+00  0.39763577600E+01  0.39763577600E+01  0.00000000000E+00 0.  1.
         21   -1    0    0  501  502 -0.00000000000E+00 -0.00000000000E+00 -0.98236885003E+03  0.98236885003E+03  0.00000000000E+00 0.  1.
         25    1    1    2    0    0  0.00000000000E+00  0.00000000000E+00 -0.97839249227E+03  0.98634520779E+03  0.12500000000E+03 0.  0.
<mgrwt>
<rscale>  0 0.12500000E+03</rscale>
<asrwt>0</asrwt>
<pdfrwt beam="1">  1       21 0.61174569E-03 0.12500000E+03</pdfrwt>
<pdfrwt beam="2">  1       21 0.15113408E+00 0.12500000E+03</pdfrwt>
<totfact> 0.23962823E+06</totfact>
</mgrwt>
</event>
<event>
 3    1  0.1604658E-001  0.1250000E+03  0.7546771E-02  0.1235069E+00
         21   -1    0    0  502  501  0.00000000000E+00  0.00000000000E+00  0.47515674796E+01  0.47515674796E+01  0.00000000000E+00 0.  1.
         21   -1    0    0  501  502 -0.00000000000E+00 -0.00000000000E+00 -0.82209713253E+03  0.82209713253E+03  0.00000000000E+00 0.  1.
         25    1    1    2    0    0  0.00000000000E+00  0.00000000000E+00 -0.81734556505E+03  0.82684870001E+03  0.12500000000E+03 0.  0.
<mgrwt>
<rscale>  0 0.12500000E+03</rscale>
<asrwt>0</asrwt>
<pdfrwt beam="1">  1       21 0.73101007E-03 0.12500000E+03</pdfrwt>
<pdfrwt beam="2">  1       21 0.12647654E+00 0.12500000E+03</pdfrwt>
<totfact> 0.28492357E+06</totfact>
</mgrwt>
</event>
<event>
 3    1  0.1604658E-001  0.1250000E+03  0.7546771E-02  0.1235069E+00
         21   -1    0    0  502  501  0.00000000000E+00  0.00000000000E+00  0.17990126654E+02  0.17990126654E+02  0.00000000000E+00 0.  1.
         21   -1    0    0  501  502 -0.00000000000E+00 -0.00000000000E+00 -0.21713299050E+03  0.21713299050E+03  0.00000000000E+00 0.  1.
         25    1    1    2    0    0  0.00000000000E+00  0.00000000000E+00 -0.19914286385E+03  0.23512311716E+03  0.12500000000E+03 0.  0.
<mgrwt>
<rscale>  0 0.12500000E+03</rscale>
<asrwt>0</asrwt>
<pdfrwt beam="1">  1       21 0.27677118E-02 0.12500000E+03</pdfrwt>
<pdfrwt beam="2">  1       21 0.33405075E-01 0.12500000E+03</pdfrwt>
<totfact> 0.61307805E+06</totfact>
</mgrwt>
</event>
<event>
 3    1  0.1604658E-001  0.1250000E+03  0.7546771E-02  0.1235069E+00
         21   -1    0    0  502  501  0.00000000000E+00  0.00000000000E+00  0.11622698999E+02  0.11622698999E+02  0.00000000000E+00 0. -1.
         21   -1    0    0  501  502 -0.00000000000E+00 -0.00000000000E+00 -0.33608802916E+03  0.33608802916E+03  0.00000000000E+00 0. -1.
         25    1    1    2    0    0  0.00000000000E+00  0.00000000000E+00 -0.32446533016E+03  0.34771072816E+03  0.12500000000E+03 0.  0.
<mgrwt>
<rscale>  0 0.12500000E+03</rscale>
<asrwt>0</asrwt>
<pdfrwt beam="1">  1       21 0.17881075E-02 0.12500000E+03</pdfrwt>
<pdfrwt beam="2">  1       21 0.51705851E-01 0.12500000E+03</pdfrwt>
<totfact> 0.51707946E+06</totfact>
</mgrwt>
</event>
<event>
 3    1  0.1604658E-001  0.1250000E+03  0.7546771E-02  0.1235069E+00
         21   -1    0    0  502  501  0.00000000000E+00  0.00000000000E+00  0.42731400755E+03  0.42731400755E+03  0.00000000000E+00 0. -1.
         21   -1    0    0  501  502 -0.00000000000E+00 -0.00000000000E+00 -0.91414040518E+01  0.91414040518E+01  0.00000000000E+00 0. -1.
         25    1    1    2    0    0  0.00000000000E+00  0.00000000000E+00  0.41817260350E+03  0.43645541160E+03  0.12500000000E+03 0.  0.
<mgrwt>
<rscale>  0 0.12500000E+03</rscale>
<asrwt>0</asrwt>
<pdfrwt beam="1">  1       21 0.65740601E-01 0.12500000E+03</pdfrwt>
<pdfrwt beam="2">  1       21 0.14063702E-02 0.12500000E+03</pdfrwt>
<totfact> 0.45713710E+06</totfact>
</mgrwt>
</event>
<event>
 3    1  0.1604658E-001  0.1250000E+03  0.7546771E-02  0.1235069E+00
         21   -1    0    0  502  501  0.00000000000E+00  0.00000000000E+00  0.26520511201E+02  0.26520511201E+02  0.00000000000E+00 0. -1.
         21   -1    0    0  501  502 -0.00000000000E+00 -0.00000000000E+00 -0.14729165552E+03  0.14729165552E+03  0.00000000000E+00 0. -1.
         25    1    1    2    0    0  0.00000000000E+00  0.00000000000E+00 -0.12077114432E+03  0.17381216672E+03  0.12500000000E+03 0.  0.
<mgrwt>
<rscale>  0 0.12500000E+03</rscale>
<asrwt>0</asrwt>
<pdfrwt beam="1">  1       21 0.40800787E-02 0.12500000E+03</pdfrwt>
<pdfrwt beam="2">  1       21 0.22660255E-01 0.12500000E+03</pdfrwt>
<totfact> 0.67868573E+06</totfact>
</mgrwt>
</event>
<event>
 3    1  0.1604658E-001  0.1250000E+03  0.7546771E-02  0.1235069E+00
         21   -1    0    0  502  501  0.00000000000E+00  0.00000000000E+00  0.34318186909E+02  0.34318186909E+02  0.00000000000E+00 0. -1.
         21   -1    0    0  501  502 -0.00000000000E+00 -0.00000000000E+00 -0.11382448643E+03  0.11382448643E+03  0.00000000000E+00 0. -1.
         25    1    1    2    0    0  0.00000000000E+00  0.00000000000E+00 -0.79506299517E+02  0.14814267334E+03  0.12500000000E+03 0.  0.
<mgrwt>
<rscale>  0 0.12500000E+03</rscale>
<asrwt>0</asrwt>
<pdfrwt beam="1">  1       21 0.52797210E-02 0.12500000E+03</pdfrwt>
<pdfrwt beam="2">  1       21 0.17511460E-01 0.12500000E+03</pdfrwt>
<totfact> 0.70993301E+06</totfact>
</mgrwt>
</event>
<event>
 3    1  0.1604658E-001  0.1250000E+03  0.7546771E-02  0.1235069E+00
         21   -1    0    0  502  501  0.00000000000E+00  0.00000000000E+00  0.21142826358E+02  0.21142826358E+02  0.00000000000E+00 0.  1.
         21   -1    0    0  501  502 -0.00000000000E+00 -0.00000000000E+00 -0.18475533658E+03  0.18475533658E+03  0.00000000000E+00 0.  1.
         25    1    1    2    0    0  0.00000000000E+00  0.00000000000E+00 -0.16361251022E+03  0.20589816293E+03  0.12500000000E+03 0.  0.
<mgrwt>
<rscale>  0 0.12500000E+03</rscale>
<asrwt>0</asrwt>
<pdfrwt beam="1">  1       21 0.32527426E-02 0.12500000E+03</pdfrwt>
<pdfrwt beam="2">  1       21 0.28423898E-01 0.12500000E+03</pdfrwt>
<totfact> 0.64293696E+06</totfact>
</mgrwt>
</event>
<event>
 3    1  0.1604658E-001  0.1250000E+03  0.7546771E-02  0.1235069E+00
         21   -1    0    0  502  501  0.00000000000E+00  0.00000000000E+00  0.45518234384E+01  0.45518234384E+01  0.00000000000E+00 0.  1.
         21   -1    0    0  501  502 -0.00000000000E+00 -0.00000000000E+00 -0.85817256598E+03  0.85817256598E+03  0.00000000000E+00 0.  1.
         25    1    1    2    0    0  0.00000000000E+00  0.00000000000E+00 -0.85362074254E+03  0.86272438942E+03  0.12500000000E+03 0.  0.
<mgrwt>
<rscale>  0 0.12500000E+03</rscale>
<asrwt>0</asrwt>
<pdfrwt beam="1">  1       21 0.70028034E-03 0.12500000E+03</pdfrwt>
<pdfrwt beam="2">  1       21 0.13202658E+00 0.12500000E+03</pdfrwt>
<totfact> 0.27386904E+06</totfact>
</mgrwt>
</event>
<event>
 3    1  0.1604658E-001  0.1250000E+03  0.7546771E-02  0.1235069E+00
         21   -1    0    0  502  501  0.00000000000E+00  0.00000000000E+00  0.32635314127E+02  0.32635314127E+02  0.00000000000E+00 0. -1.
         21   -1    0    0  501  502 -0.00000000000E+00 -0.00000000000E+00 -0.11969396050E+03  0.11969396050E+03  0.00000000000E+00 0. -1.
         25    1    1    2    0    0  0.00000000000E+00  0.00000000000E+00 -0.87058646372E+02  0.15232927463E+03  0.12500000000E+03 0.  0.
<mgrwt>
<rscale>  0 0.12500000E+03</rscale>
<asrwt>0</asrwt>
<pdfrwt beam="1">  1       21 0.50208176E-02 0.12500000E+03</pdfrwt>
<pdfrwt beam="2">  1       21 0.18414455E-01 0.12500000E+03</pdfrwt>
<totfact> 0.70467814E+06</totfact>
</mgrwt>
</event>
<event>
 3    1  0.1604658E-001  0.1250000E+03  0.7546771E-02  0.1235069E+00
         21   -1    0    0  502  501  0.00000000000E+00  0.00000000000E+00  0.73293140421E+01  0.73293140421E+01  0.00000000000E+00 0. -1.
         21   -1    0    0  501  502 -0.00000000000E+00 -0.00000000000E+00 -0.53296256342E+03  0.53296256342E+03  0.00000000000E+00 0. -1.
         25    1    1    2    0    0  0.00000000000E+00  0.00000000000E+00 -0.52563324938E+03  0.54029187746E+03  0.12500000000E+03 0.  0.
<mgrwt>
<rscale>  0 0.12500000E+03</rscale>
<asrwt>0</asrwt>
<pdfrwt beam="1">  1       21 0.11275869E-02 0.12500000E+03</pdfrwt>
<pdfrwt beam="2">  1       21 0.81994235E-01 0.12500000E+03</pdfrwt>
<totfact> 0.39939991E+06</totfact>
</mgrwt>
</event>
<event>
 3    1  0.1604658E-001  0.1250000E+03  0.7546771E-02  0.1235069E+00
         21   -1    0    0  502  501  0.00000000000E+00  0.00000000000E+00  0.51110771221E+02  0.51110771221E+02  0.00000000000E+00 0. -1.
         21   -1    0    0  501  502 -0.00000000000E+00 -0.00000000000E+00 -0.76427138677E+02  0.76427138677E+02  0.00000000000E+00 0. -1.
         25    1    1    2    0    0  0.00000000000E+00  0.00000000000E+00 -0.25316367455E+02  0.12753790990E+03  0.12500000000E+03 0.  0.
<mgrwt>
<rscale>  0 0.12500000E+03</rscale>
<asrwt>0</asrwt>
<pdfrwt beam="1">  1       21 0.78631956E-02 0.12500000E+03</pdfrwt>
<pdfrwt beam="2">  1       21 0.11758021E-01 0.12500000E+03</pdfrwt>
<totfact> 0.73696080E+06</totfact>
</mgrwt>
</event>
<event>
 3    1  0.1604658E-001  0.1250000E+03  0.7546771E-02  0.1235069E+00
         21   -1    0    0  502  501  0.00000000000E+00  0.00000000000E+00  0.19592153347E+02  0.19592153347E+02  0.00000000000E+00 0. -1.
         21   -1    0    0  501  502 -0.00000000000E+00 -0.00000000000E+00 -0.19937828838E+03  0.19937828838E+03  0.00000000000E+00 0. -1.
         25    1    1    2    0    0  0.00000000000E+00  0.00000000000E+00 -0.17978613503E+03  0.21897044172E+03  0.12500000000E+03 0.  0.
<mgrwt>
<rscale>  0 0.12500000E+03</rscale>
<asrwt>0</asrwt>
<pdfrwt beam="1">  1       21 0.30141773E-02 0.12500000E+03</pdfrwt>
<pdfrwt beam="2">  1       21 0.30673584E-01 0.12500000E+03</pdfrwt>
<totfact> 0.62927924E+06</totfact>
</mgrwt>
</event>
<event>
 3    1  0.1604658E-001  0.1250000E+03  0.7546771E-02  0.1235069E+00
         21   -1    0    0  502  501  0.00000000000E+00  0.00000000000E+00  0.12026195176E+03  0.12026195176E+03  0.00000000000E+00 0.  1.
         21   -1    0    0  501  502 -0.00000000000E+00 -0.00000000000E+00 -0.32481179150E+02  0.32481179150E+02  0.00000000000E+00 0.  1.
         25    1    1    2    0    0  0.00000000000E+00  0.00000000000E+00  0.87780772607E+02  0.15274313091E+03  0.12500000000E+03 0.  0.
<mgrwt>
<rscale>  0 0.12500000E+03</rscale>
<asrwt>0</asrwt>
<pdfrwt beam="1">  1       21 0.18501839E-01 0.12500000E+03</pdfrwt>
<pdfrwt beam="2">  1       21 0.49971045E-02 0.12500000E+03</pdfrwt>
<totfact> 0.70416291E+06</totfact>
</mgrwt>
</event>
<event>
 3    1  0.1604658E-001  0.1250000E+03  0.7546771E-02  0.1235069E+00
         21   -1    0    0  502  501  0.00000000000E+00  0.00000000000E+00  0.17109381383E+03  0.17109381383E+03  0.00000000000E+00 0.  1.
         21   -1    0    0  501  502 -0.00000000000E+00 -0.00000000000E+00 -0.22831041711E+02  0.22831041711E+02  0.00000000000E+00 0.  1.
         25    1    1    2    0    0  0.00000000000E+00  0.00000000000E+00  0.14826277212E+03  0.19392485554E+03  0.12500000000E+03 0.  0.
<mgrwt>
<rscale>  0 0.12500000E+03</rscale>
<asrwt>0</asrwt>
<pdfrwt beam="1">  1       21 0.26322124E-01 0.12500000E+03</pdfrwt>
<pdfrwt beam="2">  1       21 0.35124681E-02 0.12500000E+03</pdfrwt>
<totfact> 0.65588886E+06</totfact>
</mgrwt>
</event>
<event>
 3    1  0.1604658E-001  0.1250000E+03  0.7546771E-02  0.1235069E+00
         21   -1    0    0  502  501  0.00000000000E+00  0.00000000000E+00  0.12016058853E+02  0.12016058853E+02  0.00000000000E+00 0.  1.
         21   -1    0    0  501  502 -0.00000000000E+00 -0.00000000000E+00 -0.32508579125E+03  0.32508579125E+03  0.00000000000E+00 0.  1.
         25    1    1    2    0    0  0.00000000000E+00  0.00000000000E+00 -0.31306973240E+03  0.33710185010E+03  0.12500000000E+03 0.  0.
<mgrwt>
<rscale>  0 0.12500000E+03</rscale>
<asrwt>0</asrwt>
<pdfrwt beam="1">  1       21 0.18486243E-02 0.12500000E+03</pdfrwt>
<pdfrwt beam="2">  1       21 0.50013203E-01 0.12500000E+03</pdfrwt>
<totfact> 0.52505334E+06</totfact>
</mgrwt>
</event>
<event>
 3    1  0.1604658E-001  0.1250000E+03  0.7546771E-02  0.1235069E+00
         21   -1    0    0  502  501  0.00000000000E+00  0.00000000000E+00  0.12502363492E+02  0.12502363492E+02  0.00000000000E+00 0.  1.
         21   -1    0    0  501  502 -0.00000000000E+00 -0.00000000000E+00 -0.31244092386E+03  0.31244092386E+03  0.00000000000E+00 0.  1.
         25    1    1    2    0    0  0.00000000000E+00  0.00000000000E+00 -0.29993856037E+03  0.32494328736E+03  0.12500000000E+03 0.  0.
<mgrwt>
<rscale>  0 0.12500000E+03</rscale>
<asrwt>0</asrwt>
<pdfrwt beam="1">  1       21 0.19234404E-02 0.12500000E+03</pdfrwt>
<pdfrwt beam="2">  1       21 0.48067838E-01 0.12500000E+03</pdfrwt>
<totfact> 0.53443921E+06</totfact>
</mgrwt>
</event>
<event>
 3    1  0.1604658E-001  0.1250000E+03  0.7546771E-02  0.1235069E+00
         21   -1    0    0  502  501  0.00000000000E+00  0.00000000000E+00  0.35576902666E+02  0.35576902666E+02  0.00000000000E+00 0. -1.
         21   -1    0    0  501  502 -0.00000000000E+00 -0.00000000000E+00 -0.10979736029E+03  0.10979736029E+03  0.00000000000E+00 0. -1.
         25    1    1    2    0    0  0.00000000000E+00  0.00000000000E+00 -0.74220457622E+02  0.14537426295E+03  0.12500000000E+03 0.  0.
<mgrwt>
<rscale>  0 0.12500000E+03</rscale>
<asrwt>0</asrwt>
<pdfrwt beam="1">  1       21 0.54733698E-02 0.12500000E+03</pdfrwt>
<pdfrwt beam="2">  1       21 0.16891901E-01 0.12500000E+03</pdfrwt>
<totfact> 0.71345237E+06</totfact>
</mgrwt>
</event>
<event>
 3    1  0.1604658E-001  0.1250000E+03  0.7546771E-02  0.1235069E+00
         21   -1    0    0  502  501  0.00000000000E+00  0.00000000000E+00  0.40456638204E+02  0.40456638204E+02  0.00000000000E+00 0.  1.
         21   -1    0    0  501  502 -0.00000000000E+00 -0.00000000000E+00 -0.96553993941E+02  0.96553993941E+02  0.00000000000E+00 0.  1.
         25    1    1    2    0    0  0.00000000000E+00  0.00000000000E+00 -0.56097355737E+02  0.13701063214E+03  0.12500000000E+03 0.  0.
<mgrwt>
<rscale>  0 0.12500000E+03</rscale>
<asrwt>0</asrwt>
<pdfrwt beam="1">  1       21 0.62240982E-02 0.12500000E+03</pdfrwt>
<pdfrwt beam="2">  1       21 0.14854460E-01 0.12500000E+03</pdfrwt>
<totfact> 0.72431330E+06</totfact>
</mgrwt>
</event>
<event>
 3    1  0.1604658E-001  0.1250000E+03  0.7546771E-02  0.1235069E+00
         21   -1    0    0  502  501  0.00000000000E+00  0.00000000000E+00  0.57048444345E+02  0.57048444345E+02  0.00000000000E+00 0.  1.
         21   -1    0    0  501  502 -0.00000000000E+00 -0.00000000000E+00 -0.68472506916E+02  0.68472506916E+02  0.00000000000E+00 0.  1.
         25    1    1    2    0    0  0.00000000000E+00  0.00000000000E+00 -0.11424062571E+02  0.12552095126E+03  0.12500000000E+03 0.  0.
<mgrwt>
<rscale>  0 0.12500000E+03</rscale>
<asrwt>0</asrwt>
<pdfrwt beam="1">  1       21 0.87766838E-02 0.12500000E+03</pdfrwt>
<pdfrwt beam="2">  1       21 0.10534232E-01 0.12500000E+03</pdfrwt>
<totfact> 0.73972468E+06</totfact>
</mgrwt>
</event>
<event>
 3    1  0.1604658E-001  0.1250000E+03  0.7546771E-02  0.1235069E+00
         21   -1    0    0  502  501  0.00000000000E+00  0.00000000000E+00  0.55078774308E+02  0.55078774308E+02  0.00000000000E+00 0. -1.
         21   -1    0    0  501  502 -0.00000000000E+00 -0.00000000000E+00 -0.70921149737E+02  0.70921149737E+02  0.00000000000E+00 0. -1.
         25    1    1    2    0    0  0.00000000000E+00  0.00000000000E+00 -0.15842375429E+02  0.12599992404E+03  0.12500000000E+03 0.  0.
<mgrwt>
<rscale>  0 0.12500000E+03</rscale>
<asrwt>0</asrwt>
<pdfrwt beam="1">  1       21 0.84736576E-02 0.12500000E+03</pdfrwt>
<pdfrwt beam="2">  1       21 0.10910946E-01 0.12500000E+03</pdfrwt>
<totfact> 0.73906049E+06</totfact>
</mgrwt>
</event>
<event>
 3    1  0.1604658E-001  0.1250000E+03  0.7546771E-02  0.1235069E+00
         21   -1    0    0  502  501  0.00000000000E+00  0.00000000000E+00  0.73610076115E+02  0.73610076115E+02  0.00000000000E+00 0. -1.
         21   -1    0    0  501  502 -0.00000000000E+00 -0.00000000000E+00 -0.53066783872E+02  0.53066783872E+02  0.00000000000E+00 0. -1.
         25    1    1    2    0    0  0.00000000000E+00  0.00000000000E+00  0.20543292244E+02  0.12667685999E+03  0.12500000000E+03 0.  0.
<mgrwt>
<rscale>  0 0.12500000E+03</rscale>
<asrwt>0</asrwt>
<pdfrwt beam="1">  1       21 0.11324627E-01 0.12500000E+03</pdfrwt>
<pdfrwt beam="2">  1       21 0.81641206E-02 0.12500000E+03</pdfrwt>
<totfact> 0.73813195E+06</totfact>
</mgrwt>
</event>
<event>
 3    1  0.1604658E-001  0.1250000E+03  0.7546771E-02  0.1235069E+00
         21   -1    0    0  502  501  0.00000000000E+00  0.00000000000E+00  0.43830026080E+03  0.43830026080E+03  0.00000000000E+00 0. -1.
         21   -1    0    0  501  502 -0.00000000000E+00 -0.00000000000E+00 -0.89122693946E+01  0.89122693946E+01  0.00000000000E+00 0. -1.
         25    1    1    2    0    0  0.00000000000E+00  0.00000000000E+00  0.42938799141E+03  0.44721253020E+03  0.12500000000E+03 0.  0.
<mgrwt>
<rscale>  0 0.12500000E+03</rscale>
<asrwt>0</asrwt>
<pdfrwt beam="1">  1       21 0.67430792E-01 0.12500000E+03</pdfrwt>
<pdfrwt beam="2">  1       21 0.13711187E-02 0.12500000E+03</pdfrwt>
<totfact> 0.45059542E+06</totfact>
</mgrwt>
</event>
<event>
 3    1  0.1604658E-001  0.1250000E+03  0.7546771E-02  0.1235069E+00
         21   -1    0    0  502  501  0.00000000000E+00  0.00000000000E+00  0.97505080559E+02  0.97505080559E+02  0.00000000000E+00 0. -1.
         21   -1    0    0  501  502 -0.00000000000E+00 -0.00000000000E+00 -0.40062015001E+02  0.40062015001E+02  0.00000000000E+00 0. -1.
         25    1    1    2    0    0  0.00000000000E+00  0.00000000000E+00  0.57443065558E+02  0.13756709556E+03  0.12500000000E+03 0.  0.
<mgrwt>
<rscale>  0 0.12500000E+03</rscale>
<asrwt>0</asrwt>
<pdfrwt beam="1">  1       21 0.15000782E-01 0.12500000E+03</pdfrwt>
<pdfrwt beam="2">  1       21 0.61633869E-02 0.12500000E+03</pdfrwt>
<totfact> 0.72358322E+06</totfact>
</mgrwt>
</event>
<event>
 3    1  0.1604658E-001  0.1250000E+03  0.7546771E-02  0.1235069E+00
         21   -1    0    0  502  501  0.00000000000E+00  0.00000000000E+00  0.76645356899E+02  0.76645356899E+02  0.00000000000E+00 0. -1.
         21   -1    0    0  501  502 -0.00000000000E+00 -0.00000000000E+00 -0.50965252926E+02  0.50965252926E+02  0.00000000000E+00 0. -1.
         25    1    1    2    0    0  0.00000000000E+00  0.00000000000E+00  0.25680103973E+02  0.12761060983E+03  0.12500000000E+03 0.  0.
<mgrwt>
<rscale>  0 0.12500000E+03</rscale>
<asrwt>0</asrwt>
<pdfrwt beam="1">  1       21 0.11791593E-01 0.12500000E+03</pdfrwt>
<pdfrwt beam="2">  1       21 0.78408081E-02 0.12500000E+03</pdfrwt>
<totfact> 0.73686230E+06</totfact>
</mgrwt>
</event>
<event>
 3    1  0.1604658E-001  0.1250000E+03  0.7546771E-02  0.1235069E+00
         21   -1    0    0  502  501  0.00000000000E+00  0.00000000000E+00  0.66193879041E+02  0.66193879041E+02  0.00000000000E+00 0.  1.
         21   -1    0    0  501  502 -0.00000000000E+00 -0.00000000000E+00 -0.59012253952E+02  0.59012253952E+02  0.00000000000E+00 0.  1.
         25    1    1    2    0    0  0.00000000000E+00  0.00000000000E+00  0.71816250893E+01  0.12520613299E+03  0.12500000000E+03 0.  0.
<mgrwt>
<rscale>  0 0.12500000E+03</rscale>
<asrwt>0</asrwt>
<pdfrwt beam="1">  1       21 0.10183674E-01 0.12500000E+03</pdfrwt>
<pdfrwt beam="2">  1       21 0.90788083E-02 0.12500000E+03</pdfrwt>
<totfact> 0.74015744E+06</totfact>
</mgrwt>
</event>
<event>
 3    1  0.1604658E-001  0.1250000E+03  0.7546771E-02  0.1235069E+00
         21   -1    0    0  502  501  0.00000000000E+00  0.00000000000E+00  0.12535002178E+03  0.12535002178E+03  0.00000000000E+00 0.  1.
         21   -1    0    0  501  502 -0.00000000000E+00 -0.00000000000E+00 -0.31162738902E+02  0.31162738902E+02  0.00000000000E+00 0.  1.
         25    1    1    2    0    0  0.00000000000E+00  0.00000000000E+00  0.94187282875E+02  0.15651276068E+03  0.12500000000E+03 0.  0.
<mgrwt>
<rscale>  0 0.12500000E+03</rscale>
<asrwt>0</asrwt>
<pdfrwt beam="1">  1       21 0.19284618E-01 0.12500000E+03</pdfrwt>
<pdfrwt beam="2">  1       21 0.47942676E-02 0.12500000E+03</pdfrwt>
<totfact> 0.69948129E+06</totfact>
</mgrwt>
</event>
<event>
 3    1  0.1604658E-001  0.1250000E+03  0.7546771E-02  0.1235069E+00
         21   -1    0    0  502  501  0.00000000000E+00  0.00000000000E+00  0.10088638343E+03  0.10088638343E+03  0.00000000000E+00 0.  1.
         21   -1    0    0  501  502 -0.00000000000E+00 -0.00000000000E+00 -0.38719298554E+02  0.38719298554E+02  0.00000000000E+00 0.  1.
         25    1    1    2    0    0  0.00000000000E+00  0.00000000000E+00  0.62167084874E+02  0.13960568198E+03  0.12500000000E+03 0.  0.
<mgrwt>
<rscale>  0 0.12500000E+03</rscale>
<asrwt>0</asrwt>
<pdfrwt beam="1">  1       21 0.15520982E-01 0.12500000E+03</pdfrwt>
<pdfrwt beam="2">  1       21 0.59568152E-02 0.12500000E+03</pdfrwt>
<totfact> 0.72090827E+06</totfact>
</mgrwt>
</event>
<event>
 3    1  0.1604658E-001  0.1250000E+03  0.7546771E-02  0.1235069E+00
         21   -1    0    0  502  501  0.00000000000E+00  0.00000000000E+00  0.50736105784E+02  0.50736105784E+02  0.00000000000E+00 0. -1.
         21   -1    0    0  501  502 -0.00000000000E+00 -0.00000000000E+00 -0.76991521908E+02  0.76991521908E+02  0.00000000000E+00 0. -1.
         25    1    1    2    0    0  0.00000000000E+00  0.00000000000E+00 -0.26255416124E+02  0.12772762769E+03  0.12500000000E+03 0.  0.
<mgrwt>
<rscale>  0 0.12500000E+03</rscale>
<asrwt>0</asrwt>
<pdfrwt beam="1">  1       21 0.78055548E-02 0.12500000E+03</pdfrwt>
<pdfrwt beam="2">  1       21 0.11844849E-01 0.12500000E+03</pdfrwt>
<totfact> 0.73670386E+06</totfact>
</mgrwt>
</event>
<event>
 3    1  0.1604658E-001  0.1250000E+03  0.7546771E-02  0.1235069E+00
         21   -1    0    0  502  501  0.00000000000E+00  0.00000000000E+00  0.38894944469E+02  0.38894944469E+02  0.00000000000E+00 0.  1.
         21   -1    0    0  501  502 -0.00000000000E+00 -0.00000000000E+00 -0.10043079000E+03  0.10043079000E+03  0.00000000000E+00 0.  1.
         25    1    1    2    0    0  0.00000000000E+00  0.00000000000E+00 -0.61535845531E+02  0.13932573447E+03  0.12500000000E+03 0.  0.
<mgrwt>
<rscale>  0 0.12500000E+03</rscale>
<asrwt>0</asrwt>
<pdfrwt beam="1">  1       21 0.59838376E-02 0.12500000E+03</pdfrwt>
<pdfrwt beam="2">  1       21 0.15450891E-01 0.12500000E+03</pdfrwt>
<totfact> 0.72127455E+06</totfact>
</mgrwt>
</event>
<event>
 3    1  0.1604658E-001  0.1250000E+03  0.7546771E-02  0.1235069E+00
         21   -1    0    0  502  501  0.00000000000E+00  0.00000000000E+00  0.79196843827E+02  0.79196843827E+02  0.00000000000E+00 0. -1.
         21   -1    0    0  501  502 -0.00000000000E+00 -0.00000000000E+00 -0.49323303950E+02  0.49323303950E+02  0.00000000000E+00 0. -1.
         25    1    1    2    0    0  0.00000000000E+00  0.00000000000E+00  0.29873539877E+02  0.12852014778E+03  0.12500000000E+03 0.  0.
<mgrwt>
<rscale>  0 0.12500000E+03</rscale>
<asrwt>0</asrwt>
<pdfrwt beam="1">  1       21 0.12184130E-01 0.12500000E+03</pdfrwt>
<pdfrwt beam="2">  1       21 0.75882006E-02 0.12500000E+03</pdfrwt>
<totfact> 0.73563409E+06</totfact>
</mgrwt>
</event>
<event>
 3    1  0.1604658E-001  0.1250000E+03  0.7546771E-02  0.1235069E+00
         21   -1    0    0  502  501  0.00000000000E+00  0.00000000000E+00  0.97049111671E+02  0.97049111671E+02  0.00000000000E+00 0. -1.
         21   -1    0    0  501  502 -0.00000000000E+00 -0.00000000000E+00 -0.40250239624E+02  0.40250239624E+02  0.00000000000E+00 0. -1.
         25    1    1    2    0    0  0.00000000000E+00  0.00000000000E+00  0.56798872047E+02  0.13729935129E+03  0.12500000000E+03 0.  0.
<mgrwt>
<rscale>  0 0.12500000E+03</rscale>
<asrwt>0</asrwt>
<pdfrwt beam="1">  1       21 0.14930633E-01 0.12500000E+03</pdfrwt>
<pdfrwt beam="2">  1       21 0.61923446E-02 0.12500000E+03</pdfrwt>
<totfact> 0.72393430E+06</totfact>
</mgrwt>
</event>
<event>
 3    1  0.1604658E-001  0.1250000E+03  0.7546771E-02  0.1235069E+00
         21   -1    0    0  502  501  0.00000000000E+00  0.00000000000E+00  0.45099313970E+03  0.45099313970E+03  0.00000000000E+00 0.  1.
         21   -1    0    0  501  502 -0.00000000000E+00 -0.00000000000E+00 -0.86614399558E+01  0.86614399558E+01  0.00000000000E+00 0.  1.
         25    1    1    2    0    0  0.00000000000E+00  0.00000000000E+00  0.44233169975E+03  0.45965457966E+03  0.12500000000E+03 0.  0.
<mgrwt>
<rscale>  0 0.12500000E+03</rscale>
<asrwt>0</asrwt>
<pdfrwt beam="1">  1       21 0.69383542E-01 0.12500000E+03</pdfrwt>
<pdfrwt beam="2">  1       21 0.13325296E-02 0.12500000E+03</pdfrwt>
<totfact> 0.44320147E+06</totfact>
</mgrwt>
</event>
<event>
 3    1  0.1604658E-001  0.1250000E+03  0.7546771E-02  0.1235069E+00
         21   -1    0    0  502  501  0.00000000000E+00  0.00000000000E+00  0.16393547450E+02  0.16393547450E+02  0.00000000000E+00 0. -1.
         21   -1    0    0  501  502 -0.00000000000E+00 -0.00000000000E+00 -0.23827972633E+03  0.23827972633E+03  0.00000000000E+00 0. -1.
         25    1    1    2    0    0  0.00000000000E+00  0.00000000000E+00 -0.22188617888E+03  0.25467327378E+03  0.12500000000E+03 0.  0.
<mgrwt>
<rscale>  0 0.12500000E+03</rscale>
<asrwt>0</asrwt>
<pdfrwt beam="1">  1       21 0.25220841E-02 0.12500000E+03</pdfrwt>
<pdfrwt beam="2">  1       21 0.36658421E-01 0.12500000E+03</pdfrwt>
<totfact> 0.59440975E+06</totfact>
</mgrwt>
</event>
<event>
 3    1  0.1604658E-001  0.1250000E+03  0.7546771E-02  0.1235069E+00
         21   -1    0    0  502  501  0.00000000000E+00  0.00000000000E+00  0.27848562049E+01  0.27848562049E+01  0.00000000000E+00 0.  1.
         21   -1    0    0  501  502 -0.00000000000E+00 -0.00000000000E+00 -0.14026756545E+04  0.14026756545E+04  0.00000000000E+00 0.  1.
         25    1    1    2    0    0  0.00000000000E+00  0.00000000000E+00 -0.13998907983E+04  0.14054605107E+04  0.12500000000E+03 0.  0.
<mgrwt>
<rscale>  0 0.12500000E+03</rscale>
<asrwt>0</asrwt>
<pdfrwt beam="1">  1       21 0.42843879E-03 0.12500000E+03</pdfrwt>
<pdfrwt beam="2">  1       21 0.21579657E+00 0.12500000E+03</pdfrwt>
<totfact> 0.15456110E+06</totfact>
</mgrwt>
</event>
<event>
 3    1  0.1604658E-001  0.1250000E+03  0.7546771E-02  0.1235069E+00
         21   -1    0    0  502  501  0.00000000000E+00  0.00000000000E+00  0.68533649724E+03  0.68533649724E+03  0.00000000000E+00 0.  1.
         21   -1    0    0  501  502 -0.00000000000E+00 -0.00000000000E+00 -0.56997548150E+01  0.56997548150E+01  0.00000000000E+00 0.  1.
         25    1    1    2    0    0  0.00000000000E+00  0.00000000000E+00  0.67963674242E+03  0.69103625205E+03  0.12500000000E+03 0.  0.
<mgrwt>
<rscale>  0 0.12500000E+03</rscale>
<asrwt>0</asrwt>
<pdfrwt beam="1">  1       21 0.10543632E+00 0.12500000E+03</pdfrwt>
<pdfrwt beam="2">  1       21 0.87688590E-03 0.12500000E+03</pdfrwt>
<totfact> 0.33258614E+06</totfact>
</mgrwt>
</event>
<event>
 3    1  0.1604658E-001  0.1250000E+03  0.7546771E-02  0.1235069E+00
         21   -1    0    0  502  501  0.00000000000E+00  0.00000000000E+00  0.22786664082E+03  0.22786664082E+03  0.00000000000E+00 0.  1.
         21   -1    0    0  501  502 -0.00000000000E+00 -0.00000000000E+00 -0.17142702354E+02  0.17142702354E+02  0.00000000000E+00 0.  1.
         25    1    1    2    0    0  0.00000000000E+00  0.00000000000E+00  0.21072393847E+03  0.24500934318E+03  0.12500000000E+03 0.  0.
<mgrwt>
<rscale>  0 0.12500000E+03</rscale>
<asrwt>0</asrwt>
<pdfrwt beam="1">  1       21 0.35056404E-01 0.12500000E+03</pdfrwt>
<pdfrwt beam="2">  1       21 0.26373390E-02 0.12500000E+03</pdfrwt>
<totfact> 0.60351261E+06</totfact>
</mgrwt>
</event>
<event>
 3    1  0.1604658E-001  0.1250000E+03  0.7546771E-02  0.1235069E+00
         21   -1    0    0  502  501  0.00000000000E+00  0.00000000000E+00  0.13834747693E+03  0.13834747693E+03  0.00000000000E+00 0. -1.
         21   -1    0    0  501  502 -0.00000000000E+00 -0.00000000000E+00 -0.28235064974E+02  0.28235064974E+02  0.00000000000E+00 0. -1.
         25    1    1    2    0    0  0.00000000000E+00  0.00000000000E+00  0.11011241195E+03  0.16658254190E+03  0.12500000000E+03 0.  0.
<mgrwt>
<rscale>  0 0.12500000E+03</rscale>
<asrwt>0</asrwt>
<pdfrwt beam="1">  1       21 0.21284227E-01 0.12500000E+03</pdfrwt>
<pdfrwt beam="2">  1       21 0.43438562E-02 0.12500000E+03</pdfrwt>
<totfact> 0.68723992E+06</totfact>
</mgrwt>
</event>
<event>
 3    1  0.1604658E-001  0.1250000E+03  0.7546771E-02  0.1235069E+00
         21   -1    0    0  502  501  0.00000000000E+00  0.00000000000E+00  0.69172512547E+03  0.69172512547E+03  0.00000000000E+00 0.  1.
         21   -1    0    0  501  502 -0.00000000000E+00 -0.00000000000E+00 -0.56471130745E+01  0.56471130745E+01  0.00000000000E+00 0.  1.
         25    1    1    2    0    0  0.00000000000E+00  0.00000000000E+00  0.68607801240E+03  0.69737223855E+03  0.12500000000E+03 0.  0.
<mgrwt>
<rscale>  0 0.12500000E+03</rscale>
<asrwt>0</asrwt>
<pdfrwt beam="1">  1       21 0.10641918E+00 0.12500000E+03</pdfrwt>
<pdfrwt beam="2">  1       21 0.86878718E-03 0.12500000E+03</pdfrwt>
<totfact> 0.33011712E+06</totfact>
</mgrwt>
</event>
<event>
 3    1  0.1604658E-001  0.1250000E+03  0.7546771E-02  0.1235069E+00
         21   -1    0    0  502  501  0.00000000000E+00  0.00000000000E+00  0.29278737084E+02  0.29278737084E+02  0.00000000000E+00 0.  1.
         21   -1    0    0  501  502 -0.00000000000E+00 -0.00000000000E+00 -0.13341593214E+03  0.13341593214E+03  0.00000000000E+00 0.  1.
         25    1    1    2    0    0  0.00000000000E+00  0.00000000000E+00 -0.10413719506E+03  0.16269466923E+03  0.12500000000E+03 0.  0.
<mgrwt>
<rscale>  0 0.12500000E+03</rscale>
<asrwt>0</asrwt>
<pdfrwt beam="1">  1       21 0.45044211E-02 0.12500000E+03</pdfrwt>
<pdfrwt beam="2">  1       21 0.20525528E-01 0.12500000E+03</pdfrwt>
<totfact> 0.69191726E+06</totfact>
</mgrwt>
</event>
<event>
 3    1  0.1604658E-001  0.1250000E+03  0.7546771E-02  0.1235069E+00
         21   -1    0    0  502  501  0.00000000000E+00  0.00000000000E+00  0.10275938620E+02  0.10275938620E+02  0.00000000000E+00 0. -1.
         21   -1    0    0  501  502 -0.00000000000E+00 -0.00000000000E+00 -0.38013559098E+03  0.38013559098E+03  0.00000000000E+00 0. -1.
         25    1    1    2    0    0  0.00000000000E+00  0.00000000000E+00 -0.36985965236E+03  0.39041152960E+03  0.12500000000E+03 0.  0.
<mgrwt>
<rscale>  0 0.12500000E+03</rscale>
<asrwt>0</asrwt>
<pdfrwt beam="1">  1       21 0.15809135E-02 0.12500000E+03</pdfrwt>
<pdfrwt beam="2">  1       21 0.58482403E-01 0.12500000E+03</pdfrwt>
<totfact> 0.48683912E+06</totfact>
</mgrwt>
</event>
<event>
 3    1  0.1604658E-001  0.1250000E+03  0.7546771E-02  0.1235069E+00
         21   -1    0    0  502  501  0.00000000000E+00  0.00000000000E+00  0.19270326368E+03  0.19270326368E+03  0.00000000000E+00 0. -1.
         21   -1    0    0  501  502 -0.00000000000E+00 -0.00000000000E+00 -0.20270803542E+02  0.20270803542E+02  0.00000000000E+00 0. -1.
         25    1    1    2    0    0  0.00000000000E+00  0.00000000000E+00  0.17243246014E+03  0.21297406723E+03  0.12500000000E+03 0.  0.
<mgrwt>
<rscale>  0 0.12500000E+03</rscale>
<asrwt>0</asrwt>
<pdfrwt beam="1">  1       21 0.29646655E-01 0.12500000E+03</pdfrwt>
<pdfrwt beam="2">  1       21 0.31185853E-02 0.12500000E+03</pdfrwt>
<totfact> 0.63547983E+06</totfact>
</mgrwt>
</event>
<event>
 3    1  0.1604658E-001  0.1250000E+03  0.7546771E-02  0.1235069E+00
         21   -1    0    0  502  501  0.00000000000E+00  0.00000000000E+00  0.86634203603E+03  0.86634203603E+03  0.00000000000E+00 0. -1.
         21   -1    0    0  501  502 -0.00000000000E+00 -0.00000000000E+00 -0.45089004545E+01  0.45089004545E+01  0.00000000000E+00 0. -1.
         25    1    1    2    0    0  0.00000000000E+00  0.00000000000E+00  0.86183313557E+03  0.87085093648E+03  0.12500000000E+03 0.  0.
<mgrwt>
<rscale>  0 0.12500000E+03</rscale>
<asrwt>0</asrwt>
<pdfrwt beam="1">  1       21 0.13328326E+00 0.12500000E+03</pdfrwt>
<pdfrwt beam="2">  1       21 0.69367768E-03 0.12500000E+03</pdfrwt>
<totfact> 0.27145183E+06</totfact>
</mgrwt>
</event>
<event>
 3    1  0.1604658E-001  0.1250000E+03  0.7546771E-02  0.1235069E+00
         21   -1    0    0  502  501  0.00000000000E+00  0.00000000000E+00  0.29578699634E+02  0.29578699634E+02  0.00000000000E+00 0.  1.
         21   -1    0    0  501  502 -0.00000000000E+00 -0.00000000000E+00 -0.13206293881E+03  0.13206293881E+03  0.00000000000E+00 0.  1.
         25    1    1    2    0    0  0.00000000000E+00  0.00000000000E+00 -0.10248423918E+03  0.16164163845E+03  0.12500000000E+03 0.  0.
<mgrwt>
<rscale>  0 0.12500000E+03</rscale>
<asrwt>0</asrwt>
<pdfrwt beam="1">  1       21 0.45505692E-02 0.12500000E+03</pdfrwt>
<pdfrwt beam="2">  1       21 0.20317375E-01 0.12500000E+03</pdfrwt>
<totfact> 0.69319460E+06</totfact>
</mgrwt>
</event>
<event>
 3    1  0.1604658E-001  0.1250000E+03  0.7546771E-02  0.1235069E+00
         21   -1    0    0  502  501  0.00000000000E+00  0.00000000000E+00  0.67785772029E+02  0.67785772029E+02  0.00000000000E+00 0. -1.
         21   -1    0    0  501  502 -0.00000000000E+00 -0.00000000000E+00 -0.57626399805E+02  0.57626399805E+02  0.00000000000E+00 0. -1.
         25    1    1    2    0    0  0.00000000000E+00  0.00000000000E+00  0.10159372224E+02  0.12541217183E+03  0.12500000000E+03 0.  0.
<mgrwt>
<rscale>  0 0.12500000E+03</rscale>
<asrwt>0</asrwt>
<pdfrwt beam="1">  1       21 0.10428580E-01 0.12500000E+03</pdfrwt>
<pdfrwt beam="2">  1       21 0.88656000E-02 0.12500000E+03</pdfrwt>
<totfact> 0.73987702E+06</totfact>
</mgrwt>
</event>
<event>
 3    1  0.1604658E-001  0.1250000E+03  0.7546771E-02  0.1235069E+00
         21   -1    0    0  502  501  0.00000000000E+00  0.00000000000E+00  0.54273743244E+02  0.54273743244E+02  0.00000000000E+00 0.  1.
         21   -1    0    0  501  502 -0.00000000000E+00 -0.00000000000E+00 -0.71973108294E+02  0.71973108294E+02  0.00000000000E+00 0.  1.
         25    1    1    2    0    0  0.00000000000E+00  0.00000000000E+00 -0.17699365050E+02  0.12624685154E+03  0.12500000000E+03 0.  0.
<mgrwt>
<rscale>  0 0.12500000E+03</rscale>
<asrwt>0</asrwt>
<pdfrwt beam="1">  1       21 0.83498067E-02 0.12500000E+03</pdfrwt>
<pdfrwt beam="2">  1       21 0.11072786E-01 0.12500000E+03</pdfrwt>
<totfact> 0.73872074E+06</totfact>
</mgrwt>
</event>
<event>
 3    1  0.1604658E-001  0.1250000E+03  0.7546771E-02  0.1235069E+00
         21   -1    0    0  502  501  0.00000000000E+00  0.00000000000E+00  0.12670976886E+02  0.12670976886E+02  0.00000000000E+00 0.  1.
         21   -1    0    0  501  502 -0.00000000000E+00 -0.00000000000E+00 -0.30828325513E+03  0.30828325513E+03  0.00000000000E+00 0.  1.
         25    1    1    2    0    0  0.00000000000E+00  0.00000000000E+00 -0.29561227825E+03  0.32095423202E+03  0.12500000000E+03 0.  0.
<mgrwt>
<rscale>  0 0.12500000E+03</rscale>
<asrwt>0</asrwt>
<pdfrwt beam="1">  1       21 0.19493811E-02 0.12500000E+03</pdfrwt>
<pdfrwt beam="2">  1       21 0.47428191E-01 0.12500000E+03</pdfrwt>
<totfact> 0.53757812E+06</totfact>
</mgrwt>
</event>
<event>
 3    1  0.1604658E-001  0.1250000E+03  0.7546771E-02  0.1235069E+00
         21   -1    0    0  502  501  0.00000000000E+00  0.00000000000E+00  0.10706441775E+02  0.10706441775E+02  0.00000000000E+00 0. -1.
         21   -1    0    0  501  502 -0.00000000000E+00 -0.00000000000E+00 -0.36485044072E+03  0.36485044072E+03  0.00000000000E+00 0. -1.
         25    1    1    2    0    0  0.00000000000E+00  0.00000000000E+00 -0.35414399895E+03  0.37555688250E+03  0.12500000000E+03 0.  0.
<mgrwt>
<rscale>  0 0.12500000E+03</rscale>
<asrwt>0</asrwt>
<pdfrwt beam="1">  1       21 0.16471446E-02 0.12500000E+03</pdfrwt>
<pdfrwt beam="2">  1       21 0.56130845E-01 0.12500000E+03</pdfrwt>
<totfact> 0.49704610E+06</totfact>
</mgrwt>
</event>
<event>
 3    1  0.1604658E-001  0.1250000E+03  0.7546771E-02  0.1235069E+00
         21   -1    0    0  502  501  0.00000000000E+00  0.00000000000E+00  0.80069157993E+01  0.80069157993E+01  0.00000000000E+00 0. -1.
         21   -1    0    0  501  502 -0.00000000000E+00 -0.00000000000E+00 -0.48785950770E+03  0.48785950770E+03  0.00000000000E+00 0. -1.
         25    1    1    2    0    0  0.00000000000E+00  0.00000000000E+00 -0.47985259190E+03  0.49586642350E+03  0.12500000000E+03 0.  0.
<mgrwt>
<rscale>  0 0.12500000E+03</rscale>
<asrwt>0</asrwt>
<pdfrwt beam="1">  1       21 0.12318332E-02 0.12500000E+03</pdfrwt>
<pdfrwt beam="2">  1       21 0.75055309E-01 0.12500000E+03</pdfrwt>
<totfact> 0.42269134E+06</totfact>
</mgrwt>
</event>
<event>
 3    1  0.1604658E-001  0.1250000E+03  0.7546771E-02  0.1235069E+00
         21   -1    0    0  502  501  0.00000000000E+00  0.00000000000E+00  0.10968260486E+03  0.10968260486E+03  0.00000000000E+00 0. -1.
         21   -1    0    0  501  502 -0.00000000000E+00 -0.00000000000E+00 -0.35614125003E+02  0.35614125003E+02  0.00000000000E+00 0. -1.
         25    1    1    2    0    0  0.00000000000E+00  0.00000000000E+00  0.74068479853E+02  0.14529672986E+03  0.12500000000E+03 0.  0.
<mgrwt>
<rscale>  0 0.12500000E+03</rscale>
<asrwt>0</asrwt>
<pdfrwt beam="1">  1       21 0.16874247E-01 0.12500000E+03</pdfrwt>
<pdfrwt beam="2">  1       21 0.54790962E-02 0.12500000E+03</pdfrwt>
<totfact> 0.71355146E+06</totfact>
</mgrwt>
</event>
<event>
 3    1  0.1604658E-001  0.1250000E+03  0.7546771E-02  0.1235069E+00
         21   -1    0    0  502  501  0.00000000000E+00  0.00000000000E+00  0.62469250479E+02  0.62469250479E+02  0.00000000000E+00 0. -1.
         21   -1    0    0  501  502 -0.00000000000E+00 -0.00000000000E+00 -0.62530764657E+02  0.62530764657E+02  0.00000000000E+00 0. -1.
         25    1    1    2    0    0  0.00000000000E+00  0.00000000000E+00 -0.61514177615E-01  0.12500001514E+03  0.12500000000E+03 0.  0.
<mgrwt>
<rscale>  0 0.12500000E+03</rscale>
<asrwt>0</asrwt>
<pdfrwt beam="1">  1       21 0.96106539E-02 0.12500000E+03</pdfrwt>
<pdfrwt beam="2">  1       21 0.96201177E-02 0.12500000E+03</pdfrwt>
<totfact> 0.74043579E+06</totfact>
</mgrwt>
</event>
<event>
 3    1  0.1604658E-001  0.1250000E+03  0.7546771E-02  0.1235069E+00
         21   -1    0    0  502  501  0.00000000000E+00  0.00000000000E+00  0.37461896423E+02  0.37461896423E+02  0.00000000000E+00 0.  1.
         21   -1    0    0  501  502 -0.00000000000E+00 -0.00000000000E+00 -0.10427261759E+03  0.10427261759E+03  0.00000000000E+00 0.  1.
         25    1    1    2    0    0  0.00000000000E+00  0.00000000000E+00 -0.66810721170E+02  0.14173451402E+03  0.12500000000E+03 0.  0.
<mgrwt>
<rscale>  0 0.12500000E+03</rscale>
<asrwt>0</asrwt>
<pdfrwt beam="1">  1       21 0.57633688E-02 0.12500000E+03</pdfrwt>
<pdfrwt beam="2">  1       21 0.16041941E-01 0.12500000E+03</pdfrwt>
<totfact> 0.71813673E+06</totfact>
</mgrwt>
</event>
<event>
 3    1  0.1604658E-001  0.1250000E+03  0.7546771E-02  0.1235069E+00
         21   -1    0    0  502  501  0.00000000000E+00  0.00000000000E+00  0.11509525478E+02  0.11509525478E+02  0.00000000000E+00 0.  1.
         21   -1    0    0  501  502 -0.00000000000E+00 -0.00000000000E+00 -0.33939279316E+03  0.33939279316E+03  0.00000000000E+00 0.  1.
         25    1    1    2    0    0  0.00000000000E+00  0.00000000000E+00 -0.32788326768E+03  0.35090231864E+03  0.12500000000E+03 0.  0.
<mgrwt>
<rscale>  0 0.12500000E+03</rscale>
<asrwt>0</asrwt>
<pdfrwt beam="1">  1       21 0.17706966E-02 0.12500000E+03</pdfrwt>
<pdfrwt beam="2">  1       21 0.52214266E-01 0.12500000E+03</pdfrwt>
<totfact> 0.51471866E+06</totfact>
</mgrwt>
</event>
<event>
 3    1  0.1604658E-001  0.1250000E+03  0.7546771E-02  0.1235069E+00
         21   -1    0    0  502  501  0.00000000000E+00  0.00000000000E+00  0.47563753519E+02  0.47563753519E+02  0.00000000000E+00 0. -1.
         21   -1    0    0  501  502 -0.00000000000E+00 -0.00000000000E+00 -0.82126613461E+02  0.82126613461E+02  0.00000000000E+00 0. -1.
         25    1    1    2    0    0  0.00000000000E+00  0.00000000000E+00 -0.34562859941E+02  0.12969036698E+03  0.12500000000E+03 0.  0.
<mgrwt>
<rscale>  0 0.12500000E+03</rscale>
<asrwt>0</asrwt>
<pdfrwt beam="1">  1       21 0.73175006E-02 0.12500000E+03</pdfrwt>
<pdfrwt beam="2">  1       21 0.12634863E-01 0.12500000E+03</pdfrwt>
<totfact> 0.73406326E+06</totfact>
</mgrwt>
</event>
<event>
 3    1  0.1604658E-001  0.1250000E+03  0.7546771E-02  0.1235069E+00
         21   -1    0    0  502  501  0.00000000000E+00  0.00000000000E+00  0.12625032090E+02  0.12625032090E+02  0.00000000000E+00 0.  1.
         21   -1    0    0  501  502 -0.00000000000E+00 -0.00000000000E+00 -0.30940515416E+03  0.30940515416E+03  0.00000000000E+00 0.  1.
         25    1    1    2    0    0  0.00000000000E+00  0.00000000000E+00 -0.29678012207E+03  0.32203018625E+03  0.12500000000E+03 0.  0.
<mgrwt>
<rscale>  0 0.12500000E+03</rscale>
<asrwt>0</asrwt>
<pdfrwt beam="1">  1       21 0.19423125E-02 0.12500000E+03</pdfrwt>
<pdfrwt beam="2">  1       21 0.47600795E-01 0.12500000E+03</pdfrwt>
<totfact> 0.53672850E+06</totfact>
</mgrwt>
</event>
<event>
 3    1  0.1604658E-001  0.1250000E+03  0.7546771E-02  0.1235069E+00
         21   -1    0    0  502  501  0.00000000000E+00  0.00000000000E+00  0.39273542234E+03  0.39273542234E+03  0.00000000000E+00 0. -1.
         21   -1    0    0  501  502 -0.00000000000E+00 -0.00000000000E+00 -0.99462635093E+01  0.99462635093E+01  0.00000000000E+00 0. -1.
         25    1    1    2    0    0  0.00000000000E+00  0.00000000000E+00  0.38278915883E+03  0.40268168585E+03  0.12500000000E+03 0.  0.
<mgrwt>
<rscale>  0 0.12500000E+03</rscale>
<asrwt>0</asrwt>
<pdfrwt beam="1">  1       21 0.60420822E-01 0.12500000E+03</pdfrwt>
<pdfrwt beam="2">  1       21 0.15301947E-02 0.12500000E+03</pdfrwt>
<totfact> 0.47863990E+06</totfact>
</mgrwt>
</event>
<event>
 3    1  0.1604658E-001  0.1250000E+03  0.7546771E-02  0.1235069E+00
         21   -1    0    0  502  501  0.00000000000E+00  0.00000000000E+00  0.10259910287E+04  0.10259910287E+04  0.00000000000E+00 0. -1.
         21   -1    0    0  501  502 -0.00000000000E+00 -0.00000000000E+00 -0.38072944996E+01  0.38072944996E+01  0.00000000000E+00 0. -1.
         25    1    1    2    0    0  0.00000000000E+00  0.00000000000E+00  0.10221837342E+04  0.10297983232E+04  0.12500000000E+03 0.  0.
<mgrwt>
<rscale>  0 0.12500000E+03</rscale>
<asrwt>0</asrwt>
<pdfrwt beam="1">  1       21 0.15784455E+00 0.12500000E+03</pdfrwt>
<pdfrwt beam="2">  1       21 0.58573844E-03 0.12500000E+03</pdfrwt>
<totfact> 0.22883822E+06</totfact>
</mgrwt>
</event>
<event>
 3    1  0.1604658E-001  0.1250000E+03  0.7546771E-02  0.1235069E+00
         21   -1    0    0  502  501  0.00000000000E+00  0.00000000000E+00  0.57913947197E+03  0.57913947197E+03  0.00000000000E+00 0.  1.
         21   -1    0    0  501  502 -0.00000000000E+00 -0.00000000000E+00 -0.67449210234E+01  0.67449210234E+01  0.00000000000E+00 0.  1.
         25    1    1    2    0    0  0.00000000000E+00  0.00000000000E+00  0.57239455095E+03  0.58588439300E+03  0.12500000000E+03 0.  0.
<mgrwt>
<rscale>  0 0.12500000E+03</rscale>
<asrwt>0</asrwt>
<pdfrwt beam="1">  1       21 0.89098341E-01 0.12500000E+03</pdfrwt>
<pdfrwt beam="2">  1       21 0.10376806E-02 0.12500000E+03</pdfrwt>
<totfact> 0.37738883E+06</totfact>
</mgrwt>
</event>
<event>
 3    1  0.1604658E-001  0.1250000E+03  0.7546771E-02  0.1235069E+00
         21   -1    0    0  502  501  0.00000000000E+00  0.00000000000E+00  0.35167236926E+02  0.35167236926E+02  0.00000000000E+00 0.  1.
         21   -1    0    0  501  502 -0.00000000000E+00 -0.00000000000E+00 -0.11107639785E+03  0.11107639785E+03  0.00000000000E+00 0.  1.
         25    1    1    2    0    0  0.00000000000E+00  0.00000000000E+00 -0.75909160921E+02  0.14624363477E+03  0.12500000000E+03 0.  0.
<mgrwt>
<rscale>  0 0.12500000E+03</rscale>
<asrwt>0</asrwt>
<pdfrwt beam="1">  1       21 0.54103441E-02 0.12500000E+03</pdfrwt>
<pdfrwt beam="2">  1       21 0.17088677E-01 0.12500000E+03</pdfrwt>
<totfact> 0.71234322E+06</totfact>
</mgrwt>
</event>
<event>
 3    1  0.1604658E-001  0.1250000E+03  0.7546771E-02  0.1235069E+00
         21   -1    0    0  502  501  0.00000000000E+00  0.00000000000E+00  0.46851456037E+03  0.46851456037E+03  0.00000000000E+00 0.  1.
         21   -1    0    0  501  502 -0.00000000000E+00 -0.00000000000E+00 -0.83375210301E+01  0.83375210301E+01  0.00000000000E+00 0.  1.
         25    1    1    2    0    0  0.00000000000E+00  0.00000000000E+00  0.46017703934E+03  0.47685208140E+03  0.12500000000E+03 0.  0.
<mgrwt>
<rscale>  0 0.12500000E+03</rscale>
<asrwt>0</asrwt>
<pdfrwt beam="1">  1       21 0.72079142E-01 0.12500000E+03</pdfrwt>
<pdfrwt beam="2">  1       21 0.12826959E-02 0.12500000E+03</pdfrwt>
<totfact> 0.43327919E+06</totfact>
</mgrwt>
</event>
<event>
 3    1  0.1604658E-001  0.1250000E+03  0.7546771E-02  0.1235069E+00
         21   -1    0    0  502  501  0.00000000000E+00  0.00000000000E+00  0.23289962637E+02  0.23289962637E+02  0.00000000000E+00 0. -1.
         21   -1    0    0  501  502 -0.00000000000E+00 -0.00000000000E+00 -0.16772246743E+03  0.16772246743E+03  0.00000000000E+00 0. -1.
         25    1    1    2    0    0  0.00000000000E+00  0.00000000000E+00 -0.14443250480E+03  0.19101243007E+03  0.12500000000E+03 0.  0.
<mgrwt>
<rscale>  0 0.12500000E+03</rscale>
<asrwt>0</asrwt>
<pdfrwt beam="1">  1       21 0.35830710E-02 0.12500000E+03</pdfrwt>
<pdfrwt beam="2">  1       21 0.25803457E-01 0.12500000E+03</pdfrwt>
<totfact> 0.65910118E+06</totfact>
</mgrwt>
</event>
<event>
 3    1  0.1604658E-001  0.1250000E+03  0.7546771E-02  0.1235069E+00
         21   -1    0    0  502  501  0.00000000000E+00  0.00000000000E+00  0.92427666781E+02  0.92427666781E+02  0.00000000000E+00 0. -1.
         21   -1    0    0  501  502 -0.00000000000E+00 -0.00000000000E+00 -0.42262778409E+02  0.42262778409E+02  0.00000000000E+00 0. -1.
         25    1    1    2    0    0  0.00000000000E+00  0.00000000000E+00  0.50164888372E+02  0.13469044519E+03  0.12500000000E+03 0.  0.
<mgrwt>
<rscale>  0 0.12500000E+03</rscale>
<asrwt>0</asrwt>
<pdfrwt beam="1">  1       21 0.14219641E-01 0.12500000E+03</pdfrwt>
<pdfrwt beam="2">  1       21 0.65019659E-02 0.12500000E+03</pdfrwt>
<totfact> 0.72737485E+06</totfact>
</mgrwt>
</event>
<event>
 3    1  0.1604658E-001  0.1250000E+03  0.7546771E-02  0.1235069E+00
         21   -1    0    0  502  501  0.00000000000E+00  0.00000000000E+00  0.49459994468E+02  0.49459994468E+02  0.00000000000E+00 0.  1.
         21   -1    0    0  501  502 -0.00000000000E+00 -0.00000000000E+00 -0.78977970823E+02  0.78977970823E+02  0.00000000000E+00 0.  1.
         25    1    1    2    0    0  0.00000000000E+00  0.00000000000E+00 -0.29517976354E+02  0.12843796529E+03  0.12500000000E+03 0.  0.
<mgrwt>
<rscale>  0 0.12500000E+03</rscale>
<asrwt>0</asrwt>
<pdfrwt beam="1">  1       21 0.76092299E-02 0.12500000E+03</pdfrwt>
<pdfrwt beam="2">  1       21 0.12150457E-01 0.12500000E+03</pdfrwt>
<totfact> 0.73574478E+06</totfact>
</mgrwt>
</event>
<event>
 3    1  0.1604658E-001  0.1250000E+03  0.7546771E-02  0.1235069E+00
         21   -1    0    0  502  501  0.00000000000E+00  0.00000000000E+00  0.53846844419E+01  0.53846844419E+01  0.00000000000E+00 0.  1.
         21   -1    0    0  501  502 -0.00000000000E+00 -0.00000000000E+00 -0.72543712490E+03  0.72543712490E+03  0.00000000000E+00 0.  1.
         25    1    1    2    0    0  0.00000000000E+00  0.00000000000E+00 -0.72005244045E+03  0.73082180934E+03  0.12500000000E+03 0.  0.
<mgrwt>
<rscale>  0 0.12500000E+03</rscale>
<asrwt>0</asrwt>
<pdfrwt beam="1">  1       21 0.82841294E-03 0.12500000E+03</pdfrwt>
<pdfrwt beam="2">  1       21 0.11160572E+00 0.12500000E+03</pdfrwt>
<totfact> 0.31755165E+06</totfact>
</mgrwt>
</event>
<event>
 3    1  0.1604658E-001  0.1250000E+03  0.7546771E-02  0.1235069E+00
         21   -1    0    0  502  501  0.00000000000E+00  0.00000000000E+00  0.50270227800E+02  0.50270227800E+02  0.00000000000E+00 0.  1.
         21   -1    0    0  501  502 -0.00000000000E+00 -0.00000000000E+00 -0.77705038767E+02  0.77705038767E+02  0.00000000000E+00 0.  1.
         25    1    1    2    0    0  0.00000000000E+00  0.00000000000E+00 -0.27434810967E+02  0.12797526657E+03  0.12500000000E+03 0.  0.
<mgrwt>
<rscale>  0 0.12500000E+03</rscale>
<asrwt>0</asrwt>
<pdfrwt beam="1">  1       21 0.77338812E-02 0.12500000E+03</pdfrwt>
<pdfrwt beam="2">  1       21 0.11954621E-01 0.12500000E+03</pdfrwt>
<totfact> 0.73636901E+06</totfact>
</mgrwt>
</event>
<event>
 3    1  0.1604658E-001  0.1250000E+03  0.7546771E-02  0.1235069E+00
         21   -1    0    0  502  501  0.00000000000E+00  0.00000000000E+00  0.70618633225E+02  0.70618633225E+02  0.00000000000E+00 0.  1.
         21   -1    0    0  501  502 -0.00000000000E+00 -0.00000000000E+00 -0.55314721081E+02  0.55314721081E+02  0.00000000000E+00 0.  1.
         25    1    1    2    0    0  0.00000000000E+00  0.00000000000E+00  0.15303912144E+02  0.12593335431E+03  0.12500000000E+03 0.  0.
<mgrwt>
<rscale>  0 0.12500000E+03</rscale>
<asrwt>0</asrwt>
<pdfrwt beam="1">  1       21 0.10864405E-01 0.12500000E+03</pdfrwt>
<pdfrwt beam="2">  1       21 0.85099571E-02 0.12500000E+03</pdfrwt>
<totfact> 0.73915234E+06</totfact>
</mgrwt>
</event>
<event>
 3    1  0.1604658E-001  0.1250000E+03  0.7546771E-02  0.1235069E+00
         21   -1    0    0  502  501  0.00000000000E+00  0.00000000000E+00  0.12004039831E+02  0.12004039831E+02  0.00000000000E+00 0.  1.
         21   -1    0    0  501  502 -0.00000000000E+00 -0.00000000000E+00 -0.32541128279E+03  0.32541128279E+03  0.00000000000E+00 0.  1.
         25    1    1    2    0    0  0.00000000000E+00  0.00000000000E+00 -0.31340724296E+03  0.33741532262E+03  0.12500000000E+03 0.  0.
<mgrwt>
<rscale>  0 0.12500000E+03</rscale>
<asrwt>0</asrwt>
<pdfrwt beam="1">  1       21 0.18467757E-02 0.12500000E+03</pdfrwt>
<pdfrwt beam="2">  1       21 0.50063264E-01 0.12500000E+03</pdfrwt>
<totfact> 0.52481496E+06</totfact>
</mgrwt>
</event>
<event>
 3    1  0.1604658E-001  0.1250000E+03  0.7546771E-02  0.1235069E+00
         21   -1    0    0  502  501  0.00000000000E+00  0.00000000000E+00  0.61500390078E+01  0.61500390078E+01  0.00000000000E+00 0. -1.
         21   -1    0    0  501  502 -0.00000000000E+00 -0.00000000000E+00 -0.63515857298E+03  0.63515857298E+03  0.00000000000E+00 0. -1.
         25    1    1    2    0    0  0.00000000000E+00  0.00000000000E+00 -0.62900853398E+03  0.64130861199E+03  0.12500000000E+03 0.  0.
<mgrwt>
<rscale>  0 0.12500000E+03</rscale>
<asrwt>0</asrwt>
<pdfrwt beam="1">  1       21 0.94616009E-03 0.12500000E+03</pdfrwt>
<pdfrwt beam="2">  1       21 0.97716678E-01 0.12500000E+03</pdfrwt>
<totfact> 0.35288611E+06</totfact>
</mgrwt>
</event>
<event>
 3    1  0.1604658E-001  0.1250000E+03  0.7546771E-02  0.1235069E+00
         21   -1    0    0  502  501  0.00000000000E+00  0.00000000000E+00  0.31326208421E+03  0.31326208421E+03  0.00000000000E+00 0.  1.
         21   -1    0    0  501  502 -0.00000000000E+00 -0.00000000000E+00 -0.12469590789E+02  0.12469590789E+02  0.00000000000E+00 0.  1.
         25    1    1    2    0    0  0.00000000000E+00  0.00000000000E+00  0.30079249343E+03  0.32573167500E+03  0.12500000000E+03 0.  0.
<mgrwt>
<rscale>  0 0.12500000E+03</rscale>
<asrwt>0</asrwt>
<pdfrwt beam="1">  1       21 0.48194161E-01 0.12500000E+03</pdfrwt>
<pdfrwt beam="2">  1       21 0.19183988E-02 0.12500000E+03</pdfrwt>
<totfact> 0.53382242E+06</totfact>
</mgrwt>
</event>
<event>
 3    1  0.1604658E-001  0.1250000E+03  0.7546771E-02  0.1235069E+00
         21   -1    0    0  502  501  0.00000000000E+00  0.00000000000E+00  0.15323895112E+03  0.15323895112E+03  0.00000000000E+00 0. -1.
         21   -1    0    0  501  502 -0.00000000000E+00 -0.00000000000E+00 -0.25491234255E+02  0.25491234255E+02  0.00000000000E+00 0. -1.
         25    1    1    2    0    0  0.00000000000E+00  0.00000000000E+00  0.12774771687E+03  0.17873018538E+03  0.12500000000E+03 0.  0.
<mgrwt>
<rscale>  0 0.12500000E+03</rscale>
<asrwt>0</asrwt>
<pdfrwt beam="1">  1       21 0.23575223E-01 0.12500000E+03</pdfrwt>
<pdfrwt beam="2">  1       21 0.39217284E-02 0.12500000E+03</pdfrwt>
<totfact> 0.67297505E+06</totfact>
</mgrwt>
</event>
<event>
 3    1  0.1604658E-001  0.1250000E+03  0.7546771E-02  0.1235069E+00
         21   -1    0    0  502  501  0.00000000000E+00  0.00000000000E+00  0.98402283760E+02  0.98402283760E+02  0.00000000000E+00 0.  1.
         21   -1    0    0  501  502 -0.00000000000E+00 -0.00000000000E+00 -0.39696741282E+02  0.39696741282E+02  0.00000000000E+00 0.  1.
         25    1    1    2    0    0  0.00000000000E+00  0.00000000000E+00  0.58705542478E+02  0.13809902504E+03  0.12500000000E+03 0.  0.
<mgrwt>
<rscale>  0 0.12500000E+03</rscale>
<asrwt>0</asrwt>
<pdfrwt beam="1">  1       21 0.15138813E-01 0.12500000E+03</pdfrwt>
<pdfrwt beam="2">  1       21 0.61071910E-02 0.12500000E+03</pdfrwt>
<totfact> 0.72288458E+06</totfact>
</mgrwt>
</event>
<event>
 3    1  0.1604658E-001  0.1250000E+03  0.7546771E-02  0.1235069E+00
         21   -1    0    0  502  501  0.00000000000E+00  0.00000000000E+00  0.97579397936E+01  0.97579397936E+01  0.00000000000E+00 0. -1.
         21   -1    0    0  501  502 -0.00000000000E+00 -0.00000000000E+00 -0.40031503398E+03  0.40031503398E+03  0.00000000000E+00 0. -1.
         25    1    1    2    0    0  0.00000000000E+00  0.00000000000E+00 -0.39055709418E+03  0.41007297377E+03  0.12500000000E+03 0.  0.
<mgrwt>
<rscale>  0 0.12500000E+03</rscale>
<asrwt>0</asrwt>
<pdfrwt beam="1">  1       21 0.15012216E-02 0.12500000E+03</pdfrwt>
<pdfrwt beam="2">  1       21 0.61586924E-01 0.12500000E+03</pdfrwt>
<totfact> 0.47380322E+06</totfact>
</mgrwt>
</event>
<event>
 3    1  0.1604658E-001  0.1250000E+03  0.7546771E-02  0.1235069E+00
         21   -1    0    0  502  501  0.00000000000E+00  0.00000000000E+00  0.15346404206E+02  0.15346404206E+02  0.00000000000E+00 0. -1.
         21   -1    0    0  501  502 -0.00000000000E+00 -0.00000000000E+00 -0.25453845394E+03  0.25453845394E+03  0.00000000000E+00 0. -1.
         25    1    1    2    0    0  0.00000000000E+00  0.00000000000E+00 -0.23919204973E+03  0.26988485814E+03  0.12500000000E+03 0.  0.
<mgrwt>
<rscale>  0 0.12500000E+03</rscale>
<asrwt>0</asrwt>
<pdfrwt beam="1">  1       21 0.23609853E-02 0.12500000E+03</pdfrwt>
<pdfrwt beam="2">  1       21 0.39159761E-01 0.12500000E+03</pdfrwt>
<totfact> 0.58054947E+06</totfact>
</mgrwt>
</event>
<event>
 3    1  0.1604658E-001  0.1250000E+03  0.7546771E-02  0.1235069E+00
         21   -1    0    0  502  501  0.00000000000E+00  0.00000000000E+00  0.37091287987E+01  0.37091287987E+01  0.00000000000E+00 0.  1.
         21   -1    0    0  501  502 -0.00000000000E+00 -0.00000000000E+00 -0.10531448790E+04  0.10531448790E+04  0.00000000000E+00 0.  1.
         25    1    1    2    0    0  0.00000000000E+00  0.00000000000E+00 -0.10494357502E+04  0.10568540078E+04  0.12500000000E+03 0.  0.
<mgrwt>
<rscale>  0 0.12500000E+03</rscale>
<asrwt>0</asrwt>
<pdfrwt beam="1">  1       21 0.57063583E-03 0.12500000E+03</pdfrwt>
<pdfrwt beam="2">  1       21 0.16202211E+00 0.12500000E+03</pdfrwt>
<totfact> 0.22237392E+06</totfact>
</mgrwt>
</event>
<event>
 3    1  0.1604658E-001  0.1250000E+03  0.7546771E-02  0.1235069E+00
         21   -1    0    0  502  501  0.00000000000E+00  0.00000000000E+00  0.53393083272E+01  0.53393083272E+01  0.00000000000E+00 0.  1.
         21   -1    0    0  501  502 -0.00000000000E+00 -0.00000000000E+00 -0.73160225270E+03  0.73160225270E+03  0.00000000000E+00 0.  1.
         25    1    1    2    0    0  0.00000000000E+00  0.00000000000E+00 -0.72626294437E+03  0.73694156102E+03  0.12500000000E+03 0.  0.
<mgrwt>
<rscale>  0 0.12500000E+03</rscale>
<asrwt>0</asrwt>
<pdfrwt beam="1">  1       21 0.82143266E-03 0.12500000E+03</pdfrwt>
<pdfrwt beam="2">  1       21 0.11255411E+00 0.12500000E+03</pdfrwt>
<totfact> 0.31533584E+06</totfact>
</mgrwt>
</event>
<event>
 3    1  0.1604658E-001  0.1250000E+03  0.7546771E-02  0.1235069E+00
         21   -1    0    0  502  501  0.00000000000E+00  0.00000000000E+00  0.73224032918E+02  0.73224032918E+02  0.00000000000E+00 0.  1.
         21   -1    0    0  501  502 -0.00000000000E+00 -0.00000000000E+00 -0.53346556374E+02  0.53346556374E+02  0.00000000000E+00 0.  1.
         25    1    1    2    0    0  0.00000000000E+00  0.00000000000E+00  0.19877476543E+02  0.12657058929E+03  0.12500000000E+03 0.  0.
<mgrwt>
<rscale>  0 0.12500000E+03</rscale>
<asrwt>0</asrwt>
<pdfrwt beam="1">  1       21 0.11265236E-01 0.12500000E+03</pdfrwt>
<pdfrwt beam="2">  1       21 0.82071625E-02 0.12500000E+03</pdfrwt>
<totfact> 0.73827717E+06</totfact>
</mgrwt>
</event>
<event>
 3    1  0.1604658E-001  0.1250000E+03  0.7546771E-02  0.1235069E+00
         21   -1    0    0  502  501  0.00000000000E+00  0.00000000000E+00  0.17472347446E+03  0.17472347446E+03  0.00000000000E+00 0.  1.
         21   -1    0    0  501  502 -0.00000000000E+00 -0.00000000000E+00 -0.22356755508E+02  0.22356755508E+02  0.00000000000E+00 0.  1.
         25    1    1    2    0    0  0.00000000000E+00  0.00000000000E+00  0.15236671895E+03  0.19708022997E+03  0.12500000000E+03 0.  0.
<mgrwt>
<rscale>  0 0.12500000E+03</rscale>
<asrwt>0</asrwt>
<pdfrwt beam="1">  1       21 0.26880534E-01 0.12500000E+03</pdfrwt>
<pdfrwt beam="2">  1       21 0.34395010E-02 0.12500000E+03</pdfrwt>
<totfact> 0.65244065E+06</totfact>
</mgrwt>
</event>
<event>
 3    1  0.1604658E-001  0.1250000E+03  0.7546771E-02  0.1235069E+00
         21   -1    0    0  502  501  0.00000000000E+00  0.00000000000E+00  0.29480452545E+01  0.29480452545E+01  0.00000000000E+00 0.  1.
         21   -1    0    0  501  502 -0.00000000000E+00 -0.00000000000E+00 -0.13250305415E+04  0.13250305415E+04  0.00000000000E+00 0.  1.
         25    1    1    2    0    0  0.00000000000E+00  0.00000000000E+00 -0.13220824963E+04  0.13279785868E+04  0.12500000000E+03 0.  0.
<mgrwt>
<rscale>  0 0.12500000E+03</rscale>
<asrwt>0</asrwt>
<pdfrwt beam="1">  1       21 0.45354362E-03 0.12500000E+03</pdfrwt>
<pdfrwt beam="2">  1       21 0.20385166E+00 0.12500000E+03</pdfrwt>
<totfact> 0.16757266E+06</totfact>
</mgrwt>
</event>
<event>
 3    1  0.1604658E-001  0.1250000E+03  0.7546771E-02  0.1235069E+00
         21   -1    0    0  502  501  0.00000000000E+00  0.00000000000E+00  0.12984089464E+02  0.12984089464E+02  0.00000000000E+00 0. -1.
         21   -1    0    0  501  502 -0.00000000000E+00 -0.00000000000E+00 -0.30084897450E+03  0.30084897450E+03  0.00000000000E+00 0. -1.
         25    1    1    2    0    0  0.00000000000E+00  0.00000000000E+00 -0.28786488504E+03  0.31383306396E+03  0.12500000000E+03 0.  0.
<mgrwt>
<rscale>  0 0.12500000E+03</rscale>
<asrwt>0</asrwt>
<pdfrwt beam="1">  1       21 0.19975522E-02 0.12500000E+03</pdfrwt>
<pdfrwt beam="2">  1       21 0.46284458E-01 0.12500000E+03</pdfrwt>
<totfact> 0.54325687E+06</totfact>
</mgrwt>
</event>
<event>
 3    1  0.1604658E-001  0.1250000E+03  0.7546771E-02  0.1235069E+00
         21   -1    0    0  502  501  0.00000000000E+00  0.00000000000E+00  0.28191909629E+04  0.28191909629E+04  0.00000000000E+00 0.  1.
         21   -1    0    0  501  502 -0.00000000000E+00 -0.00000000000E+00 -0.13855925517E+01  0.13855925517E+01  0.00000000000E+00 0.  1.
         25    1    1    2    0    0  0.00000000000E+00  0.00000000000E+00  0.28178053703E+04  0.28205765554E+04  0.12500000000E+03 0.  0.
<mgrwt>
<rscale>  0 0.12500000E+03</rscale>
<asrwt>0</asrwt>
<pdfrwt beam="1">  1       21 0.43371710E+00 0.12500000E+03</pdfrwt>
<pdfrwt beam="2">  1       21 0.21317034E-03 0.12500000E+03</pdfrwt>
<totfact> 0.23936695E+05</totfact>
</mgrwt>
</event>
<event>
 3    1  0.1604658E-001  0.1250000E+03  0.7546771E-02  0.1235069E+00
         21   -1    0    0  502  501  0.00000000000E+00  0.00000000000E+00  0.17429321200E+03  0.17429321200E+03  0.00000000000E+00 0.  1.
         21   -1    0    0  501  502 -0.00000000000E+00 -0.00000000000E+00 -0.22411945682E+02  0.22411945682E+02  0.00000000000E+00 0.  1.
         25    1    1    2    0    0  0.00000000000E+00  0.00000000000E+00  0.15188126632E+03  0.19670515768E+03  0.12500000000E+03 0.  0.
<mgrwt>
<rscale>  0 0.12500000E+03</rscale>
<asrwt>0</asrwt>
<pdfrwt beam="1">  1       21 0.26814339E-01 0.12500000E+03</pdfrwt>
<pdfrwt beam="2">  1       21 0.34479918E-02 0.12500000E+03</pdfrwt>
<totfact> 0.65284881E+06</totfact>
</mgrwt>
</event>
<event>
 3    1  0.1604658E-001  0.1250000E+03  0.7546771E-02  0.1235069E+00
         21   -1    0    0  502  501  0.00000000000E+00  0.00000000000E+00  0.25823898282E+02  0.25823898282E+02  0.00000000000E+00 0.  1.
         21   -1    0    0  501  502 -0.00000000000E+00 -0.00000000000E+00 -0.15126492357E+03  0.15126492357E+03  0.00000000000E+00 0.  1.
         25    1    1    2    0    0  0.00000000000E+00  0.00000000000E+00 -0.12544102529E+03  0.17708882186E+03  0.12500000000E+03 0.  0.
<mgrwt>
<rscale>  0 0.12500000E+03</rscale>
<asrwt>0</asrwt>
<pdfrwt beam="1">  1       21 0.39729074E-02 0.12500000E+03</pdfrwt>
<pdfrwt beam="2">  1       21 0.23271527E-01 0.12500000E+03</pdfrwt>
<totfact> 0.67487077E+06</totfact>
</mgrwt>
</event>
<event>
 3    1  0.1604658E-001  0.1250000E+03  0.7546771E-02  0.1235069E+00
         21   -1    0    0  502  501  0.00000000000E+00  0.00000000000E+00  0.17167082591E+01  0.17167082591E+01  0.00000000000E+00 0.  1.
         21   -1    0    0  501  502 -0.00000000000E+00 -0.00000000000E+00 -0.22754303064E+04  0.22754303064E+04  0.00000000000E+00 0.  1.
         25    1    1    2    0    0  0.00000000000E+00  0.00000000000E+00 -0.22737135981E+04  0.22771470147E+04  0.12500000000E+03 0.  0.
<mgrwt>
<rscale>  0 0.12500000E+03</rscale>
<asrwt>0</asrwt>
<pdfrwt beam="1">  1       21 0.26410795E-03 0.12500000E+03</pdfrwt>
<pdfrwt beam="2">  1       21 0.35006755E+00 0.12500000E+03</pdfrwt>
<totfact> 0.55473578E+05</totfact>
</mgrwt>
</event>
