<event>
 4    1  0.1100959E+000  0.2223807E+03  0.7546771E-02  0.1132120E+00
         21   -1    0    0  503  502  0.00000000000E+00  0.00000000000E+00  0.15124485657E+03  0.15124485657E+03  0.00000000000E+00 0.  1.
         21   -1    0    0  501  503 -0.00000000000E+00 -0.00000000000E+00 -0.36040112377E+03  0.36040112377E+03  0.00000000000E+00 0. -1.
          6    1    1    2  501    0  0.64823855472E+02 -0.12516814895E+03 -0.18248815858E+03  0.28767190647E+03  0.17200000000E+03 0.  1.
         -6    1    1    2    0  502 -0.64823855472E+02  0.12516814895E+03 -0.26668108622E+02  0.22397407387E+03  0.17200000000E+03 0.  1.
<mgrwt>
<rscale>  2 0.22238075E+03</rscale>
<asrwt>0</asrwt>
<pdfrwt beam="1">  1       21 0.37811215E-01 0.22238075E+03</pdfrwt>
<pdfrwt beam="2">  1       21 0.90100280E-01 0.22238075E+03</pdfrwt>
<totfact> 0.69196986E+03</totfact>
</mgrwt>
</event>
<event>
 4    1  0.1100959E+000  0.3034741E+03  0.7546771E-02  0.1083517E+00
         21   -1    0    0  501  502  0.00000000000E+00  0.00000000000E+00  0.14770024723E+03  0.14770024723E+03  0.00000000000E+00 0. -1.
         21   -1    0    0  502  503 -0.00000000000E+00 -0.00000000000E+00 -0.10703300947E+04  0.10703300947E+04  0.00000000000E+00 0.  1.
          6    1    1    2  501    0 -0.10856477885E+03 -0.22522475129E+03 -0.67834892657E+02  0.31096313682E+03  0.17200000000E+03 0. -1.
         -6    1    1    2    0  503  0.10856477885E+03  0.22522475129E+03 -0.85479495479E+03  0.90706720508E+03  0.17200000000E+03 0.  1.
<mgrwt>
<rscale>  2 0.30347405E+03</rscale>
<asrwt>0</asrwt>
<pdfrwt beam="1">  1       21 0.36925062E-01 0.30347405E+03</pdfrwt>
<pdfrwt beam="2">  1       21 0.26758252E+00 0.30347405E+03</pdfrwt>
<totfact> 0.32836788E+02</totfact>
</mgrwt>
</event>
<event>
 4    1  0.1100959E+000  0.2042945E+03  0.7546771E-02  0.1146166E+00
         21   -1    0    0  503  502  0.00000000000E+00  0.00000000000E+00  0.10497857905E+03  0.10497857905E+03  0.00000000000E+00 0. -1.
         21   -1    0    0  501  503 -0.00000000000E+00 -0.00000000000E+00 -0.40087276509E+03  0.40087276509E+03  0.00000000000E+00 0.  1.
          6    1    1    2  501    0 -0.10735483641E+03  0.25043288800E+02 -0.17090832272E+03  0.26635668189E+03  0.17200000000E+03 0.  1.
         -6    1    1    2    0  502  0.10735483641E+03 -0.25043288800E+02 -0.12498586332E+03  0.23949466224E+03  0.17200000000E+03 0. -1.
<mgrwt>
<rscale>  2 0.20429446E+03</rscale>
<asrwt>0</asrwt>
<pdfrwt beam="1">  1       21 0.26244645E-01 0.20429446E+03</pdfrwt>
<pdfrwt beam="2">  1       21 0.10021819E+00 0.20429446E+03</pdfrwt>
<totfact> 0.11182021E+04</totfact>
</mgrwt>
</event>
<event>
 4    1  0.1100959E+000  0.2193248E+03  0.7546771E-02  0.1134387E+00
         21   -1    0    0  501  502  0.00000000000E+00  0.00000000000E+00  0.16298607502E+03  0.16298607502E+03  0.00000000000E+00 0.  1.
         21   -1    0    0  502  503 -0.00000000000E+00 -0.00000000000E+00 -0.32350277806E+03  0.32350277806E+03  0.00000000000E+00 0.  1.
          6    1    1    2  501    0 -0.22318804414E+02  0.13424323753E+03 -0.82315751009E+01  0.21947923519E+03  0.17200000000E+03 0.  1.
         -6    1    1    2    0  503  0.22318804414E+02 -0.13424323753E+03 -0.15228512794E+03  0.26700961789E+03  0.17200000000E+03 0.  1.
<mgrwt>
<rscale>  2 0.21932482E+03</rscale>
<asrwt>0</asrwt>
<pdfrwt beam="1">  1       21 0.40746519E-01 0.21932482E+03</pdfrwt>
<pdfrwt beam="2">  1       21 0.80875694E-01 0.21932482E+03</pdfrwt>
<totfact> 0.76411321E+03</totfact>
</mgrwt>
</event>
<event>
 4    1  0.1100959E+000  0.2277944E+03  0.7546771E-02  0.1128202E+00
         21   -1    0    0  503  502  0.00000000000E+00  0.00000000000E+00  0.56731229206E+02  0.56731229206E+02  0.00000000000E+00 0.  1.
         21   -1    0    0  501  503 -0.00000000000E+00 -0.00000000000E+00 -0.91539825743E+03  0.91539825743E+03  0.00000000000E+00 0.  1.
          6    1    1    2  501    0  0.12320771628E+03  0.84416614500E+02 -0.41561586103E+03  0.47394815127E+03  0.17200000000E+03 0.  1.
         -6    1    1    2    0  502 -0.12320771628E+03 -0.84416614500E+02 -0.44305116719E+03  0.49818133537E+03  0.17200000000E+03 0.  1.
<mgrwt>
<rscale>  2 0.22779444E+03</rscale>
<asrwt>0</asrwt>
<pdfrwt beam="1">  1       21 0.14182807E-01 0.22779444E+03</pdfrwt>
<pdfrwt beam="2">  1       21 0.22884957E+00 0.22779444E+03</pdfrwt>
<totfact> 0.37313504E+03</totfact>
</mgrwt>
</event>
<event>
 4    1  0.1100959E+000  0.1907836E+03  0.7546771E-02  0.1157757E+00
         21   -1    0    0  501  502  0.00000000000E+00  0.00000000000E+00  0.16654899096E+03  0.16654899096E+03  0.00000000000E+00 0. -1.
         21   -1    0    0  502  503 -0.00000000000E+00 -0.00000000000E+00 -0.74957059860E+03  0.74957059860E+03  0.00000000000E+00 0. -1.
          6    1    1    2  501    0 -0.25983819079E+02  0.78353110056E+02  0.94033089625E+02  0.21269835602E+03  0.17200000000E+03 0. -1.
         -6    1    1    2    0  503  0.25983819079E+02 -0.78353110056E+02 -0.67705469727E+03  0.70342123354E+03  0.17200000000E+03 0. -1.
<mgrwt>
<rscale>  2 0.19078357E+03</rscale>
<asrwt>0</asrwt>
<pdfrwt beam="1">  1       21 0.41637248E-01 0.19078357E+03</pdfrwt>
<pdfrwt beam="2">  1       21 0.18739265E+00 0.19078357E+03</pdfrwt>
<totfact> 0.90315932E+02</totfact>
</mgrwt>
</event>
<event>
 4    1  0.1100959E+000  0.2066669E+03  0.7546771E-02  0.1144233E+00
         21   -1    0    0  503  502  0.00000000000E+00  0.00000000000E+00  0.26833638915E+03  0.26833638915E+03  0.00000000000E+00 0.  1.
         21   -1    0    0  501  503 -0.00000000000E+00 -0.00000000000E+00 -0.20601042228E+03  0.20601042228E+03  0.00000000000E+00 0.  1.
          6    1    1    2  501    0  0.51431102011E+02 -0.10238180356E+03 -0.81928593244E+02  0.22231393646E+03  0.17200000000E+03 0.  1.
         -6    1    1    2    0  502 -0.51431102011E+02  0.10238180356E+03  0.14425456011E+03  0.25203287498E+03  0.17200000000E+03 0.  1.
<mgrwt>
<rscale>  2 0.20666686E+03</rscale>
<asrwt>0</asrwt>
<pdfrwt beam="1">  1       21 0.67084097E-01 0.20666686E+03</pdfrwt>
<pdfrwt beam="2">  1       21 0.51502606E-01 0.20666686E+03</pdfrwt>
<totfact> 0.72131140E+03</totfact>
</mgrwt>
</event>
<event>
 4    1  0.1100959E+000  0.2007875E+03  0.7546771E-02  0.1149076E+00
         21   -1    0    0  501  502  0.00000000000E+00  0.00000000000E+00  0.56229400601E+02  0.56229400601E+02  0.00000000000E+00 0.  1.
         21   -1    0    0  502  503 -0.00000000000E+00 -0.00000000000E+00 -0.90630723610E+03  0.90630723610E+03  0.00000000000E+00 0.  1.
          6    1    1    2  501    0  0.10023665362E+03  0.26157765706E+02 -0.20507532845E+03  0.28700436543E+03  0.17200000000E+03 0.  1.
         -6    1    1    2    0  503 -0.10023665362E+03 -0.26157765706E+02 -0.64500250705E+03  0.67553227127E+03  0.17200000000E+03 0.  1.
<mgrwt>
<rscale>  2 0.20078749E+03</rscale>
<asrwt>0</asrwt>
<pdfrwt beam="1">  1       21 0.14057350E-01 0.20078749E+03</pdfrwt>
<pdfrwt beam="2">  1       21 0.22657681E+00 0.20078749E+03</pdfrwt>
<totfact> 0.40155434E+03</totfact>
</mgrwt>
</event>
<event>
 4    1  0.1100959E+000  0.1990772E+03  0.7546771E-02  0.1150520E+00
         21   -1    0    0  501  502  0.00000000000E+00  0.00000000000E+00  0.25971199850E+03  0.25971199850E+03  0.00000000000E+00 0. -1.
         21   -1    0    0  502  503 -0.00000000000E+00 -0.00000000000E+00 -0.34020061797E+03  0.34020061797E+03  0.00000000000E+00 0. -1.
          6    1    1    2  501    0 -0.60081066520E+02  0.80237125688E+02  0.18250122647E+03  0.27007115462E+03  0.17200000000E+03 0. -1.
         -6    1    1    2    0  503  0.60081066520E+02 -0.80237125688E+02 -0.26298984594E+03  0.32984146186E+03  0.17200000000E+03 0. -1.
<mgrwt>
<rscale>  2 0.19907720E+03</rscale>
<asrwt>0</asrwt>
<pdfrwt beam="1">  1       21 0.64928000E-01 0.19907720E+03</pdfrwt>
<pdfrwt beam="2">  1       21 0.85050154E-01 0.19907720E+03</pdfrwt>
<totfact> 0.25998070E+03</totfact>
</mgrwt>
</event>
<event>
 4    1  0.1100959E+000  0.2174417E+03  0.7546771E-02  0.1135805E+00
         21   -1    0    0  503  502  0.00000000000E+00  0.00000000000E+00  0.16468894085E+03  0.16468894085E+03  0.00000000000E+00 0. -1.
         21   -1    0    0  501  503 -0.00000000000E+00 -0.00000000000E+00 -0.31779505956E+03  0.31779505956E+03  0.00000000000E+00 0. -1.
          6    1    1    2  501    0 -0.13044085140E+02  0.13238855097E+03 -0.15687815906E+01  0.21744732158E+03  0.17200000000E+03 0. -1.
         -6    1    1    2    0  502  0.13044085140E+02 -0.13238855097E+03 -0.15153733712E+03  0.26503667884E+03  0.17200000000E+03 0. -1.
<mgrwt>
<rscale>  2 0.21744166E+03</rscale>
<asrwt>0</asrwt>
<pdfrwt beam="1">  1       21 0.41172236E-01 0.21744166E+03</pdfrwt>
<pdfrwt beam="2">  1       21 0.79448764E-01 0.21744166E+03</pdfrwt>
<totfact> 0.77994729E+03</totfact>
</mgrwt>
</event>
<event>
 4    1  0.1100959E+000  0.1780950E+03  0.7546771E-02  0.1169660E+00
         21   -1    0    0  503  502  0.00000000000E+00  0.00000000000E+00  0.22277243207E+03  0.22277243207E+03  0.00000000000E+00 0.  1.
         21   -1    0    0  501  503 -0.00000000000E+00 -0.00000000000E+00 -0.17817873674E+03  0.17817873674E+03  0.00000000000E+00 0.  1.
          6    1    1    2  501    0 -0.24056351193E+02 -0.39434920376E+02 -0.67566274282E+02  0.19048102897E+03  0.17200000000E+03 0.  1.
         -6    1    1    2    0  502  0.24056351193E+02  0.39434920376E+02  0.11215996961E+03  0.21047013983E+03  0.17200000000E+03 0.  1.
<mgrwt>
<rscale>  2 0.17809498E+03</rscale>
<asrwt>0</asrwt>
<pdfrwt beam="1">  1       21 0.55693108E-01 0.17809498E+03</pdfrwt>
<pdfrwt beam="2">  1       21 0.44544684E-01 0.17809498E+03</pdfrwt>
<totfact> 0.14835158E+04</totfact>
</mgrwt>
</event>
<event>
 4    1  0.1100959E+000  0.1915573E+03  0.7546771E-02  0.1157064E+00
         21   -1    0    0  503  502  0.00000000000E+00  0.00000000000E+00  0.26143306564E+03  0.26143306564E+03  0.00000000000E+00 0.  1.
         21   -1    0    0  501  503 -0.00000000000E+00 -0.00000000000E+00 -0.14792783206E+03  0.14792783206E+03  0.00000000000E+00 0. -1.
          6    1    1    2  501    0  0.66986950310E+02 -0.51214697090E+02  0.10305435941E+03  0.21751872955E+03  0.17200000000E+03 0.  1.
         -6    1    1    2    0  502 -0.66986950310E+02  0.51214697090E+02  0.10450874164E+02  0.19184216815E+03  0.17200000000E+03 0. -1.
<mgrwt>
<rscale>  2 0.19155729E+03</rscale>
<asrwt>0</asrwt>
<pdfrwt beam="1">  1       21 0.65358266E-01 0.19155729E+03</pdfrwt>
<pdfrwt beam="2">  1       21 0.36981958E-01 0.19155729E+03</pdfrwt>
<totfact> 0.15197556E+04</totfact>
</mgrwt>
</event>
<event>
 4    1  0.1100959E+000  0.1913483E+03  0.7546771E-02  0.1157251E+00
         21   -1    0    0  503  502  0.00000000000E+00  0.00000000000E+00  0.46753359257E+02  0.46753359257E+02  0.00000000000E+00 0. -1.
         21   -1    0    0  501  503 -0.00000000000E+00 -0.00000000000E+00 -0.78654143567E+03  0.78654143567E+03  0.00000000000E+00 0. -1.
          6    1    1    2  501    0  0.78442125213E+02  0.29614543880E+02 -0.34247431126E+03  0.39230452724E+03  0.17200000000E+03 0. -1.
         -6    1    1    2    0  502 -0.78442125213E+02 -0.29614543880E+02 -0.39731376515E+03  0.44099026768E+03  0.17200000000E+03 0. -1.
<mgrwt>
<rscale>  2 0.19134834E+03</rscale>
<asrwt>0</asrwt>
<pdfrwt beam="1">  1       21 0.11688340E-01 0.19134834E+03</pdfrwt>
<pdfrwt beam="2">  1       21 0.19663535E+00 0.19134834E+03</pdfrwt>
<totfact> 0.86915626E+03</totfact>
</mgrwt>
</event>
<event>
 4    1  0.1100959E+000  0.1853001E+03  0.7546771E-02  0.1162770E+00
         21   -1    0    0  503  502  0.00000000000E+00  0.00000000000E+00  0.65608914788E+02  0.65608914788E+02  0.00000000000E+00 0. -1.
         21   -1    0    0  501  503 -0.00000000000E+00 -0.00000000000E+00 -0.57916695639E+03  0.57916695639E+03  0.00000000000E+00 0.  1.
          6    1    1    2  501    0 -0.44746650967E+02  0.52439317387E+02 -0.15669226388E+03  0.24266975572E+03  0.17200000000E+03 0. -1.
         -6    1    1    2    0  502  0.44746650967E+02 -0.52439317387E+02 -0.35686577772E+03  0.40210611546E+03  0.17200000000E+03 0.  1.
<mgrwt>
<rscale>  2 0.18530015E+03</rscale>
<asrwt>0</asrwt>
<pdfrwt beam="1">  1       21 0.16402229E-01 0.18530015E+03</pdfrwt>
<pdfrwt beam="2">  1       21 0.14479174E+00 0.18530015E+03</pdfrwt>
<totfact> 0.10984269E+04</totfact>
</mgrwt>
</event>
<event>
 4    1  0.1100959E+000  0.2207252E+03  0.7546771E-02  0.1133344E+00
         21   -1    0    0  503  502  0.00000000000E+00  0.00000000000E+00  0.22775313253E+03  0.22775313253E+03  0.00000000000E+00 0.  1.
         21   -1    0    0  501  503 -0.00000000000E+00 -0.00000000000E+00 -0.21393460106E+03  0.21393460106E+03  0.00000000000E+00 0.  1.
          6    1    1    2  501    0  0.65919912443E+01  0.13817436903E+03  0.90701713576E+01  0.22091147235E+03  0.17200000000E+03 0.  1.
         -6    1    1    2    0  502 -0.65919912443E+01 -0.13817436903E+03  0.47483601125E+01  0.22077626125E+03  0.17200000000E+03 0.  1.
<mgrwt>
<rscale>  2 0.22072519E+03</rscale>
<asrwt>0</asrwt>
<pdfrwt beam="1">  1       21 0.56938283E-01 0.22072519E+03</pdfrwt>
<pdfrwt beam="2">  1       21 0.53483650E-01 0.22072519E+03</pdfrwt>
<totfact> 0.94103019E+03</totfact>
</mgrwt>
</event>
<event>
 4    1  0.1100959E+000  0.1852384E+03  0.7546771E-02  0.1162827E+00
         21   -1    0    0  503  502  0.00000000000E+00  0.00000000000E+00  0.28670573591E+03  0.28670573591E+03  0.00000000000E+00 0.  1.
         21   -1    0    0  501  503 -0.00000000000E+00 -0.00000000000E+00 -0.15670116492E+03  0.15670116492E+03  0.00000000000E+00 0.  1.
          6    1    1    2  501    0 -0.70210402483E+01 -0.68410435080E+02 -0.42756929903E+02  0.19010901527E+03  0.17200000000E+03 0.  1.
         -6    1    1    2    0  502  0.70210402483E+01  0.68410435080E+02  0.17276150090E+03  0.25329788555E+03  0.17200000000E+03 0.  1.
<mgrwt>
<rscale>  2 0.18523845E+03</rscale>
<asrwt>0</asrwt>
<pdfrwt beam="1">  1       21 0.71676433E-01 0.18523845E+03</pdfrwt>
<pdfrwt beam="2">  1       21 0.39175292E-01 0.18523845E+03</pdfrwt>
<totfact> 0.11102571E+04</totfact>
</mgrwt>
</event>
<event>
 4    1  0.1100959E+000  0.2020125E+03  0.7546771E-02  0.1148052E+00
         21   -1    0    0  503  502  0.00000000000E+00  0.00000000000E+00  0.45745788249E+03  0.45745788249E+03  0.00000000000E+00 0.  1.
         21   -1    0    0  501  503 -0.00000000000E+00 -0.00000000000E+00 -0.16341727565E+03  0.16341727565E+03  0.00000000000E+00 0.  1.
          6    1    1    2  501    0 -0.27888804986E+02 -0.10221182633E+03 -0.62175758623E+02  0.21136430126E+03  0.17200000000E+03 0.  1.
         -6    1    1    2    0  502  0.27888804986E+02  0.10221182633E+03  0.35621636547E+03  0.40951085689E+03  0.17200000000E+03 0.  1.
<mgrwt>
<rscale>  2 0.20201248E+03</rscale>
<asrwt>0</asrwt>
<pdfrwt beam="1">  1       21 0.11436447E+00 0.20201248E+03</pdfrwt>
<pdfrwt beam="2">  1       21 0.40854320E-01 0.20201248E+03</pdfrwt>
<totfact> 0.34023878E+03</totfact>
</mgrwt>
</event>
<event>
 4    1  0.1100959E+000  0.2206126E+03  0.7546771E-02  0.1133427E+00
         21   -1    0    0  501  502  0.00000000000E+00  0.00000000000E+00  0.19059318458E+03  0.19059318458E+03  0.00000000000E+00 0.  1.
         21   -1    0    0  502  503 -0.00000000000E+00 -0.00000000000E+00 -0.52950200723E+03  0.52950200723E+03  0.00000000000E+00 0. -1.
          6    1    1    2  501    0 -0.53594366478E+02 -0.12733257411E+03  0.89613506314E+02  0.23811871212E+03  0.17200000000E+03 0.  1.
         -6    1    1    2    0  503  0.53594366478E+02  0.12733257411E+03 -0.42852232896E+03  0.48197647968E+03  0.17200000000E+03 0. -1.
<mgrwt>
<rscale>  2 0.22061265E+03</rscale>
<asrwt>0</asrwt>
<pdfrwt beam="1">  1       21 0.47648297E-01 0.22061265E+03</pdfrwt>
<pdfrwt beam="2">  1       21 0.13237550E+00 0.22061265E+03</pdfrwt>
<totfact> 0.16949853E+03</totfact>
</mgrwt>
</event>
<event>
 4    1  0.1100959E+000  0.1856260E+03  0.7546771E-02  0.1162467E+00
         21   -1    0    0  501  502  0.00000000000E+00  0.00000000000E+00  0.42771230087E+03  0.42771230087E+03  0.00000000000E+00 0. -1.
         21   -1    0    0  502  503 -0.00000000000E+00 -0.00000000000E+00 -0.11386103977E+03  0.11386103977E+03  0.00000000000E+00 0. -1.
          6    1    1    2  501    0 -0.31692058507E+02  0.62198202182E+02  0.30336605662E+03  0.35565146877E+03  0.17200000000E+03 0. -1.
         -6    1    1    2    0  503  0.31692058507E+02 -0.62198202182E+02  0.10485204481E+02  0.18592187187E+03  0.17200000000E+03 0. -1.
<mgrwt>
<rscale>  2 0.18562598E+03</rscale>
<asrwt>0</asrwt>
<pdfrwt beam="1">  1       21 0.10692807E+00 0.18562598E+03</pdfrwt>
<pdfrwt beam="2">  1       21 0.28465261E-01 0.18562598E+03</pdfrwt>
<totfact> 0.82955846E+03</totfact>
</mgrwt>
</event>
<event>
 4    1  0.1100959E+000  0.1842973E+03  0.7546771E-02  0.1163708E+00
         21   -1    0    0  503  502  0.00000000000E+00  0.00000000000E+00  0.96291576445E+02  0.96291576445E+02  0.00000000000E+00 0.  1.
         21   -1    0    0  501  503 -0.00000000000E+00 -0.00000000000E+00 -0.36847794788E+03  0.36847794788E+03  0.00000000000E+00 0.  1.
          6    1    1    2  501    0 -0.66092909771E+02  0.36379564316E+01 -0.18412520594E+03  0.26051410501E+03  0.17200000000E+03 0.  1.
         -6    1    1    2    0  502  0.66092909771E+02 -0.36379564316E+01 -0.88061165495E+02  0.20425541931E+03  0.17200000000E+03 0.  1.
<mgrwt>
<rscale>  2 0.18429733E+03</rscale>
<asrwt>0</asrwt>
<pdfrwt beam="1">  1       21 0.24072894E-01 0.18429733E+03</pdfrwt>
<pdfrwt beam="2">  1       21 0.92119486E-01 0.18429733E+03</pdfrwt>
<totfact> 0.16288287E+04</totfact>
</mgrwt>
</event>
<event>
 4    1  0.1100959E+000  0.1721226E+03  0.7546771E-02  0.1175652E+00
         21   -1    0    0  503  502  0.00000000000E+00  0.00000000000E+00  0.71579598057E+02  0.71579598057E+02  0.00000000000E+00 0. -1.
         21   -1    0    0  501  503 -0.00000000000E+00 -0.00000000000E+00 -0.68903865714E+03  0.68903865714E+03  0.00000000000E+00 0. -1.
          6    1    1    2  501    0 -0.53150285570E+01  0.37337306643E+01 -0.54905369126E+03  0.57540085693E+03  0.17200000000E+03 0. -1.
         -6    1    1    2    0  502  0.53150285570E+01 -0.37337306643E+01 -0.68405367827E+02  0.18521739827E+03  0.17200000000E+03 0. -1.
<mgrwt>
<rscale>  2 0.17212260E+03</rscale>
<asrwt>0</asrwt>
<pdfrwt beam="1">  1       21 0.17894900E-01 0.17212260E+03</pdfrwt>
<pdfrwt beam="2">  1       21 0.17225966E+00 0.17212260E+03</pdfrwt>
<totfact> 0.59470132E+03</totfact>
</mgrwt>
</event>
<event>
 4    1  0.1100959E+000  0.1849584E+03  0.7546771E-02  0.1163089E+00
         21   -1    0    0  503  502  0.00000000000E+00  0.00000000000E+00  0.11374728578E+03  0.11374728578E+03  0.00000000000E+00 0. -1.
         21   -1    0    0  501  503 -0.00000000000E+00 -0.00000000000E+00 -0.35896085267E+03  0.35896085267E+03  0.00000000000E+00 0. -1.
          6    1    1    2  501    0  0.19850259141E+02  0.65050644902E+02 -0.21778498332E+03  0.28572699933E+03  0.17200000000E+03 0. -1.
         -6    1    1    2    0  502 -0.19850259141E+02 -0.65050644902E+02 -0.27428583574E+02  0.18698113912E+03  0.17200000000E+03 0. -1.
<mgrwt>
<rscale>  2 0.18495843E+03</rscale>
<asrwt>0</asrwt>
<pdfrwt beam="1">  1       21 0.28436822E-01 0.18495843E+03</pdfrwt>
<pdfrwt beam="2">  1       21 0.89740212E-01 0.18495843E+03</pdfrwt>
<totfact> 0.12569806E+04</totfact>
</mgrwt>
</event>
<event>
 4    1  0.1100959E+000  0.1927212E+03  0.7546771E-02  0.1156030E+00
         21   -1    0    0  501  502  0.00000000000E+00  0.00000000000E+00  0.13755896099E+03  0.13755896099E+03  0.00000000000E+00 0. -1.
         21   -1    0    0  502  503 -0.00000000000E+00 -0.00000000000E+00 -0.27652079489E+03  0.27652079489E+03  0.00000000000E+00 0.  1.
          6    1    1    2  501    0  0.72966109094E+02  0.47258795904E+02 -0.10126521774E+03  0.21770643351E+03  0.17200000000E+03 0.  1.
         -6    1    1    2    0  503 -0.72966109094E+02 -0.47258795904E+02 -0.37696616159E+02  0.19637332236E+03  0.17200000000E+03 0. -1.
<mgrwt>
<rscale>  2 0.19272116E+03</rscale>
<asrwt>0</asrwt>
<pdfrwt beam="1">  1       21 0.34389740E-01 0.19272116E+03</pdfrwt>
<pdfrwt beam="2">  1       21 0.69130198E-01 0.19272116E+03</pdfrwt>
<totfact> 0.15520699E+04</totfact>
</mgrwt>
</event>
<event>
 4    1  0.1100959E+000  0.1852712E+03  0.7546771E-02  0.1162797E+00
         21   -1    0    0  501  502  0.00000000000E+00  0.00000000000E+00  0.16534282194E+03  0.16534282194E+03  0.00000000000E+00 0. -1.
         21   -1    0    0  502  503 -0.00000000000E+00 -0.00000000000E+00 -0.28057115987E+03  0.28057115987E+03  0.00000000000E+00 0.  1.
          6    1    1    2  501    0  0.68848931425E+02  0.11134544962E+01  0.56088534360E+02  0.19357515033E+03  0.17200000000E+03 0. -1.
         -6    1    1    2    0  503 -0.68848931425E+02 -0.11134544962E+01 -0.17131687229E+03  0.25233883148E+03  0.17200000000E+03 0. -1.
<mgrwt>
<rscale>  2 0.18527119E+03</rscale>
<asrwt>0</asrwt>
<pdfrwt beam="1">  1       21 0.41335706E-01 0.18527119E+03</pdfrwt>
<pdfrwt beam="2">  1       21 0.70142789E-01 0.18527119E+03</pdfrwt>
<totfact> 0.10448549E+04</totfact>
</mgrwt>
</event>
<event>
 4    1  0.1100959E+000  0.1801360E+03  0.7546771E-02  0.1167672E+00
         21   -1    0    0  501  502  0.00000000000E+00  0.00000000000E+00  0.70013580831E+03  0.70013580831E+03  0.00000000000E+00 0. -1.
         21   -1    0    0  502  503 -0.00000000000E+00 -0.00000000000E+00 -0.28320019240E+03  0.28320019240E+03  0.00000000000E+00 0. -1.
          6    1    1    2  501    0  0.47495534500E+02 -0.24680711949E+02  0.65810796975E+03  0.68231595554E+03  0.17200000000E+03 0. -1.
         -6    1    1    2    0  503 -0.47495534500E+02  0.24680711949E+02 -0.24117235384E+03  0.30102004517E+03  0.17200000000E+03 0. -1.
<mgrwt>
<rscale>  2 0.18013596E+03</rscale>
<asrwt>0</asrwt>
<pdfrwt beam="1">  1       21 0.17503395E+00 0.18013596E+03</pdfrwt>
<pdfrwt beam="2">  1       21 0.70800050E-01 0.18013596E+03</pdfrwt>
<totfact> 0.36131931E+02</totfact>
</mgrwt>
</event>
<event>
 4    1  0.1100959E+000  0.2406184E+03  0.7546771E-02  0.1119382E+00
         21   -1    0    0  503  502  0.00000000000E+00  0.00000000000E+00  0.10114107367E+03  0.10114107367E+03  0.00000000000E+00 0. -1.
         21   -1    0    0  501  503 -0.00000000000E+00 -0.00000000000E+00 -0.59207191897E+03  0.59207191897E+03  0.00000000000E+00 0. -1.
          6    1    1    2  501    0  0.16790294972E+03 -0.11036687058E+02 -0.30857996625E+03  0.39130397974E+03  0.17200000000E+03 0. -1.
         -6    1    1    2    0  502 -0.16790294972E+03  0.11036687058E+02 -0.18235087904E+03  0.30190901291E+03  0.17200000000E+03 0. -1.
<mgrwt>
<rscale>  2 0.24061839E+03</rscale>
<asrwt>0</asrwt>
<pdfrwt beam="1">  1       21 0.25285269E-01 0.24061839E+03</pdfrwt>
<pdfrwt beam="2">  1       21 0.14801798E+00 0.24061839E+03</pdfrwt>
<totfact> 0.44183128E+03</totfact>
</mgrwt>
</event>
<event>
 4    1  0.1100959E+000  0.2000085E+03  0.7546771E-02  0.1149732E+00
         21   -1    0    0  503  502  0.00000000000E+00  0.00000000000E+00  0.10726306322E+04  0.10726306322E+04  0.00000000000E+00 0.  1.
         21   -1    0    0  501  503 -0.00000000000E+00 -0.00000000000E+00 -0.48675678099E+02  0.48675678099E+02  0.00000000000E+00 0.  1.
          6    1    1    2  501    0  0.34668216326E+01  0.10201666164E+03  0.24087817053E+03  0.31309057977E+03  0.17200000000E+03 0.  1.
         -6    1    1    2    0  502 -0.34668216326E+01 -0.10201666164E+03  0.78307678358E+03  0.80821573054E+03  0.17200000000E+03 0.  1.
<mgrwt>
<rscale>  2 0.20000855E+03</rscale>
<asrwt>0</asrwt>
<pdfrwt beam="1">  1       21 0.26815758E+00 0.20000855E+03</pdfrwt>
<pdfrwt beam="2">  1       21 0.12168923E-01 0.20000855E+03</pdfrwt>
<totfact> 0.29570966E+03</totfact>
</mgrwt>
</event>
<event>
 4    1  0.1100959E+000  0.1725766E+03  0.7546771E-02  0.1175187E+00
         21   -1    0    0  501  502  0.00000000000E+00  0.00000000000E+00  0.11321958703E+03  0.11321958703E+03  0.00000000000E+00 0. -1.
         21   -1    0    0  502  503 -0.00000000000E+00 -0.00000000000E+00 -0.34314189361E+03  0.34314189361E+03  0.00000000000E+00 0. -1.
          6    1    1    2  501    0 -0.14073768423E+02 -0.78332023586E+00 -0.47235211794E+01  0.17264123552E+03  0.17200000000E+03 0. -1.
         -6    1    1    2    0  503  0.14073768423E+02  0.78332023586E+00 -0.22519878540E+03  0.28372024513E+03  0.17200000000E+03 0. -1.
<mgrwt>
<rscale>  2 0.17257660E+03</rscale>
<asrwt>0</asrwt>
<pdfrwt beam="1">  1       21 0.28304897E-01 0.17257660E+03</pdfrwt>
<pdfrwt beam="2">  1       21 0.85785473E-01 0.17257660E+03</pdfrwt>
<totfact> 0.14186760E+04</totfact>
</mgrwt>
</event>
<event>
 4    1  0.1100959E+000  0.2535454E+03  0.7546771E-02  0.1111085E+00
         21   -1    0    0  501  502  0.00000000000E+00  0.00000000000E+00  0.23165745577E+03  0.23165745577E+03  0.00000000000E+00 0. -1.
         21   -1    0    0  502  503 -0.00000000000E+00 -0.00000000000E+00 -0.32323093151E+03  0.32323093151E+03  0.00000000000E+00 0. -1.
          6    1    1    2  501    0 -0.13597986074E+03 -0.12732138672E+03 -0.15014282092E+03  0.29466612414E+03  0.17200000000E+03 0. -1.
         -6    1    1    2    0  503  0.13597986074E+03  0.12732138672E+03  0.58569345176E+02  0.26022226315E+03  0.17200000000E+03 0. -1.
<mgrwt>
<rscale>  2 0.25354538E+03</rscale>
<asrwt>0</asrwt>
<pdfrwt beam="1">  1       21 0.57914364E-01 0.25354538E+03</pdfrwt>
<pdfrwt beam="2">  1       21 0.80807732E-01 0.25354538E+03</pdfrwt>
<totfact> 0.35931678E+03</totfact>
</mgrwt>
</event>
<event>
 4    1  0.1100959E+000  0.1920354E+03  0.7546771E-02  0.1156638E+00
         21   -1    0    0  503  502  0.00000000000E+00  0.00000000000E+00  0.33659003225E+03  0.33659003225E+03  0.00000000000E+00 0. -1.
         21   -1    0    0  501  503 -0.00000000000E+00 -0.00000000000E+00 -0.11585524136E+03  0.11585524136E+03  0.00000000000E+00 0. -1.
          6    1    1    2  501    0 -0.44023137100E+02 -0.73181746214E+02  0.57644124750E+02  0.20050049800E+03  0.17200000000E+03 0. -1.
         -6    1    1    2    0  502  0.44023137100E+02  0.73181746214E+02  0.16309066614E+03  0.25194477562E+03  0.17200000000E+03 0. -1.
<mgrwt>
<rscale>  2 0.19203543E+03</rscale>
<asrwt>0</asrwt>
<pdfrwt beam="1">  1       21 0.84147506E-01 0.19203543E+03</pdfrwt>
<pdfrwt beam="2">  1       21 0.28963811E-01 0.19203543E+03</pdfrwt>
<totfact> 0.13997335E+04</totfact>
</mgrwt>
</event>
<event>
 4    1  0.1100959E+000  0.1843566E+03  0.7546771E-02  0.1163652E+00
         21   -1    0    0  503  502  0.00000000000E+00  0.00000000000E+00  0.88050878471E+02  0.88050878471E+02  0.00000000000E+00 0. -1.
         21   -1    0    0  501  503 -0.00000000000E+00 -0.00000000000E+00 -0.38866956304E+03  0.38866956304E+03  0.00000000000E+00 0. -1.
          6    1    1    2  501    0 -0.44197888011E+02  0.49496386784E+02 -0.13054262490E+03  0.22589537960E+03  0.17200000000E+03 0. -1.
         -6    1    1    2    0  502  0.44197888011E+02 -0.49496386784E+02 -0.17007605966E+03  0.25082506191E+03  0.17200000000E+03 0. -1.
<mgrwt>
<rscale>  2 0.18435657E+03</rscale>
<asrwt>0</asrwt>
<pdfrwt beam="1">  1       21 0.22012720E-01 0.18435657E+03</pdfrwt>
<pdfrwt beam="2">  1       21 0.97167389E-01 0.18435657E+03</pdfrwt>
<totfact> 0.17030194E+04</totfact>
</mgrwt>
</event>
<event>
 4    1  0.1100959E+000  0.1829593E+03  0.7546771E-02  0.1164969E+00
         21   -1    0    0  501  502  0.00000000000E+00  0.00000000000E+00  0.23796004251E+03  0.23796004251E+03  0.00000000000E+00 0. -1.
         21   -1    0    0  502  503 -0.00000000000E+00 -0.00000000000E+00 -0.16319611363E+03  0.16319611363E+03  0.00000000000E+00 0. -1.
          6    1    1    2  501    0 -0.49583318620E+02  0.37836627121E+02  0.11189984378E+03  0.21446605996E+03  0.17200000000E+03 0. -1.
         -6    1    1    2    0  503  0.49583318620E+02 -0.37836627121E+02 -0.37135914900E+02  0.18669009618E+03  0.17200000000E+03 0. -1.
<mgrwt>
<rscale>  2 0.18295933E+03</rscale>
<asrwt>0</asrwt>
<pdfrwt beam="1">  1       21 0.59490010E-01 0.18295933E+03</pdfrwt>
<pdfrwt beam="2">  1       21 0.40799029E-01 0.18295933E+03</pdfrwt>
<totfact> 0.15366669E+04</totfact>
</mgrwt>
</event>
<event>
 4    1  0.1100959E+000  0.1862412E+03  0.7546771E-02  0.1161896E+00
         21   -1    0    0  501  502  0.00000000000E+00  0.00000000000E+00  0.69699859684E+02  0.69699859684E+02  0.00000000000E+00 0. -1.
         21   -1    0    0  502  503 -0.00000000000E+00 -0.00000000000E+00 -0.54424018413E+03  0.54424018413E+03  0.00000000000E+00 0. -1.
          6    1    1    2  501    0  0.37299622660E+02  0.60914149649E+02 -0.14745067112E+03  0.23754472398E+03  0.17200000000E+03 0. -1.
         -6    1    1    2    0  503 -0.37299622660E+02 -0.60914149649E+02 -0.32708965333E+03  0.37639531984E+03  0.17200000000E+03 0. -1.
<mgrwt>
<rscale>  2 0.18624123E+03</rscale>
<asrwt>0</asrwt>
<pdfrwt beam="1">  1       21 0.17424965E-01 0.18624123E+03</pdfrwt>
<pdfrwt beam="2">  1       21 0.13606005E+00 0.18624123E+03</pdfrwt>
<totfact> 0.11532845E+04</totfact>
</mgrwt>
</event>
<event>
 4    1  0.1100959E+000  0.1737101E+03  0.7546771E-02  0.1174033E+00
         21   -1    0    0  501  502  0.00000000000E+00  0.00000000000E+00  0.29169311577E+03  0.29169311577E+03  0.00000000000E+00 0.  1.
         21   -1    0    0  502  503 -0.00000000000E+00 -0.00000000000E+00 -0.19461772271E+03  0.19461772271E+03  0.00000000000E+00 0.  1.
          6    1    1    2  501    0 -0.18466811882E+02 -0.15817340884E+02  0.21496206502E+03  0.27637637528E+03  0.17200000000E+03 0.  1.
         -6    1    1    2    0  503  0.18466811882E+02  0.15817340884E+02 -0.11788667196E+03  0.20993446320E+03  0.17200000000E+03 0.  1.
<mgrwt>
<rscale>  2 0.17371014E+03</rscale>
<asrwt>0</asrwt>
<pdfrwt beam="1">  1       21 0.72923278E-01 0.17371014E+03</pdfrwt>
<pdfrwt beam="2">  1       21 0.48654431E-01 0.17371014E+03</pdfrwt>
<totfact> 0.69247478E+03</totfact>
</mgrwt>
</event>
<event>
 4    1  0.1100959E+000  0.2387506E+03  0.7546771E-02  0.1120628E+00
         21   -1    0    0  503  502  0.00000000000E+00  0.00000000000E+00  0.83940143923E+02  0.83940143923E+02  0.00000000000E+00 0.  1.
         21   -1    0    0  501  503 -0.00000000000E+00 -0.00000000000E+00 -0.69236269318E+03  0.69236269318E+03  0.00000000000E+00 0.  1.
          6    1    1    2  501    0  0.10018544481E+03 -0.13183591773E+03 -0.25044323161E+03  0.34601104724E+03  0.17200000000E+03 0.  1.
         -6    1    1    2    0  502 -0.10018544481E+03  0.13183591773E+03 -0.35797931764E+03  0.43029178985E+03  0.17200000000E+03 0.  1.
<mgrwt>
<rscale>  2 0.23875057E+03</rscale>
<asrwt>0</asrwt>
<pdfrwt beam="1">  1       21 0.20985037E-01 0.23875057E+03</pdfrwt>
<pdfrwt beam="2">  1       21 0.17309067E+00 0.23875057E+03</pdfrwt>
<totfact> 0.41223902E+03</totfact>
</mgrwt>
</event>
<event>
 4    1  0.1100959E+000  0.2161764E+03  0.7546771E-02  0.1136766E+00
         21   -1    0    0  501  502  0.00000000000E+00  0.00000000000E+00  0.50701039182E+03  0.50701039182E+03  0.00000000000E+00 0.  1.
         21   -1    0    0  502  503 -0.00000000000E+00 -0.00000000000E+00 -0.17291072489E+03  0.17291072489E+03  0.00000000000E+00 0.  1.
          6    1    1    2  501    0 -0.69981222139E+02  0.11068366010E+03  0.39935457545E+03  0.45411047224E+03  0.17200000000E+03 0.  1.
         -6    1    1    2    0  503  0.69981222139E+02 -0.11068366010E+03 -0.65254908528E+02  0.22581064446E+03  0.17200000000E+03 0.  1.
<mgrwt>
<rscale>  2 0.21617642E+03</rscale>
<asrwt>0</asrwt>
<pdfrwt beam="1">  1       21 0.12675259E+00 0.21617642E+03</pdfrwt>
<pdfrwt beam="2">  1       21 0.43227682E-01 0.21617642E+03</pdfrwt>
<totfact> 0.23214685E+03</totfact>
</mgrwt>
</event>
<event>
 4    1  0.1100959E+000  0.3298634E+03  0.7546771E-02  0.1071197E+00
         21   -1    0    0  503  502  0.00000000000E+00  0.00000000000E+00  0.77588194628E+03  0.77588194628E+03  0.00000000000E+00 0.  1.
         21   -1    0    0  501  503 -0.00000000000E+00 -0.00000000000E+00 -0.20072536565E+03  0.20072536565E+03  0.00000000000E+00 0. -1.
          6    1    1    2  501    0 -0.31888674314E+02  0.27965870755E+03  0.55562661352E+03  0.64616624325E+03  0.17200000000E+03 0.  1.
         -6    1    1    2    0  502  0.31888674314E+02 -0.27965870755E+03  0.19529967114E+02  0.33044106868E+03  0.17200000000E+03 0.  1.
<mgrwt>
<rscale>  2 0.32986343E+03</rscale>
<asrwt>0</asrwt>
<pdfrwt beam="1">  1       21 0.19397048E+00 0.32986343E+03</pdfrwt>
<pdfrwt beam="2">  1       21 0.50181343E-01 0.32986343E+03</pdfrwt>
<totfact> 0.49032999E+02</totfact>
</mgrwt>
</event>
<event>
 4    1  0.1100959E+000  0.1744833E+03  0.7546771E-02  0.1173252E+00
         21   -1    0    0  503  502  0.00000000000E+00  0.00000000000E+00  0.53462221208E+02  0.53462221208E+02  0.00000000000E+00 0.  1.
         21   -1    0    0  501  503 -0.00000000000E+00 -0.00000000000E+00 -0.61471460689E+03  0.61471460689E+03  0.00000000000E+00 0.  1.
          6    1    1    2  501    0 -0.14838695856E+02  0.25302592065E+02 -0.37127726772E+03  0.41023312590E+03  0.17200000000E+03 0.  1.
         -6    1    1    2    0  502  0.14838695856E+02 -0.25302592065E+02 -0.18997511797E+03  0.25794370221E+03  0.17200000000E+03 0.  1.
<mgrwt>
<rscale>  2 0.17448326E+03</rscale>
<asrwt>0</asrwt>
<pdfrwt beam="1">  1       21 0.13365556E-01 0.17448326E+03</pdfrwt>
<pdfrwt beam="2">  1       21 0.15367865E+00 0.17448326E+03</pdfrwt>
<totfact> 0.13740634E+04</totfact>
</mgrwt>
</event>
<event>
 4    1  0.1100959E+000  0.2248191E+03  0.7546771E-02  0.1130340E+00
         21   -1    0    0  503  502  0.00000000000E+00  0.00000000000E+00  0.29494767770E+03  0.29494767770E+03  0.00000000000E+00 0.  1.
         21   -1    0    0  501  503 -0.00000000000E+00 -0.00000000000E+00 -0.18878684337E+03  0.18878684337E+03  0.00000000000E+00 0.  1.
          6    1    1    2  501    0 -0.10361777574E+03 -0.10110884642E+03 -0.20394835227E+02  0.22574231233E+03  0.17200000000E+03 0.  1.
         -6    1    1    2    0  502  0.10361777574E+03  0.10110884642E+03  0.12655566955E+03  0.25799220874E+03  0.17200000000E+03 0.  1.
<mgrwt>
<rscale>  2 0.22481913E+03</rscale>
<asrwt>0</asrwt>
<pdfrwt beam="1">  1       21 0.73736919E-01 0.22481913E+03</pdfrwt>
<pdfrwt beam="2">  1       21 0.47196711E-01 0.22481913E+03</pdfrwt>
<totfact> 0.69336120E+03</totfact>
</mgrwt>
</event>
<event>
 4    1  0.1100959E+000  0.1911342E+03  0.7546771E-02  0.1157442E+00
         21   -1    0    0  503  502  0.00000000000E+00  0.00000000000E+00  0.94962100071E+02  0.94962100071E+02  0.00000000000E+00 0. -1.
         21   -1    0    0  501  503 -0.00000000000E+00 -0.00000000000E+00 -0.44115476828E+03  0.44115476828E+03  0.00000000000E+00 0. -1.
          6    1    1    2  501    0 -0.18296262626E+02 -0.81323570393E+02 -0.26898557148E+03  0.32997805077E+03  0.17200000000E+03 0. -1.
         -6    1    1    2    0  502  0.18296262626E+02  0.81323570393E+02 -0.77207096731E+02  0.20613881758E+03  0.17200000000E+03 0. -1.
<mgrwt>
<rscale>  2 0.19113418E+03</rscale>
<asrwt>0</asrwt>
<pdfrwt beam="1">  1       21 0.23740525E-01 0.19113418E+03</pdfrwt>
<pdfrwt beam="2">  1       21 0.11028869E+00 0.19113418E+03</pdfrwt>
<totfact> 0.10858514E+04</totfact>
</mgrwt>
</event>
<event>
 4    1  0.1100959E+000  0.1893930E+03  0.7546771E-02  0.1159010E+00
         21   -1    0    0  501  502  0.00000000000E+00  0.00000000000E+00  0.49465565597E+03  0.49465565597E+03  0.00000000000E+00 0. -1.
         21   -1    0    0  502  503 -0.00000000000E+00 -0.00000000000E+00 -0.79495568793E+02  0.79495568793E+02  0.00000000000E+00 0. -1.
          6    1    1    2  501    0 -0.43523185294E+02  0.66267969955E+02  0.29265182963E+03  0.34858973721E+03  0.17200000000E+03 0. -1.
         -6    1    1    2    0  503  0.43523185294E+02 -0.66267969955E+02  0.12250825754E+03  0.22556148755E+03  0.17200000000E+03 0. -1.
<mgrwt>
<rscale>  2 0.18939301E+03</rscale>
<asrwt>0</asrwt>
<pdfrwt beam="1">  1       21 0.12366391E+00 0.18939301E+03</pdfrwt>
<pdfrwt beam="2">  1       21 0.19873894E-01 0.18939301E+03</pdfrwt>
<totfact> 0.11471973E+04</totfact>
</mgrwt>
</event>
<event>
 4    1  0.1100959E+000  0.1871869E+03  0.7546771E-02  0.1161023E+00
         21   -1    0    0  501  502  0.00000000000E+00  0.00000000000E+00  0.40512507396E+03  0.40512507396E+03  0.00000000000E+00 0. -1.
         21   -1    0    0  502  503 -0.00000000000E+00 -0.00000000000E+00 -0.13745398871E+03  0.13745398871E+03  0.00000000000E+00 0. -1.
          6    1    1    2  501    0 -0.71067615109E+02  0.20107862445E+02 -0.31356680077E+02  0.18979508275E+03  0.17200000000E+03 0. -1.
         -6    1    1    2    0  503  0.71067615109E+02 -0.20107862445E+02  0.29902776534E+03  0.35278397992E+03  0.17200000000E+03 0. -1.
<mgrwt>
<rscale>  2 0.18718689E+03</rscale>
<asrwt>0</asrwt>
<pdfrwt beam="1">  1       21 0.10128127E+00 0.18718689E+03</pdfrwt>
<pdfrwt beam="2">  1       21 0.34363498E-01 0.18718689E+03</pdfrwt>
<totfact> 0.65270384E+03</totfact>
</mgrwt>
</event>
<event>
 4    1  0.1100959E+000  0.2455005E+03  0.7546771E-02  0.1116182E+00
         21   -1    0    0  503  502  0.00000000000E+00  0.00000000000E+00  0.74117963505E+03  0.74117963505E+03  0.00000000000E+00 0. -1.
         21   -1    0    0  501  503 -0.00000000000E+00 -0.00000000000E+00 -0.83067465358E+02  0.83067465358E+02  0.00000000000E+00 0. -1.
          6    1    1    2  501    0 -0.62508483602E+02  0.16364349644E+03  0.26923025906E+03  0.36435619501E+03  0.17200000000E+03 0. -1.
         -6    1    1    2    0  502  0.62508483602E+02 -0.16364349644E+03  0.38888191063E+03  0.45989090540E+03  0.17200000000E+03 0. -1.
<mgrwt>
<rscale>  2 0.24550052E+03</rscale>
<asrwt>0</asrwt>
<pdfrwt beam="1">  1       21 0.18529489E+00 0.24550052E+03</pdfrwt>
<pdfrwt beam="2">  1       21 0.20766869E-01 0.24550052E+03</pdfrwt>
<totfact> 0.34466171E+03</totfact>
</mgrwt>
</event>
<event>
 4    1  0.1100959E+000  0.2043685E+03  0.7546771E-02  0.1146105E+00
         21   -1    0    0  501  502  0.00000000000E+00  0.00000000000E+00  0.38174374108E+02  0.38174374108E+02  0.00000000000E+00 0. -1.
         21   -1    0    0  502  503 -0.00000000000E+00 -0.00000000000E+00 -0.10941602463E+04  0.10941602463E+04  0.00000000000E+00 0. -1.
          6    1    1    2  501    0  0.10154618866E+03 -0.43253315522E+02 -0.52369696341E+03  0.56216099760E+03  0.17200000000E+03 0. -1.
         -6    1    1    2    0  503 -0.10154618866E+03  0.43253315522E+02 -0.53228890875E+03  0.57017362278E+03  0.17200000000E+03 0. -1.
<mgrwt>
<rscale>  2 0.20436849E+03</rscale>
<asrwt>0</asrwt>
<pdfrwt beam="1">  1       21 0.95435938E-02 0.20436849E+03</pdfrwt>
<pdfrwt beam="2">  1       21 0.27354005E+00 0.20436849E+03</pdfrwt>
<totfact> 0.42186100E+03</totfact>
</mgrwt>
</event>
<event>
 4    1  0.1100959E+000  0.1729641E+03  0.7546771E-02  0.1174792E+00
         21   -1    0    0  503  502  0.00000000000E+00  0.00000000000E+00  0.73125747236E+02  0.73125747236E+02  0.00000000000E+00 0. -1.
         21   -1    0    0  501  503 -0.00000000000E+00 -0.00000000000E+00 -0.43199736235E+03  0.43199736235E+03  0.00000000000E+00 0. -1.
          6    1    1    2  501    0 -0.17498342847E+02  0.51371354892E+01 -0.23756718209E+03  0.29386178413E+03  0.17200000000E+03 0. -1.
         -6    1    1    2    0  502  0.17498342847E+02 -0.51371354892E+01 -0.12130443302E+03  0.21126132546E+03  0.17200000000E+03 0. -1.
<mgrwt>
<rscale>  2 0.17296411E+03</rscale>
<asrwt>0</asrwt>
<pdfrwt beam="1">  1       21 0.18281437E-01 0.17296411E+03</pdfrwt>
<pdfrwt beam="2">  1       21 0.10799934E+00 0.17296411E+03</pdfrwt>
<totfact> 0.18863374E+04</totfact>
</mgrwt>
</event>
<event>
 4    1  0.1100959E+000  0.1966522E+03  0.7546771E-02  0.1152595E+00
         21   -1    0    0  503  502  0.00000000000E+00  0.00000000000E+00  0.10234559068E+03  0.10234559068E+03  0.00000000000E+00 0. -1.
         21   -1    0    0  501  503 -0.00000000000E+00 -0.00000000000E+00 -0.12078694049E+04  0.12078694049E+04  0.00000000000E+00 0. -1.
          6    1    1    2  501    0  0.80465924984E+02 -0.51120780335E+02 -0.10958179016E+04  0.11133233909E+04  0.17200000000E+03 0. -1.
         -6    1    1    2    0  502 -0.80465924984E+02  0.51120780335E+02 -0.97059126496E+01  0.19689160471E+03  0.17200000000E+03 0. -1.
<mgrwt>
<rscale>  2 0.19665223E+03</rscale>
<asrwt>0</asrwt>
<pdfrwt beam="1">  1       21 0.25586398E-01 0.19665223E+03</pdfrwt>
<pdfrwt beam="2">  1       21 0.30196734E+00 0.19665223E+03</pdfrwt>
<totfact> 0.47914598E+02</totfact>
</mgrwt>
</event>
<event>
 4    1  0.1100959E+000  0.1919078E+03  0.7546771E-02  0.1156752E+00
         21   -1    0    0  503  502  0.00000000000E+00  0.00000000000E+00  0.20351671950E+03  0.20351671950E+03  0.00000000000E+00 0. -1.
         21   -1    0    0  501  503 -0.00000000000E+00 -0.00000000000E+00 -0.29450917150E+03  0.29450917150E+03  0.00000000000E+00 0. -1.
          6    1    1    2  501    0  0.15881822124E+02 -0.83620370261E+02 -0.20011509655E+03  0.27726278233E+03  0.17200000000E+03 0. -1.
         -6    1    1    2    0  502 -0.15881822124E+02  0.83620370261E+02  0.10912264456E+03  0.22076310867E+03  0.17200000000E+03 0. -1.
<mgrwt>
<rscale>  2 0.19190779E+03</rscale>
<asrwt>0</asrwt>
<pdfrwt beam="1">  1       21 0.50879180E-01 0.19190779E+03</pdfrwt>
<pdfrwt beam="2">  1       21 0.73627292E-01 0.19190779E+03</pdfrwt>
<totfact> 0.60910451E+03</totfact>
</mgrwt>
</event>
<event>
 4    1  0.1100959E+000  0.3964270E+03  0.7546771E-02  0.1045024E+00
         21   -1    0    0  501  502  0.00000000000E+00  0.00000000000E+00  0.17885563438E+04  0.17885563438E+04  0.00000000000E+00 0. -1.
         21   -1    0    0  502  503 -0.00000000000E+00 -0.00000000000E+00 -0.12514685262E+03  0.12514685262E+03  0.00000000000E+00 0.  1.
          6    1    1    2  501    0  0.11551688905E+02 -0.35698312057E+03  0.13539493508E+04  0.14107917049E+04  0.17200000000E+03 0. -1.
         -6    1    1    2    0  503 -0.11551688905E+02  0.35698312057E+03  0.30946014039E+03  0.50291149160E+03  0.17200000000E+03 0.  1.
<mgrwt>
<rscale>  2 0.39642703E+03</rscale>
<asrwt>0</asrwt>
<pdfrwt beam="1">  1       21 0.44713900E+00 0.39642703E+03</pdfrwt>
<pdfrwt beam="2">  1       21 0.31286719E-01 0.39642703E+03</pdfrwt>
<totfact> 0.32678899E+01</totfact>
</mgrwt>
</event>
<event>
 4    1  0.1100959E+000  0.1783428E+03  0.7546771E-02  0.1169417E+00
         21   -1    0    0  503  502  0.00000000000E+00  0.00000000000E+00  0.46469999727E+03  0.46469999727E+03  0.00000000000E+00 0. -1.
         21   -1    0    0  501  503 -0.00000000000E+00 -0.00000000000E+00 -0.17157376221E+03  0.17157376221E+03  0.00000000000E+00 0. -1.
          6    1    1    2  501    0 -0.41618076602E+02 -0.22138079915E+02 -0.10008598286E+03  0.20450761073E+03  0.17200000000E+03 0. -1.
         -6    1    1    2    0  502  0.41618076602E+02  0.22138079915E+02  0.39321221792E+03  0.43176614875E+03  0.17200000000E+03 0. -1.
<mgrwt>
<rscale>  2 0.17834281E+03</rscale>
<asrwt>0</asrwt>
<pdfrwt beam="1">  1       21 0.11617500E+00 0.17834281E+03</pdfrwt>
<pdfrwt beam="2">  1       21 0.42893441E-01 0.17834281E+03</pdfrwt>
<totfact> 0.30278056E+03</totfact>
</mgrwt>
</event>
<event>
 4    1  0.1100959E+000  0.1803221E+03  0.7546771E-02  0.1167492E+00
         21   -1    0    0  503  502  0.00000000000E+00  0.00000000000E+00  0.35587769342E+02  0.35587769342E+02  0.00000000000E+00 0. -1.
         21   -1    0    0  501  503 -0.00000000000E+00 -0.00000000000E+00 -0.97560677890E+03  0.97560677890E+03  0.00000000000E+00 0. -1.
          6    1    1    2  501    0  0.99663078060E+00 -0.54139284634E+02 -0.59738463994E+03  0.62400678157E+03  0.17200000000E+03 0.  1.
         -6    1    1    2    0  502 -0.99663078060E+00  0.54139284634E+02 -0.34263436962E+03  0.38718776667E+03  0.17200000000E+03 0.  1.
<mgrwt>
<rscale>  2 0.18032209E+03</rscale>
<asrwt>0</asrwt>
<pdfrwt beam="1">  1       21 0.88969432E-02 0.18032209E+03</pdfrwt>
<pdfrwt beam="2">  1       21 0.24390167E+00 0.18032209E+03</pdfrwt>
<totfact> 0.72897621E+03</totfact>
</mgrwt>
</event>
<event>
 4    1  0.1100959E+000  0.1902744E+03  0.7546771E-02  0.1158214E+00
         21   -1    0    0  501  502  0.00000000000E+00  0.00000000000E+00  0.70048290405E+03  0.70048290405E+03  0.00000000000E+00 0.  1.
         21   -1    0    0  502  503 -0.00000000000E+00 -0.00000000000E+00 -0.51965755782E+02  0.51965755782E+02  0.00000000000E+00 0.  1.
          6    1    1    2  501    0  0.78013366251E+02  0.23113757202E+02  0.35192121785E+03  0.40006608787E+03  0.17200000000E+03 0.  1.
         -6    1    1    2    0  503 -0.78013366251E+02 -0.23113757202E+02  0.29659593042E+03  0.35238257197E+03  0.17200000000E+03 0.  1.
<mgrwt>
<rscale>  2 0.19027436E+03</rscale>
<asrwt>0</asrwt>
<pdfrwt beam="1">  1       21 0.17512070E+00 0.19027436E+03</pdfrwt>
<pdfrwt beam="2">  1       21 0.12991441E-01 0.19027436E+03</pdfrwt>
<totfact> 0.10021600E+04</totfact>
</mgrwt>
</event>
<event>
 4    1  0.1100959E+000  0.1757247E+03  0.7546771E-02  0.1172006E+00
         21   -1    0    0  503  502  0.00000000000E+00  0.00000000000E+00  0.14307538179E+03  0.14307538179E+03  0.00000000000E+00 0.  1.
         21   -1    0    0  501  503 -0.00000000000E+00 -0.00000000000E+00 -0.21957858028E+03  0.21957858028E+03  0.00000000000E+00 0.  1.
          6    1    1    2  501    0  0.33406115899E+02  0.13386888153E+02 -0.61960824121E+02  0.18632852997E+03  0.17200000000E+03 0.  1.
         -6    1    1    2    0  502 -0.33406115899E+02 -0.13386888153E+02 -0.14542374368E+02  0.17632543210E+03  0.17200000000E+03 0.  1.
<mgrwt>
<rscale>  2 0.17572472E+03</rscale>
<asrwt>0</asrwt>
<pdfrwt beam="1">  1       21 0.35768846E-01 0.17572472E+03</pdfrwt>
<pdfrwt beam="2">  1       21 0.54894645E-01 0.17572472E+03</pdfrwt>
<totfact> 0.23836217E+04</totfact>
</mgrwt>
</event>
<event>
 4    1  0.1100959E+000  0.1780769E+03  0.7546771E-02  0.1169677E+00
         21   -1    0    0  503  502  0.00000000000E+00  0.00000000000E+00  0.35701032854E+02  0.35701032854E+02  0.00000000000E+00 0. -1.
         21   -1    0    0  501  503 -0.00000000000E+00 -0.00000000000E+00 -0.90087639312E+03  0.90087639312E+03  0.00000000000E+00 0.  1.
          6    1    1    2  501    0  0.29509106400E+02  0.35448234099E+02 -0.48803214566E+03  0.51950624622E+03  0.17200000000E+03 0.  1.
         -6    1    1    2    0  502 -0.29509106400E+02 -0.35448234099E+02 -0.37714321461E+03  0.41707117976E+03  0.17200000000E+03 0.  1.
<mgrwt>
<rscale>  2 0.17807685E+03</rscale>
<asrwt>0</asrwt>
<pdfrwt beam="1">  1       21 0.89252587E-02 0.17807685E+03</pdfrwt>
<pdfrwt beam="2">  1       21 0.22521909E+00 0.17807685E+03</pdfrwt>
<totfact> 0.93923794E+03</totfact>
</mgrwt>
</event>
<event>
 4    1  0.1100959E+000  0.1886465E+03  0.7546771E-02  0.1159688E+00
         21   -1    0    0  501  502  0.00000000000E+00  0.00000000000E+00  0.19067710015E+03  0.19067710015E+03  0.00000000000E+00 0. -1.
         21   -1    0    0  502  503 -0.00000000000E+00 -0.00000000000E+00 -0.20102940381E+03  0.20102940381E+03  0.00000000000E+00 0.  1.
          6    1    1    2  501    0  0.77261568719E+02  0.58428615004E+01 -0.57579709372E+02  0.19723821121E+03  0.17200000000E+03 0.  1.
         -6    1    1    2    0  503 -0.77261568719E+02 -0.58428615004E+01  0.47227405708E+02  0.19446829274E+03  0.17200000000E+03 0. -1.
<mgrwt>
<rscale>  2 0.18864647E+03</rscale>
<asrwt>0</asrwt>
<pdfrwt beam="1">  1       21 0.47669275E-01 0.18864647E+03</pdfrwt>
<pdfrwt beam="2">  1       21 0.50257351E-01 0.18864647E+03</pdfrwt>
<totfact> 0.15902285E+04</totfact>
</mgrwt>
</event>
<event>
 4    1  0.1100959E+000  0.2320160E+03  0.7546771E-02  0.1125229E+00
         21   -1    0    0  503  502  0.00000000000E+00  0.00000000000E+00  0.35711936309E+03  0.35711936309E+03  0.00000000000E+00 0. -1.
         21   -1    0    0  501  503 -0.00000000000E+00 -0.00000000000E+00 -0.18230003760E+03  0.18230003760E+03  0.00000000000E+00 0. -1.
          6    1    1    2  501    0  0.53991344872E+02  0.14605601841E+03 -0.24814489705E+02  0.23333920531E+03  0.17200000000E+03 0. -1.
         -6    1    1    2    0  502 -0.53991344872E+02 -0.14605601841E+03  0.19963381519E+03  0.30608019538E+03  0.17200000000E+03 0. -1.
<mgrwt>
<rscale>  2 0.23201600E+03</rscale>
<asrwt>0</asrwt>
<pdfrwt beam="1">  1       21 0.89279840E-01 0.23201600E+03</pdfrwt>
<pdfrwt beam="2">  1       21 0.45575010E-01 0.23201600E+03</pdfrwt>
<totfact> 0.47984506E+03</totfact>
</mgrwt>
</event>
<event>
 4    1  0.1100959E+000  0.1958074E+03  0.7546771E-02  0.1153325E+00
         21   -1    0    0  501  502  0.00000000000E+00  0.00000000000E+00  0.10145671367E+03  0.10145671367E+03  0.00000000000E+00 0. -1.
         21   -1    0    0  502  503 -0.00000000000E+00 -0.00000000000E+00 -0.46524205156E+03  0.46524205156E+03  0.00000000000E+00 0. -1.
          6    1    1    2  501    0 -0.83448015831E+02  0.42343658859E+02 -0.59122487242E+02  0.20453856675E+03  0.17200000000E+03 0. -1.
         -6    1    1    2    0  503  0.83448015831E+02 -0.42343658859E+02 -0.30466285065E+03  0.36216019848E+03  0.17200000000E+03 0. -1.
<mgrwt>
<rscale>  2 0.19580745E+03</rscale>
<asrwt>0</asrwt>
<pdfrwt beam="1">  1       21 0.25364178E-01 0.19580745E+03</pdfrwt>
<pdfrwt beam="2">  1       21 0.11631051E+00 0.19580745E+03</pdfrwt>
<totfact> 0.83828692E+03</totfact>
</mgrwt>
</event>
<event>
 4    1  0.1100959E+000  0.2570616E+03  0.7546771E-02  0.1108922E+00
         21   -1    0    0  503  502  0.00000000000E+00  0.00000000000E+00  0.59871584039E+03  0.59871584039E+03  0.00000000000E+00 0.  1.
         21   -1    0    0  501  503 -0.00000000000E+00 -0.00000000000E+00 -0.19221333380E+03  0.19221333380E+03  0.00000000000E+00 0.  1.
          6    1    1    2  501    0 -0.17185463787E+03 -0.83442360058E+02 -0.54799915409E+02  0.26283773461E+03  0.17200000000E+03 0.  1.
         -6    1    1    2    0  502  0.17185463787E+03  0.83442360058E+02  0.46130242200E+03  0.52809143957E+03  0.17200000000E+03 0.  1.
<mgrwt>
<rscale>  2 0.25706156E+03</rscale>
<asrwt>0</asrwt>
<pdfrwt beam="1">  1       21 0.14967896E+00 0.25706156E+03</pdfrwt>
<pdfrwt beam="2">  1       21 0.48053335E-01 0.25706156E+03</pdfrwt>
<totfact> 0.11738786E+03</totfact>
</mgrwt>
</event>
<event>
 4    1  0.1100959E+000  0.2207084E+03  0.7546771E-02  0.1133356E+00
         21   -1    0    0  503  502  0.00000000000E+00  0.00000000000E+00  0.39509507525E+02  0.39509507525E+02  0.00000000000E+00 0. -1.
         21   -1    0    0  501  503 -0.00000000000E+00 -0.00000000000E+00 -0.16878635934E+04  0.16878635934E+04  0.00000000000E+00 0. -1.
          6    1    1    2  501    0  0.14333326162E+01  0.13829734898E+03 -0.12725758605E+04  0.12915732778E+04  0.17200000000E+03 0. -1.
         -6    1    1    2    0  502 -0.14333326162E+01 -0.13829734898E+03 -0.37577822536E+03  0.43579982312E+03  0.17200000000E+03 0. -1.
<mgrwt>
<rscale>  2 0.22070843E+03</rscale>
<asrwt>0</asrwt>
<pdfrwt beam="1">  1       21 0.98773774E-02 0.22070843E+03</pdfrwt>
<pdfrwt beam="2">  1       21 0.42196588E+00 0.22070843E+03</pdfrwt>
<totfact> 0.50292333E+02</totfact>
</mgrwt>
</event>
<event>
 4    1  0.1100959E+000  0.2127535E+03  0.7546771E-02  0.1139404E+00
         21   -1    0    0  501  502  0.00000000000E+00  0.00000000000E+00  0.24095378368E+03  0.24095378368E+03  0.00000000000E+00 0.  1.
         21   -1    0    0  502  503 -0.00000000000E+00 -0.00000000000E+00 -0.48552622809E+03  0.48552622809E+03  0.00000000000E+00 0.  1.
          6    1    1    2  501    0 -0.91955981760E+02 -0.84995069449E+02  0.16213152375E+03  0.26748961738E+03  0.17200000000E+03 0.  1.
         -6    1    1    2    0  503  0.91955981760E+02  0.84995069449E+02 -0.40670396817E+03  0.45899039438E+03  0.17200000000E+03 0.  1.
<mgrwt>
<rscale>  2 0.21275353E+03</rscale>
<asrwt>0</asrwt>
<pdfrwt beam="1">  1       21 0.60238447E-01 0.21275353E+03</pdfrwt>
<pdfrwt beam="2">  1       21 0.12138156E+00 0.21275353E+03</pdfrwt>
<totfact> 0.12936649E+03</totfact>
</mgrwt>
</event>
<event>
 4    1  0.1100959E+000  0.2218890E+03  0.7546771E-02  0.1132482E+00
         21   -1    0    0  503  502  0.00000000000E+00  0.00000000000E+00  0.36774385009E+03  0.36774385009E+03  0.00000000000E+00 0. -1.
         21   -1    0    0  501  503 -0.00000000000E+00 -0.00000000000E+00 -0.13407283286E+03  0.13407283286E+03  0.00000000000E+00 0.  1.
          6    1    1    2  501    0  0.10636111490E+03 -0.91312962554E+02  0.12627041884E+03  0.25530170890E+03  0.17200000000E+03 0. -1.
         -6    1    1    2    0  502 -0.10636111490E+03  0.91312962554E+02  0.10740059839E+03  0.24651497405E+03  0.17200000000E+03 0. -1.
<mgrwt>
<rscale>  2 0.22188904E+03</rscale>
<asrwt>0</asrwt>
<pdfrwt beam="1">  1       21 0.91935960E-01 0.22188904E+03</pdfrwt>
<pdfrwt beam="2">  1       21 0.33518209E-01 0.22188904E+03</pdfrwt>
<totfact> 0.84003459E+03</totfact>
</mgrwt>
</event>
<event>
 4    1  0.1100959E+000  0.1758156E+03  0.7546771E-02  0.1171915E+00
         21   -1    0    0  503  502  0.00000000000E+00  0.00000000000E+00  0.12885779991E+03  0.12885779991E+03  0.00000000000E+00 0.  1.
         21   -1    0    0  501  503 -0.00000000000E+00 -0.00000000000E+00 -0.35582061857E+03  0.35582061857E+03  0.00000000000E+00 0.  1.
          6    1    1    2  501    0 -0.25705953618E+02  0.25813605495E+02 -0.25181107849E+03  0.30711554427E+03  0.17200000000E+03 0.  1.
         -6    1    1    2    0  502  0.25705953618E+02 -0.25813605495E+02  0.24848259829E+02  0.17756287421E+03  0.17200000000E+03 0.  1.
<mgrwt>
<rscale>  2 0.17581564E+03</rscale>
<asrwt>0</asrwt>
<pdfrwt beam="1">  1       21 0.32214450E-01 0.17581564E+03</pdfrwt>
<pdfrwt beam="2">  1       21 0.88955154E-01 0.17581564E+03</pdfrwt>
<totfact> 0.10125433E+04</totfact>
</mgrwt>
</event>
<event>
 4    1  0.1100959E+000  0.2521167E+03  0.7546771E-02  0.1111974E+00
         21   -1    0    0  501  502  0.00000000000E+00  0.00000000000E+00  0.51418541233E+03  0.51418541233E+03  0.00000000000E+00 0.  1.
         21   -1    0    0  502  503 -0.00000000000E+00 -0.00000000000E+00 -0.18156957384E+03  0.18156957384E+03  0.00000000000E+00 0. -1.
          6    1    1    2  501    0  0.11970317649E+03 -0.14017836392E+03  0.36284096136E+03  0.44183298588E+03  0.17200000000E+03 0.  1.
         -6    1    1    2    0  503 -0.11970317649E+03  0.14017836392E+03 -0.30225122869E+02  0.25392200028E+03  0.17200000000E+03 0. -1.
<mgrwt>
<rscale>  2 0.25211669E+03</rscale>
<asrwt>0</asrwt>
<pdfrwt beam="1">  1       21 0.12854635E+00 0.25211669E+03</pdfrwt>
<pdfrwt beam="2">  1       21 0.45392395E-01 0.25211669E+03</pdfrwt>
<totfact> 0.19699494E+03</totfact>
</mgrwt>
</event>
<event>
 4    1  0.1100959E+000  0.2491355E+03  0.7546771E-02  0.1113852E+00
         21   -1    0    0  503  502  0.00000000000E+00  0.00000000000E+00  0.16490731905E+03  0.16490731905E+03  0.00000000000E+00 0. -1.
         21   -1    0    0  501  503 -0.00000000000E+00 -0.00000000000E+00 -0.47281637815E+03  0.47281637815E+03  0.00000000000E+00 0.  1.
          6    1    1    2  501    0  0.85176090865E+01 -0.18003317440E+03 -0.29795619259E+03  0.38838947752E+03  0.17200000000E+03 0.  1.
         -6    1    1    2    0  502 -0.85176090865E+01  0.18003317440E+03 -0.99528665094E+01  0.24933421968E+03  0.17200000000E+03 0. -1.
<mgrwt>
<rscale>  2 0.24913549E+03</rscale>
<asrwt>0</asrwt>
<pdfrwt beam="1">  1       21 0.41226830E-01 0.24913549E+03</pdfrwt>
<pdfrwt beam="2">  1       21 0.11820409E+00 0.24913549E+03</pdfrwt>
<totfact> 0.29714850E+03</totfact>
</mgrwt>
</event>
<event>
 4    1  0.1100959E+000  0.2108390E+03  0.7546771E-02  0.1140903E+00
         21   -1    0    0  503  502  0.00000000000E+00  0.00000000000E+00  0.79756557986E+03  0.79756557986E+03  0.00000000000E+00 0. -1.
         21   -1    0    0  501  503 -0.00000000000E+00 -0.00000000000E+00 -0.69437397085E+02  0.69437397085E+02  0.00000000000E+00 0.  1.
          6    1    1    2  501    0  0.18760887533E+02  0.12048696082E+03  0.17149923544E+03  0.27178128409E+03  0.17200000000E+03 0.  1.
         -6    1    1    2    0  502 -0.18760887533E+02 -0.12048696082E+03  0.55662894734E+03  0.59522169285E+03  0.17200000000E+03 0. -1.
<mgrwt>
<rscale>  2 0.21083899E+03</rscale>
<asrwt>0</asrwt>
<pdfrwt beam="1">  1       21 0.19939137E+00 0.21083899E+03</pdfrwt>
<pdfrwt beam="2">  1       21 0.17359352E-01 0.21083899E+03</pdfrwt>
<totfact> 0.39988601E+03</totfact>
</mgrwt>
</event>
<event>
 4    1  0.1100959E+000  0.1905978E+03  0.7546771E-02  0.1157923E+00
         21   -1    0    0  503  502  0.00000000000E+00  0.00000000000E+00  0.20606863324E+03  0.20606863324E+03  0.00000000000E+00 0.  1.
         21   -1    0    0  501  503 -0.00000000000E+00 -0.00000000000E+00 -0.18712350646E+03  0.18712350646E+03  0.00000000000E+00 0. -1.
          6    1    1    2  501    0  0.70159654196E+02  0.42674824605E+02 -0.37834551527E+02  0.19431667716E+03  0.17200000000E+03 0.  1.
         -6    1    1    2    0  502 -0.70159654196E+02 -0.42674824605E+02  0.56779678313E+02  0.19887546254E+03  0.17200000000E+03 0.  1.
<mgrwt>
<rscale>  2 0.19059779E+03</rscale>
<asrwt>0</asrwt>
<pdfrwt beam="1">  1       21 0.51517158E-01 0.19059779E+03</pdfrwt>
<pdfrwt beam="2">  1       21 0.46780877E-01 0.19059779E+03</pdfrwt>
<totfact> 0.15680442E+04</totfact>
</mgrwt>
</event>
<event>
 4    1  0.1100959E+000  0.2249396E+03  0.7546771E-02  0.1130253E+00
         21   -1    0    0  503  502  0.00000000000E+00  0.00000000000E+00  0.11416093765E+04  0.11416093765E+04  0.00000000000E+00 0. -1.
         21   -1    0    0  501  503 -0.00000000000E+00 -0.00000000000E+00 -0.54700394487E+03  0.54700394487E+03  0.00000000000E+00 0. -1.
          6    1    1    2  501    0 -0.28051037723E+02  0.14222150311E+03 -0.51207613938E+03  0.55930294938E+03  0.17200000000E+03 0. -1.
         -6    1    1    2    0  502  0.28051037723E+02 -0.14222150311E+03  0.11066815710E+04  0.11293103720E+04  0.17200000000E+03 0. -1.
<mgrwt>
<rscale>  2 0.22493958E+03</rscale>
<asrwt>0</asrwt>
<pdfrwt beam="1">  1       21 0.28540234E+00 0.22493958E+03</pdfrwt>
<pdfrwt beam="2">  1       21 0.13675099E+00 0.22493958E+03</pdfrwt>
<totfact> 0.14871518E+01</totfact>
</mgrwt>
</event>
<event>
 4    1  0.1100959E+000  0.2426518E+03  0.7546771E-02  0.1118039E+00
         21   -1    0    0  503  502  0.00000000000E+00  0.00000000000E+00  0.13864189668E+04  0.13864189668E+04  0.00000000000E+00 0. -1.
         21   -1    0    0  501  503 -0.00000000000E+00 -0.00000000000E+00 -0.92328618081E+02  0.92328618081E+02  0.00000000000E+00 0. -1.
          6    1    1    2  501    0  0.10502312438E+03 -0.13515197937E+03  0.10370716759E+03  0.26388461644E+03  0.17200000000E+03 0. -1.
         -6    1    1    2    0  502 -0.10502312438E+03  0.13515197937E+03  0.11903831811E+04  0.12148629684E+04  0.17200000000E+03 0. -1.
<mgrwt>
<rscale>  2 0.24265184E+03</rscale>
<asrwt>0</asrwt>
<pdfrwt beam="1">  1       21 0.34660468E+00 0.24265184E+03</pdfrwt>
<pdfrwt beam="2">  1       21 0.23082159E-01 0.24265184E+03</pdfrwt>
<totfact> 0.30057939E+02</totfact>
</mgrwt>
</event>
<event>
 4    1  0.1100959E+000  0.1808550E+03  0.7546771E-02  0.1166978E+00
         21   -1    0    0  501  502  0.00000000000E+00  0.00000000000E+00  0.70485603033E+03  0.70485603033E+03  0.00000000000E+00 0. -1.
         21   -1    0    0  502  503 -0.00000000000E+00 -0.00000000000E+00 -0.13422854293E+03  0.13422854293E+03  0.00000000000E+00 0. -1.
          6    1    1    2  501    0  0.47148085831E+02  0.30026576044E+02  0.62467312223E+03  0.65032687697E+03  0.17200000000E+03 0. -1.
         -6    1    1    2    0  503 -0.47148085831E+02 -0.30026576044E+02 -0.54045634831E+02  0.18875769630E+03  0.17200000000E+03 0. -1.
<mgrwt>
<rscale>  2 0.18085502E+03</rscale>
<asrwt>0</asrwt>
<pdfrwt beam="1">  1       21 0.17621400E+00 0.18085502E+03</pdfrwt>
<pdfrwt beam="2">  1       21 0.33557138E-01 0.18085502E+03</pdfrwt>
<totfact> 0.16726979E+03</totfact>
</mgrwt>
</event>
<event>
 4    1  0.1100959E+000  0.2282562E+03  0.7546771E-02  0.1127873E+00
         21   -1    0    0  503  502  0.00000000000E+00  0.00000000000E+00  0.11409245865E+04  0.11409245865E+04  0.00000000000E+00 0.  1.
         21   -1    0    0  501  503 -0.00000000000E+00 -0.00000000000E+00 -0.76336867748E+02  0.76336867748E+02  0.00000000000E+00 0. -1.
          6    1    1    2  501    0  0.50709172826E+01 -0.14997054068E+03  0.14650172638E+03  0.27122616597E+03  0.17200000000E+03 0. -1.
         -6    1    1    2    0  502 -0.50709172826E+01  0.14997054068E+03  0.91808599237E+03  0.94603528827E+03  0.17200000000E+03 0.  1.
<mgrwt>
<rscale>  2 0.22825617E+03</rscale>
<asrwt>0</asrwt>
<pdfrwt beam="1">  1       21 0.28523109E+00 0.22825617E+03</pdfrwt>
<pdfrwt beam="2">  1       21 0.19084221E-01 0.22825617E+03</pdfrwt>
<totfact> 0.10012122E+03</totfact>
</mgrwt>
</event>
<event>
 4    1  0.1100959E+000  0.2044230E+03  0.7546771E-02  0.1146060E+00
         21   -1    0    0  501  502  0.00000000000E+00  0.00000000000E+00  0.85014377250E+02  0.85014377250E+02  0.00000000000E+00 0.  1.
         21   -1    0    0  502  503 -0.00000000000E+00 -0.00000000000E+00 -0.52006430939E+03  0.52006430939E+03  0.00000000000E+00 0.  1.
          6    1    1    2  501    0  0.37604951777E+02 -0.10387794070E+03 -0.28836682922E+03  0.35347445050E+03  0.17200000000E+03 0.  1.
         -6    1    1    2    0  503 -0.37604951777E+02  0.10387794070E+03 -0.14668310292E+03  0.25160423614E+03  0.17200000000E+03 0.  1.
<mgrwt>
<rscale>  2 0.20442299E+03</rscale>
<asrwt>0</asrwt>
<pdfrwt beam="1">  1       21 0.21253594E-01 0.20442299E+03</pdfrwt>
<pdfrwt beam="2">  1       21 0.13001608E+00 0.20442299E+03</pdfrwt>
<totfact> 0.88233290E+03</totfact>
</mgrwt>
</event>
<event>
 4    1  0.1100959E+000  0.2387953E+03  0.7546771E-02  0.1120598E+00
         21   -1    0    0  501  502  0.00000000000E+00  0.00000000000E+00  0.72889986204E+03  0.72889986204E+03  0.00000000000E+00 0.  1.
         21   -1    0    0  502  503 -0.00000000000E+00 -0.00000000000E+00 -0.97108908425E+02  0.97108908425E+02  0.00000000000E+00 0.  1.
          6    1    1    2  501    0  0.14704284271E+03  0.76273258103E+02  0.49798792150E+03  0.55228179171E+03  0.17200000000E+03 0.  1.
         -6    1    1    2    0  503 -0.14704284271E+03 -0.76273258103E+02  0.13380303211E+03  0.27372697875E+03  0.17200000000E+03 0.  1.
<mgrwt>
<rscale>  2 0.23879533E+03</rscale>
<asrwt>0</asrwt>
<pdfrwt beam="1">  1       21 0.18222495E+00 0.23879533E+03</pdfrwt>
<pdfrwt beam="2">  1       21 0.24277229E-01 0.23879533E+03</pdfrwt>
<totfact> 0.27018876E+03</totfact>
</mgrwt>
</event>
<event>
 4    1  0.1100959E+000  0.1756083E+03  0.7546771E-02  0.1172122E+00
         21   -1    0    0  501  502  0.00000000000E+00  0.00000000000E+00  0.30534832081E+03  0.30534832081E+03  0.00000000000E+00 0.  1.
         21   -1    0    0  502  503 -0.00000000000E+00 -0.00000000000E+00 -0.10122406953E+03  0.10122406953E+03  0.00000000000E+00 0.  1.
          6    1    1    2  501    0  0.29933704751E+02  0.18927847875E+02  0.92366510139E+02  0.19841840212E+03  0.17200000000E+03 0.  1.
         -6    1    1    2    0  503 -0.29933704751E+02 -0.18927847875E+02  0.11175774114E+03  0.20815398822E+03  0.17200000000E+03 0.  1.
<mgrwt>
<rscale>  2 0.17560834E+03</rscale>
<asrwt>0</asrwt>
<pdfrwt beam="1">  1       21 0.76337078E-01 0.17560834E+03</pdfrwt>
<pdfrwt beam="2">  1       21 0.25306018E-01 0.17560834E+03</pdfrwt>
<totfact> 0.22846414E+04</totfact>
</mgrwt>
</event>
<event>
 4    1  0.1100959E+000  0.2442192E+03  0.7546771E-02  0.1117014E+00
         21   -1    0    0  501  502  0.00000000000E+00  0.00000000000E+00  0.21337188211E+03  0.21337188211E+03  0.00000000000E+00 0.  1.
         21   -1    0    0  502  503 -0.00000000000E+00 -0.00000000000E+00 -0.61991728741E+03  0.61991728741E+03  0.00000000000E+00 0. -1.
          6    1    1    2  501    0 -0.71651911450E+02  0.15787664493E+03  0.10546378410E+03  0.26601812191E+03  0.17200000000E+03 0.  1.
         -6    1    1    2    0  503  0.71651911450E+02 -0.15787664493E+03 -0.51200918940E+03  0.56727104762E+03  0.17200000000E+03 0. -1.
<mgrwt>
<rscale>  2 0.24421923E+03</rscale>
<asrwt>0</asrwt>
<pdfrwt beam="1">  1       21 0.53342971E-01 0.24421923E+03</pdfrwt>
<pdfrwt beam="2">  1       21 0.15497932E+00 0.24421923E+03</pdfrwt>
<totfact> 0.86782503E+02</totfact>
</mgrwt>
</event>
<event>
 4    1  0.1100959E+000  0.1762674E+03  0.7546771E-02  0.1171465E+00
         21   -1    0    0  501  502  0.00000000000E+00  0.00000000000E+00  0.24014172085E+03  0.24014172085E+03  0.00000000000E+00 0.  1.
         21   -1    0    0  502  503 -0.00000000000E+00 -0.00000000000E+00 -0.13162122485E+03  0.13162122485E+03  0.00000000000E+00 0. -1.
          6    1    1    2  501    0  0.31090407253E+02  0.22794615169E+02  0.78500913369E+02  0.19295751165E+03  0.17200000000E+03 0. -1.
         -6    1    1    2    0  503 -0.31090407253E+02 -0.22794615169E+02  0.30019582636E+02  0.17880543405E+03  0.17200000000E+03 0. -1.
<mgrwt>
<rscale>  2 0.17626743E+03</rscale>
<asrwt>0</asrwt>
<pdfrwt beam="1">  1       21 0.60035430E-01 0.17626743E+03</pdfrwt>
<pdfrwt beam="2">  1       21 0.32905307E-01 0.17626743E+03</pdfrwt>
<totfact> 0.23229195E+04</totfact>
</mgrwt>
</event>
<event>
 4    1  0.1100959E+000  0.3214393E+03  0.7546771E-02  0.1074989E+00
         21   -1    0    0  501  502  0.00000000000E+00  0.00000000000E+00  0.11301638740E+04  0.11301638740E+04  0.00000000000E+00 0.  1.
         21   -1    0    0  502  503 -0.00000000000E+00 -0.00000000000E+00 -0.16584142617E+03  0.16584142617E+03  0.00000000000E+00 0. -1.
          6    1    1    2  501    0  0.60067229883E+02 -0.26482283679E+03  0.91624135102E+03  0.97098991771E+03  0.17200000000E+03 0.  1.
         -6    1    1    2    0  503 -0.60067229883E+02  0.26482283679E+03  0.48081096856E+02  0.32501538251E+03  0.17200000000E+03 0. -1.
<mgrwt>
<rscale>  2 0.32143927E+03</rscale>
<asrwt>0</asrwt>
<pdfrwt beam="1">  1       21 0.28254095E+00 0.32143927E+03</pdfrwt>
<pdfrwt beam="2">  1       21 0.41460360E-01 0.32143927E+03</pdfrwt>
<totfact> 0.20810415E+02</totfact>
</mgrwt>
</event>
<event>
 4    1  0.1100959E+000  0.1781743E+03  0.7546771E-02  0.1169582E+00
         21   -1    0    0  501  502  0.00000000000E+00  0.00000000000E+00  0.14705012429E+03  0.14705012429E+03  0.00000000000E+00 0.  1.
         21   -1    0    0  502  503 -0.00000000000E+00 -0.00000000000E+00 -0.25607297037E+03  0.25607297037E+03  0.00000000000E+00 0.  1.
          6    1    1    2  501    0  0.41976988916E+02  0.20000683546E+02  0.25337171927E+02  0.17996685034E+03  0.17200000000E+03 0.  1.
         -6    1    1    2    0  503 -0.41976988916E+02 -0.20000683546E+02 -0.13436001800E+03  0.22315624432E+03  0.17200000000E+03 0.  1.
<mgrwt>
<rscale>  2 0.17817434E+03</rscale>
<asrwt>0</asrwt>
<pdfrwt beam="1">  1       21 0.36762531E-01 0.17817434E+03</pdfrwt>
<pdfrwt beam="2">  1       21 0.64018242E-01 0.17817434E+03</pdfrwt>
<totfact> 0.16223439E+04</totfact>
</mgrwt>
</event>
<event>
 4    1  0.1100959E+000  0.1905073E+03  0.7546771E-02  0.1158005E+00
         21   -1    0    0  503  502  0.00000000000E+00  0.00000000000E+00  0.81315523440E+02  0.81315523440E+02  0.00000000000E+00 0. -1.
         21   -1    0    0  501  503 -0.00000000000E+00 -0.00000000000E+00 -0.57912558776E+03  0.57912558776E+03  0.00000000000E+00 0. -1.
          6    1    1    2  501    0  0.76140367698E+02 -0.30194196138E+02 -0.40703706551E+03  0.44941319270E+03  0.17200000000E+03 0. -1.
         -6    1    1    2    0  502 -0.76140367698E+02  0.30194196138E+02 -0.90772998809E+02  0.21102791850E+03  0.17200000000E+03 0. -1.
<mgrwt>
<rscale>  2 0.19050734E+03</rscale>
<asrwt>0</asrwt>
<pdfrwt beam="1">  1       21 0.20328881E-01 0.19050734E+03</pdfrwt>
<pdfrwt beam="2">  1       21 0.14478140E+00 0.19050734E+03</pdfrwt>
<totfact> 0.73555031E+03</totfact>
</mgrwt>
</event>
<event>
 4    1  0.1100959E+000  0.1868848E+03  0.7546771E-02  0.1161301E+00
         21   -1    0    0  501  502  0.00000000000E+00  0.00000000000E+00  0.36186807463E+03  0.36186807463E+03  0.00000000000E+00 0.  1.
         21   -1    0    0  502  503 -0.00000000000E+00 -0.00000000000E+00 -0.11318577999E+03  0.11318577999E+03  0.00000000000E+00 0.  1.
          6    1    1    2  501    0 -0.38870816124E+02 -0.61895008364E+02  0.21549738896E+03  0.28524560830E+03  0.17200000000E+03 0.  1.
         -6    1    1    2    0  503  0.38870816124E+02  0.61895008364E+02  0.33184905677E+02  0.18980824632E+03  0.17200000000E+03 0.  1.
<mgrwt>
<rscale>  2 0.18688481E+03</rscale>
<asrwt>0</asrwt>
<pdfrwt beam="1">  1       21 0.90467016E-01 0.18688481E+03</pdfrwt>
<pdfrwt beam="2">  1       21 0.28296446E-01 0.18688481E+03</pdfrwt>
<totfact> 0.12440130E+04</totfact>
</mgrwt>
</event>
<event>
 4    1  0.1100959E+000  0.2362399E+03  0.7546771E-02  0.1122323E+00
         21   -1    0    0  503  502  0.00000000000E+00  0.00000000000E+00  0.48617118764E+03  0.48617118764E+03  0.00000000000E+00 0. -1.
         21   -1    0    0  501  503 -0.00000000000E+00 -0.00000000000E+00 -0.11500399435E+03  0.11500399435E+03  0.00000000000E+00 0. -1.
          6    1    1    2  501    0  0.10621849085E+03  0.12224133378E+03  0.19844220425E+03  0.30852653032E+03  0.17200000000E+03 0. -1.
         -6    1    1    2    0  502 -0.10621849085E+03 -0.12224133378E+03  0.17272498904E+03  0.29264865167E+03  0.17200000000E+03 0. -1.
<mgrwt>
<rscale>  2 0.23623994E+03</rscale>
<asrwt>0</asrwt>
<pdfrwt beam="1">  1       21 0.12154279E+00 0.23623994E+03</pdfrwt>
<pdfrwt beam="2">  1       21 0.28751000E-01 0.23623994E+03</pdfrwt>
<totfact> 0.57344006E+03</totfact>
</mgrwt>
</event>
<event>
 4    1  0.1100959E+000  0.1794129E+03  0.7546771E-02  0.1168372E+00
         21   -1    0    0  501  502  0.00000000000E+00  0.00000000000E+00  0.73436591237E+02  0.73436591237E+02  0.00000000000E+00 0.  1.
         21   -1    0    0  502  503 -0.00000000000E+00 -0.00000000000E+00 -0.55576865731E+03  0.55576865731E+03  0.00000000000E+00 0.  1.
          6    1    1    2  501    0 -0.26937290727E+02 -0.43351824347E+02 -0.96544651912E+02  0.20373970678E+03  0.17200000000E+03 0.  1.
         -6    1    1    2    0  503  0.26937290727E+02  0.43351824347E+02 -0.38578741416E+03  0.42546554176E+03  0.17200000000E+03 0.  1.
<mgrwt>
<rscale>  2 0.17941293E+03</rscale>
<asrwt>0</asrwt>
<pdfrwt beam="1">  1       21 0.18359148E-01 0.17941293E+03</pdfrwt>
<pdfrwt beam="2">  1       21 0.13894216E+00 0.17941293E+03</pdfrwt>
<totfact> 0.99762318E+03</totfact>
</mgrwt>
</event>
<event>
 4    1  0.1100959E+000  0.1972027E+03  0.7546771E-02  0.1152121E+00
         21   -1    0    0  503  502  0.00000000000E+00  0.00000000000E+00  0.36188509606E+03  0.36188509606E+03  0.00000000000E+00 0. -1.
         21   -1    0    0  501  503 -0.00000000000E+00 -0.00000000000E+00 -0.16427395454E+03  0.16427395454E+03  0.00000000000E+00 0.  1.
          6    1    1    2  501    0 -0.62599205376E+02 -0.73390935242E+02 -0.55905939476E+02  0.20497405679E+03  0.17200000000E+03 0.  1.
         -6    1    1    2    0  502  0.62599205376E+02  0.73390935242E+02  0.25351708099E+03  0.32118499380E+03  0.17200000000E+03 0. -1.
<mgrwt>
<rscale>  2 0.19720266E+03</rscale>
<asrwt>0</asrwt>
<pdfrwt beam="1">  1       21 0.90471273E-01 0.19720266E+03</pdfrwt>
<pdfrwt beam="2">  1       21 0.41068489E-01 0.19720266E+03</pdfrwt>
<totfact> 0.59066704E+03</totfact>
</mgrwt>
</event>
<event>
 4    1  0.1100959E+000  0.1760486E+03  0.7546771E-02  0.1171683E+00
         21   -1    0    0  503  502  0.00000000000E+00  0.00000000000E+00  0.61551047839E+02  0.61551047839E+02  0.00000000000E+00 0. -1.
         21   -1    0    0  501  503 -0.00000000000E+00 -0.00000000000E+00 -0.57733736183E+03  0.57733736183E+03  0.00000000000E+00 0. -1.
          6    1    1    2  501    0 -0.22578473928E+02  0.29988914302E+02 -0.37210590133E+03  0.41165024507E+03  0.17200000000E+03 0.  1.
         -6    1    1    2    0  502  0.22578473928E+02 -0.29988914302E+02 -0.14368041267E+03  0.22723816460E+03  0.17200000000E+03 0.  1.
<mgrwt>
<rscale>  2 0.17604864E+03</rscale>
<asrwt>0</asrwt>
<pdfrwt beam="1">  1       21 0.15387762E-01 0.17604864E+03</pdfrwt>
<pdfrwt beam="2">  1       21 0.14433434E+00 0.17604864E+03</pdfrwt>
<totfact> 0.12532048E+04</totfact>
</mgrwt>
</event>
<event>
 4    1  0.1100959E+000  0.1849364E+03  0.7546771E-02  0.1163109E+00
         21   -1    0    0  503  502  0.00000000000E+00  0.00000000000E+00  0.11461674440E+04  0.11461674440E+04  0.00000000000E+00 0. -1.
         21   -1    0    0  501  503 -0.00000000000E+00 -0.00000000000E+00 -0.35245749637E+02  0.35245749637E+02  0.00000000000E+00 0. -1.
          6    1    1    2  501    0 -0.51306702999E+02  0.44554590240E+02  0.32412040077E+03  0.37316956398E+03  0.17200000000E+03 0. -1.
         -6    1    1    2    0  502  0.51306702999E+02 -0.44554590240E+02  0.78680129355E+03  0.80824362961E+03  0.17200000000E+03 0. -1.
<mgrwt>
<rscale>  2 0.18493645E+03</rscale>
<asrwt>0</asrwt>
<pdfrwt beam="1">  1       21 0.28654174E+00 0.18493645E+03</pdfrwt>
<pdfrwt beam="2">  1       21 0.88114412E-02 0.18493645E+03</pdfrwt>
<totfact> 0.41739077E+03</totfact>
</mgrwt>
</event>
<event>
 4    1  0.1100959E+000  0.2034547E+03  0.7546771E-02  0.1146857E+00
         21   -1    0    0  503  502  0.00000000000E+00  0.00000000000E+00  0.66880080228E+02  0.66880080228E+02  0.00000000000E+00 0. -1.
         21   -1    0    0  501  503 -0.00000000000E+00 -0.00000000000E+00 -0.65765238240E+03  0.65765238240E+03  0.00000000000E+00 0. -1.
          6    1    1    2  501    0 -0.38173399781E+02 -0.10174769840E+03 -0.38329541112E+03  0.43394605052E+03  0.17200000000E+03 0.  1.
         -6    1    1    2    0  502  0.38173399781E+02  0.10174769840E+03 -0.20747689106E+03  0.29058641211E+03  0.17200000000E+03 0.  1.
<mgrwt>
<rscale>  2 0.20345467E+03</rscale>
<asrwt>0</asrwt>
<pdfrwt beam="1">  1       21 0.16720020E-01 0.20345467E+03</pdfrwt>
<pdfrwt beam="2">  1       21 0.16441310E+00 0.20345467E+03</pdfrwt>
<totfact> 0.74547843E+03</totfact>
</mgrwt>
</event>
<event>
 4    1  0.1100959E+000  0.2110047E+03  0.7546771E-02  0.1140773E+00
         21   -1    0    0  503  502  0.00000000000E+00  0.00000000000E+00  0.20977110884E+03  0.20977110884E+03  0.00000000000E+00 0.  1.
         21   -1    0    0  501  503 -0.00000000000E+00 -0.00000000000E+00 -0.21254465815E+03  0.21254465815E+03  0.00000000000E+00 0. -1.
          6    1    1    2  501    0  0.18214829241E+02 -0.12086026421E+03 -0.93081290017E+01  0.21120990681E+03  0.17200000000E+03 0. -1.
         -6    1    1    2    0  502 -0.18214829241E+02  0.12086026421E+03  0.65345796908E+01  0.21110586018E+03  0.17200000000E+03 0.  1.
<mgrwt>
<rscale>  2 0.21100470E+03</rscale>
<asrwt>0</asrwt>
<pdfrwt beam="1">  1       21 0.52442777E-01 0.21100470E+03</pdfrwt>
<pdfrwt beam="2">  1       21 0.53136165E-01 0.21100470E+03</pdfrwt>
<totfact> 0.11428209E+04</totfact>
</mgrwt>
</event>
<event>
 4    1  0.1100959E+000  0.3535083E+03  0.7546771E-02  0.1061184E+00
         21   -1    0    0  501  502  0.00000000000E+00  0.00000000000E+00  0.94135691550E+03  0.94135691550E+03  0.00000000000E+00 0. -1.
         21   -1    0    0  502  503 -0.00000000000E+00 -0.00000000000E+00 -0.14082580953E+03  0.14082580953E+03  0.00000000000E+00 0.  1.
          6    1    1    2  501    0 -0.29571264465E+03  0.89096111687E+02  0.52981575386E+03  0.63692449974E+03  0.17200000000E+03 0.  1.
         -6    1    1    2    0  503  0.29571264465E+03 -0.89096111687E+02  0.27071535210E+03  0.44525822529E+03  0.17200000000E+03 0. -1.
<mgrwt>
<rscale>  2 0.35350825E+03</rscale>
<asrwt>0</asrwt>
<pdfrwt beam="1">  1       21 0.23533921E+00 0.35350825E+03</pdfrwt>
<pdfrwt beam="2">  1       21 0.35206455E-01 0.35350825E+03</pdfrwt>
<totfact> 0.54494653E+02</totfact>
</mgrwt>
</event>
<event>
 4    1  0.1100959E+000  0.1798727E+03  0.7546771E-02  0.1167926E+00
         21   -1    0    0  503  502  0.00000000000E+00  0.00000000000E+00  0.12091576926E+03  0.12091576926E+03  0.00000000000E+00 0. -1.
         21   -1    0    0  501  503 -0.00000000000E+00 -0.00000000000E+00 -0.31649984030E+03  0.31649984030E+03  0.00000000000E+00 0. -1.
          6    1    1    2  501    0  0.47723376747E+02  0.22195833606E+02 -0.11804173909E+02  0.18025957461E+03  0.17200000000E+03 0. -1.
         -6    1    1    2    0  502 -0.47723376747E+02 -0.22195833606E+02 -0.18377989714E+03  0.25715603495E+03  0.17200000000E+03 0. -1.
<mgrwt>
<rscale>  2 0.17987267E+03</rscale>
<asrwt>0</asrwt>
<pdfrwt beam="1">  1       21 0.30228943E-01 0.17987267E+03</pdfrwt>
<pdfrwt beam="2">  1       21 0.79124959E-01 0.17987267E+03</pdfrwt>
<totfact> 0.14925946E+04</totfact>
</mgrwt>
</event>
<event>
 4    1  0.1100959E+000  0.1750613E+03  0.7546771E-02  0.1172670E+00
         21   -1    0    0  503  502  0.00000000000E+00  0.00000000000E+00  0.60847178471E+02  0.60847178471E+02  0.00000000000E+00 0. -1.
         21   -1    0    0  501  503 -0.00000000000E+00 -0.00000000000E+00 -0.16622961592E+04  0.16622961592E+04  0.00000000000E+00 0. -1.
          6    1    1    2  501    0  0.11702786338E+02 -0.30422300757E+02 -0.15200247023E+04  0.15300724059E+04  0.17200000000E+03 0. -1.
         -6    1    1    2    0  502 -0.11702786338E+02  0.30422300757E+02 -0.81424278435E+02  0.19307093181E+03  0.17200000000E+03 0. -1.
<mgrwt>
<rscale>  2 0.17506134E+03</rscale>
<asrwt>0</asrwt>
<pdfrwt beam="1">  1       21 0.15211794E-01 0.17506134E+03</pdfrwt>
<pdfrwt beam="2">  1       21 0.41557404E+00 0.17506134E+03</pdfrwt>
<totfact> 0.27466437E+02</totfact>
</mgrwt>
</event>
<event>
 4    1  0.1100959E+000  0.2537766E+03  0.7546771E-02  0.1110941E+00
         21   -1    0    0  503  502  0.00000000000E+00  0.00000000000E+00  0.18061815337E+03  0.18061815337E+03  0.00000000000E+00 0.  1.
         21   -1    0    0  501  503 -0.00000000000E+00 -0.00000000000E+00 -0.36372250547E+03  0.36372250547E+03  0.00000000000E+00 0. -1.
          6    1    1    2  501    0 -0.12167821740E+03 -0.14146726633E+03 -0.12972537494E+03  0.28501096283E+03  0.17200000000E+03 0. -1.
         -6    1    1    2    0  502  0.12167821740E+03  0.14146726633E+03 -0.53378977158E+02  0.25932969601E+03  0.17200000000E+03 0. -1.
<mgrwt>
<rscale>  2 0.25377663E+03</rscale>
<asrwt>0</asrwt>
<pdfrwt beam="1">  1       21 0.45154539E-01 0.25377663E+03</pdfrwt>
<pdfrwt beam="2">  1       21 0.90930626E-01 0.25377663E+03</pdfrwt>
<totfact> 0.46216065E+03</totfact>
</mgrwt>
</event>
<event>
 4    1  0.1100959E+000  0.1873950E+03  0.7546771E-02  0.1160832E+00
         21   -1    0    0  501  502  0.00000000000E+00  0.00000000000E+00  0.16499219279E+03  0.16499219279E+03  0.00000000000E+00 0.  1.
         21   -1    0    0  502  503 -0.00000000000E+00 -0.00000000000E+00 -0.21611589928E+03  0.21611589928E+03  0.00000000000E+00 0.  1.
          6    1    1    2  501    0 -0.73220034688E+02  0.13104046511E+02 -0.21001417591E+01  0.18740677712E+03  0.17200000000E+03 0. -1.
         -6    1    1    2    0  503  0.73220034688E+02 -0.13104046511E+02 -0.49023564736E+02  0.19370131495E+03  0.17200000000E+03 0. -1.
<mgrwt>
<rscale>  2 0.18739501E+03</rscale>
<asrwt>0</asrwt>
<pdfrwt beam="1">  1       21 0.41248048E-01 0.18739501E+03</pdfrwt>
<pdfrwt beam="2">  1       21 0.54028975E-01 0.18739501E+03</pdfrwt>
<totfact> 0.18390537E+04</totfact>
</mgrwt>
</event>
<event>
 4    1  0.1100959E+000  0.1971378E+03  0.7546771E-02  0.1152177E+00
         21   -1    0    0  501  502  0.00000000000E+00  0.00000000000E+00  0.28995775125E+03  0.28995775125E+03  0.00000000000E+00 0. -1.
         21   -1    0    0  502  503 -0.00000000000E+00 -0.00000000000E+00 -0.17488469429E+03  0.17488469429E+03  0.00000000000E+00 0. -1.
          6    1    1    2  501    0  0.33984279419E+02  0.90135392552E+02  0.16987168079E+03  0.26023010620E+03  0.17200000000E+03 0. -1.
         -6    1    1    2    0  503 -0.33984279419E+02 -0.90135392552E+02 -0.54798623833E+02  0.20461233935E+03  0.17200000000E+03 0. -1.
<mgrwt>
<rscale>  2 0.19713782E+03</rscale>
<asrwt>0</asrwt>
<pdfrwt beam="1">  1       21 0.72489437E-01 0.19713782E+03</pdfrwt>
<pdfrwt beam="2">  1       21 0.43721174E-01 0.19713782E+03</pdfrwt>
<totfact> 0.85944836E+03</totfact>
</mgrwt>
</event>
<event>
 4    1  0.1100959E+000  0.2189759E+03  0.7546771E-02  0.1134649E+00
         21   -1    0    0  503  502  0.00000000000E+00  0.00000000000E+00  0.12398053803E+04  0.12398053803E+04  0.00000000000E+00 0.  1.
         21   -1    0    0  501  503 -0.00000000000E+00 -0.00000000000E+00 -0.51547944228E+02  0.51547944228E+02  0.00000000000E+00 0.  1.
          6    1    1    2  501    0 -0.11265402856E+03 -0.75335922706E+02  0.91678142947E+03  0.94257022063E+03  0.17200000000E+03 0.  1.
         -6    1    1    2    0  502  0.11265402856E+03  0.75335922706E+02  0.27147600658E+03  0.34878310388E+03  0.17200000000E+03 0.  1.
<mgrwt>
<rscale>  2 0.21897587E+03</rscale>
<asrwt>0</asrwt>
<pdfrwt beam="1">  1       21 0.30995125E+00 0.21897587E+03</pdfrwt>
<pdfrwt beam="2">  1       21 0.12886990E-01 0.21897587E+03</pdfrwt>
<totfact> 0.14945526E+03</totfact>
</mgrwt>
</event>
<event>
 4    1  0.1100959E+000  0.2973483E+03  0.7546771E-02  0.1086574E+00
         21   -1    0    0  501  502  0.00000000000E+00  0.00000000000E+00  0.88868052002E+03  0.88868052002E+03  0.00000000000E+00 0. -1.
         21   -1    0    0  502  503 -0.00000000000E+00 -0.00000000000E+00 -0.10421385697E+03  0.10421385697E+03  0.00000000000E+00 0. -1.
          6    1    1    2  501    0  0.33494658694E+02  0.24022934354E+03  0.28655246497E+03  0.41295077774E+03  0.17200000000E+03 0. -1.
         -6    1    1    2    0  503 -0.33494658694E+02 -0.24022934354E+03  0.49791419809E+03  0.57994359925E+03  0.17200000000E+03 0. -1.
<mgrwt>
<rscale>  2 0.29734833E+03</rscale>
<asrwt>0</asrwt>
<pdfrwt beam="1">  1       21 0.22217011E+00 0.29734833E+03</pdfrwt>
<pdfrwt beam="2">  1       21 0.26053467E-01 0.29734833E+03</pdfrwt>
<totfact> 0.12404076E+03</totfact>
</mgrwt>
</event>
<event>
 4    1  0.1100959E+000  0.1785723E+03  0.7546771E-02  0.1169192E+00
         21   -1    0    0  503  502  0.00000000000E+00  0.00000000000E+00  0.10662930725E+03  0.10662930725E+03  0.00000000000E+00 0. -1.
         21   -1    0    0  501  503 -0.00000000000E+00 -0.00000000000E+00 -0.10879419057E+04  0.10879419057E+04  0.00000000000E+00 0. -1.
          6    1    1    2  501    0 -0.21779364960E+02 -0.42775291474E+02 -0.99926814400E+03  0.10150984632E+04  0.17200000000E+03 0. -1.
         -6    1    1    2    0  502  0.21779364960E+02  0.42775291474E+02  0.17955545559E+02  0.17947274978E+03  0.17200000000E+03 0. -1.
<mgrwt>
<rscale>  2 0.17857230E+03</rscale>
<asrwt>0</asrwt>
<pdfrwt beam="1">  1       21 0.26657327E-01 0.17857230E+03</pdfrwt>
<pdfrwt beam="2">  1       21 0.27198547E+00 0.17857230E+03</pdfrwt>
<totfact> 0.67622211E+02</totfact>
</mgrwt>
</event>
<event>
 4    1  0.1100959E+000  0.2485012E+03  0.7546771E-02  0.1114256E+00
         21   -1    0    0  503  502  0.00000000000E+00  0.00000000000E+00  0.86277517267E+02  0.86277517267E+02  0.00000000000E+00 0. -1.
         21   -1    0    0  501  503 -0.00000000000E+00 -0.00000000000E+00 -0.78799659340E+03  0.78799659340E+03  0.00000000000E+00 0. -1.
          6    1    1    2  501    0  0.17111301092E+03  0.53750997200E+02 -0.21849409513E+03  0.33089651224E+03  0.17200000000E+03 0. -1.
         -6    1    1    2    0  502 -0.17111301092E+03 -0.53750997200E+02 -0.48322498100E+03  0.54337759843E+03  0.17200000000E+03 0. -1.
<mgrwt>
<rscale>  2 0.24850117E+03</rscale>
<asrwt>0</asrwt>
<pdfrwt beam="1">  1       21 0.21569380E-01 0.24850117E+03</pdfrwt>
<pdfrwt beam="2">  1       21 0.19699915E+00 0.24850117E+03</pdfrwt>
<totfact> 0.26758189E+03</totfact>
</mgrwt>
</event>
<event>
 4    1  0.1100959E+000  0.2361140E+03  0.7546771E-02  0.1122409E+00
         21   -1    0    0  503  502  0.00000000000E+00  0.00000000000E+00  0.14706708935E+03  0.14706708935E+03  0.00000000000E+00 0.  1.
         21   -1    0    0  501  503 -0.00000000000E+00 -0.00000000000E+00 -0.38553088611E+03  0.38553088611E+03  0.00000000000E+00 0. -1.
          6    1    1    2  501    0  0.14874343699E+03 -0.63570444596E+02 -0.84778128644E+02  0.25087276171E+03  0.17200000000E+03 0.  1.
         -6    1    1    2    0  502 -0.14874343699E+03  0.63570444596E+02 -0.15368566812E+03  0.28172521374E+03  0.17200000000E+03 0. -1.
<mgrwt>
<rscale>  2 0.23611398E+03</rscale>
<asrwt>0</asrwt>
<pdfrwt beam="1">  1       21 0.36766773E-01 0.23611398E+03</pdfrwt>
<pdfrwt beam="2">  1       21 0.96382720E-01 0.23611398E+03</pdfrwt>
<totfact> 0.61944255E+03</totfact>
</mgrwt>
</event>
<event>
 4    1  0.1100959E+000  0.2283121E+03  0.7546771E-02  0.1127833E+00
         21   -1    0    0  501  502  0.00000000000E+00  0.00000000000E+00  0.19967712116E+03  0.19967712116E+03  0.00000000000E+00 0. -1.
         21   -1    0    0  502  503 -0.00000000000E+00 -0.00000000000E+00 -0.31201791405E+03  0.31201791405E+03  0.00000000000E+00 0.  1.
          6    1    1    2  501    0 -0.15013259050E+03  0.16202388135E+01 -0.15957140578E+03  0.27854883494E+03  0.17200000000E+03 0. -1.
         -6    1    1    2    0  503  0.15013259050E+03 -0.16202388135E+01  0.47230612900E+02  0.23314620027E+03  0.17200000000E+03 0.  1.
<mgrwt>
<rscale>  2 0.22831211E+03</rscale>
<asrwt>0</asrwt>
<pdfrwt beam="1">  1       21 0.49919281E-01 0.22831211E+03</pdfrwt>
<pdfrwt beam="2">  1       21 0.78004478E-01 0.22831211E+03</pdfrwt>
<totfact> 0.54233089E+03</totfact>
</mgrwt>
</event>
<event>
 4    1  0.1100959E+000  0.2059879E+03  0.7546771E-02  0.1144783E+00
         21   -1    0    0  503  502  0.00000000000E+00  0.00000000000E+00  0.16184646274E+03  0.16184646274E+03  0.00000000000E+00 0.  1.
         21   -1    0    0  501  503 -0.00000000000E+00 -0.00000000000E+00 -0.28425020850E+03  0.28425020850E+03  0.00000000000E+00 0.  1.
          6    1    1    2  501    0 -0.97243069580E+02  0.58230528158E+02 -0.12336989875E+03  0.24010651992E+03  0.17200000000E+03 0.  1.
         -6    1    1    2    0  502  0.97243069580E+02 -0.58230528158E+02  0.96615298193E+00  0.20599015132E+03  0.17200000000E+03 0.  1.
<mgrwt>
<rscale>  2 0.20598789E+03</rscale>
<asrwt>0</asrwt>
<pdfrwt beam="1">  1       21 0.40461616E-01 0.20598789E+03</pdfrwt>
<pdfrwt beam="2">  1       21 0.71062552E-01 0.20598789E+03</pdfrwt>
<totfact> 0.10452783E+04</totfact>
</mgrwt>
</event>
<event>
 4    1  0.1100959E+000  0.2214003E+03  0.7546771E-02  0.1132843E+00
         21   -1    0    0  501  502  0.00000000000E+00  0.00000000000E+00  0.39330850560E+03  0.39330850560E+03  0.00000000000E+00 0. -1.
         21   -1    0    0  502  503 -0.00000000000E+00 -0.00000000000E+00 -0.44061419218E+03  0.44061419218E+03  0.00000000000E+00 0.  1.
          6    1    1    2  501    0 -0.13897685410E+03  0.10932515364E+02  0.32944832514E+03  0.39693108320E+03  0.17200000000E+03 0. -1.
         -6    1    1    2    0  503  0.13897685410E+03 -0.10932515364E+02 -0.37675401172E+03  0.43699161458E+03  0.17200000000E+03 0.  1.
<mgrwt>
<rscale>  2 0.22140028E+03</rscale>
<asrwt>0</asrwt>
<pdfrwt beam="1">  1       21 0.98327127E-01 0.22140028E+03</pdfrwt>
<pdfrwt beam="2">  1       21 0.11015355E+00 0.22140028E+03</pdfrwt>
<totfact> 0.53959464E+02</totfact>
</mgrwt>
</event>
<event>
 4    1  0.1100959E+000  0.1783958E+03  0.7546771E-02  0.1169365E+00
         21   -1    0    0  503  502  0.00000000000E+00  0.00000000000E+00  0.43070951511E+02  0.43070951511E+02  0.00000000000E+00 0.  1.
         21   -1    0    0  501  503 -0.00000000000E+00 -0.00000000000E+00 -0.77324315016E+03  0.77324315016E+03  0.00000000000E+00 0.  1.
          6    1    1    2  501    0  0.13967667187E+01 -0.47319336421E+02 -0.27906648789E+03  0.33121469656E+03  0.17200000000E+03 0.  1.
         -6    1    1    2    0  502 -0.13967667187E+01  0.47319336421E+02 -0.45110571076E+03  0.48509940511E+03  0.17200000000E+03 0.  1.
<mgrwt>
<rscale>  2 0.17839583E+03</rscale>
<asrwt>0</asrwt>
<pdfrwt beam="1">  1       21 0.10767738E-01 0.17839583E+03</pdfrwt>
<pdfrwt beam="2">  1       21 0.19331078E+00 0.17839583E+03</pdfrwt>
<totfact> 0.10687737E+04</totfact>
</mgrwt>
</event>
<event>
 4    1  0.1100959E+000  0.1775862E+03  0.7546771E-02  0.1170160E+00
         21   -1    0    0  503  502  0.00000000000E+00  0.00000000000E+00  0.24631752193E+03  0.24631752193E+03  0.00000000000E+00 0. -1.
         21   -1    0    0  501  503 -0.00000000000E+00 -0.00000000000E+00 -0.43537298269E+03  0.43537298269E+03  0.00000000000E+00 0. -1.
          6    1    1    2  501    0  0.43152866463E+02  0.95222571148E+01  0.19184775364E+03  0.26142380121E+03  0.17200000000E+03 0. -1.
         -6    1    1    2    0  502 -0.43152866463E+02 -0.95222571148E+01 -0.38090321439E+03  0.42026670341E+03  0.17200000000E+03 0. -1.
<mgrwt>
<rscale>  2 0.17758616E+03</rscale>
<asrwt>0</asrwt>
<pdfrwt beam="1">  1       21 0.61579381E-01 0.17758616E+03</pdfrwt>
<pdfrwt beam="2">  1       21 0.10884324E+00 0.17758616E+03</pdfrwt>
<totfact> 0.16659589E+03</totfact>
</mgrwt>
</event>
<event>
 4    1  0.1100959E+000  0.3092740E+03  0.7546771E-02  0.1080694E+00
         21   -1    0    0  501  502  0.00000000000E+00  0.00000000000E+00  0.53395054038E+03  0.53395054038E+03  0.00000000000E+00 0.  1.
         21   -1    0    0  502  503 -0.00000000000E+00 -0.00000000000E+00 -0.18407033948E+03  0.18407033948E+03  0.00000000000E+00 0.  1.
          6    1    1    2  501    0 -0.55886704165E+01  0.25697305771E+03  0.11616702125E+03  0.33037124943E+03  0.17200000000E+03 0.  1.
         -6    1    1    2    0  503  0.55886704165E+01 -0.25697305771E+03  0.23371317966E+03  0.38764963043E+03  0.17200000000E+03 0.  1.
<mgrwt>
<rscale>  2 0.30927397E+03</rscale>
<asrwt>0</asrwt>
<pdfrwt beam="1">  1       21 0.13348763E+00 0.30927397E+03</pdfrwt>
<pdfrwt beam="2">  1       21 0.46017586E-01 0.30927397E+03</pdfrwt>
<totfact> 0.16743935E+03</totfact>
</mgrwt>
</event>
<event>
 4    1  0.1100959E+000  0.2323218E+03  0.7546771E-02  0.1125016E+00
         21   -1    0    0  501  502  0.00000000000E+00  0.00000000000E+00  0.23367612851E+03  0.23367612851E+03  0.00000000000E+00 0. -1.
         21   -1    0    0  502  503 -0.00000000000E+00 -0.00000000000E+00 -0.29481984224E+03  0.29481984224E+03  0.00000000000E+00 0.  1.
          6    1    1    2  501    0  0.15378486985E+03  0.27196447084E+02  0.92396945071E+02  0.25002125587E+03  0.17200000000E+03 0. -1.
         -6    1    1    2    0  503 -0.15378486985E+03 -0.27196447084E+02 -0.15354065880E+03  0.27847471489E+03  0.17200000000E+03 0.  1.
<mgrwt>
<rscale>  2 0.23232183E+03</rscale>
<asrwt>0</asrwt>
<pdfrwt beam="1">  1       21 0.58419032E-01 0.23232183E+03</pdfrwt>
<pdfrwt beam="2">  1       21 0.73704960E-01 0.23232183E+03</pdfrwt>
<totfact> 0.44023816E+03</totfact>
</mgrwt>
</event>
<event>
 4    1  0.1100959E+000  0.1768559E+03  0.7546771E-02  0.1170881E+00
         21   -1    0    0  501  502  0.00000000000E+00  0.00000000000E+00  0.26941993586E+03  0.26941993586E+03  0.00000000000E+00 0.  1.
         21   -1    0    0  502  503 -0.00000000000E+00 -0.00000000000E+00 -0.11684169747E+03  0.11684169747E+03  0.00000000000E+00 0.  1.
          6    1    1    2  501    0 -0.39015317061E+02 -0.13107465032E+02  0.60838142161E+02  0.18702748500E+03  0.17200000000E+03 0. -1.
         -6    1    1    2    0  503  0.39015317061E+02  0.13107465032E+02  0.91740096224E+02  0.19923414833E+03  0.17200000000E+03 0. -1.
<mgrwt>
<rscale>  2 0.17685588E+03</rscale>
<asrwt>0</asrwt>
<pdfrwt beam="1">  1       21 0.67354983E-01 0.17685588E+03</pdfrwt>
<pdfrwt beam="2">  1       21 0.29210425E-01 0.17685588E+03</pdfrwt>
<totfact> 0.22844234E+04</totfact>
</mgrwt>
</event>
<event>
 4    1  0.1100959E+000  0.2245512E+03  0.7546771E-02  0.1130535E+00
         21   -1    0    0  503  502  0.00000000000E+00  0.00000000000E+00  0.24439428582E+03  0.24439428582E+03  0.00000000000E+00 0.  1.
         21   -1    0    0  501  503 -0.00000000000E+00 -0.00000000000E+00 -0.21348387564E+03  0.21348387564E+03  0.00000000000E+00 0.  1.
          6    1    1    2  501    0  0.10627780820E+03 -0.97694756125E+02 -0.26485441570E+02  0.22610775419E+03  0.17200000000E+03 0.  1.
         -6    1    1    2    0  502 -0.10627780820E+03  0.97694756125E+02  0.57395851748E+02  0.23177040727E+03  0.17200000000E+03 0.  1.
<mgrwt>
<rscale>  2 0.22455119E+03</rscale>
<asrwt>0</asrwt>
<pdfrwt beam="1">  1       21 0.61098571E-01 0.22455119E+03</pdfrwt>
<pdfrwt beam="2">  1       21 0.53370969E-01 0.22455119E+03</pdfrwt>
<totfact> 0.81032833E+03</totfact>
</mgrwt>
</event>
<event>
 4    1  0.1100959E+000  0.1917047E+03  0.7546771E-02  0.1156933E+00
         21   -1    0    0  503  502  0.00000000000E+00  0.00000000000E+00  0.24616766416E+03  0.24616766416E+03  0.00000000000E+00 0. -1.
         21   -1    0    0  501  503 -0.00000000000E+00 -0.00000000000E+00 -0.28314770033E+03  0.28314770033E+03  0.00000000000E+00 0.  1.
          6    1    1    2  501    0  0.64653870314E+02  0.54649502715E+02 -0.20045907870E+03  0.27737075067E+03  0.17200000000E+03 0.  1.
         -6    1    1    2    0  502 -0.64653870314E+02 -0.54649502715E+02  0.16347904252E+03  0.25194461383E+03  0.17200000000E+03 0. -1.
<mgrwt>
<rscale>  2 0.19170470E+03</rscale>
<asrwt>0</asrwt>
<pdfrwt beam="1">  1       21 0.61541916E-01 0.19170470E+03</pdfrwt>
<pdfrwt beam="2">  1       21 0.70786925E-01 0.19170470E+03</pdfrwt>
<totfact> 0.44389209E+03</totfact>
</mgrwt>
</event>
<event>
 4    1  0.1100959E+000  0.2185480E+03  0.7546771E-02  0.1134970E+00
         21   -1    0    0  503  502  0.00000000000E+00  0.00000000000E+00  0.18099830398E+03  0.18099830398E+03  0.00000000000E+00 0.  1.
         21   -1    0    0  501  503 -0.00000000000E+00 -0.00000000000E+00 -0.27651007424E+03  0.27651007424E+03  0.00000000000E+00 0.  1.
          6    1    1    2  501    0 -0.65621795672E+02 -0.11778373483E+03  0.11187920031E+01  0.21855086354E+03  0.17200000000E+03 0.  1.
         -6    1    1    2    0  502  0.65621795672E+02  0.11778373483E+03 -0.96630562261E+02  0.23895751468E+03  0.17200000000E+03 0.  1.
<mgrwt>
<rscale>  2 0.21854800E+03</rscale>
<asrwt>0</asrwt>
<pdfrwt beam="1">  1       21 0.45249576E-01 0.21854800E+03</pdfrwt>
<pdfrwt beam="2">  1       21 0.69127518E-01 0.21854800E+03</pdfrwt>
<totfact> 0.87671104E+03</totfact>
</mgrwt>
</event>
<event>
 4    1  0.1100959E+000  0.1753384E+03  0.7546771E-02  0.1172392E+00
         21   -1    0    0  501  502  0.00000000000E+00  0.00000000000E+00  0.20269448518E+03  0.20269448518E+03  0.00000000000E+00 0.  1.
         21   -1    0    0  502  503 -0.00000000000E+00 -0.00000000000E+00 -0.16537432457E+03  0.16537432457E+03  0.00000000000E+00 0.  1.
          6    1    1    2  501    0 -0.17712063637E+02 -0.29083052224E+02  0.71629582231E+02  0.18940522214E+03  0.17200000000E+03 0.  1.
         -6    1    1    2    0  503  0.17712063637E+02  0.29083052224E+02 -0.34309421625E+02  0.17866358761E+03  0.17200000000E+03 0.  1.
<mgrwt>
<rscale>  2 0.17533836E+03</rscale>
<asrwt>0</asrwt>
<pdfrwt beam="1">  1       21 0.50673621E-01 0.17533836E+03</pdfrwt>
<pdfrwt beam="2">  1       21 0.41343581E-01 0.17533836E+03</pdfrwt>
<totfact> 0.21091648E+04</totfact>
</mgrwt>
</event>
<event>
 4    1  0.1100959E+000  0.3212917E+03  0.7546771E-02  0.1075056E+00
         21   -1    0    0  503  502  0.00000000000E+00  0.00000000000E+00  0.69767452229E+03  0.69767452229E+03  0.00000000000E+00 0. -1.
         21   -1    0    0  501  503 -0.00000000000E+00 -0.00000000000E+00 -0.40543991712E+03  0.40543991712E+03  0.00000000000E+00 0.  1.
          6    1    1    2  501    0  0.25996278491E+03  0.77869781304E+02 -0.29342277651E+03  0.43511524698E+03  0.17200000000E+03 0.  1.
         -6    1    1    2    0  502 -0.25996278491E+03 -0.77869781304E+02  0.58565738167E+03  0.66799919243E+03  0.17200000000E+03 0. -1.
<mgrwt>
<rscale>  2 0.32129169E+03</rscale>
<asrwt>0</asrwt>
<pdfrwt beam="1">  1       21 0.17441863E+00 0.32129169E+03</pdfrwt>
<pdfrwt beam="2">  1       21 0.10135998E+00 0.32129169E+03</pdfrwt>
<totfact> 0.13834689E+02</totfact>
</mgrwt>
</event>
<event>
 4    1  0.1100959E+000  0.3676956E+03  0.7546771E-02  0.1055578E+00
         21   -1    0    0  503  502  0.00000000000E+00  0.00000000000E+00  0.72118256044E+03  0.72118256044E+03  0.00000000000E+00 0.  1.
         21   -1    0    0  501  503 -0.00000000000E+00 -0.00000000000E+00 -0.24905712028E+03  0.24905712028E+03  0.00000000000E+00 0.  1.
          6    1    1    2  501    0 -0.21644858069E+02 -0.32426458264E+03 -0.51748092252E+01  0.36773196500E+03  0.17200000000E+03 0.  1.
         -6    1    1    2    0  502  0.21644858069E+02  0.32426458264E+03  0.47730024939E+03  0.60250771572E+03  0.17200000000E+03 0.  1.
<mgrwt>
<rscale>  2 0.36769555E+03</rscale>
<asrwt>0</asrwt>
<pdfrwt beam="1">  1       21 0.18029564E+00 0.36769555E+03</pdfrwt>
<pdfrwt beam="2">  1       21 0.62264282E-01 0.36769555E+03</pdfrwt>
<totfact> 0.37276505E+02</totfact>
</mgrwt>
</event>
<event>
 4    1  0.1100959E+000  0.2150331E+03  0.7546771E-02  0.1137641E+00
         21   -1    0    0  503  502  0.00000000000E+00  0.00000000000E+00  0.24132090256E+03  0.24132090256E+03  0.00000000000E+00 0. -1.
         21   -1    0    0  501  503 -0.00000000000E+00 -0.00000000000E+00 -0.22928984855E+03  0.22928984855E+03  0.00000000000E+00 0.  1.
          6    1    1    2  501    0  0.37241452524E+02  0.12356500832E+03  0.10140495485E+03  0.23774398402E+03  0.17200000000E+03 0.  1.
         -6    1    1    2    0  502 -0.37241452524E+02 -0.12356500832E+03 -0.89373900828E+02  0.23286676709E+03  0.17200000000E+03 0.  1.
<mgrwt>
<rscale>  2 0.21503311E+03</rscale>
<asrwt>0</asrwt>
<pdfrwt beam="1">  1       21 0.60330226E-01 0.21503311E+03</pdfrwt>
<pdfrwt beam="2">  1       21 0.57322462E-01 0.21503311E+03</pdfrwt>
<totfact> 0.72003866E+03</totfact>
</mgrwt>
</event>
<event>
 4    1  0.1100959E+000  0.1790616E+03  0.7546771E-02  0.1168714E+00
         21   -1    0    0  503  502  0.00000000000E+00  0.00000000000E+00  0.69331771360E+03  0.69331771360E+03  0.00000000000E+00 0.  1.
         21   -1    0    0  501  503 -0.00000000000E+00 -0.00000000000E+00 -0.83810227947E+02  0.83810227947E+02  0.00000000000E+00 0.  1.
          6    1    1    2  501    0  0.24453885214E+02  0.43371310832E+02  0.44616728894E+02  0.18453648854E+03  0.17200000000E+03 0.  1.
         -6    1    1    2    0  502 -0.24453885214E+02 -0.43371310832E+02  0.56489075676E+03  0.59259145301E+03  0.17200000000E+03 0.  1.
<mgrwt>
<rscale>  2 0.17906162E+03</rscale>
<asrwt>0</asrwt>
<pdfrwt beam="1">  1       21 0.17332941E+00 0.17906162E+03</pdfrwt>
<pdfrwt beam="2">  1       21 0.20952559E-01 0.17906162E+03</pdfrwt>
<totfact> 0.43329887E+03</totfact>
</mgrwt>
</event>
<event>
 4    1  0.1100959E+000  0.2558810E+03  0.7546771E-02  0.1109644E+00
         21   -1    0    0  501  502  0.00000000000E+00  0.00000000000E+00  0.70253023308E+02  0.70253023308E+02  0.00000000000E+00 0.  1.
         21   -1    0    0  502  503 -0.00000000000E+00 -0.00000000000E+00 -0.11387946945E+04  0.11387946945E+04  0.00000000000E+00 0. -1.
          6    1    1    2  501    0 -0.18634522767E+03  0.34154500621E+02 -0.27665560016E+03  0.37684664638E+03  0.17200000000E+03 0.  1.
         -6    1    1    2    0  503  0.18634522767E+03 -0.34154500621E+02 -0.79188607106E+03  0.83220107146E+03  0.17200000000E+03 0. -1.
<mgrwt>
<rscale>  2 0.25588098E+03</rscale>
<asrwt>0</asrwt>
<pdfrwt beam="1">  1       21 0.17563256E-01 0.25588098E+03</pdfrwt>
<pdfrwt beam="2">  1       21 0.28469867E+00 0.25588098E+03</pdfrwt>
<totfact> 0.11437757E+03</totfact>
</mgrwt>
</event>
<event>
 4    1  0.1100959E+000  0.2259280E+03  0.7546771E-02  0.1129539E+00
         21   -1    0    0  503  502  0.00000000000E+00  0.00000000000E+00  0.13602744300E+03  0.13602744300E+03  0.00000000000E+00 0. -1.
         21   -1    0    0  501  503 -0.00000000000E+00 -0.00000000000E+00 -0.45086680466E+03  0.45086680466E+03  0.00000000000E+00 0.  1.
          6    1    1    2  501    0 -0.13760812737E+03 -0.50234179752E+02 -0.27759972962E+03  0.35791769923E+03  0.17200000000E+03 0. -1.
         -6    1    1    2    0  502  0.13760812737E+03  0.50234179752E+02 -0.37239632035E+02  0.22897654842E+03  0.17200000000E+03 0. -1.
<mgrwt>
<rscale>  2 0.22592802E+03</rscale>
<asrwt>0</asrwt>
<pdfrwt beam="1">  1       21 0.34006861E-01 0.22592802E+03</pdfrwt>
<pdfrwt beam="2">  1       21 0.11271670E+00 0.22592802E+03</pdfrwt>
<totfact> 0.50000034E+03</totfact>
</mgrwt>
</event>
<event>
 4    1  0.1100959E+000  0.2158404E+03  0.7546771E-02  0.1137023E+00
         21   -1    0    0  503  502  0.00000000000E+00  0.00000000000E+00  0.76710518791E+02  0.76710518791E+02  0.00000000000E+00 0. -1.
         21   -1    0    0  501  503 -0.00000000000E+00 -0.00000000000E+00 -0.65410642389E+03  0.65410642389E+03  0.00000000000E+00 0.  1.
          6    1    1    2  501    0  0.12980201764E+03  0.12431035504E+02 -0.19096096088E+03  0.28818949149E+03  0.17200000000E+03 0. -1.
         -6    1    1    2    0  502 -0.12980201764E+03 -0.12431035504E+02 -0.38643494423E+03  0.44262745119E+03  0.17200000000E+03 0.  1.
<mgrwt>
<rscale>  2 0.21584044E+03</rscale>
<asrwt>0</asrwt>
<pdfrwt beam="1">  1       21 0.19177630E-01 0.21584044E+03</pdfrwt>
<pdfrwt beam="2">  1       21 0.16352660E+00 0.21584044E+03</pdfrwt>
<totfact> 0.58115772E+03</totfact>
</mgrwt>
</event>
<event>
 4    1  0.1100959E+000  0.1797288E+03  0.7546771E-02  0.1168066E+00
         21   -1    0    0  503  502  0.00000000000E+00  0.00000000000E+00  0.45890755406E+03  0.45890755406E+03  0.00000000000E+00 0. -1.
         21   -1    0    0  501  503 -0.00000000000E+00 -0.00000000000E+00 -0.70981707743E+02  0.70981707743E+02  0.00000000000E+00 0.  1.
          6    1    1    2  501    0  0.49207692965E+02  0.17235083842E+02  0.16977037807E+03  0.24723354633E+03  0.17200000000E+03 0. -1.
         -6    1    1    2    0  502 -0.49207692965E+02 -0.17235083842E+02  0.21815546825E+03  0.28265571547E+03  0.17200000000E+03 0. -1.
<mgrwt>
<rscale>  2 0.17972881E+03</rscale>
<asrwt>0</asrwt>
<pdfrwt beam="1">  1       21 0.11472688E+00 0.17972881E+03</pdfrwt>
<pdfrwt beam="2">  1       21 0.17745428E-01 0.17972881E+03</pdfrwt>
<totfact> 0.17140979E+04</totfact>
</mgrwt>
</event>
<event>
 4    1  0.1100959E+000  0.2515891E+03  0.7546771E-02  0.1112305E+00
         21   -1    0    0  503  502  0.00000000000E+00  0.00000000000E+00  0.16479787490E+03  0.16479787490E+03  0.00000000000E+00 0. -1.
         21   -1    0    0  501  503 -0.00000000000E+00 -0.00000000000E+00 -0.64681532685E+03  0.64681532685E+03  0.00000000000E+00 0. -1.
          6    1    1    2  501    0 -0.18269079729E+03 -0.18362080144E+02 -0.49963970278E+03  0.55940765636E+03  0.17200000000E+03 0. -1.
         -6    1    1    2    0  502  0.18269079729E+03  0.18362080144E+02  0.17622250831E+02  0.25220554539E+03  0.17200000000E+03 0. -1.
<mgrwt>
<rscale>  2 0.25158914E+03</rscale>
<asrwt>0</asrwt>
<pdfrwt beam="1">  1       21 0.41199469E-01 0.25158914E+03</pdfrwt>
<pdfrwt beam="2">  1       21 0.16170383E+00 0.25158914E+03</pdfrwt>
<totfact> 0.13150832E+03</totfact>
</mgrwt>
</event>
<event>
 4    1  0.1100959E+000  0.2035279E+03  0.7546771E-02  0.1146796E+00
         21   -1    0    0  501  502  0.00000000000E+00  0.00000000000E+00  0.41249316108E+02  0.41249316108E+02  0.00000000000E+00 0.  1.
         21   -1    0    0  502  503 -0.00000000000E+00 -0.00000000000E+00 -0.12441724301E+04  0.12441724301E+04  0.00000000000E+00 0.  1.
          6    1    1    2  501    0 -0.10462011082E+03  0.29903758450E+02 -0.31921201959E+03  0.37857616910E+03  0.17200000000E+03 0.  1.
         -6    1    1    2    0  503  0.10462011082E+03 -0.29903758450E+02 -0.88371109441E+03  0.90684557711E+03  0.17200000000E+03 0.  1.
<mgrwt>
<rscale>  2 0.20352789E+03</rscale>
<asrwt>0</asrwt>
<pdfrwt beam="1">  1       21 0.10312329E-01 0.20352789E+03</pdfrwt>
<pdfrwt beam="2">  1       21 0.31104311E+00 0.20352789E+03</pdfrwt>
<totfact> 0.22352702E+03</totfact>
</mgrwt>
</event>
<event>
 4    1  0.1100959E+000  0.1733298E+03  0.7546771E-02  0.1174419E+00
         21   -1    0    0  503  502  0.00000000000E+00  0.00000000000E+00  0.72276114400E+03  0.72276114400E+03  0.00000000000E+00 0.  1.
         21   -1    0    0  501  503 -0.00000000000E+00 -0.00000000000E+00 -0.42530012244E+02  0.42530012244E+02  0.00000000000E+00 0.  1.
          6    1    1    2  501    0 -0.20042138750E+02 -0.75853377714E+01  0.39768588496E+03  0.43381711327E+03  0.17200000000E+03 0.  1.
         -6    1    1    2    0  502  0.20042138750E+02  0.75853377714E+01  0.28254524680E+03  0.33147404297E+03  0.17200000000E+03 0.  1.
<mgrwt>
<rscale>  2 0.17332981E+03</rscale>
<asrwt>0</asrwt>
<pdfrwt beam="1">  1       21 0.18069025E+00 0.17332981E+03</pdfrwt>
<pdfrwt beam="2">  1       21 0.10632505E-01 0.17332981E+03</pdfrwt>
<totfact> 0.13306784E+04</totfact>
</mgrwt>
</event>
<event>
 4    1  0.1100959E+000  0.1956506E+03  0.7546771E-02  0.1153461E+00
         21   -1    0    0  503  502  0.00000000000E+00  0.00000000000E+00  0.15092973732E+03  0.15092973732E+03  0.00000000000E+00 0.  1.
         21   -1    0    0  501  503 -0.00000000000E+00 -0.00000000000E+00 -0.30407769934E+03  0.30407769934E+03  0.00000000000E+00 0.  1.
          6    1    1    2  501    0 -0.65882930181E+02  0.65989287186E+02 -0.16924630518E+03  0.25869568672E+03  0.17200000000E+03 0.  1.
         -6    1    1    2    0  502  0.65882930181E+02 -0.65989287186E+02  0.16098343161E+02  0.19631174994E+03  0.17200000000E+03 0.  1.
<mgrwt>
<rscale>  2 0.19565057E+03</rscale>
<asrwt>0</asrwt>
<pdfrwt beam="1">  1       21 0.37732435E-01 0.19565057E+03</pdfrwt>
<pdfrwt beam="2">  1       21 0.76019424E-01 0.19565057E+03</pdfrwt>
<totfact> 0.10428465E+04</totfact>
</mgrwt>
</event>
<event>
 4    1  0.1100959E+000  0.1736339E+03  0.7546771E-02  0.1174110E+00
         21   -1    0    0  501  502  0.00000000000E+00  0.00000000000E+00  0.29678631725E+03  0.29678631725E+03  0.00000000000E+00 0. -1.
         21   -1    0    0  502  503 -0.00000000000E+00 -0.00000000000E+00 -0.12000665030E+03  0.12000665030E+03  0.00000000000E+00 0. -1.
          6    1    1    2  501    0 -0.23187746936E+02  0.52034308890E+01  0.17004121626E+03  0.24302831631E+03  0.17200000000E+03 0.  1.
         -6    1    1    2    0  503  0.23187746936E+02 -0.52034308890E+01  0.67384506885E+01  0.17376465123E+03  0.17200000000E+03 0.  1.
<mgrwt>
<rscale>  2 0.17363395E+03</rscale>
<asrwt>0</asrwt>
<pdfrwt beam="1">  1       21 0.74196578E-01 0.17363395E+03</pdfrwt>
<pdfrwt beam="2">  1       21 0.30001663E-01 0.17363395E+03</pdfrwt>
<totfact> 0.17561578E+04</totfact>
</mgrwt>
</event>
<event>
 4    1  0.1100959E+000  0.1901896E+03  0.7546771E-02  0.1158290E+00
         21   -1    0    0  503  502  0.00000000000E+00  0.00000000000E+00  0.38021392353E+03  0.38021392353E+03  0.00000000000E+00 0. -1.
         21   -1    0    0  501  503 -0.00000000000E+00 -0.00000000000E+00 -0.10873248364E+03  0.10873248364E+03  0.00000000000E+00 0.  1.
          6    1    1    2  501    0 -0.50616649995E+02 -0.63451059675E+02  0.22219028141E+03  0.29247325242E+03  0.17200000000E+03 0. -1.
         -6    1    1    2    0  502  0.50616649995E+02  0.63451059675E+02  0.49291158482E+02  0.19647315474E+03  0.17200000000E+03 0. -1.
<mgrwt>
<rscale>  2 0.19018960E+03</rscale>
<asrwt>0</asrwt>
<pdfrwt beam="1">  1       21 0.95053477E-01 0.19018960E+03</pdfrwt>
<pdfrwt beam="2">  1       21 0.27183122E-01 0.19018960E+03</pdfrwt>
<totfact> 0.11954606E+04</totfact>
</mgrwt>
</event>
<event>
 4    1  0.1100959E+000  0.2701618E+03  0.7546771E-02  0.1101187E+00
         21   -1    0    0  501  502  0.00000000000E+00  0.00000000000E+00  0.42388567154E+03  0.42388567154E+03  0.00000000000E+00 0.  1.
         21   -1    0    0  502  503 -0.00000000000E+00 -0.00000000000E+00 -0.19849025015E+03  0.19849025015E+03  0.00000000000E+00 0. -1.
          6    1    1    2  501    0 -0.92025190392E+02  0.18690838614E+03  0.22598005336E+03  0.35221352188E+03  0.17200000000E+03 0.  1.
         -6    1    1    2    0  503  0.92025190392E+02 -0.18690838614E+03 -0.58463197251E+00  0.27016239981E+03  0.17200000000E+03 0.  1.
<mgrwt>
<rscale>  2 0.27016177E+03</rscale>
<asrwt>0</asrwt>
<pdfrwt beam="1">  1       21 0.10597142E+00 0.27016177E+03</pdfrwt>
<pdfrwt beam="2">  1       21 0.49622563E-01 0.27016177E+03</pdfrwt>
<totfact> 0.26089766E+03</totfact>
</mgrwt>
</event>
<event>
 4    1  0.1100959E+000  0.1995454E+03  0.7546771E-02  0.1150123E+00
         21   -1    0    0  503  502  0.00000000000E+00  0.00000000000E+00  0.30498131112E+03  0.30498131112E+03  0.00000000000E+00 0. -1.
         21   -1    0    0  501  503 -0.00000000000E+00 -0.00000000000E+00 -0.33237979051E+03  0.33237979051E+03  0.00000000000E+00 0. -1.
          6    1    1    2  501    0 -0.91370290354E+02  0.43426420018E+02 -0.26202401166E+03  0.32935538040E+03  0.17200000000E+03 0. -1.
         -6    1    1    2    0  502  0.91370290354E+02 -0.43426420018E+02  0.23462553227E+03  0.30800572122E+03  0.17200000000E+03 0. -1.
<mgrwt>
<rscale>  2 0.19954544E+03</rscale>
<asrwt>0</asrwt>
<pdfrwt beam="1">  1       21 0.76245328E-01 0.19954544E+03</pdfrwt>
<pdfrwt beam="2">  1       21 0.83094947E-01 0.19954544E+03</pdfrwt>
<totfact> 0.19216796E+03</totfact>
</mgrwt>
</event>
<event>
 4    1  0.1100959E+000  0.2415182E+03  0.7546771E-02  0.1118786E+00
         21   -1    0    0  501  502  0.00000000000E+00  0.00000000000E+00  0.17104216151E+03  0.17104216151E+03  0.00000000000E+00 0. -1.
         21   -1    0    0  502  503 -0.00000000000E+00 -0.00000000000E+00 -0.78308914304E+03  0.78308914304E+03  0.00000000000E+00 0. -1.
          6    1    1    2  501    0  0.16951481234E+03  0.34309665406E+01  0.52412161515E+02  0.24713979406E+03  0.17200000000E+03 0. -1.
         -6    1    1    2    0  503 -0.16951481234E+03 -0.34309665406E+01 -0.66445914305E+03  0.70699151049E+03  0.17200000000E+03 0. -1.
<mgrwt>
<rscale>  2 0.24151820E+03</rscale>
<asrwt>0</asrwt>
<pdfrwt beam="1">  1       21 0.42760540E-01 0.24151820E+03</pdfrwt>
<pdfrwt beam="2">  1       21 0.19577229E+00 0.24151820E+03</pdfrwt>
<totfact> 0.71441891E+02</totfact>
</mgrwt>
</event>
<event>
 4    1  0.1100959E+000  0.1720117E+03  0.7546771E-02  0.1175766E+00
         21   -1    0    0  501  502  0.00000000000E+00  0.00000000000E+00  0.82120024590E+03  0.82120024590E+03  0.00000000000E+00 0.  1.
         21   -1    0    0  502  503 -0.00000000000E+00 -0.00000000000E+00 -0.70089365198E+02  0.70089365198E+02  0.00000000000E+00 0.  1.
          6    1    1    2  501    0 -0.15021640240E+01 -0.13354956954E+01  0.68621129638E+03  0.70744185862E+03  0.17200000000E+03 0.  1.
         -6    1    1    2    0  503  0.15021640240E+01  0.13354956954E+01  0.64899584316E+02  0.18384775247E+03  0.17200000000E+03 0.  1.
<mgrwt>
<rscale>  2 0.17201174E+03</rscale>
<asrwt>0</asrwt>
<pdfrwt beam="1">  1       21 0.20530003E+00 0.17201174E+03</pdfrwt>
<pdfrwt beam="2">  1       21 0.17522344E-01 0.17201174E+03</pdfrwt>
<totfact> 0.37429809E+03</totfact>
</mgrwt>
</event>
<event>
 4    1  0.1100959E+000  0.1917752E+03  0.7546771E-02  0.1156870E+00
         21   -1    0    0  501  502  0.00000000000E+00  0.00000000000E+00  0.95882641793E+02  0.95882641793E+02  0.00000000000E+00 0. -1.
         21   -1    0    0  502  503 -0.00000000000E+00 -0.00000000000E+00 -0.57817791451E+03  0.57817791451E+03  0.00000000000E+00 0.  1.
          6    1    1    2  501    0 -0.42158983508E+02 -0.73595908968E+02 -0.45615548630E+02  0.19712563503E+03  0.17200000000E+03 0. -1.
         -6    1    1    2    0  503  0.42158983508E+02  0.73595908968E+02 -0.43667972409E+03  0.47693492128E+03  0.17200000000E+03 0.  1.
<mgrwt>
<rscale>  2 0.19177523E+03</rscale>
<asrwt>0</asrwt>
<pdfrwt beam="1">  1       21 0.23970661E-01 0.19177523E+03</pdfrwt>
<pdfrwt beam="2">  1       21 0.14454448E+00 0.19177523E+03</pdfrwt>
<totfact> 0.54088662E+03</totfact>
</mgrwt>
</event>
<event>
 4    1  0.1100959E+000  0.2224335E+03  0.7546771E-02  0.1132082E+00
         21   -1    0    0  501  502  0.00000000000E+00  0.00000000000E+00  0.72958690128E+03  0.72958690128E+03  0.00000000000E+00 0.  1.
         21   -1    0    0  502  503 -0.00000000000E+00 -0.00000000000E+00 -0.13199563476E+03  0.13199563476E+03  0.00000000000E+00 0.  1.
          6    1    1    2  501    0 -0.13296251879E+03 -0.47049408014E+02  0.59918897726E+03  0.63914326146E+03  0.17200000000E+03 0.  1.
         -6    1    1    2    0  503  0.13296251879E+03  0.47049408014E+02 -0.15977107481E+01  0.22243927458E+03  0.17200000000E+03 0.  1.
<mgrwt>
<rscale>  2 0.22243354E+03</rscale>
<asrwt>0</asrwt>
<pdfrwt beam="1">  1       21 0.18239671E+00 0.22243354E+03</pdfrwt>
<pdfrwt beam="2">  1       21 0.32998911E-01 0.22243354E+03</pdfrwt>
<totfact> 0.15045937E+03</totfact>
</mgrwt>
</event>
<event>
 4    1  0.1100959E+000  0.1953731E+03  0.7546771E-02  0.1153702E+00
         21   -1    0    0  501  502  0.00000000000E+00  0.00000000000E+00  0.26773509479E+03  0.26773509479E+03  0.00000000000E+00 0. -1.
         21   -1    0    0  502  503 -0.00000000000E+00 -0.00000000000E+00 -0.24761375964E+03  0.24761375964E+03  0.00000000000E+00 0. -1.
          6    1    1    2  501    0 -0.32650352309E+02 -0.86721462885E+02  0.17789146036E+03  0.26422723043E+03  0.17200000000E+03 0. -1.
         -6    1    1    2    0  503  0.32650352309E+02  0.86721462885E+02 -0.15777012521E+03  0.25112162400E+03  0.17200000000E+03 0. -1.
<mgrwt>
<rscale>  2 0.19537312E+03</rscale>
<asrwt>0</asrwt>
<pdfrwt beam="1">  1       21 0.66933774E-01 0.19537312E+03</pdfrwt>
<pdfrwt beam="2">  1       21 0.61903440E-01 0.19537312E+03</pdfrwt>
<totfact> 0.49427039E+03</totfact>
</mgrwt>
</event>
<event>
 4    1  0.1100959E+000  0.2664850E+03  0.7546771E-02  0.1103308E+00
         21   -1    0    0  501  502  0.00000000000E+00  0.00000000000E+00  0.30185544424E+03  0.30185544424E+03  0.00000000000E+00 0. -1.
         21   -1    0    0  502  503 -0.00000000000E+00 -0.00000000000E+00 -0.23716733437E+03  0.23716733437E+03  0.00000000000E+00 0. -1.
          6    1    1    2  501    0  0.18041105356E+03 -0.94244860794E+02  0.56518962960E+02  0.27241261940E+03  0.17200000000E+03 0. -1.
         -6    1    1    2    0  503 -0.18041105356E+03  0.94244860794E+02  0.81691469092E+01  0.26661015921E+03  0.17200000000E+03 0. -1.
<mgrwt>
<rscale>  2 0.26648498E+03</rscale>
<asrwt>0</asrwt>
<pdfrwt beam="1">  1       21 0.75463861E-01 0.26648498E+03</pdfrwt>
<pdfrwt beam="2">  1       21 0.59291834E-01 0.26648498E+03</pdfrwt>
<totfact> 0.39570880E+03</totfact>
</mgrwt>
</event>
<event>
 4    1  0.1100959E+000  0.1874638E+03  0.7546771E-02  0.1160769E+00
         21   -1    0    0  503  502  0.00000000000E+00  0.00000000000E+00  0.35653371513E+03  0.35653371513E+03  0.00000000000E+00 0.  1.
         21   -1    0    0  501  503 -0.00000000000E+00 -0.00000000000E+00 -0.20683712011E+03  0.20683712011E+03  0.00000000000E+00 0.  1.
          6    1    1    2  501    0  0.27283380457E+02 -0.69385103630E+02 -0.12895124919E+03  0.22753263529E+03  0.17200000000E+03 0.  1.
         -6    1    1    2    0  502 -0.27283380457E+02  0.69385103630E+02  0.27864784421E+03  0.33583819994E+03  0.17200000000E+03 0.  1.
<mgrwt>
<rscale>  2 0.18746380E+03</rscale>
<asrwt>0</asrwt>
<pdfrwt beam="1">  1       21 0.89133428E-01 0.18746380E+03</pdfrwt>
<pdfrwt beam="2">  1       21 0.51709281E-01 0.18746380E+03</pdfrwt>
<totfact> 0.38323808E+03</totfact>
</mgrwt>
</event>
<event>
 4    1  0.1100959E+000  0.1837207E+03  0.7546771E-02  0.1164250E+00
         21   -1    0    0  501  502  0.00000000000E+00  0.00000000000E+00  0.14768570649E+03  0.14768570649E+03  0.00000000000E+00 0. -1.
         21   -1    0    0  502  503 -0.00000000000E+00 -0.00000000000E+00 -0.45788415579E+03  0.45788415579E+03  0.00000000000E+00 0. -1.
          6    1    1    2  501    0 -0.64374232745E+02  0.50243899442E+01  0.59186197724E+02  0.19301889114E+03  0.17200000000E+03 0.  1.
         -6    1    1    2    0  503  0.64374232745E+02 -0.50243899442E+01 -0.36938464703E+03  0.41255097115E+03  0.17200000000E+03 0.  1.
<mgrwt>
<rscale>  2 0.18372067E+03</rscale>
<asrwt>0</asrwt>
<pdfrwt beam="1">  1       21 0.36921427E-01 0.18372067E+03</pdfrwt>
<pdfrwt beam="2">  1       21 0.11447104E+00 0.18372067E+03</pdfrwt>
<totfact> 0.42259670E+03</totfact>
</mgrwt>
</event>
<event>
 4    1  0.1100959E+000  0.1809879E+03  0.7546771E-02  0.1166850E+00
         21   -1    0    0  501  502  0.00000000000E+00  0.00000000000E+00  0.50703615958E+03  0.50703615958E+03  0.00000000000E+00 0.  1.
         21   -1    0    0  502  503 -0.00000000000E+00 -0.00000000000E+00 -0.98588812830E+02  0.98588812830E+02  0.00000000000E+00 0.  1.
          6    1    1    2  501    0  0.27597833238E+02 -0.49101813565E+02  0.38201132342E+03  0.42271654772E+03  0.17200000000E+03 0.  1.
         -6    1    1    2    0  503 -0.27597833238E+02  0.49101813565E+02  0.26436023335E+02  0.18290842470E+03  0.17200000000E+03 0.  1.
<mgrwt>
<rscale>  2 0.18098792E+03</rscale>
<asrwt>0</asrwt>
<pdfrwt beam="1">  1       21 0.12675903E+00 0.18098792E+03</pdfrwt>
<pdfrwt beam="2">  1       21 0.24647205E-01 0.18098792E+03</pdfrwt>
<totfact> 0.72338619E+03</totfact>
</mgrwt>
</event>
<event>
 4    1  0.1100959E+000  0.2388921E+03  0.7546771E-02  0.1120533E+00
         21   -1    0    0  503  502  0.00000000000E+00  0.00000000000E+00  0.26877216623E+03  0.26877216623E+03  0.00000000000E+00 0. -1.
         21   -1    0    0  501  503 -0.00000000000E+00 -0.00000000000E+00 -0.25069111613E+03  0.25069111613E+03  0.00000000000E+00 0. -1.
          6    1    1    2  501    0 -0.83028270477E+02 -0.14349822563E+03 -0.92556055736E+02  0.25619535107E+03  0.17200000000E+03 0. -1.
         -6    1    1    2    0  502  0.83028270477E+02  0.14349822563E+03  0.11063710584E+03  0.26326793129E+03  0.17200000000E+03 0. -1.
<mgrwt>
<rscale>  2 0.23889210E+03</rscale>
<asrwt>0</asrwt>
<pdfrwt beam="1">  1       21 0.67193042E-01 0.23889210E+03</pdfrwt>
<pdfrwt beam="2">  1       21 0.62672779E-01 0.23889210E+03</pdfrwt>
<totfact> 0.46233067E+03</totfact>
</mgrwt>
</event>
<event>
 4    1  0.1100959E+000  0.2625330E+03  0.7546771E-02  0.1105631E+00
         21   -1    0    0  501  502  0.00000000000E+00  0.00000000000E+00  0.55508529982E+03  0.55508529982E+03  0.00000000000E+00 0. -1.
         21   -1    0    0  502  503 -0.00000000000E+00 -0.00000000000E+00 -0.22823488089E+03  0.22823488089E+03  0.00000000000E+00 0.  1.
          6    1    1    2  501    0  0.17513858350E+03  0.93091700764E+02  0.42789464877E+03  0.50201336499E+03  0.17200000000E+03 0. -1.
         -6    1    1    2    0  503 -0.17513858350E+03 -0.93091700764E+02 -0.10104422985E+03  0.28130681572E+03  0.17200000000E+03 0.  1.
<mgrwt>
<rscale>  2 0.26253302E+03</rscale>
<asrwt>0</asrwt>
<pdfrwt beam="1">  1       21 0.13877132E+00 0.26253302E+03</pdfrwt>
<pdfrwt beam="2">  1       21 0.57058721E-01 0.26253302E+03</pdfrwt>
<totfact> 0.99199377E+02</totfact>
</mgrwt>
</event>
<event>
 4    1  0.1100959E+000  0.2098277E+03  0.7546771E-02  0.1141703E+00
         21   -1    0    0  503  502  0.00000000000E+00  0.00000000000E+00  0.47790728108E+03  0.47790728108E+03  0.00000000000E+00 0.  1.
         21   -1    0    0  501  503 -0.00000000000E+00 -0.00000000000E+00 -0.12021538064E+03  0.12021538064E+03  0.00000000000E+00 0. -1.
          6    1    1    2  501    0  0.47621113428E+02 -0.11034434055E+03  0.34284662351E+02  0.21261016441E+03  0.17200000000E+03 0. -1.
         -6    1    1    2    0  502 -0.47621113428E+02  0.11034434055E+03  0.32340723808E+03  0.38551249731E+03  0.17200000000E+03 0.  1.
<mgrwt>
<rscale>  2 0.20982765E+03</rscale>
<asrwt>0</asrwt>
<pdfrwt beam="1">  1       21 0.11947682E+00 0.20982765E+03</pdfrwt>
<pdfrwt beam="2">  1       21 0.30053846E-01 0.20982765E+03</pdfrwt>
<totfact> 0.55934455E+03</totfact>
</mgrwt>
</event>
<event>
 4    1  0.1100959E+000  0.2165794E+03  0.7546771E-02  0.1136459E+00
         21   -1    0    0  503  502  0.00000000000E+00  0.00000000000E+00  0.86290610970E+03  0.86290610970E+03  0.00000000000E+00 0.  1.
         21   -1    0    0  501  503 -0.00000000000E+00 -0.00000000000E+00 -0.55927371116E+02  0.55927371116E+02  0.00000000000E+00 0. -1.
          6    1    1    2  501    0 -0.85683958949E+02 -0.99904338941E+02  0.32655252895E+03  0.39184585225E+03  0.17200000000E+03 0. -1.
         -6    1    1    2    0  502  0.85683958949E+02  0.99904338941E+02  0.48042620964E+03  0.52698762857E+03  0.17200000000E+03 0.  1.
<mgrwt>
<rscale>  2 0.21657936E+03</rscale>
<asrwt>0</asrwt>
<pdfrwt beam="1">  1       21 0.21572648E+00 0.21657936E+03</pdfrwt>
<pdfrwt beam="2">  1       21 0.13981846E-01 0.21657936E+03</pdfrwt>
<totfact> 0.46589469E+03</totfact>
</mgrwt>
</event>
<event>
 4    1  0.1100959E+000  0.2067065E+03  0.7546771E-02  0.1144201E+00
         21   -1    0    0  501  502  0.00000000000E+00  0.00000000000E+00  0.58629816257E+03  0.58629816257E+03  0.00000000000E+00 0. -1.
         21   -1    0    0  502  503 -0.00000000000E+00 -0.00000000000E+00 -0.17057392030E+03  0.17057392030E+03  0.00000000000E+00 0.  1.
          6    1    1    2  501    0 -0.48907791153E+02 -0.10368996601E+03  0.49426466961E+03  0.53574727691E+03  0.17200000000E+03 0. -1.
         -6    1    1    2    0  503  0.48907791153E+02  0.10368996601E+03 -0.78540427340E+02  0.22112480596E+03  0.17200000000E+03 0.  1.
<mgrwt>
<rscale>  2 0.20670651E+03</rscale>
<asrwt>0</asrwt>
<pdfrwt beam="1">  1       21 0.14657454E+00 0.20670651E+03</pdfrwt>
<pdfrwt beam="2">  1       21 0.42643481E-01 0.20670651E+03</pdfrwt>
<totfact> 0.16574076E+03</totfact>
</mgrwt>
</event>
<event>
 4    1  0.1100959E+000  0.1929826E+03  0.7546771E-02  0.1155798E+00
         21   -1    0    0  501  502  0.00000000000E+00  0.00000000000E+00  0.27519809086E+03  0.27519809086E+03  0.00000000000E+00 0. -1.
         21   -1    0    0  502  503 -0.00000000000E+00 -0.00000000000E+00 -0.15255933479E+03  0.15255933479E+03  0.00000000000E+00 0.  1.
          6    1    1    2  501    0 -0.11601406651E+02  0.86739272414E+02  0.13319713177E+03  0.23448618281E+03  0.17200000000E+03 0. -1.
         -6    1    1    2    0  503  0.11601406651E+02 -0.86739272414E+02 -0.10558375704E+02  0.19327124285E+03  0.17200000000E+03 0.  1.
<mgrwt>
<rscale>  2 0.19298263E+03</rscale>
<asrwt>0</asrwt>
<pdfrwt beam="1">  1       21 0.68799522E-01 0.19298263E+03</pdfrwt>
<pdfrwt beam="2">  1       21 0.38139834E-01 0.19298263E+03</pdfrwt>
<totfact> 0.12758974E+04</totfact>
</mgrwt>
</event>
<event>
 4    1  0.1100959E+000  0.1909510E+03  0.7546771E-02  0.1157606E+00
         21   -1    0    0  501  502  0.00000000000E+00  0.00000000000E+00  0.14482656807E+03  0.14482656807E+03  0.00000000000E+00 0.  1.
         21   -1    0    0  502  503 -0.00000000000E+00 -0.00000000000E+00 -0.26704985060E+03  0.26704985060E+03  0.00000000000E+00 0.  1.
          6    1    1    2  501    0  0.82567722841E+02  0.78013232719E+01 -0.11843230109E+02  0.19131793329E+03  0.17200000000E+03 0.  1.
         -6    1    1    2    0  503 -0.82567722841E+02 -0.78013232719E+01 -0.11038005243E+03  0.22055848538E+03  0.17200000000E+03 0.  1.
<mgrwt>
<rscale>  2 0.19095101E+03</rscale>
<asrwt>0</asrwt>
<pdfrwt beam="1">  1       21 0.36206642E-01 0.19095101E+03</pdfrwt>
<pdfrwt beam="2">  1       21 0.66762462E-01 0.19095101E+03</pdfrwt>
<totfact> 0.15140963E+04</totfact>
</mgrwt>
</event>
<event>
 4    1  0.1100959E+000  0.2029150E+03  0.7546771E-02  0.1147303E+00
         21   -1    0    0  501  502  0.00000000000E+00  0.00000000000E+00  0.76024662809E+02  0.76024662809E+02  0.00000000000E+00 0.  1.
         21   -1    0    0  502  503 -0.00000000000E+00 -0.00000000000E+00 -0.54464365152E+03  0.54464365152E+03  0.00000000000E+00 0. -1.
          6    1    1    2  501    0 -0.95628032725E+02 -0.49454776341E+02 -0.25753171716E+03  0.32786747458E+03  0.17200000000E+03 0. -1.
         -6    1    1    2    0  503  0.95628032725E+02  0.49454776341E+02 -0.21108727155E+03  0.29280083975E+03  0.17200000000E+03 0.  1.
<mgrwt>
<rscale>  2 0.20291500E+03</rscale>
<asrwt>0</asrwt>
<pdfrwt beam="1">  1       21 0.19006166E-01 0.20291500E+03</pdfrwt>
<pdfrwt beam="2">  1       21 0.13616091E+00 0.20291500E+03</pdfrwt>
<totfact> 0.96822984E+03</totfact>
</mgrwt>
</event>
<event>
 4    1  0.1100959E+000  0.2133800E+03  0.7546771E-02  0.1138917E+00
         21   -1    0    0  501  502  0.00000000000E+00  0.00000000000E+00  0.11598423020E+04  0.11598423020E+04  0.00000000000E+00 0.  1.
         21   -1    0    0  502  503 -0.00000000000E+00 -0.00000000000E+00 -0.19763440098E+03  0.19763440098E+03  0.00000000000E+00 0. -1.
          6    1    1    2  501    0  0.12399796159E+03 -0.23906496000E+02  0.10887054053E+04  0.11094189806E+04  0.17200000000E+03 0.  1.
         -6    1    1    2    0  503 -0.12399796159E+03  0.23906496000E+02 -0.12649750428E+03  0.24805772236E+03  0.17200000000E+03 0. -1.
<mgrwt>
<rscale>  2 0.21337998E+03</rscale>
<asrwt>0</asrwt>
<pdfrwt beam="1">  1       21 0.28996056E+00 0.21337998E+03</pdfrwt>
<pdfrwt beam="2">  1       21 0.49408604E-01 0.21337998E+03</pdfrwt>
<totfact> 0.14765099E+02</totfact>
</mgrwt>
</event>
<event>
 4    1  0.1100959E+000  0.1891167E+03  0.7546771E-02  0.1159260E+00
         21   -1    0    0  501  502  0.00000000000E+00  0.00000000000E+00  0.11525249259E+03  0.11525249259E+03  0.00000000000E+00 0.  1.
         21   -1    0    0  502  503 -0.00000000000E+00 -0.00000000000E+00 -0.37598008062E+03  0.37598008062E+03  0.00000000000E+00 0.  1.
          6    1    1    2  501    0 -0.76802894483E+02  0.16806318732E+02 -0.23300598727E+03  0.30009486342E+03  0.17200000000E+03 0.  1.
         -6    1    1    2    0  503  0.76802894483E+02 -0.16806318732E+02 -0.27721600763E+02  0.19113770978E+03  0.17200000000E+03 0.  1.
<mgrwt>
<rscale>  2 0.18911673E+03</rscale>
<asrwt>0</asrwt>
<pdfrwt beam="1">  1       21 0.28813123E-01 0.18911673E+03</pdfrwt>
<pdfrwt beam="2">  1       21 0.93995020E-01 0.18911673E+03</pdfrwt>
<totfact> 0.10973065E+04</totfact>
</mgrwt>
</event>
<event>
 4    1  0.1100959E+000  0.2367011E+03  0.7546771E-02  0.1122010E+00
         21   -1    0    0  503  502  0.00000000000E+00  0.00000000000E+00  0.35227053649E+03  0.35227053649E+03  0.00000000000E+00 0. -1.
         21   -1    0    0  501  503 -0.00000000000E+00 -0.00000000000E+00 -0.35866430899E+03  0.35866430899E+03  0.00000000000E+00 0.  1.
          6    1    1    2  501    0 -0.15291422394E+03 -0.55323236012E+02 -0.26838575536E+03  0.35785239136E+03  0.17200000000E+03 0.  1.
         -6    1    1    2    0  502  0.15291422394E+03  0.55323236012E+02  0.26199198286E+03  0.35308245412E+03  0.17200000000E+03 0. -1.
<mgrwt>
<rscale>  2 0.23670112E+03</rscale>
<asrwt>0</asrwt>
<pdfrwt beam="1">  1       21 0.88067634E-01 0.23670112E+03</pdfrwt>
<pdfrwt beam="2">  1       21 0.89666077E-01 0.23670112E+03</pdfrwt>
<totfact> 0.11244040E+03</totfact>
</mgrwt>
</event>
<event>
 4    1  0.1100959E+000  0.1859530E+03  0.7546771E-02  0.1162163E+00
         21   -1    0    0  501  502  0.00000000000E+00  0.00000000000E+00  0.48457489225E+02  0.48457489225E+02  0.00000000000E+00 0. -1.
         21   -1    0    0  502  503 -0.00000000000E+00 -0.00000000000E+00 -0.79634802996E+03  0.79634802996E+03  0.00000000000E+00 0. -1.
          6    1    1    2  501    0 -0.46451570825E+02  0.53261333954E+02 -0.23777116557E+03  0.30185036906E+03  0.17200000000E+03 0. -1.
         -6    1    1    2    0  503  0.46451570825E+02 -0.53261333954E+02 -0.51011937517E+03  0.54295515013E+03  0.17200000000E+03 0. -1.
<mgrwt>
<rscale>  2 0.18595300E+03</rscale>
<asrwt>0</asrwt>
<pdfrwt beam="1">  1       21 0.12114373E-01 0.18595300E+03</pdfrwt>
<pdfrwt beam="2">  1       21 0.19908700E+00 0.18595300E+03</pdfrwt>
<totfact> 0.78982524E+03</totfact>
</mgrwt>
</event>
<event>
 4    1  0.1100959E+000  0.1768212E+03  0.7546771E-02  0.1170915E+00
         21   -1    0    0  501  502  0.00000000000E+00  0.00000000000E+00  0.26710099331E+03  0.26710099331E+03  0.00000000000E+00 0. -1.
         21   -1    0    0  502  503 -0.00000000000E+00 -0.00000000000E+00 -0.18299118499E+03  0.18299118499E+03  0.00000000000E+00 0. -1.
          6    1    1    2  501    0 -0.38803352977E+02  0.13268322835E+02  0.17714244993E+03  0.25029022386E+03  0.17200000000E+03 0. -1.
         -6    1    1    2    0  503  0.38803352977E+02 -0.13268322835E+02 -0.93032641613E+02  0.19980195444E+03  0.17200000000E+03 0. -1.
<mgrwt>
<rscale>  2 0.17682123E+03</rscale>
<asrwt>0</asrwt>
<pdfrwt beam="1">  1       21 0.66775248E-01 0.17682123E+03</pdfrwt>
<pdfrwt beam="2">  1       21 0.45747796E-01 0.17682123E+03</pdfrwt>
<totfact> 0.95197427E+03</totfact>
</mgrwt>
</event>
<event>
 4    1  0.1100959E+000  0.1759328E+03  0.7546771E-02  0.1171798E+00
         21   -1    0    0  501  502  0.00000000000E+00  0.00000000000E+00  0.93332694150E+02  0.93332694150E+02  0.00000000000E+00 0. -1.
         21   -1    0    0  502  503 -0.00000000000E+00 -0.00000000000E+00 -0.52365831707E+03  0.52365831707E+03  0.00000000000E+00 0. -1.
          6    1    1    2  501    0  0.14383733213E+02 -0.34080364012E+02 -0.28351948974E+02  0.17820268237E+03  0.17200000000E+03 0.  1.
         -6    1    1    2    0  503 -0.14383733213E+02  0.34080364012E+02 -0.40197367395E+03  0.43878832886E+03  0.17200000000E+03 0.  1.
<mgrwt>
<rscale>  2 0.17593284E+03</rscale>
<asrwt>0</asrwt>
<pdfrwt beam="1">  1       21 0.23333174E-01 0.17593284E+03</pdfrwt>
<pdfrwt beam="2">  1       21 0.13091458E+00 0.17593284E+03</pdfrwt>
<totfact> 0.74319896E+03</totfact>
</mgrwt>
</event>
<event>
 4    1  0.1100959E+000  0.2147139E+03  0.7546771E-02  0.1137887E+00
         21   -1    0    0  501  502  0.00000000000E+00  0.00000000000E+00  0.46073603203E+03  0.46073603203E+03  0.00000000000E+00 0. -1.
         21   -1    0    0  502  503 -0.00000000000E+00 -0.00000000000E+00 -0.18718902220E+03  0.18718902220E+03  0.00000000000E+00 0. -1.
          6    1    1    2  501    0  0.13940812739E+02  0.12776429429E+03  0.35779352207E+03  0.41727480824E+03  0.17200000000E+03 0. -1.
         -6    1    1    2    0  503 -0.13940812739E+02 -0.12776429429E+03 -0.84246512235E+02  0.23065024600E+03  0.17200000000E+03 0. -1.
<mgrwt>
<rscale>  2 0.21471391E+03</rscale>
<asrwt>0</asrwt>
<pdfrwt beam="1">  1       21 0.11518401E+00 0.21471391E+03</pdfrwt>
<pdfrwt beam="2">  1       21 0.46797256E-01 0.21471391E+03</pdfrwt>
<totfact> 0.25045334E+03</totfact>
</mgrwt>
</event>
<event>
 4    1  0.1100959E+000  0.3219934E+03  0.7546771E-02  0.1074736E+00
         21   -1    0    0  503  502  0.00000000000E+00  0.00000000000E+00  0.36809037340E+03  0.36809037340E+03  0.00000000000E+00 0. -1.
         21   -1    0    0  501  503 -0.00000000000E+00 -0.00000000000E+00 -0.63024523788E+03  0.63024523788E+03  0.00000000000E+00 0.  1.
          6    1    1    2  501    0 -0.25993179924E+03 -0.80816095114E+02 -0.50230519076E+03  0.59664921533E+03  0.17200000000E+03 0.  1.
         -6    1    1    2    0  502  0.25993179924E+03  0.80816095114E+02  0.24015032628E+03  0.40168639596E+03  0.17200000000E+03 0. -1.
<mgrwt>
<rscale>  2 0.32199345E+03</rscale>
<asrwt>0</asrwt>
<pdfrwt beam="1">  1       21 0.92022594E-01 0.32199345E+03</pdfrwt>
<pdfrwt beam="2">  1       21 0.15756131E+00 0.32199345E+03</pdfrwt>
<totfact> 0.23115666E+02</totfact>
</mgrwt>
</event>
<event>
 4    1  0.1100959E+000  0.1881586E+03  0.7546771E-02  0.1160133E+00
         21   -1    0    0  501  502  0.00000000000E+00  0.00000000000E+00  0.56188334790E+02  0.56188334790E+02  0.00000000000E+00 0.  1.
         21   -1    0    0  502  503 -0.00000000000E+00 -0.00000000000E+00 -0.63233291916E+03  0.63233291916E+03  0.00000000000E+00 0. -1.
          6    1    1    2  501    0 -0.39943340492E+02 -0.64993674704E+02 -0.26756425699E+03  0.32709980101E+03  0.17200000000E+03 0.  1.
         -6    1    1    2    0  503  0.39943340492E+02  0.64993674704E+02 -0.30858032739E+03  0.36142145295E+03  0.17200000000E+03 0.  1.
<mgrwt>
<rscale>  2 0.18815857E+03</rscale>
<asrwt>0</asrwt>
<pdfrwt beam="1">  1       21 0.14047084E-01 0.18815857E+03</pdfrwt>
<pdfrwt beam="2">  1       21 0.15808323E+00 0.18815857E+03</pdfrwt>
<totfact> 0.11529362E+04</totfact>
</mgrwt>
</event>
<event>
 4    1  0.1100959E+000  0.1980204E+03  0.7546771E-02  0.1151420E+00
         21   -1    0    0  501  502  0.00000000000E+00  0.00000000000E+00  0.10736367279E+03  0.10736367279E+03  0.00000000000E+00 0. -1.
         21   -1    0    0  502  503 -0.00000000000E+00 -0.00000000000E+00 -0.41936230917E+03  0.41936230917E+03  0.00000000000E+00 0. -1.
          6    1    1    2  501    0 -0.79662685532E+02  0.57288253185E+02 -0.61375322741E+02  0.20731381445E+03  0.17200000000E+03 0. -1.
         -6    1    1    2    0  503  0.79662685532E+02 -0.57288253185E+02 -0.25062331363E+03  0.31941216751E+03  0.17200000000E+03 0. -1.
<mgrwt>
<rscale>  2 0.19802042E+03</rscale>
<asrwt>0</asrwt>
<pdfrwt beam="1">  1       21 0.26840918E-01 0.19802042E+03</pdfrwt>
<pdfrwt beam="2">  1       21 0.10484058E+00 0.19802042E+03</pdfrwt>
<totfact> 0.96559566E+03</totfact>
</mgrwt>
</event>
<event>
 4    1  0.1100959E+000  0.1917960E+03  0.7546771E-02  0.1156851E+00
         21   -1    0    0  501  502  0.00000000000E+00  0.00000000000E+00  0.59509891593E+03  0.59509891593E+03  0.00000000000E+00 0.  1.
         21   -1    0    0  502  503 -0.00000000000E+00 -0.00000000000E+00 -0.72885485145E+02  0.72885485145E+02  0.00000000000E+00 0. -1.
          6    1    1    2  501    0  0.71516691833E+02 -0.45684571790E+02  0.39127636820E+03  0.43575556637E+03  0.17200000000E+03 0.  1.
         -6    1    1    2    0  503 -0.71516691833E+02  0.45684571790E+02  0.13093706259E+03  0.23222883471E+03  0.17200000000E+03 0. -1.
<mgrwt>
<rscale>  2 0.19179603E+03</rscale>
<asrwt>0</asrwt>
<pdfrwt beam="1">  1       21 0.14877471E+00 0.19179603E+03</pdfrwt>
<pdfrwt beam="2">  1       21 0.18221373E-01 0.19179603E+03</pdfrwt>
<totfact> 0.83889827E+03</totfact>
</mgrwt>
</event>
<event>
 4    1  0.1100959E+000  0.2041945E+03  0.7546771E-02  0.1146248E+00
         21   -1    0    0  503  502  0.00000000000E+00  0.00000000000E+00  0.29345040102E+02  0.29345040102E+02  0.00000000000E+00 0.  1.
         21   -1    0    0  501  503 -0.00000000000E+00 -0.00000000000E+00 -0.16132072437E+04  0.16132072437E+04  0.00000000000E+00 0.  1.
          6    1    1    2  501    0 -0.77999553016E+02  0.77636764638E+02 -0.50834870579E+03  0.54782643617E+03  0.17200000000E+03 0.  1.
         -6    1    1    2    0  502  0.77999553016E+02 -0.77636764638E+02 -0.10755134978E+04  0.10947258476E+04  0.17200000000E+03 0.  1.
<mgrwt>
<rscale>  2 0.20419451E+03</rscale>
<asrwt>0</asrwt>
<pdfrwt beam="1">  1       21 0.73362598E-02 0.20419451E+03</pdfrwt>
<pdfrwt beam="2">  1       21 0.40330182E+00 0.20419451E+03</pdfrwt>
<totfact> 0.11392005E+03</totfact>
</mgrwt>
</event>
<event>
 4    1  0.1100959E+000  0.2854632E+03  0.7546771E-02  0.1092742E+00
         21   -1    0    0  501  502  0.00000000000E+00  0.00000000000E+00  0.72165688817E+03  0.72165688817E+03  0.00000000000E+00 0.  1.
         21   -1    0    0  502  503 -0.00000000000E+00 -0.00000000000E+00 -0.13490715122E+03  0.13490715122E+03  0.00000000000E+00 0. -1.
          6    1    1    2  501    0  0.16919725777E+03 -0.15256965725E+03  0.46627714726E+03  0.54672076091E+03  0.17200000000E+03 0. -1.
         -6    1    1    2    0  503 -0.16919725777E+03  0.15256965725E+03  0.12047258969E+03  0.30984327848E+03  0.17200000000E+03 0.  1.
<mgrwt>
<rscale>  2 0.28546315E+03</rscale>
<asrwt>0</asrwt>
<pdfrwt beam="1">  1       21 0.18041421E+00 0.28546315E+03</pdfrwt>
<pdfrwt beam="2">  1       21 0.33726790E-01 0.28546315E+03</pdfrwt>
<totfact> 0.14127307E+03</totfact>
</mgrwt>
</event>
<event>
 4    1  0.1100959E+000  0.1740672E+03  0.7546771E-02  0.1173672E+00
         21   -1    0    0  501  502  0.00000000000E+00  0.00000000000E+00  0.45182353741E+03  0.45182353741E+03  0.00000000000E+00 0.  1.
         21   -1    0    0  502  503 -0.00000000000E+00 -0.00000000000E+00 -0.67222019669E+02  0.67222019669E+02  0.00000000000E+00 0.  1.
          6    1    1    2  501    0 -0.39859357867E+01  0.26448091600E+02  0.17956870759E+03  0.25008860425E+03  0.17200000000E+03 0.  1.
         -6    1    1    2    0  503  0.39859357867E+01 -0.26448091600E+02  0.20503281015E+03  0.26895695283E+03  0.17200000000E+03 0.  1.
<mgrwt>
<rscale>  2 0.17406720E+03</rscale>
<asrwt>0</asrwt>
<pdfrwt beam="1">  1       21 0.11295588E+00 0.17406720E+03</pdfrwt>
<pdfrwt beam="2">  1       21 0.16805506E-01 0.17406720E+03</pdfrwt>
<totfact> 0.19748278E+04</totfact>
</mgrwt>
</event>
<event>
 4    1  0.1100959E+000  0.1865739E+03  0.7546771E-02  0.1161588E+00
         21   -1    0    0  503  502  0.00000000000E+00  0.00000000000E+00  0.47715512843E+02  0.47715512843E+02  0.00000000000E+00 0.  1.
         21   -1    0    0  501  503 -0.00000000000E+00 -0.00000000000E+00 -0.72958594733E+03  0.72958594733E+03  0.00000000000E+00 0. -1.
          6    1    1    2  501    0  0.62726536792E+02 -0.35933510162E+02 -0.33749221459E+03  0.38563043251E+03  0.17200000000E+03 0. -1.
         -6    1    1    2    0  502 -0.62726536792E+02  0.35933510162E+02 -0.34437821990E+03  0.39167102766E+03  0.17200000000E+03 0.  1.
<mgrwt>
<rscale>  2 0.18657394E+03</rscale>
<asrwt>0</asrwt>
<pdfrwt beam="1">  1       21 0.11928878E-01 0.18657394E+03</pdfrwt>
<pdfrwt beam="2">  1       21 0.18239649E+00 0.18657394E+03</pdfrwt>
<totfact> 0.10447016E+04</totfact>
</mgrwt>
</event>
<event>
 4    1  0.1100959E+000  0.3005507E+03  0.7546771E-02  0.1084966E+00
         21   -1    0    0  501  502  0.00000000000E+00  0.00000000000E+00  0.32152270016E+03  0.32152270016E+03  0.00000000000E+00 0. -1.
         21   -1    0    0  502  503 -0.00000000000E+00 -0.00000000000E+00 -0.36744149177E+03  0.36744149177E+03  0.00000000000E+00 0.  1.
          6    1    1    2  501    0 -0.20192903453E+03 -0.14132023636E+03  0.14417564646E+03  0.33334270837E+03  0.17200000000E+03 0. -1.
         -6    1    1    2    0  503  0.20192903453E+03  0.14132023636E+03 -0.19009443806E+03  0.35562148356E+03  0.17200000000E+03 0.  1.
<mgrwt>
<rscale>  2 0.30055073E+03</rscale>
<asrwt>0</asrwt>
<pdfrwt beam="1">  1       21 0.80380675E-01 0.30055073E+03</pdfrwt>
<pdfrwt beam="2">  1       21 0.91860373E-01 0.30055073E+03</pdfrwt>
<totfact> 0.12530950E+03</totfact>
</mgrwt>
</event>
<event>
 4    1  0.1100959E+000  0.2184352E+03  0.7546771E-02  0.1135055E+00
         21   -1    0    0  503  502  0.00000000000E+00  0.00000000000E+00  0.80630714628E+03  0.80630714628E+03  0.00000000000E+00 0. -1.
         21   -1    0    0  501  503 -0.00000000000E+00 -0.00000000000E+00 -0.95722174873E+02  0.95722174873E+02  0.00000000000E+00 0. -1.
          6    1    1    2  501    0 -0.98131507302E+02  0.92196326255E+02  0.76612418032E+02  0.23148092340E+03  0.17200000000E+03 0. -1.
         -6    1    1    2    0  502  0.98131507302E+02 -0.92196326255E+02  0.63397255338E+03  0.67054839776E+03  0.17200000000E+03 0. -1.
<mgrwt>
<rscale>  2 0.21843524E+03</rscale>
<asrwt>0</asrwt>
<pdfrwt beam="1">  1       21 0.20157677E+00 0.21843524E+03</pdfrwt>
<pdfrwt beam="2">  1       21 0.23930546E-01 0.21843524E+03</pdfrwt>
<totfact> 0.21049984E+03</totfact>
</mgrwt>
</event>
<event>
 4    1  0.1100959E+000  0.1960533E+03  0.7546771E-02  0.1153112E+00
         21   -1    0    0  501  502  0.00000000000E+00  0.00000000000E+00  0.24257381295E+03  0.24257381295E+03  0.00000000000E+00 0.  1.
         21   -1    0    0  502  503 -0.00000000000E+00 -0.00000000000E+00 -0.15849582045E+03  0.15849582045E+03  0.00000000000E+00 0.  1.
          6    1    1    2  501    0 -0.38124081882E+02 -0.86020028435E+02  0.45280339552E+02  0.20121431376E+03  0.17200000000E+03 0. -1.
         -6    1    1    2    0  503  0.38124081882E+02  0.86020028435E+02  0.38797652947E+02  0.19985531963E+03  0.17200000000E+03 0. -1.
<mgrwt>
<rscale>  2 0.19605329E+03</rscale>
<asrwt>0</asrwt>
<pdfrwt beam="1">  1       21 0.60643453E-01 0.19605329E+03</pdfrwt>
<pdfrwt beam="2">  1       21 0.39623955E-01 0.19605329E+03</pdfrwt>
<totfact> 0.15515009E+04</totfact>
</mgrwt>
</event>
<event>
 4    1  0.1100959E+000  0.2083956E+03  0.7546771E-02  0.1142843E+00
         21   -1    0    0  503  502  0.00000000000E+00  0.00000000000E+00  0.49760884220E+02  0.49760884220E+02  0.00000000000E+00 0.  1.
         21   -1    0    0  501  503 -0.00000000000E+00 -0.00000000000E+00 -0.10723475852E+04  0.10723475852E+04  0.00000000000E+00 0.  1.
          6    1    1    2  501    0  0.40980278026E+02 -0.11029659391E+03 -0.75334980196E+03  0.78164227491E+03  0.17200000000E+03 0.  1.
         -6    1    1    2    0  502 -0.40980278026E+02  0.11029659391E+03 -0.26923689907E+03  0.34046619455E+03  0.17200000000E+03 0.  1.
<mgrwt>
<rscale>  2 0.20839559E+03</rscale>
<asrwt>0</asrwt>
<pdfrwt beam="1">  1       21 0.12440222E-01 0.20839559E+03</pdfrwt>
<pdfrwt beam="2">  1       21 0.26808689E+00 0.20839559E+03</pdfrwt>
<totfact> 0.28190006E+03</totfact>
</mgrwt>
</event>
<event>
 4    1  0.1100959E+000  0.1727481E+03  0.7546771E-02  0.1175012E+00
         21   -1    0    0  501  502  0.00000000000E+00  0.00000000000E+00  0.62195501787E+02  0.62195501787E+02  0.00000000000E+00 0.  1.
         21   -1    0    0  502  503 -0.00000000000E+00 -0.00000000000E+00 -0.67618290141E+03  0.67618290141E+03  0.00000000000E+00 0.  1.
          6    1    1    2  501    0  0.11389638323E+01 -0.16019112882E+02 -0.10803647628E+03  0.20374932987E+03  0.17200000000E+03 0.  1.
         -6    1    1    2    0  503 -0.11389638323E+01  0.16019112882E+02 -0.50595092334E+03  0.53462907333E+03  0.17200000000E+03 0.  1.
<mgrwt>
<rscale>  2 0.17274811E+03</rscale>
<asrwt>0</asrwt>
<pdfrwt beam="1">  1       21 0.15548876E-01 0.17274811E+03</pdfrwt>
<pdfrwt beam="2">  1       21 0.16904572E+00 0.17274811E+03</pdfrwt>
<totfact> 0.80962138E+03</totfact>
</mgrwt>
</event>
<event>
 4    1  0.1100959E+000  0.1851533E+03  0.7546771E-02  0.1162907E+00
         21   -1    0    0  503  502  0.00000000000E+00  0.00000000000E+00  0.44411460128E+03  0.44411460128E+03  0.00000000000E+00 0.  1.
         21   -1    0    0  501  503 -0.00000000000E+00 -0.00000000000E+00 -0.12647211675E+03  0.12647211675E+03  0.00000000000E+00 0.  1.
          6    1    1    2  501    0 -0.66015149318E+02 -0.18432646202E+02 -0.19266253061E+02  0.18615303084E+03  0.17200000000E+03 0.  1.
         -6    1    1    2    0  502  0.66015149318E+02  0.18432646202E+02  0.33690873759E+03  0.38443368719E+03  0.17200000000E+03 0.  1.
<mgrwt>
<rscale>  2 0.18515335E+03</rscale>
<asrwt>0</asrwt>
<pdfrwt beam="1">  1       21 0.11102865E+00 0.18515335E+03</pdfrwt>
<pdfrwt beam="2">  1       21 0.31618030E-01 0.18515335E+03</pdfrwt>
<totfact> 0.61763796E+03</totfact>
</mgrwt>
</event>
<event>
 4    1  0.1100959E+000  0.1759503E+03  0.7546771E-02  0.1171781E+00
         21   -1    0    0  503  502  0.00000000000E+00  0.00000000000E+00  0.10295904843E+03  0.10295904843E+03  0.00000000000E+00 0.  1.
         21   -1    0    0  501  503 -0.00000000000E+00 -0.00000000000E+00 -0.36508854393E+03  0.36508854393E+03  0.00000000000E+00 0.  1.
          6    1    1    2  501    0  0.35711985953E+02 -0.99581745097E+01 -0.22935421199E+03  0.28907069332E+03  0.17200000000E+03 0.  1.
         -6    1    1    2    0  502 -0.35711985953E+02  0.99581745097E+01 -0.32775283502E+02  0.17897689904E+03  0.17200000000E+03 0.  1.
<mgrwt>
<rscale>  2 0.17595031E+03</rscale>
<asrwt>0</asrwt>
<pdfrwt beam="1">  1       21 0.25739762E-01 0.17595031E+03</pdfrwt>
<pdfrwt beam="2">  1       21 0.91272135E-01 0.17595031E+03</pdfrwt>
<totfact> 0.14729557E+04</totfact>
</mgrwt>
</event>
<event>
 4    1  0.1100959E+000  0.1869339E+03  0.7546771E-02  0.1161256E+00
         21   -1    0    0  501  502  0.00000000000E+00  0.00000000000E+00  0.14732540483E+03  0.14732540483E+03  0.00000000000E+00 0.  1.
         21   -1    0    0  502  503 -0.00000000000E+00 -0.00000000000E+00 -0.31943470060E+03  0.31943470060E+03  0.00000000000E+00 0.  1.
          6    1    1    2  501    0 -0.61856940729E+02 -0.39166328266E+02  0.32364957538E+02  0.18971497796E+03  0.17200000000E+03 0.  1.
         -6    1    1    2    0  503  0.61856940729E+02  0.39166328266E+02 -0.20447425331E+03  0.27704512747E+03  0.17200000000E+03 0.  1.
<mgrwt>
<rscale>  2 0.18693390E+03</rscale>
<asrwt>0</asrwt>
<pdfrwt beam="1">  1       21 0.36831351E-01 0.18693390E+03</pdfrwt>
<pdfrwt beam="2">  1       21 0.79858675E-01 0.18693390E+03</pdfrwt>
<totfact> 0.98562813E+03</totfact>
</mgrwt>
</event>
<event>
 4    1  0.1100959E+000  0.1751918E+03  0.7546771E-02  0.1172539E+00
         21   -1    0    0  503  502  0.00000000000E+00  0.00000000000E+00  0.35648869410E+03  0.35648869410E+03  0.00000000000E+00 0.  1.
         21   -1    0    0  501  503 -0.00000000000E+00 -0.00000000000E+00 -0.23573336100E+03  0.23573336100E+03  0.00000000000E+00 0.  1.
          6    1    1    2  501    0 -0.21122766633E+02 -0.25729006234E+02 -0.17554217868E+03  0.24800647074E+03  0.17200000000E+03 0.  1.
         -6    1    1    2    0  502  0.21122766633E+02  0.25729006234E+02  0.29629751178E+03  0.34421558437E+03  0.17200000000E+03 0.  1.
<mgrwt>
<rscale>  2 0.17519176E+03</rscale>
<asrwt>0</asrwt>
<pdfrwt beam="1">  1       21 0.89122173E-01 0.17519176E+03</pdfrwt>
<pdfrwt beam="2">  1       21 0.58933341E-01 0.17519176E+03</pdfrwt>
<totfact> 0.29388850E+03</totfact>
</mgrwt>
</event>
<event>
 4    1  0.1100959E+000  0.2181211E+03  0.7546771E-02  0.1135292E+00
         21   -1    0    0  501  502  0.00000000000E+00  0.00000000000E+00  0.25276134603E+03  0.25276134603E+03  0.00000000000E+00 0.  1.
         21   -1    0    0  502  503 -0.00000000000E+00 -0.00000000000E+00 -0.18934992383E+03  0.18934992383E+03  0.00000000000E+00 0. -1.
          6    1    1    2  501    0 -0.13196269463E+03  0.24055632890E+02  0.14691884731E+02  0.21861536480E+03  0.17200000000E+03 0. -1.
         -6    1    1    2    0  503  0.13196269463E+03 -0.24055632890E+02  0.48719537473E+02  0.22349590506E+03  0.17200000000E+03 0.  1.
<mgrwt>
<rscale>  2 0.21812113E+03</rscale>
<asrwt>0</asrwt>
<pdfrwt beam="1">  1       21 0.63190336E-01 0.21812113E+03</pdfrwt>
<pdfrwt beam="2">  1       21 0.47337481E-01 0.21812113E+03</pdfrwt>
<totfact> 0.97244270E+03</totfact>
</mgrwt>
</event>
<event>
 4    1  0.1100959E+000  0.2010369E+03  0.7546771E-02  0.1148867E+00
         21   -1    0    0  501  502  0.00000000000E+00  0.00000000000E+00  0.20077129488E+03  0.20077129488E+03  0.00000000000E+00 0.  1.
         21   -1    0    0  502  503 -0.00000000000E+00 -0.00000000000E+00 -0.20176551196E+03  0.20176551196E+03  0.00000000000E+00 0.  1.
          6    1    1    2  501    0 -0.99526198189E+02  0.30436209442E+02  0.91411846313E+01  0.20124459801E+03  0.17200000000E+03 0.  1.
         -6    1    1    2    0  503  0.99526198189E+02 -0.30436209442E+02 -0.10135401708E+02  0.20129220884E+03  0.17200000000E+03 0.  1.
<mgrwt>
<rscale>  2 0.20103688E+03</rscale>
<asrwt>0</asrwt>
<pdfrwt beam="1">  1       21 0.50192824E-01 0.20103688E+03</pdfrwt>
<pdfrwt beam="2">  1       21 0.50441378E-01 0.20103688E+03</pdfrwt>
<totfact> 0.14065073E+04</totfact>
</mgrwt>
</event>
<event>
 4    1  0.1100959E+000  0.1816828E+03  0.7546771E-02  0.1166184E+00
         21   -1    0    0  503  502  0.00000000000E+00  0.00000000000E+00  0.20170251909E+03  0.20170251909E+03  0.00000000000E+00 0.  1.
         21   -1    0    0  501  503 -0.00000000000E+00 -0.00000000000E+00 -0.38039809725E+03  0.38039809725E+03  0.00000000000E+00 0.  1.
          6    1    1    2  501    0 -0.51427214504E+02  0.27926137661E+02 -0.30904598524E+03  0.35849414019E+03  0.17200000000E+03 0.  1.
         -6    1    1    2    0  502  0.51427214504E+02 -0.27926137661E+02  0.13035040707E+03  0.22360647616E+03  0.17200000000E+03 0.  1.
<mgrwt>
<rscale>  2 0.18168277E+03</rscale>
<asrwt>0</asrwt>
<pdfrwt beam="1">  1       21 0.50425630E-01 0.18168277E+03</pdfrwt>
<pdfrwt beam="2">  1       21 0.95099523E-01 0.18168277E+03</pdfrwt>
<totfact> 0.34918137E+03</totfact>
</mgrwt>
</event>
<event>
 4    1  0.1100959E+000  0.1935334E+03  0.7546771E-02  0.1155312E+00
         21   -1    0    0  501  502  0.00000000000E+00  0.00000000000E+00  0.11488878279E+04  0.11488878279E+04  0.00000000000E+00 0.  1.
         21   -1    0    0  502  503 -0.00000000000E+00 -0.00000000000E+00 -0.33418842792E+02  0.33418842792E+02  0.00000000000E+00 0.  1.
          6    1    1    2  501    0  0.69617652173E+02  0.54996168625E+02  0.46527125559E+03  0.50391719294E+03  0.17200000000E+03 0.  1.
         -6    1    1    2    0  503 -0.69617652173E+02 -0.54996168625E+02  0.65019772947E+03  0.67838947771E+03  0.17200000000E+03 0.  1.
<mgrwt>
<rscale>  2 0.19353345E+03</rscale>
<asrwt>0</asrwt>
<pdfrwt beam="1">  1       21 0.28722183E+00 0.19353345E+03</pdfrwt>
<pdfrwt beam="2">  1       21 0.83547145E-02 0.19353345E+03</pdfrwt>
<totfact> 0.44943011E+03</totfact>
</mgrwt>
</event>
<event>
 4    1  0.1100959E+000  0.2060441E+03  0.7546771E-02  0.1144738E+00
         21   -1    0    0  501  502  0.00000000000E+00  0.00000000000E+00  0.97797315164E+03  0.97797315164E+03  0.00000000000E+00 0.  1.
         21   -1    0    0  502  503 -0.00000000000E+00 -0.00000000000E+00 -0.64577107254E+02  0.64577107254E+02  0.00000000000E+00 0.  1.
          6    1    1    2  501    0 -0.98467072996E+02 -0.56341696475E+02  0.75513658131E+03  0.78274223577E+03  0.17200000000E+03 0.  1.
         -6    1    1    2    0  503  0.98467072996E+02  0.56341696475E+02  0.15825946307E+03  0.25980802312E+03  0.17200000000E+03 0.  1.
<mgrwt>
<rscale>  2 0.20604405E+03</rscale>
<asrwt>0</asrwt>
<pdfrwt beam="1">  1       21 0.24449324E+00 0.20604405E+03</pdfrwt>
<pdfrwt beam="2">  1       21 0.16144280E-01 0.20604405E+03</pdfrwt>
<totfact> 0.24222502E+03</totfact>
</mgrwt>
</event>
<event>
 4    1  0.1100959E+000  0.1879527E+03  0.7546771E-02  0.1160321E+00
         21   -1    0    0  501  502  0.00000000000E+00  0.00000000000E+00  0.17659006803E+03  0.17659006803E+03  0.00000000000E+00 0. -1.
         21   -1    0    0  502  503 -0.00000000000E+00 -0.00000000000E+00 -0.25914470627E+03  0.25914470627E+03  0.00000000000E+00 0. -1.
          6    1    1    2  501    0  0.67689552322E+02 -0.34064034112E+02  0.62764519735E+02  0.19815554207E+03  0.17200000000E+03 0. -1.
         -6    1    1    2    0  503 -0.67689552322E+02  0.34064034112E+02 -0.14531915798E+03  0.23757923224E+03  0.17200000000E+03 0. -1.
<mgrwt>
<rscale>  2 0.18795274E+03</rscale>
<asrwt>0</asrwt>
<pdfrwt beam="1">  1       21 0.44147517E-01 0.18795274E+03</pdfrwt>
<pdfrwt beam="2">  1       21 0.64786176E-01 0.18795274E+03</pdfrwt>
<totfact> 0.10852801E+04</totfact>
</mgrwt>
</event>
<event>
 4    1  0.1100959E+000  0.1740395E+03  0.7546771E-02  0.1173700E+00
         21   -1    0    0  501  502  0.00000000000E+00  0.00000000000E+00  0.28390895556E+03  0.28390895556E+03  0.00000000000E+00 0.  1.
         21   -1    0    0  502  503 -0.00000000000E+00 -0.00000000000E+00 -0.29165184975E+03  0.29165184975E+03  0.00000000000E+00 0.  1.
          6    1    1    2  501    0  0.15636660989E+02  0.21476730240E+02  0.22530604371E+03  0.28469732777E+03  0.17200000000E+03 0.  1.
         -6    1    1    2    0  503 -0.15636660989E+02 -0.21476730240E+02 -0.23304893790E+03  0.29086347754E+03  0.17200000000E+03 0.  1.
<mgrwt>
<rscale>  2 0.17403952E+03</rscale>
<asrwt>0</asrwt>
<pdfrwt beam="1">  1       21 0.70977239E-01 0.17403952E+03</pdfrwt>
<pdfrwt beam="2">  1       21 0.72912962E-01 0.17403952E+03</pdfrwt>
<totfact> 0.30925028E+03</totfact>
</mgrwt>
</event>
<event>
 4    1  0.1100959E+000  0.2331708E+03  0.7546771E-02  0.1124428E+00
         21   -1    0    0  503  502  0.00000000000E+00  0.00000000000E+00  0.47944271690E+02  0.47944271690E+02  0.00000000000E+00 0. -1.
         21   -1    0    0  501  503 -0.00000000000E+00 -0.00000000000E+00 -0.11436489707E+04  0.11436489707E+04  0.00000000000E+00 0.  1.
          6    1    1    2  501    0 -0.14379363690E+03 -0.64093784963E+02 -0.60258884821E+03  0.64612842630E+03  0.17200000000E+03 0.  1.
         -6    1    1    2    0  502  0.14379363690E+03  0.64093784963E+02 -0.49311585081E+03  0.54546481610E+03  0.17200000000E+03 0. -1.
<mgrwt>
<rscale>  2 0.23317080E+03</rscale>
<asrwt>0</asrwt>
<pdfrwt beam="1">  1       21 0.11986067E-01 0.23317080E+03</pdfrwt>
<pdfrwt beam="2">  1       21 0.28591226E+00 0.23317080E+03</pdfrwt>
<totfact> 0.23118185E+03</totfact>
</mgrwt>
</event>
<event>
 4    1  0.1100959E+000  0.1788569E+03  0.7546771E-02  0.1168914E+00
         21   -1    0    0  503  502  0.00000000000E+00  0.00000000000E+00  0.64312985022E+03  0.64312985022E+03  0.00000000000E+00 0.  1.
         21   -1    0    0  501  503 -0.00000000000E+00 -0.00000000000E+00 -0.97486384421E+02  0.97486384421E+02  0.00000000000E+00 0.  1.
          6    1    1    2  501    0 -0.38996490965E+02 -0.29749813437E+02  0.13667702730E+02  0.17937832591E+03  0.17200000000E+03 0.  1.
         -6    1    1    2    0  502  0.38996490965E+02  0.29749813437E+02  0.53197576307E+03  0.56123790874E+03  0.17200000000E+03 0.  1.
<mgrwt>
<rscale>  2 0.17885686E+03</rscale>
<asrwt>0</asrwt>
<pdfrwt beam="1">  1       21 0.16078245E+00 0.17885686E+03</pdfrwt>
<pdfrwt beam="2">  1       21 0.24371598E-01 0.17885686E+03</pdfrwt>
<totfact> 0.39994431E+03</totfact>
</mgrwt>
</event>
<event>
 4    1  0.1100959E+000  0.1854395E+03  0.7546771E-02  0.1162640E+00
         21   -1    0    0  503  502  0.00000000000E+00  0.00000000000E+00  0.36936198437E+03  0.36936198437E+03  0.00000000000E+00 0. -1.
         21   -1    0    0  501  503 -0.00000000000E+00 -0.00000000000E+00 -0.19310422761E+04  0.19310422761E+04  0.00000000000E+00 0. -1.
          6    1    1    2  501    0 -0.61289647857E+02 -0.32363282318E+02 -0.19029726583E+04  0.19119865955E+04  0.17200000000E+03 0. -1.
         -6    1    1    2    0  502  0.61289647857E+02  0.32363282318E+02  0.34129236659E+03  0.38841766498E+03  0.17200000000E+03 0. -1.
<mgrwt>
<rscale>  2 0.18543949E+03</rscale>
<asrwt>0</asrwt>
<pdfrwt beam="1">  1       21 0.92340497E-01 0.18543949E+03</pdfrwt>
<pdfrwt beam="2">  1       21 0.48276056E+00 0.18543949E+03</pdfrwt>
<totfact> 0.25161899E+00</totfact>
</mgrwt>
</event>
<event>
 4    1  0.1100959E+000  0.2208754E+03  0.7546771E-02  0.1133232E+00
         21   -1    0    0  501  502  0.00000000000E+00  0.00000000000E+00  0.16710798836E+04  0.16710798836E+04  0.00000000000E+00 0. -1.
         21   -1    0    0  502  503 -0.00000000000E+00 -0.00000000000E+00 -0.30131735210E+02  0.30131735210E+02  0.00000000000E+00 0.  1.
          6    1    1    2  501    0 -0.80469057513E+02 -0.11281258922E+03  0.97050988699E+03  0.99532677561E+03  0.17200000000E+03 0. -1.
         -6    1    1    2    0  503  0.80469057513E+02  0.11281258922E+03  0.67043826135E+03  0.70588484315E+03  0.17200000000E+03 0.  1.
<mgrwt>
<rscale>  2 0.22087542E+03</rscale>
<asrwt>0</asrwt>
<pdfrwt beam="1">  1       21 0.41776966E+00 0.22087542E+03</pdfrwt>
<pdfrwt beam="2">  1       21 0.75329394E-02 0.22087542E+03</pdfrwt>
<totfact> 0.86055703E+02</totfact>
</mgrwt>
</event>
<event>
 4    1  0.1100959E+000  0.1897383E+03  0.7546771E-02  0.1158698E+00
         21   -1    0    0  503  502  0.00000000000E+00  0.00000000000E+00  0.68006613680E+03  0.68006613680E+03  0.00000000000E+00 0. -1.
         21   -1    0    0  501  503 -0.00000000000E+00 -0.00000000000E+00 -0.40734627168E+03  0.40734627168E+03  0.00000000000E+00 0. -1.
          6    1    1    2  501    0 -0.31484258189E+02  0.73657162574E+02 -0.37078836959E+03  0.41651488705E+03  0.17200000000E+03 0. -1.
         -6    1    1    2    0  502  0.31484258189E+02 -0.73657162574E+02  0.64350823471E+03  0.67089752142E+03  0.17200000000E+03 0. -1.
<mgrwt>
<rscale>  2 0.18973834E+03</rscale>
<asrwt>0</asrwt>
<pdfrwt beam="1">  1       21 0.17001653E+00 0.18973834E+03</pdfrwt>
<pdfrwt beam="2">  1       21 0.10183657E+00 0.18973834E+03</pdfrwt>
<totfact> 0.16836371E+02</totfact>
</mgrwt>
</event>
<event>
 4    1  0.1100959E+000  0.2032329E+03  0.7546771E-02  0.1147040E+00
         21   -1    0    0  503  502  0.00000000000E+00  0.00000000000E+00  0.48745575868E+03  0.48745575868E+03  0.00000000000E+00 0. -1.
         21   -1    0    0  501  503 -0.00000000000E+00 -0.00000000000E+00 -0.29112403519E+03  0.29112403519E+03  0.00000000000E+00 0. -1.
          6    1    1    2  501    0  0.46586571968E+02 -0.97720458773E+02 -0.22961191049E+03  0.30663533095E+03  0.17200000000E+03 0. -1.
         -6    1    1    2    0  502 -0.46586571968E+02  0.97720458773E+02  0.42594363398E+03  0.47194446292E+03  0.17200000000E+03 0. -1.
<mgrwt>
<rscale>  2 0.20323286E+03</rscale>
<asrwt>0</asrwt>
<pdfrwt beam="1">  1       21 0.12186394E+00 0.20323286E+03</pdfrwt>
<pdfrwt beam="2">  1       21 0.72781010E-01 0.20323286E+03</pdfrwt>
<totfact> 0.85461573E+02</totfact>
</mgrwt>
</event>
<event>
 4    1  0.1100959E+000  0.1756806E+03  0.7546771E-02  0.1172050E+00
         21   -1    0    0  503  502  0.00000000000E+00  0.00000000000E+00  0.14514515130E+03  0.14514515130E+03  0.00000000000E+00 0. -1.
         21   -1    0    0  501  503 -0.00000000000E+00 -0.00000000000E+00 -0.61669338966E+03  0.61669338966E+03  0.00000000000E+00 0. -1.
          6    1    1    2  501    0  0.46499890359E+01 -0.35468783175E+02 -0.54410548316E+03  0.57176431664E+03  0.17200000000E+03 0. -1.
         -6    1    1    2    0  502 -0.46499890359E+01  0.35468783175E+02  0.72557244797E+02  0.19007422432E+03  0.17200000000E+03 0. -1.
<mgrwt>
<rscale>  2 0.17568055E+03</rscale>
<asrwt>0</asrwt>
<pdfrwt beam="1">  1       21 0.36286288E-01 0.17568055E+03</pdfrwt>
<pdfrwt beam="2">  1       21 0.15417335E+00 0.17568055E+03</pdfrwt>
<totfact> 0.20707731E+03</totfact>
</mgrwt>
</event>
<event>
 4    1  0.1100959E+000  0.2801019E+03  0.7546771E-02  0.1095633E+00
         21   -1    0    0  501  502  0.00000000000E+00  0.00000000000E+00  0.33818912697E+03  0.33818912697E+03  0.00000000000E+00 0.  1.
         21   -1    0    0  502  503 -0.00000000000E+00 -0.00000000000E+00 -0.26188228483E+03  0.26188228483E+03  0.00000000000E+00 0. -1.
          6    1    1    2  501    0  0.21941240339E+03  0.27041999165E+02  0.13951819217E+03  0.31292554773E+03  0.17200000000E+03 0.  1.
         -6    1    1    2    0  503 -0.21941240339E+03 -0.27041999165E+02 -0.63211350024E+02  0.28714586407E+03  0.17200000000E+03 0. -1.
<mgrwt>
<rscale>  2 0.28010190E+03</rscale>
<asrwt>0</asrwt>
<pdfrwt beam="1">  1       21 0.84547281E-01 0.28010190E+03</pdfrwt>
<pdfrwt beam="2">  1       21 0.65470572E-01 0.28010190E+03</pdfrwt>
<totfact> 0.24395541E+03</totfact>
</mgrwt>
</event>
<event>
 4    1  0.1100959E+000  0.1785723E+03  0.7546771E-02  0.1169192E+00
         21   -1    0    0  503  502  0.00000000000E+00  0.00000000000E+00  0.31545450192E+03  0.31545450192E+03  0.00000000000E+00 0. -1.
         21   -1    0    0  501  503 -0.00000000000E+00 -0.00000000000E+00 -0.10423099633E+03  0.10423099633E+03  0.00000000000E+00 0. -1.
          6    1    1    2  501    0 -0.42756194289E+02  0.21816767939E+02  0.69161622410E+02  0.19149776377E+03  0.17200000000E+03 0.  1.
         -6    1    1    2    0  502  0.42756194289E+02 -0.21816767939E+02  0.14206188318E+03  0.22818773448E+03  0.17200000000E+03 0.  1.
<mgrwt>
<rscale>  2 0.17857229E+03</rscale>
<asrwt>0</asrwt>
<pdfrwt beam="1">  1       21 0.78863623E-01 0.17857229E+03</pdfrwt>
<pdfrwt beam="2">  1       21 0.26057750E-01 0.17857229E+03</pdfrwt>
<totfact> 0.20046280E+04</totfact>
</mgrwt>
</event>
<event>
 4    1  0.1100959E+000  0.1797115E+03  0.7546771E-02  0.1168083E+00
         21   -1    0    0  501  502  0.00000000000E+00  0.00000000000E+00  0.14052163520E+03  0.14052163520E+03  0.00000000000E+00 0. -1.
         21   -1    0    0  502  503 -0.00000000000E+00 -0.00000000000E+00 -0.58483493013E+03  0.58483493013E+03  0.00000000000E+00 0. -1.
          6    1    1    2  501    0 -0.52078924880E+02  0.18469159363E-01  0.60410414960E+02  0.18959333584E+03  0.17200000000E+03 0. -1.
         -6    1    1    2    0  503  0.52078924880E+02 -0.18469159363E-01 -0.50472370989E+03  0.53576322949E+03  0.17200000000E+03 0. -1.
<mgrwt>
<rscale>  2 0.17971148E+03</rscale>
<asrwt>0</asrwt>
<pdfrwt beam="1">  1       21 0.35130409E-01 0.17971148E+03</pdfrwt>
<pdfrwt beam="2">  1       21 0.14620873E+00 0.17971148E+03</pdfrwt>
<totfact> 0.25278401E+03</totfact>
</mgrwt>
</event>
<event>
 4    1  0.1100959E+000  0.1914568E+03  0.7546771E-02  0.1157154E+00
         21   -1    0    0  503  502  0.00000000000E+00  0.00000000000E+00  0.19074418782E+03  0.19074418782E+03  0.00000000000E+00 0.  1.
         21   -1    0    0  501  503 -0.00000000000E+00 -0.00000000000E+00 -0.22052633881E+03  0.22052633881E+03  0.00000000000E+00 0.  1.
          6    1    1    2  501    0  0.71564246662E+00  0.84090444889E+02 -0.88626501983E+02  0.21097481347E+03  0.17200000000E+03 0.  1.
         -6    1    1    2    0  502 -0.71564246662E+00 -0.84090444889E+02  0.58844350996E+02  0.20029571316E+03  0.17200000000E+03 0.  1.
<mgrwt>
<rscale>  2 0.19145682E+03</rscale>
<asrwt>0</asrwt>
<pdfrwt beam="1">  1       21 0.47686047E-01 0.19145682E+03</pdfrwt>
<pdfrwt beam="2">  1       21 0.55131584E-01 0.19145682E+03</pdfrwt>
<totfact> 0.13059721E+04</totfact>
</mgrwt>
</event>
<event>
 4    1  0.1100959E+000  0.2550421E+03  0.7546771E-02  0.1110159E+00
         21   -1    0    0  501  502  0.00000000000E+00  0.00000000000E+00  0.74535063630E+03  0.74535063630E+03  0.00000000000E+00 0. -1.
         21   -1    0    0  502  503 -0.00000000000E+00 -0.00000000000E+00 -0.10047018927E+03  0.10047018927E+03  0.00000000000E+00 0.  1.
          6    1    1    2  501    0 -0.16437462007E+03 -0.91888245371E+02  0.47573456706E+03  0.53978685021E+03  0.17200000000E+03 0. -1.
         -6    1    1    2    0  503  0.16437462007E+03  0.91888245371E+02  0.16914587998E+03  0.30603397536E+03  0.17200000000E+03 0.  1.
<mgrwt>
<rscale>  2 0.25504209E+03</rscale>
<asrwt>0</asrwt>
<pdfrwt beam="1">  1       21 0.18633764E+00 0.25504209E+03</pdfrwt>
<pdfrwt beam="2">  1       21 0.25117550E-01 0.25504209E+03</pdfrwt>
<totfact> 0.23440465E+03</totfact>
</mgrwt>
</event>
<event>
 4    1  0.1100959E+000  0.1868854E+03  0.7546771E-02  0.1161301E+00
         21   -1    0    0  503  502  0.00000000000E+00  0.00000000000E+00  0.32065209299E+02  0.32065209299E+02  0.00000000000E+00 0.  1.
         21   -1    0    0  501  503 -0.00000000000E+00 -0.00000000000E+00 -0.11321811441E+04  0.11321811441E+04  0.00000000000E+00 0. -1.
          6    1    1    2  501    0 -0.20536245770E+02  0.70145704680E+02 -0.43666642482E+03  0.47497760352E+03  0.17200000000E+03 0. -1.
         -6    1    1    2    0  502  0.20536245770E+02 -0.70145704680E+02 -0.66344951002E+03  0.68926874992E+03  0.17200000000E+03 0.  1.
<mgrwt>
<rscale>  2 0.18688541E+03</rscale>
<asrwt>0</asrwt>
<pdfrwt beam="1">  1       21 0.80163028E-02 0.18688541E+03</pdfrwt>
<pdfrwt beam="2">  1       21 0.28304527E+00 0.18688541E+03</pdfrwt>
<totfact> 0.51441271E+03</totfact>
</mgrwt>
</event>
<event>
 4    1  0.1100959E+000  0.1748710E+03  0.7546771E-02  0.1172861E+00
         21   -1    0    0  503  502  0.00000000000E+00  0.00000000000E+00  0.41956974258E+03  0.41956974258E+03  0.00000000000E+00 0. -1.
         21   -1    0    0  501  503 -0.00000000000E+00 -0.00000000000E+00 -0.72890351869E+02  0.72890351869E+02  0.00000000000E+00 0. -1.
          6    1    1    2  501    0 -0.19653449776E+02 -0.24690160782E+02  0.17566356053E+03  0.24786598925E+03  0.17200000000E+03 0.  1.
         -6    1    1    2    0  502  0.19653449776E+02  0.24690160782E+02  0.17101583018E+03  0.24459410520E+03  0.17200000000E+03 0.  1.
<mgrwt>
<rscale>  2 0.17487099E+03</rscale>
<asrwt>0</asrwt>
<pdfrwt beam="1">  1       21 0.10489243E+00 0.17487099E+03</pdfrwt>
<pdfrwt beam="2">  1       21 0.18222589E-01 0.17487099E+03</pdfrwt>
<totfact> 0.20326660E+04</totfact>
</mgrwt>
</event>
<event>
 4    1  0.1100959E+000  0.1868218E+03  0.7546771E-02  0.1161359E+00
         21   -1    0    0  503  502  0.00000000000E+00  0.00000000000E+00  0.78718754161E+02  0.78718754161E+02  0.00000000000E+00 0.  1.
         21   -1    0    0  501  503 -0.00000000000E+00 -0.00000000000E+00 -0.55851639694E+03  0.55851639694E+03  0.00000000000E+00 0. -1.
          6    1    1    2  501    0  0.41052114145E+02  0.60275421940E+02 -0.38456137701E+03  0.42753930259E+03  0.17200000000E+03 0. -1.
         -6    1    1    2    0  502 -0.41052114145E+02 -0.60275421940E+02 -0.95236265759E+02  0.20969584851E+03  0.17200000000E+03 0. -1.
<mgrwt>
<rscale>  2 0.18682185E+03</rscale>
<asrwt>0</asrwt>
<pdfrwt beam="1">  1       21 0.19679689E-01 0.18682185E+03</pdfrwt>
<pdfrwt beam="2">  1       21 0.13962910E+00 0.18682185E+03</pdfrwt>
<totfact> 0.86093524E+03</totfact>
</mgrwt>
</event>
<event>
 4    1  0.1100959E+000  0.1869818E+03  0.7546771E-02  0.1161212E+00
         21   -1    0    0  501  502  0.00000000000E+00  0.00000000000E+00  0.33385779396E+03  0.33385779396E+03  0.00000000000E+00 0. -1.
         21   -1    0    0  502  503 -0.00000000000E+00 -0.00000000000E+00 -0.13495845964E+03  0.13495845964E+03  0.00000000000E+00 0.  1.
          6    1    1    2  501    0  0.45381252401E+02 -0.57608483985E+02  0.21040275076E+03  0.28148092835E+03  0.17200000000E+03 0. -1.
         -6    1    1    2    0  503 -0.45381252401E+02  0.57608483985E+02 -0.11503416440E+02  0.18733532525E+03  0.17200000000E+03 0.  1.
<mgrwt>
<rscale>  2 0.18698181E+03</rscale>
<asrwt>0</asrwt>
<pdfrwt beam="1">  1       21 0.83464447E-01 0.18698181E+03</pdfrwt>
<pdfrwt beam="2">  1       21 0.33739616E-01 0.18698181E+03</pdfrwt>
<totfact> 0.10612183E+04</totfact>
</mgrwt>
</event>
<event>
 4    1  0.1100959E+000  0.3834799E+03  0.7546771E-02  0.1049655E+00
         21   -1    0    0  503  502  0.00000000000E+00  0.00000000000E+00  0.18662999813E+03  0.18662999813E+03  0.00000000000E+00 0. -1.
         21   -1    0    0  501  503 -0.00000000000E+00 -0.00000000000E+00 -0.79129626095E+03  0.79129626095E+03  0.00000000000E+00 0.  1.
          6    1    1    2  501    0 -0.12176288943E+03  0.32038517477E+03 -0.27058080320E+03  0.46933019561E+03  0.17200000000E+03 0. -1.
         -6    1    1    2    0  502  0.12176288943E+03 -0.32038517477E+03 -0.33408545962E+03  0.50859606347E+03  0.17200000000E+03 0.  1.
<mgrwt>
<rscale>  2 0.38347994E+03</rscale>
<asrwt>0</asrwt>
<pdfrwt beam="1">  1       21 0.46657500E-01 0.38347994E+03</pdfrwt>
<pdfrwt beam="2">  1       21 0.19782406E+00 0.38347994E+03</pdfrwt>
<totfact> 0.52074636E+02</totfact>
</mgrwt>
</event>
<event>
 4    1  0.1100959E+000  0.1894859E+03  0.7546771E-02  0.1158926E+00
         21   -1    0    0  501  502  0.00000000000E+00  0.00000000000E+00  0.55864708966E+02  0.55864708966E+02  0.00000000000E+00 0. -1.
         21   -1    0    0  502  503 -0.00000000000E+00 -0.00000000000E+00 -0.71972660559E+03  0.71972660559E+03  0.00000000000E+00 0. -1.
          6    1    1    2  501    0  0.12533426083E+02  0.78510098992E+02 -0.20507655002E+03  0.27921553284E+03  0.17200000000E+03 0. -1.
         -6    1    1    2    0  503 -0.12533426083E+02 -0.78510098992E+02 -0.45878534661E+03  0.49637578172E+03  0.17200000000E+03 0. -1.
<mgrwt>
<rscale>  2 0.18948594E+03</rscale>
<asrwt>0</asrwt>
<pdfrwt beam="1">  1       21 0.13966177E-01 0.18948594E+03</pdfrwt>
<pdfrwt beam="2">  1       21 0.17993165E+00 0.18948594E+03</pdfrwt>
<totfact> 0.81564947E+03</totfact>
</mgrwt>
</event>
<event>
 4    1  0.1100959E+000  0.1744570E+03  0.7546771E-02  0.1173278E+00
         21   -1    0    0  503  502  0.00000000000E+00  0.00000000000E+00  0.66886454953E+02  0.66886454953E+02  0.00000000000E+00 0. -1.
         21   -1    0    0  501  503 -0.00000000000E+00 -0.00000000000E+00 -0.49459335692E+03  0.49459335692E+03  0.00000000000E+00 0. -1.
          6    1    1    2  501    0 -0.28815804752E+02 -0.45705025024E+01 -0.29325611445E+03  0.34122483608E+03  0.17200000000E+03 0.  1.
         -6    1    1    2    0  502  0.28815804752E+02  0.45705025024E+01 -0.13445078752E+03  0.22025497579E+03  0.17200000000E+03 0.  1.
<mgrwt>
<rscale>  2 0.17445699E+03</rscale>
<asrwt>0</asrwt>
<pdfrwt beam="1">  1       21 0.16721614E-01 0.17445699E+03</pdfrwt>
<pdfrwt beam="2">  1       21 0.12364834E+00 0.17445699E+03</pdfrwt>
<totfact> 0.15959365E+04</totfact>
</mgrwt>
</event>
<event>
 4    1  0.1100959E+000  0.1758517E+03  0.7546771E-02  0.1171879E+00
         21   -1    0    0  503  502  0.00000000000E+00  0.00000000000E+00  0.11895060862E+03  0.11895060862E+03  0.00000000000E+00 0.  1.
         21   -1    0    0  501  503 -0.00000000000E+00 -0.00000000000E+00 -0.27578201481E+03  0.27578201481E+03  0.00000000000E+00 0.  1.
          6    1    1    2  501    0 -0.44821702228E+00 -0.36600704735E+02 -0.31159596074E+02  0.17859096537E+03  0.17200000000E+03 0. -1.
         -6    1    1    2    0  502  0.44821702228E+00  0.36600704735E+02 -0.12567181012E+03  0.21614165805E+03  0.17200000000E+03 0. -1.
<mgrwt>
<rscale>  2 0.17585168E+03</rscale>
<asrwt>0</asrwt>
<pdfrwt beam="1">  1       21 0.29737652E-01 0.17585168E+03</pdfrwt>
<pdfrwt beam="2">  1       21 0.68945503E-01 0.17585168E+03</pdfrwt>
<totfact> 0.20978670E+04</totfact>
</mgrwt>
</event>
<event>
 4    1  0.1100959E+000  0.1797305E+03  0.7546771E-02  0.1168064E+00
         21   -1    0    0  501  502  0.00000000000E+00  0.00000000000E+00  0.16371688262E+03  0.16371688262E+03  0.00000000000E+00 0.  1.
         21   -1    0    0  502  503 -0.00000000000E+00 -0.00000000000E+00 -0.32874608563E+03  0.32874608563E+03  0.00000000000E+00 0.  1.
          6    1    1    2  501    0 -0.47953860595E+02  0.20481618361E+02  0.73178609023E+02  0.19405715203E+03  0.17200000000E+03 0.  1.
         -6    1    1    2    0  503  0.47953860595E+02 -0.20481618361E+02 -0.23820781204E+03  0.29840581622E+03  0.17200000000E+03 0.  1.
<mgrwt>
<rscale>  2 0.17973055E+03</rscale>
<asrwt>0</asrwt>
<pdfrwt beam="1">  1       21 0.40929221E-01 0.17973055E+03</pdfrwt>
<pdfrwt beam="2">  1       21 0.82186521E-01 0.17973055E+03</pdfrwt>
<totfact> 0.75109885E+03</totfact>
</mgrwt>
</event>
<event>
 4    1  0.1100959E+000  0.1804898E+03  0.7546771E-02  0.1167330E+00
         21   -1    0    0  503  502  0.00000000000E+00  0.00000000000E+00  0.81341883135E+02  0.81341883135E+02  0.00000000000E+00 0. -1.
         21   -1    0    0  501  503 -0.00000000000E+00 -0.00000000000E+00 -0.47460902122E+03  0.47460902122E+03  0.00000000000E+00 0. -1.
          6    1    1    2  501    0 -0.47083032377E+02  0.27852645779E+02 -0.30648464925E+03  0.35568163017E+03  0.17200000000E+03 0. -1.
         -6    1    1    2    0  502  0.47083032377E+02 -0.27852645779E+02 -0.86782488839E+02  0.20026927419E+03  0.17200000000E+03 0. -1.
<mgrwt>
<rscale>  2 0.18048984E+03</rscale>
<asrwt>0</asrwt>
<pdfrwt beam="1">  1       21 0.20335471E-01 0.18048984E+03</pdfrwt>
<pdfrwt beam="2">  1       21 0.11865225E+00 0.18048984E+03</pdfrwt>
<totfact> 0.12256212E+04</totfact>
</mgrwt>
</event>
<event>
 4    1  0.1100959E+000  0.1860885E+03  0.7546771E-02  0.1162037E+00
         21   -1    0    0  503  502  0.00000000000E+00  0.00000000000E+00  0.40426104056E+02  0.40426104056E+02  0.00000000000E+00 0. -1.
         21   -1    0    0  501  503 -0.00000000000E+00 -0.00000000000E+00 -0.95192081989E+03  0.95192081989E+03  0.00000000000E+00 0. -1.
          6    1    1    2  501    0 -0.65454282680E+02 -0.27580199549E+02 -0.61275867626E+03  0.64039216568E+03  0.17200000000E+03 0. -1.
         -6    1    1    2    0  502  0.65454282680E+02  0.27580199549E+02 -0.29873603957E+03  0.35195475827E+03  0.17200000000E+03 0. -1.
<mgrwt>
<rscale>  2 0.18608850E+03</rscale>
<asrwt>0</asrwt>
<pdfrwt beam="1">  1       21 0.10106526E-01 0.18608850E+03</pdfrwt>
<pdfrwt beam="2">  1       21 0.23798020E+00 0.18608850E+03</pdfrwt>
<totfact> 0.62788447E+03</totfact>
</mgrwt>
</event>
<event>
 4    1  0.1100959E+000  0.2068296E+03  0.7546771E-02  0.1144101E+00
         21   -1    0    0  501  502  0.00000000000E+00  0.00000000000E+00  0.44812568531E+03  0.44812568531E+03  0.00000000000E+00 0.  1.
         21   -1    0    0  502  503 -0.00000000000E+00 -0.00000000000E+00 -0.95591971661E+02  0.95591971661E+02  0.00000000000E+00 0.  1.
          6    1    1    2  501    0  0.10584630658E+03 -0.44621172278E+02  0.18633283722E+03  0.27838537292E+03  0.17200000000E+03 0. -1.
         -6    1    1    2    0  503 -0.10584630658E+03  0.44621172278E+02  0.16620087643E+03  0.26533228405E+03  0.17200000000E+03 0. -1.
<mgrwt>
<rscale>  2 0.20682961E+03</rscale>
<asrwt>0</asrwt>
<pdfrwt beam="1">  1       21 0.11203142E+00 0.20682961E+03</pdfrwt>
<pdfrwt beam="2">  1       21 0.23897994E-01 0.20682961E+03</pdfrwt>
<totfact> 0.10208863E+04</totfact>
</mgrwt>
</event>
<event>
 4    1  0.1100959E+000  0.1904711E+03  0.7546771E-02  0.1158037E+00
         21   -1    0    0  501  502  0.00000000000E+00  0.00000000000E+00  0.36197928292E+03  0.36197928292E+03  0.00000000000E+00 0. -1.
         21   -1    0    0  502  503 -0.00000000000E+00 -0.00000000000E+00 -0.10680841783E+03  0.10680841783E+03  0.00000000000E+00 0. -1.
          6    1    1    2  501    0 -0.54835510562E+02  0.60731502861E+02  0.69391116358E+02  0.20271747751E+03  0.17200000000E+03 0. -1.
         -6    1    1    2    0  503  0.54835510562E+02 -0.60731502861E+02  0.18577974873E+03  0.26607022324E+03  0.17200000000E+03 0. -1.
<mgrwt>
<rscale>  2 0.19047112E+03</rscale>
<asrwt>0</asrwt>
<pdfrwt beam="1">  1       21 0.90494818E-01 0.19047112E+03</pdfrwt>
<pdfrwt beam="2">  1       21 0.26702105E-01 0.19047112E+03</pdfrwt>
<totfact> 0.13869725E+04</totfact>
</mgrwt>
</event>
<event>
 4    1  0.1100959E+000  0.1991266E+03  0.7546771E-02  0.1150478E+00
         21   -1    0    0  503  502  0.00000000000E+00  0.00000000000E+00  0.89761523576E+02  0.89761523576E+02  0.00000000000E+00 0. -1.
         21   -1    0    0  501  503 -0.00000000000E+00 -0.00000000000E+00 -0.45459771628E+03  0.45459771628E+03  0.00000000000E+00 0.  1.
          6    1    1    2  501    0  0.93695425750E+02 -0.35896782654E+02 -0.13664666733E+03  0.24150305071E+03  0.17200000000E+03 0. -1.
         -6    1    1    2    0  502 -0.93695425750E+02  0.35896782654E+02 -0.22818952538E+03  0.30285618915E+03  0.17200000000E+03 0.  1.
<mgrwt>
<rscale>  2 0.19912662E+03</rscale>
<asrwt>0</asrwt>
<pdfrwt beam="1">  1       21 0.22440382E-01 0.19912662E+03</pdfrwt>
<pdfrwt beam="2">  1       21 0.11364943E+00 0.19912662E+03</pdfrwt>
<totfact> 0.11168483E+04</totfact>
</mgrwt>
</event>
<event>
 4    1  0.1100959E+000  0.2045796E+03  0.7546771E-02  0.1145932E+00
         21   -1    0    0  501  502  0.00000000000E+00  0.00000000000E+00  0.30622462415E+02  0.30622462415E+02  0.00000000000E+00 0.  1.
         21   -1    0    0  502  503 -0.00000000000E+00 -0.00000000000E+00 -0.14338005022E+04  0.14338005022E+04  0.00000000000E+00 0.  1.
          6    1    1    2  501    0  0.45695793166E+02 -0.10089953201E+03 -0.54323153348E+03  0.58047680405E+03  0.17200000000E+03 0.  1.
         -6    1    1    2    0  503 -0.45695793166E+02  0.10089953201E+03 -0.85994650635E+03  0.88394616061E+03  0.17200000000E+03 0.  1.
<mgrwt>
<rscale>  2 0.20457962E+03</rscale>
<asrwt>0</asrwt>
<pdfrwt beam="1">  1       21 0.76556154E-02 0.20457962E+03</pdfrwt>
<pdfrwt beam="2">  1       21 0.35845014E+00 0.20457962E+03</pdfrwt>
<totfact> 0.19863593E+03</totfact>
</mgrwt>
</event>
<event>
 4    1  0.1100959E+000  0.2040029E+03  0.7546771E-02  0.1146405E+00
         21   -1    0    0  503  502  0.00000000000E+00  0.00000000000E+00  0.14400875644E+03  0.14400875644E+03  0.00000000000E+00 0.  1.
         21   -1    0    0  501  503 -0.00000000000E+00 -0.00000000000E+00 -0.32380608134E+03  0.32380608134E+03  0.00000000000E+00 0.  1.
          6    1    1    2  501    0  0.10326294665E+01 -0.10969099619E+03 -0.13200047175E+02  0.20442950426E+03  0.17200000000E+03 0.  1.
         -6    1    1    2    0  502 -0.10326294665E+01  0.10969099619E+03 -0.16659727772E+03  0.26338533352E+03  0.17200000000E+03 0.  1.
<mgrwt>
<rscale>  2 0.20400289E+03</rscale>
<asrwt>0</asrwt>
<pdfrwt beam="1">  1       21 0.36002189E-01 0.20400289E+03</pdfrwt>
<pdfrwt beam="2">  1       21 0.80951520E-01 0.20400289E+03</pdfrwt>
<totfact> 0.98840174E+03</totfact>
</mgrwt>
</event>
<event>
 4    1  0.1100959E+000  0.2033236E+03  0.7546771E-02  0.1146965E+00
         21   -1    0    0  503  502  0.00000000000E+00  0.00000000000E+00  0.45580357747E+03  0.45580357747E+03  0.00000000000E+00 0.  1.
         21   -1    0    0  501  503 -0.00000000000E+00 -0.00000000000E+00 -0.11529222171E+03  0.11529222171E+03  0.00000000000E+00 0.  1.
          6    1    1    2  501    0 -0.10686548966E+03 -0.18336841139E+02  0.38370644830E+02  0.20691249119E+03  0.17200000000E+03 0.  1.
         -6    1    1    2    0  502  0.10686548966E+03  0.18336841139E+02  0.30214071093E+03  0.36418330800E+03  0.17200000000E+03 0.  1.
<mgrwt>
<rscale>  2 0.20332357E+03</rscale>
<asrwt>0</asrwt>
<pdfrwt beam="1">  1       21 0.11395089E+00 0.20332357E+03</pdfrwt>
<pdfrwt beam="2">  1       21 0.28823057E-01 0.20332357E+03</pdfrwt>
<totfact> 0.68495280E+03</totfact>
</mgrwt>
</event>
<event>
 4    1  0.1100959E+000  0.1762615E+03  0.7546771E-02  0.1171471E+00
         21   -1    0    0  501  502  0.00000000000E+00  0.00000000000E+00  0.14693056895E+03  0.14693056895E+03  0.00000000000E+00 0.  1.
         21   -1    0    0  502  503 -0.00000000000E+00 -0.00000000000E+00 -0.26646712966E+03  0.26646712966E+03  0.00000000000E+00 0. -1.
          6    1    1    2  501    0  0.27298395716E+02 -0.27183039366E+02  0.34155284955E+02  0.17954025601E+03  0.17200000000E+03 0.  1.
         -6    1    1    2    0  503 -0.27298395716E+02  0.27183039366E+02 -0.15369184567E+03  0.23385744261E+03  0.17200000000E+03 0. -1.
<mgrwt>
<rscale>  2 0.17626151E+03</rscale>
<asrwt>0</asrwt>
<pdfrwt beam="1">  1       21 0.36732643E-01 0.17626151E+03</pdfrwt>
<pdfrwt beam="2">  1       21 0.66616782E-01 0.17626151E+03</pdfrwt>
<totfact> 0.14922450E+04</totfact>
</mgrwt>
</event>
<event>
 4    1  0.1100959E+000  0.1743366E+03  0.7546771E-02  0.1173399E+00
         21   -1    0    0  501  502  0.00000000000E+00  0.00000000000E+00  0.15859647119E+03  0.15859647119E+03  0.00000000000E+00 0. -1.
         21   -1    0    0  502  503 -0.00000000000E+00 -0.00000000000E+00 -0.22029192097E+03  0.22029192097E+03  0.00000000000E+00 0. -1.
          6    1    1    2  501    0  0.28344937852E+02  0.24127507683E+01  0.37475295477E+02  0.17831896881E+03  0.17200000000E+03 0.  1.
         -6    1    1    2    0  503 -0.28344937852E+02 -0.24127507683E+01 -0.99170745254E+02  0.20056942335E+03  0.17200000000E+03 0.  1.
<mgrwt>
<rscale>  2 0.17433662E+03</rscale>
<asrwt>0</asrwt>
<pdfrwt beam="1">  1       21 0.39649118E-01 0.17433662E+03</pdfrwt>
<pdfrwt beam="2">  1       21 0.55072980E-01 0.17433662E+03</pdfrwt>
<totfact> 0.19286283E+04</totfact>
</mgrwt>
</event>
<event>
 4    1  0.1100959E+000  0.1720019E+03  0.7546771E-02  0.1175776E+00
         21   -1    0    0  501  502  0.00000000000E+00  0.00000000000E+00  0.12754370126E+03  0.12754370126E+03  0.00000000000E+00 0.  1.
         21   -1    0    0  502  503 -0.00000000000E+00 -0.00000000000E+00 -0.25136930988E+03  0.25136930988E+03  0.00000000000E+00 0.  1.
          6    1    1    2  501    0  0.57401339200E+00 -0.55904506552E+00 -0.11456216256E+03  0.20666187629E+03  0.17200000000E+03 0. -1.
         -6    1    1    2    0  503 -0.57401339200E+00  0.55904506552E+00 -0.92634460570E+01  0.17225113485E+03  0.17200000000E+03 0. -1.
<mgrwt>
<rscale>  2 0.17200187E+03</rscale>
<asrwt>0</asrwt>
<pdfrwt beam="1">  1       21 0.31885926E-01 0.17200187E+03</pdfrwt>
<pdfrwt beam="2">  1       21 0.62842327E-01 0.17200187E+03</pdfrwt>
<totfact> 0.22455063E+04</totfact>
</mgrwt>
</event>
<event>
 4    1  0.1100959E+000  0.2108395E+03  0.7546771E-02  0.1140903E+00
         21   -1    0    0  501  502  0.00000000000E+00  0.00000000000E+00  0.90621703112E+02  0.90621703112E+02  0.00000000000E+00 0.  1.
         21   -1    0    0  502  503 -0.00000000000E+00 -0.00000000000E+00 -0.94491057988E+03  0.94491057988E+03  0.00000000000E+00 0.  1.
          6    1    1    2  501    0  0.12176695331E+03  0.64890197249E+01 -0.68102791713E+02  0.22156554004E+03  0.17200000000E+03 0.  1.
         -6    1    1    2    0  503 -0.12176695331E+03 -0.64890197249E+01 -0.78618608505E+03  0.81396674295E+03  0.17200000000E+03 0.  1.
<mgrwt>
<rscale>  2 0.21083951E+03</rscale>
<asrwt>0</asrwt>
<pdfrwt beam="1">  1       21 0.22655426E-01 0.21083951E+03</pdfrwt>
<pdfrwt beam="2">  1       21 0.23622764E+00 0.21083951E+03</pdfrwt>
<totfact> 0.14357743E+03</totfact>
</mgrwt>
</event>
<event>
 4    1  0.1100959E+000  0.1858401E+03  0.7546771E-02  0.1162268E+00
         21   -1    0    0  501  502  0.00000000000E+00  0.00000000000E+00  0.72097760924E+02  0.72097760924E+02  0.00000000000E+00 0. -1.
         21   -1    0    0  502  503 -0.00000000000E+00 -0.00000000000E+00 -0.49264374809E+03  0.49264374809E+03  0.00000000000E+00 0. -1.
          6    1    1    2  501    0 -0.33652978729E+02  0.61806186962E+02 -0.16332203958E+03  0.24740779361E+03  0.17200000000E+03 0. -1.
         -6    1    1    2    0  503  0.33652978729E+02 -0.61806186962E+02 -0.25722394759E+03  0.31733371541E+03  0.17200000000E+03 0. -1.
<mgrwt>
<rscale>  2 0.18584006E+03</rscale>
<asrwt>0</asrwt>
<pdfrwt beam="1">  1       21 0.18024441E-01 0.18584006E+03</pdfrwt>
<pdfrwt beam="2">  1       21 0.12316093E+00 0.18584006E+03</pdfrwt>
<totfact> 0.13927931E+04</totfact>
</mgrwt>
</event>
<event>
 4    1  0.1100959E+000  0.1842799E+03  0.7546771E-02  0.1163724E+00
         21   -1    0    0  503  502  0.00000000000E+00  0.00000000000E+00  0.43142436018E+03  0.43142436018E+03  0.00000000000E+00 0.  1.
         21   -1    0    0  501  503 -0.00000000000E+00 -0.00000000000E+00 -0.12547014774E+03  0.12547014774E+03  0.00000000000E+00 0.  1.
          6    1    1    2  501    0 -0.30401099156E+02  0.58743858646E+02 -0.17000943512E+02  0.18506242147E+03  0.17200000000E+03 0.  1.
         -6    1    1    2    0  502  0.30401099156E+02 -0.58743858646E+02  0.32295515595E+03  0.37183208645E+03  0.17200000000E+03 0.  1.
<mgrwt>
<rscale>  2 0.18427986E+03</rscale>
<asrwt>0</asrwt>
<pdfrwt beam="1">  1       21 0.10785609E+00 0.18427986E+03</pdfrwt>
<pdfrwt beam="2">  1       21 0.31367538E-01 0.18427986E+03</pdfrwt>
<totfact> 0.67327957E+03</totfact>
</mgrwt>
</event>
<event>
 4    1  0.1100959E+000  0.2862029E+03  0.7546771E-02  0.1092348E+00
         21   -1    0    0  501  502  0.00000000000E+00  0.00000000000E+00  0.34428515062E+03  0.34428515062E+03  0.00000000000E+00 0. -1.
         21   -1    0    0  502  503 -0.00000000000E+00 -0.00000000000E+00 -0.37647859853E+03  0.37647859853E+03  0.00000000000E+00 0.  1.
          6    1    1    2  501    0  0.20080746001E+03 -0.10956477032E+03  0.20253373374E+03  0.35061658288E+03  0.17200000000E+03 0. -1.
         -6    1    1    2    0  503 -0.20080746001E+03  0.10956477032E+03 -0.23472718165E+03  0.37014716626E+03  0.17200000000E+03 0.  1.
<mgrwt>
<rscale>  2 0.28620286E+03</rscale>
<asrwt>0</asrwt>
<pdfrwt beam="1">  1       21 0.86071288E-01 0.28620286E+03</pdfrwt>
<pdfrwt beam="2">  1       21 0.94119649E-01 0.28620286E+03</pdfrwt>
<totfact> 0.10201476E+03</totfact>
</mgrwt>
</event>
<event>
 4    1  0.1100959E+000  0.2158224E+03  0.7546771E-02  0.1137036E+00
         21   -1    0    0  501  502  0.00000000000E+00  0.00000000000E+00  0.19256876230E+03  0.19256876230E+03  0.00000000000E+00 0.  1.
         21   -1    0    0  502  503 -0.00000000000E+00 -0.00000000000E+00 -0.25701106692E+03  0.25701106692E+03  0.00000000000E+00 0.  1.
          6    1    1    2  501    0  0.12204061876E+03  0.45840914126E+02  0.22314223342E+02  0.21697287065E+03  0.17200000000E+03 0.  1.
         -6    1    1    2    0  503 -0.12204061876E+03 -0.45840914126E+02 -0.86756527961E+02  0.23260695858E+03  0.17200000000E+03 0.  1.
<mgrwt>
<rscale>  2 0.21582239E+03</rscale>
<asrwt>0</asrwt>
<pdfrwt beam="1">  1       21 0.48142191E-01 0.21582239E+03</pdfrwt>
<pdfrwt beam="2">  1       21 0.64252767E-01 0.21582239E+03</pdfrwt>
<totfact> 0.90687645E+03</totfact>
</mgrwt>
</event>
<event>
 4    1  0.1100959E+000  0.2356072E+03  0.7546771E-02  0.1122754E+00
         21   -1    0    0  501  502  0.00000000000E+00  0.00000000000E+00  0.64057061698E+03  0.64057061698E+03  0.00000000000E+00 0. -1.
         21   -1    0    0  502  503 -0.00000000000E+00 -0.00000000000E+00 -0.11887448575E+03  0.11887448575E+03  0.00000000000E+00 0. -1.
          6    1    1    2  501    0  0.10475445253E+03 -0.12228349037E+03  0.45852648758E+03  0.51551652462E+03  0.17200000000E+03 0. -1.
         -6    1    1    2    0  503 -0.10475445253E+03  0.12228349037E+03  0.63169643653E+02  0.24392857811E+03  0.17200000000E+03 0. -1.
<mgrwt>
<rscale>  2 0.23560719E+03</rscale>
<asrwt>0</asrwt>
<pdfrwt beam="1">  1       21 0.16014264E+00 0.23560719E+03</pdfrwt>
<pdfrwt beam="2">  1       21 0.29718623E-01 0.23560719E+03</pdfrwt>
<totfact> 0.26253960E+03</totfact>
</mgrwt>
</event>
<event>
 4    1  0.1100959E+000  0.1879143E+03  0.7546771E-02  0.1160356E+00
         21   -1    0    0  501  502  0.00000000000E+00  0.00000000000E+00  0.16883100684E+03  0.16883100684E+03  0.00000000000E+00 0.  1.
         21   -1    0    0  502  503 -0.00000000000E+00 -0.00000000000E+00 -0.77673034234E+03  0.77673034234E+03  0.00000000000E+00 0. -1.
          6    1    1    2  501    0 -0.75427252652E+02  0.62062583917E+01  0.10019465187E+03  0.21295717022E+03  0.17200000000E+03 0.  1.
         -6    1    1    2    0  503  0.75427252652E+02 -0.62062583917E+01 -0.70809398737E+03  0.73260417896E+03  0.17200000000E+03 0. -1.
<mgrwt>
<rscale>  2 0.18791431E+03</rscale>
<asrwt>0</asrwt>
<pdfrwt beam="1">  1       21 0.42207753E-01 0.18791431E+03</pdfrwt>
<pdfrwt beam="2">  1       21 0.19418258E+00 0.18791431E+03</pdfrwt>
<totfact> 0.79534255E+02</totfact>
</mgrwt>
</event>
<event>
 4    1  0.1100959E+000  0.1805811E+03  0.7546771E-02  0.1167242E+00
         21   -1    0    0  503  502  0.00000000000E+00  0.00000000000E+00  0.13140264943E+04  0.13140264943E+04  0.00000000000E+00 0. -1.
         21   -1    0    0  501  503 -0.00000000000E+00 -0.00000000000E+00 -0.57791000732E+02  0.57791000732E+02  0.00000000000E+00 0.  1.
          6    1    1    2  501    0 -0.29470319130E+02 -0.46443746721E+02  0.11000361927E+03  0.21144814393E+03  0.17200000000E+03 0.  1.
         -6    1    1    2    0  502  0.29470319130E+02  0.46443746721E+02  0.11462318743E+04  0.11603693511E+04  0.17200000000E+03 0. -1.
<mgrwt>
<rscale>  2 0.18058107E+03</rscale>
<asrwt>0</asrwt>
<pdfrwt beam="1">  1       21 0.32850653E+00 0.18058107E+03</pdfrwt>
<pdfrwt beam="2">  1       21 0.14447754E-01 0.18058107E+03</pdfrwt>
<totfact> 0.99877080E+02</totfact>
</mgrwt>
</event>
<event>
 4    1  0.1100959E+000  0.2225847E+03  0.7546771E-02  0.1131971E+00
         21   -1    0    0  503  502  0.00000000000E+00  0.00000000000E+00  0.53230468018E+03  0.53230468018E+03  0.00000000000E+00 0.  1.
         21   -1    0    0  501  503 -0.00000000000E+00 -0.00000000000E+00 -0.13710719140E+03  0.13710719140E+03  0.00000000000E+00 0.  1.
          6    1    1    2  501    0 -0.73042399331E+02  0.12093290320E+03  0.38727860269E+03  0.44668632762E+03  0.17200000000E+03 0.  1.
         -6    1    1    2    0  502  0.73042399331E+02 -0.12093290320E+03  0.79188860872E+01  0.22272554396E+03  0.17200000000E+03 0.  1.
<mgrwt>
<rscale>  2 0.22258472E+03</rscale>
<asrwt>0</asrwt>
<pdfrwt beam="1">  1       21 0.13307616E+00 0.22258472E+03</pdfrwt>
<pdfrwt beam="2">  1       21 0.34276799E-01 0.22258472E+03</pdfrwt>
<totfact> 0.32590225E+03</totfact>
</mgrwt>
</event>
<event>
 4    1  0.1100959E+000  0.2053063E+03  0.7546771E-02  0.1145338E+00
         21   -1    0    0  503  502  0.00000000000E+00  0.00000000000E+00  0.48896067654E+03  0.48896067654E+03  0.00000000000E+00 0. -1.
         21   -1    0    0  501  503 -0.00000000000E+00 -0.00000000000E+00 -0.14706968393E+03  0.14706968393E+03  0.00000000000E+00 0. -1.
          6    1    1    2  501    0 -0.78823426287E+02 -0.79709052693E+02 -0.33637879221E+02  0.20804367938E+03  0.17200000000E+03 0. -1.
         -6    1    1    2    0  502  0.78823426287E+02  0.79709052693E+02  0.37552887182E+03  0.42798668109E+03  0.17200000000E+03 0. -1.
<mgrwt>
<rscale>  2 0.20530627E+03</rscale>
<asrwt>0</asrwt>
<pdfrwt beam="1">  1       21 0.12224017E+00 0.20530627E+03</pdfrwt>
<pdfrwt beam="2">  1       21 0.36767422E-01 0.20530627E+03</pdfrwt>
<totfact> 0.35599943E+03</totfact>
</mgrwt>
</event>
<event>
 4    1  0.1100959E+000  0.3192144E+03  0.7546771E-02  0.1076011E+00
         21   -1    0    0  501  502  0.00000000000E+00  0.00000000000E+00  0.46359710660E+03  0.46359710660E+03  0.00000000000E+00 0.  1.
         21   -1    0    0  502  503 -0.00000000000E+00 -0.00000000000E+00 -0.39884282723E+03  0.39884282723E+03  0.00000000000E+00 0.  1.
          6    1    1    2  501    0  0.14486769769E+03 -0.22655498396E+03  0.32129780933E+03  0.45291289766E+03  0.17200000000E+03 0.  1.
         -6    1    1    2    0  503 -0.14486769769E+03  0.22655498396E+03 -0.25654352996E+03  0.40952703617E+03  0.17200000000E+03 0.  1.
<mgrwt>
<rscale>  2 0.31921436E+03</rscale>
<asrwt>0</asrwt>
<pdfrwt beam="1">  1       21 0.11589928E+00 0.31921436E+03</pdfrwt>
<pdfrwt beam="2">  1       21 0.99710707E-01 0.31921436E+03</pdfrwt>
<totfact> 0.42557514E+02</totfact>
</mgrwt>
</event>
<event>
 4    1  0.1100959E+000  0.1792891E+03  0.7546771E-02  0.1168493E+00
         21   -1    0    0  503  502  0.00000000000E+00  0.00000000000E+00  0.11051208275E+04  0.11051208275E+04  0.00000000000E+00 0.  1.
         21   -1    0    0  501  503 -0.00000000000E+00 -0.00000000000E+00 -0.30130690352E+02  0.30130690352E+02  0.00000000000E+00 0.  1.
          6    1    1    2  501    0  0.38560007374E+01 -0.50455148063E+02  0.43184872781E+03  0.46758733347E+03  0.17200000000E+03 0.  1.
         -6    1    1    2    0  502 -0.38560007374E+01  0.50455148063E+02  0.64314140936E+03  0.66766418441E+03  0.17200000000E+03 0.  1.
<mgrwt>
<rscale>  2 0.17928913E+03</rscale>
<asrwt>0</asrwt>
<pdfrwt beam="1">  1       21 0.27628007E+00 0.17928913E+03</pdfrwt>
<pdfrwt beam="2">  1       21 0.75326763E-02 0.17928913E+03</pdfrwt>
<totfact> 0.63224054E+03</totfact>
</mgrwt>
</event>
<event>
 4    1  0.1100959E+000  0.2601087E+03  0.7546771E-02  0.1107078E+00
         21   -1    0    0  501  502  0.00000000000E+00  0.00000000000E+00  0.47788697211E+03  0.47788697211E+03  0.00000000000E+00 0. -1.
         21   -1    0    0  502  503 -0.00000000000E+00 -0.00000000000E+00 -0.68711618046E+03  0.68711618046E+03  0.00000000000E+00 0. -1.
          6    1    1    2  501    0  0.13954742354E+03  0.13637826218E+03  0.41441970333E+03  0.48928540170E+03  0.17200000000E+03 0. -1.
         -6    1    1    2    0  503 -0.13954742354E+03 -0.13637826218E+03 -0.62364891168E+03  0.67571775088E+03  0.17200000000E+03 0. -1.
<mgrwt>
<rscale>  2 0.26010866E+03</rscale>
<asrwt>0</asrwt>
<pdfrwt beam="1">  1       21 0.11947174E+00 0.26010866E+03</pdfrwt>
<pdfrwt beam="2">  1       21 0.17177904E+00 0.26010866E+03</pdfrwt>
<totfact> 0.10201493E+02</totfact>
</mgrwt>
</event>
<event>
 4    1  0.1100959E+000  0.2281574E+03  0.7546771E-02  0.1127943E+00
         21   -1    0    0  503  502  0.00000000000E+00  0.00000000000E+00  0.17985067291E+03  0.17985067291E+03  0.00000000000E+00 0.  1.
         21   -1    0    0  501  503 -0.00000000000E+00 -0.00000000000E+00 -0.14655726958E+04  0.14655726958E+04  0.00000000000E+00 0. -1.
          6    1    1    2  501    0 -0.50120102616E+01 -0.14982223062E+03 -0.13798691883E+04  0.13986045895E+04  0.17200000000E+03 0. -1.
         -6    1    1    2    0  502  0.50120102616E+01  0.14982223062E+03  0.94147165366E+02  0.24681877923E+03  0.17200000000E+03 0.  1.
<mgrwt>
<rscale>  2 0.22815745E+03</rscale>
<asrwt>0</asrwt>
<pdfrwt beam="1">  1       21 0.44962668E-01 0.22815745E+03</pdfrwt>
<pdfrwt beam="2">  1       21 0.36639317E+00 0.22815745E+03</pdfrwt>
<totfact> 0.62441803E+01</totfact>
</mgrwt>
</event>
<event>
 4    1  0.1100959E+000  0.1977118E+03  0.7546771E-02  0.1151684E+00
         21   -1    0    0  501  502  0.00000000000E+00  0.00000000000E+00  0.11748722058E+03  0.11748722058E+03  0.00000000000E+00 0. -1.
         21   -1    0    0  502  503 -0.00000000000E+00 -0.00000000000E+00 -0.42341663043E+03  0.42341663043E+03  0.00000000000E+00 0.  1.
          6    1    1    2  501    0  0.55617019762E+01  0.97339666123E+02 -0.27791910053E+02  0.19965553685E+03  0.17200000000E+03 0. -1.
         -6    1    1    2    0  503 -0.55617019762E+01 -0.97339666123E+02 -0.27813749980E+03  0.34124831417E+03  0.17200000000E+03 0.  1.
<mgrwt>
<rscale>  2 0.19771177E+03</rscale>
<asrwt>0</asrwt>
<pdfrwt beam="1">  1       21 0.29371805E-01 0.19771177E+03</pdfrwt>
<pdfrwt beam="2">  1       21 0.10585416E+00 0.19771177E+03</pdfrwt>
<totfact> 0.79268710E+03</totfact>
</mgrwt>
</event>
<event>
 4    1  0.1100959E+000  0.1730934E+03  0.7546771E-02  0.1174660E+00
         21   -1    0    0  503  502  0.00000000000E+00  0.00000000000E+00  0.31687886805E+03  0.31687886805E+03  0.00000000000E+00 0. -1.
         21   -1    0    0  501  503 -0.00000000000E+00 -0.00000000000E+00 -0.10980490898E+03  0.10980490898E+03  0.00000000000E+00 0. -1.
          6    1    1    2  501    0 -0.68421110694E+01 -0.18179811365E+02  0.24021613470E+02  0.17475227592E+03  0.17200000000E+03 0. -1.
         -6    1    1    2    0  502  0.68421110694E+01  0.18179811365E+02  0.18305234560E+03  0.25193150112E+03  0.17200000000E+03 0. -1.
<mgrwt>
<rscale>  2 0.17309339E+03</rscale>
<asrwt>0</asrwt>
<pdfrwt beam="1">  1       21 0.79219715E-01 0.17309339E+03</pdfrwt>
<pdfrwt beam="2">  1       21 0.27451228E-01 0.17309339E+03</pdfrwt>
<totfact> 0.18019737E+04</totfact>
</mgrwt>
</event>
<event>
 4    1  0.1100959E+000  0.2005812E+03  0.7546771E-02  0.1149250E+00
         21   -1    0    0  503  502  0.00000000000E+00  0.00000000000E+00  0.27345451818E+03  0.27345451818E+03  0.00000000000E+00 0.  1.
         21   -1    0    0  501  503 -0.00000000000E+00 -0.00000000000E+00 -0.17967724136E+03  0.17967724136E+03  0.00000000000E+00 0.  1.
          6    1    1    2  501    0 -0.24065681308E+02 -0.10034775865E+03 -0.49542674864E+02  0.20660906639E+03  0.17200000000E+03 0.  1.
         -6    1    1    2    0  502  0.24065681308E+02  0.10034775865E+03  0.14331995169E+03  0.24652269314E+03  0.17200000000E+03 0.  1.
<mgrwt>
<rscale>  2 0.20058123E+03</rscale>
<asrwt>0</asrwt>
<pdfrwt beam="1">  1       21 0.68363629E-01 0.20058123E+03</pdfrwt>
<pdfrwt beam="2">  1       21 0.44919311E-01 0.20058123E+03</pdfrwt>
<totfact> 0.92320004E+03</totfact>
</mgrwt>
</event>
<event>
 4    1  0.1100959E+000  0.2405221E+03  0.7546771E-02  0.1119446E+00
         21   -1    0    0  503  502  0.00000000000E+00  0.00000000000E+00  0.87601570137E+02  0.87601570137E+02  0.00000000000E+00 0. -1.
         21   -1    0    0  501  503 -0.00000000000E+00 -0.00000000000E+00 -0.95782670605E+03  0.95782670605E+03  0.00000000000E+00 0. -1.
          6    1    1    2  501    0  0.10717774516E+03  0.12953687874E+03 -0.72639936377E+03  0.76518423121E+03  0.17200000000E+03 0. -1.
         -6    1    1    2    0  502 -0.10717774516E+03 -0.12953687874E+03 -0.14382577215E+03  0.28024404498E+03  0.17200000000E+03 0. -1.
<mgrwt>
<rscale>  2 0.24052208E+03</rscale>
<asrwt>0</asrwt>
<pdfrwt beam="1">  1       21 0.21900393E-01 0.24052208E+03</pdfrwt>
<pdfrwt beam="2">  1       21 0.23945667E+00 0.24052208E+03</pdfrwt>
<totfact> 0.14206091E+03</totfact>
</mgrwt>
</event>
<event>
 4    1  0.1100959E+000  0.2710267E+03  0.7546771E-02  0.1100693E+00
         21   -1    0    0  501  502  0.00000000000E+00  0.00000000000E+00  0.11189848210E+04  0.11189848210E+04  0.00000000000E+00 0.  1.
         21   -1    0    0  502  503 -0.00000000000E+00 -0.00000000000E+00 -0.71231087078E+02  0.71231087078E+02  0.00000000000E+00 0.  1.
          6    1    1    2  501    0 -0.20486485984E+03  0.43610336013E+02  0.69053433043E+03  0.74181745309E+03  0.17200000000E+03 0.  1.
         -6    1    1    2    0  503  0.20486485984E+03 -0.43610336013E+02  0.35721940349E+03  0.44839845499E+03  0.17200000000E+03 0.  1.
<mgrwt>
<rscale>  2 0.27102670E+03</rscale>
<asrwt>0</asrwt>
<pdfrwt beam="1">  1       21 0.27974615E+00 0.27102670E+03</pdfrwt>
<pdfrwt beam="2">  1       21 0.17807775E-01 0.27102670E+03</pdfrwt>
<totfact> 0.11748598E+03</totfact>
</mgrwt>
</event>
<event>
 4    1  0.1100959E+000  0.2112062E+03  0.7546771E-02  0.1140614E+00
         21   -1    0    0  501  502  0.00000000000E+00  0.00000000000E+00  0.98761065519E+03  0.98761065519E+03  0.00000000000E+00 0. -1.
         21   -1    0    0  502  503 -0.00000000000E+00 -0.00000000000E+00 -0.45283452920E+02  0.45283452920E+02  0.00000000000E+00 0.  1.
          6    1    1    2  501    0  0.59454468237E+01 -0.12242833310E+03  0.44504621532E+03  0.49261971017E+03  0.17200000000E+03 0.  1.
         -6    1    1    2    0  503 -0.59454468237E+01  0.12242833310E+03  0.49728098695E+03  0.54027439793E+03  0.17200000000E+03 0. -1.
<mgrwt>
<rscale>  2 0.21120617E+03</rscale>
<asrwt>0</asrwt>
<pdfrwt beam="1">  1       21 0.24690259E+00 0.21120617E+03</pdfrwt>
<pdfrwt beam="2">  1       21 0.11320866E-01 0.21120617E+03</pdfrwt>
<totfact> 0.44315787E+03</totfact>
</mgrwt>
</event>
<event>
 4    1  0.1100959E+000  0.2085142E+03  0.7546771E-02  0.1142748E+00
         21   -1    0    0  501  502  0.00000000000E+00  0.00000000000E+00  0.19262655946E+03  0.19262655946E+03  0.00000000000E+00 0.  1.
         21   -1    0    0  502  503 -0.00000000000E+00 -0.00000000000E+00 -0.33455592412E+03  0.33455592412E+03  0.00000000000E+00 0.  1.
          6    1    1    2  501    0  0.41571211945E+02  0.11029969132E+03  0.79383461748E+02  0.22311414471E+03  0.17200000000E+03 0.  1.
         -6    1    1    2    0  503 -0.41571211945E+02 -0.11029969132E+03 -0.22131282641E+03  0.30406833887E+03  0.17200000000E+03 0.  1.
<mgrwt>
<rscale>  2 0.20851424E+03</rscale>
<asrwt>0</asrwt>
<pdfrwt beam="1">  1       21 0.48156640E-01 0.20851424E+03</pdfrwt>
<pdfrwt beam="2">  1       21 0.83638980E-01 0.20851424E+03</pdfrwt>
<totfact> 0.50598249E+03</totfact>
</mgrwt>
</event>
<event>
 4    1  0.1100959E+000  0.2020134E+03  0.7546771E-02  0.1148051E+00
         21   -1    0    0  503  502  0.00000000000E+00  0.00000000000E+00  0.24104623915E+03  0.24104623915E+03  0.00000000000E+00 0.  1.
         21   -1    0    0  501  503 -0.00000000000E+00 -0.00000000000E+00 -0.16930831653E+03  0.16930831653E+03  0.00000000000E+00 0.  1.
          6    1    1    2  501    0  0.80679098317E+02 -0.68675173207E+02  0.34530535447E+02  0.20494329508E+03  0.17200000000E+03 0.  1.
         -6    1    1    2    0  502 -0.80679098317E+02  0.68675173207E+02  0.37207387181E+02  0.20541126060E+03  0.17200000000E+03 0.  1.
<mgrwt>
<rscale>  2 0.20201336E+03</rscale>
<asrwt>0</asrwt>
<pdfrwt beam="1">  1       21 0.60261560E-01 0.20201336E+03</pdfrwt>
<pdfrwt beam="2">  1       21 0.42327079E-01 0.20201336E+03</pdfrwt>
<totfact> 0.13703686E+04</totfact>
</mgrwt>
</event>
<event>
 4    1  0.1100959E+000  0.1724918E+03  0.7546771E-02  0.1175274E+00
         21   -1    0    0  503  502  0.00000000000E+00  0.00000000000E+00  0.44187818393E+03  0.44187818393E+03  0.00000000000E+00 0. -1.
         21   -1    0    0  501  503 -0.00000000000E+00 -0.00000000000E+00 -0.11467274370E+04  0.11467274370E+04  0.00000000000E+00 0. -1.
          6    1    1    2  501    0 -0.33229424705E+00 -0.13011811442E+02 -0.11230545836E+04  0.11362240164E+04  0.17200000000E+03 0. -1.
         -6    1    1    2    0  502  0.33229424705E+00  0.13011811442E+02  0.41820533052E+03  0.45238160455E+03  0.17200000000E+03 0. -1.
<mgrwt>
<rscale>  2 0.17249179E+03</rscale>
<asrwt>0</asrwt>
<pdfrwt beam="1">  1       21 0.11046955E+00 0.17249179E+03</pdfrwt>
<pdfrwt beam="2">  1       21 0.28668186E+00 0.17249179E+03</pdfrwt>
<totfact> 0.27367432E+01</totfact>
</mgrwt>
</event>
<event>
 4    1  0.1100959E+000  0.1916370E+03  0.7546771E-02  0.1156993E+00
         21   -1    0    0  503  502  0.00000000000E+00  0.00000000000E+00  0.84727227029E+03  0.84727227029E+03  0.00000000000E+00 0.  1.
         21   -1    0    0  501  503 -0.00000000000E+00 -0.00000000000E+00 -0.70084342345E+02  0.70084342345E+02  0.00000000000E+00 0.  1.
          6    1    1    2  501    0  0.34305446310E+02 -0.77226036983E+02  0.10527485997E+03  0.21864930957E+03  0.17200000000E+03 0.  1.
         -6    1    1    2    0  502 -0.34305446310E+02  0.77226036983E+02  0.67191306798E+03  0.69870730307E+03  0.17200000000E+03 0.  1.
<mgrwt>
<rscale>  2 0.19163696E+03</rscale>
<asrwt>0</asrwt>
<pdfrwt beam="1">  1       21 0.21181804E+00 0.19163696E+03</pdfrwt>
<pdfrwt beam="2">  1       21 0.17521088E-01 0.19163696E+03</pdfrwt>
<totfact> 0.33392392E+03</totfact>
</mgrwt>
</event>
<event>
 4    1  0.1100959E+000  0.2323878E+03  0.7546771E-02  0.1124970E+00
         21   -1    0    0  503  502  0.00000000000E+00  0.00000000000E+00  0.15679210508E+03  0.15679210508E+03  0.00000000000E+00 0. -1.
         21   -1    0    0  501  503 -0.00000000000E+00 -0.00000000000E+00 -0.64767190322E+03  0.64767190322E+03  0.00000000000E+00 0. -1.
          6    1    1    2  501    0  0.15571446138E+03 -0.13156559408E+02 -0.52066805592E+03  0.57017480915E+03  0.17200000000E+03 0. -1.
         -6    1    1    2    0  502 -0.15571446138E+03  0.13156559408E+02  0.29788257770E+02  0.23428919915E+03  0.17200000000E+03 0. -1.
<mgrwt>
<rscale>  2 0.23238780E+03</rscale>
<asrwt>0</asrwt>
<pdfrwt beam="1">  1       21 0.39198027E-01 0.23238780E+03</pdfrwt>
<pdfrwt beam="2">  1       21 0.16191797E+00 0.23238780E+03</pdfrwt>
<totfact> 0.14729275E+03</totfact>
</mgrwt>
</event>
<event>
 4    1  0.1100959E+000  0.2155634E+03  0.7546771E-02  0.1137235E+00
         21   -1    0    0  501  502  0.00000000000E+00  0.00000000000E+00  0.17448504893E+03  0.17448504893E+03  0.00000000000E+00 0. -1.
         21   -1    0    0  502  503 -0.00000000000E+00 -0.00000000000E+00 -0.41106029482E+03  0.41106029482E+03  0.00000000000E+00 0. -1.
          6    1    1    2  501    0 -0.64413235791E+02 -0.11284733049E+03  0.55445827701E+02  0.22257992891E+03  0.17200000000E+03 0. -1.
         -6    1    1    2    0  503  0.64413235791E+02  0.11284733049E+03 -0.29202107360E+03  0.36296541484E+03  0.17200000000E+03 0. -1.
<mgrwt>
<rscale>  2 0.21556341E+03</rscale>
<asrwt>0</asrwt>
<pdfrwt beam="1">  1       21 0.43621263E-01 0.21556341E+03</pdfrwt>
<pdfrwt beam="2">  1       21 0.10276507E+00 0.21556341E+03</pdfrwt>
<totfact> 0.38142652E+03</totfact>
</mgrwt>
</event>
<event>
 4    1  0.1100959E+000  0.1787458E+03  0.7546771E-02  0.1169022E+00
         21   -1    0    0  503  502  0.00000000000E+00  0.00000000000E+00  0.17967571948E+02  0.17967571948E+02  0.00000000000E+00 0. -1.
         21   -1    0    0  501  503 -0.00000000000E+00 -0.00000000000E+00 -0.18468336507E+04  0.18468336507E+04  0.00000000000E+00 0. -1.
          6    1    1    2  501    0  0.38519045844E+02 -0.29703986196E+02 -0.10941703850E+04  0.11086743774E+04  0.17200000000E+03 0. -1.
         -6    1    1    2    0  502 -0.38519045844E+02  0.29703986196E+02 -0.73469569370E+03  0.75612684520E+03  0.17200000000E+03 0. -1.
<mgrwt>
<rscale>  2 0.17874575E+03</rscale>
<asrwt>0</asrwt>
<pdfrwt beam="1">  1       21 0.44918923E-02 0.17874575E+03</pdfrwt>
<pdfrwt beam="2">  1       21 0.46170848E+00 0.17874575E+03</pdfrwt>
<totfact> 0.11468719E+03</totfact>
</mgrwt>
</event>
<event>
 4    1  0.1100959E+000  0.2054315E+03  0.7546771E-02  0.1145236E+00
         21   -1    0    0  503  502  0.00000000000E+00  0.00000000000E+00  0.32279735326E+03  0.32279735326E+03  0.00000000000E+00 0. -1.
         21   -1    0    0  501  503 -0.00000000000E+00 -0.00000000000E+00 -0.14414250204E+03  0.14414250204E+03  0.00000000000E+00 0. -1.
          6    1    1    2  501    0 -0.10421823890E+03  0.41912348205E+02  0.16052249714E+03  0.26070972046E+03  0.17200000000E+03 0. -1.
         -6    1    1    2    0  502  0.10421823890E+03 -0.41912348205E+02  0.18132354076E+02  0.20623013484E+03  0.17200000000E+03 0. -1.
<mgrwt>
<rscale>  2 0.20543146E+03</rscale>
<asrwt>0</asrwt>
<pdfrwt beam="1">  1       21 0.80699337E-01 0.20543146E+03</pdfrwt>
<pdfrwt beam="2">  1       21 0.36035626E-01 0.20543146E+03</pdfrwt>
<totfact> 0.99261388E+03</totfact>
</mgrwt>
</event>
<event>
 4    1  0.1100959E+000  0.2041695E+03  0.7546771E-02  0.1146268E+00
         21   -1    0    0  501  502  0.00000000000E+00  0.00000000000E+00  0.27496151610E+03  0.27496151610E+03  0.00000000000E+00 0. -1.
         21   -1    0    0  502  503 -0.00000000000E+00 -0.00000000000E+00 -0.55523213290E+03  0.55523213290E+03  0.00000000000E+00 0. -1.
          6    1    1    2  501    0  0.67493157708E+02  0.86866971052E+02  0.21378294650E+03  0.29561519787E+03  0.17200000000E+03 0. -1.
         -6    1    1    2    0  503 -0.67493157708E+02 -0.86866971052E+02 -0.49405356331E+03  0.53457845113E+03  0.17200000000E+03 0. -1.
<mgrwt>
<rscale>  2 0.20416953E+03</rscale>
<asrwt>0</asrwt>
<pdfrwt beam="1">  1       21 0.68740380E-01 0.20416953E+03</pdfrwt>
<pdfrwt beam="2">  1       21 0.13880803E+00 0.20416953E+03</pdfrwt>
<totfact> 0.69684199E+02</totfact>
</mgrwt>
</event>
<event>
 4    1  0.1100959E+000  0.1931297E+03  0.7546771E-02  0.1155668E+00
         21   -1    0    0  501  502  0.00000000000E+00  0.00000000000E+00  0.21479642476E+03  0.21479642476E+03  0.00000000000E+00 0. -1.
         21   -1    0    0  502  503 -0.00000000000E+00 -0.00000000000E+00 -0.39505304308E+03  0.39505304308E+03  0.00000000000E+00 0. -1.
          6    1    1    2  501    0 -0.87340259492E+02 -0.93148938351E+01  0.13814659053E+03  0.23745224499E+03  0.17200000000E+03 0. -1.
         -6    1    1    2    0  503  0.87340259492E+02  0.93148938351E+01 -0.31840320885E+03  0.37239722284E+03  0.17200000000E+03 0. -1.
<mgrwt>
<rscale>  2 0.19312972E+03</rscale>
<asrwt>0</asrwt>
<pdfrwt beam="1">  1       21 0.53699107E-01 0.19312972E+03</pdfrwt>
<pdfrwt beam="2">  1       21 0.98763260E-01 0.19312972E+03</pdfrwt>
<totfact> 0.27729923E+03</totfact>
</mgrwt>
</event>
<event>
 4    1  0.1100959E+000  0.2080379E+03  0.7546771E-02  0.1143129E+00
         21   -1    0    0  501  502  0.00000000000E+00  0.00000000000E+00  0.43172966062E+03  0.43172966062E+03  0.00000000000E+00 0.  1.
         21   -1    0    0  502  503 -0.00000000000E+00 -0.00000000000E+00 -0.23998348025E+03  0.23998348025E+03  0.00000000000E+00 0.  1.
          6    1    1    2  501    0 -0.83226409263E+02  0.82274664278E+02  0.35215474942E+03  0.40901433119E+03  0.17200000000E+03 0.  1.
         -6    1    1    2    0  503  0.83226409263E+02 -0.82274664278E+02 -0.16040856905E+03  0.26269880968E+03  0.17200000000E+03 0.  1.
<mgrwt>
<rscale>  2 0.20803787E+03</rscale>
<asrwt>0</asrwt>
<pdfrwt beam="1">  1       21 0.10793241E+00 0.20803787E+03</pdfrwt>
<pdfrwt beam="2">  1       21 0.59995871E-01 0.20803787E+03</pdfrwt>
<totfact> 0.17471189E+03</totfact>
</mgrwt>
</event>
<event>
 4    1  0.1100959E+000  0.1739941E+03  0.7546771E-02  0.1173745E+00
         21   -1    0    0  503  502  0.00000000000E+00  0.00000000000E+00  0.55860388860E+02  0.55860388860E+02  0.00000000000E+00 0.  1.
         21   -1    0    0  501  503 -0.00000000000E+00 -0.00000000000E+00 -0.54314537535E+03  0.54314537535E+03  0.00000000000E+00 0.  1.
          6    1    1    2  501    0  0.24867596212E+02  0.84590847546E+01 -0.25764929553E+03  0.31089727072E+03  0.17200000000E+03 0.  1.
         -6    1    1    2    0  502 -0.24867596212E+02 -0.84590847546E+01 -0.22963569096E+03  0.28810849349E+03  0.17200000000E+03 0.  1.
<mgrwt>
<rscale>  2 0.17399412E+03</rscale>
<asrwt>0</asrwt>
<pdfrwt beam="1">  1       21 0.13965098E-01 0.17399412E+03</pdfrwt>
<pdfrwt beam="2">  1       21 0.13578634E+00 0.17399412E+03</pdfrwt>
<totfact> 0.17510638E+04</totfact>
</mgrwt>
</event>
<event>
 4    1  0.1100959E+000  0.1894429E+03  0.7546771E-02  0.1158965E+00
         21   -1    0    0  501  502  0.00000000000E+00  0.00000000000E+00  0.12223511579E+04  0.12223511579E+04  0.00000000000E+00 0. -1.
         21   -1    0    0  502  503 -0.00000000000E+00 -0.00000000000E+00 -0.46323205978E+02  0.46323205978E+02  0.00000000000E+00 0.  1.
          6    1    1    2  501    0 -0.77868003603E+02  0.15529859240E+02  0.97187227158E+03  0.99016378180E+03  0.17200000000E+03 0. -1.
         -6    1    1    2    0  503  0.77868003603E+02 -0.15529859240E+02  0.20415568032E+03  0.27851058206E+03  0.17200000000E+03 0.  1.
<mgrwt>
<rscale>  2 0.18944287E+03</rscale>
<asrwt>0</asrwt>
<pdfrwt beam="1">  1       21 0.30558768E+00 0.18944287E+03</pdfrwt>
<pdfrwt beam="2">  1       21 0.11580806E-01 0.18944287E+03</pdfrwt>
<totfact> 0.19903957E+03</totfact>
</mgrwt>
</event>
<event>
 4    1  0.1100959E+000  0.4335068E+03  0.7546771E-02  0.1032758E+00
         21   -1    0    0  501  502  0.00000000000E+00  0.00000000000E+00  0.85886315869E+03  0.85886315869E+03  0.00000000000E+00 0.  1.
         21   -1    0    0  502  503 -0.00000000000E+00 -0.00000000000E+00 -0.60286059852E+03  0.60286059852E+03  0.00000000000E+00 0. -1.
          6    1    1    2  501    0 -0.56007797298E+02  0.39396353138E+03 -0.45533755784E+03  0.62869740655E+03  0.17200000000E+03 0. -1.
         -6    1    1    2    0  503  0.56007797298E+02 -0.39396353138E+03  0.71134011801E+03  0.83302635067E+03  0.17200000000E+03 0.  1.
<mgrwt>
<rscale>  2 0.43350679E+03</rscale>
<asrwt>0</asrwt>
<pdfrwt beam="1">  1       21 0.21471579E+00 0.43350679E+03</pdfrwt>
<pdfrwt beam="2">  1       21 0.15071515E+00 0.43350679E+03</pdfrwt>
<totfact> 0.24763084E+01</totfact>
</mgrwt>
</event>
<event>
 4    1  0.1100959E+000  0.2222808E+03  0.7546771E-02  0.1132194E+00
         21   -1    0    0  501  502  0.00000000000E+00  0.00000000000E+00  0.96115556887E+02  0.96115556887E+02  0.00000000000E+00 0. -1.
         21   -1    0    0  502  503 -0.00000000000E+00 -0.00000000000E+00 -0.51440900409E+03  0.51440900409E+03  0.00000000000E+00 0.  1.
          6    1    1    2  501    0 -0.13876677816E+03 -0.23844339627E+02 -0.20114918286E+03  0.29978286311E+03  0.17200000000E+03 0. -1.
         -6    1    1    2    0  503  0.13876677816E+03  0.23844339627E+02 -0.21714426435E+03  0.31074169787E+03  0.17200000000E+03 0.  1.
<mgrwt>
<rscale>  2 0.22228084E+03</rscale>
<asrwt>0</asrwt>
<pdfrwt beam="1">  1       21 0.24028889E-01 0.22228084E+03</pdfrwt>
<pdfrwt beam="2">  1       21 0.12860225E+00 0.22228084E+03</pdfrwt>
<totfact> 0.70977567E+03</totfact>
</mgrwt>
</event>
<event>
 4    1  0.1100959E+000  0.1807770E+03  0.7546771E-02  0.1167053E+00
         21   -1    0    0  501  502  0.00000000000E+00  0.00000000000E+00  0.37434394657E+03  0.37434394657E+03  0.00000000000E+00 0.  1.
         21   -1    0    0  502  503 -0.00000000000E+00 -0.00000000000E+00 -0.91591204084E+02  0.91591204084E+02  0.00000000000E+00 0.  1.
          6    1    1    2  501    0 -0.39278060217E+02  0.39415385712E+02  0.90951705853E+02  0.20236736753E+03  0.17200000000E+03 0.  1.
         -6    1    1    2    0  503  0.39278060217E+02 -0.39415385712E+02  0.19180103663E+03  0.26356778312E+03  0.17200000000E+03 0.  1.
<mgrwt>
<rscale>  2 0.18077704E+03</rscale>
<asrwt>0</asrwt>
<pdfrwt beam="1">  1       21 0.93585983E-01 0.18077704E+03</pdfrwt>
<pdfrwt beam="2">  1       21 0.22897802E-01 0.18077704E+03</pdfrwt>
<totfact> 0.17301378E+04</totfact>
</mgrwt>
</event>
<event>
 4    1  0.1100959E+000  0.2084076E+03  0.7546771E-02  0.1142833E+00
         21   -1    0    0  501  502  0.00000000000E+00  0.00000000000E+00  0.66130247711E+03  0.66130247711E+03  0.00000000000E+00 0. -1.
         21   -1    0    0  502  503 -0.00000000000E+00 -0.00000000000E+00 -0.15568207096E+03  0.15568207096E+03  0.00000000000E+00 0.  1.
          6    1    1    2  501    0 -0.10237178868E+03 -0.58049455992E+02  0.56340421299E+03  0.60071459918E+03  0.17200000000E+03 0. -1.
         -6    1    1    2    0  503  0.10237178868E+03  0.58049455992E+02 -0.57783806834E+02  0.21626994888E+03  0.17200000000E+03 0.  1.
<mgrwt>
<rscale>  2 0.20840759E+03</rscale>
<asrwt>0</asrwt>
<pdfrwt beam="1">  1       21 0.16532561E+00 0.20840759E+03</pdfrwt>
<pdfrwt beam="2">  1       21 0.38920519E-01 0.20840759E+03</pdfrwt>
<totfact> 0.14430461E+03</totfact>
</mgrwt>
</event>
<event>
 4    1  0.1100959E+000  0.2351769E+03  0.7546771E-02  0.1123048E+00
         21   -1    0    0  501  502  0.00000000000E+00  0.00000000000E+00  0.45308914932E+03  0.45308914932E+03  0.00000000000E+00 0. -1.
         21   -1    0    0  502  503 -0.00000000000E+00 -0.00000000000E+00 -0.12377780180E+03  0.12377780180E+03  0.00000000000E+00 0.  1.
          6    1    1    2  501    0 -0.15931475053E+03  0.18519983519E+02  0.13076666518E+03  0.26908753269E+03  0.17200000000E+03 0.  1.
         -6    1    1    2    0  503  0.15931475053E+03 -0.18519983519E+02  0.19854468234E+03  0.30777941844E+03  0.17200000000E+03 0. -1.
<mgrwt>
<rscale>  2 0.23517691E+03</rscale>
<asrwt>0</asrwt>
<pdfrwt beam="1">  1       21 0.11327228E+00 0.23517691E+03</pdfrwt>
<pdfrwt beam="2">  1       21 0.30944452E-01 0.23517691E+03</pdfrwt>
<totfact> 0.59149374E+03</totfact>
</mgrwt>
</event>
<event>
 4    1  0.1100959E+000  0.1964104E+03  0.7546771E-02  0.1152803E+00
         21   -1    0    0  501  502  0.00000000000E+00  0.00000000000E+00  0.73053073783E+02  0.73053073783E+02  0.00000000000E+00 0. -1.
         21   -1    0    0  502  503 -0.00000000000E+00 -0.00000000000E+00 -0.54547632700E+03  0.54547632700E+03  0.00000000000E+00 0.  1.
          6    1    1    2  501    0 -0.84468134675E+02 -0.43106593775E+02 -0.18096423761E+03  0.26706759350E+03  0.17200000000E+03 0. -1.
         -6    1    1    2    0  503  0.84468134675E+02  0.43106593775E+02 -0.29145901560E+03  0.35146180728E+03  0.17200000000E+03 0.  1.
<mgrwt>
<rscale>  2 0.19641040E+03</rscale>
<asrwt>0</asrwt>
<pdfrwt beam="1">  1       21 0.18263268E-01 0.19641040E+03</pdfrwt>
<pdfrwt beam="2">  1       21 0.13636908E+00 0.19641040E+03</pdfrwt>
<totfact> 0.10435603E+04</totfact>
</mgrwt>
</event>
<event>
 4    1  0.1100959E+000  0.2219053E+03  0.7546771E-02  0.1132471E+00
         21   -1    0    0  501  502  0.00000000000E+00  0.00000000000E+00  0.43456673110E+03  0.43456673110E+03  0.00000000000E+00 0. -1.
         21   -1    0    0  502  503 -0.00000000000E+00 -0.00000000000E+00 -0.25421062079E+03  0.25421062079E+03  0.00000000000E+00 0. -1.
          6    1    1    2  501    0 -0.12021980048E+03  0.72146707396E+02  0.34656992215E+03  0.41152479725E+03  0.17200000000E+03 0. -1.
         -6    1    1    2    0  503  0.12021980048E+03 -0.72146707396E+02 -0.16621381183E+03  0.27725255465E+03  0.17200000000E+03 0. -1.
<mgrwt>
<rscale>  2 0.22190527E+03</rscale>
<asrwt>0</asrwt>
<pdfrwt beam="1">  1       21 0.10864168E+00 0.22190527E+03</pdfrwt>
<pdfrwt beam="2">  1       21 0.63552656E-01 0.22190527E+03</pdfrwt>
<totfact> 0.14998419E+03</totfact>
</mgrwt>
</event>
<event>
 4    1  0.1100959E+000  0.2186049E+03  0.7546771E-02  0.1134927E+00
         21   -1    0    0  503  502  0.00000000000E+00  0.00000000000E+00  0.22440281190E+03  0.22440281190E+03  0.00000000000E+00 0. -1.
         21   -1    0    0  501  503 -0.00000000000E+00 -0.00000000000E+00 -0.45525509303E+03  0.45525509303E+03  0.00000000000E+00 0. -1.
          6    1    1    2  501    0  0.13469609805E+03  0.78141210625E+01 -0.36334420305E+03  0.42403668380E+03  0.17200000000E+03 0. -1.
         -6    1    1    2    0  502 -0.13469609805E+03 -0.78141210625E+01  0.13249192192E+03  0.25562122113E+03  0.17200000000E+03 0. -1.
<mgrwt>
<rscale>  2 0.21860489E+03</rscale>
<asrwt>0</asrwt>
<pdfrwt beam="1">  1       21 0.56100703E-01 0.21860489E+03</pdfrwt>
<pdfrwt beam="2">  1       21 0.11381377E+00 0.21860489E+03</pdfrwt>
<totfact> 0.17567297E+03</totfact>
</mgrwt>
</event>
<event>
 4    1  0.1100959E+000  0.1836532E+03  0.7546771E-02  0.1164314E+00
         21   -1    0    0  503  502  0.00000000000E+00  0.00000000000E+00  0.55174572930E+03  0.55174572930E+03  0.00000000000E+00 0.  1.
         21   -1    0    0  501  503 -0.00000000000E+00 -0.00000000000E+00 -0.19613044327E+03  0.19613044327E+03  0.00000000000E+00 0. -1.
          6    1    1    2  501    0 -0.62766776385E+02  0.14311388053E+02 -0.13242965781E+03  0.22642018089E+03  0.17200000000E+03 0. -1.
         -6    1    1    2    0  502  0.62766776385E+02 -0.14311388053E+02  0.48804494384E+03  0.52145599167E+03  0.17200000000E+03 0.  1.
<mgrwt>
<rscale>  2 0.18365316E+03</rscale>
<asrwt>0</asrwt>
<pdfrwt beam="1">  1       21 0.13793643E+00 0.18365316E+03</pdfrwt>
<pdfrwt beam="2">  1       21 0.49032612E-01 0.18365316E+03</pdfrwt>
<totfact> 0.14888986E+03</totfact>
</mgrwt>
</event>
<event>
 4    1  0.1100959E+000  0.2004980E+03  0.7546771E-02  0.1149320E+00
         21   -1    0    0  503  502  0.00000000000E+00  0.00000000000E+00  0.73417356422E+03  0.73417356422E+03  0.00000000000E+00 0.  1.
         21   -1    0    0  501  503 -0.00000000000E+00 -0.00000000000E+00 -0.69087859957E+02  0.69087859957E+02  0.00000000000E+00 0.  1.
          6    1    1    2  501    0 -0.26196476104E+02 -0.99645366753E+02  0.14960777252E+03  0.25016382647E+03  0.17200000000E+03 0.  1.
         -6    1    1    2    0  502  0.26196476104E+02  0.99645366753E+02  0.51547793175E+03  0.55309759771E+03  0.17200000000E+03 0.  1.
<mgrwt>
<rscale>  2 0.20049802E+03</rscale>
<asrwt>0</asrwt>
<pdfrwt beam="1">  1       21 0.18354337E+00 0.20049802E+03</pdfrwt>
<pdfrwt beam="2">  1       21 0.17271967E-01 0.20049802E+03</pdfrwt>
<totfact> 0.51809104E+03</totfact>
</mgrwt>
</event>
<event>
 4    1  0.1100959E+000  0.2459839E+03  0.7546771E-02  0.1115870E+00
         21   -1    0    0  501  502  0.00000000000E+00  0.00000000000E+00  0.42327850262E+03  0.42327850262E+03  0.00000000000E+00 0. -1.
         21   -1    0    0  502  503 -0.00000000000E+00 -0.00000000000E+00 -0.34989431412E+03  0.34989431412E+03  0.00000000000E+00 0.  1.
          6    1    1    2  501    0  0.10433250389E+03  0.14155845718E+03  0.33399823580E+03  0.41480464039E+03  0.17200000000E+03 0. -1.
         -6    1    1    2    0  503 -0.10433250389E+03 -0.14155845718E+03 -0.26061404731E+03  0.35836817635E+03  0.17200000000E+03 0.  1.
<mgrwt>
<rscale>  2 0.24598388E+03</rscale>
<asrwt>0</asrwt>
<pdfrwt beam="1">  1       21 0.10581963E+00 0.24598388E+03</pdfrwt>
<pdfrwt beam="2">  1       21 0.87473579E-01 0.24598388E+03</pdfrwt>
<totfact> 0.76508686E+02</totfact>
</mgrwt>
</event>
<event>
 4    1  0.1100959E+000  0.1868431E+03  0.7546771E-02  0.1161340E+00
         21   -1    0    0  503  502  0.00000000000E+00  0.00000000000E+00  0.88029334335E+03  0.88029334335E+03  0.00000000000E+00 0. -1.
         21   -1    0    0  501  503 -0.00000000000E+00 -0.00000000000E+00 -0.58641785565E+02  0.58641785565E+02  0.00000000000E+00 0. -1.
          6    1    1    2  501    0 -0.39739468746E+02  0.61213604487E+02  0.14371103417E+03  0.23571845938E+03  0.17200000000E+03 0. -1.
         -6    1    1    2    0  502  0.39739468746E+02 -0.61213604487E+02  0.67794052362E+03  0.70321666954E+03  0.17200000000E+03 0. -1.
<mgrwt>
<rscale>  2 0.18684306E+03</rscale>
<asrwt>0</asrwt>
<pdfrwt beam="1">  1       21 0.22007329E+00 0.18684306E+03</pdfrwt>
<pdfrwt beam="2">  1       21 0.14660449E-01 0.18684306E+03</pdfrwt>
<totfact> 0.41339363E+03</totfact>
</mgrwt>
</event>
<event>
 4    1  0.1100959E+000  0.1924465E+03  0.7546771E-02  0.1156273E+00
         21   -1    0    0  503  502  0.00000000000E+00  0.00000000000E+00  0.69250518521E+03  0.69250518521E+03  0.00000000000E+00 0.  1.
         21   -1    0    0  501  503 -0.00000000000E+00 -0.00000000000E+00 -0.87526710778E+02  0.87526710778E+02  0.00000000000E+00 0. -1.
          6    1    1    2  501    0 -0.56924804148E+02  0.64893843624E+02  0.59243441904E+02  0.20135895728E+03  0.17200000000E+03 0. -1.
         -6    1    1    2    0  502  0.56924804148E+02 -0.64893843624E+02  0.54573503253E+03  0.57867293871E+03  0.17200000000E+03 0.  1.
<mgrwt>
<rscale>  2 0.19244647E+03</rscale>
<asrwt>0</asrwt>
<pdfrwt beam="1">  1       21 0.17312628E+00 0.19244647E+03</pdfrwt>
<pdfrwt beam="2">  1       21 0.21881680E-01 0.19244647E+03</pdfrwt>
<totfact> 0.39577525E+03</totfact>
</mgrwt>
</event>
<event>
 4    1  0.1100959E+000  0.1809364E+03  0.7546771E-02  0.1166900E+00
         21   -1    0    0  503  502  0.00000000000E+00  0.00000000000E+00  0.24242222715E+03  0.24242222715E+03  0.00000000000E+00 0.  1.
         21   -1    0    0  501  503 -0.00000000000E+00 -0.00000000000E+00 -0.16678477127E+03  0.16678477127E+03  0.00000000000E+00 0.  1.
          6    1    1    2  501    0 -0.39946030229E+02  0.39475326554E+02 -0.51436688655E+02  0.18810560778E+03  0.17200000000E+03 0.  1.
         -6    1    1    2    0  502  0.39946030229E+02 -0.39475326554E+02  0.12707414453E+03  0.22110139065E+03  0.17200000000E+03 0.  1.
<mgrwt>
<rscale>  2 0.18093642E+03</rscale>
<asrwt>0</asrwt>
<pdfrwt beam="1">  1       21 0.60605556E-01 0.18093642E+03</pdfrwt>
<pdfrwt beam="2">  1       21 0.41696193E-01 0.18093642E+03</pdfrwt>
<totfact> 0.14148472E+04</totfact>
</mgrwt>
</event>
<event>
 4    1  0.1100959E+000  0.1826847E+03  0.7546771E-02  0.1165230E+00
         21   -1    0    0  503  502  0.00000000000E+00  0.00000000000E+00  0.38403220330E+02  0.38403220330E+02  0.00000000000E+00 0.  1.
         21   -1    0    0  501  503 -0.00000000000E+00 -0.00000000000E+00 -0.14416643236E+04  0.14416643236E+04  0.00000000000E+00 0.  1.
          6    1    1    2  501    0  0.12122149005E+02 -0.60355142009E+02 -0.11680286579E+04  0.11822286730E+04  0.17200000000E+03 0.  1.
         -6    1    1    2    0  502 -0.12122149005E+02  0.60355142009E+02 -0.23523244538E+03  0.29783887090E+03  0.17200000000E+03 0.  1.
<mgrwt>
<rscale>  2 0.18268467E+03</rscale>
<asrwt>0</asrwt>
<pdfrwt beam="1">  1       21 0.96008063E-02 0.18268467E+03</pdfrwt>
<pdfrwt beam="2">  1       21 0.36041604E+00 0.18268467E+03</pdfrwt>
<totfact> 0.13425290E+03</totfact>
</mgrwt>
</event>
<event>
 4    1  0.1100959E+000  0.1724944E+03  0.7546771E-02  0.1175271E+00
         21   -1    0    0  503  502  0.00000000000E+00  0.00000000000E+00  0.78608823962E+02  0.78608823962E+02  0.00000000000E+00 0.  1.
         21   -1    0    0  501  503 -0.00000000000E+00 -0.00000000000E+00 -0.81421048499E+03  0.81421048499E+03  0.00000000000E+00 0.  1.
          6    1    1    2  501    0  0.12096675894E+02 -0.48990029159E+01 -0.69435752887E+03  0.71546258302E+03  0.17200000000E+03 0.  1.
         -6    1    1    2    0  502 -0.12096675894E+02  0.48990029159E+01 -0.41244132158E+02  0.17735672594E+03  0.17200000000E+03 0.  1.
<mgrwt>
<rscale>  2 0.17249443E+03</rscale>
<asrwt>0</asrwt>
<pdfrwt beam="1">  1       21 0.19652207E-01 0.17249443E+03</pdfrwt>
<pdfrwt beam="2">  1       21 0.20355261E+00 0.17249443E+03</pdfrwt>
<totfact> 0.31037043E+03</totfact>
</mgrwt>
</event>
<event>
 4    1  0.1100959E+000  0.1774003E+03  0.7546771E-02  0.1170343E+00
         21   -1    0    0  501  502  0.00000000000E+00  0.00000000000E+00  0.46938109642E+02  0.46938109642E+02  0.00000000000E+00 0.  1.
         21   -1    0    0  502  503 -0.00000000000E+00 -0.00000000000E+00 -0.12011900582E+04  0.12011900582E+04  0.00000000000E+00 0. -1.
          6    1    1    2  501    0  0.22253945059E+02 -0.37304675611E+02 -0.99194017203E+03  0.10076786104E+04  0.17200000000E+03 0. -1.
         -6    1    1    2    0  503 -0.22253945059E+02  0.37304675611E+02 -0.16231177653E+03  0.24044955748E+03  0.17200000000E+03 0.  1.
<mgrwt>
<rscale>  2 0.17740033E+03</rscale>
<asrwt>0</asrwt>
<pdfrwt beam="1">  1       21 0.11734527E-01 0.17740033E+03</pdfrwt>
<pdfrwt beam="2">  1       21 0.30029753E+00 0.17740033E+03</pdfrwt>
<totfact> 0.21187908E+03</totfact>
</mgrwt>
</event>
<event>
 4    1  0.1100959E+000  0.1851479E+03  0.7546771E-02  0.1162912E+00
         21   -1    0    0  501  502  0.00000000000E+00  0.00000000000E+00  0.21545165707E+03  0.21545165707E+03  0.00000000000E+00 0. -1.
         21   -1    0    0  502  503 -0.00000000000E+00 -0.00000000000E+00 -0.33652765669E+03  0.33652765669E+03  0.00000000000E+00 0. -1.
          6    1    1    2  501    0  0.55144366491E+02  0.40679576917E+02  0.13985627007E+03  0.23203341443E+03  0.17200000000E+03 0. -1.
         -6    1    1    2    0  503 -0.55144366491E+02 -0.40679576917E+02 -0.26093226969E+03  0.31994589934E+03  0.17200000000E+03 0. -1.
<mgrwt>
<rscale>  2 0.18514786E+03</rscale>
<asrwt>0</asrwt>
<pdfrwt beam="1">  1       21 0.53862915E-01 0.18514786E+03</pdfrwt>
<pdfrwt beam="2">  1       21 0.84131914E-01 0.18514786E+03</pdfrwt>
<totfact> 0.40235876E+03</totfact>
</mgrwt>
</event>
<event>
 4    1  0.1100959E+000  0.1746122E+03  0.7546771E-02  0.1173122E+00
         21   -1    0    0  503  502  0.00000000000E+00  0.00000000000E+00  0.10273746662E+04  0.10273746662E+04  0.00000000000E+00 0. -1.
         21   -1    0    0  501  503 -0.00000000000E+00 -0.00000000000E+00 -0.31034800745E+02  0.31034800745E+02  0.00000000000E+00 0. -1.
          6    1    1    2  501    0 -0.80507989645E-01  0.30090061923E+02  0.38747847817E+03  0.42500469333E+03  0.17200000000E+03 0. -1.
         -6    1    1    2    0  502  0.80507989645E-01 -0.30090061923E+02  0.60886138724E+03  0.63340477357E+03  0.17200000000E+03 0. -1.
<mgrwt>
<rscale>  2 0.17461219E+03</rscale>
<asrwt>0</asrwt>
<pdfrwt beam="1">  1       21 0.25684355E+00 0.17461219E+03</pdfrwt>
<pdfrwt beam="2">  1       21 0.77587036E-02 0.17461219E+03</pdfrwt>
<totfact> 0.78187985E+03</totfact>
</mgrwt>
</event>
<event>
 4    1  0.1100959E+000  0.2873493E+03  0.7546771E-02  0.1091741E+00
         21   -1    0    0  501  502  0.00000000000E+00  0.00000000000E+00  0.26326656432E+03  0.26326656432E+03  0.00000000000E+00 0. -1.
         21   -1    0    0  502  503 -0.00000000000E+00 -0.00000000000E+00 -0.63994266137E+03  0.63994266137E+03  0.00000000000E+00 0.  1.
          6    1    1    2  501    0  0.23018232914E+03  0.12993395922E+01 -0.51081710426E+03  0.58609189291E+03  0.17200000000E+03 0.  1.
         -6    1    1    2    0  503 -0.23018232914E+03 -0.12993395922E+01  0.13414100721E+03  0.31711733277E+03  0.17200000000E+03 0. -1.
<mgrwt>
<rscale>  2 0.28734925E+03</rscale>
<asrwt>0</asrwt>
<pdfrwt beam="1">  1       21 0.65816642E-01 0.28734925E+03</pdfrwt>
<pdfrwt beam="2">  1       21 0.15998566E+00 0.28734925E+03</pdfrwt>
<totfact> 0.48814540E+02</totfact>
</mgrwt>
</event>
<event>
 4    1  0.1100959E+000  0.2090575E+03  0.7546771E-02  0.1142315E+00
         21   -1    0    0  501  502  0.00000000000E+00  0.00000000000E+00  0.35051487570E+03  0.35051487570E+03  0.00000000000E+00 0. -1.
         21   -1    0    0  502  503 -0.00000000000E+00 -0.00000000000E+00 -0.13379574982E+03  0.13379574982E+03  0.00000000000E+00 0. -1.
          6    1    1    2  501    0 -0.62247646321E+02  0.10122391955E+03  0.45180262141E+02  0.21388386439E+03  0.17200000000E+03 0. -1.
         -6    1    1    2    0  503  0.62247646321E+02 -0.10122391955E+03  0.17153886374E+03  0.27042676113E+03  0.17200000000E+03 0. -1.
<mgrwt>
<rscale>  2 0.20905753E+03</rscale>
<asrwt>0</asrwt>
<pdfrwt beam="1">  1       21 0.87628717E-01 0.20905753E+03</pdfrwt>
<pdfrwt beam="2">  1       21 0.33448938E-01 0.20905753E+03</pdfrwt>
<totfact> 0.95091356E+03</totfact>
</mgrwt>
</event>
<event>
 4    1  0.1100959E+000  0.1994489E+03  0.7546771E-02  0.1150205E+00
         21   -1    0    0  501  502  0.00000000000E+00  0.00000000000E+00  0.30947243827E+02  0.30947243827E+02  0.00000000000E+00 0.  1.
         21   -1    0    0  502  503 -0.00000000000E+00 -0.00000000000E+00 -0.16658897510E+04  0.16658897510E+04  0.00000000000E+00 0.  1.
          6    1    1    2  501    0 -0.86851096169E+02  0.51504692249E+02 -0.41200594204E+03  0.45774309663E+03  0.17200000000E+03 0.  1.
         -6    1    1    2    0  503  0.86851096169E+02 -0.51504692249E+02 -0.12229365652E+04  0.12390938982E+04  0.17200000000E+03 0.  1.
<mgrwt>
<rscale>  2 0.19944886E+03</rscale>
<asrwt>0</asrwt>
<pdfrwt beam="1">  1       21 0.77368115E-02 0.19944886E+03</pdfrwt>
<pdfrwt beam="2">  1       21 0.41647241E+00 0.19944886E+03</pdfrwt>
<totfact> 0.86395864E+02</totfact>
</mgrwt>
</event>
<event>
 4    1  0.1100959E+000  0.4350509E+03  0.7546771E-02  0.1032276E+00
         21   -1    0    0  503  502  0.00000000000E+00  0.00000000000E+00  0.31079787921E+03  0.31079787921E+03  0.00000000000E+00 0. -1.
         21   -1    0    0  501  503 -0.00000000000E+00 -0.00000000000E+00 -0.63629143079E+03  0.63629143079E+03  0.00000000000E+00 0.  1.
          6    1    1    2  501    0  0.39274893265E+03 -0.73712664662E+02 -0.26085731296E+03  0.50726306662E+03  0.17200000000E+03 0.  1.
         -6    1    1    2    0  502 -0.39274893265E+03  0.73712664662E+02 -0.64636238622E+02  0.43982624339E+03  0.17200000000E+03 0. -1.
<mgrwt>
<rscale>  2 0.43505089E+03</rscale>
<asrwt>0</asrwt>
<pdfrwt beam="1">  1       21 0.77699471E-01 0.43505089E+03</pdfrwt>
<pdfrwt beam="2">  1       21 0.15907286E+00 0.43505089E+03</pdfrwt>
<totfact> 0.31145366E+02</totfact>
</mgrwt>
</event>
<event>
 4    1  0.1100959E+000  0.1895013E+03  0.7546771E-02  0.1158912E+00
         21   -1    0    0  503  502  0.00000000000E+00  0.00000000000E+00  0.80039753574E+03  0.80039753574E+03  0.00000000000E+00 0. -1.
         21   -1    0    0  501  503 -0.00000000000E+00 -0.00000000000E+00 -0.61351107127E+02  0.61351107127E+02  0.00000000000E+00 0. -1.
          6    1    1    2  501    0 -0.70178754619E+02  0.37439122727E+02  0.14617448177E+03  0.23932765121E+03  0.17200000000E+03 0. -1.
         -6    1    1    2    0  502  0.70178754619E+02 -0.37439122727E+02  0.59287194684E+03  0.62242099166E+03  0.17200000000E+03 0. -1.
<mgrwt>
<rscale>  2 0.18950131E+03</rscale>
<asrwt>0</asrwt>
<pdfrwt beam="1">  1       21 0.20009935E+00 0.18950131E+03</pdfrwt>
<pdfrwt beam="2">  1       21 0.15337779E-01 0.18950131E+03</pdfrwt>
<totfact> 0.50651375E+03</totfact>
</mgrwt>
</event>
<event>
 4    1  0.1100959E+000  0.2450131E+03  0.7546771E-02  0.1116498E+00
         21   -1    0    0  503  502  0.00000000000E+00  0.00000000000E+00  0.90043811870E+03  0.90043811870E+03  0.00000000000E+00 0.  1.
         21   -1    0    0  501  503 -0.00000000000E+00 -0.00000000000E+00 -0.67139351009E+02  0.67139351009E+02  0.00000000000E+00 0. -1.
          6    1    1    2  501    0 -0.13420077193E+03 -0.11152396134E+03  0.37616286583E+03  0.44892086471E+03  0.17200000000E+03 0.  1.
         -6    1    1    2    0  502  0.13420077193E+03  0.11152396134E+03  0.45713590186E+03  0.51865660500E+03  0.17200000000E+03 0.  1.
<mgrwt>
<rscale>  2 0.24501314E+03</rscale>
<asrwt>0</asrwt>
<pdfrwt beam="1">  1       21 0.22510949E+00 0.24501314E+03</pdfrwt>
<pdfrwt beam="2">  1       21 0.16784841E-01 0.24501314E+03</pdfrwt>
<totfact> 0.28459126E+03</totfact>
</mgrwt>
</event>
<event>
 4    1  0.1100959E+000  0.1742392E+03  0.7546771E-02  0.1173498E+00
         21   -1    0    0  501  502  0.00000000000E+00  0.00000000000E+00  0.25375357226E+02  0.25375357226E+02  0.00000000000E+00 0.  1.
         21   -1    0    0  502  503 -0.00000000000E+00 -0.00000000000E+00 -0.14598312751E+04  0.14598312751E+04  0.00000000000E+00 0.  1.
          6    1    1    2  501    0  0.27632603633E+02 -0.34256641222E+01 -0.40177680594E+03  0.43793138475E+03  0.17200000000E+03 0. -1.
         -6    1    1    2    0  503 -0.27632603633E+02  0.34256641222E+01 -0.10326791119E+04  0.10472752476E+04  0.17200000000E+03 0. -1.
<mgrwt>
<rscale>  2 0.17423919E+03</rscale>
<asrwt>0</asrwt>
<pdfrwt beam="1">  1       21 0.63438394E-02 0.17423919E+03</pdfrwt>
<pdfrwt beam="2">  1       21 0.36495782E+00 0.17423919E+03</pdfrwt>
<totfact> 0.26231201E+03</totfact>
</mgrwt>
</event>
<event>
 4    1  0.1100959E+000  0.2026355E+03  0.7546771E-02  0.1147534E+00
         21   -1    0    0  503  502  0.00000000000E+00  0.00000000000E+00  0.42172250665E+03  0.42172250665E+03  0.00000000000E+00 0.  1.
         21   -1    0    0  501  503 -0.00000000000E+00 -0.00000000000E+00 -0.10258773600E+03  0.10258773600E+03  0.00000000000E+00 0.  1.
          6    1    1    2  501    0 -0.99434288736E+02 -0.39874479784E+02  0.21871617360E+03  0.29815753639E+03  0.17200000000E+03 0.  1.
         -6    1    1    2    0  502  0.99434288736E+02  0.39874479784E+02  0.10041859705E+03  0.22615270626E+03  0.17200000000E+03 0.  1.
<mgrwt>
<rscale>  2 0.20263551E+03</rscale>
<asrwt>0</asrwt>
<pdfrwt beam="1">  1       21 0.10543062E+00 0.20263551E+03</pdfrwt>
<pdfrwt beam="2">  1       21 0.25646935E-01 0.20263551E+03</pdfrwt>
<totfact> 0.10362625E+04</totfact>
</mgrwt>
</event>
<event>
 4    1  0.1100959E+000  0.2232449E+03  0.7546771E-02  0.1131487E+00
         21   -1    0    0  501  502  0.00000000000E+00  0.00000000000E+00  0.79084804407E+02  0.79084804407E+02  0.00000000000E+00 0. -1.
         21   -1    0    0  502  503 -0.00000000000E+00 -0.00000000000E+00 -0.10799780841E+04  0.10799780841E+04  0.00000000000E+00 0. -1.
          6    1    1    2  501    0 -0.81263575111E+02  0.11683547202E+03 -0.12644417593E+03  0.25656661082E+03  0.17200000000E+03 0. -1.
         -6    1    1    2    0  503  0.81263575111E+02 -0.11683547202E+03 -0.87444910377E+03  0.90249627769E+03  0.17200000000E+03 0. -1.
<mgrwt>
<rscale>  2 0.22324492E+03</rscale>
<asrwt>0</asrwt>
<pdfrwt beam="1">  1       21 0.19771201E-01 0.22324492E+03</pdfrwt>
<pdfrwt beam="2">  1       21 0.26999452E+00 0.22324492E+03</pdfrwt>
<totfact> 0.11561890E+03</totfact>
</mgrwt>
</event>
<event>
 4    1  0.1100959E+000  0.1856337E+03  0.7546771E-02  0.1162459E+00
         21   -1    0    0  503  502  0.00000000000E+00  0.00000000000E+00  0.19676579511E+03  0.19676579511E+03  0.00000000000E+00 0.  1.
         21   -1    0    0  501  503 -0.00000000000E+00 -0.00000000000E+00 -0.17728263695E+03  0.17728263695E+03  0.00000000000E+00 0.  1.
          6    1    1    2  501    0  0.48332456527E+02  0.50396790745E+02  0.30343707830E+02  0.18809732448E+03  0.17200000000E+03 0.  1.
         -6    1    1    2    0  502 -0.48332456527E+02 -0.50396790745E+02 -0.10860549673E+02  0.18595110758E+03  0.17200000000E+03 0.  1.
<mgrwt>
<rscale>  2 0.18563368E+03</rscale>
<asrwt>0</asrwt>
<pdfrwt beam="1">  1       21 0.49191449E-01 0.18563368E+03</pdfrwt>
<pdfrwt beam="2">  1       21 0.44320659E-01 0.18563368E+03</pdfrwt>
<totfact> 0.19352747E+04</totfact>
</mgrwt>
</event>
<event>
 4    1  0.1100959E+000  0.2174150E+03  0.7546771E-02  0.1135825E+00
         21   -1    0    0  503  502  0.00000000000E+00  0.00000000000E+00  0.43364038335E+03  0.43364038335E+03  0.00000000000E+00 0. -1.
         21   -1    0    0  501  503 -0.00000000000E+00 -0.00000000000E+00 -0.10902185244E+03  0.10902185244E+03  0.00000000000E+00 0.  1.
          6    1    1    2  501    0 -0.58181074237E+02 -0.11958359910E+03  0.15900686502E+03  0.26935563424E+03  0.17200000000E+03 0. -1.
         -6    1    1    2    0  502  0.58181074237E+02  0.11958359910E+03  0.16561166589E+03  0.27330660155E+03  0.17200000000E+03 0. -1.
<mgrwt>
<rscale>  2 0.21741498E+03</rscale>
<asrwt>0</asrwt>
<pdfrwt beam="1">  1       21 0.10841009E+00 0.21741498E+03</pdfrwt>
<pdfrwt beam="2">  1       21 0.27255464E-01 0.21741498E+03</pdfrwt>
<totfact> 0.85309381E+03</totfact>
</mgrwt>
</event>
<event>
 4    1  0.1100959E+000  0.2354829E+03  0.7546771E-02  0.1122839E+00
         21   -1    0    0  501  502  0.00000000000E+00  0.00000000000E+00  0.32418075558E+03  0.32418075558E+03  0.00000000000E+00 0. -1.
         21   -1    0    0  502  503 -0.00000000000E+00 -0.00000000000E+00 -0.19991503445E+03  0.19991503445E+03  0.00000000000E+00 0. -1.
          6    1    1    2  501    0 -0.60372672066E+01  0.16072251301E+03  0.16170078825E+03  0.28565594639E+03  0.17200000000E+03 0. -1.
         -6    1    1    2    0  503  0.60372672066E+01 -0.16072251301E+03 -0.37435067128E+02  0.23843984364E+03  0.17200000000E+03 0. -1.
<mgrwt>
<rscale>  2 0.23548285E+03</rscale>
<asrwt>0</asrwt>
<pdfrwt beam="1">  1       21 0.81045188E-01 0.23548285E+03</pdfrwt>
<pdfrwt beam="2">  1       21 0.49978759E-01 0.23548285E+03</pdfrwt>
<totfact> 0.49364619E+03</totfact>
</mgrwt>
</event>
<event>
 4    1  0.1100959E+000  0.1924225E+03  0.7546771E-02  0.1156294E+00
         21   -1    0    0  501  502  0.00000000000E+00  0.00000000000E+00  0.31257548160E+03  0.31257548160E+03  0.00000000000E+00 0. -1.
         21   -1    0    0  502  503 -0.00000000000E+00 -0.00000000000E+00 -0.15285980689E+03  0.15285980689E+03  0.00000000000E+00 0. -1.
          6    1    1    2  501    0 -0.66865080019E+02 -0.54511165181E+02  0.19026229788E+03  0.27060330384E+03  0.17200000000E+03 0. -1.
         -6    1    1    2    0  503  0.66865080019E+02  0.54511165181E+02 -0.30546623167E+02  0.19483198465E+03  0.17200000000E+03 0. -1.
<mgrwt>
<rscale>  2 0.19242247E+03</rscale>
<asrwt>0</asrwt>
<pdfrwt beam="1">  1       21 0.78143869E-01 0.19242247E+03</pdfrwt>
<pdfrwt beam="2">  1       21 0.38214952E-01 0.19242247E+03</pdfrwt>
<totfact> 0.95779243E+03</totfact>
</mgrwt>
</event>
<event>
 4    1  0.1100959E+000  0.2038682E+03  0.7546771E-02  0.1146516E+00
         21   -1    0    0  501  502  0.00000000000E+00  0.00000000000E+00  0.35479075009E+02  0.35479075009E+02  0.00000000000E+00 0. -1.
         21   -1    0    0  502  503 -0.00000000000E+00 -0.00000000000E+00 -0.12822633406E+04  0.12822633406E+04  0.00000000000E+00 0. -1.
          6    1    1    2  501    0  0.11443749033E+01 -0.10943914626E+03 -0.42970854950E+03  0.47561715049E+03  0.17200000000E+03 0. -1.
         -6    1    1    2    0  503 -0.11443749033E+01  0.10943914626E+03 -0.81707571614E+03  0.84212526516E+03  0.17200000000E+03 0. -1.
<mgrwt>
<rscale>  2 0.20386818E+03</rscale>
<asrwt>0</asrwt>
<pdfrwt beam="1">  1       21 0.88697692E-02 0.20386818E+03</pdfrwt>
<pdfrwt beam="2">  1       21 0.32056582E+00 0.20386818E+03</pdfrwt>
<totfact> 0.25668426E+03</totfact>
</mgrwt>
</event>
<event>
 4    1  0.1100959E+000  0.2049469E+03  0.7546771E-02  0.1145631E+00
         21   -1    0    0  501  502  0.00000000000E+00  0.00000000000E+00  0.30265645726E+03  0.30265645726E+03  0.00000000000E+00 0.  1.
         21   -1    0    0  502  503 -0.00000000000E+00 -0.00000000000E+00 -0.21244642977E+03  0.21244642977E+03  0.00000000000E+00 0.  1.
          6    1    1    2  501    0 -0.85487799567E+02 -0.71491835337E+02  0.19676408789E+03  0.28411151451E+03  0.17200000000E+03 0.  1.
         -6    1    1    2    0  503  0.85487799567E+02  0.71491835337E+02 -0.10655406039E+03  0.23099137252E+03  0.17200000000E+03 0.  1.
<mgrwt>
<rscale>  2 0.20494694E+03</rscale>
<asrwt>0</asrwt>
<pdfrwt beam="1">  1       21 0.75664114E-01 0.20494694E+03</pdfrwt>
<pdfrwt beam="2">  1       21 0.53111608E-01 0.20494694E+03</pdfrwt>
<totfact> 0.51850531E+03</totfact>
</mgrwt>
</event>
<event>
 4    1  0.1100959E+000  0.2236390E+03  0.7546771E-02  0.1131199E+00
         21   -1    0    0  503  502  0.00000000000E+00  0.00000000000E+00  0.38331628037E+03  0.38331628037E+03  0.00000000000E+00 0. -1.
         21   -1    0    0  501  503 -0.00000000000E+00 -0.00000000000E+00 -0.31207670455E+03  0.31207670455E+03  0.00000000000E+00 0. -1.
          6    1    1    2  501    0  0.64334291518E+02 -0.12763820824E+03 -0.22961212866E+03  0.32052479295E+03  0.17200000000E+03 0. -1.
         -6    1    1    2    0  502 -0.64334291518E+02  0.12763820824E+03  0.30085170448E+03  0.37486819197E+03  0.17200000000E+03 0. -1.
<mgrwt>
<rscale>  2 0.22363902E+03</rscale>
<asrwt>0</asrwt>
<pdfrwt beam="1">  1       21 0.95829070E-01 0.22363902E+03</pdfrwt>
<pdfrwt beam="2">  1       21 0.78019176E-01 0.22363902E+03</pdfrwt>
<totfact> 0.12837539E+03</totfact>
</mgrwt>
</event>
<event>
 4    1  0.1100959E+000  0.2117902E+03  0.7546771E-02  0.1140156E+00
         21   -1    0    0  503  502  0.00000000000E+00  0.00000000000E+00  0.19845547876E+03  0.19845547876E+03  0.00000000000E+00 0.  1.
         21   -1    0    0  501  503 -0.00000000000E+00 -0.00000000000E+00 -0.29228699511E+03  0.29228699511E+03  0.00000000000E+00 0. -1.
          6    1    1    2  501    0 -0.10999339417E+03 -0.56325361708E+02 -0.16374847520E+03  0.26771002272E+03  0.17200000000E+03 0. -1.
         -6    1    1    2    0  502  0.10999339417E+03  0.56325361708E+02  0.69916958853E+02  0.22303245115E+03  0.17200000000E+03 0.  1.
<mgrwt>
<rscale>  2 0.21179021E+03</rscale>
<asrwt>0</asrwt>
<pdfrwt beam="1">  1       21 0.49613870E-01 0.21179021E+03</pdfrwt>
<pdfrwt beam="2">  1       21 0.73071748E-01 0.21179021E+03</pdfrwt>
<totfact> 0.64336233E+03</totfact>
</mgrwt>
</event>
<event>
 4    1  0.1100959E+000  0.1930769E+03  0.7546771E-02  0.1155715E+00
         21   -1    0    0  501  502  0.00000000000E+00  0.00000000000E+00  0.13392746904E+03  0.13392746904E+03  0.00000000000E+00 0.  1.
         21   -1    0    0  502  503 -0.00000000000E+00 -0.00000000000E+00 -0.31219824861E+03  0.31219824861E+03  0.00000000000E+00 0.  1.
          6    1    1    2  501    0 -0.74188545296E+02 -0.46805569723E+02 -0.15687286705E+02  0.19371317089E+03  0.17200000000E+03 0. -1.
         -6    1    1    2    0  503  0.74188545296E+02  0.46805569723E+02 -0.16258349286E+03  0.25241254676E+03  0.17200000000E+03 0. -1.
<mgrwt>
<rscale>  2 0.19307693E+03</rscale>
<asrwt>0</asrwt>
<pdfrwt beam="1">  1       21 0.33481868E-01 0.19307693E+03</pdfrwt>
<pdfrwt beam="2">  1       21 0.78049562E-01 0.19307693E+03</pdfrwt>
<totfact> 0.12489868E+04</totfact>
</mgrwt>
</event>
<event>
 4    1  0.1100959E+000  0.3298118E+03  0.7546771E-02  0.1071220E+00
         21   -1    0    0  503  502  0.00000000000E+00  0.00000000000E+00  0.17080287845E+03  0.17080287845E+03  0.00000000000E+00 0.  1.
         21   -1    0    0  501  503 -0.00000000000E+00 -0.00000000000E+00 -0.11318215547E+04  0.11318215547E+04  0.00000000000E+00 0.  1.
          6    1    1    2  501    0  0.18929290818E+03  0.20823074941E+03 -0.91122460904E+03  0.96907488782E+03  0.17200000000E+03 0.  1.
         -6    1    1    2    0  502 -0.18929290818E+03 -0.20823074941E+03 -0.49794067256E+02  0.33354954538E+03  0.17200000000E+03 0.  1.
<mgrwt>
<rscale>  2 0.32981184E+03</rscale>
<asrwt>0</asrwt>
<pdfrwt beam="1">  1       21 0.42700721E-01 0.32981184E+03</pdfrwt>
<pdfrwt beam="2">  1       21 0.28295538E+00 0.32981184E+03</pdfrwt>
<totfact> 0.19331562E+02</totfact>
</mgrwt>
</event>
<event>
 4    1  0.1100959E+000  0.1773733E+03  0.7546771E-02  0.1170370E+00
         21   -1    0    0  501  502  0.00000000000E+00  0.00000000000E+00  0.24917533943E+03  0.24917533943E+03  0.00000000000E+00 0.  1.
         21   -1    0    0  502  503 -0.00000000000E+00 -0.00000000000E+00 -0.16125002517E+03  0.16125002517E+03  0.00000000000E+00 0.  1.
          6    1    1    2  501    0 -0.41094812878E+02  0.13730094486E+02  0.13955342463E+03  0.22569106643E+03  0.17200000000E+03 0.  1.
         -6    1    1    2    0  503  0.41094812878E+02 -0.13730094486E+02 -0.51628110362E+02  0.18473429817E+03  0.17200000000E+03 0.  1.
<mgrwt>
<rscale>  2 0.17737333E+03</rscale>
<asrwt>0</asrwt>
<pdfrwt beam="1">  1       21 0.62293834E-01 0.17737333E+03</pdfrwt>
<pdfrwt beam="2">  1       21 0.40312507E-01 0.17737333E+03</pdfrwt>
<totfact> 0.14312704E+04</totfact>
</mgrwt>
</event>
<event>
 4    1  0.1100959E+000  0.1902404E+03  0.7546771E-02  0.1158245E+00
         21   -1    0    0  503  502  0.00000000000E+00  0.00000000000E+00  0.73006624706E+03  0.73006624706E+03  0.00000000000E+00 0.  1.
         21   -1    0    0  501  503 -0.00000000000E+00 -0.00000000000E+00 -0.96048627935E+02  0.96048627935E+02  0.00000000000E+00 0.  1.
          6    1    1    2  501    0  0.81124195181E+02 -0.51276343193E+01  0.29680489406E+02  0.19254183735E+03  0.17200000000E+03 0.  1.
         -6    1    1    2    0  502 -0.81124195181E+02  0.51276343193E+01  0.60433712972E+03  0.63357303765E+03  0.17200000000E+03 0.  1.
<mgrwt>
<rscale>  2 0.19024045E+03</rscale>
<asrwt>0</asrwt>
<pdfrwt beam="1">  1       21 0.18251655E+00 0.19024045E+03</pdfrwt>
<pdfrwt beam="2">  1       21 0.24012159E-01 0.19024045E+03</pdfrwt>
<totfact> 0.28683066E+03</totfact>
</mgrwt>
</event>
<event>
 4    1  0.1100959E+000  0.1800189E+03  0.7546771E-02  0.1167785E+00
         21   -1    0    0  501  502  0.00000000000E+00  0.00000000000E+00  0.17247980060E+03  0.17247980060E+03  0.00000000000E+00 0. -1.
         21   -1    0    0  502  503 -0.00000000000E+00 -0.00000000000E+00 -0.29893758751E+03  0.29893758751E+03  0.00000000000E+00 0. -1.
          6    1    1    2  501    0  0.52731805696E+02 -0.64943128526E+01  0.80433981973E+02  0.19717110561E+03  0.17200000000E+03 0. -1.
         -6    1    1    2    0  503 -0.52731805696E+02  0.64943128526E+01 -0.20689176889E+03  0.27424628250E+03  0.17200000000E+03 0. -1.
<mgrwt>
<rscale>  2 0.18001894E+03</rscale>
<asrwt>0</asrwt>
<pdfrwt beam="1">  1       21 0.43119951E-01 0.18001894E+03</pdfrwt>
<pdfrwt beam="2">  1       21 0.74734396E-01 0.18001894E+03</pdfrwt>
<totfact> 0.83633359E+03</totfact>
</mgrwt>
</event>
<event>
 4    1  0.1100959E+000  0.2318958E+03  0.7546771E-02  0.1125312E+00
         21   -1    0    0  503  502  0.00000000000E+00  0.00000000000E+00  0.59243101497E+03  0.59243101497E+03  0.00000000000E+00 0. -1.
         21   -1    0    0  501  503 -0.00000000000E+00 -0.00000000000E+00 -0.15417963414E+03  0.15417963414E+03  0.00000000000E+00 0.  1.
          6    1    1    2  501    0 -0.98123674675E+02 -0.12067898908E+03 -0.20274336287E+02  0.23278041724E+03  0.17200000000E+03 0. -1.
         -6    1    1    2    0  502  0.98123674675E+02  0.12067898908E+03  0.45852571711E+03  0.51383023187E+03  0.17200000000E+03 0. -1.
<mgrwt>
<rscale>  2 0.23189583E+03</rscale>
<asrwt>0</asrwt>
<pdfrwt beam="1">  1       21 0.14810775E+00 0.23189583E+03</pdfrwt>
<pdfrwt beam="2">  1       21 0.38544910E-01 0.23189583E+03</pdfrwt>
<totfact> 0.19364357E+03</totfact>
</mgrwt>
</event>
<event>
 4    1  0.1100959E+000  0.2202639E+03  0.7546771E-02  0.1133686E+00
         21   -1    0    0  501  502  0.00000000000E+00  0.00000000000E+00  0.23843139300E+03  0.23843139300E+03  0.00000000000E+00 0. -1.
         21   -1    0    0  502  503 -0.00000000000E+00 -0.00000000000E+00 -0.21187932305E+03  0.21187932305E+03  0.00000000000E+00 0. -1.
          6    1    1    2  501    0  0.46378581538E+02 -0.12954228729E+03  0.58103388205E+02  0.22779855299E+03  0.17200000000E+03 0. -1.
         -6    1    1    2    0  503 -0.46378581538E+02  0.12954228729E+03 -0.31551318255E+02  0.22251216305E+03  0.17200000000E+03 0. -1.
<mgrwt>
<rscale>  2 0.22026388E+03</rscale>
<asrwt>0</asrwt>
<pdfrwt beam="1">  1       21 0.59607848E-01 0.22026388E+03</pdfrwt>
<pdfrwt beam="2">  1       21 0.52969831E-01 0.22026388E+03</pdfrwt>
<totfact> 0.87080575E+03</totfact>
</mgrwt>
</event>
<event>
 4    1  0.1100959E+000  0.1809836E+03  0.7546771E-02  0.1166854E+00
         21   -1    0    0  503  502  0.00000000000E+00  0.00000000000E+00  0.12700193078E+03  0.12700193078E+03  0.00000000000E+00 0.  1.
         21   -1    0    0  501  503 -0.00000000000E+00 -0.00000000000E+00 -0.57409353750E+03  0.57409353750E+03  0.00000000000E+00 0.  1.
          6    1    1    2  501    0  0.46183086316E+02 -0.32220931848E+02 -0.48369678765E+03  0.51644713989E+03  0.17200000000E+03 0.  1.
         -6    1    1    2    0  502 -0.46183086316E+02  0.32220931848E+02  0.36605180930E+02  0.18464832840E+03  0.17200000000E+03 0.  1.
<mgrwt>
<rscale>  2 0.18098361E+03</rscale>
<asrwt>0</asrwt>
<pdfrwt beam="1">  1       21 0.31750483E-01 0.18098361E+03</pdfrwt>
<pdfrwt beam="2">  1       21 0.14352338E+00 0.18098361E+03</pdfrwt>
<totfact> 0.32339154E+03</totfact>
</mgrwt>
</event>
<event>
 4    1  0.1100959E+000  0.1795767E+03  0.7546771E-02  0.1168213E+00
         21   -1    0    0  501  502  0.00000000000E+00  0.00000000000E+00  0.19222535705E+03  0.19222535705E+03  0.00000000000E+00 0. -1.
         21   -1    0    0  502  503 -0.00000000000E+00 -0.00000000000E+00 -0.17254540258E+03  0.17254540258E+03  0.00000000000E+00 0. -1.
          6    1    1    2  501    0 -0.48373403496E+01  0.51384821287E+02 -0.20532494647E+02  0.18074673733E+03  0.17200000000E+03 0. -1.
         -6    1    1    2    0  503  0.48373403496E+01 -0.51384821287E+02  0.40212449115E+02  0.18402402230E+03  0.17200000000E+03 0. -1.
<mgrwt>
<rscale>  2 0.17957672E+03</rscale>
<asrwt>0</asrwt>
<pdfrwt beam="1">  1       21 0.48056339E-01 0.17957672E+03</pdfrwt>
<pdfrwt beam="2">  1       21 0.43136351E-01 0.17957672E+03</pdfrwt>
<totfact> 0.21546120E+04</totfact>
</mgrwt>
</event>
<event>
 4    1  0.1100959E+000  0.1948150E+03  0.7546771E-02  0.1154189E+00
         21   -1    0    0  501  502  0.00000000000E+00  0.00000000000E+00  0.92620947978E+02  0.92620947978E+02  0.00000000000E+00 0. -1.
         21   -1    0    0  502  503 -0.00000000000E+00 -0.00000000000E+00 -0.43764102037E+03  0.43764102037E+03  0.00000000000E+00 0. -1.
          6    1    1    2  501    0 -0.77751259284E+02 -0.48204171444E+02 -0.10559706368E+03  0.22159341218E+03  0.17200000000E+03 0. -1.
         -6    1    1    2    0  503  0.77751259284E+02  0.48204171444E+02 -0.23942300872E+03  0.30866855617E+03  0.17200000000E+03 0. -1.
<mgrwt>
<rscale>  2 0.19481504E+03</rscale>
<asrwt>0</asrwt>
<pdfrwt beam="1">  1       21 0.23155237E-01 0.19481504E+03</pdfrwt>
<pdfrwt beam="2">  1       21 0.10941025E+00 0.19481504E+03</pdfrwt>
<totfact> 0.11577641E+04</totfact>
</mgrwt>
</event>
<event>
 4    1  0.1100959E+000  0.2086324E+03  0.7546771E-02  0.1142654E+00
         21   -1    0    0  501  502  0.00000000000E+00  0.00000000000E+00  0.11962720016E+03  0.11962720016E+03  0.00000000000E+00 0.  1.
         21   -1    0    0  502  503 -0.00000000000E+00 -0.00000000000E+00 -0.44297737993E+03  0.44297737993E+03  0.00000000000E+00 0.  1.
          6    1    1    2  501    0  0.94262578266E+01 -0.11770567762E+03 -0.42791996582E+02  0.21297566962E+03  0.17200000000E+03 0.  1.
         -6    1    1    2    0  503 -0.94262578266E+01  0.11770567762E+03 -0.28055818319E+03  0.34962891046E+03  0.17200000000E+03 0.  1.
<mgrwt>
<rscale>  2 0.20863241E+03</rscale>
<asrwt>0</asrwt>
<pdfrwt beam="1">  1       21 0.29906800E-01 0.20863241E+03</pdfrwt>
<pdfrwt beam="2">  1       21 0.11074434E+00 0.20863241E+03</pdfrwt>
<totfact> 0.68062014E+03</totfact>
</mgrwt>
</event>
<event>
 4    1  0.1100959E+000  0.2377326E+03  0.7546771E-02  0.1121313E+00
         21   -1    0    0  501  502  0.00000000000E+00  0.00000000000E+00  0.69299584787E+03  0.69299584787E+03  0.00000000000E+00 0.  1.
         21   -1    0    0  502  503 -0.00000000000E+00 -0.00000000000E+00 -0.20995815140E+03  0.20995815140E+03  0.00000000000E+00 0. -1.
          6    1    1    2  501    0 -0.15399498725E+03  0.56730413925E+02  0.59458678021E+03  0.64035164961E+03  0.17200000000E+03 0.  1.
         -6    1    1    2    0  503  0.15399498725E+03 -0.56730413925E+02 -0.11154908373E+03  0.26260234965E+03  0.17200000000E+03 0. -1.
<mgrwt>
<rscale>  2 0.23773261E+03</rscale>
<asrwt>0</asrwt>
<pdfrwt beam="1">  1       21 0.17324896E+00 0.23773261E+03</pdfrwt>
<pdfrwt beam="2">  1       21 0.52489539E-01 0.23773261E+03</pdfrwt>
<totfact> 0.66518651E+02</totfact>
</mgrwt>
</event>
<event>
 4    1  0.1100959E+000  0.1733240E+03  0.7546771E-02  0.1174425E+00
         21   -1    0    0  501  502  0.00000000000E+00  0.00000000000E+00  0.85518607809E+02  0.85518607809E+02  0.00000000000E+00 0. -1.
         21   -1    0    0  502  503 -0.00000000000E+00 -0.00000000000E+00 -0.63778814255E+03  0.63778814255E+03  0.00000000000E+00 0. -1.
          6    1    1    2  501    0 -0.28874848184E+01 -0.21186945343E+02 -0.33741478298E+02  0.17657777771E+03  0.17200000000E+03 0. -1.
         -6    1    1    2    0  503  0.28874848184E+01  0.21186945343E+02 -0.51852805645E+03  0.54672897266E+03  0.17200000000E+03 0. -1.
<mgrwt>
<rscale>  2 0.17332404E+03</rscale>
<asrwt>0</asrwt>
<pdfrwt beam="1">  1       21 0.21379652E-01 0.17332404E+03</pdfrwt>
<pdfrwt beam="2">  1       21 0.15944703E+00 0.17332404E+03</pdfrwt>
<totfact> 0.52642260E+03</totfact>
</mgrwt>
</event>
<event>
 4    1  0.1100959E+000  0.2735868E+03  0.7546771E-02  0.1099244E+00
         21   -1    0    0  503  502  0.00000000000E+00  0.00000000000E+00  0.15486343028E+04  0.15486343028E+04  0.00000000000E+00 0. -1.
         21   -1    0    0  501  503 -0.00000000000E+00 -0.00000000000E+00 -0.21843670493E+03  0.21843670493E+03  0.00000000000E+00 0.  1.
          6    1    1    2  501    0 -0.66885073680E+02  0.20197056811E+03 -0.11458485387E+03  0.29661323672E+03  0.17200000000E+03 0.  1.
         -6    1    1    2    0  502  0.66885073680E+02 -0.20197056811E+03  0.14447824517E+04  0.14704577710E+04  0.17200000000E+03 0. -1.
<mgrwt>
<rscale>  2 0.27358678E+03</rscale>
<asrwt>0</asrwt>
<pdfrwt beam="1">  1       21 0.38715854E+00 0.27358678E+03</pdfrwt>
<pdfrwt beam="2">  1       21 0.54609181E-01 0.27358678E+03</pdfrwt>
<totfact> 0.29028832E+01</totfact>
</mgrwt>
</event>
<event>
 4    1  0.1100959E+000  0.1980596E+03  0.7546771E-02  0.1151386E+00
         21   -1    0    0  501  502  0.00000000000E+00  0.00000000000E+00  0.27342040721E+03  0.27342040721E+03  0.00000000000E+00 0.  1.
         21   -1    0    0  502  503 -0.00000000000E+00 -0.00000000000E+00 -0.16830914257E+03  0.16830914257E+03  0.00000000000E+00 0. -1.
          6    1    1    2  501    0 -0.79883049685E+02 -0.57116735940E+02  0.13740351098E+03  0.24105465766E+03  0.17200000000E+03 0.  1.
         -6    1    1    2    0  503  0.79883049685E+02  0.57116735940E+02 -0.32292246339E+02  0.20067489211E+03  0.17200000000E+03 0. -1.
<mgrwt>
<rscale>  2 0.19805965E+03</rscale>
<asrwt>0</asrwt>
<pdfrwt beam="1">  1       21 0.68355101E-01 0.19805965E+03</pdfrwt>
<pdfrwt beam="2">  1       21 0.42077286E-01 0.19805965E+03</pdfrwt>
<totfact> 0.10573977E+04</totfact>
</mgrwt>
</event>
<event>
 4    1  0.1100959E+000  0.1812618E+03  0.7546771E-02  0.1166587E+00
         21   -1    0    0  503  502  0.00000000000E+00  0.00000000000E+00  0.10996526562E+03  0.10996526562E+03  0.00000000000E+00 0.  1.
         21   -1    0    0  501  503 -0.00000000000E+00 -0.00000000000E+00 -0.45076290020E+03  0.45076290020E+03  0.00000000000E+00 0.  1.
          6    1    1    2  501    0 -0.33550336542E+02 -0.46327346891E+02 -0.33319346466E+03  0.37930691141E+03  0.17200000000E+03 0.  1.
         -6    1    1    2    0  502  0.33550336542E+02  0.46327346891E+02 -0.76041699140E+01  0.18142125441E+03  0.17200000000E+03 0.  1.
<mgrwt>
<rscale>  2 0.18126182E+03</rscale>
<asrwt>0</asrwt>
<pdfrwt beam="1">  1       21 0.27491317E-01 0.18126182E+03</pdfrwt>
<pdfrwt beam="2">  1       21 0.11269072E+00 0.18126182E+03</pdfrwt>
<totfact> 0.78417804E+03</totfact>
</mgrwt>
</event>
<event>
 4    1  0.1100959E+000  0.2078988E+03  0.7546771E-02  0.1143241E+00
         21   -1    0    0  503  502  0.00000000000E+00  0.00000000000E+00  0.41135896680E+03  0.41135896680E+03  0.00000000000E+00 0.  1.
         21   -1    0    0  501  503 -0.00000000000E+00 -0.00000000000E+00 -0.12684077527E+03  0.12684077527E+03  0.00000000000E+00 0.  1.
          6    1    1    2  501    0  0.11082514886E+03  0.36819519907E+02  0.30775441310E+02  0.21016426541E+03  0.17200000000E+03 0.  1.
         -6    1    1    2    0  502 -0.11082514886E+03 -0.36819519907E+02  0.25374275022E+03  0.32803547667E+03  0.17200000000E+03 0.  1.
<mgrwt>
<rscale>  2 0.20789875E+03</rscale>
<asrwt>0</asrwt>
<pdfrwt beam="1">  1       21 0.10283974E+00 0.20789875E+03</pdfrwt>
<pdfrwt beam="2">  1       21 0.31710195E-01 0.20789875E+03</pdfrwt>
<totfact> 0.72602153E+03</totfact>
</mgrwt>
</event>
<event>
 4    1  0.1100959E+000  0.2829961E+03  0.7546771E-02  0.1094064E+00
         21   -1    0    0  501  502  0.00000000000E+00  0.00000000000E+00  0.28445081011E+03  0.28445081011E+03  0.00000000000E+00 0. -1.
         21   -1    0    0  502  503 -0.00000000000E+00 -0.00000000000E+00 -0.41341745662E+03  0.41341745662E+03  0.00000000000E+00 0. -1.
          6    1    1    2  501    0 -0.11594903108E+03  0.19250612951E+03  0.13258636088E+03  0.31251548889E+03  0.17200000000E+03 0. -1.
         -6    1    1    2    0  503  0.11594903108E+03 -0.19250612951E+03 -0.26155300739E+03  0.38535277783E+03  0.17200000000E+03 0. -1.
<mgrwt>
<rscale>  2 0.28299609E+03</rscale>
<asrwt>0</asrwt>
<pdfrwt beam="1">  1       21 0.71112703E-01 0.28299609E+03</pdfrwt>
<pdfrwt beam="2">  1       21 0.10335436E+00 0.28299609E+03</pdfrwt>
<totfact> 0.12617777E+03</totfact>
</mgrwt>
</event>
<event>
 4    1  0.1100959E+000  0.2447407E+03  0.7546771E-02  0.1116674E+00
         21   -1    0    0  503  502  0.00000000000E+00  0.00000000000E+00  0.40641285348E+03  0.40641285348E+03  0.00000000000E+00 0.  1.
         21   -1    0    0  501  503 -0.00000000000E+00 -0.00000000000E+00 -0.45684529032E+03  0.45684529032E+03  0.00000000000E+00 0. -1.
          6    1    1    2  501    0  0.11292049460E+03  0.13252544450E+03 -0.38046330286E+03  0.45238297533E+03  0.17200000000E+03 0. -1.
         -6    1    1    2    0  502 -0.11292049460E+03 -0.13252544450E+03  0.33003086602E+03  0.41087516847E+03  0.17200000000E+03 0.  1.
<mgrwt>
<rscale>  2 0.24474074E+03</rscale>
<asrwt>0</asrwt>
<pdfrwt beam="1">  1       21 0.10160321E+00 0.24474074E+03</pdfrwt>
<pdfrwt beam="2">  1       21 0.11421132E+00 0.24474074E+03</pdfrwt>
<totfact> 0.44689816E+02</totfact>
</mgrwt>
</event>
<event>
 4    1  0.1100959E+000  0.2028166E+03  0.7546771E-02  0.1147384E+00
         21   -1    0    0  503  502  0.00000000000E+00  0.00000000000E+00  0.13966879427E+03  0.13966879427E+03  0.00000000000E+00 0. -1.
         21   -1    0    0  501  503 -0.00000000000E+00 -0.00000000000E+00 -0.93527175820E+03  0.93527175820E+03  0.00000000000E+00 0. -1.
          6    1    1    2  501    0  0.38810373706E+02  0.10022132485E+03 -0.84267046690E+03  0.86673414311E+03  0.17200000000E+03 0. -1.
         -6    1    1    2    0  502 -0.38810373706E+02 -0.10022132485E+03  0.47067502963E+02  0.20820640936E+03  0.17200000000E+03 0. -1.
<mgrwt>
<rscale>  2 0.20281657E+03</rscale>
<asrwt>0</asrwt>
<pdfrwt beam="1">  1       21 0.34917199E-01 0.20281657E+03</pdfrwt>
<pdfrwt beam="2">  1       21 0.23381794E+00 0.20281657E+03</pdfrwt>
<totfact> 0.64767384E+02</totfact>
</mgrwt>
</event>
<event>
 4    1  0.1100959E+000  0.1826669E+03  0.7546771E-02  0.1165247E+00
         21   -1    0    0  503  502  0.00000000000E+00  0.00000000000E+00  0.56332759458E+03  0.56332759458E+03  0.00000000000E+00 0.  1.
         21   -1    0    0  501  503 -0.00000000000E+00 -0.00000000000E+00 -0.59470643330E+02  0.59470643330E+02  0.00000000000E+00 0. -1.
          6    1    1    2  501    0  0.47760429591E+02 -0.38757341856E+02  0.27164206838E+03  0.32734783258E+03  0.17200000000E+03 0. -1.
         -6    1    1    2    0  502 -0.47760429591E+02  0.38757341856E+02  0.23221488287E+03  0.29545040533E+03  0.17200000000E+03 0. -1.
<mgrwt>
<rscale>  2 0.18266688E+03</rscale>
<asrwt>0</asrwt>
<pdfrwt beam="1">  1       21 0.14083188E+00 0.18266688E+03</pdfrwt>
<pdfrwt beam="2">  1       21 0.14867663E-01 0.18266688E+03</pdfrwt>
<totfact> 0.14147716E+04</totfact>
</mgrwt>
</event>
<event>
 4    1  0.1100959E+000  0.2746021E+03  0.7546771E-02  0.1098674E+00
         21   -1    0    0  501  502  0.00000000000E+00  0.00000000000E+00  0.83101712494E+03  0.83101712494E+03  0.00000000000E+00 0.  1.
         21   -1    0    0  502  503 -0.00000000000E+00 -0.00000000000E+00 -0.10059042953E+03  0.10059042953E+03  0.00000000000E+00 0.  1.
          6    1    1    2  501    0  0.18847055788E+03 -0.10149468307E+03  0.51097954439E+03  0.58009173125E+03  0.17200000000E+03 0.  1.
         -6    1    1    2    0  503 -0.18847055788E+03  0.10149468307E+03  0.21944715103E+03  0.35151582322E+03  0.17200000000E+03 0.  1.
<mgrwt>
<rscale>  2 0.27460212E+03</rscale>
<asrwt>0</asrwt>
<pdfrwt beam="1">  1       21 0.20775426E+00 0.27460212E+03</pdfrwt>
<pdfrwt beam="2">  1       21 0.25147610E-01 0.27460212E+03</pdfrwt>
<totfact> 0.16663874E+03</totfact>
</mgrwt>
</event>
<event>
 4    1  0.1100959E+000  0.1763514E+03  0.7546771E-02  0.1171382E+00
         21   -1    0    0  501  502  0.00000000000E+00  0.00000000000E+00  0.60142629738E+03  0.60142629738E+03  0.00000000000E+00 0. -1.
         21   -1    0    0  502  503 -0.00000000000E+00 -0.00000000000E+00 -0.21652746041E+03  0.21652746041E+03  0.00000000000E+00 0. -1.
          6    1    1    2  501    0  0.39252433580E+01 -0.38735172508E+02  0.54926493082E+03  0.57688108424E+03  0.17200000000E+03 0. -1.
         -6    1    1    2    0  503 -0.39252433580E+01  0.38735172508E+02 -0.16436609385E+03  0.24107267355E+03  0.17200000000E+03 0. -1.
<mgrwt>
<rscale>  2 0.17635141E+03</rscale>
<asrwt>0</asrwt>
<pdfrwt beam="1">  1       21 0.15035657E+00 0.17635141E+03</pdfrwt>
<pdfrwt beam="2">  1       21 0.54131866E-01 0.17635141E+03</pdfrwt>
<totfact> 0.97543153E+02</totfact>
</mgrwt>
</event>
<event>
 4    1  0.1100959E+000  0.2086975E+03  0.7546771E-02  0.1142602E+00
         21   -1    0    0  501  502  0.00000000000E+00  0.00000000000E+00  0.13127519034E+03  0.13127519034E+03  0.00000000000E+00 0.  1.
         21   -1    0    0  502  503 -0.00000000000E+00 -0.00000000000E+00 -0.49781878883E+03  0.49781878883E+03  0.00000000000E+00 0. -1.
          6    1    1    2  501    0  0.23940594635E+02  0.11574755857E+03 -0.16144350313E+01  0.20870375125E+03  0.17200000000E+03 0. -1.
         -6    1    1    2    0  503 -0.23940594635E+02 -0.11574755857E+03 -0.36492916346E+03  0.42039022792E+03  0.17200000000E+03 0. -1.
<mgrwt>
<rscale>  2 0.20869751E+03</rscale>
<asrwt>0</asrwt>
<pdfrwt beam="1">  1       21 0.32818798E-01 0.20869751E+03</pdfrwt>
<pdfrwt beam="2">  1       21 0.12445470E+00 0.20869751E+03</pdfrwt>
<totfact> 0.42537045E+03</totfact>
</mgrwt>
</event>
<event>
 4    1  0.1100959E+000  0.2654586E+03  0.7546771E-02  0.1103907E+00
         21   -1    0    0  501  502  0.00000000000E+00  0.00000000000E+00  0.45672247559E+03  0.45672247559E+03  0.00000000000E+00 0. -1.
         21   -1    0    0  502  503 -0.00000000000E+00 -0.00000000000E+00 -0.18248937956E+03  0.18248937956E+03  0.00000000000E+00 0. -1.
          6    1    1    2  501    0 -0.89984550471E+01 -0.20199822609E+03  0.26275038373E+03  0.37350504640E+03  0.17200000000E+03 0. -1.
         -6    1    1    2    0  503  0.89984550471E+01  0.20199822609E+03  0.11482712293E+02  0.26570680875E+03  0.17200000000E+03 0. -1.
<mgrwt>
<rscale>  2 0.26545858E+03</rscale>
<asrwt>0</asrwt>
<pdfrwt beam="1">  1       21 0.11418062E+00 0.26545858E+03</pdfrwt>
<pdfrwt beam="2">  1       21 0.45622346E-01 0.26545858E+03</pdfrwt>
<totfact> 0.25986949E+03</totfact>
</mgrwt>
</event>
<event>
 4    1  0.1100959E+000  0.1922629E+03  0.7546771E-02  0.1156436E+00
         21   -1    0    0  501  502  0.00000000000E+00  0.00000000000E+00  0.18105513609E+03  0.18105513609E+03  0.00000000000E+00 0.  1.
         21   -1    0    0  502  503 -0.00000000000E+00 -0.00000000000E+00 -0.20417285993E+03  0.20417285993E+03  0.00000000000E+00 0. -1.
          6    1    1    2  501    0 -0.84907136992E+02  0.13106672149E+02 -0.12801331777E+02  0.19268855924E+03  0.17200000000E+03 0. -1.
         -6    1    1    2    0  503  0.84907136992E+02 -0.13106672149E+02 -0.10316392062E+02  0.19253943677E+03  0.17200000000E+03 0.  1.
<mgrwt>
<rscale>  2 0.19226286E+03</rscale>
<asrwt>0</asrwt>
<pdfrwt beam="1">  1       21 0.45263784E-01 0.19226286E+03</pdfrwt>
<pdfrwt beam="2">  1       21 0.51043215E-01 0.19226286E+03</pdfrwt>
<totfact> 0.17092818E+04</totfact>
</mgrwt>
</event>
<event>
 4    1  0.1100959E+000  0.2370619E+03  0.7546771E-02  0.1121766E+00
         21   -1    0    0  503  502  0.00000000000E+00  0.00000000000E+00  0.18003520598E+03  0.18003520598E+03  0.00000000000E+00 0.  1.
         21   -1    0    0  501  503 -0.00000000000E+00 -0.00000000000E+00 -0.31225228301E+03  0.31225228301E+03  0.00000000000E+00 0.  1.
          6    1    1    2  501    0  0.15488939520E+03  0.51221387003E+02 -0.61698096742E+02  0.24495920145E+03  0.17200000000E+03 0.  1.
         -6    1    1    2    0  502 -0.15488939520E+03 -0.51221387003E+02 -0.70518980290E+02  0.24732828753E+03  0.17200000000E+03 0.  1.
<mgrwt>
<rscale>  2 0.23706192E+03</rscale>
<asrwt>0</asrwt>
<pdfrwt beam="1">  1       21 0.45008802E-01 0.23706192E+03</pdfrwt>
<pdfrwt beam="2">  1       21 0.78063070E-01 0.23706192E+03</pdfrwt>
<totfact> 0.66764162E+03</totfact>
</mgrwt>
</event>
<event>
 4    1  0.1100959E+000  0.2226934E+03  0.7546771E-02  0.1131891E+00
         21   -1    0    0  503  502  0.00000000000E+00  0.00000000000E+00  0.18661194029E+03  0.18661194029E+03  0.00000000000E+00 0. -1.
         21   -1    0    0  501  503 -0.00000000000E+00 -0.00000000000E+00 -0.37927347864E+03  0.37927347864E+03  0.00000000000E+00 0. -1.
          6    1    1    2  501    0  0.59115854213E+02 -0.12850546070E+03 -0.25112790364E+03  0.33564499347E+03  0.17200000000E+03 0.  1.
         -6    1    1    2    0  502 -0.59115854213E+02  0.12850546070E+03  0.58466365290E+02  0.23024042547E+03  0.17200000000E+03 0.  1.
<mgrwt>
<rscale>  2 0.22269337E+03</rscale>
<asrwt>0</asrwt>
<pdfrwt beam="1">  1       21 0.46652986E-01 0.22269337E+03</pdfrwt>
<pdfrwt beam="2">  1       21 0.94818368E-01 0.22269337E+03</pdfrwt>
<totfact> 0.39985163E+03</totfact>
</mgrwt>
</event>
<event>
 4    1  0.1100959E+000  0.2034888E+03  0.7546771E-02  0.1146828E+00
         21   -1    0    0  501  502  0.00000000000E+00  0.00000000000E+00  0.92387018892E+02  0.92387018892E+02  0.00000000000E+00 0. -1.
         21   -1    0    0  502  503 -0.00000000000E+00 -0.00000000000E+00 -0.45318797332E+03  0.45318797332E+03  0.00000000000E+00 0. -1.
          6    1    1    2  501    0  0.94193358814E+01  0.10832807416E+03 -0.15177678228E+03  0.25385800594E+03  0.17200000000E+03 0. -1.
         -6    1    1    2    0  503 -0.94193358814E+01 -0.10832807416E+03 -0.20902417215E+03  0.29171698628E+03  0.17200000000E+03 0. -1.
<mgrwt>
<rscale>  2 0.20348881E+03</rscale>
<asrwt>0</asrwt>
<pdfrwt beam="1">  1       21 0.23096755E-01 0.20348881E+03</pdfrwt>
<pdfrwt beam="2">  1       21 0.11329699E+00 0.20348881E+03</pdfrwt>
<totfact> 0.10622996E+04</totfact>
</mgrwt>
</event>
<event>
 4    1  0.1100959E+000  0.1770024E+03  0.7546771E-02  0.1170736E+00
         21   -1    0    0  503  502  0.00000000000E+00  0.00000000000E+00  0.79155567605E+02  0.79155567605E+02  0.00000000000E+00 0. -1.
         21   -1    0    0  501  503 -0.00000000000E+00 -0.00000000000E+00 -0.46669485074E+03  0.46669485074E+03  0.00000000000E+00 0.  1.
          6    1    1    2  501    0 -0.41709197483E+02 -0.24903335686E+01 -0.30014258933E+03  0.34844717368E+03  0.17200000000E+03 0. -1.
         -6    1    1    2    0  502  0.41709197483E+02  0.24903335686E+01 -0.87396693807E+02  0.19740324467E+03  0.17200000000E+03 0. -1.
<mgrwt>
<rscale>  2 0.17700243E+03</rscale>
<asrwt>0</asrwt>
<pdfrwt beam="1">  1       21 0.19788892E-01 0.17700243E+03</pdfrwt>
<pdfrwt beam="2">  1       21 0.11667371E+00 0.17700243E+03</pdfrwt>
<totfact> 0.13469968E+04</totfact>
</mgrwt>
</event>
<event>
 4    1  0.1100959E+000  0.2351271E+03  0.7546771E-02  0.1123082E+00
         21   -1    0    0  503  502  0.00000000000E+00  0.00000000000E+00  0.11892306526E+03  0.11892306526E+03  0.00000000000E+00 0. -1.
         21   -1    0    0  501  503 -0.00000000000E+00 -0.00000000000E+00 -0.62392569948E+03  0.62392569948E+03  0.00000000000E+00 0. -1.
          6    1    1    2  501    0 -0.11025477282E+03 -0.11638148443E+03 -0.44002974638E+03  0.49890975392E+03  0.17200000000E+03 0. -1.
         -6    1    1    2    0  502  0.11025477282E+03  0.11638148443E+03 -0.64972887830E+02  0.24393901082E+03  0.17200000000E+03 0. -1.
<mgrwt>
<rscale>  2 0.23512712E+03</rscale>
<asrwt>0</asrwt>
<pdfrwt beam="1">  1       21 0.29730767E-01 0.23512712E+03</pdfrwt>
<pdfrwt beam="2">  1       21 0.15598142E+00 0.23512712E+03</pdfrwt>
<totfact> 0.28182329E+03</totfact>
</mgrwt>
</event>
<event>
 4    1  0.1100959E+000  0.2208451E+03  0.7546771E-02  0.1133255E+00
         21   -1    0    0  501  502  0.00000000000E+00  0.00000000000E+00  0.55097128486E+03  0.55097128486E+03  0.00000000000E+00 0. -1.
         21   -1    0    0  502  503 -0.00000000000E+00 -0.00000000000E+00 -0.18561185351E+03  0.18561185351E+03  0.00000000000E+00 0.  1.
          6    1    1    2  501    0 -0.42269338535E+02  0.13191619692E+03  0.44904515593E+03  0.50041396069E+03  0.17200000000E+03 0. -1.
         -6    1    1    2    0  503  0.42269338535E+02 -0.13191619692E+03 -0.83685724574E+02  0.23616917768E+03  0.17200000000E+03 0.  1.
<mgrwt>
<rscale>  2 0.22084515E+03</rscale>
<asrwt>0</asrwt>
<pdfrwt beam="1">  1       21 0.13774282E+00 0.22084515E+03</pdfrwt>
<pdfrwt beam="2">  1       21 0.46402965E-01 0.22084515E+03</pdfrwt>
<totfact> 0.16171087E+03</totfact>
</mgrwt>
</event>
<event>
 4    1  0.1100959E+000  0.1757240E+03  0.7546771E-02  0.1172007E+00
         21   -1    0    0  503  502  0.00000000000E+00  0.00000000000E+00  0.87340520058E+03  0.87340520058E+03  0.00000000000E+00 0. -1.
         21   -1    0    0  501  503 -0.00000000000E+00 -0.00000000000E+00 -0.71354327179E+02  0.71354327179E+02  0.00000000000E+00 0. -1.
          6    1    1    2  501    0 -0.23798304243E+02 -0.26991984919E+02  0.65496106517E+02  0.18753310775E+03  0.17200000000E+03 0. -1.
         -6    1    1    2    0  502  0.23798304243E+02  0.26991984919E+02  0.73655476688E+03  0.75722642001E+03  0.17200000000E+03 0. -1.
<mgrwt>
<rscale>  2 0.17572401E+03</rscale>
<asrwt>0</asrwt>
<pdfrwt beam="1">  1       21 0.21835127E+00 0.17572401E+03</pdfrwt>
<pdfrwt beam="2">  1       21 0.17838585E-01 0.17572401E+03</pdfrwt>
<totfact> 0.29931975E+03</totfact>
</mgrwt>
</event>
<event>
 4    1  0.1100959E+000  0.1833492E+03  0.7546771E-02  0.1164600E+00
         21   -1    0    0  501  502  0.00000000000E+00  0.00000000000E+00  0.47711425302E+02  0.47711425302E+02  0.00000000000E+00 0.  1.
         21   -1    0    0  502  503 -0.00000000000E+00 -0.00000000000E+00 -0.70459769102E+03  0.70459769102E+03  0.00000000000E+00 0.  1.
          6    1    1    2  501    0  0.38891950002E+01  0.63386157348E+02 -0.32978736969E+03  0.37732829206E+03  0.17200000000E+03 0.  1.
         -6    1    1    2    0  503 -0.38891950002E+01 -0.63386157348E+02 -0.32709889602E+03  0.37498082426E+03  0.17200000000E+03 0.  1.
<mgrwt>
<rscale>  2 0.18334920E+03</rscale>
<asrwt>0</asrwt>
<pdfrwt beam="1">  1       21 0.11927856E-01 0.18334920E+03</pdfrwt>
<pdfrwt beam="2">  1       21 0.17614942E+00 0.18334920E+03</pdfrwt>
<totfact> 0.11553932E+04</totfact>
</mgrwt>
</event>
<event>
 4    1  0.1100959E+000  0.2318897E+03  0.7546771E-02  0.1125317E+00
         21   -1    0    0  503  502  0.00000000000E+00  0.00000000000E+00  0.13910082231E+04  0.13910082231E+04  0.00000000000E+00 0.  1.
         21   -1    0    0  501  503 -0.00000000000E+00 -0.00000000000E+00 -0.77586677233E+02  0.77586677233E+02  0.00000000000E+00 0. -1.
          6    1    1    2  501    0 -0.14047881770E+02 -0.15489189849E+03  0.13657552508E+03  0.26912026541E+03  0.17200000000E+03 0. -1.
         -6    1    1    2    0  502  0.14047881770E+02  0.15489189849E+03  0.11768460208E+04  0.11994746350E+04  0.17200000000E+03 0.  1.
<mgrwt>
<rscale>  2 0.23188972E+03</rscale>
<asrwt>0</asrwt>
<pdfrwt beam="1">  1       21 0.34775198E+00 0.23188972E+03</pdfrwt>
<pdfrwt beam="2">  1       21 0.19396674E-01 0.23188972E+03</pdfrwt>
<totfact> 0.41646138E+02</totfact>
</mgrwt>
</event>
<event>
 4    1  0.1100959E+000  0.1888918E+03  0.7546771E-02  0.1159465E+00
         21   -1    0    0  501  502  0.00000000000E+00  0.00000000000E+00  0.26169299882E+03  0.26169299882E+03  0.00000000000E+00 0. -1.
         21   -1    0    0  502  503 -0.00000000000E+00 -0.00000000000E+00 -0.16489482619E+03  0.16489482619E+03  0.00000000000E+00 0. -1.
          6    1    1    2  501    0  0.65418235146E+02 -0.42621159956E+02  0.13715329961E+03  0.23343336600E+03  0.17200000000E+03 0. -1.
         -6    1    1    2    0  503 -0.65418235146E+02  0.42621159956E+02 -0.40355126982E+02  0.19315445902E+03  0.17200000000E+03 0. -1.
<mgrwt>
<rscale>  2 0.18889179E+03</rscale>
<asrwt>0</asrwt>
<pdfrwt beam="1">  1       21 0.65423249E-01 0.18889179E+03</pdfrwt>
<pdfrwt beam="2">  1       21 0.41223707E-01 0.18889179E+03</pdfrwt>
<totfact> 0.12208252E+04</totfact>
</mgrwt>
</event>
<event>
 4    1  0.1100959E+000  0.1941940E+03  0.7546771E-02  0.1154732E+00
         21   -1    0    0  503  502  0.00000000000E+00  0.00000000000E+00  0.60509311968E+02  0.60509311968E+02  0.00000000000E+00 0.  1.
         21   -1    0    0  501  503 -0.00000000000E+00 -0.00000000000E+00 -0.62750694971E+03  0.62750694971E+03  0.00000000000E+00 0. -1.
          6    1    1    2  501    0 -0.85861244258E+02 -0.27480249092E+02 -0.31189392819E+03  0.36740868226E+03  0.17200000000E+03 0.  1.
         -6    1    1    2    0  502  0.85861244258E+02  0.27480249092E+02 -0.25510370956E+03  0.32060757943E+03  0.17200000000E+03 0.  1.
<mgrwt>
<rscale>  2 0.19419402E+03</rscale>
<asrwt>0</asrwt>
<pdfrwt beam="1">  1       21 0.15127328E-01 0.19419402E+03</pdfrwt>
<pdfrwt beam="2">  1       21 0.15687674E+00 0.19419402E+03</pdfrwt>
<totfact> 0.10240214E+04</totfact>
</mgrwt>
</event>
<event>
 4    1  0.1100959E+000  0.2520523E+03  0.7546771E-02  0.1112015E+00
         21   -1    0    0  501  502  0.00000000000E+00  0.00000000000E+00  0.47902466533E+02  0.47902466533E+02  0.00000000000E+00 0. -1.
         21   -1    0    0  502  503 -0.00000000000E+00 -0.00000000000E+00 -0.13881556881E+04  0.13881556881E+04  0.00000000000E+00 0.  1.
          6    1    1    2  501    0  0.40607329550E+02  0.17971478642E+03 -0.82176501446E+03  0.85955110300E+03  0.17200000000E+03 0.  1.
         -6    1    1    2    0  503 -0.40607329550E+02 -0.17971478642E+03 -0.51848820707E+03  0.57650705160E+03  0.17200000000E+03 0. -1.
<mgrwt>
<rscale>  2 0.25205230E+03</rscale>
<asrwt>0</asrwt>
<pdfrwt beam="1">  1       21 0.11975617E-01 0.25205230E+03</pdfrwt>
<pdfrwt beam="2">  1       21 0.34703892E+00 0.25205230E+03</pdfrwt>
<totfact> 0.99431468E+02</totfact>
</mgrwt>
</event>
<event>
 4    1  0.1100959E+000  0.1840004E+03  0.7546771E-02  0.1163987E+00
         21   -1    0    0  503  502  0.00000000000E+00  0.00000000000E+00  0.55771653407E+03  0.55771653407E+03  0.00000000000E+00 0.  1.
         21   -1    0    0  501  503 -0.00000000000E+00 -0.00000000000E+00 -0.13996734480E+03  0.13996734480E+03  0.00000000000E+00 0.  1.
          6    1    1    2  501    0 -0.16681588234E+02  0.63197074013E+02 -0.53637289009E+02  0.19165882271E+03  0.17200000000E+03 0.  1.
         -6    1    1    2    0  502  0.16681588234E+02 -0.63197074013E+02  0.47138647829E+03  0.50602505616E+03  0.17200000000E+03 0.  1.
<mgrwt>
<rscale>  2 0.18400040E+03</rscale>
<asrwt>0</asrwt>
<pdfrwt beam="1">  1       21 0.13942913E+00 0.18400040E+03</pdfrwt>
<pdfrwt beam="2">  1       21 0.34991838E-01 0.18400040E+03</pdfrwt>
<totfact> 0.28696767E+03</totfact>
</mgrwt>
</event>
<event>
 4    1  0.1100959E+000  0.1751253E+03  0.7546771E-02  0.1172606E+00
         21   -1    0    0  501  502  0.00000000000E+00  0.00000000000E+00  0.26866798818E+03  0.26866798818E+03  0.00000000000E+00 0. -1.
         21   -1    0    0  502  503 -0.00000000000E+00 -0.00000000000E+00 -0.13057793178E+03  0.13057793178E+03  0.00000000000E+00 0. -1.
          6    1    1    2  501    0  0.31826261540E+02  0.84832385904E+01  0.13984712391E+03  0.22411178980E+03  0.17200000000E+03 0. -1.
         -6    1    1    2    0  503 -0.31826261540E+02 -0.84832385904E+01 -0.17570675033E+01  0.17513413016E+03  0.17200000000E+03 0. -1.
<mgrwt>
<rscale>  2 0.17512532E+03</rscale>
<asrwt>0</asrwt>
<pdfrwt beam="1">  1       21 0.67166996E-01 0.17512532E+03</pdfrwt>
<pdfrwt beam="2">  1       21 0.32644483E-01 0.17512532E+03</pdfrwt>
<totfact> 0.18523113E+04</totfact>
</mgrwt>
</event>
<event>
 4    1  0.1100959E+000  0.1830784E+03  0.7546771E-02  0.1164857E+00
         21   -1    0    0  501  502  0.00000000000E+00  0.00000000000E+00  0.15101985463E+03  0.15101985463E+03  0.00000000000E+00 0.  1.
         21   -1    0    0  502  503 -0.00000000000E+00 -0.00000000000E+00 -0.75816659325E+03  0.75816659325E+03  0.00000000000E+00 0.  1.
          6    1    1    2  501    0  0.48434862500E+02 -0.39846553701E+02  0.78735088193E+02  0.19929098790E+03  0.17200000000E+03 0.  1.
         -6    1    1    2    0  503 -0.48434862500E+02  0.39846553701E+02 -0.68588182681E+03  0.70989545998E+03  0.17200000000E+03 0.  1.
<mgrwt>
<rscale>  2 0.18307835E+03</rscale>
<asrwt>0</asrwt>
<pdfrwt beam="1">  1       21 0.37754964E-01 0.18307835E+03</pdfrwt>
<pdfrwt beam="2">  1       21 0.18954164E+00 0.18307835E+03</pdfrwt>
<totfact> 0.10741535E+03</totfact>
</mgrwt>
</event>
<event>
 4    1  0.1100959E+000  0.3461469E+03  0.7546771E-02  0.1064208E+00
         21   -1    0    0  501  502  0.00000000000E+00  0.00000000000E+00  0.13457024766E+04  0.13457024766E+04  0.00000000000E+00 0. -1.
         21   -1    0    0  502  503 -0.00000000000E+00 -0.00000000000E+00 -0.89041195923E+02  0.89041195923E+02  0.00000000000E+00 0. -1.
          6    1    1    2  501    0  0.27247217232E+02  0.29915090098E+03  0.63309512654E+03  0.72154494777E+03  0.17200000000E+03 0. -1.
         -6    1    1    2    0  503 -0.27247217232E+02 -0.29915090098E+03  0.62356615415E+03  0.71319872476E+03  0.17200000000E+03 0. -1.
<mgrwt>
<rscale>  2 0.34614689E+03</rscale>
<asrwt>0</asrwt>
<pdfrwt beam="1">  1       21 0.33642555E+00 0.34614689E+03</pdfrwt>
<pdfrwt beam="2">  1       21 0.22260303E-01 0.34614689E+03</pdfrwt>
<totfact> 0.33353153E+02</totfact>
</mgrwt>
</event>
<event>
 4    1  0.1100959E+000  0.1975136E+03  0.7546771E-02  0.1151854E+00
         21   -1    0    0  503  502  0.00000000000E+00  0.00000000000E+00  0.80940960075E+03  0.80940960075E+03  0.00000000000E+00 0.  1.
         21   -1    0    0  501  503 -0.00000000000E+00 -0.00000000000E+00 -0.15387807772E+03  0.15387807772E+03  0.00000000000E+00 0.  1.
          6    1    1    2  501    0 -0.69855326666E+02 -0.67437845074E+02 -0.71383143799E+02  0.21001710128E+03  0.17200000000E+03 0.  1.
         -6    1    1    2    0  502  0.69855326666E+02  0.67437845074E+02  0.72691466682E+03  0.75327057719E+03  0.17200000000E+03 0.  1.
<mgrwt>
<rscale>  2 0.19751362E+03</rscale>
<asrwt>0</asrwt>
<pdfrwt beam="1">  1       21 0.20235239E+00 0.19751362E+03</pdfrwt>
<pdfrwt beam="2">  1       21 0.38469522E-01 0.19751362E+03</pdfrwt>
<totfact> 0.84039472E+02</totfact>
</mgrwt>
</event>
<event>
 4    1  0.1100959E+000  0.1897342E+03  0.7546771E-02  0.1158701E+00
         21   -1    0    0  503  502  0.00000000000E+00  0.00000000000E+00  0.33736279857E+03  0.33736279857E+03  0.00000000000E+00 0.  1.
         21   -1    0    0  501  503 -0.00000000000E+00 -0.00000000000E+00 -0.13425440296E+03  0.13425440296E+03  0.00000000000E+00 0. -1.
          6    1    1    2  501    0  0.79116452276E+02 -0.12476160198E+02 -0.52611043361E+01  0.18980713056E+03  0.17200000000E+03 0. -1.
         -6    1    1    2    0  502 -0.79116452276E+02  0.12476160198E+02  0.20836949994E+03  0.28181007097E+03  0.17200000000E+03 0.  1.
<mgrwt>
<rscale>  2 0.18973420E+03</rscale>
<asrwt>0</asrwt>
<pdfrwt beam="1">  1       21 0.84340698E-01 0.18973420E+03</pdfrwt>
<pdfrwt beam="2">  1       21 0.33563601E-01 0.18973420E+03</pdfrwt>
<totfact> 0.10450390E+04</totfact>
</mgrwt>
</event>
<event>
 4    1  0.1100959E+000  0.1748282E+03  0.7546771E-02  0.1172904E+00
         21   -1    0    0  501  502  0.00000000000E+00  0.00000000000E+00  0.83962221755E+02  0.83962221755E+02  0.00000000000E+00 0.  1.
         21   -1    0    0  502  503 -0.00000000000E+00 -0.00000000000E+00 -0.37124466733E+03  0.37124466733E+03  0.00000000000E+00 0.  1.
          6    1    1    2  501    0 -0.98479129788E+01  0.29730699074E+02 -0.11191554663E+03  0.20758127429E+03  0.17200000000E+03 0.  1.
         -6    1    1    2    0  503  0.98479129788E+01 -0.29730699074E+02 -0.17536689894E+03  0.24762561479E+03  0.17200000000E+03 0.  1.
<mgrwt>
<rscale>  2 0.17482819E+03</rscale>
<asrwt>0</asrwt>
<pdfrwt beam="1">  1       21 0.20990556E-01 0.17482819E+03</pdfrwt>
<pdfrwt beam="2">  1       21 0.92811166E-01 0.17482819E+03</pdfrwt>
<totfact> 0.20852940E+04</totfact>
</mgrwt>
</event>
<event>
 4    1  0.1100959E+000  0.1970239E+03  0.7546771E-02  0.1152274E+00
         21   -1    0    0  503  502  0.00000000000E+00  0.00000000000E+00  0.15816047997E+03  0.15816047997E+03  0.00000000000E+00 0. -1.
         21   -1    0    0  501  503 -0.00000000000E+00 -0.00000000000E+00 -0.32460656216E+03  0.32460656216E+03  0.00000000000E+00 0. -1.
          6    1    1    2  501    0 -0.71239799663E+02  0.64492785386E+02 -0.20243180479E+03  0.28248374115E+03  0.17200000000E+03 0. -1.
         -6    1    1    2    0  502  0.71239799663E+02 -0.64492785386E+02  0.35985722601E+02  0.20028330099E+03  0.17200000000E+03 0. -1.
<mgrwt>
<rscale>  2 0.19702393E+03</rscale>
<asrwt>0</asrwt>
<pdfrwt beam="1">  1       21 0.39540120E-01 0.19702393E+03</pdfrwt>
<pdfrwt beam="2">  1       21 0.81151640E-01 0.19702393E+03</pdfrwt>
<totfact> 0.81845006E+03</totfact>
</mgrwt>
</event>
<event>
 4    1  0.1100959E+000  0.1990317E+03  0.7546771E-02  0.1150559E+00
         21   -1    0    0  501  502  0.00000000000E+00  0.00000000000E+00  0.11221110322E+04  0.11221110322E+04  0.00000000000E+00 0.  1.
         21   -1    0    0  502  503 -0.00000000000E+00 -0.00000000000E+00 -0.37069914771E+02  0.37069914771E+02  0.00000000000E+00 0.  1.
          6    1    1    2  501    0 -0.96732957598E+02  0.25929525296E+02  0.66906671355E+03  0.69804288733E+03  0.17200000000E+03 0.  1.
         -6    1    1    2    0  503  0.96732957598E+02 -0.25929525296E+02  0.41597440386E+03  0.46113805962E+03  0.17200000000E+03 0.  1.
<mgrwt>
<rscale>  2 0.19903167E+03</rscale>
<asrwt>0</asrwt>
<pdfrwt beam="1">  1       21 0.28052765E+00 0.19903167E+03</pdfrwt>
<pdfrwt beam="2">  1       21 0.92674824E-02 0.19903167E+03</pdfrwt>
<totfact> 0.40710028E+03</totfact>
</mgrwt>
</event>
<event>
 4    1  0.1100959E+000  0.3570382E+03  0.7546771E-02  0.1059763E+00
         21   -1    0    0  501  502  0.00000000000E+00  0.00000000000E+00  0.18875507834E+03  0.18875507834E+03  0.00000000000E+00 0.  1.
         21   -1    0    0  502  503 -0.00000000000E+00 -0.00000000000E+00 -0.69269717136E+03  0.69269717136E+03  0.00000000000E+00 0. -1.
          6    1    1    2  501    0  0.21486638482E+03 -0.22743074669E+03 -0.32170975529E+03  0.48059699803E+03  0.17200000000E+03 0. -1.
         -6    1    1    2    0  503 -0.21486638482E+03  0.22743074669E+03 -0.18223233773E+03  0.40085525166E+03  0.17200000000E+03 0.  1.
<mgrwt>
<rscale>  2 0.35703824E+03</rscale>
<asrwt>0</asrwt>
<pdfrwt beam="1">  1       21 0.47188770E-01 0.35703824E+03</pdfrwt>
<pdfrwt beam="2">  1       21 0.17317429E+00 0.35703824E+03</pdfrwt>
<totfact> 0.76343626E+02</totfact>
</mgrwt>
</event>
<event>
 4    1  0.1100959E+000  0.1753082E+03  0.7546771E-02  0.1172423E+00
         21   -1    0    0  501  502  0.00000000000E+00  0.00000000000E+00  0.12883142152E+03  0.12883142152E+03  0.00000000000E+00 0. -1.
         21   -1    0    0  502  503 -0.00000000000E+00 -0.00000000000E+00 -0.24965051081E+03  0.24965051081E+03  0.00000000000E+00 0. -1.
          6    1    1    2  501    0 -0.31678986696E+02  0.12058624503E+02 -0.20508430310E+02  0.17650372329E+03  0.17200000000E+03 0. -1.
         -6    1    1    2    0  503  0.31678986696E+02 -0.12058624503E+02 -0.10031065898E+03  0.20197820904E+03  0.17200000000E+03 0. -1.
<mgrwt>
<rscale>  2 0.17530821E+03</rscale>
<asrwt>0</asrwt>
<pdfrwt beam="1">  1       21 0.32207856E-01 0.17530821E+03</pdfrwt>
<pdfrwt beam="2">  1       21 0.62412627E-01 0.17530821E+03</pdfrwt>
<totfact> 0.22300121E+04</totfact>
</mgrwt>
</event>
<event>
 4    1  0.1100959E+000  0.1873090E+03  0.7546771E-02  0.1160911E+00
         21   -1    0    0  503  502  0.00000000000E+00  0.00000000000E+00  0.10501380905E+04  0.10501380905E+04  0.00000000000E+00 0.  1.
         21   -1    0    0  501  503 -0.00000000000E+00 -0.00000000000E+00 -0.33498712229E+02  0.33498712229E+02  0.00000000000E+00 0.  1.
          6    1    1    2  501    0  0.51365011142E+02  0.53500486993E+02  0.53626900313E+03  0.56803970830E+03  0.17200000000E+03 0.  1.
         -6    1    1    2    0  502 -0.51365011142E+02 -0.53500486993E+02  0.48037037513E+03  0.51559709443E+03  0.17200000000E+03 0.  1.
<mgrwt>
<rscale>  2 0.18730901E+03</rscale>
<asrwt>0</asrwt>
<pdfrwt beam="1">  1       21 0.26253441E+00 0.18730901E+03</pdfrwt>
<pdfrwt beam="2">  1       21 0.83746815E-02 0.18730901E+03</pdfrwt>
<totfact> 0.62585669E+03</totfact>
</mgrwt>
</event>
<event>
 4    1  0.1100959E+000  0.2098572E+03  0.7546771E-02  0.1141679E+00
         21   -1    0    0  501  502  0.00000000000E+00  0.00000000000E+00  0.44069896671E+03  0.44069896671E+03  0.00000000000E+00 0. -1.
         21   -1    0    0  502  503 -0.00000000000E+00 -0.00000000000E+00 -0.11654393777E+03  0.11654393777E+03  0.00000000000E+00 0. -1.
          6    1    1    2  501    0 -0.69823815868E+02  0.97880853925E+02  0.56886908281E+02  0.21743078706E+03  0.17200000000E+03 0. -1.
         -6    1    1    2    0  503  0.69823815868E+02 -0.97880853925E+02  0.26726812065E+03  0.33981211742E+03  0.17200000000E+03 0. -1.
<mgrwt>
<rscale>  2 0.20985716E+03</rscale>
<asrwt>0</asrwt>
<pdfrwt beam="1">  1       21 0.11017474E+00 0.20985716E+03</pdfrwt>
<pdfrwt beam="2">  1       21 0.29135986E-01 0.20985716E+03</pdfrwt>
<totfact> 0.72453963E+03</totfact>
</mgrwt>
</event>
<event>
 4    1  0.1100959E+000  0.2231609E+03  0.7546771E-02  0.1131548E+00
         21   -1    0    0  503  502  0.00000000000E+00  0.00000000000E+00  0.55608795988E+03  0.55608795988E+03  0.00000000000E+00 0. -1.
         21   -1    0    0  501  503 -0.00000000000E+00 -0.00000000000E+00 -0.93413257732E+02  0.93413257732E+02  0.00000000000E+00 0. -1.
          6    1    1    2  501    0 -0.10924992919E+03 -0.91001255437E+02  0.29733206003E+03  0.37176219475E+03  0.17200000000E+03 0. -1.
         -6    1    1    2    0  502  0.10924992919E+03  0.91001255437E+02  0.16534264211E+03  0.27773902286E+03  0.17200000000E+03 0. -1.
<mgrwt>
<rscale>  2 0.22316087E+03</rscale>
<asrwt>0</asrwt>
<pdfrwt beam="1">  1       21 0.13902198E+00 0.22316087E+03</pdfrwt>
<pdfrwt beam="2">  1       21 0.23353316E-01 0.22316087E+03</pdfrwt>
<totfact> 0.61372282E+03</totfact>
</mgrwt>
</event>
<event>
 4    1  0.1100959E+000  0.2467985E+03  0.7546771E-02  0.1115345E+00
         21   -1    0    0  503  502  0.00000000000E+00  0.00000000000E+00  0.14857724009E+03  0.14857724009E+03  0.00000000000E+00 0. -1.
         21   -1    0    0  501  503 -0.00000000000E+00 -0.00000000000E+00 -0.46384419908E+03  0.46384419908E+03  0.00000000000E+00 0. -1.
          6    1    1    2  501    0 -0.95520657808E+01  0.17673214559E+03 -0.26200895267E+03  0.35994191826E+03  0.17200000000E+03 0. -1.
         -6    1    1    2    0  502  0.95520657808E+01 -0.17673214559E+03 -0.53258006322E+02  0.25247952092E+03  0.17200000000E+03 0. -1.
<mgrwt>
<rscale>  2 0.24679849E+03</rscale>
<asrwt>0</asrwt>
<pdfrwt beam="1">  1       21 0.37144310E-01 0.24679849E+03</pdfrwt>
<pdfrwt beam="2">  1       21 0.11596105E+00 0.24679849E+03</pdfrwt>
<totfact> 0.38542877E+03</totfact>
</mgrwt>
</event>
<event>
 4    1  0.1100959E+000  0.2268006E+03  0.7546771E-02  0.1128912E+00
         21   -1    0    0  503  502  0.00000000000E+00  0.00000000000E+00  0.73248928466E+03  0.73248928466E+03  0.00000000000E+00 0.  1.
         21   -1    0    0  501  503 -0.00000000000E+00 -0.00000000000E+00 -0.81942328174E+02  0.81942328174E+02  0.00000000000E+00 0. -1.
          6    1    1    2  501    0  0.12134734874E+02  0.14733376290E+03  0.17128110627E+03  0.28421067335E+03  0.17200000000E+03 0. -1.
         -6    1    1    2    0  502 -0.12134734874E+02 -0.14733376290E+03  0.47926585022E+03  0.53022093949E+03  0.17200000000E+03 0.  1.
<mgrwt>
<rscale>  2 0.22680055E+03</rscale>
<asrwt>0</asrwt>
<pdfrwt beam="1">  1       21 0.18312230E+00 0.22680055E+03</pdfrwt>
<pdfrwt beam="2">  1       21 0.20485584E-01 0.22680055E+03</pdfrwt>
<totfact> 0.37118848E+03</totfact>
</mgrwt>
</event>
<event>
 4    1  0.1100959E+000  0.2998641E+03  0.7546771E-02  0.1085309E+00
         21   -1    0    0  501  502  0.00000000000E+00  0.00000000000E+00  0.12581153722E+03  0.12581153722E+03  0.00000000000E+00 0. -1.
         21   -1    0    0  502  503 -0.00000000000E+00 -0.00000000000E+00 -0.74449899624E+03  0.74449899624E+03  0.00000000000E+00 0. -1.
          6    1    1    2  501    0  0.21771047388E+03 -0.11373929362E+03 -0.39639131213E+03  0.49703576298E+03  0.17200000000E+03 0. -1.
         -6    1    1    2    0  503 -0.21771047388E+03  0.11373929362E+03 -0.22229614689E+03  0.37327477047E+03  0.17200000000E+03 0. -1.
<mgrwt>
<rscale>  2 0.29986410E+03</rscale>
<asrwt>0</asrwt>
<pdfrwt beam="1">  1       21 0.31452885E-01 0.29986410E+03</pdfrwt>
<pdfrwt beam="2">  1       21 0.18612475E+00 0.29986410E+03</pdfrwt>
<totfact> 0.14685258E+03</totfact>
</mgrwt>
</event>
<event>
 4    1  0.1100959E+000  0.1745624E+03  0.7546771E-02  0.1173172E+00
         21   -1    0    0  501  502  0.00000000000E+00  0.00000000000E+00  0.74298461009E+03  0.74298461009E+03  0.00000000000E+00 0.  1.
         21   -1    0    0  502  503 -0.00000000000E+00 -0.00000000000E+00 -0.42169740426E+02  0.42169740426E+02  0.00000000000E+00 0.  1.
          6    1    1    2  501    0 -0.28270031070E+02  0.94253917709E+01  0.41542658858E+03  0.45061212052E+03  0.17200000000E+03 0.  1.
         -6    1    1    2    0  503  0.28270031070E+02 -0.94253917709E+01  0.28538828109E+03  0.33454223000E+03  0.17200000000E+03 0.  1.
<mgrwt>
<rscale>  2 0.17456240E+03</rscale>
<asrwt>0</asrwt>
<pdfrwt beam="1">  1       21 0.18574611E+00 0.17456240E+03</pdfrwt>
<pdfrwt beam="2">  1       21 0.10542438E-01 0.17456240E+03</pdfrwt>
<totfact> 0.12482146E+04</totfact>
</mgrwt>
</event>
<event>
 4    1  0.1100959E+000  0.1880715E+03  0.7546771E-02  0.1160212E+00
         21   -1    0    0  501  502  0.00000000000E+00  0.00000000000E+00  0.10875048779E+03  0.10875048779E+03  0.00000000000E+00 0. -1.
         21   -1    0    0  502  503 -0.00000000000E+00 -0.00000000000E+00 -0.34827515358E+03  0.34827515358E+03  0.00000000000E+00 0. -1.
          6    1    1    2  501    0  0.63939863744E+02  0.41214019127E+02 -0.61004270202E+02  0.19771803795E+03  0.17200000000E+03 0.  1.
         -6    1    1    2    0  503 -0.63939863744E+02 -0.41214019127E+02 -0.17852039559E+03  0.25930760342E+03  0.17200000000E+03 0.  1.
<mgrwt>
<rscale>  2 0.18807153E+03</rscale>
<asrwt>0</asrwt>
<pdfrwt beam="1">  1       21 0.27187622E-01 0.18807153E+03</pdfrwt>
<pdfrwt beam="2">  1       21 0.87068788E-01 0.18807153E+03</pdfrwt>
<totfact> 0.14667177E+04</totfact>
</mgrwt>
</event>
<event>
 4    1  0.1100959E+000  0.2728348E+03  0.7546771E-02  0.1099668E+00
         21   -1    0    0  501  502  0.00000000000E+00  0.00000000000E+00  0.10529238623E+03  0.10529238623E+03  0.00000000000E+00 0.  1.
         21   -1    0    0  502  503 -0.00000000000E+00 -0.00000000000E+00 -0.80241437027E+03  0.80241437027E+03  0.00000000000E+00 0.  1.
          6    1    1    2  501    0 -0.16691920921E+03  0.13035648775E+03 -0.19203539291E+03  0.33364116717E+03  0.17200000000E+03 0.  1.
         -6    1    1    2    0  503  0.16691920921E+03 -0.13035648775E+03 -0.50508659114E+03  0.57406558932E+03  0.17200000000E+03 0.  1.
<mgrwt>
<rscale>  2 0.27283482E+03</rscale>
<asrwt>0</asrwt>
<pdfrwt beam="1">  1       21 0.26323097E-01 0.27283482E+03</pdfrwt>
<pdfrwt beam="2">  1       21 0.20060359E+00 0.27283482E+03</pdfrwt>
<totfact> 0.16991671E+03</totfact>
</mgrwt>
</event>
<event>
 4    1  0.1100959E+000  0.1955391E+03  0.7546771E-02  0.1153558E+00
         21   -1    0    0  501  502  0.00000000000E+00  0.00000000000E+00  0.12749639787E+03  0.12749639787E+03  0.00000000000E+00 0. -1.
         21   -1    0    0  502  503 -0.00000000000E+00 -0.00000000000E+00 -0.35356657009E+03  0.35356657009E+03  0.00000000000E+00 0. -1.
          6    1    1    2  501    0 -0.92320521242E+02  0.11333539778E+02 -0.19320190656E+02  0.19649121490E+03  0.17200000000E+03 0. -1.
         -6    1    1    2    0  503  0.92320521242E+02 -0.11333539778E+02 -0.20674998156E+03  0.28457175307E+03  0.17200000000E+03 0. -1.
<mgrwt>
<rscale>  2 0.19553907E+03</rscale>
<asrwt>0</asrwt>
<pdfrwt beam="1">  1       21 0.31874100E-01 0.19553907E+03</pdfrwt>
<pdfrwt beam="2">  1       21 0.88391642E-01 0.19553907E+03</pdfrwt>
<totfact> 0.10346527E+04</totfact>
</mgrwt>
</event>
<event>
 4    1  0.1100959E+000  0.1824315E+03  0.7546771E-02  0.1165470E+00
         21   -1    0    0  501  502  0.00000000000E+00  0.00000000000E+00  0.22293533407E+03  0.22293533407E+03  0.00000000000E+00 0. -1.
         21   -1    0    0  502  503 -0.00000000000E+00 -0.00000000000E+00 -0.15336345265E+03  0.15336345265E+03  0.00000000000E+00 0. -1.
          6    1    1    2  501    0 -0.52471577745E+02  0.30724487573E+02  0.65462297390E+02  0.19382098180E+03  0.17200000000E+03 0. -1.
         -6    1    1    2    0  503  0.52471577745E+02 -0.30724487573E+02  0.41095840272E+01  0.18247780492E+03  0.17200000000E+03 0. -1.
<mgrwt>
<rscale>  2 0.18243152E+03</rscale>
<asrwt>0</asrwt>
<pdfrwt beam="1">  1       21 0.55733833E-01 0.18243152E+03</pdfrwt>
<pdfrwt beam="2">  1       21 0.38340863E-01 0.18243152E+03</pdfrwt>
<totfact> 0.20016580E+04</totfact>
</mgrwt>
</event>
<event>
 4    1  0.1100959E+000  0.2671973E+03  0.7546771E-02  0.1102894E+00
         21   -1    0    0  501  502  0.00000000000E+00  0.00000000000E+00  0.30053059878E+03  0.30053059878E+03  0.00000000000E+00 0. -1.
         21   -1    0    0  502  503 -0.00000000000E+00 -0.00000000000E+00 -0.46941849482E+03  0.46941849482E+03  0.00000000000E+00 0. -1.
          6    1    1    2  501    0 -0.13923444943E+03 -0.14974696571E+03  0.18611529504E+03  0.32562753062E+03  0.17200000000E+03 0. -1.
         -6    1    1    2    0  503  0.13923444943E+03  0.14974696571E+03 -0.35500319109E+03  0.44432156298E+03  0.17200000000E+03 0. -1.
<mgrwt>
<rscale>  2 0.26719728E+03</rscale>
<asrwt>0</asrwt>
<pdfrwt beam="1">  1       21 0.75132650E-01 0.26719728E+03</pdfrwt>
<pdfrwt beam="2">  1       21 0.11735462E+00 0.26719728E+03</pdfrwt>
<totfact> 0.82664170E+02</totfact>
</mgrwt>
</event>
<event>
 4    1  0.1100959E+000  0.1913086E+03  0.7546771E-02  0.1157286E+00
         21   -1    0    0  503  502  0.00000000000E+00  0.00000000000E+00  0.15152586542E+03  0.15152586542E+03  0.00000000000E+00 0.  1.
         21   -1    0    0  501  503 -0.00000000000E+00 -0.00000000000E+00 -0.45795749570E+03  0.45795749570E+03  0.00000000000E+00 0.  1.
          6    1    1    2  501    0  0.16101445813E+01  0.83739894855E+02 -0.36270875710E+03  0.41006902472E+03  0.17200000000E+03 0.  1.
         -6    1    1    2    0  502 -0.16101445813E+01 -0.83739894855E+02  0.56277126826E+02  0.19941433639E+03  0.17200000000E+03 0.  1.
<mgrwt>
<rscale>  2 0.19130855E+03</rscale>
<asrwt>0</asrwt>
<pdfrwt beam="1">  1       21 0.37881467E-01 0.19130855E+03</pdfrwt>
<pdfrwt beam="2">  1       21 0.11448937E+00 0.19130855E+03</pdfrwt>
<totfact> 0.39875943E+03</totfact>
</mgrwt>
</event>
<event>
 4    1  0.1100959E+000  0.1961815E+03  0.7546771E-02  0.1153001E+00
         21   -1    0    0  503  502  0.00000000000E+00  0.00000000000E+00  0.23615155961E+03  0.23615155961E+03  0.00000000000E+00 0.  1.
         21   -1    0    0  501  503 -0.00000000000E+00 -0.00000000000E+00 -0.16428575953E+03  0.16428575953E+03  0.00000000000E+00 0.  1.
          6    1    1    2  501    0  0.69245660696E+02 -0.64095398208E+02  0.18059855487E+02  0.19701101486E+03  0.17200000000E+03 0. -1.
         -6    1    1    2    0  502 -0.69245660696E+02  0.64095398208E+02  0.53805944598E+02  0.20342630427E+03  0.17200000000E+03 0. -1.
<mgrwt>
<rscale>  2 0.19618150E+03</rscale>
<asrwt>0</asrwt>
<pdfrwt beam="1">  1       21 0.59037890E-01 0.19618150E+03</pdfrwt>
<pdfrwt beam="2">  1       21 0.41071440E-01 0.19618150E+03</pdfrwt>
<totfact> 0.15282767E+04</totfact>
</mgrwt>
</event>
<event>
 4    1  0.1100959E+000  0.1920844E+03  0.7546771E-02  0.1156595E+00
         21   -1    0    0  501  502  0.00000000000E+00  0.00000000000E+00  0.16311976200E+03  0.16311976200E+03  0.00000000000E+00 0. -1.
         21   -1    0    0  502  503 -0.00000000000E+00 -0.00000000000E+00 -0.29351688784E+03  0.29351688784E+03  0.00000000000E+00 0. -1.
          6    1    1    2  501    0 -0.73085416537E+02  0.44395150191E+02 -0.17454675364E+03  0.25954378567E+03  0.17200000000E+03 0. -1.
         -6    1    1    2    0  503  0.73085416537E+02 -0.44395150191E+02  0.44149627800E+02  0.19709286417E+03  0.17200000000E+03 0. -1.
<mgrwt>
<rscale>  2 0.19208438E+03</rscale>
<asrwt>0</asrwt>
<pdfrwt beam="1">  1       21 0.40779941E-01 0.19208438E+03</pdfrwt>
<pdfrwt beam="2">  1       21 0.73379221E-01 0.19208438E+03</pdfrwt>
<totfact> 0.96737362E+03</totfact>
</mgrwt>
</event>
<event>
 4    1  0.1100959E+000  0.1791928E+03  0.7546771E-02  0.1168587E+00
         21   -1    0    0  501  502  0.00000000000E+00  0.00000000000E+00  0.76085576862E+02  0.76085576862E+02  0.00000000000E+00 0. -1.
         21   -1    0    0  502  503 -0.00000000000E+00 -0.00000000000E+00 -0.65935688009E+03  0.65935688009E+03  0.00000000000E+00 0. -1.
          6    1    1    2  501    0  0.25716293575E+02  0.43182531443E+02 -0.71020187329E+02  0.19275353638E+03  0.17200000000E+03 0. -1.
         -6    1    1    2    0  503 -0.25716293575E+02 -0.43182531443E+02 -0.51225111590E+03  0.54268892057E+03  0.17200000000E+03 0. -1.
<mgrwt>
<rscale>  2 0.17919280E+03</rscale>
<asrwt>0</asrwt>
<pdfrwt beam="1">  1       21 0.19021394E-01 0.17919280E+03</pdfrwt>
<pdfrwt beam="2">  1       21 0.16483922E+00 0.17919280E+03</pdfrwt>
<totfact> 0.59529934E+03</totfact>
</mgrwt>
</event>
<event>
 4    1  0.1100959E+000  0.2528837E+03  0.7546771E-02  0.1111496E+00
         21   -1    0    0  503  502  0.00000000000E+00  0.00000000000E+00  0.81206515679E+03  0.81206515679E+03  0.00000000000E+00 0.  1.
         21   -1    0    0  501  503 -0.00000000000E+00 -0.00000000000E+00 -0.89905886353E+02  0.89905886353E+02  0.00000000000E+00 0.  1.
          6    1    1    2  501    0  0.21220615138E+02  0.18416260105E+03  0.20221784608E+03  0.32379350735E+03  0.17200000000E+03 0.  1.
         -6    1    1    2    0  502 -0.21220615138E+02 -0.18416260105E+03  0.51994142436E+03  0.57817753579E+03  0.17200000000E+03 0.  1.
<mgrwt>
<rscale>  2 0.25288372E+03</rscale>
<asrwt>0</asrwt>
<pdfrwt beam="1">  1       21 0.20301627E+00 0.25288372E+03</pdfrwt>
<pdfrwt beam="2">  1       21 0.22476474E-01 0.25288372E+03</pdfrwt>
<totfact> 0.22537672E+03</totfact>
</mgrwt>
</event>
<event>
 4    1  0.1100959E+000  0.2408315E+03  0.7546771E-02  0.1119240E+00
         21   -1    0    0  501  502  0.00000000000E+00  0.00000000000E+00  0.86890272118E+03  0.86890272118E+03  0.00000000000E+00 0.  1.
         21   -1    0    0  502  503 -0.00000000000E+00 -0.00000000000E+00 -0.67251671486E+02  0.67251671486E+02  0.00000000000E+00 0. -1.
          6    1    1    2  501    0 -0.90995106786E+02 -0.14190028911E+03  0.44122763530E+03  0.50267447485E+03  0.17200000000E+03 0.  1.
         -6    1    1    2    0  503  0.90995106786E+02  0.14190028911E+03  0.36042341440E+03  0.43347991782E+03  0.17200000000E+03 0. -1.
<mgrwt>
<rscale>  2 0.24083148E+03</rscale>
<asrwt>0</asrwt>
<pdfrwt beam="1">  1       21 0.21722564E+00 0.24083148E+03</pdfrwt>
<pdfrwt beam="2">  1       21 0.16812921E-01 0.24083148E+03</pdfrwt>
<totfact> 0.31858935E+03</totfact>
</mgrwt>
</event>
<event>
 4    1  0.1100959E+000  0.1867372E+03  0.7546771E-02  0.1161437E+00
         21   -1    0    0  503  502  0.00000000000E+00  0.00000000000E+00  0.17645091044E+03  0.17645091044E+03  0.00000000000E+00 0. -1.
         21   -1    0    0  501  503 -0.00000000000E+00 -0.00000000000E+00 -0.43423272905E+03  0.43423272905E+03  0.00000000000E+00 0. -1.
          6    1    1    2  501    0 -0.41385389313E+02  0.59783339131E+02 -0.35428426245E+03  0.40048487700E+03  0.17200000000E+03 0. -1.
         -6    1    1    2    0  502  0.41385389313E+02 -0.59783339131E+02  0.96502443841E+02  0.21019876249E+03  0.17200000000E+03 0. -1.
<mgrwt>
<rscale>  2 0.18673724E+03</rscale>
<asrwt>0</asrwt>
<pdfrwt beam="1">  1       21 0.44112728E-01 0.18673724E+03</pdfrwt>
<pdfrwt beam="2">  1       21 0.10855818E+00 0.18673724E+03</pdfrwt>
<totfact> 0.33452760E+03</totfact>
</mgrwt>
</event>
<event>
 4    1  0.1100959E+000  0.1790459E+03  0.7546771E-02  0.1168730E+00
         21   -1    0    0  501  502  0.00000000000E+00  0.00000000000E+00  0.17683797368E+03  0.17683797368E+03  0.00000000000E+00 0.  1.
         21   -1    0    0  502  503 -0.00000000000E+00 -0.00000000000E+00 -0.26195868061E+03  0.26195868061E+03  0.00000000000E+00 0.  1.
          6    1    1    2  501    0 -0.26453250444E+02  0.42114824268E+02  0.79196265321E+02  0.19577916468E+03  0.17200000000E+03 0.  1.
         -6    1    1    2    0  503  0.26453250444E+02 -0.42114824268E+02 -0.16431697225E+03  0.24301748960E+03  0.17200000000E+03 0.  1.
<mgrwt>
<rscale>  2 0.17904590E+03</rscale>
<asrwt>0</asrwt>
<pdfrwt beam="1">  1       21 0.44209494E-01 0.17904590E+03</pdfrwt>
<pdfrwt beam="2">  1       21 0.65489670E-01 0.17904590E+03</pdfrwt>
<totfact> 0.10635578E+04</totfact>
</mgrwt>
</event>
<event>
 4    1  0.1100959E+000  0.2115545E+03  0.7546771E-02  0.1140341E+00
         21   -1    0    0  501  502  0.00000000000E+00  0.00000000000E+00  0.10751584367E+03  0.10751584367E+03  0.00000000000E+00 0. -1.
         21   -1    0    0  502  503 -0.00000000000E+00 -0.00000000000E+00 -0.11723268523E+04  0.11723268523E+04  0.00000000000E+00 0. -1.
          6    1    1    2  501    0 -0.11983029921E+03  0.28495681800E+02 -0.18503498615E+02  0.21236215282E+03  0.17200000000E+03 0. -1.
         -6    1    1    2    0  503  0.11983029921E+03 -0.28495681800E+02 -0.10463075100E+04  0.10674805431E+04  0.17200000000E+03 0. -1.
<mgrwt>
<rscale>  2 0.21155450E+03</rscale>
<asrwt>0</asrwt>
<pdfrwt beam="1">  1       21 0.26878961E-01 0.21155450E+03</pdfrwt>
<pdfrwt beam="2">  1       21 0.29308171E+00 0.21155450E+03</pdfrwt>
<totfact> 0.48061290E+02</totfact>
</mgrwt>
</event>
<event>
 4    1  0.1100959E+000  0.2104494E+03  0.7546771E-02  0.1141211E+00
         21   -1    0    0  501  502  0.00000000000E+00  0.00000000000E+00  0.11235646042E+03  0.11235646042E+03  0.00000000000E+00 0. -1.
         21   -1    0    0  502  503 -0.00000000000E+00 -0.00000000000E+00 -0.56730195181E+03  0.56730195181E+03  0.00000000000E+00 0. -1.
          6    1    1    2  501    0 -0.95508174393E+02 -0.74720384659E+02 -0.39745835610E+02  0.21416974275E+03  0.17200000000E+03 0. -1.
         -6    1    1    2    0  503  0.95508174393E+02  0.74720384659E+02 -0.41519965578E+03  0.46548866949E+03  0.17200000000E+03 0. -1.
<mgrwt>
<rscale>  2 0.21044939E+03</rscale>
<asrwt>0</asrwt>
<pdfrwt beam="1">  1       21 0.28089115E-01 0.21044939E+03</pdfrwt>
<pdfrwt beam="2">  1       21 0.14182549E+00 0.21044939E+03</pdfrwt>
<totfact> 0.41278904E+03</totfact>
</mgrwt>
</event>
<event>
 4    1  0.1100959E+000  0.1816976E+03  0.7546771E-02  0.1166170E+00
         21   -1    0    0  503  502  0.00000000000E+00  0.00000000000E+00  0.11460843161E+03  0.11460843161E+03  0.00000000000E+00 0.  1.
         21   -1    0    0  501  503 -0.00000000000E+00 -0.00000000000E+00 -0.37872795992E+03  0.37872795992E+03  0.00000000000E+00 0.  1.
          6    1    1    2  501    0  0.57454911831E+02 -0.11356327339E+02 -0.25275160022E+03  0.31128347929E+03  0.17200000000E+03 0.  1.
         -6    1    1    2    0  502 -0.57454911831E+02  0.11356327339E+02 -0.11367928087E+02  0.18205291223E+03  0.17200000000E+03 0.  1.
<mgrwt>
<rscale>  2 0.18169764E+03</rscale>
<asrwt>0</asrwt>
<pdfrwt beam="1">  1       21 0.28652108E-01 0.18169764E+03</pdfrwt>
<pdfrwt beam="2">  1       21 0.94681989E-01 0.18169764E+03</pdfrwt>
<totfact> 0.10962055E+04</totfact>
</mgrwt>
</event>
<event>
 4    1  0.1100959E+000  0.1905034E+03  0.7546771E-02  0.1158008E+00
         21   -1    0    0  503  502  0.00000000000E+00  0.00000000000E+00  0.37226855504E+03  0.37226855504E+03  0.00000000000E+00 0. -1.
         21   -1    0    0  501  503 -0.00000000000E+00 -0.00000000000E+00 -0.15958344858E+03  0.15958344858E+03  0.00000000000E+00 0. -1.
          6    1    1    2  501    0  0.59713069150E+02 -0.56052638026E+02 -0.59539095761E+02  0.19959071316E+03  0.17200000000E+03 0. -1.
         -6    1    1    2    0  502 -0.59713069150E+02  0.56052638026E+02  0.27222420222E+03  0.33226129045E+03  0.17200000000E+03 0. -1.
<mgrwt>
<rscale>  2 0.19050341E+03</rscale>
<asrwt>0</asrwt>
<pdfrwt beam="1">  1       21 0.93067137E-01 0.19050341E+03</pdfrwt>
<pdfrwt beam="2">  1       21 0.39895863E-01 0.19050341E+03</pdfrwt>
<totfact> 0.58951612E+03</totfact>
</mgrwt>
</event>
<event>
 4    1  0.1100959E+000  0.2429207E+03  0.7546771E-02  0.1117862E+00
         21   -1    0    0  501  502  0.00000000000E+00  0.00000000000E+00  0.17854541322E+03  0.17854541322E+03  0.00000000000E+00 0. -1.
         21   -1    0    0  502  503 -0.00000000000E+00 -0.00000000000E+00 -0.80921739648E+03  0.80921739648E+03  0.00000000000E+00 0. -1.
          6    1    1    2  501    0 -0.12117080746E+03 -0.12142528894E+03  0.64526672491E+02  0.25134469725E+03  0.17200000000E+03 0. -1.
         -6    1    1    2    0  503  0.12117080746E+03  0.12142528894E+03 -0.69519865575E+03  0.73641811244E+03  0.17200000000E+03 0. -1.
<mgrwt>
<rscale>  2 0.24292070E+03</rscale>
<asrwt>0</asrwt>
<pdfrwt beam="1">  1       21 0.44636354E-01 0.24292070E+03</pdfrwt>
<pdfrwt beam="2">  1       21 0.20230435E+00 0.24292070E+03</pdfrwt>
<totfact> 0.59227921E+02</totfact>
</mgrwt>
</event>
<event>
 4    1  0.1100959E+000  0.1731705E+03  0.7546771E-02  0.1174581E+00
         21   -1    0    0  503  502  0.00000000000E+00  0.00000000000E+00  0.15278739898E+03  0.15278739898E+03  0.00000000000E+00 0.  1.
         21   -1    0    0  501  503 -0.00000000000E+00 -0.00000000000E+00 -0.39681305141E+03  0.39681305141E+03  0.00000000000E+00 0.  1.
          6    1    1    2  501    0  0.10207045446E+02 -0.17315931899E+02 -0.31736793987E+03  0.36153898065E+03  0.17200000000E+03 0.  1.
         -6    1    1    2    0  502 -0.10207045446E+02  0.17315931899E+02  0.73342287431E+02  0.18806146974E+03  0.17200000000E+03 0.  1.
<mgrwt>
<rscale>  2 0.17317051E+03</rscale>
<asrwt>0</asrwt>
<pdfrwt beam="1">  1       21 0.38196850E-01 0.17317051E+03</pdfrwt>
<pdfrwt beam="2">  1       21 0.99203262E-01 0.17317051E+03</pdfrwt>
<totfact> 0.56172086E+03</totfact>
</mgrwt>
</event>
<event>
 4    1  0.1100959E+000  0.1949225E+03  0.7546771E-02  0.1154095E+00
         21   -1    0    0  501  502  0.00000000000E+00  0.00000000000E+00  0.41827218273E+03  0.41827218273E+03  0.00000000000E+00 0. -1.
         21   -1    0    0  502  503 -0.00000000000E+00 -0.00000000000E+00 -0.10943595739E+03  0.10943595739E+03  0.00000000000E+00 0. -1.
          6    1    1    2  501    0  0.26208535001E+02 -0.87885704169E+02  0.26319150177E+03  0.32751267290E+03  0.17200000000E+03 0.  1.
         -6    1    1    2    0  503 -0.26208535001E+02  0.87885704169E+02  0.45644723573E+02  0.20019546722E+03  0.17200000000E+03 0.  1.
<mgrwt>
<rscale>  2 0.19492251E+03</rscale>
<asrwt>0</asrwt>
<pdfrwt beam="1">  1       21 0.10456804E+00 0.19492251E+03</pdfrwt>
<pdfrwt beam="2">  1       21 0.27358990E-01 0.19492251E+03</pdfrwt>
<totfact> 0.93861987E+03</totfact>
</mgrwt>
</event>
<event>
 4    1  0.1100959E+000  0.2198261E+03  0.7546771E-02  0.1134013E+00
         21   -1    0    0  503  502  0.00000000000E+00  0.00000000000E+00  0.22391224020E+03  0.22391224020E+03  0.00000000000E+00 0.  1.
         21   -1    0    0  501  503 -0.00000000000E+00 -0.00000000000E+00 -0.25493675832E+03  0.25493675832E+03  0.00000000000E+00 0. -1.
          6    1    1    2  501    0  0.16863092671E+02 -0.13584978980E+03 -0.10930382628E+03  0.24550123365E+03  0.17200000000E+03 0. -1.
         -6    1    1    2    0  502 -0.16863092671E+02  0.13584978980E+03  0.78279308160E+02  0.23334776487E+03  0.17200000000E+03 0.  1.
<mgrwt>
<rscale>  2 0.21982613E+03</rscale>
<asrwt>0</asrwt>
<pdfrwt beam="1">  1       21 0.55978060E-01 0.21982613E+03</pdfrwt>
<pdfrwt beam="2">  1       21 0.63734189E-01 0.21982613E+03</pdfrwt>
<totfact> 0.67033047E+03</totfact>
</mgrwt>
</event>
<event>
 4    1  0.1100959E+000  0.3234132E+03  0.7546771E-02  0.1074089E+00
         21   -1    0    0  501  502  0.00000000000E+00  0.00000000000E+00  0.30980358460E+03  0.30980358460E+03  0.00000000000E+00 0. -1.
         21   -1    0    0  502  503 -0.00000000000E+00 -0.00000000000E+00 -0.43878511250E+03  0.43878511250E+03  0.00000000000E+00 0.  1.
          6    1    1    2  501    0 -0.22997456304E+03 -0.14874063769E+03  0.11523129727E+03  0.34332831054E+03  0.17200000000E+03 0. -1.
         -6    1    1    2    0  503  0.22997456304E+03  0.14874063769E+03 -0.24421282516E+03  0.40526038656E+03  0.17200000000E+03 0.  1.
<mgrwt>
<rscale>  2 0.32341317E+03</rscale>
<asrwt>0</asrwt>
<pdfrwt beam="1">  1       21 0.77450896E-01 0.32341317E+03</pdfrwt>
<pdfrwt beam="2">  1       21 0.10969628E+00 0.32341317E+03</pdfrwt>
<totfact> 0.87732105E+02</totfact>
</mgrwt>
</event>
<event>
 4    1  0.1100959E+000  0.1981881E+03  0.7546771E-02  0.1151277E+00
         21   -1    0    0  501  502  0.00000000000E+00  0.00000000000E+00  0.79520116436E+02  0.79520116436E+02  0.00000000000E+00 0.  1.
         21   -1    0    0  502  503 -0.00000000000E+00 -0.00000000000E+00 -0.51955604718E+03  0.51955604718E+03  0.00000000000E+00 0. -1.
          6    1    1    2  501    0 -0.71861003323E+02 -0.67309244420E+02 -0.15351327837E+03  0.25068878080E+03  0.17200000000E+03 0.  1.
         -6    1    1    2    0  503  0.71861003323E+02  0.67309244420E+02 -0.28652265237E+03  0.34838738282E+03  0.17200000000E+03 0. -1.
<mgrwt>
<rscale>  2 0.19818814E+03</rscale>
<asrwt>0</asrwt>
<pdfrwt beam="1">  1       21 0.19880030E-01 0.19818814E+03</pdfrwt>
<pdfrwt beam="2">  1       21 0.12988901E+00 0.19818814E+03</pdfrwt>
<totfact> 0.10071308E+04</totfact>
</mgrwt>
</event>
<event>
 4    1  0.1100959E+000  0.2146564E+03  0.7546771E-02  0.1137931E+00
         21   -1    0    0  503  502  0.00000000000E+00  0.00000000000E+00  0.59003588900E+02  0.59003588900E+02  0.00000000000E+00 0. -1.
         21   -1    0    0  501  503 -0.00000000000E+00 -0.00000000000E+00 -0.85101989354E+03  0.85101989354E+03  0.00000000000E+00 0. -1.
          6    1    1    2  501    0  0.12331076925E+03 -0.35886314243E+02 -0.52659401521E+03  0.56866389917E+03  0.17200000000E+03 0. -1.
         -6    1    1    2    0  502 -0.12331076925E+03  0.35886314243E+02 -0.26542228943E+03  0.34135958327E+03  0.17200000000E+03 0. -1.
<mgrwt>
<rscale>  2 0.21465641E+03</rscale>
<asrwt>0</asrwt>
<pdfrwt beam="1">  1       21 0.14750897E-01 0.21465641E+03</pdfrwt>
<pdfrwt beam="2">  1       21 0.21275497E+00 0.21465641E+03</pdfrwt>
<totfact> 0.44186718E+03</totfact>
</mgrwt>
</event>
<event>
 4    1  0.1100959E+000  0.1962266E+03  0.7546771E-02  0.1152962E+00
         21   -1    0    0  501  502  0.00000000000E+00  0.00000000000E+00  0.21801213097E+03  0.21801213097E+03  0.00000000000E+00 0. -1.
         21   -1    0    0  502  503 -0.00000000000E+00 -0.00000000000E+00 -0.65749748352E+03  0.65749748352E+03  0.00000000000E+00 0. -1.
          6    1    1    2  501    0 -0.38109334910E+02 -0.86420840350E+02  0.15462812297E+03  0.24982942074E+03  0.17200000000E+03 0. -1.
         -6    1    1    2    0  503  0.38109334910E+02  0.86420840350E+02 -0.59411347552E+03  0.62568019374E+03  0.17200000000E+03 0. -1.
<mgrwt>
<rscale>  2 0.19622661E+03</rscale>
<asrwt>0</asrwt>
<pdfrwt beam="1">  1       21 0.54503033E-01 0.19622661E+03</pdfrwt>
<pdfrwt beam="2">  1       21 0.16437437E+00 0.19622661E+03</pdfrwt>
<totfact> 0.74098246E+02</totfact>
</mgrwt>
</event>
<event>
 4    1  0.1100959E+000  0.2702194E+03  0.7546771E-02  0.1101154E+00
         21   -1    0    0  501  502  0.00000000000E+00  0.00000000000E+00  0.41879431959E+03  0.41879431959E+03  0.00000000000E+00 0.  1.
         21   -1    0    0  502  503 -0.00000000000E+00 -0.00000000000E+00 -0.19907994139E+03  0.19907994139E+03  0.00000000000E+00 0.  1.
          6    1    1    2  501    0 -0.50541302901E+02 -0.20218824774E+03  0.21873310184E+03  0.34765310392E+03  0.17200000000E+03 0.  1.
         -6    1    1    2    0  503  0.50541302901E+02  0.20218824774E+03  0.98127635562E+00  0.27022115706E+03  0.17200000000E+03 0.  1.
<mgrwt>
<rscale>  2 0.27021938E+03</rscale>
<asrwt>0</asrwt>
<pdfrwt beam="1">  1       21 0.10469858E+00 0.27021938E+03</pdfrwt>
<pdfrwt beam="2">  1       21 0.49769986E-01 0.27021938E+03</pdfrwt>
<totfact> 0.26698408E+03</totfact>
</mgrwt>
</event>
<event>
 4    1  0.1100959E+000  0.1777134E+03  0.7546771E-02  0.1170035E+00
         21   -1    0    0  501  502  0.00000000000E+00  0.00000000000E+00  0.29470354477E+03  0.29470354477E+03  0.00000000000E+00 0. -1.
         21   -1    0    0  502  503 -0.00000000000E+00 -0.00000000000E+00 -0.38936659234E+03  0.38936659234E+03  0.00000000000E+00 0. -1.
          6    1    1    2  501    0 -0.40477905847E+02  0.18963028155E+02  0.24385456721E+03  0.30174013198E+03  0.17200000000E+03 0. -1.
         -6    1    1    2    0  503  0.40477905847E+02 -0.18963028155E+02 -0.33851761479E+03  0.38233000513E+03  0.17200000000E+03 0. -1.
<mgrwt>
<rscale>  2 0.17771341E+03</rscale>
<asrwt>0</asrwt>
<pdfrwt beam="1">  1       21 0.73675886E-01 0.17771341E+03</pdfrwt>
<pdfrwt beam="2">  1       21 0.97341648E-01 0.17771341E+03</pdfrwt>
<totfact> 0.14687760E+03</totfact>
</mgrwt>
</event>
<event>
 4    1  0.1100959E+000  0.2312266E+03  0.7546771E-02  0.1125779E+00
         21   -1    0    0  501  502  0.00000000000E+00  0.00000000000E+00  0.81328131217E+03  0.81328131217E+03  0.00000000000E+00 0.  1.
         21   -1    0    0  502  503 -0.00000000000E+00 -0.00000000000E+00 -0.74014186794E+02  0.74014186794E+02  0.00000000000E+00 0.  1.
          6    1    1    2  501    0  0.13289849022E+03  0.78865160190E+02  0.51796179230E+03  0.56723023586E+03  0.17200000000E+03 0.  1.
         -6    1    1    2    0  503 -0.13289849022E+03 -0.78865160190E+02  0.22130533307E+03  0.32006526310E+03  0.17200000000E+03 0.  1.
<mgrwt>
<rscale>  2 0.23122656E+03</rscale>
<asrwt>0</asrwt>
<pdfrwt beam="1">  1       21 0.20332030E+00 0.23122656E+03</pdfrwt>
<pdfrwt beam="2">  1       21 0.18503549E-01 0.23122656E+03</pdfrwt>
<totfact> 0.32922384E+03</totfact>
</mgrwt>
</event>
<event>
 4    1  0.1100959E+000  0.1890368E+03  0.7546771E-02  0.1159333E+00
         21   -1    0    0  501  502  0.00000000000E+00  0.00000000000E+00  0.10200493589E+03  0.10200493589E+03  0.00000000000E+00 0. -1.
         21   -1    0    0  502  503 -0.00000000000E+00 -0.00000000000E+00 -0.70962749189E+03  0.70962749189E+03  0.00000000000E+00 0. -1.
          6    1    1    2  501    0 -0.77035562795E+02  0.14711408977E+02 -0.15046546598E+02  0.18963465415E+03  0.17200000000E+03 0. -1.
         -6    1    1    2    0  503  0.77035562795E+02 -0.14711408977E+02 -0.59257600940E+03  0.62199777363E+03  0.17200000000E+03 0. -1.
<mgrwt>
<rscale>  2 0.18903678E+03</rscale>
<asrwt>0</asrwt>
<pdfrwt beam="1">  1       21 0.25501234E-01 0.18903678E+03</pdfrwt>
<pdfrwt beam="2">  1       21 0.17740687E+00 0.18903678E+03</pdfrwt>
<totfact> 0.27737703E+03</totfact>
</mgrwt>
</event>
<event>
 4    1  0.1100959E+000  0.3093051E+03  0.7546771E-02  0.1080679E+00
         21   -1    0    0  501  502  0.00000000000E+00  0.00000000000E+00  0.40147443775E+03  0.40147443775E+03  0.00000000000E+00 0.  1.
         21   -1    0    0  502  503 -0.00000000000E+00 -0.00000000000E+00 -0.24983376861E+03  0.24983376861E+03  0.00000000000E+00 0.  1.
          6    1    1    2  501    0 -0.23146897195E+03 -0.11183819513E+03  0.58367928834E+01  0.30936020271E+03  0.17200000000E+03 0.  1.
         -6    1    1    2    0  503  0.23146897195E+03  0.11183819513E+03  0.14580387625E+03  0.34194800365E+03  0.17200000000E+03 0.  1.
<mgrwt>
<rscale>  2 0.30930514E+03</rscale>
<asrwt>0</asrwt>
<pdfrwt beam="1">  1       21 0.10036861E+00 0.30930514E+03</pdfrwt>
<pdfrwt beam="2">  1       21 0.62458443E-01 0.30930514E+03</pdfrwt>
<totfact> 0.17753319E+03</totfact>
</mgrwt>
</event>
<event>
 4    1  0.1100959E+000  0.2275983E+03  0.7546771E-02  0.1128342E+00
         21   -1    0    0  501  502  0.00000000000E+00  0.00000000000E+00  0.18088261627E+03  0.18088261627E+03  0.00000000000E+00 0. -1.
         21   -1    0    0  502  503 -0.00000000000E+00 -0.00000000000E+00 -0.43600451371E+03  0.43600451371E+03  0.00000000000E+00 0. -1.
          6    1    1    2  501    0 -0.11935104024E+03  0.89287813951E+02  0.53128600531E+02  0.23371699279E+03  0.17200000000E+03 0. -1.
         -6    1    1    2    0  503  0.11935104024E+03 -0.89287813951E+02 -0.30825049797E+03  0.38317013718E+03  0.17200000000E+03 0. -1.
<mgrwt>
<rscale>  2 0.22759830E+03</rscale>
<asrwt>0</asrwt>
<pdfrwt beam="1">  1       21 0.45220654E-01 0.22759830E+03</pdfrwt>
<pdfrwt beam="2">  1       21 0.10900113E+00 0.22759830E+03</pdfrwt>
<totfact> 0.30441782E+03</totfact>
</mgrwt>
</event>
<event>
 4    1  0.1100959E+000  0.2184041E+03  0.7546771E-02  0.1135078E+00
         21   -1    0    0  501  502  0.00000000000E+00  0.00000000000E+00  0.65907402603E+03  0.65907402603E+03  0.00000000000E+00 0. -1.
         21   -1    0    0  502  503 -0.00000000000E+00 -0.00000000000E+00 -0.99372327536E+02  0.99372327536E+02  0.00000000000E+00 0. -1.
          6    1    1    2  501    0 -0.50326250728E+02  0.12483441354E+03  0.47751321867E+03  0.52508974121E+03  0.17200000000E+03 0. -1.
         -6    1    1    2    0  503  0.50326250728E+02 -0.12483441354E+03  0.82188479822E+02  0.23335661236E+03  0.17200000000E+03 0. -1.
<mgrwt>
<rscale>  2 0.21840413E+03</rscale>
<asrwt>0</asrwt>
<pdfrwt beam="1">  1       21 0.16476849E+00 0.21840413E+03</pdfrwt>
<pdfrwt beam="2">  1       21 0.24843084E-01 0.21840413E+03</pdfrwt>
<totfact> 0.34838705E+03</totfact>
</mgrwt>
</event>
<event>
 4    1  0.1100959E+000  0.1945642E+03  0.7546771E-02  0.1154408E+00
         21   -1    0    0  501  502  0.00000000000E+00  0.00000000000E+00  0.47434682127E+03  0.47434682127E+03  0.00000000000E+00 0. -1.
         21   -1    0    0  502  503 -0.00000000000E+00 -0.00000000000E+00 -0.81344162173E+02  0.81344162173E+02  0.00000000000E+00 0. -1.
          6    1    1    2  501    0 -0.90898292849E+02  0.29571495428E+01  0.23472069295E+03  0.30487546322E+03  0.17200000000E+03 0. -1.
         -6    1    1    2    0  503  0.90898292849E+02 -0.29571495428E+01  0.15828196615E+03  0.25081552022E+03  0.17200000000E+03 0. -1.
<mgrwt>
<rscale>  2 0.19456424E+03</rscale>
<asrwt>0</asrwt>
<pdfrwt beam="1">  1       21 0.11858670E+00 0.19456424E+03</pdfrwt>
<pdfrwt beam="2">  1       21 0.20336042E-01 0.19456424E+03</pdfrwt>
<totfact> 0.12152462E+04</totfact>
</mgrwt>
</event>
<event>
 4    1  0.1100959E+000  0.1845705E+03  0.7546771E-02  0.1163452E+00
         21   -1    0    0  501  502  0.00000000000E+00  0.00000000000E+00  0.32858618256E+03  0.32858618256E+03  0.00000000000E+00 0.  1.
         21   -1    0    0  502  503 -0.00000000000E+00 -0.00000000000E+00 -0.10389086830E+03  0.10389086830E+03  0.00000000000E+00 0.  1.
          6    1    1    2  501    0 -0.62104570482E+02 -0.25005551194E+02  0.10249654584E+03  0.21112033814E+03  0.17200000000E+03 0. -1.
         -6    1    1    2    0  503  0.62104570482E+02  0.25005551194E+02  0.12219876842E+03  0.22135671272E+03  0.17200000000E+03 0. -1.
<mgrwt>
<rscale>  2 0.18457046E+03</rscale>
<asrwt>0</asrwt>
<pdfrwt beam="1">  1       21 0.82146543E-01 0.18457046E+03</pdfrwt>
<pdfrwt beam="2">  1       21 0.25972718E-01 0.18457046E+03</pdfrwt>
<totfact> 0.18328226E+04</totfact>
</mgrwt>
</event>
<event>
 4    1  0.1100959E+000  0.1917095E+03  0.7546771E-02  0.1156928E+00
         21   -1    0    0  501  502  0.00000000000E+00  0.00000000000E+00  0.43516900921E+03  0.43516900921E+03  0.00000000000E+00 0. -1.
         21   -1    0    0  502  503 -0.00000000000E+00 -0.00000000000E+00 -0.87822866069E+02  0.87822866069E+02  0.00000000000E+00 0. -1.
          6    1    1    2  501    0  0.84557823791E+02  0.43019890889E+01  0.22487532291E+03  0.29550201950E+03  0.17200000000E+03 0. -1.
         -6    1    1    2    0  503 -0.84557823791E+02 -0.43019890889E+01  0.12247082023E+03  0.22748985578E+03  0.17200000000E+03 0. -1.
<mgrwt>
<rscale>  2 0.19170950E+03</rscale>
<asrwt>0</asrwt>
<pdfrwt beam="1">  1       21 0.10879225E+00 0.19170950E+03</pdfrwt>
<pdfrwt beam="2">  1       21 0.21955718E-01 0.19170950E+03</pdfrwt>
<totfact> 0.13006140E+04</totfact>
</mgrwt>
</event>
<event>
 4    1  0.1100959E+000  0.1846919E+03  0.7546771E-02  0.1163338E+00
         21   -1    0    0  501  502  0.00000000000E+00  0.00000000000E+00  0.15714064088E+03  0.15714064088E+03  0.00000000000E+00 0. -1.
         21   -1    0    0  502  503 -0.00000000000E+00 -0.00000000000E+00 -0.78251348496E+03  0.78251348496E+03  0.00000000000E+00 0. -1.
          6    1    1    2  501    0 -0.20146647653E+02  0.64196774535E+02  0.86692613481E+02  0.20402627896E+03  0.17200000000E+03 0. -1.
         -6    1    1    2    0  503  0.20146647653E+02 -0.64196774535E+02 -0.71206545755E+03  0.73562784689E+03  0.17200000000E+03 0. -1.
<mgrwt>
<rscale>  2 0.18469194E+03</rscale>
<asrwt>0</asrwt>
<pdfrwt beam="1">  1       21 0.39285161E-01 0.18469194E+03</pdfrwt>
<pdfrwt beam="2">  1       21 0.19562837E+00 0.18469194E+03</pdfrwt>
<totfact> 0.90337002E+02</totfact>
</mgrwt>
</event>
<event>
 4    1  0.1100959E+000  0.2278011E+03  0.7546771E-02  0.1128197E+00
         21   -1    0    0  503  502  0.00000000000E+00  0.00000000000E+00  0.41176562465E+03  0.41176562465E+03  0.00000000000E+00 0. -1.
         21   -1    0    0  501  503 -0.00000000000E+00 -0.00000000000E+00 -0.13806443247E+03  0.13806443247E+03  0.00000000000E+00 0.  1.
          6    1    1    2  501    0 -0.10304532954E+03  0.10812500573E+03  0.55673303089E+02  0.23450559371E+03  0.17200000000E+03 0. -1.
         -6    1    1    2    0  502  0.10304532954E+03 -0.10812500573E+03  0.21802788909E+03  0.31532446341E+03  0.17200000000E+03 0.  1.
<mgrwt>
<rscale>  2 0.22780113E+03</rscale>
<asrwt>0</asrwt>
<pdfrwt beam="1">  1       21 0.10294140E+00 0.22780113E+03</pdfrwt>
<pdfrwt beam="2">  1       21 0.34516109E-01 0.22780113E+03</pdfrwt>
<totfact> 0.60403526E+03</totfact>
</mgrwt>
</event>
<event>
 4    1  0.1100959E+000  0.1822916E+03  0.7546771E-02  0.1165603E+00
         21   -1    0    0  501  502  0.00000000000E+00  0.00000000000E+00  0.24906394001E+03  0.24906394001E+03  0.00000000000E+00 0.  1.
         21   -1    0    0  502  503 -0.00000000000E+00 -0.00000000000E+00 -0.15919665033E+03  0.15919665033E+03  0.00000000000E+00 0.  1.
          6    1    1    2  501    0 -0.32575385920E+02  0.50843733371E+02  0.12707263136E+03  0.22221092374E+03  0.17200000000E+03 0.  1.
         -6    1    1    2    0  503  0.32575385920E+02 -0.50843733371E+02 -0.37205341675E+02  0.18604966660E+03  0.17200000000E+03 0.  1.
<mgrwt>
<rscale>  2 0.18229164E+03</rscale>
<asrwt>0</asrwt>
<pdfrwt beam="1">  1       21 0.62265985E-01 0.18229164E+03</pdfrwt>
<pdfrwt beam="2">  1       21 0.39799163E-01 0.18229164E+03</pdfrwt>
<totfact> 0.14654205E+04</totfact>
</mgrwt>
</event>
<event>
 4    1  0.1100959E+000  0.1764848E+03  0.7546771E-02  0.1171249E+00
         21   -1    0    0  501  502  0.00000000000E+00  0.00000000000E+00  0.25360300688E+03  0.25360300688E+03  0.00000000000E+00 0. -1.
         21   -1    0    0  502  503 -0.00000000000E+00 -0.00000000000E+00 -0.28336191665E+03  0.28336191665E+03  0.00000000000E+00 0. -1.
          6    1    1    2  501    0 -0.87581588976E+01  0.38550800719E+02  0.18720963977E+03  0.25728256608E+03  0.17200000000E+03 0. -1.
         -6    1    1    2    0  503  0.87581588976E+01 -0.38550800719E+02 -0.21696854954E+03  0.27968235745E+03  0.17200000000E+03 0. -1.
<mgrwt>
<rscale>  2 0.17648476E+03</rscale>
<asrwt>0</asrwt>
<pdfrwt beam="1">  1       21 0.63400752E-01 0.17648476E+03</pdfrwt>
<pdfrwt beam="2">  1       21 0.70840479E-01 0.17648476E+03</pdfrwt>
<totfact> 0.42078064E+03</totfact>
</mgrwt>
</event>
<event>
 4    1  0.1100959E+000  0.1830845E+03  0.7546771E-02  0.1164851E+00
         21   -1    0    0  503  502  0.00000000000E+00  0.00000000000E+00  0.58502103310E+03  0.58502103310E+03  0.00000000000E+00 0. -1.
         21   -1    0    0  501  503 -0.00000000000E+00 -0.00000000000E+00 -0.58115395739E+02  0.58115395739E+02  0.00000000000E+00 0. -1.
          6    1    1    2  501    0  0.12790853856E+02  0.61419403532E+02  0.30161293373E+03  0.35283184503E+03  0.17200000000E+03 0.  1.
         -6    1    1    2    0  502 -0.12790853856E+02 -0.61419403532E+02  0.22529270363E+03  0.29030458381E+03  0.17200000000E+03 0.  1.
<mgrwt>
<rscale>  2 0.18308454E+03</rscale>
<asrwt>0</asrwt>
<pdfrwt beam="1">  1       21 0.14625524E+00 0.18308454E+03</pdfrwt>
<pdfrwt beam="2">  1       21 0.14528851E-01 0.18308454E+03</pdfrwt>
<totfact> 0.13369886E+04</totfact>
</mgrwt>
</event>
<event>
 4    1  0.1100959E+000  0.2920842E+03  0.7546771E-02  0.1089266E+00
         21   -1    0    0  503  502  0.00000000000E+00  0.00000000000E+00  0.26415595492E+03  0.26415595492E+03  0.00000000000E+00 0.  1.
         21   -1    0    0  501  503 -0.00000000000E+00 -0.00000000000E+00 -0.55444702255E+03  0.55444702255E+03  0.00000000000E+00 0. -1.
          6    1    1    2  501    0 -0.14576208840E+03 -0.18569488722E+03 -0.40961269568E+03  0.50308621330E+03  0.17200000000E+03 0. -1.
         -6    1    1    2    0  502  0.14576208840E+03  0.18569488722E+03  0.11932162805E+03  0.31551676417E+03  0.17200000000E+03 0.  1.
<mgrwt>
<rscale>  2 0.29208420E+03</rscale>
<asrwt>0</asrwt>
<pdfrwt beam="1">  1       21 0.66038989E-01 0.29208420E+03</pdfrwt>
<pdfrwt beam="2">  1       21 0.13861176E+00 0.29208420E+03</pdfrwt>
<totfact> 0.70833295E+02</totfact>
</mgrwt>
</event>
<event>
 4    1  0.1100959E+000  0.1814772E+03  0.7546771E-02  0.1166381E+00
         21   -1    0    0  503  502  0.00000000000E+00  0.00000000000E+00  0.36369883287E+03  0.36369883287E+03  0.00000000000E+00 0. -1.
         21   -1    0    0  501  503 -0.00000000000E+00 -0.00000000000E+00 -0.45294058857E+03  0.45294058857E+03  0.00000000000E+00 0. -1.
          6    1    1    2  501    0 -0.54492901529E+02 -0.19506560540E+02 -0.40985087967E+03  0.44823177686E+03  0.17200000000E+03 0. -1.
         -6    1    1    2    0  502  0.54492901529E+02  0.19506560540E+02  0.32060912397E+03  0.36840764459E+03  0.17200000000E+03 0. -1.
<mgrwt>
<rscale>  2 0.18147722E+03</rscale>
<asrwt>0</asrwt>
<pdfrwt beam="1">  1       21 0.90924709E-01 0.18147722E+03</pdfrwt>
<pdfrwt beam="2">  1       21 0.11323515E+00 0.18147722E+03</pdfrwt>
<totfact> 0.63238873E+02</totfact>
</mgrwt>
</event>
<event>
 4    1  0.1100959E+000  0.1723711E+03  0.7546771E-02  0.1175397E+00
         21   -1    0    0  501  502  0.00000000000E+00  0.00000000000E+00  0.11735111678E+03  0.11735111678E+03  0.00000000000E+00 0. -1.
         21   -1    0    0  502  503 -0.00000000000E+00 -0.00000000000E+00 -0.34646217537E+03  0.34646217537E+03  0.00000000000E+00 0. -1.
          6    1    1    2  501    0  0.65349796094E+01  0.92252823327E+01  0.57727294181E+01  0.17246778307E+03  0.17200000000E+03 0. -1.
         -6    1    1    2    0  503 -0.65349796094E+01 -0.92252823327E+01 -0.23488378801E+03  0.29134550908E+03  0.17200000000E+03 0. -1.
<mgrwt>
<rscale>  2 0.17237115E+03</rscale>
<asrwt>0</asrwt>
<pdfrwt beam="1">  1       21 0.29337779E-01 0.17237115E+03</pdfrwt>
<pdfrwt beam="2">  1       21 0.86615543E-01 0.17237115E+03</pdfrwt>
<totfact> 0.12949939E+04</totfact>
</mgrwt>
</event>
<event>
 4    1  0.1100959E+000  0.2258142E+03  0.7546771E-02  0.1129621E+00
         21   -1    0    0  501  502  0.00000000000E+00  0.00000000000E+00  0.76208975161E+03  0.76208975161E+03  0.00000000000E+00 0. -1.
         21   -1    0    0  502  503 -0.00000000000E+00 -0.00000000000E+00 -0.83183196454E+02  0.83183196454E+02  0.00000000000E+00 0. -1.
          6    1    1    2  501    0  0.96283771316E+02 -0.11017028504E+03  0.15252519287E+03  0.27249952438E+03  0.17200000000E+03 0. -1.
         -6    1    1    2    0  503 -0.96283771316E+02  0.11017028504E+03  0.52638136228E+03  0.57277342369E+03  0.17200000000E+03 0. -1.
<mgrwt>
<rscale>  2 0.22581421E+03</rscale>
<asrwt>0</asrwt>
<pdfrwt beam="1">  1       21 0.19052242E+00 0.22581421E+03</pdfrwt>
<pdfrwt beam="2">  1       21 0.20795801E-01 0.22581421E+03</pdfrwt>
<totfact> 0.32216269E+03</totfact>
</mgrwt>
</event>
<event>
 4    1  0.1100959E+000  0.2160071E+03  0.7546771E-02  0.1136895E+00
         21   -1    0    0  503  502  0.00000000000E+00  0.00000000000E+00  0.49784625592E+03  0.49784625592E+03  0.00000000000E+00 0. -1.
         21   -1    0    0  501  503 -0.00000000000E+00 -0.00000000000E+00 -0.13778315507E+03  0.13778315507E+03  0.00000000000E+00 0. -1.
          6    1    1    2  501    0 -0.85894681049E+02  0.98474223013E+02  0.30814602033E+00  0.21600732345E+03  0.17200000000E+03 0. -1.
         -6    1    1    2    0  502  0.85894681049E+02 -0.98474223013E+02  0.35975495482E+03  0.41962208754E+03  0.17200000000E+03 0. -1.
<mgrwt>
<rscale>  2 0.21600710E+03</rscale>
<asrwt>0</asrwt>
<pdfrwt beam="1">  1       21 0.12446156E+00 0.21600710E+03</pdfrwt>
<pdfrwt beam="2">  1       21 0.34445790E-01 0.21600710E+03</pdfrwt>
<totfact> 0.38423580E+03</totfact>
</mgrwt>
</event>
<event>
 4    1  0.1100959E+000  0.1853138E+03  0.7546771E-02  0.1162757E+00
         21   -1    0    0  501  502  0.00000000000E+00  0.00000000000E+00  0.61108258320E+03  0.61108258320E+03  0.00000000000E+00 0. -1.
         21   -1    0    0  502  503 -0.00000000000E+00 -0.00000000000E+00 -0.65316783026E+02  0.65316783026E+02  0.00000000000E+00 0. -1.
          6    1    1    2  501    0 -0.30082806202E+02  0.62066474493E+02  0.39925310672E+03  0.44016390777E+03  0.17200000000E+03 0. -1.
         -6    1    1    2    0  503  0.30082806202E+02 -0.62066474493E+02  0.14651269346E+03  0.23623545845E+03  0.17200000000E+03 0. -1.
<mgrwt>
<rscale>  2 0.18531385E+03</rscale>
<asrwt>0</asrwt>
<pdfrwt beam="1">  1       21 0.15277063E+00 0.18531385E+03</pdfrwt>
<pdfrwt beam="2">  1       21 0.16329198E-01 0.18531385E+03</pdfrwt>
<totfact> 0.96212766E+03</totfact>
</mgrwt>
</event>
<event>
 4    1  0.1100959E+000  0.1793780E+03  0.7546771E-02  0.1168406E+00
         21   -1    0    0  501  502  0.00000000000E+00  0.00000000000E+00  0.56773808871E+03  0.56773808871E+03  0.00000000000E+00 0.  1.
         21   -1    0    0  502  503 -0.00000000000E+00 -0.00000000000E+00 -0.56753356941E+02  0.56753356941E+02  0.00000000000E+00 0.  1.
          6    1    1    2  501    0  0.47972055472E+02 -0.17062694449E+02  0.24387682730E+03  0.30274140870E+03  0.17200000000E+03 0.  1.
         -6    1    1    2    0  503 -0.47972055472E+02  0.17062694449E+02  0.26710790448E+03  0.32175003696E+03  0.17200000000E+03 0.  1.
<mgrwt>
<rscale>  2 0.17937796E+03</rscale>
<asrwt>0</asrwt>
<pdfrwt beam="1">  1       21 0.14193450E+00 0.17937796E+03</pdfrwt>
<pdfrwt beam="2">  1       21 0.14188341E-01 0.17937796E+03</pdfrwt>
<totfact> 0.15128356E+04</totfact>
</mgrwt>
</event>
<event>
 4    1  0.1100959E+000  0.2276499E+03  0.7546771E-02  0.1128305E+00
         21   -1    0    0  503  502  0.00000000000E+00  0.00000000000E+00  0.55053212560E+03  0.55053212560E+03  0.00000000000E+00 0. -1.
         21   -1    0    0  501  503 -0.00000000000E+00 -0.00000000000E+00 -0.94171441760E+02  0.94171441760E+02  0.00000000000E+00 0. -1.
          6    1    1    2  501    0 -0.14904215571E+03  0.51875854913E+01  0.23450037727E+03  0.32682549191E+03  0.17200000000E+03 0. -1.
         -6    1    1    2    0  502  0.14904215571E+03 -0.51875854913E+01  0.22186030657E+03  0.31787807545E+03  0.17200000000E+03 0. -1.
<mgrwt>
<rscale>  2 0.22764990E+03</rscale>
<asrwt>0</asrwt>
<pdfrwt beam="1">  1       21 0.13763302E+00 0.22764990E+03</pdfrwt>
<pdfrwt beam="2">  1       21 0.23542862E-01 0.22764990E+03</pdfrwt>
<totfact> 0.61829132E+03</totfact>
</mgrwt>
</event>
<event>
 4    1  0.1100959E+000  0.1908560E+03  0.7546771E-02  0.1157692E+00
         21   -1    0    0  503  502  0.00000000000E+00  0.00000000000E+00  0.72173630161E+02  0.72173630161E+02  0.00000000000E+00 0. -1.
         21   -1    0    0  501  503 -0.00000000000E+00 -0.00000000000E+00 -0.58789577741E+03  0.58789577741E+03  0.00000000000E+00 0. -1.
          6    1    1    2  501    0 -0.53917147361E+02  0.62729065988E+02 -0.38201527083E+03  0.42703824378E+03  0.17200000000E+03 0. -1.
         -6    1    1    2    0  502  0.53917147361E+02 -0.62729065988E+02 -0.13370687642E+03  0.23303116380E+03  0.17200000000E+03 0. -1.
<mgrwt>
<rscale>  2 0.19085595E+03</rscale>
<asrwt>0</asrwt>
<pdfrwt beam="1">  1       21 0.18043408E-01 0.19085595E+03</pdfrwt>
<pdfrwt beam="2">  1       21 0.14697394E+00 0.19085595E+03</pdfrwt>
<totfact> 0.88260875E+03</totfact>
</mgrwt>
</event>
<event>
 4    1  0.1100959E+000  0.2085387E+03  0.7546771E-02  0.1142728E+00
         21   -1    0    0  501  502  0.00000000000E+00  0.00000000000E+00  0.49061122873E+02  0.49061122873E+02  0.00000000000E+00 0.  1.
         21   -1    0    0  502  503 -0.00000000000E+00 -0.00000000000E+00 -0.12745297386E+04  0.12745297386E+04  0.00000000000E+00 0. -1.
          6    1    1    2  501    0  0.19859476122E+02  0.11623245267E+03 -0.24753464627E+03  0.32366924931E+03  0.17200000000E+03 0.  1.
         -6    1    1    2    0  503 -0.19859476122E+02 -0.11623245267E+03 -0.97793396942E+03  0.99992161212E+03  0.17200000000E+03 0. -1.
<mgrwt>
<rscale>  2 0.20853868E+03</rscale>
<asrwt>0</asrwt>
<pdfrwt beam="1">  1       21 0.12265281E-01 0.20853868E+03</pdfrwt>
<pdfrwt beam="2">  1       21 0.31863243E+00 0.20853868E+03</pdfrwt>
<totfact> 0.14733420E+03</totfact>
</mgrwt>
</event>
<event>
 4    1  0.1100959E+000  0.1800767E+03  0.7546771E-02  0.1167729E+00
         21   -1    0    0  501  502  0.00000000000E+00  0.00000000000E+00  0.44889483437E+03  0.44889483437E+03  0.00000000000E+00 0. -1.
         21   -1    0    0  502  503 -0.00000000000E+00 -0.00000000000E+00 -0.74153774226E+02  0.74153774226E+02  0.00000000000E+00 0. -1.
          6    1    1    2  501    0 -0.39238070029E+02  0.36111017348E+02  0.14534385967E+03  0.23141406452E+03  0.17200000000E+03 0. -1.
         -6    1    1    2    0  503  0.39238070029E+02 -0.36111017348E+02  0.22939720047E+03  0.29163454407E+03  0.17200000000E+03 0. -1.
<mgrwt>
<rscale>  2 0.18007674E+03</rscale>
<asrwt>0</asrwt>
<pdfrwt beam="1">  1       21 0.11222370E+00 0.18007674E+03</pdfrwt>
<pdfrwt beam="2">  1       21 0.18538445E-01 0.18007674E+03</pdfrwt>
<totfact> 0.16677011E+04</totfact>
</mgrwt>
</event>
<event>
 4    1  0.1100959E+000  0.1840209E+03  0.7546771E-02  0.1163967E+00
         21   -1    0    0  503  502  0.00000000000E+00  0.00000000000E+00  0.35387839467E+03  0.35387839467E+03  0.00000000000E+00 0.  1.
         21   -1    0    0  501  503 -0.00000000000E+00 -0.00000000000E+00 -0.10779109781E+03  0.10779109781E+03  0.00000000000E+00 0. -1.
          6    1    1    2  501    0  0.38566695516E+02 -0.52842296644E+02  0.45710157511E+02  0.18961307133E+03  0.17200000000E+03 0. -1.
         -6    1    1    2    0  502 -0.38566695516E+02  0.52842296644E+02  0.20037713934E+03  0.27205642115E+03  0.17200000000E+03 0.  1.
<mgrwt>
<rscale>  2 0.18402092E+03</rscale>
<asrwt>0</asrwt>
<pdfrwt beam="1">  1       21 0.88469596E-01 0.18402092E+03</pdfrwt>
<pdfrwt beam="2">  1       21 0.26947775E-01 0.18402092E+03</pdfrwt>
<totfact> 0.14419341E+04</totfact>
</mgrwt>
</event>
<event>
 4    1  0.1100959E+000  0.2229304E+03  0.7546771E-02  0.1131717E+00
         21   -1    0    0  501  502  0.00000000000E+00  0.00000000000E+00  0.18705388502E+03  0.18705388502E+03  0.00000000000E+00 0.  1.
         21   -1    0    0  502  503 -0.00000000000E+00 -0.00000000000E+00 -0.27133674475E+03  0.27133674475E+03  0.00000000000E+00 0.  1.
          6    1    1    2  501    0 -0.97859498761E+02  0.10265230737E+03 -0.90720266461E+01  0.22311494655E+03  0.17200000000E+03 0.  1.
         -6    1    1    2    0  503  0.97859498761E+02 -0.10265230737E+03 -0.75210833085E+02  0.23527568323E+03  0.17200000000E+03 0.  1.
<mgrwt>
<rscale>  2 0.22293043E+03</rscale>
<asrwt>0</asrwt>
<pdfrwt beam="1">  1       21 0.46763472E-01 0.22293043E+03</pdfrwt>
<pdfrwt beam="2">  1       21 0.67834186E-01 0.22293043E+03</pdfrwt>
<totfact> 0.85145913E+03</totfact>
</mgrwt>
</event>
<event>
 4    1  0.1100959E+000  0.1983004E+03  0.7546771E-02  0.1151181E+00
         21   -1    0    0  501  502  0.00000000000E+00  0.00000000000E+00  0.14751791374E+03  0.14751791374E+03  0.00000000000E+00 0. -1.
         21   -1    0    0  502  503 -0.00000000000E+00 -0.00000000000E+00 -0.41067211608E+03  0.41067211608E+03  0.00000000000E+00 0. -1.
          6    1    1    2  501    0 -0.98540362332E+02 -0.53712331541E+01  0.33751424487E+02  0.20115221055E+03  0.17200000000E+03 0. -1.
         -6    1    1    2    0  503  0.98540362332E+02  0.53712331541E+01 -0.29690562683E+03  0.35703781928E+03  0.17200000000E+03 0. -1.
<mgrwt>
<rscale>  2 0.19830041E+03</rscale>
<asrwt>0</asrwt>
<pdfrwt beam="1">  1       21 0.36879479E-01 0.19830041E+03</pdfrwt>
<pdfrwt beam="2">  1       21 0.10266803E+00 0.19830041E+03</pdfrwt>
<totfact> 0.54430284E+03</totfact>
</mgrwt>
</event>
<event>
 4    1  0.1100959E+000  0.2096137E+03  0.7546771E-02  0.1141872E+00
         21   -1    0    0  501  502  0.00000000000E+00  0.00000000000E+00  0.70225665563E+02  0.70225665563E+02  0.00000000000E+00 0.  1.
         21   -1    0    0  502  503 -0.00000000000E+00 -0.00000000000E+00 -0.64301814959E+03  0.64301814959E+03  0.00000000000E+00 0.  1.
          6    1    1    2  501    0  0.31432896376E+02 -0.11561095553E+03 -0.22781566219E+03  0.30957696289E+03  0.17200000000E+03 0.  1.
         -6    1    1    2    0  503 -0.31432896376E+02  0.11561095553E+03 -0.34497682184E+03  0.40366685226E+03  0.17200000000E+03 0.  1.
<mgrwt>
<rscale>  2 0.20961374E+03</rscale>
<asrwt>0</asrwt>
<pdfrwt beam="1">  1       21 0.17556417E-01 0.20961374E+03</pdfrwt>
<pdfrwt beam="2">  1       21 0.16075453E+00 0.20961374E+03</pdfrwt>
<totfact> 0.72080113E+03</totfact>
</mgrwt>
</event>
<event>
 4    1  0.1100959E+000  0.1855945E+03  0.7546771E-02  0.1162496E+00
         21   -1    0    0  503  502  0.00000000000E+00  0.00000000000E+00  0.28452993007E+03  0.28452993007E+03  0.00000000000E+00 0. -1.
         21   -1    0    0  501  503 -0.00000000000E+00 -0.00000000000E+00 -0.18476909377E+03  0.18476909377E+03  0.00000000000E+00 0. -1.
          6    1    1    2  501    0  0.66919471607E+02  0.19573119510E+02 -0.87905284413E+02  0.20535983472E+03  0.17200000000E+03 0. -1.
         -6    1    1    2    0  502 -0.66919471607E+02 -0.19573119510E+02  0.18766612072E+03  0.26393918912E+03  0.17200000000E+03 0. -1.
<mgrwt>
<rscale>  2 0.18559451E+03</rscale>
<asrwt>0</asrwt>
<pdfrwt beam="1">  1       21 0.71132482E-01 0.18559451E+03</pdfrwt>
<pdfrwt beam="2">  1       21 0.46192274E-01 0.18559451E+03</pdfrwt>
<totfact> 0.80715705E+03</totfact>
</mgrwt>
</event>
<event>
 4    1  0.1100959E+000  0.2715306E+03  0.7546771E-02  0.1100407E+00
         21   -1    0    0  503  502  0.00000000000E+00  0.00000000000E+00  0.24292079064E+03  0.24292079064E+03  0.00000000000E+00 0. -1.
         21   -1    0    0  501  503 -0.00000000000E+00 -0.00000000000E+00 -0.33305184878E+03  0.33305184878E+03  0.00000000000E+00 0. -1.
          6    1    1    2  501    0 -0.54641880368E+02  0.20287716777E+03  0.40704397336E+02  0.27456461581E+03  0.17200000000E+03 0. -1.
         -6    1    1    2    0  502  0.54641880368E+02 -0.20287716777E+03 -0.13083545548E+03  0.30140802362E+03  0.17200000000E+03 0. -1.
<mgrwt>
<rscale>  2 0.27153062E+03</rscale>
<asrwt>0</asrwt>
<pdfrwt beam="1">  1       21 0.60730198E-01 0.27153062E+03</pdfrwt>
<pdfrwt beam="2">  1       21 0.83262962E-01 0.27153062E+03</pdfrwt>
<totfact> 0.29940352E+03</totfact>
</mgrwt>
</event>
<event>
 4    1  0.1100959E+000  0.2043293E+03  0.7546771E-02  0.1146137E+00
         21   -1    0    0  503  502  0.00000000000E+00  0.00000000000E+00  0.13037155927E+03  0.13037155927E+03  0.00000000000E+00 0. -1.
         21   -1    0    0  501  503 -0.00000000000E+00 -0.00000000000E+00 -0.32768334808E+03  0.32768334808E+03  0.00000000000E+00 0.  1.
          6    1    1    2  501    0 -0.16406347822E+02 -0.10907465051E+03 -0.13316919137E+03  0.24389440576E+03  0.17200000000E+03 0.  1.
         -6    1    1    2    0  502  0.16406347822E+02  0.10907465051E+03 -0.64142597440E+02  0.21416050158E+03  0.17200000000E+03 0. -1.
<mgrwt>
<rscale>  2 0.20432926E+03</rscale>
<asrwt>0</asrwt>
<pdfrwt beam="1">  1       21 0.32592890E-01 0.20432926E+03</pdfrwt>
<pdfrwt beam="2">  1       21 0.81920836E-01 0.20432926E+03</pdfrwt>
<totfact> 0.11715259E+04</totfact>
</mgrwt>
</event>
<event>
 4    1  0.1100959E+000  0.1735553E+03  0.7546771E-02  0.1174190E+00
         21   -1    0    0  503  502  0.00000000000E+00  0.00000000000E+00  0.81791235715E+02  0.81791235715E+02  0.00000000000E+00 0. -1.
         21   -1    0    0  501  503 -0.00000000000E+00 -0.00000000000E+00 -0.68224095866E+03  0.68224095866E+03  0.00000000000E+00 0. -1.
          6    1    1    2  501    0 -0.23179208147E+02  0.40325056313E+00 -0.55937771009E+03  0.58568324276E+03  0.17200000000E+03 0. -1.
         -6    1    1    2    0  502  0.23179208147E+02 -0.40325056313E+00 -0.41072012847E+02  0.17834895161E+03  0.17200000000E+03 0. -1.
<mgrwt>
<rscale>  2 0.17355529E+03</rscale>
<asrwt>0</asrwt>
<pdfrwt beam="1">  1       21 0.20447810E-01 0.17355529E+03</pdfrwt>
<pdfrwt beam="2">  1       21 0.17056023E+00 0.17355529E+03</pdfrwt>
<totfact> 0.47654601E+03</totfact>
</mgrwt>
</event>
<event>
 4    1  0.1100959E+000  0.2556107E+03  0.7546771E-02  0.1109809E+00
         21   -1    0    0  503  502  0.00000000000E+00  0.00000000000E+00  0.70128787886E+03  0.70128787886E+03  0.00000000000E+00 0. -1.
         21   -1    0    0  501  503 -0.00000000000E+00 -0.00000000000E+00 -0.93382247823E+02  0.93382247823E+02  0.00000000000E+00 0.  1.
          6    1    1    2  501    0  0.18290180725E+03 -0.47955550365E+02  0.28487134239E+03  0.38273814498E+03  0.17200000000E+03 0. -1.
         -6    1    1    2    0  502 -0.18290180725E+03  0.47955550365E+02  0.32303428865E+03  0.41193198171E+03  0.17200000000E+03 0. -1.
<mgrwt>
<rscale>  2 0.25561065E+03</rscale>
<asrwt>0</asrwt>
<pdfrwt beam="1">  1       21 0.17532195E+00 0.25561065E+03</pdfrwt>
<pdfrwt beam="2">  1       21 0.23345564E-01 0.25561065E+03</pdfrwt>
<totfact> 0.32088639E+03</totfact>
</mgrwt>
</event>
<event>
 4    1  0.1100959E+000  0.2298499E+03  0.7546771E-02  0.1126745E+00
         21   -1    0    0  503  502  0.00000000000E+00  0.00000000000E+00  0.17804156732E+03  0.17804156732E+03  0.00000000000E+00 0. -1.
         21   -1    0    0  501  503 -0.00000000000E+00 -0.00000000000E+00 -0.37146781110E+03  0.37146781110E+03  0.00000000000E+00 0.  1.
          6    1    1    2  501    0 -0.13399330288E+03  0.72751395591E+02 -0.21995075264E+03  0.31813409809E+03  0.17200000000E+03 0. -1.
         -6    1    1    2    0  502  0.13399330288E+03 -0.72751395591E+02  0.26524508862E+02  0.23137528033E+03  0.17200000000E+03 0. -1.
<mgrwt>
<rscale>  2 0.22984989E+03</rscale>
<asrwt>0</asrwt>
<pdfrwt beam="1">  1       21 0.44510392E-01 0.22984989E+03</pdfrwt>
<pdfrwt beam="2">  1       21 0.92866952E-01 0.22984989E+03</pdfrwt>
<totfact> 0.46028903E+03</totfact>
</mgrwt>
</event>
<event>
 4    1  0.1100959E+000  0.2086262E+03  0.7546771E-02  0.1142659E+00
         21   -1    0    0  503  502  0.00000000000E+00  0.00000000000E+00  0.98846181885E+03  0.98846181885E+03  0.00000000000E+00 0.  1.
         21   -1    0    0  501  503 -0.00000000000E+00 -0.00000000000E+00 -0.46844979390E+02  0.46844979390E+02  0.00000000000E+00 0.  1.
          6    1    1    2  501    0 -0.10568028342E+03 -0.52655220857E+02  0.59763699134E+03  0.63300463506E+03  0.17200000000E+03 0.  1.
         -6    1    1    2    0  502  0.10568028342E+03  0.52655220857E+02  0.34397984812E+03  0.40230216318E+03  0.17200000000E+03 0.  1.
<mgrwt>
<rscale>  2 0.20862621E+03</rscale>
<asrwt>0</asrwt>
<pdfrwt beam="1">  1       21 0.24711539E+00 0.20862621E+03</pdfrwt>
<pdfrwt beam="2">  1       21 0.11711248E-01 0.20862621E+03</pdfrwt>
<totfact> 0.41695080E+03</totfact>
</mgrwt>
</event>
<event>
 4    1  0.1100959E+000  0.2235872E+03  0.7546771E-02  0.1131237E+00
         21   -1    0    0  503  502  0.00000000000E+00  0.00000000000E+00  0.24813812280E+03  0.24813812280E+03  0.00000000000E+00 0.  1.
         21   -1    0    0  501  503 -0.00000000000E+00 -0.00000000000E+00 -0.21824577488E+03  0.21824577488E+03  0.00000000000E+00 0.  1.
          6    1    1    2  501    0  0.11718698066E+03  0.81697423118E+02 -0.49714596341E+02  0.22904758997E+03  0.17200000000E+03 0.  1.
         -6    1    1    2    0  502 -0.11718698066E+03 -0.81697423118E+02  0.79606944263E+02  0.23733630771E+03  0.17200000000E+03 0.  1.
<mgrwt>
<rscale>  2 0.22358725E+03</rscale>
<asrwt>0</asrwt>
<pdfrwt beam="1">  1       21 0.62034531E-01 0.22358725E+03</pdfrwt>
<pdfrwt beam="2">  1       21 0.54561444E-01 0.22358725E+03</pdfrwt>
<totfact> 0.74877682E+03</totfact>
</mgrwt>
</event>
<event>
 4    1  0.1100959E+000  0.1992660E+03  0.7546771E-02  0.1150360E+00
         21   -1    0    0  503  502  0.00000000000E+00  0.00000000000E+00  0.49902657414E+03  0.49902657414E+03  0.00000000000E+00 0.  1.
         21   -1    0    0  501  503 -0.00000000000E+00 -0.00000000000E+00 -0.86059076862E+02  0.86059076862E+02  0.00000000000E+00 0.  1.
          6    1    1    2  501    0 -0.24058197009E+02 -0.97694111845E+02  0.12614531724E+03  0.23583803212E+03  0.17200000000E+03 0.  1.
         -6    1    1    2    0  502  0.24058197009E+02  0.97694111845E+02  0.28682218004E+03  0.34924761888E+03  0.17200000000E+03 0.  1.
<mgrwt>
<rscale>  2 0.19926599E+03</rscale>
<asrwt>0</asrwt>
<pdfrwt beam="1">  1       21 0.12475664E+00 0.19926599E+03</pdfrwt>
<pdfrwt beam="2">  1       21 0.21514771E-01 0.19926599E+03</pdfrwt>
<totfact> 0.96032531E+03</totfact>
</mgrwt>
</event>
<event>
 4    1  0.1100959E+000  0.2592122E+03  0.7546771E-02  0.1107617E+00
         21   -1    0    0  501  502  0.00000000000E+00  0.00000000000E+00  0.85517077720E+03  0.85517077720E+03  0.00000000000E+00 0.  1.
         21   -1    0    0  502  503 -0.00000000000E+00 -0.00000000000E+00 -0.98811488169E+02  0.98811488169E+02  0.00000000000E+00 0. -1.
          6    1    1    2  501    0 -0.68453373219E+02  0.18144172766E+03  0.59406606981E+03  0.64815542900E+03  0.17200000000E+03 0.  1.
         -6    1    1    2    0  503  0.68453373219E+02 -0.18144172766E+03  0.16229321922E+03  0.30582683637E+03  0.17200000000E+03 0. -1.
<mgrwt>
<rscale>  2 0.25921220E+03</rscale>
<asrwt>0</asrwt>
<pdfrwt beam="1">  1       21 0.21379267E+00 0.25921220E+03</pdfrwt>
<pdfrwt beam="2">  1       21 0.24702875E-01 0.25921220E+03</pdfrwt>
<totfact> 0.15981056E+03</totfact>
</mgrwt>
</event>
<event>
 4    1  0.1100959E+000  0.2215482E+03  0.7546771E-02  0.1132734E+00
         21   -1    0    0  501  502  0.00000000000E+00  0.00000000000E+00  0.14556647519E+04  0.14556647519E+04  0.00000000000E+00 0.  1.
         21   -1    0    0  502  503 -0.00000000000E+00 -0.00000000000E+00 -0.80322978622E+02  0.80322978622E+02  0.00000000000E+00 0.  1.
          6    1    1    2  501    0  0.13834034701E+03  0.19014444121E+02  0.12726619270E+04  0.12918018351E+04  0.17200000000E+03 0.  1.
         -6    1    1    2    0  503 -0.13834034701E+03 -0.19014444121E+02  0.10267984627E+03  0.24418589543E+03  0.17200000000E+03 0.  1.
<mgrwt>
<rscale>  2 0.22154819E+03</rscale>
<asrwt>0</asrwt>
<pdfrwt beam="1">  1       21 0.36391610E+00 0.22154819E+03</pdfrwt>
<pdfrwt beam="2">  1       21 0.20080749E-01 0.22154819E+03</pdfrwt>
<totfact> 0.31693148E+02</totfact>
</mgrwt>
</event>
<event>
 4    1  0.1100959E+000  0.2049099E+03  0.7546771E-02  0.1145661E+00
         21   -1    0    0  501  502  0.00000000000E+00  0.00000000000E+00  0.37229251214E+02  0.37229251214E+02  0.00000000000E+00 0.  1.
         21   -1    0    0  502  503 -0.00000000000E+00 -0.00000000000E+00 -0.11789276627E+04  0.11789276627E+04  0.00000000000E+00 0.  1.
          6    1    1    2  501    0 -0.94707101588E+02 -0.58605748518E+02 -0.69745077954E+03  0.72692892275E+03  0.17200000000E+03 0.  1.
         -6    1    1    2    0  503  0.94707101588E+02  0.58605748518E+02 -0.44424763199E+03  0.48922799120E+03  0.17200000000E+03 0.  1.
<mgrwt>
<rscale>  2 0.20490990E+03</rscale>
<asrwt>0</asrwt>
<pdfrwt beam="1">  1       21 0.93073135E-02 0.20490990E+03</pdfrwt>
<pdfrwt beam="2">  1       21 0.29473189E+00 0.20490990E+03</pdfrwt>
<totfact> 0.33230561E+03</totfact>
</mgrwt>
</event>
<event>
 4    1  0.1100959E+000  0.2519672E+03  0.7546771E-02  0.1112068E+00
         21   -1    0    0  503  502  0.00000000000E+00  0.00000000000E+00  0.14133122772E+04  0.14133122772E+04  0.00000000000E+00 0. -1.
         21   -1    0    0  501  503 -0.00000000000E+00 -0.00000000000E+00 -0.96550923174E+02  0.96550923174E+02  0.00000000000E+00 0.  1.
          6    1    1    2  501    0 -0.18336077538E+03 -0.16801596597E+02  0.10632875034E+03  0.27348358405E+03  0.17200000000E+03 0.  1.
         -6    1    1    2    0  502  0.18336077538E+03  0.16801596597E+02  0.12104326037E+04  0.12363796164E+04  0.17200000000E+03 0. -1.
<mgrwt>
<rscale>  2 0.25196720E+03</rscale>
<asrwt>0</asrwt>
<pdfrwt beam="1">  1       21 0.35332800E+00 0.25196720E+03</pdfrwt>
<pdfrwt beam="2">  1       21 0.24137735E-01 0.25196720E+03</pdfrwt>
<totfact> 0.24872301E+02</totfact>
</mgrwt>
</event>
<event>
 4    1  0.1100959E+000  0.2054792E+03  0.7546771E-02  0.1145197E+00
         21   -1    0    0  501  502  0.00000000000E+00  0.00000000000E+00  0.10705687410E+04  0.10705687410E+04  0.00000000000E+00 0. -1.
         21   -1    0    0  502  503 -0.00000000000E+00 -0.00000000000E+00 -0.39459875439E+02  0.39459875439E+02  0.00000000000E+00 0. -1.
          6    1    1    2  501    0  0.97884453086E+02 -0.55284313883E+02  0.52844490451E+03  0.56698830554E+03  0.17200000000E+03 0. -1.
         -6    1    1    2    0  503 -0.97884453086E+02  0.55284313883E+02  0.50266396102E+03  0.54304031087E+03  0.17200000000E+03 0. -1.
<mgrwt>
<rscale>  2 0.20547925E+03</rscale>
<asrwt>0</asrwt>
<pdfrwt beam="1">  1       21 0.26764209E+00 0.20547925E+03</pdfrwt>
<pdfrwt beam="2">  1       21 0.98649724E-02 0.20547925E+03</pdfrwt>
<totfact> 0.43007136E+03</totfact>
</mgrwt>
</event>
<event>
 4    1  0.1100959E+000  0.1785921E+03  0.7546771E-02  0.1169173E+00
         21   -1    0    0  503  502  0.00000000000E+00  0.00000000000E+00  0.43953217865E+03  0.43953217865E+03  0.00000000000E+00 0. -1.
         21   -1    0    0  501  503 -0.00000000000E+00 -0.00000000000E+00 -0.99283372732E+02  0.99283372732E+02  0.00000000000E+00 0. -1.
          6    1    1    2  501    0  0.46921146743E+02  0.10466558851E+02  0.30369259389E+02  0.18115583011E+03  0.17200000000E+03 0. -1.
         -6    1    1    2    0  502 -0.46921146743E+02 -0.10466558851E+02  0.30987954653E+03  0.35765972127E+03  0.17200000000E+03 0. -1.
<mgrwt>
<rscale>  2 0.17859211E+03</rscale>
<asrwt>0</asrwt>
<pdfrwt beam="1">  1       21 0.10988304E+00 0.17859211E+03</pdfrwt>
<pdfrwt beam="2">  1       21 0.24820844E-01 0.17859211E+03</pdfrwt>
<totfact> 0.10157338E+04</totfact>
</mgrwt>
</event>
<event>
 4    1  0.1100959E+000  0.1789265E+03  0.7546771E-02  0.1168846E+00
         21   -1    0    0  501  502  0.00000000000E+00  0.00000000000E+00  0.29090356387E+02  0.29090356387E+02  0.00000000000E+00 0.  1.
         21   -1    0    0  502  503 -0.00000000000E+00 -0.00000000000E+00 -0.11802958729E+04  0.11802958729E+04  0.00000000000E+00 0.  1.
          6    1    1    2  501    0  0.84284876546E+01 -0.48576394331E+02 -0.41840081430E+03  0.45505378462E+03  0.17200000000E+03 0.  1.
         -6    1    1    2    0  503 -0.84284876546E+01  0.48576394331E+02 -0.73280470221E+03  0.75433244466E+03  0.17200000000E+03 0.  1.
<mgrwt>
<rscale>  2 0.17892654E+03</rscale>
<asrwt>0</asrwt>
<pdfrwt beam="1">  1       21 0.72725891E-02 0.17892654E+03</pdfrwt>
<pdfrwt beam="2">  1       21 0.29507397E+00 0.17892654E+03</pdfrwt>
<totfact> 0.52439546E+03</totfact>
</mgrwt>
</event>
<event>
 4    1  0.1100959E+000  0.1964499E+03  0.7546771E-02  0.1152769E+00
         21   -1    0    0  503  502  0.00000000000E+00  0.00000000000E+00  0.21982292574E+03  0.21982292574E+03  0.00000000000E+00 0.  1.
         21   -1    0    0  501  503 -0.00000000000E+00 -0.00000000000E+00 -0.23769691098E+03  0.23769691098E+03  0.00000000000E+00 0. -1.
          6    1    1    2  501    0 -0.30575880922E+02 -0.89853603665E+02 -0.12589661862E+03  0.23332919484E+03  0.17200000000E+03 0. -1.
         -6    1    1    2    0  502  0.30575880922E+02  0.89853603665E+02  0.10802263338E+03  0.22419064188E+03  0.17200000000E+03 0.  1.
<mgrwt>
<rscale>  2 0.19644988E+03</rscale>
<asrwt>0</asrwt>
<pdfrwt beam="1">  1       21 0.54955732E-01 0.19644988E+03</pdfrwt>
<pdfrwt beam="2">  1       21 0.59424228E-01 0.19644988E+03</pdfrwt>
<totfact> 0.82431721E+03</totfact>
</mgrwt>
</event>
<event>
 4    1  0.1100959E+000  0.1819543E+03  0.7546771E-02  0.1165925E+00
         21   -1    0    0  503  502  0.00000000000E+00  0.00000000000E+00  0.30068529696E+03  0.30068529696E+03  0.00000000000E+00 0. -1.
         21   -1    0    0  501  503 -0.00000000000E+00 -0.00000000000E+00 -0.13652592627E+03  0.13652592627E+03  0.00000000000E+00 0. -1.
          6    1    1    2  501    0  0.39674915876E+02  0.44150696638E+02  0.17824446736E+03  0.25471253033E+03  0.17200000000E+03 0. -1.
         -6    1    1    2    0  502 -0.39674915876E+02 -0.44150696638E+02 -0.14085096659E+02  0.18249869290E+03  0.17200000000E+03 0. -1.
<mgrwt>
<rscale>  2 0.18195434E+03</rscale>
<asrwt>0</asrwt>
<pdfrwt beam="1">  1       21 0.75171323E-01 0.18195434E+03</pdfrwt>
<pdfrwt beam="2">  1       21 0.34131482E-01 0.18195434E+03</pdfrwt>
<totfact> 0.13176052E+04</totfact>
</mgrwt>
</event>
<event>
 4    1  0.1100959E+000  0.2022765E+03  0.7546771E-02  0.1147832E+00
         21   -1    0    0  501  502  0.00000000000E+00  0.00000000000E+00  0.67636214526E+02  0.67636214526E+02  0.00000000000E+00 0. -1.
         21   -1    0    0  502  503 -0.00000000000E+00 -0.00000000000E+00 -0.92248548747E+03  0.92248548747E+03  0.00000000000E+00 0. -1.
          6    1    1    2  501    0  0.27822421256E+02  0.10275065594E+03 -0.13696722352E+03  0.24428631714E+03  0.17200000000E+03 0. -1.
         -6    1    1    2    0  503 -0.27822421256E+02 -0.10275065594E+03 -0.71788204942E+03  0.74583538485E+03  0.17200000000E+03 0. -1.
<mgrwt>
<rscale>  2 0.20227650E+03</rscale>
<asrwt>0</asrwt>
<pdfrwt beam="1">  1       21 0.16909054E-01 0.20227650E+03</pdfrwt>
<pdfrwt beam="2">  1       21 0.23062137E+00 0.20227650E+03</pdfrwt>
<totfact> 0.27041589E+03</totfact>
</mgrwt>
</event>
<event>
 4    1  0.1100959E+000  0.4091606E+03  0.7546771E-02  0.1040653E+00
         21   -1    0    0  501  502  0.00000000000E+00  0.00000000000E+00  0.45596308968E+03  0.45596308968E+03  0.00000000000E+00 0.  1.
         21   -1    0    0  502  503 -0.00000000000E+00 -0.00000000000E+00 -0.42717688114E+03  0.42717688114E+03  0.00000000000E+00 0. -1.
          6    1    1    2  501    0 -0.37104067558E+03 -0.12537963618E+02  0.17990325965E+03  0.44696483788E+03  0.17200000000E+03 0.  1.
         -6    1    1    2    0  503  0.37104067558E+03  0.12537963618E+02 -0.15111705111E+03  0.43617513295E+03  0.17200000000E+03 0. -1.
<mgrwt>
<rscale>  2 0.40916058E+03</rscale>
<asrwt>0</asrwt>
<pdfrwt beam="1">  1       21 0.11399077E+00 0.40916058E+03</pdfrwt>
<pdfrwt beam="2">  1       21 0.10679422E+00 0.40916058E+03</pdfrwt>
<totfact> 0.35558696E+02</totfact>
</mgrwt>
</event>
<event>
 4    1  0.1100959E+000  0.2549661E+03  0.7546771E-02  0.1110206E+00
         21   -1    0    0  501  502  0.00000000000E+00  0.00000000000E+00  0.24944230208E+03  0.24944230208E+03  0.00000000000E+00 0.  1.
         21   -1    0    0  502  503 -0.00000000000E+00 -0.00000000000E+00 -0.27732755588E+03  0.27732755588E+03  0.00000000000E+00 0.  1.
          6    1    1    2  501    0  0.18818414847E+03  0.32323353404E+01 -0.78604973552E+02  0.26680791517E+03  0.17200000000E+03 0.  1.
         -6    1    1    2    0  503 -0.18818414847E+03 -0.32323353404E+01  0.50719719753E+02  0.25996194279E+03  0.17200000000E+03 0.  1.
<mgrwt>
<rscale>  2 0.25496612E+03</rscale>
<asrwt>0</asrwt>
<pdfrwt beam="1">  1       21 0.62360575E-01 0.25496612E+03</pdfrwt>
<pdfrwt beam="2">  1       21 0.69331889E-01 0.25496612E+03</pdfrwt>
<totfact> 0.43170213E+03</totfact>
</mgrwt>
</event>
<event>
 4    1  0.1100959E+000  0.1900961E+03  0.7546771E-02  0.1158375E+00
         21   -1    0    0  501  502  0.00000000000E+00  0.00000000000E+00  0.39958953906E+02  0.39958953906E+02  0.00000000000E+00 0. -1.
         21   -1    0    0  502  503 -0.00000000000E+00 -0.00000000000E+00 -0.14146119047E+04  0.14146119047E+04  0.00000000000E+00 0. -1.
          6    1    1    2  501    0  0.68420419180E+02 -0.43257249415E+02 -0.25052269340E+03  0.31448078367E+03  0.17200000000E+03 0. -1.
         -6    1    1    2    0  503 -0.68420419180E+02  0.43257249415E+02 -0.11241302574E+04  0.11400900749E+04  0.17200000000E+03 0. -1.
<mgrwt>
<rscale>  2 0.19009614E+03</rscale>
<asrwt>0</asrwt>
<pdfrwt beam="1">  1       21 0.99897384E-02 0.19009614E+03</pdfrwt>
<pdfrwt beam="2">  1       21 0.35365298E+00 0.19009614E+03</pdfrwt>
<totfact> 0.13576007E+03</totfact>
</mgrwt>
</event>
<event>
 4    1  0.1100959E+000  0.2088030E+03  0.7546771E-02  0.1142517E+00
         21   -1    0    0  503  502  0.00000000000E+00  0.00000000000E+00  0.33288130451E+03  0.33288130451E+03  0.00000000000E+00 0.  1.
         21   -1    0    0  501  503 -0.00000000000E+00 -0.00000000000E+00 -0.15709383986E+03  0.15709383986E+03  0.00000000000E+00 0. -1.
          6    1    1    2  501    0 -0.41044034203E+02  0.11104081940E+03 -0.12003330584E+02  0.20914769007E+03  0.17200000000E+03 0. -1.
         -6    1    1    2    0  502  0.41044034203E+02 -0.11104081940E+03  0.18779079523E+03  0.28082745430E+03  0.17200000000E+03 0.  1.
<mgrwt>
<rscale>  2 0.20880296E+03</rscale>
<asrwt>0</asrwt>
<pdfrwt beam="1">  1       21 0.83220325E-01 0.20880296E+03</pdfrwt>
<pdfrwt beam="2">  1       21 0.39273461E-01 0.20880296E+03</pdfrwt>
<totfact> 0.77695977E+03</totfact>
</mgrwt>
</event>
<event>
 4    1  0.1100959E+000  0.1895249E+03  0.7546771E-02  0.1158891E+00
         21   -1    0    0  503  502  0.00000000000E+00  0.00000000000E+00  0.45133761656E+03  0.45133761656E+03  0.00000000000E+00 0.  1.
         21   -1    0    0  501  503 -0.00000000000E+00 -0.00000000000E+00 -0.85994905874E+02  0.85994905874E+02  0.00000000000E+00 0.  1.
          6    1    1    2  501    0  0.57234628088E+02  0.55316330866E+02  0.25602183834E+03  0.31853866456E+03  0.17200000000E+03 0.  1.
         -6    1    1    2    0  502 -0.57234628088E+02 -0.55316330866E+02  0.10932087234E+03  0.21879385787E+03  0.17200000000E+03 0.  1.
<mgrwt>
<rscale>  2 0.18952493E+03</rscale>
<asrwt>0</asrwt>
<pdfrwt beam="1">  1       21 0.11283440E+00 0.18952493E+03</pdfrwt>
<pdfrwt beam="2">  1       21 0.21498728E-01 0.18952493E+03</pdfrwt>
<totfact> 0.12405124E+04</totfact>
</mgrwt>
</event>
<event>
 4    1  0.1100959E+000  0.1912361E+03  0.7546771E-02  0.1157351E+00
         21   -1    0    0  501  502  0.00000000000E+00  0.00000000000E+00  0.15510081612E+03  0.15510081612E+03  0.00000000000E+00 0.  1.
         21   -1    0    0  502  503 -0.00000000000E+00 -0.00000000000E+00 -0.25561526325E+03  0.25561526325E+03  0.00000000000E+00 0. -1.
          6    1    1    2  501    0 -0.23174731438E+02 -0.80313059044E+02  0.69334728602E+01  0.19136177433E+03  0.17200000000E+03 0.  1.
         -6    1    1    2    0  503  0.23174731438E+02  0.80313059044E+02 -0.10744791999E+03  0.21935430504E+03  0.17200000000E+03 0. -1.
<mgrwt>
<rscale>  2 0.19123613E+03</rscale>
<asrwt>0</asrwt>
<pdfrwt beam="1">  1       21 0.38775204E-01 0.19123613E+03</pdfrwt>
<pdfrwt beam="2">  1       21 0.63903815E-01 0.19123613E+03</pdfrwt>
<totfact> 0.14517456E+04</totfact>
</mgrwt>
</event>
<event>
 4    1  0.1100959E+000  0.2003089E+03  0.7546771E-02  0.1149479E+00
         21   -1    0    0  501  502  0.00000000000E+00  0.00000000000E+00  0.15918847320E+04  0.15918847320E+04  0.00000000000E+00 0. -1.
         21   -1    0    0  502  503 -0.00000000000E+00 -0.00000000000E+00 -0.27832383612E+02  0.27832383612E+02  0.00000000000E+00 0. -1.
          6    1    1    2  501    0 -0.10007284943E+03 -0.22914359039E+02  0.10308465479E+04  0.10501277295E+04  0.17200000000E+03 0. -1.
         -6    1    1    2    0  503  0.10007284943E+03  0.22914359039E+02  0.53320580049E+03  0.56958938607E+03  0.17200000000E+03 0. -1.
<mgrwt>
<rscale>  2 0.20030887E+03</rscale>
<asrwt>0</asrwt>
<pdfrwt beam="1">  1       21 0.39797088E+00 0.20030887E+03</pdfrwt>
<pdfrwt beam="2">  1       21 0.69581013E-02 0.20030887E+03</pdfrwt>
<totfact> 0.13554304E+03</totfact>
</mgrwt>
</event>
<event>
 4    1  0.1100959E+000  0.2031523E+03  0.7546771E-02  0.1147106E+00
         21   -1    0    0  501  502  0.00000000000E+00  0.00000000000E+00  0.47605459949E+03  0.47605459949E+03  0.00000000000E+00 0. -1.
         21   -1    0    0  502  503 -0.00000000000E+00 -0.00000000000E+00 -0.14768901867E+03  0.14768901867E+03  0.00000000000E+00 0.  1.
          6    1    1    2  501    0  0.41839351801E+02 -0.99681196836E+02  0.36460725636E+03  0.41738390452E+03  0.17200000000E+03 0. -1.
         -6    1    1    2    0  503 -0.41839351801E+02  0.99681196836E+02 -0.36241675545E+02  0.20635971363E+03  0.17200000000E+03 0.  1.
<mgrwt>
<rscale>  2 0.20315234E+03</rscale>
<asrwt>0</asrwt>
<pdfrwt beam="1">  1       21 0.11901365E+00 0.20315234E+03</pdfrwt>
<pdfrwt beam="2">  1       21 0.36922256E-01 0.20315234E+03</pdfrwt>
<totfact> 0.37798631E+03</totfact>
</mgrwt>
</event>
<event>
 4    1  0.1100959E+000  0.2429711E+03  0.7546771E-02  0.1117829E+00
         21   -1    0    0  501  502  0.00000000000E+00  0.00000000000E+00  0.17470198222E+03  0.17470198222E+03  0.00000000000E+00 0.  1.
         21   -1    0    0  502  503 -0.00000000000E+00 -0.00000000000E+00 -0.43140478924E+03  0.43140478924E+03  0.00000000000E+00 0. -1.
          6    1    1    2  501    0 -0.16960908327E+03  0.26147684617E+02  0.12724164199E+02  0.24330402153E+03  0.17200000000E+03 0.  1.
         -6    1    1    2    0  503  0.16960908327E+03 -0.26147684617E+02 -0.26942697122E+03  0.36280274993E+03  0.17200000000E+03 0. -1.
<mgrwt>
<rscale>  2 0.24297107E+03</rscale>
<asrwt>0</asrwt>
<pdfrwt beam="1">  1       21 0.43675496E-01 0.24297107E+03</pdfrwt>
<pdfrwt beam="2">  1       21 0.10785120E+00 0.24297107E+03</pdfrwt>
<totfact> 0.33186909E+03</totfact>
</mgrwt>
</event>
<event>
 4    1  0.1100959E+000  0.2334053E+03  0.7546771E-02  0.1124266E+00
         21   -1    0    0  501  502  0.00000000000E+00  0.00000000000E+00  0.10003373911E+03  0.10003373911E+03  0.00000000000E+00 0.  1.
         21   -1    0    0  502  503 -0.00000000000E+00 -0.00000000000E+00 -0.61910273675E+03  0.61910273675E+03  0.00000000000E+00 0. -1.
          6    1    1    2  501    0 -0.11375962830E+03 -0.10932883322E+03 -0.13479740673E+03  0.26953364848E+03  0.17200000000E+03 0.  1.
         -6    1    1    2    0  503  0.11375962830E+03  0.10932883322E+03 -0.38427159091E+03  0.44960282737E+03  0.17200000000E+03 0.  1.
<mgrwt>
<rscale>  2 0.23340533E+03</rscale>
<asrwt>0</asrwt>
<pdfrwt beam="1">  1       21 0.25008435E-01 0.23340533E+03</pdfrwt>
<pdfrwt beam="2">  1       21 0.15477568E+00 0.23340533E+03</pdfrwt>
<totfact> 0.40280204E+03</totfact>
</mgrwt>
</event>
<event>
 4    1  0.1100959E+000  0.1972891E+03  0.7546771E-02  0.1152047E+00
         21   -1    0    0  501  502  0.00000000000E+00  0.00000000000E+00  0.71728183263E+02  0.71728183263E+02  0.00000000000E+00 0. -1.
         21   -1    0    0  502  503 -0.00000000000E+00 -0.00000000000E+00 -0.20080444343E+04  0.20080444343E+04  0.00000000000E+00 0.  1.
          6    1    1    2  501    0  0.85580084563E+02 -0.44889103260E+02 -0.79822410544E+02  0.21282527973E+03  0.17200000000E+03 0. -1.
         -6    1    1    2    0  503 -0.85580084563E+02  0.44889103260E+02 -0.18564938404E+04  0.18669473378E+04  0.17200000000E+03 0. -1.
<mgrwt>
<rscale>  2 0.19728908E+03</rscale>
<asrwt>0</asrwt>
<pdfrwt beam="1">  1       21 0.17932047E-01 0.19728908E+03</pdfrwt>
<pdfrwt beam="2">  1       21 0.50201108E+00 0.19728908E+03</pdfrwt>
<totfact> 0.51345169E+01</totfact>
</mgrwt>
</event>
<event>
 4    1  0.1100959E+000  0.2479544E+03  0.7546771E-02  0.1114604E+00
         21   -1    0    0  501  502  0.00000000000E+00  0.00000000000E+00  0.27443358505E+03  0.27443358505E+03  0.00000000000E+00 0. -1.
         21   -1    0    0  502  503 -0.00000000000E+00 -0.00000000000E+00 -0.40349543774E+03  0.40349543774E+03  0.00000000000E+00 0. -1.
          6    1    1    2  501    0  0.14532488723E+03  0.10381749468E+03  0.16152981959E+03  0.29592782509E+03  0.17200000000E+03 0. -1.
         -6    1    1    2    0  503 -0.14532488723E+03 -0.10381749468E+03 -0.29059167227E+03  0.38200119770E+03  0.17200000000E+03 0. -1.
<mgrwt>
<rscale>  2 0.24795442E+03</rscale>
<asrwt>0</asrwt>
<pdfrwt beam="1">  1       21 0.68608397E-01 0.24795442E+03</pdfrwt>
<pdfrwt beam="2">  1       21 0.10087386E+00 0.24795442E+03</pdfrwt>
<totfact> 0.14854020E+03</totfact>
</mgrwt>
</event>
<event>
 4    1  0.1100959E+000  0.1726111E+03  0.7546771E-02  0.1175152E+00
         21   -1    0    0  501  502  0.00000000000E+00  0.00000000000E+00  0.13773925336E+03  0.13773925336E+03  0.00000000000E+00 0.  1.
         21   -1    0    0  502  503 -0.00000000000E+00 -0.00000000000E+00 -0.40646234504E+03  0.40646234504E+03  0.00000000000E+00 0.  1.
          6    1    1    2  501    0  0.22132446458E+01 -0.14342183703E+02  0.51748016165E+02  0.18020114834E+03  0.17200000000E+03 0.  1.
         -6    1    1    2    0  503 -0.22132446458E+01  0.14342183703E+02 -0.32047110784E+03  0.36400045007E+03  0.17200000000E+03 0.  1.
<mgrwt>
<rscale>  2 0.17261111E+03</rscale>
<asrwt>0</asrwt>
<pdfrwt beam="1">  1       21 0.34434814E-01 0.17261111E+03</pdfrwt>
<pdfrwt beam="2">  1       21 0.10161558E+00 0.17261111E+03</pdfrwt>
<totfact> 0.65243599E+03</totfact>
</mgrwt>
</event>
<event>
 4    1  0.1100959E+000  0.1781968E+03  0.7546771E-02  0.1169560E+00
         21   -1    0    0  503  502  0.00000000000E+00  0.00000000000E+00  0.22131185092E+03  0.22131185092E+03  0.00000000000E+00 0.  1.
         21   -1    0    0  501  503 -0.00000000000E+00 -0.00000000000E+00 -0.35549239026E+03  0.35549239026E+03  0.00000000000E+00 0. -1.
          6    1    1    2  501    0 -0.23882538052E+02 -0.39996610471E+02 -0.28981201436E+03  0.34021332740E+03  0.17200000000E+03 0. -1.
         -6    1    1    2    0  502  0.23882538052E+02  0.39996610471E+02  0.15563147501E+03  0.23659091379E+03  0.17200000000E+03 0.  1.
<mgrwt>
<rscale>  2 0.17819681E+03</rscale>
<asrwt>0</asrwt>
<pdfrwt beam="1">  1       21 0.55327963E-01 0.17819681E+03</pdfrwt>
<pdfrwt beam="2">  1       21 0.88873097E-01 0.17819681E+03</pdfrwt>
<totfact> 0.33732010E+03</totfact>
</mgrwt>
</event>
<event>
 4    1  0.1100959E+000  0.2193365E+03  0.7546771E-02  0.1134379E+00
         21   -1    0    0  503  502  0.00000000000E+00  0.00000000000E+00  0.27534027336E+03  0.27534027336E+03  0.00000000000E+00 0. -1.
         21   -1    0    0  501  503 -0.00000000000E+00 -0.00000000000E+00 -0.35840079744E+03  0.35840079744E+03  0.00000000000E+00 0. -1.
          6    1    1    2  501    0 -0.47657775728E+01 -0.13602130143E+03 -0.26837291845E+03  0.34660139993E+03  0.17200000000E+03 0. -1.
         -6    1    1    2    0  502  0.47657775728E+01  0.13602130143E+03  0.18531239437E+03  0.28713967087E+03  0.17200000000E+03 0. -1.
<mgrwt>
<rscale>  2 0.21933652E+03</rscale>
<asrwt>0</asrwt>
<pdfrwt beam="1">  1       21 0.68835068E-01 0.21933652E+03</pdfrwt>
<pdfrwt beam="2">  1       21 0.89600199E-01 0.21933652E+03</pdfrwt>
<totfact> 0.19938549E+03</totfact>
</mgrwt>
</event>
<event>
 4    1  0.1100959E+000  0.2151037E+03  0.7546771E-02  0.1137587E+00
         21   -1    0    0  503  502  0.00000000000E+00  0.00000000000E+00  0.71124051355E+03  0.71124051355E+03  0.00000000000E+00 0.  1.
         21   -1    0    0  501  503 -0.00000000000E+00 -0.00000000000E+00 -0.26080595485E+03  0.26080595485E+03  0.00000000000E+00 0. -1.
          6    1    1    2  501    0  0.94047109181E+02  0.88547912568E+02 -0.19584901055E+03  0.29090621599E+03  0.17200000000E+03 0. -1.
         -6    1    1    2    0  502 -0.94047109181E+02 -0.88547912568E+02  0.64628356926E+03  0.68114025241E+03  0.17200000000E+03 0.  1.
<mgrwt>
<rscale>  2 0.21510368E+03</rscale>
<asrwt>0</asrwt>
<pdfrwt beam="1">  1       21 0.17781012E+00 0.21510368E+03</pdfrwt>
<pdfrwt beam="2">  1       21 0.65201490E-01 0.21510368E+03</pdfrwt>
<totfact> 0.39722167E+02</totfact>
</mgrwt>
</event>
<event>
 4    1  0.1100959E+000  0.1886625E+03  0.7546771E-02  0.1159673E+00
         21   -1    0    0  501  502  0.00000000000E+00  0.00000000000E+00  0.55464571885E+02  0.55464571885E+02  0.00000000000E+00 0. -1.
         21   -1    0    0  502  503 -0.00000000000E+00 -0.00000000000E+00 -0.89880178029E+03  0.89880178029E+03  0.00000000000E+00 0. -1.
          6    1    1    2  501    0  0.68600720766E+02 -0.36103668358E+02 -0.16649779747E+03  0.25162482056E+03  0.17200000000E+03 0. -1.
         -6    1    1    2    0  503 -0.68600720766E+02  0.36103668358E+02 -0.67683941094E+03  0.70264153162E+03  0.17200000000E+03 0. -1.
<mgrwt>
<rscale>  2 0.18866249E+03</rscale>
<asrwt>0</asrwt>
<pdfrwt beam="1">  1       21 0.13866143E-01 0.18866249E+03</pdfrwt>
<pdfrwt beam="2">  1       21 0.22470045E+00 0.18866249E+03</pdfrwt>
<totfact> 0.42774525E+03</totfact>
</mgrwt>
</event>
<event>
 4    1  0.1100959E+000  0.1921366E+03  0.7546771E-02  0.1156548E+00
         21   -1    0    0  501  502  0.00000000000E+00  0.00000000000E+00  0.20871218598E+03  0.20871218598E+03  0.00000000000E+00 0. -1.
         21   -1    0    0  502  503 -0.00000000000E+00 -0.00000000000E+00 -0.19601274942E+03  0.19601274942E+03  0.00000000000E+00 0.  1.
          6    1    1    2  501    0 -0.57930392335E+02 -0.63059924355E+02  0.69577093948E+02  0.20434641278E+03  0.17200000000E+03 0. -1.
         -6    1    1    2    0  503  0.57930392335E+02  0.63059924355E+02 -0.56877657395E+02  0.20037852262E+03  0.17200000000E+03 0.  1.
<mgrwt>
<rscale>  2 0.19213663E+03</rscale>
<asrwt>0</asrwt>
<pdfrwt beam="1">  1       21 0.52178046E-01 0.19213663E+03</pdfrwt>
<pdfrwt beam="2">  1       21 0.49003187E-01 0.19213663E+03</pdfrwt>
<totfact> 0.13854398E+04</totfact>
</mgrwt>
</event>
<event>
 4    1  0.1100959E+000  0.2222132E+03  0.7546771E-02  0.1132244E+00
         21   -1    0    0  501  502  0.00000000000E+00  0.00000000000E+00  0.56328293897E+02  0.56328293897E+02  0.00000000000E+00 0.  1.
         21   -1    0    0  502  503 -0.00000000000E+00 -0.00000000000E+00 -0.14322835123E+04  0.14322835123E+04  0.00000000000E+00 0.  1.
          6    1    1    2  501    0  0.88188449324E+02 -0.10962427839E+03 -0.22437946814E+03  0.31579238548E+03  0.17200000000E+03 0.  1.
         -6    1    1    2    0  503 -0.88188449324E+02  0.10962427839E+03 -0.11515757503E+04  0.11728194208E+04  0.17200000000E+03 0.  1.
<mgrwt>
<rscale>  2 0.22221315E+03</rscale>
<asrwt>0</asrwt>
<pdfrwt beam="1">  1       21 0.14082074E-01 0.22221315E+03</pdfrwt>
<pdfrwt beam="2">  1       21 0.35807086E+00 0.22221315E+03</pdfrwt>
<totfact> 0.66066431E+02</totfact>
</mgrwt>
</event>
<event>
 4    1  0.1100959E+000  0.1789438E+03  0.7546771E-02  0.1168829E+00
         21   -1    0    0  501  502  0.00000000000E+00  0.00000000000E+00  0.33871521802E+03  0.33871521802E+03  0.00000000000E+00 0. -1.
         21   -1    0    0  502  503 -0.00000000000E+00 -0.00000000000E+00 -0.18820009355E+03  0.18820009355E+03  0.00000000000E+00 0. -1.
          6    1    1    2  501    0 -0.41042482982E+02  0.27429968400E+02  0.26111790874E+03  0.31654928659E+03  0.17200000000E+03 0.  1.
         -6    1    1    2    0  503  0.41042482982E+02 -0.27429968400E+02 -0.11060278427E+03  0.21036602497E+03  0.17200000000E+03 0.  1.
<mgrwt>
<rscale>  2 0.17894381E+03</rscale>
<asrwt>0</asrwt>
<pdfrwt beam="1">  1       21 0.84678804E-01 0.17894381E+03</pdfrwt>
<pdfrwt beam="2">  1       21 0.47050024E-01 0.17894381E+03</pdfrwt>
<totfact> 0.52822408E+03</totfact>
</mgrwt>
</event>
<event>
 4    1  0.1100959E+000  0.3156235E+03  0.7546771E-02  0.1077681E+00
         21   -1    0    0  501  502  0.00000000000E+00  0.00000000000E+00  0.34505294048E+03  0.34505294048E+03  0.00000000000E+00 0.  1.
         21   -1    0    0  502  503 -0.00000000000E+00 -0.00000000000E+00 -0.34723062091E+03  0.34723062091E+03  0.00000000000E+00 0. -1.
          6    1    1    2  501    0  0.99300363453E+02  0.24530316183E+03  0.14102007300E+03  0.34569475607E+03  0.17200000000E+03 0.  1.
         -6    1    1    2    0  503 -0.99300363453E+02 -0.24530316183E+03 -0.14319775343E+03  0.34658880532E+03  0.17200000000E+03 0. -1.
<mgrwt>
<rscale>  2 0.31562352E+03</rscale>
<asrwt>0</asrwt>
<pdfrwt beam="1">  1       21 0.86263235E-01 0.31562352E+03</pdfrwt>
<pdfrwt beam="2">  1       21 0.86807655E-01 0.31562352E+03</pdfrwt>
<totfact> 0.12043646E+03</totfact>
</mgrwt>
</event>
<event>
 4    1  0.1100959E+000  0.1873779E+03  0.7546771E-02  0.1160848E+00
         21   -1    0    0  503  502  0.00000000000E+00  0.00000000000E+00  0.14875256924E+03  0.14875256924E+03  0.00000000000E+00 0.  1.
         21   -1    0    0  501  503 -0.00000000000E+00 -0.00000000000E+00 -0.27283587048E+03  0.27283587048E+03  0.00000000000E+00 0.  1.
          6    1    1    2  501    0  0.44769291420E+02 -0.59348013736E+02 -0.13946114975E+03  0.23358058241E+03  0.17200000000E+03 0.  1.
         -6    1    1    2    0  502 -0.44769291420E+02  0.59348013736E+02  0.15377848512E+02  0.18800785732E+03  0.17200000000E+03 0.  1.
<mgrwt>
<rscale>  2 0.18737790E+03</rscale>
<asrwt>0</asrwt>
<pdfrwt beam="1">  1       21 0.37188143E-01 0.18737790E+03</pdfrwt>
<pdfrwt beam="2">  1       21 0.68208967E-01 0.18737790E+03</pdfrwt>
<totfact> 0.13726690E+04</totfact>
</mgrwt>
</event>
<event>
 4    1  0.1100959E+000  0.1733614E+03  0.7546771E-02  0.1174387E+00
         21   -1    0    0  503  502  0.00000000000E+00  0.00000000000E+00  0.26770646971E+02  0.26770646971E+02  0.00000000000E+00 0. -1.
         21   -1    0    0  501  503 -0.00000000000E+00 -0.00000000000E+00 -0.11655538578E+04  0.11655538578E+04  0.00000000000E+00 0. -1.
          6    1    1    2  501    0  0.14202544210E+02  0.16385006531E+02 -0.68376498180E+03  0.70539969595E+03  0.17200000000E+03 0. -1.
         -6    1    1    2    0  502 -0.14202544210E+02 -0.16385006531E+02 -0.45501822898E+03  0.48692480878E+03  0.17200000000E+03 0. -1.
<mgrwt>
<rscale>  2 0.17336142E+03</rscale>
<asrwt>0</asrwt>
<pdfrwt beam="1">  1       21 0.66926624E-02 0.17336142E+03</pdfrwt>
<pdfrwt beam="2">  1       21 0.29138843E+00 0.17336142E+03</pdfrwt>
<totfact> 0.63955568E+03</totfact>
</mgrwt>
</event>
<event>
 4    1  0.1100959E+000  0.2583042E+03  0.7546771E-02  0.1108166E+00
         21   -1    0    0  501  502  0.00000000000E+00  0.00000000000E+00  0.36684009379E+03  0.36684009379E+03  0.00000000000E+00 0. -1.
         21   -1    0    0  502  503 -0.00000000000E+00 -0.00000000000E+00 -0.33549653420E+03  0.33549653420E+03  0.00000000000E+00 0.  1.
          6    1    1    2  501    0 -0.18719198666E+03  0.45784410500E+02  0.25329539946E+03  0.36177287281E+03  0.17200000000E+03 0.  1.
         -6    1    1    2    0  503  0.18719198666E+03 -0.45784410500E+02 -0.22195183987E+03  0.34056375517E+03  0.17200000000E+03 0.  1.
<mgrwt>
<rscale>  2 0.25830419E+03</rscale>
<asrwt>0</asrwt>
<pdfrwt beam="1">  1       21 0.91710024E-01 0.25830419E+03</pdfrwt>
<pdfrwt beam="2">  1       21 0.83874133E-01 0.25830419E+03</pdfrwt>
<totfact> 0.11741288E+03</totfact>
</mgrwt>
</event>
<event>
 4    1  0.1100959E+000  0.2010763E+03  0.7546771E-02  0.1148834E+00
         21   -1    0    0  503  502  0.00000000000E+00  0.00000000000E+00  0.19822089123E+03  0.19822089123E+03  0.00000000000E+00 0. -1.
         21   -1    0    0  501  503 -0.00000000000E+00 -0.00000000000E+00 -0.60033855365E+03  0.60033855365E+03  0.00000000000E+00 0.  1.
          6    1    1    2  501    0 -0.83285297685E+02  0.62539805755E+02 -0.52549346199E+03  0.56265002151E+03  0.17200000000E+03 0.  1.
         -6    1    1    2    0  502  0.83285297685E+02 -0.62539805755E+02  0.12337579957E+03  0.23590942337E+03  0.17200000000E+03 0. -1.
<mgrwt>
<rscale>  2 0.20107627E+03</rscale>
<asrwt>0</asrwt>
<pdfrwt beam="1">  1       21 0.49555224E-01 0.20107627E+03</pdfrwt>
<pdfrwt beam="2">  1       21 0.15008464E+00 0.20107627E+03</pdfrwt>
<totfact> 0.11486933E+03</totfact>
</mgrwt>
</event>
<event>
 4    1  0.1100959E+000  0.2240816E+03  0.7546771E-02  0.1130876E+00
         21   -1    0    0  501  502  0.00000000000E+00  0.00000000000E+00  0.14192806859E+03  0.14192806859E+03  0.00000000000E+00 0. -1.
         21   -1    0    0  502  503 -0.00000000000E+00 -0.00000000000E+00 -0.37036139217E+03  0.37036139217E+03  0.00000000000E+00 0.  1.
          6    1    1    2  501    0  0.97923276647E+01  0.14329226867E+03 -0.60033102724E+02  0.23198391617E+03  0.17200000000E+03 0. -1.
         -6    1    1    2    0  503 -0.97923276647E+01 -0.14329226867E+03 -0.16840022086E+03  0.28030554459E+03  0.17200000000E+03 0.  1.
<mgrwt>
<rscale>  2 0.22408160E+03</rscale>
<asrwt>0</asrwt>
<pdfrwt beam="1">  1       21 0.35482018E-01 0.22408160E+03</pdfrwt>
<pdfrwt beam="2">  1       21 0.92590347E-01 0.22408160E+03</pdfrwt>
<totfact> 0.73672579E+03</totfact>
</mgrwt>
</event>
<event>
 4    1  0.1100959E+000  0.2437006E+03  0.7546771E-02  0.1117352E+00
         21   -1    0    0  501  502  0.00000000000E+00  0.00000000000E+00  0.78895724076E+02  0.78895724076E+02  0.00000000000E+00 0.  1.
         21   -1    0    0  502  503 -0.00000000000E+00 -0.00000000000E+00 -0.94480687234E+03  0.94480687234E+03  0.00000000000E+00 0.  1.
          6    1    1    2  501    0 -0.17264153743E+03 -0.94948702171E+00 -0.20219088186E+03  0.31665620897E+03  0.17200000000E+03 0.  1.
         -6    1    1    2    0  503  0.17264153743E+03  0.94948702171E+00 -0.66372026641E+03  0.70704638745E+03  0.17200000000E+03 0.  1.
<mgrwt>
<rscale>  2 0.24370064E+03</rscale>
<asrwt>0</asrwt>
<pdfrwt beam="1">  1       21 0.19723931E-01 0.24370064E+03</pdfrwt>
<pdfrwt beam="2">  1       21 0.23620172E+00 0.24370064E+03</pdfrwt>
<totfact> 0.18053258E+03</totfact>
</mgrwt>
</event>
<event>
 4    1  0.1100959E+000  0.1842025E+03  0.7546771E-02  0.1163797E+00
         21   -1    0    0  501  502  0.00000000000E+00  0.00000000000E+00  0.73394505420E+02  0.73394505420E+02  0.00000000000E+00 0.  1.
         21   -1    0    0  502  503 -0.00000000000E+00 -0.00000000000E+00 -0.46421054053E+03  0.46421054053E+03  0.00000000000E+00 0.  1.
          6    1    1    2  501    0 -0.63692427587E+02  0.17024245870E+02 -0.21263601473E+03  0.28132654521E+03  0.17200000000E+03 0.  1.
         -6    1    1    2    0  503  0.63692427587E+02 -0.17024245870E+02 -0.17818002038E+03  0.25627850074E+03  0.17200000000E+03 0.  1.
<mgrwt>
<rscale>  2 0.18420247E+03</rscale>
<asrwt>0</asrwt>
<pdfrwt beam="1">  1       21 0.18348627E-01 0.18420247E+03</pdfrwt>
<pdfrwt beam="2">  1       21 0.11605263E+00 0.18420247E+03</pdfrwt>
<totfact> 0.15623451E+04</totfact>
</mgrwt>
</event>
<event>
 4    1  0.1100959E+000  0.1953054E+03  0.7546771E-02  0.1153761E+00
         21   -1    0    0  501  502  0.00000000000E+00  0.00000000000E+00  0.73829146719E+03  0.73829146719E+03  0.00000000000E+00 0.  1.
         21   -1    0    0  502  503 -0.00000000000E+00 -0.00000000000E+00 -0.56038547640E+02  0.56038547640E+02  0.00000000000E+00 0.  1.
          6    1    1    2  501    0  0.47993594600E+02 -0.79100035005E+02  0.23017846591E+03  0.30187137464E+03  0.17200000000E+03 0.  1.
         -6    1    1    2    0  503 -0.47993594600E+02  0.79100035005E+02  0.45207445364E+03  0.49245864019E+03  0.17200000000E+03 0.  1.
<mgrwt>
<rscale>  2 0.19530540E+03</rscale>
<asrwt>0</asrwt>
<pdfrwt beam="1">  1       21 0.18457284E+00 0.19530540E+03</pdfrwt>
<pdfrwt beam="2">  1       21 0.14009639E-01 0.19530540E+03</pdfrwt>
<totfact> 0.75092027E+03</totfact>
</mgrwt>
</event>
<event>
 4    1  0.1100959E+000  0.1922424E+03  0.7546771E-02  0.1156454E+00
         21   -1    0    0  501  502  0.00000000000E+00  0.00000000000E+00  0.18754906709E+03  0.18754906709E+03  0.00000000000E+00 0. -1.
         21   -1    0    0  502  503 -0.00000000000E+00 -0.00000000000E+00 -0.73745175728E+03  0.73745175728E+03  0.00000000000E+00 0. -1.
          6    1    1    2  501    0  0.50579520051E+02  0.69389218862E+02  0.12096405098E+03  0.22713311774E+03  0.17200000000E+03 0. -1.
         -6    1    1    2    0  503 -0.50579520051E+02 -0.69389218862E+02 -0.67086674117E+03  0.69786770663E+03  0.17200000000E+03 0. -1.
<mgrwt>
<rscale>  2 0.19224243E+03</rscale>
<asrwt>0</asrwt>
<pdfrwt beam="1">  1       21 0.46887267E-01 0.19224243E+03</pdfrwt>
<pdfrwt beam="2">  1       21 0.18436294E+00 0.19224243E+03</pdfrwt>
<totfact> 0.74067977E+02</totfact>
</mgrwt>
</event>
<event>
 4    1  0.1100959E+000  0.1919912E+03  0.7546771E-02  0.1156678E+00
         21   -1    0    0  501  502  0.00000000000E+00  0.00000000000E+00  0.14066075971E+04  0.14066075971E+04  0.00000000000E+00 0.  1.
         21   -1    0    0  502  503 -0.00000000000E+00 -0.00000000000E+00 -0.67226587995E+02  0.67226587995E+02  0.00000000000E+00 0.  1.
          6    1    1    2  501    0  0.42261321492E+02  0.74098492263E+02  0.12453327010E+04  0.12600452936E+04  0.17200000000E+03 0.  1.
         -6    1    1    2    0  503 -0.42261321492E+02 -0.74098492263E+02  0.94048308100E+02  0.21378889145E+03  0.17200000000E+03 0.  1.
<mgrwt>
<rscale>  2 0.19199116E+03</rscale>
<asrwt>0</asrwt>
<pdfrwt beam="1">  1       21 0.35165180E+00 0.19199116E+03</pdfrwt>
<pdfrwt beam="2">  1       21 0.16806652E-01 0.19199116E+03</pdfrwt>
<totfact> 0.54529198E+02</totfact>
</mgrwt>
</event>
<event>
 4    1  0.1100959E+000  0.2094629E+03  0.7546771E-02  0.1141992E+00
         21   -1    0    0  503  502  0.00000000000E+00  0.00000000000E+00  0.41540660172E+03  0.41540660172E+03  0.00000000000E+00 0.  1.
         21   -1    0    0  501  503 -0.00000000000E+00 -0.00000000000E+00 -0.12896510690E+03  0.12896510690E+03  0.00000000000E+00 0.  1.
          6    1    1    2  501    0  0.42330808383E+02  0.11179805133E+03  0.25902900997E+03  0.33312269455E+03  0.17200000000E+03 0.  1.
         -6    1    1    2    0  502 -0.42330808383E+02 -0.11179805133E+03  0.27412484852E+02  0.21124901407E+03  0.17200000000E+03 0.  1.
<mgrwt>
<rscale>  2 0.20946289E+03</rscale>
<asrwt>0</asrwt>
<pdfrwt beam="1">  1       21 0.10385165E+00 0.20946289E+03</pdfrwt>
<pdfrwt beam="2">  1       21 0.32241278E-01 0.20946289E+03</pdfrwt>
<totfact> 0.68558978E+03</totfact>
</mgrwt>
</event>
<event>
 4    1  0.1100959E+000  0.3006733E+03  0.7546771E-02  0.1084905E+00
         21   -1    0    0  501  502  0.00000000000E+00  0.00000000000E+00  0.52060509529E+03  0.52060509529E+03  0.00000000000E+00 0. -1.
         21   -1    0    0  502  503 -0.00000000000E+00 -0.00000000000E+00 -0.20558585376E+03  0.20558585376E+03  0.00000000000E+00 0. -1.
          6    1    1    2  501    0  0.19962112037E+03  0.14481651488E+03  0.30061171421E+03  0.42517269126E+03  0.17200000000E+03 0. -1.
         -6    1    1    2    0  503 -0.19962112037E+03 -0.14481651488E+03  0.14407527315E+02  0.30101825779E+03  0.17200000000E+03 0. -1.
<mgrwt>
<rscale>  2 0.30067327E+03</rscale>
<asrwt>0</asrwt>
<pdfrwt beam="1">  1       21 0.13015127E+00 0.30067327E+03</pdfrwt>
<pdfrwt beam="2">  1       21 0.51396465E-01 0.30067327E+03</pdfrwt>
<totfact> 0.14242070E+03</totfact>
</mgrwt>
</event>
<event>
 4    1  0.1100959E+000  0.1861608E+03  0.7546771E-02  0.1161970E+00
         21   -1    0    0  501  502  0.00000000000E+00  0.00000000000E+00  0.66665041150E+02  0.66665041150E+02  0.00000000000E+00 0. -1.
         21   -1    0    0  502  503 -0.00000000000E+00 -0.00000000000E+00 -0.57416314989E+03  0.57416314989E+03  0.00000000000E+00 0. -1.
          6    1    1    2  501    0  0.67517821575E+02 -0.22653281042E+02 -0.15520144195E+03  0.24237020228E+03  0.17200000000E+03 0. -1.
         -6    1    1    2    0  503 -0.67517821575E+02  0.22653281042E+02 -0.35229666680E+03  0.39845798876E+03  0.17200000000E+03 0. -1.
<mgrwt>
<rscale>  2 0.18616076E+03</rscale>
<asrwt>0</asrwt>
<pdfrwt beam="1">  1       21 0.16666260E-01 0.18616076E+03</pdfrwt>
<pdfrwt beam="2">  1       21 0.14354079E+00 0.18616076E+03</pdfrwt>
<totfact> 0.10903742E+04</totfact>
</mgrwt>
</event>
<event>
 4    1  0.1100959E+000  0.1813200E+03  0.7546771E-02  0.1166532E+00
         21   -1    0    0  501  502  0.00000000000E+00  0.00000000000E+00  0.13696334209E+03  0.13696334209E+03  0.00000000000E+00 0.  1.
         21   -1    0    0  502  503 -0.00000000000E+00 -0.00000000000E+00 -0.41790856380E+03  0.41790856380E+03  0.00000000000E+00 0.  1.
          6    1    1    2  501    0  0.55095699339E+02  0.16043839425E+02  0.40523559062E+02  0.18579316378E+03  0.17200000000E+03 0.  1.
         -6    1    1    2    0  503 -0.55095699339E+02 -0.16043839425E+02 -0.32146878077E+03  0.36907874211E+03  0.17200000000E+03 0.  1.
<mgrwt>
<rscale>  2 0.18132000E+03</rscale>
<asrwt>0</asrwt>
<pdfrwt beam="1">  1       21 0.34240836E-01 0.18132000E+03</pdfrwt>
<pdfrwt beam="2">  1       21 0.10447714E+00 0.18132000E+03</pdfrwt>
<totfact> 0.61312127E+03</totfact>
</mgrwt>
</event>
<event>
 4    1  0.1100959E+000  0.1790553E+03  0.7546771E-02  0.1168720E+00
         21   -1    0    0  503  502  0.00000000000E+00  0.00000000000E+00  0.32931412720E+02  0.32931412720E+02  0.00000000000E+00 0. -1.
         21   -1    0    0  501  503 -0.00000000000E+00 -0.00000000000E+00 -0.12951189226E+04  0.12951189226E+04  0.00000000000E+00 0. -1.
          6    1    1    2  501    0 -0.38003724588E+02  0.32133067033E+02 -0.96196400817E+03  0.97848636684E+03  0.17200000000E+03 0. -1.
         -6    1    1    2    0  502  0.38003724588E+02 -0.32133067033E+02 -0.30022350171E+03  0.34956396848E+03  0.17200000000E+03 0. -1.
<mgrwt>
<rscale>  2 0.17905535E+03</rscale>
<asrwt>0</asrwt>
<pdfrwt beam="1">  1       21 0.82328534E-02 0.17905535E+03</pdfrwt>
<pdfrwt beam="2">  1       21 0.32377972E+00 0.17905535E+03</pdfrwt>
<totfact> 0.28926438E+03</totfact>
</mgrwt>
</event>
<event>
 4    1  0.1100959E+000  0.2195747E+03  0.7546771E-02  0.1134200E+00
         21   -1    0    0  503  502  0.00000000000E+00  0.00000000000E+00  0.10108252736E+04  0.10108252736E+04  0.00000000000E+00 0.  1.
         21   -1    0    0  501  503 -0.00000000000E+00 -0.00000000000E+00 -0.92401025319E+02  0.92401025319E+02  0.00000000000E+00 0.  1.
          6    1    1    2  501    0 -0.26376579217E+02 -0.13391543101E+03  0.75530666807E+02  0.23220238634E+03  0.17200000000E+03 0.  1.
         -6    1    1    2    0  502  0.26376579217E+02  0.13391543101E+03  0.84289358144E+03  0.87102391255E+03  0.17200000000E+03 0.  1.
<mgrwt>
<rscale>  2 0.21957474E+03</rscale>
<asrwt>0</asrwt>
<pdfrwt beam="1">  1       21 0.25270628E+00 0.21957474E+03</pdfrwt>
<pdfrwt beam="2">  1       21 0.23100260E-01 0.21957474E+03</pdfrwt>
<totfact> 0.10935206E+03</totfact>
</mgrwt>
</event>
<event>
 4    1  0.1100959E+000  0.1889946E+03  0.7546771E-02  0.1159371E+00
         21   -1    0    0  501  502  0.00000000000E+00  0.00000000000E+00  0.41100006775E+03  0.41100006775E+03  0.00000000000E+00 0.  1.
         21   -1    0    0  502  503 -0.00000000000E+00 -0.00000000000E+00 -0.11300441848E+03  0.11300441848E+03  0.00000000000E+00 0.  1.
          6    1    1    2  501    0 -0.46058049561E+02  0.63353025212E+02  0.27490564165E+03  0.33360464856E+03  0.17200000000E+03 0. -1.
         -6    1    1    2    0  503  0.46058049561E+02 -0.63353025212E+02  0.23090007618E+02  0.19039983767E+03  0.17200000000E+03 0. -1.
<mgrwt>
<rscale>  2 0.18899458E+03</rscale>
<asrwt>0</asrwt>
<pdfrwt beam="1">  1       21 0.10275001E+00 0.18899458E+03</pdfrwt>
<pdfrwt beam="2">  1       21 0.28251106E-01 0.18899458E+03</pdfrwt>
<totfact> 0.92394026E+03</totfact>
</mgrwt>
</event>
<event>
 4    1  0.1100959E+000  0.1950319E+03  0.7546771E-02  0.1154000E+00
         21   -1    0    0  503  502  0.00000000000E+00  0.00000000000E+00  0.50643874931E+02  0.50643874931E+02  0.00000000000E+00 0.  1.
         21   -1    0    0  501  503 -0.00000000000E+00 -0.00000000000E+00 -0.16594714404E+04  0.16594714404E+04  0.00000000000E+00 0.  1.
          6    1    1    2  501    0 -0.71949833601E+02  0.57242283270E+02 -0.14370407575E+04  0.14502150173E+04  0.17200000000E+03 0.  1.
         -6    1    1    2    0  502  0.71949833601E+02 -0.57242283270E+02 -0.17178680797E+03  0.25990029808E+03  0.17200000000E+03 0.  1.
<mgrwt>
<rscale>  2 0.19503194E+03</rscale>
<asrwt>0</asrwt>
<pdfrwt beam="1">  1       21 0.12660969E-01 0.19503194E+03</pdfrwt>
<pdfrwt beam="2">  1       21 0.41486785E+00 0.19503194E+03</pdfrwt>
<totfact> 0.37308327E+02</totfact>
</mgrwt>
</event>
<event>
 4    1  0.1100959E+000  0.1755672E+03  0.7546771E-02  0.1172163E+00
         21   -1    0    0  501  502  0.00000000000E+00  0.00000000000E+00  0.55051638487E+02  0.55051638487E+02  0.00000000000E+00 0.  1.
         21   -1    0    0  502  503 -0.00000000000E+00 -0.00000000000E+00 -0.13156339206E+04  0.13156339206E+04  0.00000000000E+00 0.  1.
          6    1    1    2  501    0 -0.47717812340E+01  0.34886516756E+02 -0.11497157745E+04  0.11630435078E+04  0.17200000000E+03 0.  1.
         -6    1    1    2    0  503  0.47717812340E+01 -0.34886516756E+02 -0.11086650763E+03  0.20764205128E+03  0.17200000000E+03 0.  1.
<mgrwt>
<rscale>  2 0.17556719E+03</rscale>
<asrwt>0</asrwt>
<pdfrwt beam="1">  1       21 0.13762909E-01 0.17556719E+03</pdfrwt>
<pdfrwt beam="2">  1       21 0.32890850E+00 0.17556719E+03</pdfrwt>
<totfact> 0.10929454E+03</totfact>
</mgrwt>
</event>
<event>
 4    1  0.1100959E+000  0.1933575E+03  0.7546771E-02  0.1155468E+00
         21   -1    0    0  503  502  0.00000000000E+00  0.00000000000E+00  0.35791263903E+03  0.35791263903E+03  0.00000000000E+00 0. -1.
         21   -1    0    0  501  503 -0.00000000000E+00 -0.00000000000E+00 -0.27660487308E+03  0.27660487308E+03  0.00000000000E+00 0. -1.
          6    1    1    2  501    0 -0.17618700997E+02  0.86560317307E+02 -0.20962967822E+03  0.28518714758E+03  0.17200000000E+03 0. -1.
         -6    1    1    2    0  502  0.17618700997E+02 -0.86560317307E+02  0.29093744417E+03  0.34933036452E+03  0.17200000000E+03 0. -1.
<mgrwt>
<rscale>  2 0.19335746E+03</rscale>
<asrwt>0</asrwt>
<pdfrwt beam="1">  1       21 0.89478159E-01 0.19335746E+03</pdfrwt>
<pdfrwt beam="2">  1       21 0.69151219E-01 0.19335746E+03</pdfrwt>
<totfact> 0.20255600E+03</totfact>
</mgrwt>
</event>
<event>
 4    1  0.1100959E+000  0.2452236E+03  0.7546771E-02  0.1116361E+00
         21   -1    0    0  503  502  0.00000000000E+00  0.00000000000E+00  0.27643348087E+03  0.27643348087E+03  0.00000000000E+00 0. -1.
         21   -1    0    0  501  503 -0.00000000000E+00 -0.00000000000E+00 -0.23942868405E+03  0.23942868405E+03  0.00000000000E+00 0.  1.
          6    1    1    2  501    0  0.16739806307E+03  0.50284039226E+02 -0.59489966911E+02  0.25233638715E+03  0.17200000000E+03 0.  1.
         -6    1    1    2    0  502 -0.16739806307E+03 -0.50284039226E+02  0.96494763726E+02  0.26352577776E+03  0.17200000000E+03 0. -1.
<mgrwt>
<rscale>  2 0.24522356E+03</rscale>
<asrwt>0</asrwt>
<pdfrwt beam="1">  1       21 0.69108370E-01 0.24522356E+03</pdfrwt>
<pdfrwt beam="2">  1       21 0.59857171E-01 0.24522356E+03</pdfrwt>
<totfact> 0.47809195E+03</totfact>
</mgrwt>
</event>
<event>
 4    1  0.1100959E+000  0.1794405E+03  0.7546771E-02  0.1168346E+00
         21   -1    0    0  501  502  0.00000000000E+00  0.00000000000E+00  0.61028100808E+02  0.61028100808E+02  0.00000000000E+00 0. -1.
         21   -1    0    0  502  503 -0.00000000000E+00 -0.00000000000E+00 -0.70509714923E+03  0.70509714923E+03  0.00000000000E+00 0. -1.
          6    1    1    2  501    0 -0.10828352181E+02  0.49976456440E+02 -0.12984420787E+03  0.22149134910E+03  0.17200000000E+03 0. -1.
         -6    1    1    2    0  503  0.10828352181E+02 -0.49976456440E+02 -0.51422484056E+03  0.54463390094E+03  0.17200000000E+03 0. -1.
<mgrwt>
<rscale>  2 0.17944052E+03</rscale>
<asrwt>0</asrwt>
<pdfrwt beam="1">  1       21 0.15257025E-01 0.17944052E+03</pdfrwt>
<pdfrwt beam="2">  1       21 0.17627429E+00 0.17944052E+03</pdfrwt>
<totfact> 0.74223242E+03</totfact>
</mgrwt>
</event>
<event>
 4    1  0.1100959E+000  0.1731628E+03  0.7546771E-02  0.1174589E+00
         21   -1    0    0  501  502  0.00000000000E+00  0.00000000000E+00  0.16090381869E+04  0.16090381869E+04  0.00000000000E+00 0.  1.
         21   -1    0    0  502  503 -0.00000000000E+00 -0.00000000000E+00 -0.24515618572E+02  0.24515618572E+02  0.00000000000E+00 0.  1.
          6    1    1    2  501    0 -0.15867701417E+02 -0.12230428032E+02  0.39225028223E+03  0.42877226033E+03  0.17200000000E+03 0.  1.
         -6    1    1    2    0  503  0.15867701417E+02  0.12230428032E+02  0.11922722861E+04  0.12047815451E+04  0.17200000000E+03 0.  1.
<mgrwt>
<rscale>  2 0.17316283E+03</rscale>
<asrwt>0</asrwt>
<pdfrwt beam="1">  1       21 0.40225919E+00 0.17316283E+03</pdfrwt>
<pdfrwt beam="2">  1       21 0.61289101E-02 0.17316283E+03</pdfrwt>
<totfact> 0.16539313E+03</totfact>
</mgrwt>
</event>
<event>
 4    1  0.1100959E+000  0.1848347E+03  0.7546771E-02  0.1163204E+00
         21   -1    0    0  503  502  0.00000000000E+00  0.00000000000E+00  0.95322064622E+03  0.95322064622E+03  0.00000000000E+00 0. -1.
         21   -1    0    0  501  503 -0.00000000000E+00 -0.00000000000E+00 -0.46400656273E+02  0.46400656273E+02  0.00000000000E+00 0. -1.
          6    1    1    2  501    0  0.16333191251E+02 -0.65674226333E+02  0.21496994199E+03  0.28350653097E+03  0.17200000000E+03 0. -1.
         -6    1    1    2    0  502 -0.16333191251E+02  0.65674226333E+02  0.69185004796E+03  0.71611477153E+03  0.17200000000E+03 0. -1.
<mgrwt>
<rscale>  2 0.18483473E+03</rscale>
<asrwt>0</asrwt>
<pdfrwt beam="1">  1       21 0.23830510E+00 0.18483473E+03</pdfrwt>
<pdfrwt beam="2">  1       21 0.11600167E-01 0.18483473E+03</pdfrwt>
<totfact> 0.49008996E+03</totfact>
</mgrwt>
</event>
<event>
 4    1  0.1100959E+000  0.2096487E+03  0.7546771E-02  0.1141844E+00
         21   -1    0    0  501  502  0.00000000000E+00  0.00000000000E+00  0.19080963968E+03  0.19080963968E+03  0.00000000000E+00 0.  1.
         21   -1    0    0  502  503 -0.00000000000E+00 -0.00000000000E+00 -0.23711118968E+03  0.23711118968E+03  0.00000000000E+00 0. -1.
          6    1    1    2  501    0  0.68497028809E+02 -0.98370498627E+02  0.12984944894E+02  0.21005048619E+03  0.17200000000E+03 0.  1.
         -6    1    1    2    0  503 -0.68497028809E+02  0.98370498627E+02 -0.59286494900E+02  0.21787034317E+03  0.17200000000E+03 0. -1.
<mgrwt>
<rscale>  2 0.20964875E+03</rscale>
<asrwt>0</asrwt>
<pdfrwt beam="1">  1       21 0.47702410E-01 0.20964875E+03</pdfrwt>
<pdfrwt beam="2">  1       21 0.59277797E-01 0.20964875E+03</pdfrwt>
<totfact> 0.11047734E+04</totfact>
</mgrwt>
</event>
<event>
 4    1  0.1100959E+000  0.1943786E+03  0.7546771E-02  0.1154570E+00
         21   -1    0    0  501  502  0.00000000000E+00  0.00000000000E+00  0.24383146420E+03  0.24383146420E+03  0.00000000000E+00 0. -1.
         21   -1    0    0  502  503 -0.00000000000E+00 -0.00000000000E+00 -0.18490317212E+03  0.18490317212E+03  0.00000000000E+00 0. -1.
          6    1    1    2  501    0  0.80431712831E+02  0.41590399446E+02  0.11573578889E+03  0.22622509716E+03  0.17200000000E+03 0. -1.
         -6    1    1    2    0  503 -0.80431712831E+02 -0.41590399446E+02 -0.56807496810E+02  0.20250953916E+03  0.17200000000E+03 0. -1.
<mgrwt>
<rscale>  2 0.19437855E+03</rscale>
<asrwt>0</asrwt>
<pdfrwt beam="1">  1       21 0.60957866E-01 0.19437855E+03</pdfrwt>
<pdfrwt beam="2">  1       21 0.46225793E-01 0.19437855E+03</pdfrwt>
<totfact> 0.11216721E+04</totfact>
</mgrwt>
</event>
<event>
 4    1  0.1100959E+000  0.1838359E+03  0.7546771E-02  0.1164141E+00
         21   -1    0    0  501  502  0.00000000000E+00  0.00000000000E+00  0.11180733442E+03  0.11180733442E+03  0.00000000000E+00 0. -1.
         21   -1    0    0  502  503 -0.00000000000E+00 -0.00000000000E+00 -0.31322031345E+03  0.31322031345E+03  0.00000000000E+00 0. -1.
          6    1    1    2  501    0 -0.50585223317E+02  0.40654174904E+02 -0.14044780310E+03  0.23134651964E+03  0.17200000000E+03 0. -1.
         -6    1    1    2    0  503  0.50585223317E+02 -0.40654174904E+02 -0.60965175941E+02  0.19368112823E+03  0.17200000000E+03 0. -1.
<mgrwt>
<rscale>  2 0.18383587E+03</rscale>
<asrwt>0</asrwt>
<pdfrwt beam="1">  1       21 0.27951834E-01 0.18383587E+03</pdfrwt>
<pdfrwt beam="2">  1       21 0.78305078E-01 0.18383587E+03</pdfrwt>
<totfact> 0.17740713E+04</totfact>
</mgrwt>
</event>
<event>
 4    1  0.1100959E+000  0.1824659E+03  0.7546771E-02  0.1165438E+00
         21   -1    0    0  503  502  0.00000000000E+00  0.00000000000E+00  0.36305971320E+02  0.36305971320E+02  0.00000000000E+00 0.  1.
         21   -1    0    0  501  503 -0.00000000000E+00 -0.00000000000E+00 -0.92572731061E+03  0.92572731061E+03  0.00000000000E+00 0.  1.
          6    1    1    2  501    0 -0.32563654245E+02 -0.51472610903E+02 -0.39809805207E+03  0.43792223090E+03  0.17200000000E+03 0.  1.
         -6    1    1    2    0  502  0.32563654245E+02  0.51472610903E+02 -0.49132328722E+03  0.52411105103E+03  0.17200000000E+03 0.  1.
<mgrwt>
<rscale>  2 0.18246595E+03</rscale>
<asrwt>0</asrwt>
<pdfrwt beam="1">  1       21 0.90764924E-02 0.18246595E+03</pdfrwt>
<pdfrwt beam="2">  1       21 0.23143184E+00 0.18246595E+03</pdfrwt>
<totfact> 0.83315209E+03</totfact>
</mgrwt>
</event>
<event>
 4    1  0.1100959E+000  0.2009270E+03  0.7546771E-02  0.1148959E+00
         21   -1    0    0  503  502  0.00000000000E+00  0.00000000000E+00  0.50052876957E+03  0.50052876957E+03  0.00000000000E+00 0. -1.
         21   -1    0    0  501  503 -0.00000000000E+00 -0.00000000000E+00 -0.83728103989E+02  0.83728103989E+02  0.00000000000E+00 0.  1.
          6    1    1    2  501    0  0.10147066922E+03 -0.22166633229E+02  0.26433921476E+03  0.33203445123E+03  0.17200000000E+03 0. -1.
         -6    1    1    2    0  502 -0.10147066922E+03  0.22166633229E+02  0.15246145082E+03  0.25222242233E+03  0.17200000000E+03 0.  1.
<mgrwt>
<rscale>  2 0.20092699E+03</rscale>
<asrwt>0</asrwt>
<pdfrwt beam="1">  1       21 0.12513218E+00 0.20092699E+03</pdfrwt>
<pdfrwt beam="2">  1       21 0.20932027E-01 0.20092699E+03</pdfrwt>
<totfact> 0.10024047E+04</totfact>
</mgrwt>
</event>
<event>
 4    1  0.1100959E+000  0.2519145E+03  0.7546771E-02  0.1112101E+00
         21   -1    0    0  503  502  0.00000000000E+00  0.00000000000E+00  0.44823783244E+03  0.44823783244E+03  0.00000000000E+00 0.  1.
         21   -1    0    0  501  503 -0.00000000000E+00 -0.00000000000E+00 -0.25039675174E+03  0.25039675174E+03  0.00000000000E+00 0. -1.
          6    1    1    2  501    0  0.50465331520E+02  0.17700326130E+03 -0.13135951527E+03  0.28410601269E+03  0.17200000000E+03 0. -1.
         -6    1    1    2    0  502 -0.50465331520E+02 -0.17700326130E+03  0.32920059597E+03  0.41452857149E+03  0.17200000000E+03 0.  1.
<mgrwt>
<rscale>  2 0.25191448E+03</rscale>
<asrwt>0</asrwt>
<pdfrwt beam="1">  1       21 0.11205946E+00 0.25191448E+03</pdfrwt>
<pdfrwt beam="2">  1       21 0.62599189E-01 0.25191448E+03</pdfrwt>
<totfact> 0.14033111E+03</totfact>
</mgrwt>
</event>
<event>
 4    1  0.1100959E+000  0.1780127E+03  0.7546771E-02  0.1169740E+00
         21   -1    0    0  503  502  0.00000000000E+00  0.00000000000E+00  0.11200904284E+03  0.11200904284E+03  0.00000000000E+00 0. -1.
         21   -1    0    0  501  503 -0.00000000000E+00 -0.00000000000E+00 -0.29696726488E+03  0.29696726488E+03  0.00000000000E+00 0. -1.
          6    1    1    2  501    0  0.34849151054E+02  0.29833849052E+02 -0.13696868736E+03  0.22460842192E+03  0.17200000000E+03 0. -1.
         -6    1    1    2    0  502 -0.34849151054E+02 -0.29833849052E+02 -0.47989534683E+02  0.18436788581E+03  0.17200000000E+03 0. -1.
<mgrwt>
<rscale>  2 0.17801270E+03</rscale>
<asrwt>0</asrwt>
<pdfrwt beam="1">  1       21 0.28002261E-01 0.17801270E+03</pdfrwt>
<pdfrwt beam="2">  1       21 0.74241816E-01 0.17801270E+03</pdfrwt>
<totfact> 0.19988167E+04</totfact>
</mgrwt>
</event>
<event>
 4    1  0.1100959E+000  0.2128873E+03  0.7546771E-02  0.1139300E+00
         21   -1    0    0  503  502  0.00000000000E+00  0.00000000000E+00  0.73069852983E+03  0.73069852983E+03  0.00000000000E+00 0.  1.
         21   -1    0    0  501  503 -0.00000000000E+00 -0.00000000000E+00 -0.11823593801E+03  0.11823593801E+03  0.00000000000E+00 0.  1.
          6    1    1    2  501    0 -0.82179423718E+02 -0.94781456124E+02  0.13558080880E+02  0.21331854974E+03  0.17200000000E+03 0.  1.
         -6    1    1    2    0  502  0.82179423718E+02  0.94781456124E+02  0.59890451094E+03  0.63561591809E+03  0.17200000000E+03 0.  1.
<mgrwt>
<rscale>  2 0.21288725E+03</rscale>
<asrwt>0</asrwt>
<pdfrwt beam="1">  1       21 0.18267462E+00 0.21288725E+03</pdfrwt>
<pdfrwt beam="2">  1       21 0.29558987E-01 0.21288725E+03</pdfrwt>
<totfact> 0.18764042E+03</totfact>
</mgrwt>
</event>
<event>
 4    1  0.1100959E+000  0.2183418E+03  0.7546771E-02  0.1135125E+00
         21   -1    0    0  501  502  0.00000000000E+00  0.00000000000E+00  0.21086739768E+03  0.21086739768E+03  0.00000000000E+00 0. -1.
         21   -1    0    0  502  503 -0.00000000000E+00 -0.00000000000E+00 -0.26538878493E+03  0.26538878493E+03  0.00000000000E+00 0. -1.
          6    1    1    2  501    0 -0.78340478825E+02 -0.10932470639E+03  0.64384221591E+02  0.22763666234E+03  0.17200000000E+03 0. -1.
         -6    1    1    2    0  503  0.78340478825E+02  0.10932470639E+03 -0.11890560884E+03  0.24861952028E+03  0.17200000000E+03 0. -1.
<mgrwt>
<rscale>  2 0.21834176E+03</rscale>
<asrwt>0</asrwt>
<pdfrwt beam="1">  1       21 0.52716850E-01 0.21834176E+03</pdfrwt>
<pdfrwt beam="2">  1       21 0.66347196E-01 0.21834176E+03</pdfrwt>
<totfact> 0.69797473E+03</totfact>
</mgrwt>
</event>
<event>
 4    1  0.1100959E+000  0.1828692E+03  0.7546771E-02  0.1165055E+00
         21   -1    0    0  503  502  0.00000000000E+00  0.00000000000E+00  0.73181653267E+03  0.73181653267E+03  0.00000000000E+00 0.  1.
         21   -1    0    0  501  503 -0.00000000000E+00 -0.00000000000E+00 -0.45701499585E+02  0.45701499585E+02  0.00000000000E+00 0.  1.
          6    1    1    2  501    0 -0.56210719981E+02 -0.26410281874E+02  0.33882467342E+03  0.38502377504E+03  0.17200000000E+03 0.  1.
         -6    1    1    2    0  502  0.56210719981E+02  0.26410281874E+02  0.34729035967E+03  0.39249425721E+03  0.17200000000E+03 0.  1.
<mgrwt>
<rscale>  2 0.18286921E+03</rscale>
<asrwt>0</asrwt>
<pdfrwt beam="1">  1       21 0.18295410E+00 0.18286921E+03</pdfrwt>
<pdfrwt beam="2">  1       21 0.11425377E-01 0.18286921E+03</pdfrwt>
<totfact> 0.11219170E+04</totfact>
</mgrwt>
</event>
<event>
 4    1  0.1100959E+000  0.1790101E+03  0.7546771E-02  0.1168765E+00
         21   -1    0    0  503  502  0.00000000000E+00  0.00000000000E+00  0.45365515422E+02  0.45365515422E+02  0.00000000000E+00 0. -1.
         21   -1    0    0  501  503 -0.00000000000E+00 -0.00000000000E+00 -0.71013015780E+03  0.71013015780E+03  0.00000000000E+00 0. -1.
          6    1    1    2  501    0 -0.27148195002E+02 -0.41516120532E+02 -0.35988810469E+03  0.40195032112E+03  0.17200000000E+03 0.  1.
         -6    1    1    2    0  502  0.27148195002E+02  0.41516120532E+02 -0.30487653769E+03  0.35354535210E+03  0.17200000000E+03 0.  1.
<mgrwt>
<rscale>  2 0.17901009E+03</rscale>
<asrwt>0</asrwt>
<pdfrwt beam="1">  1       21 0.11341379E-01 0.17901009E+03</pdfrwt>
<pdfrwt beam="2">  1       21 0.17753254E+00 0.17901009E+03</pdfrwt>
<totfact> 0.12410457E+04</totfact>
</mgrwt>
</event>
<event>
 4    1  0.1100959E+000  0.1731926E+03  0.7546771E-02  0.1174559E+00
         21   -1    0    0  503  502  0.00000000000E+00  0.00000000000E+00  0.15873980438E+04  0.15873980438E+04  0.00000000000E+00 0. -1.
         21   -1    0    0  501  503 -0.00000000000E+00 -0.00000000000E+00 -0.51256629552E+02  0.51256629552E+02  0.00000000000E+00 0. -1.
          6    1    1    2  501    0  0.19851101359E+02 -0.41967317637E+01  0.11705714569E+03  0.20904079540E+03  0.17200000000E+03 0. -1.
         -6    1    1    2    0  502 -0.19851101359E+02  0.41967317637E+01  0.14190842686E+04  0.14296138780E+04  0.17200000000E+03 0. -1.
<mgrwt>
<rscale>  2 0.17319261E+03</rscale>
<asrwt>0</asrwt>
<pdfrwt beam="1">  1       21 0.39684935E+00 0.17319261E+03</pdfrwt>
<pdfrwt beam="2">  1       21 0.12814163E-01 0.17319261E+03</pdfrwt>
<totfact> 0.49171815E+02</totfact>
</mgrwt>
</event>
<event>
 4    1  0.1100959E+000  0.1810142E+03  0.7546771E-02  0.1166825E+00
         21   -1    0    0  501  502  0.00000000000E+00  0.00000000000E+00  0.11664240664E+03  0.11664240664E+03  0.00000000000E+00 0. -1.
         21   -1    0    0  502  503 -0.00000000000E+00 -0.00000000000E+00 -0.34895670246E+03  0.34895670246E+03  0.00000000000E+00 0. -1.
          6    1    1    2  501    0  0.39428319349E+02  0.40342738888E+02 -0.13356253815E+02  0.18150624910E+03  0.17200000000E+03 0. -1.
         -6    1    1    2    0  503 -0.39428319349E+02 -0.40342738888E+02 -0.21895804200E+03  0.28409286000E+03  0.17200000000E+03 0. -1.
<mgrwt>
<rscale>  2 0.18101417E+03</rscale>
<asrwt>0</asrwt>
<pdfrwt beam="1">  1       21 0.29160602E-01 0.18101417E+03</pdfrwt>
<pdfrwt beam="2">  1       21 0.87239175E-01 0.18101417E+03</pdfrwt>
<totfact> 0.12811790E+04</totfact>
</mgrwt>
</event>
<event>
 4    1  0.1100959E+000  0.1947404E+03  0.7546771E-02  0.1154254E+00
         21   -1    0    0  503  502  0.00000000000E+00  0.00000000000E+00  0.10935462726E+03  0.10935462726E+03  0.00000000000E+00 0. -1.
         21   -1    0    0  501  503 -0.00000000000E+00 -0.00000000000E+00 -0.35906972505E+03  0.35906972505E+03  0.00000000000E+00 0.  1.
          6    1    1    2  501    0  0.80487924574E+02 -0.43145463037E+02 -0.16815813373E+03  0.25729554003E+03  0.17200000000E+03 0.  1.
         -6    1    1    2    0  502 -0.80487924574E+02  0.43145463037E+02 -0.81556964063E+02  0.21112881227E+03  0.17200000000E+03 0.  1.
<mgrwt>
<rscale>  2 0.19474043E+03</rscale>
<asrwt>0</asrwt>
<pdfrwt beam="1">  1       21 0.27338657E-01 0.19474043E+03</pdfrwt>
<pdfrwt beam="2">  1       21 0.89767430E-01 0.19474043E+03</pdfrwt>
<totfact> 0.13466917E+04</totfact>
</mgrwt>
</event>
<event>
 4    1  0.1100959E+000  0.1806981E+03  0.7546771E-02  0.1167129E+00
         21   -1    0    0  503  502  0.00000000000E+00  0.00000000000E+00  0.18451008343E+04  0.18451008343E+04  0.00000000000E+00 0.  1.
         21   -1    0    0  501  503 -0.00000000000E+00 -0.00000000000E+00 -0.17863951422E+02  0.17863951422E+02  0.00000000000E+00 0.  1.
          6    1    1    2  501    0 -0.30318849974E+02  0.46352811048E+02  0.82343264456E+03  0.84302617746E+03  0.17200000000E+03 0.  1.
         -6    1    1    2    0  502  0.30318849974E+02 -0.46352811048E+02  0.10038042383E+04  0.10199386082E+04  0.17200000000E+03 0.  1.
<mgrwt>
<rscale>  2 0.18069813E+03</rscale>
<asrwt>0</asrwt>
<pdfrwt beam="1">  1       21 0.46127456E+00 0.18069813E+03</pdfrwt>
<pdfrwt beam="2">  1       21 0.44659941E-02 0.18069813E+03</pdfrwt>
<totfact> 0.11619896E+03</totfact>
</mgrwt>
</event>
<event>
 4    1  0.1100959E+000  0.2810585E+03  0.7546771E-02  0.1095112E+00
         21   -1    0    0  501  502  0.00000000000E+00  0.00000000000E+00  0.17141076061E+03  0.17141076061E+03  0.00000000000E+00 0.  1.
         21   -1    0    0  502  503 -0.00000000000E+00 -0.00000000000E+00 -0.52231278064E+03  0.52231278064E+03  0.00000000000E+00 0. -1.
          6    1    1    2  501    0 -0.97041049499E+02 -0.19998227466E+03 -0.56460272630E+02  0.28667339928E+03  0.17200000000E+03 0. -1.
         -6    1    1    2    0  503  0.97041049499E+02  0.19998227466E+03 -0.29444174740E+03  0.40705014197E+03  0.17200000000E+03 0.  1.
<mgrwt>
<rscale>  2 0.28105849E+03</rscale>
<asrwt>0</asrwt>
<pdfrwt beam="1">  1       21 0.42852691E-01 0.28105849E+03</pdfrwt>
<pdfrwt beam="2">  1       21 0.13057819E+00 0.28105849E+03</pdfrwt>
<totfact> 0.20896078E+03</totfact>
</mgrwt>
</event>
<event>
 4    1  0.1100959E+000  0.1723003E+03  0.7546771E-02  0.1175470E+00
         21   -1    0    0  503  502  0.00000000000E+00  0.00000000000E+00  0.36505297800E+03  0.36505297800E+03  0.00000000000E+00 0.  1.
         21   -1    0    0  501  503 -0.00000000000E+00 -0.00000000000E+00 -0.19389373370E+03  0.19389373370E+03  0.00000000000E+00 0.  1.
          6    1    1    2  501    0 -0.90864443330E+01 -0.45654221028E+01 -0.12736672642E+03  0.21426546513E+03  0.17200000000E+03 0.  1.
         -6    1    1    2    0  502  0.90864443330E+01  0.45654221028E+01  0.29852597071E+03  0.34468124657E+03  0.17200000000E+03 0.  1.
<mgrwt>
<rscale>  2 0.17230034E+03</rscale>
<asrwt>0</asrwt>
<pdfrwt beam="1">  1       21 0.91263244E-01 0.17230034E+03</pdfrwt>
<pdfrwt beam="2">  1       21 0.48473434E-01 0.17230034E+03</pdfrwt>
<totfact> 0.42054754E+03</totfact>
</mgrwt>
</event>
<event>
 4    1  0.1100959E+000  0.2660976E+03  0.7546771E-02  0.1103534E+00
         21   -1    0    0  501  502  0.00000000000E+00  0.00000000000E+00  0.80714902444E+03  0.80714902444E+03  0.00000000000E+00 0. -1.
         21   -1    0    0  502  503 -0.00000000000E+00 -0.00000000000E+00 -0.16265221596E+03  0.16265221596E+03  0.00000000000E+00 0. -1.
          6    1    1    2  501    0  0.12126633208E+03 -0.16284475223E+03  0.65135737047E+03  0.70361520783E+03  0.17200000000E+03 0. -1.
         -6    1    1    2    0  503 -0.12126633208E+03  0.16284475223E+03 -0.68605619912E+01  0.26618603257E+03  0.17200000000E+03 0. -1.
<mgrwt>
<rscale>  2 0.26609761E+03</rscale>
<asrwt>0</asrwt>
<pdfrwt beam="1">  1       21 0.20178725E+00 0.26609761E+03</pdfrwt>
<pdfrwt beam="2">  1       21 0.40663056E-01 0.26609761E+03</pdfrwt>
<totfact> 0.70774536E+02</totfact>
</mgrwt>
</event>
<event>
 4    1  0.1100959E+000  0.1729594E+03  0.7546771E-02  0.1174796E+00
         21   -1    0    0  501  502  0.00000000000E+00  0.00000000000E+00  0.66370644767E+02  0.66370644767E+02  0.00000000000E+00 0. -1.
         21   -1    0    0  502  503 -0.00000000000E+00 -0.00000000000E+00 -0.54513945535E+03  0.54513945535E+03  0.00000000000E+00 0. -1.
          6    1    1    2  501    0  0.62872437471E+01  0.17071055156E+02 -0.11214030976E+03  0.20613199517E+03  0.17200000000E+03 0. -1.
         -6    1    1    2    0  503 -0.62872437471E+01 -0.17071055156E+02 -0.36662850082E+03  0.40537810495E+03  0.17200000000E+03 0. -1.
<mgrwt>
<rscale>  2 0.17295939E+03</rscale>
<asrwt>0</asrwt>
<pdfrwt beam="1">  1       21 0.16592661E-01 0.17295939E+03</pdfrwt>
<pdfrwt beam="2">  1       21 0.13628486E+00 0.17295939E+03</pdfrwt>
<totfact> 0.12689316E+04</totfact>
</mgrwt>
</event>
<event>
 4    1  0.1100959E+000  0.2237932E+03  0.7546771E-02  0.1131086E+00
         21   -1    0    0  501  502  0.00000000000E+00  0.00000000000E+00  0.61887540671E+03  0.61887540671E+03  0.00000000000E+00 0. -1.
         21   -1    0    0  502  503 -0.00000000000E+00 -0.00000000000E+00 -0.82104112768E+02  0.82104112768E+02  0.00000000000E+00 0. -1.
          6    1    1    2  501    0  0.13397897451E+03 -0.50488074216E+02  0.31036124740E+03  0.38263234983E+03  0.17200000000E+03 0. -1.
         -6    1    1    2    0  503 -0.13397897451E+03  0.50488074216E+02  0.22641004655E+03  0.31834716965E+03  0.17200000000E+03 0. -1.
<mgrwt>
<rscale>  2 0.22379323E+03</rscale>
<asrwt>0</asrwt>
<pdfrwt beam="1">  1       21 0.15471884E+00 0.22379323E+03</pdfrwt>
<pdfrwt beam="2">  1       21 0.20526030E-01 0.22379323E+03</pdfrwt>
<totfact> 0.59084502E+03</totfact>
</mgrwt>
</event>
<event>
 4    1  0.1100959E+000  0.2904392E+03  0.7546771E-02  0.1090120E+00
         21   -1    0    0  503  502  0.00000000000E+00  0.00000000000E+00  0.32945492899E+03  0.32945492899E+03  0.00000000000E+00 0.  1.
         21   -1    0    0  501  503 -0.00000000000E+00 -0.00000000000E+00 -0.29306069731E+03  0.29306069731E+03  0.00000000000E+00 0. -1.
          6    1    1    2  501    0 -0.51329951200E+02 -0.22833346320E+03  0.12881891699E+03  0.31772511339E+03  0.17200000000E+03 0.  1.
         -6    1    1    2    0  502  0.51329951200E+02  0.22833346320E+03 -0.92424685314E+02  0.30479051291E+03  0.17200000000E+03 0. -1.
<mgrwt>
<rscale>  2 0.29043921E+03</rscale>
<asrwt>0</asrwt>
<pdfrwt beam="1">  1       21 0.82363732E-01 0.29043921E+03</pdfrwt>
<pdfrwt beam="2">  1       21 0.73265174E-01 0.29043921E+03</pdfrwt>
<totfact> 0.20052999E+03</totfact>
</mgrwt>
</event>
<event>
 4    1  0.1100959E+000  0.3089016E+03  0.7546771E-02  0.1080874E+00
         21   -1    0    0  501  502  0.00000000000E+00  0.00000000000E+00  0.22026510026E+03  0.22026510026E+03  0.00000000000E+00 0. -1.
         21   -1    0    0  502  503 -0.00000000000E+00 -0.00000000000E+00 -0.65263558079E+03  0.65263558079E+03  0.00000000000E+00 0.  1.
          6    1    1    2  501    0 -0.53891223751E+02 -0.25086240599E+03  0.36888355293E+02  0.31109638618E+03  0.17200000000E+03 0. -1.
         -6    1    1    2    0  503  0.53891223751E+02  0.25086240599E+03 -0.46925883582E+03  0.56180429487E+03  0.17200000000E+03 0.  1.
<mgrwt>
<rscale>  2 0.30890162E+03</rscale>
<asrwt>0</asrwt>
<pdfrwt beam="1">  1       21 0.55066276E-01 0.30890162E+03</pdfrwt>
<pdfrwt beam="2">  1       21 0.16315889E+00 0.30890162E+03</pdfrwt>
<totfact> 0.67067589E+02</totfact>
</mgrwt>
</event>
<event>
 4    1  0.1100959E+000  0.1735535E+03  0.7546771E-02  0.1174192E+00
         21   -1    0    0  501  502  0.00000000000E+00  0.00000000000E+00  0.43268051222E+02  0.43268051222E+02  0.00000000000E+00 0. -1.
         21   -1    0    0  502  503 -0.00000000000E+00 -0.00000000000E+00 -0.13144544132E+04  0.13144544132E+04  0.00000000000E+00 0. -1.
          6    1    1    2  501    0  0.49468458476E+01  0.22634931723E+02 -0.11011914796E+04  0.11147840536E+04  0.17200000000E+03 0. -1.
         -6    1    1    2    0  503 -0.49468458476E+01 -0.22634931723E+02 -0.16999488238E+03  0.24293841082E+03  0.17200000000E+03 0. -1.
<mgrwt>
<rscale>  2 0.17355348E+03</rscale>
<asrwt>0</asrwt>
<pdfrwt beam="1">  1       21 0.10817013E-01 0.17355348E+03</pdfrwt>
<pdfrwt beam="2">  1       21 0.32861360E+00 0.17355348E+03</pdfrwt>
<totfact> 0.16927514E+03</totfact>
</mgrwt>
</event>
<event>
 4    1  0.1100959E+000  0.2021802E+03  0.7546771E-02  0.1147912E+00
         21   -1    0    0  501  502  0.00000000000E+00  0.00000000000E+00  0.80230129819E+03  0.80230129819E+03  0.00000000000E+00 0.  1.
         21   -1    0    0  502  503 -0.00000000000E+00 -0.00000000000E+00 -0.74301044481E+02  0.74301044481E+02  0.00000000000E+00 0.  1.
          6    1    1    2  501    0 -0.52586798778E+01  0.10613757405E+03  0.60971594309E+03  0.64236311351E+03  0.17200000000E+03 0.  1.
         -6    1    1    2    0  503  0.52586798778E+01 -0.10613757405E+03  0.11828431062E+03  0.23423922916E+03  0.17200000000E+03 0.  1.
<mgrwt>
<rscale>  2 0.20218021E+03</rscale>
<asrwt>0</asrwt>
<pdfrwt beam="1">  1       21 0.20057530E+00 0.20218021E+03</pdfrwt>
<pdfrwt beam="2">  1       21 0.18575264E-01 0.20218021E+03</pdfrwt>
<totfact> 0.34941277E+03</totfact>
</mgrwt>
</event>
<event>
 4    1  0.1100959E+000  0.1808700E+03  0.7546771E-02  0.1166964E+00
         21   -1    0    0  501  502  0.00000000000E+00  0.00000000000E+00  0.27975253437E+03  0.27975253437E+03  0.00000000000E+00 0. -1.
         21   -1    0    0  502  503 -0.00000000000E+00 -0.00000000000E+00 -0.18095341136E+03  0.18095341136E+03  0.00000000000E+00 0. -1.
          6    1    1    2  501    0  0.28405160650E+02 -0.48198496963E+02  0.18640875715E+03  0.25973481285E+03  0.17200000000E+03 0. -1.
         -6    1    1    2    0  503 -0.28405160650E+02  0.48198496963E+02 -0.87609634139E+02  0.20097113289E+03  0.17200000000E+03 0. -1.
<mgrwt>
<rscale>  2 0.18086998E+03</rscale>
<asrwt>0</asrwt>
<pdfrwt beam="1">  1       21 0.69938133E-01 0.18086998E+03</pdfrwt>
<pdfrwt beam="2">  1       21 0.45238353E-01 0.18086998E+03</pdfrwt>
<totfact> 0.87758395E+03</totfact>
</mgrwt>
</event>
<event>
 4    1  0.1100959E+000  0.2626355E+03  0.7546771E-02  0.1105570E+00
         21   -1    0    0  503  502  0.00000000000E+00  0.00000000000E+00  0.16836854738E+03  0.16836854738E+03  0.00000000000E+00 0. -1.
         21   -1    0    0  501  503 -0.00000000000E+00 -0.00000000000E+00 -0.65924416202E+03  0.65924416202E+03  0.00000000000E+00 0. -1.
          6    1    1    2  501    0  0.17293634595E+03  0.97398371845E+02 -0.50004115278E+03  0.56481729529E+03  0.17200000000E+03 0. -1.
         -6    1    1    2    0  502 -0.17293634595E+03 -0.97398371845E+02  0.91655381454E+01  0.26279541411E+03  0.17200000000E+03 0. -1.
<mgrwt>
<rscale>  2 0.26263553E+03</rscale>
<asrwt>0</asrwt>
<pdfrwt beam="1">  1       21 0.42092137E-01 0.26263553E+03</pdfrwt>
<pdfrwt beam="2">  1       21 0.16481104E+00 0.26263553E+03</pdfrwt>
<totfact> 0.11842111E+03</totfact>
</mgrwt>
</event>
<event>
 4    1  0.1100959E+000  0.1842223E+03  0.7546771E-02  0.1163778E+00
         21   -1    0    0  501  502  0.00000000000E+00  0.00000000000E+00  0.15984510250E+03  0.15984510250E+03  0.00000000000E+00 0. -1.
         21   -1    0    0  502  503 -0.00000000000E+00 -0.00000000000E+00 -0.25267147747E+03  0.25267147747E+03  0.00000000000E+00 0.  1.
          6    1    1    2  501    0  0.62392568501E+02 -0.21471083877E+02  0.36015601105E+02  0.18770978549E+03  0.17200000000E+03 0. -1.
         -6    1    1    2    0  503 -0.62392568501E+02  0.21471083877E+02 -0.12884197607E+03  0.22480679448E+03  0.17200000000E+03 0. -1.
<mgrwt>
<rscale>  2 0.18422226E+03</rscale>
<asrwt>0</asrwt>
<pdfrwt beam="1">  1       21 0.39961276E-01 0.18422226E+03</pdfrwt>
<pdfrwt beam="2">  1       21 0.63167869E-01 0.18422226E+03</pdfrwt>
<totfact> 0.14072321E+04</totfact>
</mgrwt>
</event>
<event>
 4    1  0.1100959E+000  0.2144108E+03  0.7546771E-02  0.1138120E+00
         21   -1    0    0  503  502  0.00000000000E+00  0.00000000000E+00  0.13111287310E+03  0.13111287310E+03  0.00000000000E+00 0.  1.
         21   -1    0    0  501  503 -0.00000000000E+00 -0.00000000000E+00 -0.37769282931E+03  0.37769282931E+03  0.00000000000E+00 0. -1.
          6    1    1    2  501    0  0.12711040053E+03  0.15196492132E+02 -0.19138988381E+03  0.28740576703E+03  0.17200000000E+03 0. -1.
         -6    1    1    2    0  502 -0.12711040053E+03 -0.15196492132E+02 -0.55190072398E+02  0.22139993538E+03  0.17200000000E+03 0.  1.
<mgrwt>
<rscale>  2 0.21441079E+03</rscale>
<asrwt>0</asrwt>
<pdfrwt beam="1">  1       21 0.32778219E-01 0.21441079E+03</pdfrwt>
<pdfrwt beam="2">  1       21 0.94423207E-01 0.21441079E+03</pdfrwt>
<totfact> 0.82891858E+03</totfact>
</mgrwt>
</event>
<event>
 4    1  0.1100959E+000  0.1810249E+03  0.7546771E-02  0.1166815E+00
         21   -1    0    0  503  502  0.00000000000E+00  0.00000000000E+00  0.27405979246E+03  0.27405979246E+03  0.00000000000E+00 0. -1.
         21   -1    0    0  501  503 -0.00000000000E+00 -0.00000000000E+00 -0.17327117608E+03  0.17327117608E+03  0.00000000000E+00 0. -1.
          6    1    1    2  501    0 -0.38313702560E+02 -0.41449469513E+02 -0.74119591847E+02  0.19561112500E+03  0.17200000000E+03 0. -1.
         -6    1    1    2    0  502  0.38313702560E+02  0.41449469513E+02  0.17490820823E+03  0.25171984354E+03  0.17200000000E+03 0. -1.
<mgrwt>
<rscale>  2 0.18102486E+03</rscale>
<asrwt>0</asrwt>
<pdfrwt beam="1">  1       21 0.68514948E-01 0.18102486E+03</pdfrwt>
<pdfrwt beam="2">  1       21 0.43317794E-01 0.18102486E+03</pdfrwt>
<totfact> 0.10032150E+04</totfact>
</mgrwt>
</event>
<event>
 4    1  0.1100959E+000  0.1813022E+03  0.7546771E-02  0.1166549E+00
         21   -1    0    0  503  502  0.00000000000E+00  0.00000000000E+00  0.45258196800E+03  0.45258196800E+03  0.00000000000E+00 0. -1.
         21   -1    0    0  501  503 -0.00000000000E+00 -0.00000000000E+00 -0.72629206758E+02  0.72629206758E+02  0.00000000000E+00 0. -1.
          6    1    1    2  501    0  0.41740974520E+02 -0.39295817682E+02  0.19062266232E+03  0.26307312602E+03  0.17200000000E+03 0. -1.
         -6    1    1    2    0  502 -0.41740974520E+02  0.39295817682E+02  0.18933009892E+03  0.26213804874E+03  0.17200000000E+03 0. -1.
<mgrwt>
<rscale>  2 0.18130215E+03</rscale>
<asrwt>0</asrwt>
<pdfrwt beam="1">  1       21 0.11314548E+00 0.18130215E+03</pdfrwt>
<pdfrwt beam="2">  1       21 0.18157303E-01 0.18130215E+03</pdfrwt>
<totfact> 0.16975869E+04</totfact>
</mgrwt>
</event>
<event>
 4    1  0.1100959E+000  0.1818810E+03  0.7546771E-02  0.1165995E+00
         21   -1    0    0  503  502  0.00000000000E+00  0.00000000000E+00  0.19434302326E+03  0.19434302326E+03  0.00000000000E+00 0.  1.
         21   -1    0    0  501  503 -0.00000000000E+00 -0.00000000000E+00 -0.64978775432E+03  0.64978775432E+03  0.00000000000E+00 0. -1.
          6    1    1    2  501    0  0.52972956343E+02 -0.26278762532E+02 -0.59031569359E+03  0.61770002879E+03  0.17200000000E+03 0. -1.
         -6    1    1    2    0  502 -0.52972956343E+02  0.26278762532E+02  0.13487096253E+03  0.22643074879E+03  0.17200000000E+03 0.  1.
<mgrwt>
<rscale>  2 0.18188103E+03</rscale>
<asrwt>0</asrwt>
<pdfrwt beam="1">  1       21 0.48585757E-01 0.18188103E+03</pdfrwt>
<pdfrwt beam="2">  1       21 0.16244694E+00 0.18188103E+03</pdfrwt>
<totfact> 0.98872802E+02</totfact>
</mgrwt>
</event>
<event>
 4    1  0.1100959E+000  0.2802879E+03  0.7546771E-02  0.1095532E+00
         21   -1    0    0  501  502  0.00000000000E+00  0.00000000000E+00  0.88056288574E+03  0.88056288574E+03  0.00000000000E+00 0.  1.
         21   -1    0    0  502  503 -0.00000000000E+00 -0.00000000000E+00 -0.11551439233E+03  0.11551439233E+03  0.00000000000E+00 0.  1.
          6    1    1    2  501    0 -0.21672549342E+03  0.44803829770E+02  0.62015354427E+03  0.68055252636E+03  0.17200000000E+03 0.  1.
         -6    1    1    2    0  503  0.21672549342E+03 -0.44803829770E+02  0.14489494913E+03  0.31552475171E+03  0.17200000000E+03 0.  1.
<mgrwt>
<rscale>  2 0.28028793E+03</rscale>
<asrwt>0</asrwt>
<pdfrwt beam="1">  1       21 0.22014070E+00 0.28028793E+03</pdfrwt>
<pdfrwt beam="2">  1       21 0.28878601E-01 0.28028793E+03</pdfrwt>
<totfact> 0.10586734E+03</totfact>
</mgrwt>
</event>
<event>
 4    1  0.1100959E+000  0.1879657E+03  0.7546771E-02  0.1160309E+00
         21   -1    0    0  501  502  0.00000000000E+00  0.00000000000E+00  0.34581356294E+03  0.34581356294E+03  0.00000000000E+00 0.  1.
         21   -1    0    0  502  503 -0.00000000000E+00 -0.00000000000E+00 -0.13556181595E+03  0.13556181595E+03  0.00000000000E+00 0.  1.
          6    1    1    2  501    0 -0.68171826292E+02 -0.33162096514E+02  0.22458447200E+03  0.29286397459E+03  0.17200000000E+03 0.  1.
         -6    1    1    2    0  503  0.68171826292E+02  0.33162096514E+02 -0.14332725012E+02  0.18851140430E+03  0.17200000000E+03 0.  1.
<mgrwt>
<rscale>  2 0.18796575E+03</rscale>
<asrwt>0</asrwt>
<pdfrwt beam="1">  1       21 0.86453389E-01 0.18796575E+03</pdfrwt>
<pdfrwt beam="2">  1       21 0.33890455E-01 0.18796575E+03</pdfrwt>
<totfact> 0.96997091E+03</totfact>
</mgrwt>
</event>
<event>
 4    1  0.1100959E+000  0.1828404E+03  0.7546771E-02  0.1165082E+00
         21   -1    0    0  503  502  0.00000000000E+00  0.00000000000E+00  0.96255296999E+02  0.96255296999E+02  0.00000000000E+00 0.  1.
         21   -1    0    0  501  503 -0.00000000000E+00 -0.00000000000E+00 -0.41329852266E+03  0.41329852266E+03  0.00000000000E+00 0.  1.
          6    1    1    2  501    0 -0.28043033668E+02  0.55319169595E+02 -0.26032346357E+03  0.31811778942E+03  0.17200000000E+03 0.  1.
         -6    1    1    2    0  502  0.28043033668E+02 -0.55319169595E+02 -0.56719762095E+02  0.19143603024E+03  0.17200000000E+03 0.  1.
<mgrwt>
<rscale>  2 0.18284043E+03</rscale>
<asrwt>0</asrwt>
<pdfrwt beam="1">  1       21 0.24063824E-01 0.18284043E+03</pdfrwt>
<pdfrwt beam="2">  1       21 0.10332463E+00 0.18284043E+03</pdfrwt>
<totfact> 0.12452058E+04</totfact>
</mgrwt>
</event>
<event>
 4    1  0.1100959E+000  0.1985511E+03  0.7546771E-02  0.1150967E+00
         21   -1    0    0  503  502  0.00000000000E+00  0.00000000000E+00  0.52168167941E+03  0.52168167941E+03  0.00000000000E+00 0.  1.
         21   -1    0    0  501  503 -0.00000000000E+00 -0.00000000000E+00 -0.10791880486E+03  0.10791880486E+03  0.00000000000E+00 0.  1.
          6    1    1    2  501    0 -0.77458221985E+02  0.61957785380E+02  0.34524914192E+02  0.20153042704E+03  0.17200000000E+03 0.  1.
         -6    1    1    2    0  502  0.77458221985E+02 -0.61957785380E+02  0.37923796036E+03  0.42807005723E+03  0.17200000000E+03 0.  1.
<mgrwt>
<rscale>  2 0.19855111E+03</rscale>
<asrwt>0</asrwt>
<pdfrwt beam="1">  1       21 0.13042041E+00 0.19855111E+03</pdfrwt>
<pdfrwt beam="2">  1       21 0.26979703E-01 0.19855111E+03</pdfrwt>
<totfact> 0.55849149E+03</totfact>
</mgrwt>
</event>
<event>
 4    1  0.1100959E+000  0.1787803E+03  0.7546771E-02  0.1168989E+00
         21   -1    0    0  501  502  0.00000000000E+00  0.00000000000E+00  0.12647885949E+03  0.12647885949E+03  0.00000000000E+00 0.  1.
         21   -1    0    0  502  503 -0.00000000000E+00 -0.00000000000E+00 -0.36651750116E+03  0.36651750116E+03  0.00000000000E+00 0. -1.
          6    1    1    2  501    0  0.19732064292E+02 -0.44598560299E+02  0.17338410759E+02  0.17961905920E+03  0.17200000000E+03 0.  1.
         -6    1    1    2    0  503 -0.19732064292E+02  0.44598560299E+02 -0.25737705243E+03  0.31337730144E+03  0.17200000000E+03 0. -1.
<mgrwt>
<rscale>  2 0.17878027E+03</rscale>
<asrwt>0</asrwt>
<pdfrwt beam="1">  1       21 0.31619715E-01 0.17878027E+03</pdfrwt>
<pdfrwt beam="2">  1       21 0.91629375E-01 0.17878027E+03</pdfrwt>
<totfact> 0.97859586E+03</totfact>
</mgrwt>
</event>
<event>
 4    1  0.1100959E+000  0.2148174E+03  0.7546771E-02  0.1137807E+00
         21   -1    0    0  503  502  0.00000000000E+00  0.00000000000E+00  0.17792256467E+03  0.17792256467E+03  0.00000000000E+00 0. -1.
         21   -1    0    0  501  503 -0.00000000000E+00 -0.00000000000E+00 -0.26168251391E+03  0.26168251391E+03  0.00000000000E+00 0. -1.
          6    1    1    2  501    0 -0.12810591973E+03 -0.12303656638E+02 -0.62574535299E+02  0.22374556779E+03  0.17200000000E+03 0.  1.
         -6    1    1    2    0  502  0.12810591973E+03  0.12303656638E+02 -0.21185413948E+02  0.21585951079E+03  0.17200000000E+03 0.  1.
<mgrwt>
<rscale>  2 0.21481738E+03</rscale>
<asrwt>0</asrwt>
<pdfrwt beam="1">  1       21 0.44480641E-01 0.21481738E+03</pdfrwt>
<pdfrwt beam="2">  1       21 0.65420628E-01 0.21481738E+03</pdfrwt>
<totfact> 0.10275262E+04</totfact>
</mgrwt>
</event>
<event>
 4    1  0.1100959E+000  0.1864814E+03  0.7546771E-02  0.1161674E+00
         21   -1    0    0  503  502  0.00000000000E+00  0.00000000000E+00  0.20854659197E+03  0.20854659197E+03  0.00000000000E+00 0. -1.
         21   -1    0    0  501  503 -0.00000000000E+00 -0.00000000000E+00 -0.23896314167E+03  0.23896314167E+03  0.00000000000E+00 0. -1.
          6    1    1    2  501    0 -0.34004555227E+02 -0.63521586910E+02 -0.13821047463E+03  0.23211513754E+03  0.17200000000E+03 0. -1.
         -6    1    1    2    0  502  0.34004555227E+02  0.63521586910E+02  0.10779392493E+03  0.21539459610E+03  0.17200000000E+03 0. -1.
<mgrwt>
<rscale>  2 0.18648137E+03</rscale>
<asrwt>0</asrwt>
<pdfrwt beam="1">  1       21 0.52136648E-01 0.18648137E+03</pdfrwt>
<pdfrwt beam="2">  1       21 0.59740785E-01 0.18648137E+03</pdfrwt>
<totfact> 0.91700615E+03</totfact>
</mgrwt>
</event>
<event>
 4    1  0.1100959E+000  0.2166104E+03  0.7546771E-02  0.1136436E+00
         21   -1    0    0  501  502  0.00000000000E+00  0.00000000000E+00  0.39011954508E+03  0.39011954508E+03  0.00000000000E+00 0. -1.
         21   -1    0    0  502  503 -0.00000000000E+00 -0.00000000000E+00 -0.12125552565E+03  0.12125552565E+03  0.00000000000E+00 0. -1.
          6    1    1    2  501    0 -0.12673863111E+03 -0.35684657397E+02  0.15747124272E+03  0.26780079849E+03  0.17200000000E+03 0. -1.
         -6    1    1    2    0  503  0.12673863111E+03  0.35684657397E+02  0.11139277671E+03  0.24357427223E+03  0.17200000000E+03 0. -1.
<mgrwt>
<rscale>  2 0.21661042E+03</rscale>
<asrwt>0</asrwt>
<pdfrwt beam="1">  1       21 0.97529884E-01 0.21661042E+03</pdfrwt>
<pdfrwt beam="2">  1       21 0.30313882E-01 0.21661042E+03</pdfrwt>
<totfact> 0.89431800E+03</totfact>
</mgrwt>
</event>
<event>
 4    1  0.1100959E+000  0.1831368E+03  0.7546771E-02  0.1164801E+00
         21   -1    0    0  501  502  0.00000000000E+00  0.00000000000E+00  0.71567255411E+03  0.71567255411E+03  0.00000000000E+00 0. -1.
         21   -1    0    0  502  503 -0.00000000000E+00 -0.00000000000E+00 -0.50878769604E+02  0.50878769604E+02  0.00000000000E+00 0.  1.
          6    1    1    2  501    0 -0.42270781501E+02 -0.46564619954E+02  0.44006524065E+03  0.47665133885E+03  0.17200000000E+03 0.  1.
         -6    1    1    2    0  503  0.42270781501E+02  0.46564619954E+02  0.22472854385E+03  0.28989998486E+03  0.17200000000E+03 0.  1.
<mgrwt>
<rscale>  2 0.18313679E+03</rscale>
<asrwt>0</asrwt>
<pdfrwt beam="1">  1       21 0.17891811E+00 0.18313679E+03</pdfrwt>
<pdfrwt beam="2">  1       21 0.12719695E-01 0.18313679E+03</pdfrwt>
<totfact> 0.98598651E+03</totfact>
</mgrwt>
</event>
<event>
 4    1  0.1100959E+000  0.1923662E+03  0.7546771E-02  0.1156344E+00
         21   -1    0    0  501  502  0.00000000000E+00  0.00000000000E+00  0.52094176742E+03  0.52094176742E+03  0.00000000000E+00 0.  1.
         21   -1    0    0  502  503 -0.00000000000E+00 -0.00000000000E+00 -0.72538529745E+02  0.72538529745E+02  0.00000000000E+00 0.  1.
          6    1    1    2  501    0 -0.22138694759E+02 -0.83250408732E+02  0.26693269944E+03  0.32902555887E+03  0.17200000000E+03 0.  1.
         -6    1    1    2    0  503  0.22138694759E+02  0.83250408732E+02  0.18147053824E+03  0.26445473830E+03  0.17200000000E+03 0.  1.
<mgrwt>
<rscale>  2 0.19236619E+03</rscale>
<asrwt>0</asrwt>
<pdfrwt beam="1">  1       21 0.13023543E+00 0.19236619E+03</pdfrwt>
<pdfrwt beam="2">  1       21 0.18134634E-01 0.19236619E+03</pdfrwt>
<totfact> 0.11918154E+04</totfact>
</mgrwt>
</event>
<event>
 4    1  0.1100959E+000  0.1911965E+03  0.7546771E-02  0.1157387E+00
         21   -1    0    0  503  502  0.00000000000E+00  0.00000000000E+00  0.19347077974E+03  0.19347077974E+03  0.00000000000E+00 0.  1.
         21   -1    0    0  501  503 -0.00000000000E+00 -0.00000000000E+00 -0.22734093748E+03  0.22734093748E+03  0.00000000000E+00 0.  1.
          6    1    1    2  501    0  0.65469651077E+02 -0.51824974352E+02  0.69529698945E+02  0.20344650947E+03  0.17200000000E+03 0.  1.
         -6    1    1    2    0  502 -0.65469651077E+02  0.51824974352E+02 -0.10339985668E+03  0.21736520775E+03  0.17200000000E+03 0.  1.
<mgrwt>
<rscale>  2 0.19119650E+03</rscale>
<asrwt>0</asrwt>
<pdfrwt beam="1">  1       21 0.48367695E-01 0.19119650E+03</pdfrwt>
<pdfrwt beam="2">  1       21 0.56835234E-01 0.19119650E+03</pdfrwt>
<totfact> 0.11890400E+04</totfact>
</mgrwt>
</event>
<event>
 4    1  0.1100959E+000  0.1825965E+03  0.7546771E-02  0.1165314E+00
         21   -1    0    0  503  502  0.00000000000E+00  0.00000000000E+00  0.51087358830E+03  0.51087358830E+03  0.00000000000E+00 0. -1.
         21   -1    0    0  501  503 -0.00000000000E+00 -0.00000000000E+00 -0.96255246665E+02  0.96255246665E+02  0.00000000000E+00 0. -1.
          6    1    1    2  501    0 -0.52026041857E+01 -0.61077132950E+02  0.35058658745E+02  0.18593168857E+03  0.17200000000E+03 0. -1.
         -6    1    1    2    0  502  0.52026041857E+01  0.61077132950E+02  0.37955968289E+03  0.42119714640E+03  0.17200000000E+03 0. -1.
<mgrwt>
<rscale>  2 0.18259650E+03</rscale>
<asrwt>0</asrwt>
<pdfrwt beam="1">  1       21 0.12771839E+00 0.18259650E+03</pdfrwt>
<pdfrwt beam="2">  1       21 0.24063813E-01 0.18259650E+03</pdfrwt>
<totfact> 0.74197284E+03</totfact>
</mgrwt>
</event>
<event>
 4    1  0.1100959E+000  0.1813463E+03  0.7546771E-02  0.1166506E+00
         21   -1    0    0  501  502  0.00000000000E+00  0.00000000000E+00  0.44773669243E+03  0.44773669243E+03  0.00000000000E+00 0. -1.
         21   -1    0    0  502  503 -0.00000000000E+00 -0.00000000000E+00 -0.79815645847E+02  0.79815645847E+02  0.00000000000E+00 0. -1.
          6    1    1    2  501    0  0.56184981201E+02 -0.12072266345E+02  0.10947101185E+03  0.21182633019E+03  0.17200000000E+03 0. -1.
         -6    1    1    2    0  503 -0.56184981201E+02  0.12072266345E+02  0.25845003473E+03  0.31572600808E+03  0.17200000000E+03 0. -1.
<mgrwt>
<rscale>  2 0.18134633E+03</rscale>
<asrwt>0</asrwt>
<pdfrwt beam="1">  1       21 0.11193417E+00 0.18134633E+03</pdfrwt>
<pdfrwt beam="2">  1       21 0.19953913E-01 0.18134633E+03</pdfrwt>
<totfact> 0.14624780E+04</totfact>
</mgrwt>
</event>
<event>
 4    1  0.1100959E+000  0.1983570E+03  0.7546771E-02  0.1151133E+00
         21   -1    0    0  501  502  0.00000000000E+00  0.00000000000E+00  0.56185928845E+02  0.56185928845E+02  0.00000000000E+00 0. -1.
         21   -1    0    0  502  503 -0.00000000000E+00 -0.00000000000E+00 -0.85594780612E+03  0.85594780612E+03  0.00000000000E+00 0.  1.
          6    1    1    2  501    0  0.11164168580E+02  0.98167522934E+02 -0.20538356414E+03  0.28553092589E+03  0.17200000000E+03 0. -1.
         -6    1    1    2    0  503 -0.11164168580E+02 -0.98167522934E+02 -0.59437831313E+03  0.62660280907E+03  0.17200000000E+03 0.  1.
<mgrwt>
<rscale>  2 0.19835700E+03</rscale>
<asrwt>0</asrwt>
<pdfrwt beam="1">  1       21 0.14046482E-01 0.19835700E+03</pdfrwt>
<pdfrwt beam="2">  1       21 0.21398695E+00 0.19835700E+03</pdfrwt>
<totfact> 0.48167897E+03</totfact>
</mgrwt>
</event>
<event>
 4    1  0.1100959E+000  0.2395016E+03  0.7546771E-02  0.1120125E+00
         21   -1    0    0  503  502  0.00000000000E+00  0.00000000000E+00  0.99925301911E+02  0.99925301911E+02  0.00000000000E+00 0. -1.
         21   -1    0    0  501  503 -0.00000000000E+00 -0.00000000000E+00 -0.88634903955E+03  0.88634903955E+03  0.00000000000E+00 0.  1.
          6    1    1    2  501    0  0.12946528121E+03  0.10495588964E+03 -0.68593596901E+03  0.72654604217E+03  0.17200000000E+03 0.  1.
         -6    1    1    2    0  502 -0.12946528121E+03 -0.10495588964E+03 -0.10048776862E+03  0.25972829929E+03  0.17200000000E+03 0. -1.
<mgrwt>
<rscale>  2 0.23950156E+03</rscale>
<asrwt>0</asrwt>
<pdfrwt beam="1">  1       21 0.24981326E-01 0.23950156E+03</pdfrwt>
<pdfrwt beam="2">  1       21 0.22158725E+00 0.23950156E+03</pdfrwt>
<totfact> 0.14220922E+03</totfact>
</mgrwt>
</event>
<event>
 4    1  0.1100959E+000  0.2105659E+03  0.7546771E-02  0.1141119E+00
         21   -1    0    0  501  502  0.00000000000E+00  0.00000000000E+00  0.66124110503E+02  0.66124110503E+02  0.00000000000E+00 0. -1.
         21   -1    0    0  502  503 -0.00000000000E+00 -0.00000000000E+00 -0.67830915724E+03  0.67830915724E+03  0.00000000000E+00 0. -1.
          6    1    1    2  501    0  0.10907668252E+03  0.53443983673E+02 -0.26622308503E+03  0.33942998256E+03  0.17200000000E+03 0. -1.
         -6    1    1    2    0  503 -0.10907668252E+03 -0.53443983673E+02 -0.34596196171E+03  0.40500328519E+03  0.17200000000E+03 0. -1.
<mgrwt>
<rscale>  2 0.21056586E+03</rscale>
<asrwt>0</asrwt>
<pdfrwt beam="1">  1       21 0.16531027E-01 0.21056586E+03</pdfrwt>
<pdfrwt beam="2">  1       21 0.16957729E+00 0.21056586E+03</pdfrwt>
<totfact> 0.69538485E+03</totfact>
</mgrwt>
</event>
<event>
 4    1  0.1100959E+000  0.1874666E+03  0.7546771E-02  0.1160766E+00
         21   -1    0    0  501  502  0.00000000000E+00  0.00000000000E+00  0.12188469767E+03  0.12188469767E+03  0.00000000000E+00 0. -1.
         21   -1    0    0  502  503 -0.00000000000E+00 -0.00000000000E+00 -0.52160757280E+03  0.52160757280E+03  0.00000000000E+00 0. -1.
          6    1    1    2  501    0 -0.50449690918E+02  0.54905065638E+02 -0.41502680511E+03  0.45540200538E+03  0.17200000000E+03 0. -1.
         -6    1    1    2    0  503  0.50449690918E+02 -0.54905065638E+02  0.15303929982E+02  0.18809026508E+03  0.17200000000E+03 0. -1.
<mgrwt>
<rscale>  2 0.18746663E+03</rscale>
<asrwt>0</asrwt>
<pdfrwt beam="1">  1       21 0.30471175E-01 0.18746663E+03</pdfrwt>
<pdfrwt beam="2">  1       21 0.13040189E+00 0.18746663E+03</pdfrwt>
<totfact> 0.44529347E+03</totfact>
</mgrwt>
</event>
<event>
 4    1  0.1100959E+000  0.1997789E+03  0.7546771E-02  0.1149926E+00
         21   -1    0    0  503  502  0.00000000000E+00  0.00000000000E+00  0.31523793497E+03  0.31523793497E+03  0.00000000000E+00 0. -1.
         21   -1    0    0  501  503 -0.00000000000E+00 -0.00000000000E+00 -0.13057707015E+03  0.13057707015E+03  0.00000000000E+00 0. -1.
          6    1    1    2  501    0 -0.10050712262E+03  0.15031392258E+02  0.53467184970E+02  0.20680997152E+03  0.17200000000E+03 0. -1.
         -6    1    1    2    0  502  0.10050712262E+03 -0.15031392258E+02  0.13119367985E+03  0.23900503359E+03  0.17200000000E+03 0. -1.
<mgrwt>
<rscale>  2 0.19977894E+03</rscale>
<asrwt>0</asrwt>
<pdfrwt beam="1">  1       21 0.78809482E-01 0.19977894E+03</pdfrwt>
<pdfrwt beam="2">  1       21 0.32644268E-01 0.19977894E+03</pdfrwt>
<totfact> 0.12788069E+04</totfact>
</mgrwt>
</event>
<event>
 4    1  0.1100959E+000  0.2101877E+03  0.7546771E-02  0.1141417E+00
         21   -1    0    0  501  502  0.00000000000E+00  0.00000000000E+00  0.47235821950E+02  0.47235821950E+02  0.00000000000E+00 0. -1.
         21   -1    0    0  502  503 -0.00000000000E+00 -0.00000000000E+00 -0.12886314781E+04  0.12886314781E+04  0.00000000000E+00 0. -1.
          6    1    1    2  501    0  0.10218115139E+02  0.12037629510E+03 -0.27093749441E+03  0.34290813372E+03  0.17200000000E+03 0. -1.
         -6    1    1    2    0  503 -0.10218115139E+02 -0.12037629510E+03 -0.97045816175E+03  0.99295916634E+03  0.17200000000E+03 0. -1.
<mgrwt>
<rscale>  2 0.21018768E+03</rscale>
<asrwt>0</asrwt>
<pdfrwt beam="1">  1       21 0.11808956E-01 0.21018768E+03</pdfrwt>
<pdfrwt beam="2">  1       21 0.32215786E+00 0.21018768E+03</pdfrwt>
<totfact> 0.15011687E+03</totfact>
</mgrwt>
</event>
<event>
 4    1  0.1100959E+000  0.2310240E+03  0.7546771E-02  0.1125921E+00
         21   -1    0    0  503  502  0.00000000000E+00  0.00000000000E+00  0.18077242487E+03  0.18077242487E+03  0.00000000000E+00 0. -1.
         21   -1    0    0  501  503 -0.00000000000E+00 -0.00000000000E+00 -0.42015707534E+03  0.42015707534E+03  0.00000000000E+00 0.  1.
          6    1    1    2  501    0  0.65947839605E+02 -0.13942374670E+03 -0.28352119592E+03  0.36572717595E+03  0.17200000000E+03 0.  1.
         -6    1    1    2    0  502 -0.65947839605E+02  0.13942374670E+03  0.44136545448E+02  0.23520232426E+03  0.17200000000E+03 0. -1.
<mgrwt>
<rscale>  2 0.23102402E+03</rscale>
<asrwt>0</asrwt>
<pdfrwt beam="1">  1       21 0.45193106E-01 0.23102402E+03</pdfrwt>
<pdfrwt beam="2">  1       21 0.10503927E+00 0.23102402E+03</pdfrwt>
<totfact> 0.33254165E+03</totfact>
</mgrwt>
</event>
<event>
 4    1  0.1100959E+000  0.1885352E+03  0.7546771E-02  0.1159789E+00
         21   -1    0    0  503  502  0.00000000000E+00  0.00000000000E+00  0.20216526705E+03  0.20216526705E+03  0.00000000000E+00 0.  1.
         21   -1    0    0  501  503 -0.00000000000E+00 -0.00000000000E+00 -0.26516233838E+03  0.26516233838E+03  0.00000000000E+00 0.  1.
          6    1    1    2  501    0 -0.74030034477E+02  0.21933577331E+02 -0.16712804546E+03  0.25194704086E+03  0.17200000000E+03 0.  1.
         -6    1    1    2    0  502  0.74030034477E+02 -0.21933577331E+02  0.10413097413E+03  0.21538056456E+03  0.17200000000E+03 0.  1.
<mgrwt>
<rscale>  2 0.18853522E+03</rscale>
<asrwt>0</asrwt>
<pdfrwt beam="1">  1       21 0.50541317E-01 0.18853522E+03</pdfrwt>
<pdfrwt beam="2">  1       21 0.66290584E-01 0.18853522E+03</pdfrwt>
<totfact> 0.78027764E+03</totfact>
</mgrwt>
</event>
<event>
 4    1  0.1100959E+000  0.2942124E+03  0.7546771E-02  0.1088170E+00
         21   -1    0    0  501  502  0.00000000000E+00  0.00000000000E+00  0.28833145051E+03  0.28833145051E+03  0.00000000000E+00 0. -1.
         21   -1    0    0  502  503 -0.00000000000E+00 -0.00000000000E+00 -0.45319589663E+03  0.45319589663E+03  0.00000000000E+00 0.  1.
          6    1    1    2  501    0  0.19119397841E+03  0.14290489557E+03  0.13298238713E+03  0.32287034835E+03  0.17200000000E+03 0. -1.
         -6    1    1    2    0  503 -0.19119397841E+03 -0.14290489557E+03 -0.29784683325E+03  0.41865699879E+03  0.17200000000E+03 0.  1.
<mgrwt>
<rscale>  2 0.29421242E+03</rscale>
<asrwt>0</asrwt>
<pdfrwt beam="1">  1       21 0.72082863E-01 0.29421242E+03</pdfrwt>
<pdfrwt beam="2">  1       21 0.11329897E+00 0.29421242E+03</pdfrwt>
<totfact> 0.97080732E+02</totfact>
</mgrwt>
</event>
<event>
 4    1  0.1100959E+000  0.2317360E+03  0.7546771E-02  0.1125424E+00
         21   -1    0    0  501  502  0.00000000000E+00  0.00000000000E+00  0.26888236584E+03  0.26888236584E+03  0.00000000000E+00 0. -1.
         21   -1    0    0  502  503 -0.00000000000E+00 -0.00000000000E+00 -0.20612270320E+03  0.20612270320E+03  0.00000000000E+00 0. -1.
          6    1    1    2  501    0  0.27476468271E+02 -0.15284838267E+03  0.73233812641E+02  0.24303245813E+03  0.17200000000E+03 0. -1.
         -6    1    1    2    0  503 -0.27476468271E+02  0.15284838267E+03 -0.10474150008E+02  0.23197261091E+03  0.17200000000E+03 0. -1.
<mgrwt>
<rscale>  2 0.23173602E+03</rscale>
<asrwt>0</asrwt>
<pdfrwt beam="1">  1       21 0.67220591E-01 0.23173602E+03</pdfrwt>
<pdfrwt beam="2">  1       21 0.51530676E-01 0.23173602E+03</pdfrwt>
<totfact> 0.70528499E+03</totfact>
</mgrwt>
</event>
<event>
 4    1  0.1100959E+000  0.1740032E+03  0.7546771E-02  0.1173736E+00
         21   -1    0    0  503  502  0.00000000000E+00  0.00000000000E+00  0.50076542067E+03  0.50076542067E+03  0.00000000000E+00 0. -1.
         21   -1    0    0  501  503 -0.00000000000E+00 -0.00000000000E+00 -0.60612406970E+02  0.60612406970E+02  0.00000000000E+00 0. -1.
          6    1    1    2  501    0  0.23299818240E+02  0.12256494240E+02  0.23407509995E+03  0.29166462864E+03  0.17200000000E+03 0. -1.
         -6    1    1    2    0  502 -0.23299818240E+02 -0.12256494240E+02  0.20607791375E+03  0.26971319900E+03  0.17200000000E+03 0. -1.
<mgrwt>
<rscale>  2 0.17400317E+03</rscale>
<asrwt>0</asrwt>
<pdfrwt beam="1">  1       21 0.12519134E+00 0.17400317E+03</pdfrwt>
<pdfrwt beam="2">  1       21 0.15153103E-01 0.17400317E+03</pdfrwt>
<totfact> 0.18527324E+04</totfact>
</mgrwt>
</event>
<event>
 4    1  0.1100959E+000  0.2089860E+03  0.7546771E-02  0.1142371E+00
         21   -1    0    0  503  502  0.00000000000E+00  0.00000000000E+00  0.31841450772E+03  0.31841450772E+03  0.00000000000E+00 0. -1.
         21   -1    0    0  501  503 -0.00000000000E+00 -0.00000000000E+00 -0.14323595759E+03  0.14323595759E+03  0.00000000000E+00 0.  1.
          6    1    1    2  501    0 -0.96028171459E+02  0.69783600068E+02  0.13511233892E+03  0.24885840287E+03  0.17200000000E+03 0. -1.
         -6    1    1    2    0  502  0.96028171459E+02 -0.69783600068E+02  0.40066211207E+02  0.21279206243E+03  0.17200000000E+03 0.  1.
<mgrwt>
<rscale>  2 0.20898603E+03</rscale>
<asrwt>0</asrwt>
<pdfrwt beam="1">  1       21 0.79603626E-01 0.20898603E+03</pdfrwt>
<pdfrwt beam="2">  1       21 0.35808990E-01 0.20898603E+03</pdfrwt>
<totfact> 0.10343347E+04</totfact>
</mgrwt>
</event>
<event>
 4    1  0.1100959E+000  0.2872134E+03  0.7546771E-02  0.1091813E+00
         21   -1    0    0  501  502  0.00000000000E+00  0.00000000000E+00  0.75943240287E+03  0.75943240287E+03  0.00000000000E+00 0. -1.
         21   -1    0    0  502  503 -0.00000000000E+00 -0.00000000000E+00 -0.21086446450E+03  0.21086446450E+03  0.00000000000E+00 0. -1.
          6    1    1    2  501    0 -0.22808119475E+03 -0.29774568618E+02  0.61210541759E+03  0.67613948160E+03  0.17200000000E+03 0. -1.
         -6    1    1    2    0  503  0.22808119475E+03  0.29774568618E+02 -0.63537479223E+02  0.29415738577E+03  0.17200000000E+03 0. -1.
<mgrwt>
<rscale>  2 0.28721343E+03</rscale>
<asrwt>0</asrwt>
<pdfrwt beam="1">  1       21 0.18985809E+00 0.28721343E+03</pdfrwt>
<pdfrwt beam="2">  1       21 0.52716118E-01 0.28721343E+03</pdfrwt>
<totfact> 0.48578722E+02</totfact>
</mgrwt>
</event>
<event>
 4    1  0.1100959E+000  0.2228292E+03  0.7546771E-02  0.1131791E+00
         21   -1    0    0  503  502  0.00000000000E+00  0.00000000000E+00  0.36622875880E+03  0.36622875880E+03  0.00000000000E+00 0.  1.
         21   -1    0    0  501  503 -0.00000000000E+00 -0.00000000000E+00 -0.15760731364E+03  0.15760731364E+03  0.00000000000E+00 0.  1.
          6    1    1    2  501    0 -0.63991636042E+01  0.14152004002E+03  0.20223027187E+03  0.30091519384E+03  0.17200000000E+03 0.  1.
         -6    1    1    2    0  502  0.63991636042E+01 -0.14152004002E+03  0.63911732906E+01  0.22292087861E+03  0.17200000000E+03 0.  1.
<mgrwt>
<rscale>  2 0.22282924E+03</rscale>
<asrwt>0</asrwt>
<pdfrwt beam="1">  1       21 0.91557188E-01 0.22282924E+03</pdfrwt>
<pdfrwt beam="2">  1       21 0.39401829E-01 0.22282924E+03</pdfrwt>
<totfact> 0.61325867E+03</totfact>
</mgrwt>
</event>
<event>
 4    1  0.1100959E+000  0.2149604E+03  0.7546771E-02  0.1137697E+00
         21   -1    0    0  503  502  0.00000000000E+00  0.00000000000E+00  0.15246616775E+04  0.15246616775E+04  0.00000000000E+00 0. -1.
         21   -1    0    0  501  503 -0.00000000000E+00 -0.00000000000E+00 -0.13927352077E+03  0.13927352077E+03  0.00000000000E+00 0.  1.
          6    1    1    2  501    0  0.81066688405E+02 -0.10026050118E+03 -0.43205589047E+02  0.21925943307E+03  0.17200000000E+03 0.  1.
         -6    1    1    2    0  502 -0.81066688405E+02  0.10026050118E+03  0.14285937458E+04  0.14446757652E+04  0.17200000000E+03 0. -1.
<mgrwt>
<rscale>  2 0.21496041E+03</rscale>
<asrwt>0</asrwt>
<pdfrwt beam="1">  1       21 0.38116537E+00 0.21496041E+03</pdfrwt>
<pdfrwt beam="2">  1       21 0.34818385E-01 0.21496041E+03</pdfrwt>
<totfact> 0.87050946E+01</totfact>
</mgrwt>
</event>
<event>
 4    1  0.1100959E+000  0.2243474E+03  0.7546771E-02  0.1130683E+00
         21   -1    0    0  503  502  0.00000000000E+00  0.00000000000E+00  0.79318578920E+03  0.79318578920E+03  0.00000000000E+00 0. -1.
         21   -1    0    0  501  503 -0.00000000000E+00 -0.00000000000E+00 -0.17635244818E+03  0.17635244818E+03  0.00000000000E+00 0. -1.
          6    1    1    2  501    0 -0.86002715283E+02 -0.11554774579E+03 -0.79453081436E+02  0.23800113601E+03  0.17200000000E+03 0. -1.
         -6    1    1    2    0  502  0.86002715283E+02  0.11554774579E+03  0.69628642245E+03  0.73153710137E+03  0.17200000000E+03 0. -1.
<mgrwt>
<rscale>  2 0.22434738E+03</rscale>
<asrwt>0</asrwt>
<pdfrwt beam="1">  1       21 0.19829644E+00 0.22434738E+03</pdfrwt>
<pdfrwt beam="2">  1       21 0.44088114E-01 0.22434738E+03</pdfrwt>
<totfact> 0.65695898E+02</totfact>
</mgrwt>
</event>
<event>
 4    1  0.1100959E+000  0.1995569E+03  0.7546771E-02  0.1150113E+00
         21   -1    0    0  503  502  0.00000000000E+00  0.00000000000E+00  0.15755646405E+03  0.15755646405E+03  0.00000000000E+00 0.  1.
         21   -1    0    0  501  503 -0.00000000000E+00 -0.00000000000E+00 -0.25539818317E+03  0.25539818317E+03  0.00000000000E+00 0. -1.
          6    1    1    2  501    0  0.49425376136E+02  0.88295439028E+02 -0.27909803692E+02  0.20149915509E+03  0.17200000000E+03 0.  1.
         -6    1    1    2    0  502 -0.49425376136E+02 -0.88295439028E+02 -0.69931915429E+02  0.21145549214E+03  0.17200000000E+03 0. -1.
<mgrwt>
<rscale>  2 0.19955689E+03</rscale>
<asrwt>0</asrwt>
<pdfrwt beam="1">  1       21 0.39389116E-01 0.19955689E+03</pdfrwt>
<pdfrwt beam="2">  1       21 0.63849546E-01 0.19955689E+03</pdfrwt>
<totfact> 0.14015412E+04</totfact>
</mgrwt>
</event>
<event>
 4    1  0.1100959E+000  0.1760487E+03  0.7546771E-02  0.1171683E+00
         21   -1    0    0  501  502  0.00000000000E+00  0.00000000000E+00  0.12454826775E+04  0.12454826775E+04  0.00000000000E+00 0.  1.
         21   -1    0    0  502  503 -0.00000000000E+00 -0.00000000000E+00 -0.43554703551E+02  0.43554703551E+02  0.00000000000E+00 0.  1.
          6    1    1    2  501    0  0.33524591637E+02  0.16889592218E+02  0.10229451306E+04  0.10379835725E+04  0.17200000000E+03 0.  1.
         -6    1    1    2    0  503 -0.33524591637E+02 -0.16889592218E+02  0.17898284333E+03  0.25105380853E+03  0.17200000000E+03 0.  1.
<mgrwt>
<rscale>  2 0.17604873E+03</rscale>
<asrwt>0</asrwt>
<pdfrwt beam="1">  1       21 0.31137055E+00 0.17604873E+03</pdfrwt>
<pdfrwt beam="2">  1       21 0.10888680E-01 0.17604873E+03</pdfrwt>
<totfact> 0.20949863E+03</totfact>
</mgrwt>
</event>
<event>
 4    1  0.1100959E+000  0.1801444E+03  0.7546771E-02  0.1167663E+00
         21   -1    0    0  501  502  0.00000000000E+00  0.00000000000E+00  0.48972801563E+02  0.48972801563E+02  0.00000000000E+00 0. -1.
         21   -1    0    0  502  503 -0.00000000000E+00 -0.00000000000E+00 -0.11644113614E+04  0.11644113614E+04  0.00000000000E+00 0. -1.
          6    1    1    2  501    0 -0.12352722236E+02 -0.52109659613E+02 -0.15946345966E+03  0.24058387589E+03  0.17200000000E+03 0. -1.
         -6    1    1    2    0  503  0.12352722236E+02  0.52109659613E+02 -0.95597510017E+03  0.97280028707E+03  0.17200000000E+03 0. -1.
<mgrwt>
<rscale>  2 0.18014440E+03</rscale>
<asrwt>0</asrwt>
<pdfrwt beam="1">  1       21 0.12243201E-01 0.18014440E+03</pdfrwt>
<pdfrwt beam="2">  1       21 0.29110284E+00 0.18014440E+03</pdfrwt>
<totfact> 0.22093390E+03</totfact>
</mgrwt>
</event>
<event>
 4    1  0.1100959E+000  0.1746170E+03  0.7546771E-02  0.1173117E+00
         21   -1    0    0  503  502  0.00000000000E+00  0.00000000000E+00  0.98698065761E+02  0.98698065761E+02  0.00000000000E+00 0. -1.
         21   -1    0    0  501  503 -0.00000000000E+00 -0.00000000000E+00 -0.31991698223E+03  0.31991698223E+03  0.00000000000E+00 0.  1.
          6    1    1    2  501    0  0.29931678012E+02  0.33454835040E+01 -0.71826182353E+02  0.18881233561E+03  0.17200000000E+03 0. -1.
         -6    1    1    2    0  502 -0.29931678012E+02 -0.33454835040E+01 -0.14939273411E+03  0.22980271237E+03  0.17200000000E+03 0.  1.
<mgrwt>
<rscale>  2 0.17461700E+03</rscale>
<asrwt>0</asrwt>
<pdfrwt beam="1">  1       21 0.24674517E-01 0.17461700E+03</pdfrwt>
<pdfrwt beam="2">  1       21 0.79979245E-01 0.17461700E+03</pdfrwt>
<totfact> 0.21605567E+04</totfact>
</mgrwt>
</event>
<event>
 4    1  0.1100959E+000  0.3669599E+03  0.7546771E-02  0.1055862E+00
         21   -1    0    0  503  502  0.00000000000E+00  0.00000000000E+00  0.23500331753E+03  0.23500331753E+03  0.00000000000E+00 0. -1.
         21   -1    0    0  501  503 -0.00000000000E+00 -0.00000000000E+00 -0.86447798674E+03  0.86447798674E+03  0.00000000000E+00 0. -1.
          6    1    1    2  501    0 -0.28312905792E+03  0.15784006302E+03 -0.63394651265E+03  0.73249418417E+03  0.17200000000E+03 0. -1.
         -6    1    1    2    0  502  0.28312905792E+03 -0.15784006302E+03  0.44718434389E+01  0.36698712010E+03  0.17200000000E+03 0. -1.
<mgrwt>
<rscale>  2 0.36695987E+03</rscale>
<asrwt>0</asrwt>
<pdfrwt beam="1">  1       21 0.58750830E-01 0.36695987E+03</pdfrwt>
<pdfrwt beam="2">  1       21 0.21611949E+00 0.36695987E+03</pdfrwt>
<totfact> 0.24453128E+02</totfact>
</mgrwt>
</event>
<event>
 4    1  0.1100959E+000  0.2723581E+03  0.7546771E-02  0.1099938E+00
         21   -1    0    0  501  502  0.00000000000E+00  0.00000000000E+00  0.20625181810E+03  0.20625181810E+03  0.00000000000E+00 0. -1.
         21   -1    0    0  502  503 -0.00000000000E+00 -0.00000000000E+00 -0.56583934374E+03  0.56583934374E+03  0.00000000000E+00 0.  1.
          6    1    1    2  501    0 -0.21072611653E+03  0.13763562979E+02  0.53242091775E+02  0.27751333696E+03  0.17200000000E+03 0. -1.
         -6    1    1    2    0  503  0.21072611653E+03 -0.13763562979E+02 -0.41282961742E+03  0.49457782489E+03  0.17200000000E+03 0.  1.
<mgrwt>
<rscale>  2 0.27235809E+03</rscale>
<asrwt>0</asrwt>
<pdfrwt beam="1">  1       21 0.51562955E-01 0.27235809E+03</pdfrwt>
<pdfrwt beam="2">  1       21 0.14145983E+00 0.27235809E+03</pdfrwt>
<totfact> 0.11617701E+03</totfact>
</mgrwt>
</event>
<event>
 4    1  0.1100959E+000  0.1910378E+03  0.7546771E-02  0.1157529E+00
         21   -1    0    0  503  502  0.00000000000E+00  0.00000000000E+00  0.32636487079E+03  0.32636487079E+03  0.00000000000E+00 0. -1.
         21   -1    0    0  501  503 -0.00000000000E+00 -0.00000000000E+00 -0.13443665627E+03  0.13443665627E+03  0.00000000000E+00 0.  1.
          6    1    1    2  501    0 -0.29431127566E+01 -0.83083045499E+02  0.14710286381E+01  0.19104349842E+03  0.17200000000E+03 0.  1.
         -6    1    1    2    0  502  0.29431127566E+01  0.83083045499E+02  0.19045718588E+03  0.26975802864E+03  0.17200000000E+03 0. -1.
<mgrwt>
<rscale>  2 0.19103783E+03</rscale>
<asrwt>0</asrwt>
<pdfrwt beam="1">  1       21 0.81591216E-01 0.19103783E+03</pdfrwt>
<pdfrwt beam="2">  1       21 0.33609165E-01 0.19103783E+03</pdfrwt>
<totfact> 0.11229103E+04</totfact>
</mgrwt>
</event>
<event>
 4    1  0.1100959E+000  0.1999475E+03  0.7546771E-02  0.1149783E+00
         21   -1    0    0  503  502  0.00000000000E+00  0.00000000000E+00  0.20505175676E+03  0.20505175676E+03  0.00000000000E+00 0.  1.
         21   -1    0    0  501  503 -0.00000000000E+00 -0.00000000000E+00 -0.19704112517E+03  0.19704112517E+03  0.00000000000E+00 0.  1.
          6    1    1    2  501    0  0.53759834414E+02 -0.86630811792E+02 -0.16604878701E+02  0.20063583764E+03  0.17200000000E+03 0. -1.
         -6    1    1    2    0  502 -0.53759834414E+02  0.86630811792E+02  0.24615510288E+02  0.20145704429E+03  0.17200000000E+03 0. -1.
<mgrwt>
<rscale>  2 0.19994754E+03</rscale>
<asrwt>0</asrwt>
<pdfrwt beam="1">  1       21 0.51262939E-01 0.19994754E+03</pdfrwt>
<pdfrwt beam="2">  1       21 0.49260281E-01 0.19994754E+03</pdfrwt>
<totfact> 0.14149830E+04</totfact>
</mgrwt>
</event>
<event>
 4    1  0.1100959E+000  0.2681749E+03  0.7546771E-02  0.1102329E+00
         21   -1    0    0  503  502  0.00000000000E+00  0.00000000000E+00  0.28676352052E+03  0.28676352052E+03  0.00000000000E+00 0. -1.
         21   -1    0    0  501  503 -0.00000000000E+00 -0.00000000000E+00 -0.34377913813E+03  0.34377913813E+03  0.00000000000E+00 0.  1.
          6    1    1    2  501    0 -0.98140548269E+02 -0.18083746434E+03 -0.19247544017E+03  0.33009778974E+03  0.17200000000E+03 0.  1.
         -6    1    1    2    0  502  0.98140548269E+02  0.18083746434E+03  0.13545982256E+03  0.30044486891E+03  0.17200000000E+03 0. -1.
<mgrwt>
<rscale>  2 0.26817486E+03</rscale>
<asrwt>0</asrwt>
<pdfrwt beam="1">  1       21 0.71690881E-01 0.26817486E+03</pdfrwt>
<pdfrwt beam="2">  1       21 0.85944784E-01 0.26817486E+03</pdfrwt>
<totfact> 0.19355538E+03</totfact>
</mgrwt>
</event>
<event>
 4    1  0.1100959E+000  0.1753435E+03  0.7546771E-02  0.1172387E+00
         21   -1    0    0  503  502  0.00000000000E+00  0.00000000000E+00  0.10515666982E+03  0.10515666982E+03  0.00000000000E+00 0. -1.
         21   -1    0    0  501  503 -0.00000000000E+00 -0.00000000000E+00 -0.50717261196E+03  0.50717261196E+03  0.00000000000E+00 0. -1.
          6    1    1    2  501    0 -0.10856839106E+02 -0.32302830312E+02 -0.40025428623E+03  0.43697693011E+03  0.17200000000E+03 0. -1.
         -6    1    1    2    0  502  0.10856839106E+02  0.32302830312E+02 -0.17616559072E+01  0.17535235166E+03  0.17200000000E+03 0. -1.
<mgrwt>
<rscale>  2 0.17534350E+03</rscale>
<asrwt>0</asrwt>
<pdfrwt beam="1">  1       21 0.26289168E-01 0.17534350E+03</pdfrwt>
<pdfrwt beam="2">  1       21 0.12679315E+00 0.17534350E+03</pdfrwt>
<totfact> 0.64210859E+03</totfact>
</mgrwt>
</event>
<event>
 4    1  0.1100959E+000  0.1724202E+03  0.7546771E-02  0.1175347E+00
         21   -1    0    0  503  502  0.00000000000E+00  0.00000000000E+00  0.35397571385E+03  0.35397571385E+03  0.00000000000E+00 0. -1.
         21   -1    0    0  501  503 -0.00000000000E+00 -0.00000000000E+00 -0.85076505174E+02  0.85076505174E+02  0.00000000000E+00 0. -1.
          6    1    1    2  501    0 -0.18014832579E+00 -0.12028478000E+02  0.10958640952E+03  0.20429855087E+03  0.17200000000E+03 0. -1.
         -6    1    1    2    0  502  0.18014832579E+00  0.12028478000E+02  0.15931279916E+03  0.23475366816E+03  0.17200000000E+03 0. -1.
<mgrwt>
<rscale>  2 0.17242017E+03</rscale>
<asrwt>0</asrwt>
<pdfrwt beam="1">  1       21 0.88493925E-01 0.17242017E+03</pdfrwt>
<pdfrwt beam="2">  1       21 0.21269127E-01 0.17242017E+03</pdfrwt>
<totfact> 0.22746286E+04</totfact>
</mgrwt>
</event>
<event>
 4    1  0.1100959E+000  0.2145665E+03  0.7546771E-02  0.1138000E+00
         21   -1    0    0  501  502  0.00000000000E+00  0.00000000000E+00  0.21007416100E+03  0.21007416100E+03  0.00000000000E+00 0. -1.
         21   -1    0    0  502  503 -0.00000000000E+00 -0.00000000000E+00 -0.48445794006E+03  0.48445794006E+03  0.00000000000E+00 0.  1.
          6    1    1    2  501    0 -0.12795686068E+03  0.90460307157E+01  0.11979169007E+03  0.24574140448E+03  0.17200000000E+03 0. -1.
         -6    1    1    2    0  503  0.12795686068E+03 -0.90460307157E+01 -0.39417546913E+03  0.44879069657E+03  0.17200000000E+03 0.  1.
<mgrwt>
<rscale>  2 0.21456651E+03</rscale>
<asrwt>0</asrwt>
<pdfrwt beam="1">  1       21 0.52518541E-01 0.21456651E+03</pdfrwt>
<pdfrwt beam="2">  1       21 0.12111448E+00 0.21456651E+03</pdfrwt>
<totfact> 0.17391584E+03</totfact>
</mgrwt>
</event>
<event>
 4    1  0.1100959E+000  0.2389790E+03  0.7546771E-02  0.1120475E+00
         21   -1    0    0  501  502  0.00000000000E+00  0.00000000000E+00  0.17857785182E+03  0.17857785182E+03  0.00000000000E+00 0. -1.
         21   -1    0    0  502  503 -0.00000000000E+00 -0.00000000000E+00 -0.32012957518E+03  0.32012957518E+03  0.00000000000E+00 0. -1.
          6    1    1    2  501    0  0.61681980159E+02 -0.15402040356E+03 -0.62895268381E+02  0.24711690790E+03  0.17200000000E+03 0. -1.
         -6    1    1    2    0  503 -0.61681980159E+02  0.15402040356E+03 -0.78656454980E+02  0.25159051909E+03  0.17200000000E+03 0. -1.
<mgrwt>
<rscale>  2 0.23897898E+03</rscale>
<asrwt>0</asrwt>
<pdfrwt beam="1">  1       21 0.44644463E-01 0.23897898E+03</pdfrwt>
<pdfrwt beam="2">  1       21 0.80032393E-01 0.23897898E+03</pdfrwt>
<totfact> 0.64087344E+03</totfact>
</mgrwt>
</event>
<event>
 4    1  0.1100959E+000  0.1972626E+03  0.7546771E-02  0.1152069E+00
         21   -1    0    0  503  502  0.00000000000E+00  0.00000000000E+00  0.12304077678E+03  0.12304077678E+03  0.00000000000E+00 0.  1.
         21   -1    0    0  501  503 -0.00000000000E+00 -0.00000000000E+00 -0.52793240847E+03  0.52793240847E+03  0.00000000000E+00 0.  1.
          6    1    1    2  501    0 -0.96405426070E+02  0.58749445300E+01 -0.40854630720E+03  0.45367676409E+03  0.17200000000E+03 0.  1.
         -6    1    1    2    0  502  0.96405426070E+02 -0.58749445300E+01  0.36546755202E+01  0.19729642116E+03  0.17200000000E+03 0.  1.
<mgrwt>
<rscale>  2 0.19726257E+03</rscale>
<asrwt>0</asrwt>
<pdfrwt beam="1">  1       21 0.30760195E-01 0.19726257E+03</pdfrwt>
<pdfrwt beam="2">  1       21 0.13198310E+00 0.19726257E+03</pdfrwt>
<totfact> 0.42056053E+03</totfact>
</mgrwt>
</event>
<event>
 4    1  0.1100959E+000  0.1971553E+03  0.7546771E-02  0.1152162E+00
         21   -1    0    0  503  502  0.00000000000E+00  0.00000000000E+00  0.43848999506E+03  0.43848999506E+03  0.00000000000E+00 0.  1.
         21   -1    0    0  501  503 -0.00000000000E+00 -0.00000000000E+00 -0.89907131265E+02  0.89907131265E+02  0.00000000000E+00 0.  1.
          6    1    1    2  501    0 -0.21906515157E+02 -0.93841991346E+02  0.14299606704E+03  0.24355305363E+03  0.17200000000E+03 0.  1.
         -6    1    1    2    0  502  0.21906515157E+02  0.93841991346E+02  0.20558679676E+03  0.28484407269E+03  0.17200000000E+03 0.  1.
<mgrwt>
<rscale>  2 0.19715531E+03</rscale>
<asrwt>0</asrwt>
<pdfrwt beam="1">  1       21 0.10962249E+00 0.19715531E+03</pdfrwt>
<pdfrwt beam="2">  1       21 0.22476784E-01 0.19715531E+03</pdfrwt>
<totfact> 0.12170445E+04</totfact>
</mgrwt>
</event>
<event>
 4    1  0.1100959E+000  0.2605433E+03  0.7546771E-02  0.1106817E+00
         21   -1    0    0  503  502  0.00000000000E+00  0.00000000000E+00  0.83632780507E+03  0.83632780507E+03  0.00000000000E+00 0. -1.
         21   -1    0    0  501  503 -0.00000000000E+00 -0.00000000000E+00 -0.99984763935E+02  0.99984763935E+02  0.00000000000E+00 0. -1.
          6    1    1    2  501    0  0.16142800331E+03  0.11063372174E+03  0.16507632450E+03  0.30843640114E+03  0.17200000000E+03 0. -1.
         -6    1    1    2    0  502 -0.16142800331E+03 -0.11063372174E+03  0.57126671664E+03  0.62787616787E+03  0.17200000000E+03 0. -1.
<mgrwt>
<rscale>  2 0.26054332E+03</rscale>
<asrwt>0</asrwt>
<pdfrwt beam="1">  1       21 0.20908193E+00 0.26054332E+03</pdfrwt>
<pdfrwt beam="2">  1       21 0.24996193E-01 0.26054332E+03</pdfrwt>
<totfact> 0.16717082E+03</totfact>
</mgrwt>
</event>
<event>
 4    1  0.1100959E+000  0.1901902E+03  0.7546771E-02  0.1158290E+00
         21   -1    0    0  503  502  0.00000000000E+00  0.00000000000E+00  0.39177948875E+03  0.39177948875E+03  0.00000000000E+00 0.  1.
         21   -1    0    0  501  503 -0.00000000000E+00 -0.00000000000E+00 -0.10481600249E+03  0.10481600249E+03  0.00000000000E+00 0.  1.
          6    1    1    2  501    0  0.19185878436E+02  0.78868249179E+02  0.22918588842E+03  0.29782288379E+03  0.17200000000E+03 0.  1.
         -6    1    1    2    0  502 -0.19185878436E+02 -0.78868249179E+02  0.57777597837E+02  0.19877260745E+03  0.17200000000E+03 0.  1.
<mgrwt>
<rscale>  2 0.19019016E+03</rscale>
<asrwt>0</asrwt>
<pdfrwt beam="1">  1       21 0.97944869E-01 0.19019016E+03</pdfrwt>
<pdfrwt beam="2">  1       21 0.26204002E-01 0.19019016E+03</pdfrwt>
<totfact> 0.11956199E+04</totfact>
</mgrwt>
</event>
<event>
 4    1  0.1100959E+000  0.3034342E+03  0.7546771E-02  0.1083536E+00
         21   -1    0    0  503  502  0.00000000000E+00  0.00000000000E+00  0.40759345441E+03  0.40759345441E+03  0.00000000000E+00 0. -1.
         21   -1    0    0  501  503 -0.00000000000E+00 -0.00000000000E+00 -0.30018613335E+03  0.30018613335E+03  0.00000000000E+00 0. -1.
          6    1    1    2  501    0 -0.95815535044E+02 -0.23088462873E+03 -0.12235133412E+03  0.32717300851E+03  0.17200000000E+03 0. -1.
         -6    1    1    2    0  502  0.95815535044E+02  0.23088462873E+03  0.22975865518E+03  0.38060657925E+03  0.17200000000E+03 0. -1.
<mgrwt>
<rscale>  2 0.30343422E+03</rscale>
<asrwt>0</asrwt>
<pdfrwt beam="1">  1       21 0.10189836E+00 0.30343422E+03</pdfrwt>
<pdfrwt beam="2">  1       21 0.75046534E-01 0.30343422E+03</pdfrwt>
<totfact> 0.11420594E+03</totfact>
</mgrwt>
</event>
<event>
 4    1  0.1100959E+000  0.3559136E+03  0.7546771E-02  0.1060214E+00
         21   -1    0    0  503  502  0.00000000000E+00  0.00000000000E+00  0.21480910802E+03  0.21480910802E+03  0.00000000000E+00 0.  1.
         21   -1    0    0  501  503 -0.00000000000E+00 -0.00000000000E+00 -0.58979965300E+03  0.58979965300E+03  0.00000000000E+00 0.  1.
          6    1    1    2  501    0 -0.68284691777E+02 -0.30401920857E+03 -0.18245846306E+03  0.39995695900E+03  0.17200000000E+03 0.  1.
         -6    1    1    2    0  502  0.68284691777E+02  0.30401920857E+03 -0.19253208192E+03  0.40465180202E+03  0.17200000000E+03 0.  1.
<mgrwt>
<rscale>  2 0.35591358E+03</rscale>
<asrwt>0</asrwt>
<pdfrwt beam="1">  1       21 0.53702277E-01 0.35591358E+03</pdfrwt>
<pdfrwt beam="2">  1       21 0.14744991E+00 0.35591358E+03</pdfrwt>
<totfact> 0.90528148E+02</totfact>
</mgrwt>
</event>
<event>
 4    1  0.1100959E+000  0.2252380E+03  0.7546771E-02  0.1130037E+00
         21   -1    0    0  503  502  0.00000000000E+00  0.00000000000E+00  0.18437765829E+03  0.18437765829E+03  0.00000000000E+00 0. -1.
         21   -1    0    0  501  503 -0.00000000000E+00 -0.00000000000E+00 -0.39246018511E+03  0.39246018511E+03  0.00000000000E+00 0.  1.
          6    1    1    2  501    0  0.69997131199E+02  0.12746979209E+03 -0.26172519712E+03  0.34530019560E+03  0.17200000000E+03 0.  1.
         -6    1    1    2    0  502 -0.69997131199E+02 -0.12746979209E+03  0.53642670295E+02  0.23153764780E+03  0.17200000000E+03 0. -1.
<mgrwt>
<rscale>  2 0.22523798E+03</rscale>
<asrwt>0</asrwt>
<pdfrwt beam="1">  1       21 0.46094415E-01 0.22523798E+03</pdfrwt>
<pdfrwt beam="2">  1       21 0.98115045E-01 0.22523798E+03</pdfrwt>
<totfact> 0.37748090E+03</totfact>
</mgrwt>
</event>
<event>
 4    1  0.1100959E+000  0.2310277E+03  0.7546771E-02  0.1125919E+00
         21   -1    0    0  501  502  0.00000000000E+00  0.00000000000E+00  0.21860222291E+03  0.21860222291E+03  0.00000000000E+00 0. -1.
         21   -1    0    0  502  503 -0.00000000000E+00 -0.00000000000E+00 -0.41533079355E+03  0.41533079355E+03  0.00000000000E+00 0. -1.
          6    1    1    2  501    0  0.67019791988E+02 -0.13891771976E+03  0.10512048749E+03  0.25381903450E+03  0.17200000000E+03 0. -1.
         -6    1    1    2    0  503 -0.67019791988E+02  0.13891771976E+03 -0.30184905813E+03  0.38011398196E+03  0.17200000000E+03 0. -1.
<mgrwt>
<rscale>  2 0.23102767E+03</rscale>
<asrwt>0</asrwt>
<pdfrwt beam="1">  1       21 0.54650556E-01 0.23102767E+03</pdfrwt>
<pdfrwt beam="2">  1       21 0.10383270E+00 0.23102767E+03</pdfrwt>
<totfact> 0.22973311E+03</totfact>
</mgrwt>
</event>
<event>
 4    1  0.1100959E+000  0.1851335E+03  0.7546771E-02  0.1162925E+00
         21   -1    0    0  501  502  0.00000000000E+00  0.00000000000E+00  0.11812269868E+03  0.11812269868E+03  0.00000000000E+00 0.  1.
         21   -1    0    0  502  503 -0.00000000000E+00 -0.00000000000E+00 -0.32597465960E+03  0.32597465960E+03  0.00000000000E+00 0.  1.
          6    1    1    2  501    0 -0.63576455063E+02  0.25464330498E+02 -0.17752821915E+03  0.25649691297E+03  0.17200000000E+03 0.  1.
         -6    1    1    2    0  503  0.63576455063E+02 -0.25464330498E+02 -0.30323741772E+02  0.18760044531E+03  0.17200000000E+03 0.  1.
<mgrwt>
<rscale>  2 0.18513346E+03</rscale>
<asrwt>0</asrwt>
<pdfrwt beam="1">  1       21 0.29530675E-01 0.18513346E+03</pdfrwt>
<pdfrwt beam="2">  1       21 0.81493664E-01 0.18513346E+03</pdfrwt>
<totfact> 0.14563417E+04</totfact>
</mgrwt>
</event>
<event>
 4    1  0.1100959E+000  0.2451729E+03  0.7546771E-02  0.1116394E+00
         21   -1    0    0  501  502  0.00000000000E+00  0.00000000000E+00  0.21941680124E+03  0.21941680124E+03  0.00000000000E+00 0.  1.
         21   -1    0    0  502  503 -0.00000000000E+00 -0.00000000000E+00 -0.28643259601E+03  0.28643259601E+03  0.00000000000E+00 0. -1.
          6    1    1    2  501    0  0.17471520306E+03 -0.59156382328E+00 -0.86302714947E+02  0.25991904650E+03  0.17200000000E+03 0. -1.
         -6    1    1    2    0  503 -0.17471520306E+03  0.59156382328E+00  0.19286920175E+02  0.24593035074E+03  0.17200000000E+03 0.  1.
<mgrwt>
<rscale>  2 0.24517290E+03</rscale>
<asrwt>0</asrwt>
<pdfrwt beam="1">  1       21 0.54854201E-01 0.24517290E+03</pdfrwt>
<pdfrwt beam="2">  1       21 0.71608148E-01 0.24517290E+03</pdfrwt>
<totfact> 0.53272462E+03</totfact>
</mgrwt>
</event>
<event>
 4    1  0.1100959E+000  0.2537140E+03  0.7546771E-02  0.1110980E+00
         21   -1    0    0  503  502  0.00000000000E+00  0.00000000000E+00  0.18319738038E+03  0.18319738038E+03  0.00000000000E+00 0.  1.
         21   -1    0    0  501  503 -0.00000000000E+00 -0.00000000000E+00 -0.38375176726E+03  0.38375176726E+03  0.00000000000E+00 0. -1.
          6    1    1    2  501    0  0.46760116003E+01  0.18645350420E+03 -0.18261763117E+03  0.31260194101E+03  0.17200000000E+03 0. -1.
         -6    1    1    2    0  502 -0.46760116003E+01 -0.18645350420E+03 -0.17936755705E+02  0.25434720662E+03  0.17200000000E+03 0.  1.
<mgrwt>
<rscale>  2 0.25371396E+03</rscale>
<asrwt>0</asrwt>
<pdfrwt beam="1">  1       21 0.45799345E-01 0.25371396E+03</pdfrwt>
<pdfrwt beam="2">  1       21 0.95937941E-01 0.25371396E+03</pdfrwt>
<totfact> 0.39566000E+03</totfact>
</mgrwt>
</event>
<event>
 4    1  0.1100959E+000  0.2030587E+03  0.7546771E-02  0.1147184E+00
         21   -1    0    0  503  502  0.00000000000E+00  0.00000000000E+00  0.47175061376E+03  0.47175061376E+03  0.00000000000E+00 0.  1.
         21   -1    0    0  501  503 -0.00000000000E+00 -0.00000000000E+00 -0.89742540147E+02  0.89742540147E+02  0.00000000000E+00 0.  1.
          6    1    1    2  501    0 -0.45933857153E+02  0.97667434387E+02  0.23632470473E+03  0.31158018718E+03  0.17200000000E+03 0.  1.
         -6    1    1    2    0  502  0.45933857153E+02 -0.97667434387E+02  0.14568336888E+03  0.24991296673E+03  0.17200000000E+03 0.  1.
<mgrwt>
<rscale>  2 0.20305873E+03</rscale>
<asrwt>0</asrwt>
<pdfrwt beam="1">  1       21 0.11793765E+00 0.20305873E+03</pdfrwt>
<pdfrwt beam="2">  1       21 0.22435636E-01 0.20305873E+03</pdfrwt>
<totfact> 0.10177514E+04</totfact>
</mgrwt>
</event>
<event>
 4    1  0.1100959E+000  0.1923651E+03  0.7546771E-02  0.1156345E+00
         21   -1    0    0  501  502  0.00000000000E+00  0.00000000000E+00  0.11343259891E+03  0.11343259891E+03  0.00000000000E+00 0. -1.
         21   -1    0    0  502  503 -0.00000000000E+00 -0.00000000000E+00 -0.55786532606E+03  0.55786532606E+03  0.00000000000E+00 0. -1.
          6    1    1    2  501    0 -0.63354328920E+02 -0.58365699879E+02 -0.59297918422E+01  0.19245645831E+03  0.17200000000E+03 0. -1.
         -6    1    1    2    0  503  0.63354328920E+02  0.58365699879E+02 -0.43850293531E+03  0.47884146666E+03  0.17200000000E+03 0. -1.
<mgrwt>
<rscale>  2 0.19236508E+03</rscale>
<asrwt>0</asrwt>
<pdfrwt beam="1">  1       21 0.28358150E-01 0.19236508E+03</pdfrwt>
<pdfrwt beam="2">  1       21 0.13946633E+00 0.19236508E+03</pdfrwt>
<totfact> 0.42971355E+03</totfact>
</mgrwt>
</event>
<event>
 4    1  0.1100959E+000  0.2027087E+03  0.7546771E-02  0.1147474E+00
         21   -1    0    0  503  502  0.00000000000E+00  0.00000000000E+00  0.15050471330E+03  0.15050471330E+03  0.00000000000E+00 0.  1.
         21   -1    0    0  501  503 -0.00000000000E+00 -0.00000000000E+00 -0.47379459161E+03  0.47379459161E+03  0.00000000000E+00 0.  1.
          6    1    1    2  501    0  0.64440496212E+02  0.85756847114E+02 -0.36484416814E+03  0.41737522854E+03  0.17200000000E+03 0.  1.
         -6    1    1    2    0  502 -0.64440496212E+02 -0.85756847114E+02  0.41554289828E+02  0.20692407637E+03  0.17200000000E+03 0.  1.
<mgrwt>
<rscale>  2 0.20270869E+03</rscale>
<asrwt>0</asrwt>
<pdfrwt beam="1">  1       21 0.37626179E-01 0.20270869E+03</pdfrwt>
<pdfrwt beam="2">  1       21 0.11844865E+00 0.20270869E+03</pdfrwt>
<totfact> 0.36840788E+03</totfact>
</mgrwt>
</event>
<event>
 4    1  0.1100959E+000  0.2794126E+03  0.7546771E-02  0.1096010E+00
         21   -1    0    0  501  502  0.00000000000E+00  0.00000000000E+00  0.68790952338E+03  0.68790952338E+03  0.00000000000E+00 0.  1.
         21   -1    0    0  502  503 -0.00000000000E+00 -0.00000000000E+00 -0.17812753425E+03  0.17812753425E+03  0.00000000000E+00 0.  1.
          6    1    1    2  501    0  0.10149164903E+02  0.21996459206E+03  0.51573480272E+03  0.58656100624E+03  0.17200000000E+03 0.  1.
         -6    1    1    2    0  503 -0.10149164903E+02 -0.21996459206E+03 -0.59528135884E+01  0.27947605138E+03  0.17200000000E+03 0.  1.
<mgrwt>
<rscale>  2 0.27941265E+03</rscale>
<asrwt>0</asrwt>
<pdfrwt beam="1">  1       21 0.17197737E+00 0.27941265E+03</pdfrwt>
<pdfrwt beam="2">  1       21 0.44531885E-01 0.27941265E+03</pdfrwt>
<totfact> 0.92468345E+02</totfact>
</mgrwt>
</event>
<event>
 4    1  0.1100959E+000  0.1800385E+03  0.7546771E-02  0.1167766E+00
         21   -1    0    0  501  502  0.00000000000E+00  0.00000000000E+00  0.34338947154E+03  0.34338947154E+03  0.00000000000E+00 0.  1.
         21   -1    0    0  502  503 -0.00000000000E+00 -0.00000000000E+00 -0.94756281384E+02  0.94756281384E+02  0.00000000000E+00 0.  1.
          6    1    1    2  501    0 -0.27423109280E+02 -0.45583404904E+02  0.13786423214E+03  0.22676071139E+03  0.17200000000E+03 0.  1.
         -6    1    1    2    0  503  0.27423109280E+02  0.45583404904E+02  0.11076895801E+03  0.21138504153E+03  0.17200000000E+03 0.  1.
<mgrwt>
<rscale>  2 0.18003853E+03</rscale>
<asrwt>0</asrwt>
<pdfrwt beam="1">  1       21 0.85847365E-01 0.18003853E+03</pdfrwt>
<pdfrwt beam="2">  1       21 0.23689071E-01 0.18003853E+03</pdfrwt>
<totfact> 0.19809872E+04</totfact>
</mgrwt>
</event>
<event>
 4    1  0.1100959E+000  0.2168091E+03  0.7546771E-02  0.1136285E+00
         21   -1    0    0  503  502  0.00000000000E+00  0.00000000000E+00  0.86499481627E+03  0.86499481627E+03  0.00000000000E+00 0.  1.
         21   -1    0    0  501  503 -0.00000000000E+00 -0.00000000000E+00 -0.55656156622E+02  0.55656156622E+02  0.00000000000E+00 0. -1.
          6    1    1    2  501    0  0.45687073122E+02  0.12383411644E+03  0.47538375516E+03  0.52249010681E+03  0.17200000000E+03 0. -1.
         -6    1    1    2    0  502 -0.45687073122E+02 -0.12383411644E+03  0.33395490448E+03  0.39816086608E+03  0.17200000000E+03 0. -1.
<mgrwt>
<rscale>  2 0.21680913E+03</rscale>
<asrwt>0</asrwt>
<pdfrwt beam="1">  1       21 0.21624866E+00 0.21680913E+03</pdfrwt>
<pdfrwt beam="2">  1       21 0.13914042E-01 0.21680913E+03</pdfrwt>
<totfact> 0.46642359E+03</totfact>
</mgrwt>
</event>
<event>
 4    1  0.1100959E+000  0.1857259E+03  0.7546771E-02  0.1162374E+00
         21   -1    0    0  501  502  0.00000000000E+00  0.00000000000E+00  0.44469435972E+02  0.44469435972E+02  0.00000000000E+00 0. -1.
         21   -1    0    0  502  503 -0.00000000000E+00 -0.00000000000E+00 -0.77967123271E+03  0.77967123271E+03  0.00000000000E+00 0.  1.
          6    1    1    2  501    0  0.54051553581E+02 -0.44592962387E+02 -0.39707951853E+03  0.43836770727E+03  0.17200000000E+03 0. -1.
         -6    1    1    2    0  503 -0.54051553581E+02  0.44592962387E+02 -0.33812227821E+03  0.38577296142E+03  0.17200000000E+03 0. -1.
<mgrwt>
<rscale>  2 0.18572588E+03</rscale>
<asrwt>0</asrwt>
<pdfrwt beam="1">  1       21 0.11117359E-01 0.18572588E+03</pdfrwt>
<pdfrwt beam="2">  1       21 0.19491780E+00 0.18572588E+03</pdfrwt>
<totfact> 0.97964013E+03</totfact>
</mgrwt>
</event>
<event>
 4    1  0.1100959E+000  0.2038457E+03  0.7546771E-02  0.1146534E+00
         21   -1    0    0  501  502  0.00000000000E+00  0.00000000000E+00  0.52736103005E+03  0.52736103005E+03  0.00000000000E+00 0. -1.
         21   -1    0    0  502  503 -0.00000000000E+00 -0.00000000000E+00 -0.89656392004E+02  0.89656392004E+02  0.00000000000E+00 0. -1.
          6    1    1    2  501    0  0.10885352750E+03 -0.10952765060E+02  0.32623472993E+03  0.38468448438E+03  0.17200000000E+03 0. -1.
         -6    1    1    2    0  503 -0.10885352750E+03  0.10952765060E+02  0.11146990812E+03  0.23233293767E+03  0.17200000000E+03 0. -1.
<mgrwt>
<rscale>  2 0.20384566E+03</rscale>
<asrwt>0</asrwt>
<pdfrwt beam="1">  1       21 0.13184025E+00 0.20384566E+03</pdfrwt>
<pdfrwt beam="2">  1       21 0.22414099E-01 0.20384566E+03</pdfrwt>
<totfact> 0.77081490E+03</totfact>
</mgrwt>
</event>
<event>
 4    1  0.1100959E+000  0.1735475E+03  0.7546771E-02  0.1174198E+00
         21   -1    0    0  503  502  0.00000000000E+00  0.00000000000E+00  0.87410009530E+02  0.87410009530E+02  0.00000000000E+00 0.  1.
         21   -1    0    0  501  503 -0.00000000000E+00 -0.00000000000E+00 -0.36413080313E+03  0.36413080313E+03  0.00000000000E+00 0.  1.
          6    1    1    2  501    0  0.10737135223E+02 -0.20480236543E+02 -0.19069025163E+03  0.25784006327E+03  0.17200000000E+03 0.  1.
         -6    1    1    2    0  502 -0.10737135223E+02  0.20480236543E+02 -0.86030541973E+02  0.19370074939E+03  0.17200000000E+03 0.  1.
<mgrwt>
<rscale>  2 0.17354748E+03</rscale>
<asrwt>0</asrwt>
<pdfrwt beam="1">  1       21 0.21852503E-01 0.17354748E+03</pdfrwt>
<pdfrwt beam="2">  1       21 0.91032699E-01 0.17354748E+03</pdfrwt>
<totfact> 0.20240666E+04</totfact>
</mgrwt>
</event>
<event>
 4    1  0.1100959E+000  0.1776416E+03  0.7546771E-02  0.1170105E+00
         21   -1    0    0  501  502  0.00000000000E+00  0.00000000000E+00  0.95319888082E+02  0.95319888082E+02  0.00000000000E+00 0. -1.
         21   -1    0    0  502  503 -0.00000000000E+00 -0.00000000000E+00 -0.39092731589E+03  0.39092731589E+03  0.00000000000E+00 0. -1.
          6    1    1    2  501    0 -0.44149695827E+02  0.48328098243E+01 -0.52660914373E+02  0.18528282056E+03  0.17200000000E+03 0. -1.
         -6    1    1    2    0  503  0.44149695827E+02 -0.48328098243E+01 -0.24294651343E+03  0.30096438341E+03  0.17200000000E+03 0. -1.
<mgrwt>
<rscale>  2 0.17764164E+03</rscale>
<asrwt>0</asrwt>
<pdfrwt beam="1">  1       21 0.23829972E-01 0.17764164E+03</pdfrwt>
<pdfrwt beam="2">  1       21 0.97731828E-01 0.17764164E+03</pdfrwt>
<totfact> 0.14526081E+04</totfact>
</mgrwt>
</event>
<event>
 4    1  0.1100959E+000  0.2220891E+03  0.7546771E-02  0.1132335E+00
         21   -1    0    0  503  502  0.00000000000E+00  0.00000000000E+00  0.33570963262E+03  0.33570963262E+03  0.00000000000E+00 0.  1.
         21   -1    0    0  501  503 -0.00000000000E+00 -0.00000000000E+00 -0.18575238781E+03  0.18575238781E+03  0.00000000000E+00 0. -1.
          6    1    1    2  501    0  0.14042138828E+03  0.46249678471E+01 -0.44229062253E+02  0.22645036224E+03  0.17200000000E+03 0. -1.
         -6    1    1    2    0  502 -0.14042138828E+03 -0.46249678471E+01  0.19418630707E+03  0.29501165819E+03  0.17200000000E+03 0.  1.
<mgrwt>
<rscale>  2 0.22208907E+03</rscale>
<asrwt>0</asrwt>
<pdfrwt beam="1">  1       21 0.83927407E-01 0.22208907E+03</pdfrwt>
<pdfrwt beam="2">  1       21 0.46438097E-01 0.22208907E+03</pdfrwt>
<totfact> 0.53601015E+03</totfact>
</mgrwt>
</event>
<event>
 4    1  0.1100959E+000  0.2059463E+03  0.7546771E-02  0.1144817E+00
         21   -1    0    0  501  502  0.00000000000E+00  0.00000000000E+00  0.25365909091E+03  0.25365909091E+03  0.00000000000E+00 0. -1.
         21   -1    0    0  502  503 -0.00000000000E+00 -0.00000000000E+00 -0.30269598404E+03  0.30269598404E+03  0.00000000000E+00 0. -1.
          6    1    1    2  501    0 -0.10630103222E+03 -0.39114923008E+02  0.16159114526E+03  0.26177391940E+03  0.17200000000E+03 0. -1.
         -6    1    1    2    0  503  0.10630103222E+03  0.39114923008E+02 -0.21062803838E+03  0.29458115555E+03  0.17200000000E+03 0. -1.
<mgrwt>
<rscale>  2 0.20594632E+03</rscale>
<asrwt>0</asrwt>
<pdfrwt beam="1">  1       21 0.63414773E-01 0.20594632E+03</pdfrwt>
<pdfrwt beam="2">  1       21 0.75673996E-01 0.20594632E+03</pdfrwt>
<totfact> 0.35449449E+03</totfact>
</mgrwt>
</event>
<event>
 4    1  0.1100959E+000  0.1832471E+03  0.7546771E-02  0.1164697E+00
         21   -1    0    0  501  502  0.00000000000E+00  0.00000000000E+00  0.62407478023E+03  0.62407478023E+03  0.00000000000E+00 0.  1.
         21   -1    0    0  502  503 -0.00000000000E+00 -0.00000000000E+00 -0.95482850755E+02  0.95482850755E+02  0.00000000000E+00 0. -1.
          6    1    1    2  501    0  0.62165937734E+02 -0.11441025174E+02  0.50198869244E+03  0.53438950983E+03  0.17200000000E+03 0.  1.
         -6    1    1    2    0  503 -0.62165937734E+02  0.11441025174E+02  0.26603237028E+02  0.18516812115E+03  0.17200000000E+03 0. -1.
<mgrwt>
<rscale>  2 0.18324710E+03</rscale>
<asrwt>0</asrwt>
<pdfrwt beam="1">  1       21 0.15601868E+00 0.18324710E+03</pdfrwt>
<pdfrwt beam="2">  1       21 0.23870714E-01 0.18324710E+03</pdfrwt>
<totfact> 0.44916969E+03</totfact>
</mgrwt>
</event>
<event>
 4    1  0.1100959E+000  0.2101293E+03  0.7546771E-02  0.1141464E+00
         21   -1    0    0  503  502  0.00000000000E+00  0.00000000000E+00  0.48461600095E+03  0.48461600095E+03  0.00000000000E+00 0. -1.
         21   -1    0    0  501  503 -0.00000000000E+00 -0.00000000000E+00 -0.93251049773E+02  0.93251049773E+02  0.00000000000E+00 0. -1.
          6    1    1    2  501    0 -0.11562342227E+03  0.34663150293E+02  0.15192155997E+03  0.25929610515E+03  0.17200000000E+03 0. -1.
         -6    1    1    2    0  502  0.11562342227E+03 -0.34663150293E+02  0.23944339122E+03  0.31857094557E+03  0.17200000000E+03 0. -1.
<mgrwt>
<rscale>  2 0.21012927E+03</rscale>
<asrwt>0</asrwt>
<pdfrwt beam="1">  1       21 0.12115399E+00 0.21012927E+03</pdfrwt>
<pdfrwt beam="2">  1       21 0.23312764E-01 0.21012927E+03</pdfrwt>
<totfact> 0.88088044E+03</totfact>
</mgrwt>
</event>
<event>
 4    1  0.1100959E+000  0.1827025E+03  0.7546771E-02  0.1165213E+00
         21   -1    0    0  503  502  0.00000000000E+00  0.00000000000E+00  0.87801025270E+02  0.87801025270E+02  0.00000000000E+00 0.  1.
         21   -1    0    0  501  503 -0.00000000000E+00 -0.00000000000E+00 -0.51053493720E+03  0.51053493720E+03  0.00000000000E+00 0.  1.
          6    1    1    2  501    0 -0.82158271999E+01 -0.61063042833E+02 -0.36253712415E+03  0.40597211900E+03  0.17200000000E+03 0.  1.
         -6    1    1    2    0  502  0.82158271999E+01  0.61063042833E+02 -0.60196787780E+02  0.19236384347E+03  0.17200000000E+03 0.  1.
<mgrwt>
<rscale>  2 0.18270248E+03</rscale>
<asrwt>0</asrwt>
<pdfrwt beam="1">  1       21 0.21950257E-01 0.18270248E+03</pdfrwt>
<pdfrwt beam="2">  1       21 0.12763373E+00 0.18270248E+03</pdfrwt>
<totfact> 0.88420431E+03</totfact>
</mgrwt>
</event>
<event>
 4    1  0.1100959E+000  0.2197725E+03  0.7546771E-02  0.1134053E+00
         21   -1    0    0  501  502  0.00000000000E+00  0.00000000000E+00  0.23404749493E+03  0.23404749493E+03  0.00000000000E+00 0.  1.
         21   -1    0    0  502  503 -0.00000000000E+00 -0.00000000000E+00 -0.41197181379E+03  0.41197181379E+03  0.00000000000E+00 0.  1.
          6    1    1    2  501    0 -0.58818521722E+02 -0.12351651309E+03  0.13922814127E+03  0.26016230093E+03  0.17200000000E+03 0.  1.
         -6    1    1    2    0  503  0.58818521722E+02  0.12351651309E+03 -0.31715246012E+03  0.38585700779E+03  0.17200000000E+03 0.  1.
<mgrwt>
<rscale>  2 0.21977249E+03</rscale>
<asrwt>0</asrwt>
<pdfrwt beam="1">  1       21 0.58511874E-01 0.21977249E+03</pdfrwt>
<pdfrwt beam="2">  1       21 0.10299295E+00 0.21977249E+03</pdfrwt>
<totfact> 0.20434004E+03</totfact>
</mgrwt>
</event>
<event>
 4    1  0.1100959E+000  0.2073968E+03  0.7546771E-02  0.1143644E+00
         21   -1    0    0  503  502  0.00000000000E+00  0.00000000000E+00  0.16063164075E+03  0.16063164075E+03  0.00000000000E+00 0.  1.
         21   -1    0    0  501  503 -0.00000000000E+00 -0.00000000000E+00 -0.27690864056E+03  0.27690864056E+03  0.00000000000E+00 0.  1.
          6    1    1    2  501    0  0.85235428395E+02  0.78513508560E+02 -0.97866400504E+02  0.22932789108E+03  0.17200000000E+03 0.  1.
         -6    1    1    2    0  502 -0.85235428395E+02 -0.78513508560E+02 -0.18410599306E+02  0.20821239023E+03  0.17200000000E+03 0.  1.
<mgrwt>
<rscale>  2 0.20739684E+03</rscale>
<asrwt>0</asrwt>
<pdfrwt beam="1">  1       21 0.40157911E-01 0.20739684E+03</pdfrwt>
<pdfrwt beam="2">  1       21 0.69227160E-01 0.20739684E+03</pdfrwt>
<totfact> 0.11234908E+04</totfact>
</mgrwt>
</event>
<event>
 4    1  0.1100959E+000  0.2355546E+03  0.7546771E-02  0.1122790E+00
         21   -1    0    0  503  502  0.00000000000E+00  0.00000000000E+00  0.62500462383E+03  0.62500462383E+03  0.00000000000E+00 0. -1.
         21   -1    0    0  501  503 -0.00000000000E+00 -0.00000000000E+00 -0.98894286274E+02  0.98894286274E+02  0.00000000000E+00 0.  1.
          6    1    1    2  501    0  0.16014566044E+03  0.15979159062E+02  0.14728498312E+03  0.27781078513E+03  0.17200000000E+03 0.  1.
         -6    1    1    2    0  502 -0.16014566044E+03 -0.15979159062E+02  0.37882535444E+03  0.44608812498E+03  0.17200000000E+03 0. -1.
<mgrwt>
<rscale>  2 0.23555459E+03</rscale>
<asrwt>0</asrwt>
<pdfrwt beam="1">  1       21 0.15625114E+00 0.23555459E+03</pdfrwt>
<pdfrwt beam="2">  1       21 0.24723573E-01 0.23555459E+03</pdfrwt>
<totfact> 0.40073877E+03</totfact>
</mgrwt>
</event>
<event>
 4    1  0.1100959E+000  0.1761725E+03  0.7546771E-02  0.1171560E+00
         21   -1    0    0  501  502  0.00000000000E+00  0.00000000000E+00  0.81018103656E+02  0.81018103656E+02  0.00000000000E+00 0.  1.
         21   -1    0    0  502  503 -0.00000000000E+00 -0.00000000000E+00 -0.43650811523E+03  0.43650811523E+03  0.00000000000E+00 0.  1.
          6    1    1    2  501    0 -0.30782697860E+02  0.22475805719E+02 -0.87218654893E+02  0.19658034004E+03  0.17200000000E+03 0.  1.
         -6    1    1    2    0  503  0.30782697860E+02 -0.22475805719E+02 -0.26827135668E+03  0.32094587884E+03  0.17200000000E+03 0.  1.
<mgrwt>
<rscale>  2 0.17617246E+03</rscale>
<asrwt>0</asrwt>
<pdfrwt beam="1">  1       21 0.20254526E-01 0.17617246E+03</pdfrwt>
<pdfrwt beam="2">  1       21 0.10912703E+00 0.17617246E+03</pdfrwt>
<totfact> 0.15176537E+04</totfact>
</mgrwt>
</event>
<event>
 4    1  0.1100959E+000  0.1955702E+03  0.7546771E-02  0.1153531E+00
         21   -1    0    0  501  502  0.00000000000E+00  0.00000000000E+00  0.55250639586E+03  0.55250639586E+03  0.00000000000E+00 0. -1.
         21   -1    0    0  502  503 -0.00000000000E+00 -0.00000000000E+00 -0.70472428113E+02  0.70472428113E+02  0.00000000000E+00 0.  1.
          6    1    1    2  501    0 -0.33728340258E+02 -0.86753214949E+02  0.28244504120E+03  0.34354464418E+03  0.17200000000E+03 0. -1.
         -6    1    1    2    0  503  0.33728340258E+02  0.86753214949E+02  0.19958892654E+03  0.27943417980E+03  0.17200000000E+03 0.  1.
<mgrwt>
<rscale>  2 0.19557025E+03</rscale>
<asrwt>0</asrwt>
<pdfrwt beam="1">  1       21 0.13812659E+00 0.19557025E+03</pdfrwt>
<pdfrwt beam="2">  1       21 0.17618109E-01 0.19557025E+03</pdfrwt>
<totfact> 0.10798994E+04</totfact>
</mgrwt>
</event>
<event>
 4    1  0.1100959E+000  0.2209401E+03  0.7546771E-02  0.1133184E+00
         21   -1    0    0  503  502  0.00000000000E+00  0.00000000000E+00  0.16654163655E+03  0.16654163655E+03  0.00000000000E+00 0.  1.
         21   -1    0    0  501  503 -0.00000000000E+00 -0.00000000000E+00 -0.34651895826E+03  0.34651895826E+03  0.00000000000E+00 0. -1.
          6    1    1    2  501    0  0.10022529105E+03  0.95840623214E+02  0.10726316564E+02  0.22120033429E+03  0.17200000000E+03 0.  1.
         -6    1    1    2    0  502 -0.10022529105E+03 -0.95840623214E+02 -0.19070363827E+03  0.29186026053E+03  0.17200000000E+03 0. -1.
<mgrwt>
<rscale>  2 0.22094011E+03</rscale>
<asrwt>0</asrwt>
<pdfrwt beam="1">  1       21 0.41635409E-01 0.22094011E+03</pdfrwt>
<pdfrwt beam="2">  1       21 0.86629739E-01 0.22094011E+03</pdfrwt>
<totfact> 0.62413777E+03</totfact>
</mgrwt>
</event>
<event>
 4    1  0.1100959E+000  0.3222011E+03  0.7546771E-02  0.1074641E+00
         21   -1    0    0  501  502  0.00000000000E+00  0.00000000000E+00  0.68143598574E+03  0.68143598574E+03  0.00000000000E+00 0. -1.
         21   -1    0    0  502  503 -0.00000000000E+00 -0.00000000000E+00 -0.75939691798E+03  0.75939691798E+03  0.00000000000E+00 0. -1.
          6    1    1    2  501    0 -0.14429895372E+03  0.23110033827E+03  0.60513247596E+03  0.68556463434E+03  0.17200000000E+03 0. -1.
         -6    1    1    2    0  503  0.14429895372E+03 -0.23110033827E+03 -0.68309340821E+03  0.75526826938E+03  0.17200000000E+03 0. -1.
<mgrwt>
<rscale>  2 0.32220111E+03</rscale>
<asrwt>0</asrwt>
<pdfrwt beam="1">  1       21 0.17035900E+00 0.32220111E+03</pdfrwt>
<pdfrwt beam="2">  1       21 0.18984923E+00 0.32220111E+03</pdfrwt>
<totfact> 0.28181448E+01</totfact>
</mgrwt>
</event>
<event>
 4    1  0.1100959E+000  0.2029618E+03  0.7546771E-02  0.1147264E+00
         21   -1    0    0  503  502  0.00000000000E+00  0.00000000000E+00  0.10217777083E+03  0.10217777083E+03  0.00000000000E+00 0.  1.
         21   -1    0    0  501  503 -0.00000000000E+00 -0.00000000000E+00 -0.47709945673E+03  0.47709945673E+03  0.00000000000E+00 0. -1.
          6    1    1    2  501    0  0.25970535601E+01  0.10771597359E+03 -0.30148711146E+03  0.36343906508E+03  0.17200000000E+03 0. -1.
         -6    1    1    2    0  502 -0.25970535601E+01 -0.10771597359E+03 -0.73434574444E+02  0.21583816247E+03  0.17200000000E+03 0.  1.
<mgrwt>
<rscale>  2 0.20296176E+03</rscale>
<asrwt>0</asrwt>
<pdfrwt beam="1">  1       21 0.25544443E-01 0.20296176E+03</pdfrwt>
<pdfrwt beam="2">  1       21 0.11927486E+00 0.20296176E+03</pdfrwt>
<totfact> 0.77324003E+03</totfact>
</mgrwt>
</event>
<event>
 4    1  0.1100959E+000  0.2108592E+03  0.7546771E-02  0.1140887E+00
         21   -1    0    0  503  502  0.00000000000E+00  0.00000000000E+00  0.10634336598E+03  0.10634336598E+03  0.00000000000E+00 0. -1.
         21   -1    0    0  501  503 -0.00000000000E+00 -0.00000000000E+00 -0.77805533161E+03  0.77805533161E+03  0.00000000000E+00 0. -1.
          6    1    1    2  501    0 -0.11798999290E+03  0.30918744011E+02 -0.63662999289E+03  0.67064100307E+03  0.17200000000E+03 0. -1.
         -6    1    1    2    0  502  0.11798999290E+03 -0.30918744011E+02 -0.35081972737E+02  0.21375769452E+03  0.17200000000E+03 0. -1.
<mgrwt>
<rscale>  2 0.21085921E+03</rscale>
<asrwt>0</asrwt>
<pdfrwt beam="1">  1       21 0.26585842E-01 0.21085921E+03</pdfrwt>
<pdfrwt beam="2">  1       21 0.19451383E+00 0.21085921E+03</pdfrwt>
<totfact> 0.19260547E+03</totfact>
</mgrwt>
</event>
<event>
 4    1  0.1100959E+000  0.1901681E+03  0.7546771E-02  0.1158310E+00
         21   -1    0    0  503  502  0.00000000000E+00  0.00000000000E+00  0.11878610461E+04  0.11878610461E+04  0.00000000000E+00 0. -1.
         21   -1    0    0  501  503 -0.00000000000E+00 -0.00000000000E+00 -0.70739017693E+02  0.70739017693E+02  0.00000000000E+00 0. -1.
          6    1    1    2  501    0  0.14533979097E+02 -0.79803928995E+02  0.83607709590E+02  0.20773577625E+03  0.17200000000E+03 0. -1.
         -6    1    1    2    0  502 -0.14533979097E+02  0.79803928995E+02  0.10335143188E+04  0.10508642875E+04  0.17200000000E+03 0. -1.
<mgrwt>
<rscale>  2 0.19016809E+03</rscale>
<asrwt>0</asrwt>
<pdfrwt beam="1">  1       21 0.29696520E+00 0.19016809E+03</pdfrwt>
<pdfrwt beam="2">  1       21 0.17684758E-01 0.19016809E+03</pdfrwt>
<totfact> 0.10342934E+03</totfact>
</mgrwt>
</event>
<event>
 4    1  0.1100959E+000  0.1925548E+03  0.7546771E-02  0.1156177E+00
         21   -1    0    0  501  502  0.00000000000E+00  0.00000000000E+00  0.88878280051E+03  0.88878280051E+03  0.00000000000E+00 0. -1.
         21   -1    0    0  502  503 -0.00000000000E+00 -0.00000000000E+00 -0.51492021721E+02  0.51492021721E+02  0.00000000000E+00 0.  1.
          6    1    1    2  501    0 -0.25279533142E+02 -0.82790762207E+02  0.62348473506E+03  0.65254163082E+03  0.17200000000E+03 0. -1.
         -6    1    1    2    0  503  0.25279533142E+02  0.82790762207E+02  0.21380604373E+03  0.28773319141E+03  0.17200000000E+03 0.  1.
<mgrwt>
<rscale>  2 0.19255484E+03</rscale>
<asrwt>0</asrwt>
<pdfrwt beam="1">  1       21 0.22219565E+00 0.19255484E+03</pdfrwt>
<pdfrwt beam="2">  1       21 0.12873008E-01 0.19255484E+03</pdfrwt>
<totfact> 0.50465314E+03</totfact>
</mgrwt>
</event>
<event>
 4    1  0.1100959E+000  0.3226493E+03  0.7546771E-02  0.1074436E+00
         21   -1    0    0  503  502  0.00000000000E+00  0.00000000000E+00  0.26259701531E+03  0.26259701531E+03  0.00000000000E+00 0. -1.
         21   -1    0    0  501  503 -0.00000000000E+00 -0.00000000000E+00 -0.41519833808E+03  0.41519833808E+03  0.00000000000E+00 0. -1.
          6    1    1    2  501    0 -0.28033773722E+02 -0.27153763737E+03 -0.14834482164E+03  0.35511796221E+03  0.17200000000E+03 0. -1.
         -6    1    1    2    0  502  0.28033773722E+02  0.27153763737E+03 -0.42565011321E+01  0.32267739118E+03  0.17200000000E+03 0. -1.
<mgrwt>
<rscale>  2 0.32264932E+03</rscale>
<asrwt>0</asrwt>
<pdfrwt beam="1">  1       21 0.65649255E-01 0.32264932E+03</pdfrwt>
<pdfrwt beam="2">  1       21 0.10379958E+00 0.32264932E+03</pdfrwt>
<totfact> 0.14554954E+03</totfact>
</mgrwt>
</event>
<event>
 4    1  0.1100959E+000  0.1896032E+03  0.7546771E-02  0.1158820E+00
         21   -1    0    0  501  502  0.00000000000E+00  0.00000000000E+00  0.49255862616E+03  0.49255862616E+03  0.00000000000E+00 0. -1.
         21   -1    0    0  502  503 -0.00000000000E+00 -0.00000000000E+00 -0.89249293381E+02  0.89249293381E+02  0.00000000000E+00 0. -1.
          6    1    1    2  501    0  0.77220329213E+02  0.20059708693E+02  0.32583859258E+03  0.37698827511E+03  0.17200000000E+03 0. -1.
         -6    1    1    2    0  503 -0.77220329213E+02 -0.20059708693E+02  0.77470740196E+02  0.20481964443E+03  0.17200000000E+03 0. -1.
<mgrwt>
<rscale>  2 0.18960319E+03</rscale>
<asrwt>0</asrwt>
<pdfrwt beam="1">  1       21 0.12313965E+00 0.18960319E+03</pdfrwt>
<pdfrwt beam="2">  1       21 0.22312325E-01 0.18960319E+03</pdfrwt>
<totfact> 0.93297709E+03</totfact>
</mgrwt>
</event>
<event>
 4    1  0.1100959E+000  0.1814083E+03  0.7546771E-02  0.1166447E+00
         21   -1    0    0  503  502  0.00000000000E+00  0.00000000000E+00  0.21840725005E+03  0.21840725005E+03  0.00000000000E+00 0. -1.
         21   -1    0    0  501  503 -0.00000000000E+00 -0.00000000000E+00 -0.15710474482E+03  0.15710474482E+03  0.00000000000E+00 0.  1.
          6    1    1    2  501    0 -0.57532327562E+02  0.38755018095E+01  0.68628409313E+02  0.19395578567E+03  0.17200000000E+03 0. -1.
         -6    1    1    2    0  502  0.57532327562E+02 -0.38755018095E+01 -0.73259040799E+01  0.18155620920E+03  0.17200000000E+03 0.  1.
<mgrwt>
<rscale>  2 0.18140835E+03</rscale>
<asrwt>0</asrwt>
<pdfrwt beam="1">  1       21 0.54601812E-01 0.18140835E+03</pdfrwt>
<pdfrwt beam="2">  1       21 0.39276186E-01 0.18140835E+03</pdfrwt>
<totfact> 0.19928483E+04</totfact>
</mgrwt>
</event>
<event>
 4    1  0.1100959E+000  0.2362583E+03  0.7546771E-02  0.1122311E+00
         21   -1    0    0  501  502  0.00000000000E+00  0.00000000000E+00  0.18467485374E+03  0.18467485374E+03  0.00000000000E+00 0. -1.
         21   -1    0    0  502  503 -0.00000000000E+00 -0.00000000000E+00 -0.30544341499E+03  0.30544341499E+03  0.00000000000E+00 0.  1.
          6    1    1    2  501    0 -0.15609706293E+03  0.43216970484E+02 -0.35327575140E+02  0.23888498730E+03  0.17200000000E+03 0.  1.
         -6    1    1    2    0  503  0.15609706293E+03 -0.43216970484E+02 -0.85440986104E+02  0.25123328143E+03  0.17200000000E+03 0. -1.
<mgrwt>
<rscale>  2 0.23625833E+03</rscale>
<asrwt>0</asrwt>
<pdfrwt beam="1">  1       21 0.46168714E-01 0.23625833E+03</pdfrwt>
<pdfrwt beam="2">  1       21 0.76360854E-01 0.23625833E+03</pdfrwt>
<totfact> 0.66607399E+03</totfact>
</mgrwt>
</event>
<event>
 4    1  0.1100959E+000  0.1802776E+03  0.7546771E-02  0.1167535E+00
         21   -1    0    0  503  502  0.00000000000E+00  0.00000000000E+00  0.32410566259E+03  0.32410566259E+03  0.00000000000E+00 0. -1.
         21   -1    0    0  501  503 -0.00000000000E+00 -0.00000000000E+00 -0.10107236111E+03  0.10107236111E+03  0.00000000000E+00 0. -1.
          6    1    1    2  501    0  0.24952464674E+02 -0.47889356063E+02  0.92646186752E+02  0.20269023617E+03  0.17200000000E+03 0. -1.
         -6    1    1    2    0  502 -0.24952464674E+02  0.47889356063E+02  0.13038711472E+03  0.22248778754E+03  0.17200000000E+03 0. -1.
<mgrwt>
<rscale>  2 0.18027761E+03</rscale>
<asrwt>0</asrwt>
<pdfrwt beam="1">  1       21 0.81026413E-01 0.18027761E+03</pdfrwt>
<pdfrwt beam="2">  1       21 0.25268091E-01 0.18027761E+03</pdfrwt>
<totfact> 0.19980793E+04</totfact>
</mgrwt>
</event>
<event>
 4    1  0.1100959E+000  0.1726412E+03  0.7546771E-02  0.1175121E+00
         21   -1    0    0  503  502  0.00000000000E+00  0.00000000000E+00  0.37570857662E+03  0.37570857662E+03  0.00000000000E+00 0.  1.
         21   -1    0    0  501  503 -0.00000000000E+00 -0.00000000000E+00 -0.79348230695E+02  0.79348230695E+02  0.00000000000E+00 0.  1.
          6    1    1    2  501    0 -0.79149099866E+01 -0.12583556843E+02  0.15162133592E+03  0.22976949582E+03  0.17200000000E+03 0. -1.
         -6    1    1    2    0  502  0.79149099866E+01  0.12583556843E+02  0.14473901000E+03  0.22528731149E+03  0.17200000000E+03 0. -1.
<mgrwt>
<rscale>  2 0.17264122E+03</rscale>
<asrwt>0</asrwt>
<pdfrwt beam="1">  1       21 0.93927139E-01 0.17264122E+03</pdfrwt>
<pdfrwt beam="2">  1       21 0.19837059E-01 0.17264122E+03</pdfrwt>
<totfact> 0.22569594E+04</totfact>
</mgrwt>
</event>
<event>
 4    1  0.1100959E+000  0.1843731E+03  0.7546771E-02  0.1163637E+00
         21   -1    0    0  501  502  0.00000000000E+00  0.00000000000E+00  0.38766562757E+03  0.38766562757E+03  0.00000000000E+00 0. -1.
         21   -1    0    0  502  503 -0.00000000000E+00 -0.00000000000E+00 -0.10271642172E+03  0.10271642172E+03  0.00000000000E+00 0. -1.
          6    1    1    2  501    0 -0.59704139915E+02  0.29066381648E+02  0.23626280229E+03  0.29968908991E+03  0.17200000000E+03 0. -1.
         -6    1    1    2    0  503  0.59704139915E+02 -0.29066381648E+02  0.48686403558E+02  0.19069295938E+03  0.17200000000E+03 0. -1.
<mgrwt>
<rscale>  2 0.18437310E+03</rscale>
<asrwt>0</asrwt>
<pdfrwt beam="1">  1       21 0.96916403E-01 0.18437310E+03</pdfrwt>
<pdfrwt beam="2">  1       21 0.25679106E-01 0.18437310E+03</pdfrwt>
<totfact> 0.12790995E+04</totfact>
</mgrwt>
</event>
<event>
 4    1  0.1100959E+000  0.3352099E+03  0.7546771E-02  0.1068855E+00
         21   -1    0    0  503  502  0.00000000000E+00  0.00000000000E+00  0.49127194403E+03  0.49127194403E+03  0.00000000000E+00 0. -1.
         21   -1    0    0  501  503 -0.00000000000E+00 -0.00000000000E+00 -0.22888767915E+03  0.22888767915E+03  0.00000000000E+00 0. -1.
          6    1    1    2  501    0  0.10154863856E+03 -0.26920168212E+03  0.14082194749E+03  0.36358835589E+03  0.17200000000E+03 0. -1.
         -6    1    1    2    0  502 -0.10154863856E+03  0.26920168212E+03  0.12156231739E+03  0.35657126729E+03  0.17200000000E+03 0. -1.
<mgrwt>
<rscale>  2 0.33520989E+03</rscale>
<asrwt>0</asrwt>
<pdfrwt beam="1">  1       21 0.12281798E+00 0.33520989E+03</pdfrwt>
<pdfrwt beam="2">  1       21 0.57221921E-01 0.33520989E+03</pdfrwt>
<totfact> 0.12860135E+03</totfact>
</mgrwt>
</event>
<event>
 4    1  0.1100959E+000  0.2259925E+03  0.7546771E-02  0.1129493E+00
         21   -1    0    0  503  502  0.00000000000E+00  0.00000000000E+00  0.22053219981E+03  0.22053219981E+03  0.00000000000E+00 0. -1.
         21   -1    0    0  501  503 -0.00000000000E+00 -0.00000000000E+00 -0.26395098695E+03  0.26395098695E+03  0.00000000000E+00 0.  1.
          6    1    1    2  501    0 -0.75782879722E+02 -0.12548127139E+03 -0.10653205176E+03  0.24984329565E+03  0.17200000000E+03 0.  1.
         -6    1    1    2    0  502  0.75782879722E+02  0.12548127139E+03  0.63113264626E+02  0.23463989111E+03  0.17200000000E+03 0. -1.
<mgrwt>
<rscale>  2 0.22599247E+03</rscale>
<asrwt>0</asrwt>
<pdfrwt beam="1">  1       21 0.55133050E-01 0.22599247E+03</pdfrwt>
<pdfrwt beam="2">  1       21 0.65987746E-01 0.22599247E+03</pdfrwt>
<totfact> 0.63912519E+03</totfact>
</mgrwt>
</event>
<event>
 4    1  0.1100959E+000  0.2441310E+03  0.7546771E-02  0.1117071E+00
         21   -1    0    0  501  502  0.00000000000E+00  0.00000000000E+00  0.44463415841E+03  0.44463415841E+03  0.00000000000E+00 0.  1.
         21   -1    0    0  502  503 -0.00000000000E+00 -0.00000000000E+00 -0.15443523612E+03  0.15443523612E+03  0.00000000000E+00 0. -1.
          6    1    1    2  501    0 -0.17135652083E+03 -0.25551335933E+02  0.25394494135E+03  0.35226121166E+03  0.17200000000E+03 0.  1.
         -6    1    1    2    0  503  0.17135652083E+03  0.25551335933E+02  0.36253980927E+02  0.24680818287E+03  0.17200000000E+03 0. -1.
<mgrwt>
<rscale>  2 0.24413096E+03</rscale>
<asrwt>0</asrwt>
<pdfrwt beam="1">  1       21 0.11115854E+00 0.24413096E+03</pdfrwt>
<pdfrwt beam="2">  1       21 0.38608810E-01 0.24413096E+03</pdfrwt>
<totfact> 0.39617021E+03</totfact>
</mgrwt>
</event>
<event>
 4    1  0.1100959E+000  0.2336483E+03  0.7546771E-02  0.1124098E+00
         21   -1    0    0  501  502  0.00000000000E+00  0.00000000000E+00  0.25889663228E+03  0.25889663228E+03  0.00000000000E+00 0. -1.
         21   -1    0    0  502  503 -0.00000000000E+00 -0.00000000000E+00 -0.24685636416E+03  0.24685636416E+03  0.00000000000E+00 0.  1.
          6    1    1    2  501    0  0.13653094903E+03  0.79792360668E+02  0.10258122832E+03  0.25517529125E+03  0.17200000000E+03 0. -1.
         -6    1    1    2    0  503 -0.13653094903E+03 -0.79792360668E+02 -0.90540960201E+02  0.25057770519E+03  0.17200000000E+03 0.  1.
<mgrwt>
<rscale>  2 0.23364828E+03</rscale>
<asrwt>0</asrwt>
<pdfrwt beam="1">  1       21 0.64724158E-01 0.23364828E+03</pdfrwt>
<pdfrwt beam="2">  1       21 0.61714091E-01 0.23364828E+03</pdfrwt>
<totfact> 0.52075470E+03</totfact>
</mgrwt>
</event>
<event>
 4    1  0.1100959E+000  0.1805337E+03  0.7546771E-02  0.1167288E+00
         21   -1    0    0  503  502  0.00000000000E+00  0.00000000000E+00  0.74212766838E+03  0.74212766838E+03  0.00000000000E+00 0. -1.
         21   -1    0    0  501  503 -0.00000000000E+00 -0.00000000000E+00 -0.60010187717E+02  0.60010187717E+02  0.00000000000E+00 0. -1.
          6    1    1    2  501    0 -0.53961928728E+02 -0.98241057648E+01  0.13336633417E+03  0.22445262728E+03  0.17200000000E+03 0. -1.
         -6    1    1    2    0  502  0.53961928728E+02  0.98241057648E+01  0.54875114650E+03  0.57768522881E+03  0.17200000000E+03 0. -1.
<mgrwt>
<rscale>  2 0.18053366E+03</rscale>
<asrwt>0</asrwt>
<pdfrwt beam="1">  1       21 0.18553189E+00 0.18053366E+03</pdfrwt>
<pdfrwt beam="2">  1       21 0.15002549E-01 0.18053366E+03</pdfrwt>
<totfact> 0.66189755E+03</totfact>
</mgrwt>
</event>
<event>
 4    1  0.1100959E+000  0.1924139E+03  0.7546771E-02  0.1156302E+00
         21   -1    0    0  501  502  0.00000000000E+00  0.00000000000E+00  0.28667954468E+02  0.28667954468E+02  0.00000000000E+00 0.  1.
         21   -1    0    0  502  503 -0.00000000000E+00 -0.00000000000E+00 -0.19144124705E+04  0.19144124705E+04  0.00000000000E+00 0.  1.
          6    1    1    2  501    0 -0.84421319260E+02 -0.17667333226E+02 -0.38866064843E+03  0.43368213411E+03  0.17200000000E+03 0.  1.
         -6    1    1    2    0  503  0.84421319260E+02  0.17667333226E+02 -0.14970838676E+04  0.15093982909E+04  0.17200000000E+03 0.  1.
<mgrwt>
<rscale>  2 0.19241386E+03</rscale>
<asrwt>0</asrwt>
<pdfrwt beam="1">  1       21 0.71669897E-02 0.19241386E+03</pdfrwt>
<pdfrwt beam="2">  1       21 0.47860305E+00 0.19241386E+03</pdfrwt>
<totfact> 0.38751011E+02</totfact>
</mgrwt>
</event>
<event>
 4    1  0.1100959E+000  0.2195447E+03  0.7546771E-02  0.1134223E+00
         21   -1    0    0  503  502  0.00000000000E+00  0.00000000000E+00  0.14173116568E+03  0.14173116568E+03  0.00000000000E+00 0. -1.
         21   -1    0    0  501  503 -0.00000000000E+00 -0.00000000000E+00 -0.37465873520E+03  0.37465873520E+03  0.00000000000E+00 0.  1.
          6    1    1    2  501    0  0.13204177300E+03  0.34363193608E+02 -0.19490381083E+03  0.29357682873E+03  0.17200000000E+03 0. -1.
         -6    1    1    2    0  502 -0.13204177300E+03 -0.34363193608E+02 -0.38023758693E+02  0.22281307214E+03  0.17200000000E+03 0. -1.
<mgrwt>
<rscale>  2 0.21954466E+03</rscale>
<asrwt>0</asrwt>
<pdfrwt beam="1">  1       21 0.35432792E-01 0.21954466E+03</pdfrwt>
<pdfrwt beam="2">  1       21 0.93664683E-01 0.21954466E+03</pdfrwt>
<totfact> 0.72127995E+03</totfact>
</mgrwt>
</event>
<event>
 4    1  0.1100959E+000  0.2724584E+03  0.7546771E-02  0.1099881E+00
         21   -1    0    0  503  502  0.00000000000E+00  0.00000000000E+00  0.20444472201E+04  0.20444472201E+04  0.00000000000E+00 0. -1.
         21   -1    0    0  501  503 -0.00000000000E+00 -0.00000000000E+00 -0.50499660205E+02  0.50499660205E+02  0.00000000000E+00 0. -1.
          6    1    1    2  501    0 -0.68267634019E+02  0.19997282982E+03  0.44172596790E+03  0.51899463701E+03  0.17200000000E+03 0. -1.
         -6    1    1    2    0  502  0.68267634019E+02 -0.19997282982E+03  0.15522215920E+04  0.15759522433E+04  0.17200000000E+03 0. -1.
<mgrwt>
<rscale>  2 0.27245844E+03</rscale>
<asrwt>0</asrwt>
<pdfrwt beam="1">  1       21 0.51111153E+00 0.27245844E+03</pdfrwt>
<pdfrwt beam="2">  1       21 0.12624922E-01 0.27245844E+03</pdfrwt>
<totfact> 0.74667093E+01</totfact>
</mgrwt>
</event>
<event>
 4    1  0.1100959E+000  0.2180091E+03  0.7546771E-02  0.1135376E+00
         21   -1    0    0  501  502  0.00000000000E+00  0.00000000000E+00  0.12844742993E+03  0.12844742993E+03  0.00000000000E+00 0.  1.
         21   -1    0    0  502  503 -0.00000000000E+00 -0.00000000000E+00 -0.69669489370E+03  0.69669489370E+03  0.00000000000E+00 0.  1.
          6    1    1    2  501    0 -0.19161628700E+02 -0.13257754893E+03 -0.16122024210E+01  0.21801507675E+03  0.17200000000E+03 0.  1.
         -6    1    1    2    0  503  0.19161628700E+02  0.13257754893E+03 -0.56663526135E+03  0.60712724688E+03  0.17200000000E+03 0.  1.
<mgrwt>
<rscale>  2 0.21800912E+03</rscale>
<asrwt>0</asrwt>
<pdfrwt beam="1">  1       21 0.32111857E-01 0.21800912E+03</pdfrwt>
<pdfrwt beam="2">  1       21 0.17417372E+00 0.21800912E+03</pdfrwt>
<totfact> 0.18163059E+03</totfact>
</mgrwt>
</event>
<event>
 4    1  0.1100959E+000  0.1914740E+03  0.7546771E-02  0.1157139E+00
         21   -1    0    0  503  502  0.00000000000E+00  0.00000000000E+00  0.10883336900E+03  0.10883336900E+03  0.00000000000E+00 0.  1.
         21   -1    0    0  501  503 -0.00000000000E+00 -0.00000000000E+00 -0.54041514312E+03  0.54041514312E+03  0.00000000000E+00 0. -1.
          6    1    1    2  501    0 -0.62118747124E+02  0.56740962462E+02 -0.41501950190E+03  0.45705958312E+03  0.17200000000E+03 0. -1.
         -6    1    1    2    0  502  0.62118747124E+02 -0.56740962462E+02 -0.16562272216E+02  0.19218892899E+03  0.17200000000E+03 0.  1.
<mgrwt>
<rscale>  2 0.19147396E+03</rscale>
<asrwt>0</asrwt>
<pdfrwt beam="1">  1       21 0.27208343E-01 0.19147396E+03</pdfrwt>
<pdfrwt beam="2">  1       21 0.13510378E+00 0.19147396E+03</pdfrwt>
<totfact> 0.50538681E+03</totfact>
</mgrwt>
</event>
<event>
 4    1  0.1100959E+000  0.1896290E+03  0.7546771E-02  0.1158796E+00
         21   -1    0    0  503  502  0.00000000000E+00  0.00000000000E+00  0.14856205760E+03  0.14856205760E+03  0.00000000000E+00 0. -1.
         21   -1    0    0  501  503 -0.00000000000E+00 -0.00000000000E+00 -0.39762191347E+03  0.39762191347E+03  0.00000000000E+00 0. -1.
          6    1    1    2  501    0 -0.76286228750E+02 -0.23570318046E+02 -0.29535129413E+03  0.35098651759E+03  0.17200000000E+03 0. -1.
         -6    1    1    2    0  502  0.76286228750E+02  0.23570318046E+02  0.46291438256E+02  0.19519745348E+03  0.17200000000E+03 0. -1.
<mgrwt>
<rscale>  2 0.18962898E+03</rscale>
<asrwt>0</asrwt>
<pdfrwt beam="1">  1       21 0.37140515E-01 0.18962898E+03</pdfrwt>
<pdfrwt beam="2">  1       21 0.99405477E-01 0.18962898E+03</pdfrwt>
<totfact> 0.58353059E+03</totfact>
</mgrwt>
</event>
<event>
 4    1  0.1100959E+000  0.1772426E+03  0.7546771E-02  0.1170499E+00
         21   -1    0    0  503  502  0.00000000000E+00  0.00000000000E+00  0.72175592436E+03  0.72175592436E+03  0.00000000000E+00 0.  1.
         21   -1    0    0  501  503 -0.00000000000E+00 -0.00000000000E+00 -0.75452648964E+02  0.75452648964E+02  0.00000000000E+00 0.  1.
          6    1    1    2  501    0  0.59353726140E+00  0.42785376506E+02  0.63863084522E+02  0.18839701243E+03  0.17200000000E+03 0.  1.
         -6    1    1    2    0  502 -0.59353726140E+00 -0.42785376506E+02  0.58244019087E+03  0.60881156089E+03  0.17200000000E+03 0.  1.
<mgrwt>
<rscale>  2 0.17724260E+03</rscale>
<asrwt>0</asrwt>
<pdfrwt beam="1">  1       21 0.18043896E+00 0.17724260E+03</pdfrwt>
<pdfrwt beam="2">  1       21 0.18863164E-01 0.17724260E+03</pdfrwt>
<totfact> 0.47186272E+03</totfact>
</mgrwt>
</event>
<event>
 4    1  0.1100959E+000  0.2711424E+03  0.7546771E-02  0.1100628E+00
         21   -1    0    0  501  502  0.00000000000E+00  0.00000000000E+00  0.36869434886E+03  0.36869434886E+03  0.00000000000E+00 0. -1.
         21   -1    0    0  502  503 -0.00000000000E+00 -0.00000000000E+00 -0.20048787513E+03  0.20048787513E+03  0.00000000000E+00 0.  1.
          6    1    1    2  501    0 -0.18007049169E+03  0.10727913856E+03  0.63153770732E+02  0.27840006161E+03  0.17200000000E+03 0. -1.
         -6    1    1    2    0  503  0.18007049169E+03 -0.10727913856E+03  0.10505270300E+03  0.29078216238E+03  0.17200000000E+03 0.  1.
<mgrwt>
<rscale>  2 0.27114239E+03</rscale>
<asrwt>0</asrwt>
<pdfrwt beam="1">  1       21 0.92173586E-01 0.27114239E+03</pdfrwt>
<pdfrwt beam="2">  1       21 0.50121969E-01 0.27114239E+03</pdfrwt>
<totfact> 0.35629745E+03</totfact>
</mgrwt>
</event>
<event>
 4    1  0.1100959E+000  0.1720422E+03  0.7546771E-02  0.1175735E+00
         21   -1    0    0  503  502  0.00000000000E+00  0.00000000000E+00  0.89831800405E+03  0.89831800405E+03  0.00000000000E+00 0.  1.
         21   -1    0    0  501  503 -0.00000000000E+00 -0.00000000000E+00 -0.50703854881E+02  0.50703854881E+02  0.00000000000E+00 0.  1.
          6    1    1    2  501    0  0.36504011934E+01 -0.10953862762E+01  0.14301399557E+03  0.22372198870E+03  0.17200000000E+03 0.  1.
         -6    1    1    2    0  502 -0.36504011934E+01  0.10953862762E+01  0.70460015360E+03  0.72529987023E+03  0.17200000000E+03 0.  1.
<mgrwt>
<rscale>  2 0.17204222E+03</rscale>
<asrwt>0</asrwt>
<pdfrwt beam="1">  1       21 0.22457945E+00 0.17204222E+03</pdfrwt>
<pdfrwt beam="2">  1       21 0.12675967E-01 0.17204222E+03</pdfrwt>
<totfact> 0.51236931E+03</totfact>
</mgrwt>
</event>
<event>
 4    1  0.1100959E+000  0.1916456E+03  0.7546771E-02  0.1156985E+00
         21   -1    0    0  501  502  0.00000000000E+00  0.00000000000E+00  0.12437515487E+03  0.12437515487E+03  0.00000000000E+00 0.  1.
         21   -1    0    0  502  503 -0.00000000000E+00 -0.00000000000E+00 -0.31339508725E+03  0.31339508725E+03  0.00000000000E+00 0.  1.
          6    1    1    2  501    0 -0.30007863459E+02  0.79016218871E+02 -0.41914837457E+02  0.19617565678E+03  0.17200000000E+03 0.  1.
         -6    1    1    2    0  503  0.30007863459E+02 -0.79016218871E+02 -0.14710509493E+03  0.24159458534E+03  0.17200000000E+03 0.  1.
<mgrwt>
<rscale>  2 0.19164560E+03</rscale>
<asrwt>0</asrwt>
<pdfrwt beam="1">  1       21 0.31093789E-01 0.19164560E+03</pdfrwt>
<pdfrwt beam="2">  1       21 0.78348771E-01 0.19164560E+03</pdfrwt>
<totfact> 0.14334265E+04</totfact>
</mgrwt>
</event>
<event>
 4    1  0.1100959E+000  0.1796712E+03  0.7546771E-02  0.1168122E+00
         21   -1    0    0  501  502  0.00000000000E+00  0.00000000000E+00  0.80611016394E+03  0.80611016394E+03  0.00000000000E+00 0.  1.
         21   -1    0    0  502  503 -0.00000000000E+00 -0.00000000000E+00 -0.14203674790E+03  0.14203674790E+03  0.00000000000E+00 0.  1.
          6    1    1    2  501    0 -0.49649014776E+02 -0.15254527600E+02  0.73375817478E+03  0.75543549317E+03  0.17200000000E+03 0.  1.
         -6    1    1    2    0  503  0.49649014776E+02  0.15254527600E+02 -0.69684758748E+02  0.19271141866E+03  0.17200000000E+03 0.  1.
<mgrwt>
<rscale>  2 0.17967116E+03</rscale>
<asrwt>0</asrwt>
<pdfrwt beam="1">  1       21 0.20152753E+00 0.17967116E+03</pdfrwt>
<pdfrwt beam="2">  1       21 0.35509189E-01 0.17967116E+03</pdfrwt>
<totfact> 0.10191685E+03</totfact>
</mgrwt>
</event>
<event>
 4    1  0.1100959E+000  0.2510931E+03  0.7546771E-02  0.1112616E+00
         21   -1    0    0  501  502  0.00000000000E+00  0.00000000000E+00  0.18236070076E+04  0.18236070076E+04  0.00000000000E+00 0.  1.
         21   -1    0    0  502  503 -0.00000000000E+00 -0.00000000000E+00 -0.35855513613E+02  0.35855513613E+02  0.00000000000E+00 0. -1.
          6    1    1    2  501    0 -0.10949877250E+03 -0.14653927362E+03  0.10697062505E+04  0.10987807799E+04  0.17200000000E+03 0.  1.
         -6    1    1    2    0  503  0.10949877250E+03  0.14653927362E+03  0.71804524348E+03  0.76068174132E+03  0.17200000000E+03 0. -1.
<mgrwt>
<rscale>  2 0.25109309E+03</rscale>
<asrwt>0</asrwt>
<pdfrwt beam="1">  1       21 0.45590144E+00 0.25109309E+03</pdfrwt>
<pdfrwt beam="2">  1       21 0.89638845E-02 0.25109309E+03</pdfrwt>
<totfact> 0.34265559E+02</totfact>
</mgrwt>
</event>
<event>
 4    1  0.1100959E+000  0.3024834E+03  0.7546771E-02  0.1084006E+00
         21   -1    0    0  501  502  0.00000000000E+00  0.00000000000E+00  0.63335222169E+03  0.63335222169E+03  0.00000000000E+00 0.  1.
         21   -1    0    0  502  503 -0.00000000000E+00 -0.00000000000E+00 -0.14947202954E+03  0.14947202954E+03  0.00000000000E+00 0.  1.
          6    1    1    2  501    0  0.39740572724E+02 -0.24562754518E+03  0.31358982251E+03  0.43570033378E+03  0.17200000000E+03 0.  1.
         -6    1    1    2    0  503 -0.39740572724E+02  0.24562754518E+03  0.17029036963E+03  0.34712391745E+03  0.17200000000E+03 0.  1.
<mgrwt>
<rscale>  2 0.30248339E+03</rscale>
<asrwt>0</asrwt>
<pdfrwt beam="1">  1       21 0.15833805E+00 0.30248339E+03</pdfrwt>
<pdfrwt beam="2">  1       21 0.37368009E-01 0.30248339E+03</pdfrwt>
<totfact> 0.16384032E+03</totfact>
</mgrwt>
</event>
<event>
 4    1  0.1100959E+000  0.1812700E+03  0.7546771E-02  0.1166580E+00
         21   -1    0    0  501  502  0.00000000000E+00  0.00000000000E+00  0.13458388627E+03  0.13458388627E+03  0.00000000000E+00 0. -1.
         21   -1    0    0  502  503 -0.00000000000E+00 -0.00000000000E+00 -0.37754761507E+03  0.37754761507E+03  0.00000000000E+00 0. -1.
          6    1    1    2  501    0 -0.32806476842E+02  0.46888844453E+02  0.30726167760E+02  0.18385572072E+03  0.17200000000E+03 0. -1.
         -6    1    1    2    0  503  0.32806476842E+02 -0.46888844453E+02 -0.27368989657E+03  0.32827578062E+03  0.17200000000E+03 0. -1.
<mgrwt>
<rscale>  2 0.18127004E+03</rscale>
<asrwt>0</asrwt>
<pdfrwt beam="1">  1       21 0.33645972E-01 0.18127004E+03</pdfrwt>
<pdfrwt beam="2">  1       21 0.94386904E-01 0.18127004E+03</pdfrwt>
<totfact> 0.80696706E+03</totfact>
</mgrwt>
</event>
<event>
 4    1  0.1100959E+000  0.1928516E+03  0.7546771E-02  0.1155914E+00
         21   -1    0    0  501  502  0.00000000000E+00  0.00000000000E+00  0.36851921770E+03  0.36851921770E+03  0.00000000000E+00 0.  1.
         21   -1    0    0  502  503 -0.00000000000E+00 -0.00000000000E+00 -0.25618413316E+03  0.25618413316E+03  0.00000000000E+00 0.  1.
          6    1    1    2  501    0  0.36787123580E+02  0.79085122060E+02  0.29933211450E+03  0.35607789002E+03  0.17200000000E+03 0.  1.
         -6    1    1    2    0  503 -0.36787123580E+02 -0.79085122060E+02 -0.18699702996E+03  0.26862546083E+03  0.17200000000E+03 0.  1.
<mgrwt>
<rscale>  2 0.19285162E+03</rscale>
<asrwt>0</asrwt>
<pdfrwt beam="1">  1       21 0.92129804E-01 0.19285162E+03</pdfrwt>
<pdfrwt beam="2">  1       21 0.64046034E-01 0.19285162E+03</pdfrwt>
<totfact> 0.22393771E+03</totfact>
</mgrwt>
</event>
<event>
 4    1  0.1100959E+000  0.2660003E+03  0.7546771E-02  0.1103591E+00
         21   -1    0    0  503  502  0.00000000000E+00  0.00000000000E+00  0.59193371358E+03  0.59193371358E+03  0.00000000000E+00 0. -1.
         21   -1    0    0  501  503 -0.00000000000E+00 -0.00000000000E+00 -0.16348000811E+03  0.16348000811E+03  0.00000000000E+00 0.  1.
          6    1    1    2  501    0 -0.13147463122E+03 -0.15455290511E+03  0.18395386312E+02  0.26663564910E+03  0.17200000000E+03 0.  1.
         -6    1    1    2    0  502  0.13147463122E+03  0.15455290511E+03  0.41005831916E+03  0.48877807259E+03  0.17200000000E+03 0. -1.
<mgrwt>
<rscale>  2 0.26600034E+03</rscale>
<asrwt>0</asrwt>
<pdfrwt beam="1">  1       21 0.14798342E+00 0.26600034E+03</pdfrwt>
<pdfrwt beam="2">  1       21 0.40870003E-01 0.26600034E+03</pdfrwt>
<totfact> 0.16790216E+03</totfact>
</mgrwt>
</event>
<event>
 4    1  0.1100959E+000  0.2415844E+03  0.7546771E-02  0.1118742E+00
         21   -1    0    0  503  502  0.00000000000E+00  0.00000000000E+00  0.90567804062E+02  0.90567804062E+02  0.00000000000E+00 0. -1.
         21   -1    0    0  501  503 -0.00000000000E+00 -0.00000000000E+00 -0.71172833135E+03  0.71172833135E+03  0.00000000000E+00 0.  1.
          6    1    1    2  501    0 -0.10966727152E+03  0.12942990415E+03 -0.43394945019E+03  0.49666400700E+03  0.17200000000E+03 0. -1.
         -6    1    1    2    0  502  0.10966727152E+03 -0.12942990415E+03 -0.18721107710E+03  0.30563212841E+03  0.17200000000E+03 0. -1.
<mgrwt>
<rscale>  2 0.24158438E+03</rscale>
<asrwt>0</asrwt>
<pdfrwt beam="1">  1       21 0.22641951E-01 0.24158438E+03</pdfrwt>
<pdfrwt beam="2">  1       21 0.17793208E+00 0.24158438E+03</pdfrwt>
<totfact> 0.32958901E+03</totfact>
</mgrwt>
</event>
<event>
 4    1  0.1100959E+000  0.1722003E+03  0.7546771E-02  0.1175573E+00
         21   -1    0    0  501  502  0.00000000000E+00  0.00000000000E+00  0.10320181467E+03  0.10320181467E+03  0.00000000000E+00 0. -1.
         21   -1    0    0  502  503 -0.00000000000E+00 -0.00000000000E+00 -0.52987995395E+03  0.52987995395E+03  0.00000000000E+00 0. -1.
          6    1    1    2  501    0 -0.62673575364E+01 -0.54470049423E+01  0.82267964893E+00  0.17220228348E+03  0.17200000000E+03 0.  1.
         -6    1    1    2    0  503  0.62673575364E+01  0.54470049423E+01 -0.42750081893E+03  0.46087948514E+03  0.17200000000E+03 0.  1.
<mgrwt>
<rscale>  2 0.17220032E+03</rscale>
<asrwt>0</asrwt>
<pdfrwt beam="1">  1       21 0.25800454E-01 0.17220032E+03</pdfrwt>
<pdfrwt beam="2">  1       21 0.13246999E+00 0.17220032E+03</pdfrwt>
<totfact> 0.59781698E+03</totfact>
</mgrwt>
</event>
<event>
 4    1  0.1100959E+000  0.2534762E+03  0.7546771E-02  0.1111127E+00
         21   -1    0    0  503  502  0.00000000000E+00  0.00000000000E+00  0.93044822999E+03  0.93044822999E+03  0.00000000000E+00 0. -1.
         21   -1    0    0  501  503 -0.00000000000E+00 -0.00000000000E+00 -0.13095241609E+03  0.13095241609E+03  0.00000000000E+00 0. -1.
          6    1    1    2  501    0  0.17052841615E+03 -0.74741205484E+02  0.34879659585E+02  0.25586476734E+03  0.17200000000E+03 0. -1.
         -6    1    1    2    0  502 -0.17052841615E+03  0.74741205484E+02  0.76461615431E+03  0.80553587875E+03  0.17200000000E+03 0. -1.
<mgrwt>
<rscale>  2 0.25347621E+03</rscale>
<asrwt>0</asrwt>
<pdfrwt beam="1">  1       21 0.23261204E+00 0.25347621E+03</pdfrwt>
<pdfrwt beam="2">  1       21 0.32738107E-01 0.25347621E+03</pdfrwt>
<totfact> 0.70902207E+02</totfact>
</mgrwt>
</event>
<event>
 4    1  0.1100959E+000  0.1870190E+03  0.7546771E-02  0.1161178E+00
         21   -1    0    0  503  502  0.00000000000E+00  0.00000000000E+00  0.14025001260E+04  0.14025001260E+04  0.00000000000E+00 0.  1.
         21   -1    0    0  501  503 -0.00000000000E+00 -0.00000000000E+00 -0.33060777203E+02  0.33060777203E+02  0.00000000000E+00 0.  1.
          6    1    1    2  501    0  0.25382910381E+02  0.68904259378E+02  0.10404960087E+04  0.10571698224E+04  0.17200000000E+03 0.  1.
         -6    1    1    2    0  502 -0.25382910381E+02 -0.68904259378E+02  0.32894334010E+03  0.37839108089E+03  0.17200000000E+03 0.  1.
<mgrwt>
<rscale>  2 0.18701895E+03</rscale>
<asrwt>0</asrwt>
<pdfrwt beam="1">  1       21 0.35062483E+00 0.18701895E+03</pdfrwt>
<pdfrwt beam="2">  1       21 0.82651990E-02 0.18701895E+03</pdfrwt>
<totfact> 0.19814787E+03</totfact>
</mgrwt>
</event>
<event>
 4    1  0.1100959E+000  0.2323691E+03  0.7546771E-02  0.1124983E+00
         21   -1    0    0  501  502  0.00000000000E+00  0.00000000000E+00  0.23992971360E+03  0.23992971360E+03  0.00000000000E+00 0. -1.
         21   -1    0    0  502  503 -0.00000000000E+00 -0.00000000000E+00 -0.22939374049E+03  0.22939374049E+03  0.00000000000E+00 0.  1.
          6    1    1    2  501    0  0.53515892704E+02 -0.14679041804E+03 -0.27035616367E+02  0.23393653445E+03  0.17200000000E+03 0.  1.
         -6    1    1    2    0  503 -0.53515892704E+02  0.14679041804E+03  0.37571589485E+02  0.23538691964E+03  0.17200000000E+03 0. -1.
<mgrwt>
<rscale>  2 0.23236905E+03</rscale>
<asrwt>0</asrwt>
<pdfrwt beam="1">  1       21 0.59982428E-01 0.23236905E+03</pdfrwt>
<pdfrwt beam="2">  1       21 0.57348435E-01 0.23236905E+03</pdfrwt>
<totfact> 0.72011119E+03</totfact>
</mgrwt>
</event>
<event>
 4    1  0.1100959E+000  0.1780523E+03  0.7546771E-02  0.1169701E+00
         21   -1    0    0  501  502  0.00000000000E+00  0.00000000000E+00  0.47728144809E+03  0.47728144809E+03  0.00000000000E+00 0.  1.
         21   -1    0    0  502  503 -0.00000000000E+00 -0.00000000000E+00 -0.83793425376E+02  0.83793425376E+02  0.00000000000E+00 0.  1.
          6    1    1    2  501    0  0.45825807159E+02  0.43128868771E+01  0.32447239407E+03  0.37011476614E+03  0.17200000000E+03 0.  1.
         -6    1    1    2    0  503 -0.45825807159E+02 -0.43128868771E+01  0.69015628638E+02  0.19096010733E+03  0.17200000000E+03 0.  1.
<mgrwt>
<rscale>  2 0.17805226E+03</rscale>
<asrwt>0</asrwt>
<pdfrwt beam="1">  1       21 0.11932035E+00 0.17805226E+03</pdfrwt>
<pdfrwt beam="2">  1       21 0.20948358E-01 0.17805226E+03</pdfrwt>
<totfact> 0.11454779E+04</totfact>
</mgrwt>
</event>
<event>
 4    1  0.1100959E+000  0.1923411E+03  0.7546771E-02  0.1156367E+00
         21   -1    0    0  503  502  0.00000000000E+00  0.00000000000E+00  0.11483237049E+03  0.11483237049E+03  0.00000000000E+00 0. -1.
         21   -1    0    0  501  503 -0.00000000000E+00 -0.00000000000E+00 -0.51324707077E+03  0.51324707077E+03  0.00000000000E+00 0. -1.
          6    1    1    2  501    0 -0.74839701031E+02  0.42545263166E+02 -0.39082266947E+03  0.43558861238E+03  0.17200000000E+03 0. -1.
         -6    1    1    2    0  502  0.74839701031E+02 -0.42545263166E+02 -0.75920308123E+01  0.19249082887E+03  0.17200000000E+03 0. -1.
<mgrwt>
<rscale>  2 0.19234105E+03</rscale>
<asrwt>0</asrwt>
<pdfrwt beam="1">  1       21 0.28708093E-01 0.19234105E+03</pdfrwt>
<pdfrwt beam="2">  1       21 0.12831177E+00 0.19234105E+03</pdfrwt>
<totfact> 0.51873075E+03</totfact>
</mgrwt>
</event>
<event>
 4    1  0.1100959E+000  0.1831483E+03  0.7546771E-02  0.1164790E+00
         21   -1    0    0  501  502  0.00000000000E+00  0.00000000000E+00  0.14545239503E+03  0.14545239503E+03  0.00000000000E+00 0. -1.
         21   -1    0    0  502  503 -0.00000000000E+00 -0.00000000000E+00 -0.30277909367E+03  0.30277909367E+03  0.00000000000E+00 0.  1.
          6    1    1    2  501    0  0.21311451262E+02  0.59204214604E+02  0.30750897782E+02  0.18571196702E+03  0.17200000000E+03 0. -1.
         -6    1    1    2    0  503 -0.21311451262E+02 -0.59204214604E+02 -0.18807759643E+03  0.26251952167E+03  0.17200000000E+03 0.  1.
<mgrwt>
<rscale>  2 0.18314835E+03</rscale>
<asrwt>0</asrwt>
<pdfrwt beam="1">  1       21 0.36363099E-01 0.18314835E+03</pdfrwt>
<pdfrwt beam="2">  1       21 0.75694773E-01 0.18314835E+03</pdfrwt>
<totfact> 0.11432550E+04</totfact>
</mgrwt>
</event>
<event>
 4    1  0.1100959E+000  0.1745073E+03  0.7546771E-02  0.1173227E+00
         21   -1    0    0  503  502  0.00000000000E+00  0.00000000000E+00  0.16447201091E+03  0.16447201091E+03  0.00000000000E+00 0. -1.
         21   -1    0    0  501  503 -0.00000000000E+00 -0.00000000000E+00 -0.27642601341E+03  0.27642601341E+03  0.00000000000E+00 0. -1.
          6    1    1    2  501    0 -0.43915426267E+01 -0.29146544184E+02 -0.18265035272E+03  0.25261424749E+03  0.17200000000E+03 0. -1.
         -6    1    1    2    0  502  0.43915426267E+01  0.29146544184E+02  0.70696350223E+02  0.18828377684E+03  0.17200000000E+03 0. -1.
<mgrwt>
<rscale>  2 0.17450733E+03</rscale>
<asrwt>0</asrwt>
<pdfrwt beam="1">  1       21 0.41118003E-01 0.17450733E+03</pdfrwt>
<pdfrwt beam="2">  1       21 0.69106503E-01 0.17450733E+03</pdfrwt>
<totfact> 0.10995159E+04</totfact>
</mgrwt>
</event>
<event>
 4    1  0.1100959E+000  0.2346321E+03  0.7546771E-02  0.1123421E+00
         21   -1    0    0  501  502  0.00000000000E+00  0.00000000000E+00  0.13456845886E+03  0.13456845886E+03  0.00000000000E+00 0. -1.
         21   -1    0    0  502  503 -0.00000000000E+00 -0.00000000000E+00 -0.63697829243E+03  0.63697829243E+03  0.00000000000E+00 0.  1.
          6    1    1    2  501    0 -0.12474873113E+03  0.99528827722E+02 -0.20466742334E+02  0.23552307956E+03  0.17200000000E+03 0. -1.
         -6    1    1    2    0  503  0.12474873113E+03 -0.99528827722E+02 -0.48194309123E+03  0.53602367173E+03  0.17200000000E+03 0.  1.
<mgrwt>
<rscale>  2 0.23463212E+03</rscale>
<asrwt>0</asrwt>
<pdfrwt beam="1">  1       21 0.33642115E-01 0.23463212E+03</pdfrwt>
<pdfrwt beam="2">  1       21 0.15924457E+00 0.23463212E+03</pdfrwt>
<totfact> 0.20895272E+03</totfact>
</mgrwt>
</event>
<event>
 4    1  0.1100959E+000  0.2141991E+03  0.7546771E-02  0.1138283E+00
         21   -1    0    0  503  502  0.00000000000E+00  0.00000000000E+00  0.34087174373E+03  0.34087174373E+03  0.00000000000E+00 0.  1.
         21   -1    0    0  501  503 -0.00000000000E+00 -0.00000000000E+00 -0.30454966240E+03  0.30454966240E+03  0.00000000000E+00 0. -1.
          6    1    1    2  501    0 -0.84256910072E+02 -0.95906305735E+02 -0.22290986530E+03  0.30914406743E+03  0.17200000000E+03 0. -1.
         -6    1    1    2    0  502  0.84256910072E+02  0.95906305735E+02  0.25923194664E+03  0.33627733871E+03  0.17200000000E+03 0.  1.
<mgrwt>
<rscale>  2 0.21419908E+03</rscale>
<asrwt>0</asrwt>
<pdfrwt beam="1">  1       21 0.85217936E-01 0.21419908E+03</pdfrwt>
<pdfrwt beam="2">  1       21 0.76137416E-01 0.21419908E+03</pdfrwt>
<totfact> 0.17963649E+03</totfact>
</mgrwt>
</event>
<event>
 4    1  0.1100959E+000  0.2382455E+03  0.7546771E-02  0.1120967E+00
         21   -1    0    0  501  502  0.00000000000E+00  0.00000000000E+00  0.46414422866E+03  0.46414422866E+03  0.00000000000E+00 0. -1.
         21   -1    0    0  502  503 -0.00000000000E+00 -0.00000000000E+00 -0.12291526179E+03  0.12291526179E+03  0.00000000000E+00 0. -1.
          6    1    1    2  501    0  0.37605898752E+02 -0.16050763373E+03  0.19152433595E+03  0.30568361972E+03  0.17200000000E+03 0. -1.
         -6    1    1    2    0  503 -0.37605898752E+02  0.16050763373E+03  0.14970463092E+03  0.28137587073E+03  0.17200000000E+03 0. -1.
<mgrwt>
<rscale>  2 0.23824547E+03</rscale>
<asrwt>0</asrwt>
<pdfrwt beam="1">  1       21 0.11603605E+00 0.23824547E+03</pdfrwt>
<pdfrwt beam="2">  1       21 0.30728817E-01 0.23824547E+03</pdfrwt>
<totfact> 0.56411876E+03</totfact>
</mgrwt>
</event>
<event>
 4    1  0.1100959E+000  0.1868358E+03  0.7546771E-02  0.1161347E+00
         21   -1    0    0  501  502  0.00000000000E+00  0.00000000000E+00  0.23981593398E+03  0.23981593398E+03  0.00000000000E+00 0.  1.
         21   -1    0    0  502  503 -0.00000000000E+00 -0.00000000000E+00 -0.14848605765E+03  0.14848605765E+03  0.00000000000E+00 0.  1.
          6    1    1    2  501    0 -0.72678259862E+02  0.64410512419E+01  0.72919258822E+02  0.20056129962E+03  0.17200000000E+03 0.  1.
         -6    1    1    2    0  503  0.72678259862E+02 -0.64410512419E+01  0.18410617509E+02  0.18774069201E+03  0.17200000000E+03 0.  1.
<mgrwt>
<rscale>  2 0.18683580E+03</rscale>
<asrwt>0</asrwt>
<pdfrwt beam="1">  1       21 0.59953983E-01 0.18683580E+03</pdfrwt>
<pdfrwt beam="2">  1       21 0.37121515E-01 0.18683580E+03</pdfrwt>
<totfact> 0.18229416E+04</totfact>
</mgrwt>
</event>
<event>
 4    1  0.1100959E+000  0.1746611E+03  0.7546771E-02  0.1173072E+00
         21   -1    0    0  503  502  0.00000000000E+00  0.00000000000E+00  0.15690505419E+03  0.15690505419E+03  0.00000000000E+00 0. -1.
         21   -1    0    0  501  503 -0.00000000000E+00 -0.00000000000E+00 -0.31808187255E+03  0.31808187255E+03  0.00000000000E+00 0.  1.
          6    1    1    2  501    0 -0.12089488356E+02 -0.27863102938E+02 -0.22866575109E+03  0.28774039333E+03  0.17200000000E+03 0.  1.
         -6    1    1    2    0  502  0.12089488356E+02  0.27863102938E+02  0.67488932726E+02  0.18724653341E+03  0.17200000000E+03 0. -1.
<mgrwt>
<rscale>  2 0.17466112E+03</rscale>
<asrwt>0</asrwt>
<pdfrwt beam="1">  1       21 0.39226264E-01 0.17466112E+03</pdfrwt>
<pdfrwt beam="2">  1       21 0.79520467E-01 0.17466112E+03</pdfrwt>
<totfact> 0.88499682E+03</totfact>
</mgrwt>
</event>
<event>
 4    1  0.1100959E+000  0.2165057E+03  0.7546771E-02  0.1136515E+00
         21   -1    0    0  503  502  0.00000000000E+00  0.00000000000E+00  0.84293319482E+02  0.84293319482E+02  0.00000000000E+00 0.  1.
         21   -1    0    0  501  503 -0.00000000000E+00 -0.00000000000E+00 -0.65976164254E+03  0.65976164254E+03  0.00000000000E+00 0. -1.
          6    1    1    2  501    0  0.11001290142E+03  0.72027050245E+02 -0.14026203967E+03  0.25796932806E+03  0.17200000000E+03 0.  1.
         -6    1    1    2    0  502 -0.11001290142E+03 -0.72027050245E+02 -0.43520628339E+03  0.48608563396E+03  0.17200000000E+03 0. -1.
<mgrwt>
<rscale>  2 0.21650574E+03</rscale>
<asrwt>0</asrwt>
<pdfrwt beam="1">  1       21 0.21073330E-01 0.21650574E+03</pdfrwt>
<pdfrwt beam="2">  1       21 0.16494041E+00 0.21650574E+03</pdfrwt>
<totfact> 0.47547864E+03</totfact>
</mgrwt>
</event>
<event>
 4    1  0.1100959E+000  0.1911176E+03  0.7546771E-02  0.1157457E+00
         21   -1    0    0  503  502  0.00000000000E+00  0.00000000000E+00  0.13532199724E+04  0.13532199724E+04  0.00000000000E+00 0.  1.
         21   -1    0    0  501  503 -0.00000000000E+00 -0.00000000000E+00 -0.36231405497E+02  0.36231405497E+02  0.00000000000E+00 0. -1.
          6    1    1    2  501    0 -0.83534880435E+01 -0.82898443086E+02  0.30766493055E+03  0.36219282450E+03  0.17200000000E+03 0. -1.
         -6    1    1    2    0  502  0.83534880435E+01  0.82898443086E+02  0.10093236363E+04  0.10272585534E+04  0.17200000000E+03 0.  1.
<mgrwt>
<rscale>  2 0.19111759E+03</rscale>
<asrwt>0</asrwt>
<pdfrwt beam="1">  1       21 0.33830482E+00 0.19111759E+03</pdfrwt>
<pdfrwt beam="2">  1       21 0.90578559E-02 0.19111759E+03</pdfrwt>
<totfact> 0.19826697E+03</totfact>
</mgrwt>
</event>
<event>
 4    1  0.1100959E+000  0.2104728E+03  0.7546771E-02  0.1141192E+00
         21   -1    0    0  501  502  0.00000000000E+00  0.00000000000E+00  0.68619220313E+02  0.68619220313E+02  0.00000000000E+00 0.  1.
         21   -1    0    0  502  503 -0.00000000000E+00 -0.00000000000E+00 -0.69263935239E+03  0.69263935239E+03  0.00000000000E+00 0.  1.
          6    1    1    2  501    0  0.80306860806E+02 -0.90915351131E+02 -0.21279018316E+03  0.29929660040E+03  0.17200000000E+03 0.  1.
         -6    1    1    2    0  503 -0.80306860806E+02  0.90915351131E+02 -0.41122994892E+03  0.46196197230E+03  0.17200000000E+03 0.  1.
<mgrwt>
<rscale>  2 0.21047278E+03</rscale>
<asrwt>0</asrwt>
<pdfrwt beam="1">  1       21 0.17154805E-01 0.21047278E+03</pdfrwt>
<pdfrwt beam="2">  1       21 0.17315984E+00 0.21047278E+03</pdfrwt>
<totfact> 0.61302388E+03</totfact>
</mgrwt>
</event>
<event>
 4    1  0.1100959E+000  0.1858590E+03  0.7546771E-02  0.1162250E+00
         21   -1    0    0  503  502  0.00000000000E+00  0.00000000000E+00  0.83924888648E+02  0.83924888648E+02  0.00000000000E+00 0. -1.
         21   -1    0    0  501  503 -0.00000000000E+00 -0.00000000000E+00 -0.46772688710E+03  0.46772688710E+03  0.00000000000E+00 0. -1.
          6    1    1    2  501    0 -0.57848854292E+02 -0.40163156055E+02 -0.28744873987E+03  0.34230154411E+03  0.17200000000E+03 0. -1.
         -6    1    1    2    0  502  0.57848854292E+02  0.40163156055E+02 -0.96353258580E+02  0.20935023164E+03  0.17200000000E+03 0. -1.
<mgrwt>
<rscale>  2 0.18585900E+03</rscale>
<asrwt>0</asrwt>
<pdfrwt beam="1">  1       21 0.20981223E-01 0.18585900E+03</pdfrwt>
<pdfrwt beam="2">  1       21 0.11693172E+00 0.18585900E+03</pdfrwt>
<totfact> 0.11935288E+04</totfact>
</mgrwt>
</event>
<event>
 4    1  0.1100959E+000  0.1755079E+03  0.7546771E-02  0.1172223E+00
         21   -1    0    0  501  502  0.00000000000E+00  0.00000000000E+00  0.27761579726E+03  0.27761579726E+03  0.00000000000E+00 0. -1.
         21   -1    0    0  502  503 -0.00000000000E+00 -0.00000000000E+00 -0.19585881368E+03  0.19585881368E+03  0.00000000000E+00 0. -1.
          6    1    1    2  501    0  0.32682251108E+02  0.12284096277E+02  0.19674657468E+03  0.26365174608E+03  0.17200000000E+03 0. -1.
         -6    1    1    2    0  503 -0.32682251108E+02 -0.12284096277E+02 -0.11498959110E+03  0.20982286486E+03  0.17200000000E+03 0. -1.
<mgrwt>
<rscale>  2 0.17550792E+03</rscale>
<asrwt>0</asrwt>
<pdfrwt beam="1">  1       21 0.69403949E-01 0.17550792E+03</pdfrwt>
<pdfrwt beam="2">  1       21 0.48964704E-01 0.17550792E+03</pdfrwt>
<totfact> 0.76110906E+03</totfact>
</mgrwt>
</event>
<event>
 4    1  0.1100959E+000  0.1768732E+03  0.7546771E-02  0.1170864E+00
         21   -1    0    0  501  502  0.00000000000E+00  0.00000000000E+00  0.34041477094E+03  0.34041477094E+03  0.00000000000E+00 0.  1.
         21   -1    0    0  502  503 -0.00000000000E+00 -0.00000000000E+00 -0.10873159419E+03  0.10873159419E+03  0.00000000000E+00 0.  1.
          6    1    1    2  501    0  0.33481475265E+02 -0.24064969844E+02  0.20419881829E+03  0.27015049389E+03  0.17200000000E+03 0.  1.
         -6    1    1    2    0  503 -0.33481475265E+02  0.24064969844E+02  0.27484358454E+02  0.17899587123E+03  0.17200000000E+03 0.  1.
<mgrwt>
<rscale>  2 0.17687321E+03</rscale>
<asrwt>0</asrwt>
<pdfrwt beam="1">  1       21 0.85103690E-01 0.17687321E+03</pdfrwt>
<pdfrwt beam="2">  1       21 0.27182899E-01 0.17687321E+03</pdfrwt>
<totfact> 0.15573036E+04</totfact>
</mgrwt>
</event>
<event>
 4    1  0.1100959E+000  0.1775945E+03  0.7546771E-02  0.1170152E+00
         21   -1    0    0  503  502  0.00000000000E+00  0.00000000000E+00  0.19664531188E+03  0.19664531188E+03  0.00000000000E+00 0.  1.
         21   -1    0    0  501  503 -0.00000000000E+00 -0.00000000000E+00 -0.16433489667E+03  0.16433489667E+03  0.00000000000E+00 0.  1.
          6    1    1    2  501    0  0.44118781486E+02 -0.30570636958E+01 -0.11811570438E+02  0.17798686950E+03  0.17200000000E+03 0. -1.
         -6    1    1    2    0  502 -0.44118781486E+02  0.30570636958E+01  0.44121985656E+02  0.18299333905E+03  0.17200000000E+03 0. -1.
<mgrwt>
<rscale>  2 0.17759452E+03</rscale>
<asrwt>0</asrwt>
<pdfrwt beam="1">  1       21 0.49161328E-01 0.17759452E+03</pdfrwt>
<pdfrwt beam="2">  1       21 0.41083724E-01 0.17759452E+03</pdfrwt>
<totfact> 0.22720808E+04</totfact>
</mgrwt>
</event>
<event>
 4    1  0.1100959E+000  0.4590061E+03  0.7546771E-02  0.1025070E+00
         21   -1    0    0  501  502  0.00000000000E+00  0.00000000000E+00  0.52597314482E+03  0.52597314482E+03  0.00000000000E+00 0.  1.
         21   -1    0    0  502  503 -0.00000000000E+00 -0.00000000000E+00 -0.51036049990E+03  0.51036049990E+03  0.00000000000E+00 0. -1.
          6    1    1    2  501    0  0.32499702525E+03 -0.27473542355E+03  0.24814443354E+03  0.52178758060E+03  0.17200000000E+03 0.  1.
         -6    1    1    2    0  503 -0.32499702525E+03  0.27473542355E+03 -0.23253178863E+03  0.51454606411E+03  0.17200000000E+03 0. -1.
<mgrwt>
<rscale>  2 0.45900612E+03</rscale>
<asrwt>0</asrwt>
<pdfrwt beam="1">  1       21 0.13149329E+00 0.45900612E+03</pdfrwt>
<pdfrwt beam="2">  1       21 0.12759012E+00 0.45900612E+03</pdfrwt>
<totfact> 0.15379235E+02</totfact>
</mgrwt>
</event>
<event>
 4    1  0.1100959E+000  0.1792831E+03  0.7546771E-02  0.1168499E+00
         21   -1    0    0  503  502  0.00000000000E+00  0.00000000000E+00  0.63320575052E+02  0.63320575052E+02  0.00000000000E+00 0.  1.
         21   -1    0    0  501  503 -0.00000000000E+00 -0.00000000000E+00 -0.52879761284E+03  0.52879761284E+03  0.00000000000E+00 0.  1.
          6    1    1    2  501    0 -0.27753620567E+01 -0.50504805614E+02 -0.29199409206E+03  0.34264119400E+03  0.17200000000E+03 0.  1.
         -6    1    1    2    0  502  0.27753620567E+01  0.50504805614E+02 -0.17348294572E+03  0.24947699389E+03  0.17200000000E+03 0.  1.
<mgrwt>
<rscale>  2 0.17928312E+03</rscale>
<asrwt>0</asrwt>
<pdfrwt beam="1">  1       21 0.15830144E-01 0.17928312E+03</pdfrwt>
<pdfrwt beam="2">  1       21 0.13219940E+00 0.17928312E+03</pdfrwt>
<totfact> 0.14867920E+04</totfact>
</mgrwt>
</event>
<event>
 4    1  0.1100959E+000  0.2594835E+03  0.7546771E-02  0.1107454E+00
         21   -1    0    0  503  502  0.00000000000E+00  0.00000000000E+00  0.35600755749E+03  0.35600755749E+03  0.00000000000E+00 0.  1.
         21   -1    0    0  501  503 -0.00000000000E+00 -0.00000000000E+00 -0.26125840269E+03  0.26125840269E+03  0.00000000000E+00 0.  1.
          6    1    1    2  501    0 -0.12773025986E+03  0.14639891296E+03  0.20954093600E+03  0.33352520873E+03  0.17200000000E+03 0.  1.
         -6    1    1    2    0  502  0.12773025986E+03 -0.14639891296E+03 -0.11479178120E+03  0.28374075145E+03  0.17200000000E+03 0.  1.
<mgrwt>
<rscale>  2 0.25948345E+03</rscale>
<asrwt>0</asrwt>
<pdfrwt beam="1">  1       21 0.89001889E-01 0.25948345E+03</pdfrwt>
<pdfrwt beam="2">  1       21 0.65314601E-01 0.25948345E+03</pdfrwt>
<totfact> 0.22063178E+03</totfact>
</mgrwt>
</event>
<event>
 4    1  0.1100959E+000  0.1751722E+03  0.7546771E-02  0.1172559E+00
         21   -1    0    0  501  502  0.00000000000E+00  0.00000000000E+00  0.83292825114E+02  0.83292825114E+02  0.00000000000E+00 0.  1.
         21   -1    0    0  502  503 -0.00000000000E+00 -0.00000000000E+00 -0.46576828515E+03  0.46576828515E+03  0.00000000000E+00 0.  1.
          6    1    1    2  501    0  0.32365216459E+02 -0.73337382305E+01 -0.65718936142E+02  0.18709427976E+03  0.17200000000E+03 0.  1.
         -6    1    1    2    0  503 -0.32365216459E+02  0.73337382305E+01 -0.31675652389E+03  0.36196683050E+03  0.17200000000E+03 0.  1.
<mgrwt>
<rscale>  2 0.17517218E+03</rscale>
<asrwt>0</asrwt>
<pdfrwt beam="1">  1       21 0.20823207E-01 0.17517218E+03</pdfrwt>
<pdfrwt beam="2">  1       21 0.11644207E+00 0.17517218E+03</pdfrwt>
<totfact> 0.12323958E+04</totfact>
</mgrwt>
</event>
<event>
 4    1  0.1100959E+000  0.2139314E+03  0.7546771E-02  0.1138490E+00
         21   -1    0    0  503  502  0.00000000000E+00  0.00000000000E+00  0.47814644710E+03  0.47814644710E+03  0.00000000000E+00 0.  1.
         21   -1    0    0  501  503 -0.00000000000E+00 -0.00000000000E+00 -0.10416433306E+03  0.10416433306E+03  0.00000000000E+00 0.  1.
          6    1    1    2  501    0  0.30875618861E+02  0.12340714349E+03  0.26990572991E+03  0.34440634422E+03  0.17200000000E+03 0.  1.
         -6    1    1    2    0  502 -0.30875618861E+02 -0.12340714349E+03  0.10407638414E+03  0.23790443594E+03  0.17200000000E+03 0.  1.
<mgrwt>
<rscale>  2 0.21393136E+03</rscale>
<asrwt>0</asrwt>
<pdfrwt beam="1">  1       21 0.11953661E+00 0.21393136E+03</pdfrwt>
<pdfrwt beam="2">  1       21 0.26041085E-01 0.21393136E+03</pdfrwt>
<totfact> 0.73526301E+03</totfact>
</mgrwt>
</event>
<event>
 4    1  0.1100959E+000  0.2278720E+03  0.7546771E-02  0.1128147E+00
         21   -1    0    0  501  502  0.00000000000E+00  0.00000000000E+00  0.57032940105E+03  0.57032940105E+03  0.00000000000E+00 0. -1.
         21   -1    0    0  502  503 -0.00000000000E+00 -0.00000000000E+00 -0.10281776535E+03  0.10281776535E+03  0.00000000000E+00 0. -1.
          6    1    1    2  501    0 -0.13996642947E+03 -0.52450385705E+02  0.11986595763E+03  0.25747522626E+03  0.17200000000E+03 0. -1.
         -6    1    1    2    0  503  0.13996642947E+03  0.52450385705E+02  0.34764567807E+03  0.41567194014E+03  0.17200000000E+03 0. -1.
<mgrwt>
<rscale>  2 0.22787199E+03</rscale>
<asrwt>0</asrwt>
<pdfrwt beam="1">  1       21 0.14258234E+00 0.22787199E+03</pdfrwt>
<pdfrwt beam="2">  1       21 0.25704443E-01 0.22787199E+03</pdfrwt>
<totfact> 0.47666497E+03</totfact>
</mgrwt>
</event>
<event>
 4    1  0.1100959E+000  0.2124409E+03  0.7546771E-02  0.1139647E+00
         21   -1    0    0  501  502  0.00000000000E+00  0.00000000000E+00  0.17434717943E+03  0.17434717943E+03  0.00000000000E+00 0. -1.
         21   -1    0    0  502  503 -0.00000000000E+00 -0.00000000000E+00 -0.41208531538E+03  0.41208531538E+03  0.00000000000E+00 0.  1.
          6    1    1    2  501    0 -0.52933351361E+02 -0.11289468343E+03  0.59928934853E+02  0.22073202411E+03  0.17200000000E+03 0. -1.
         -6    1    1    2    0  503  0.52933351361E+02  0.11289468343E+03 -0.29766707080E+03  0.36570047070E+03  0.17200000000E+03 0.  1.
<mgrwt>
<rscale>  2 0.21244093E+03</rscale>
<asrwt>0</asrwt>
<pdfrwt beam="1">  1       21 0.43586795E-01 0.21244093E+03</pdfrwt>
<pdfrwt beam="2">  1       21 0.10302133E+00 0.21244093E+03</pdfrwt>
<totfact> 0.38068803E+03</totfact>
</mgrwt>
</event>
<event>
 4    1  0.1100959E+000  0.2191179E+03  0.7546771E-02  0.1134542E+00
         21   -1    0    0  501  502  0.00000000000E+00  0.00000000000E+00  0.16451767022E+03  0.16451767022E+03  0.00000000000E+00 0. -1.
         21   -1    0    0  502  503 -0.00000000000E+00 -0.00000000000E+00 -0.34238860880E+03  0.34238860880E+03  0.00000000000E+00 0.  1.
          6    1    1    2  501    0 -0.15447888709E+02 -0.13487031322E+03  0.84508161519E+01  0.21928076739E+03  0.17200000000E+03 0. -1.
         -6    1    1    2    0  503  0.15447888709E+02  0.13487031322E+03 -0.18632175473E+03  0.28762551163E+03  0.17200000000E+03 0.  1.
<mgrwt>
<rscale>  2 0.21911786E+03</rscale>
<asrwt>0</asrwt>
<pdfrwt beam="1">  1       21 0.41129418E-01 0.21911786E+03</pdfrwt>
<pdfrwt beam="2">  1       21 0.85597151E-01 0.21911786E+03</pdfrwt>
<totfact> 0.65861049E+03</totfact>
</mgrwt>
</event>
<event>
 4    1  0.1100959E+000  0.1759914E+03  0.7546771E-02  0.1171740E+00
         21   -1    0    0  501  502  0.00000000000E+00  0.00000000000E+00  0.47856684399E+02  0.47856684399E+02  0.00000000000E+00 0. -1.
         21   -1    0    0  502  503 -0.00000000000E+00 -0.00000000000E+00 -0.69176113163E+03  0.69176113163E+03  0.00000000000E+00 0. -1.
          6    1    1    2  501    0  0.15657470414E+02 -0.33820425006E+02 -0.22809579663E+03  0.28809836856E+03  0.17200000000E+03 0.  1.
         -6    1    1    2    0  503 -0.15657470414E+02  0.33820425006E+02 -0.41580865060E+03  0.45151944747E+03  0.17200000000E+03 0.  1.
<mgrwt>
<rscale>  2 0.17599141E+03</rscale>
<asrwt>0</asrwt>
<pdfrwt beam="1">  1       21 0.11964171E-01 0.17599141E+03</pdfrwt>
<pdfrwt beam="2">  1       21 0.17294028E+00 0.17599141E+03</pdfrwt>
<totfact> 0.12165497E+04</totfact>
</mgrwt>
</event>
<event>
 4    1  0.1100959E+000  0.2169773E+03  0.7546771E-02  0.1136157E+00
         21   -1    0    0  501  502  0.00000000000E+00  0.00000000000E+00  0.28828802932E+03  0.28828802932E+03  0.00000000000E+00 0. -1.
         21   -1    0    0  502  503 -0.00000000000E+00 -0.00000000000E+00 -0.40204974770E+03  0.40204974770E+03  0.00000000000E+00 0. -1.
          6    1    1    2  501    0 -0.12782153576E+03  0.34012074288E+02  0.20910450882E+03  0.30133679133E+03  0.17200000000E+03 0. -1.
         -6    1    1    2    0  503  0.12782153576E+03 -0.34012074288E+02 -0.32286622720E+03  0.38900098569E+03  0.17200000000E+03 0. -1.
<mgrwt>
<rscale>  2 0.21697734E+03</rscale>
<asrwt>0</asrwt>
<pdfrwt beam="1">  1       21 0.72072008E-01 0.21697734E+03</pdfrwt>
<pdfrwt beam="2">  1       21 0.10051244E+00 0.21697734E+03</pdfrwt>
<totfact> 0.13774981E+03</totfact>
</mgrwt>
</event>
<event>
 4    1  0.1100959E+000  0.2119230E+03  0.7546771E-02  0.1140052E+00
         21   -1    0    0  503  502  0.00000000000E+00  0.00000000000E+00  0.91071727436E+03  0.91071727436E+03  0.00000000000E+00 0.  1.
         21   -1    0    0  501  503 -0.00000000000E+00 -0.00000000000E+00 -0.51325234894E+02  0.51325234894E+02  0.00000000000E+00 0.  1.
          6    1    1    2  501    0  0.24736592265E+02  0.12130730664E+03  0.33448207581E+03  0.39596669138E+03  0.17200000000E+03 0.  1.
         -6    1    1    2    0  502 -0.24736592265E+02 -0.12130730664E+03  0.52490996365E+03  0.56607581787E+03  0.17200000000E+03 0.  1.
<mgrwt>
<rscale>  2 0.21192301E+03</rscale>
<asrwt>0</asrwt>
<pdfrwt beam="1">  1       21 0.22767927E+00 0.21192301E+03</pdfrwt>
<pdfrwt beam="2">  1       21 0.12831312E-01 0.21192301E+03</pdfrwt>
<totfact> 0.46139063E+03</totfact>
</mgrwt>
</event>
<event>
 4    1  0.1100959E+000  0.1850839E+03  0.7546771E-02  0.1162972E+00
         21   -1    0    0  503  502  0.00000000000E+00  0.00000000000E+00  0.71712514060E+03  0.71712514060E+03  0.00000000000E+00 0.  1.
         21   -1    0    0  501  503 -0.00000000000E+00 -0.00000000000E+00 -0.20375212703E+03  0.20375212703E+03  0.00000000000E+00 0.  1.
          6    1    1    2  501    0  0.52034735058E+02  0.44322006780E+02 -0.14617898500E+03  0.23584814944E+03  0.17200000000E+03 0.  1.
         -6    1    1    2    0  502 -0.52034735058E+02 -0.44322006780E+02  0.65955199857E+03  0.68502911818E+03  0.17200000000E+03 0.  1.
<mgrwt>
<rscale>  2 0.18508391E+03</rscale>
<asrwt>0</asrwt>
<pdfrwt beam="1">  1       21 0.17928128E+00 0.18508391E+03</pdfrwt>
<pdfrwt beam="2">  1       21 0.50938033E-01 0.18508391E+03</pdfrwt>
<totfact> 0.68049961E+02</totfact>
</mgrwt>
</event>
<event>
 4    1  0.1100959E+000  0.3331359E+03  0.7546771E-02  0.1069758E+00
         21   -1    0    0  503  502  0.00000000000E+00  0.00000000000E+00  0.15235982276E+03  0.15235982276E+03  0.00000000000E+00 0. -1.
         21   -1    0    0  501  503 -0.00000000000E+00 -0.00000000000E+00 -0.73601600724E+03  0.73601600724E+03  0.00000000000E+00 0.  1.
          6    1    1    2  501    0 -0.13942500844E+03 -0.24891006314E+03 -0.33699950612E+03  0.47386519142E+03  0.17200000000E+03 0. -1.
         -6    1    1    2    0  502  0.13942500844E+03  0.24891006314E+03 -0.24665667837E+03  0.41451063858E+03  0.17200000000E+03 0.  1.
<mgrwt>
<rscale>  2 0.33313594E+03</rscale>
<asrwt>0</asrwt>
<pdfrwt beam="1">  1       21 0.38089956E-01 0.33313594E+03</pdfrwt>
<pdfrwt beam="2">  1       21 0.18400400E+00 0.33313594E+03</pdfrwt>
<totfact> 0.10120630E+03</totfact>
</mgrwt>
</event>
<event>
 4    1  0.1100959E+000  0.1839063E+03  0.7546771E-02  0.1164075E+00
         21   -1    0    0  501  502  0.00000000000E+00  0.00000000000E+00  0.40676698344E+03  0.40676698344E+03  0.00000000000E+00 0.  1.
         21   -1    0    0  502  503 -0.00000000000E+00 -0.00000000000E+00 -0.89991820215E+02  0.89991820215E+02  0.00000000000E+00 0.  1.
          6    1    1    2  501    0 -0.58998534048E+02 -0.27508314867E+02  0.22688730842E+03  0.29206058469E+03  0.17200000000E+03 0.  1.
         -6    1    1    2    0  503  0.58998534048E+02  0.27508314867E+02  0.89887854803E+02  0.20469821897E+03  0.17200000000E+03 0.  1.
<mgrwt>
<rscale>  2 0.18390632E+03</rscale>
<asrwt>0</asrwt>
<pdfrwt beam="1">  1       21 0.10169174E+00 0.18390632E+03</pdfrwt>
<pdfrwt beam="2">  1       21 0.22497956E-01 0.18390632E+03</pdfrwt>
<totfact> 0.14680926E+04</totfact>
</mgrwt>
</event>
<event>
 4    1  0.1100959E+000  0.3211418E+03  0.7546771E-02  0.1075125E+00
         21   -1    0    0  503  502  0.00000000000E+00  0.00000000000E+00  0.78381394119E+02  0.78381394119E+02  0.00000000000E+00 0.  1.
         21   -1    0    0  501  503 -0.00000000000E+00 -0.00000000000E+00 -0.15961456421E+04  0.15961456421E+04  0.00000000000E+00 0. -1.
          6    1    1    2  501    0 -0.22716143351E+03  0.14814096908E+03 -0.40797328720E+03  0.51920541856E+03  0.17200000000E+03 0.  1.
         -6    1    1    2    0  502  0.22716143351E+03 -0.14814096908E+03 -0.11097909608E+04  0.11553216177E+04  0.17200000000E+03 0. -1.
<mgrwt>
<rscale>  2 0.32114181E+03</rscale>
<asrwt>0</asrwt>
<pdfrwt beam="1">  1       21 0.19595349E-01 0.32114181E+03</pdfrwt>
<pdfrwt beam="2">  1       21 0.39903641E+00 0.32114181E+03</pdfrwt>
<totfact> 0.17895048E+02</totfact>
</mgrwt>
</event>
<event>
 4    1  0.1100959E+000  0.2143393E+03  0.7546771E-02  0.1138175E+00
         21   -1    0    0  503  502  0.00000000000E+00  0.00000000000E+00  0.68881183930E+02  0.68881183930E+02  0.00000000000E+00 0.  1.
         21   -1    0    0  501  503 -0.00000000000E+00 -0.00000000000E+00 -0.15115901749E+04  0.15115901749E+04  0.00000000000E+00 0.  1.
          6    1    1    2  501    0  0.11648648996E+03  0.52803725816E+02 -0.13120608277E+04  0.13294528767E+04  0.17200000000E+03 0.  1.
         -6    1    1    2    0  502 -0.11648648996E+03 -0.52803725816E+02 -0.13064816329E+03  0.25101848214E+03  0.17200000000E+03 0.  1.
<mgrwt>
<rscale>  2 0.21433930E+03</rscale>
<asrwt>0</asrwt>
<pdfrwt beam="1">  1       21 0.17220295E-01 0.21433930E+03</pdfrwt>
<pdfrwt beam="2">  1       21 0.37789757E+00 0.21433930E+03</pdfrwt>
<totfact> 0.35079835E+02</totfact>
</mgrwt>
</event>
<event>
 4    1  0.1100959E+000  0.1914662E+03  0.7546771E-02  0.1157146E+00
         21   -1    0    0  503  502  0.00000000000E+00  0.00000000000E+00  0.34133026738E+03  0.34133026738E+03  0.00000000000E+00 0.  1.
         21   -1    0    0  501  503 -0.00000000000E+00 -0.00000000000E+00 -0.80485263301E+03  0.80485263301E+03  0.00000000000E+00 0.  1.
          6    1    1    2  501    0 -0.83105483195E+02 -0.12991926024E+02 -0.76524678346E+03  0.78883582010E+03  0.17200000000E+03 0.  1.
         -6    1    1    2    0  502  0.83105483195E+02  0.12991926024E+02  0.30172441783E+03  0.35734708029E+03  0.17200000000E+03 0.  1.
<mgrwt>
<rscale>  2 0.19146621E+03</rscale>
<asrwt>0</asrwt>
<pdfrwt beam="1">  1       21 0.85332568E-01 0.19146621E+03</pdfrwt>
<pdfrwt beam="2">  1       21 0.20121316E+00 0.19146621E+03</pdfrwt>
<totfact> 0.15689171E+02</totfact>
</mgrwt>
</event>
<event>
 4    1  0.1100959E+000  0.1849154E+03  0.7546771E-02  0.1163129E+00
         21   -1    0    0  503  502  0.00000000000E+00  0.00000000000E+00  0.22323760578E+03  0.22323760578E+03  0.00000000000E+00 0.  1.
         21   -1    0    0  501  503 -0.00000000000E+00 -0.00000000000E+00 -0.17928439907E+03  0.17928439907E+03  0.00000000000E+00 0. -1.
          6    1    1    2  501    0  0.13559273558E+02  0.66526949828E+02 -0.54832741944E+02  0.19287384100E+03  0.17200000000E+03 0.  1.
         -6    1    1    2    0  502 -0.13559273558E+02 -0.66526949828E+02  0.98785948654E+02  0.20964816385E+03  0.17200000000E+03 0.  1.
<mgrwt>
<rscale>  2 0.18491536E+03</rscale>
<asrwt>0</asrwt>
<pdfrwt beam="1">  1       21 0.55809401E-01 0.18491536E+03</pdfrwt>
<pdfrwt beam="2">  1       21 0.44821100E-01 0.18491536E+03</pdfrwt>
<totfact> 0.14519310E+04</totfact>
</mgrwt>
</event>
<event>
 4    1  0.1100959E+000  0.2548813E+03  0.7546771E-02  0.1110258E+00
         21   -1    0    0  501  502  0.00000000000E+00  0.00000000000E+00  0.42678925640E+03  0.42678925640E+03  0.00000000000E+00 0.  1.
         21   -1    0    0  502  503 -0.00000000000E+00 -0.00000000000E+00 -0.20462832200E+03  0.20462832200E+03  0.00000000000E+00 0.  1.
          6    1    1    2  501    0 -0.18628835172E+03 -0.26021627982E+02  0.27085861371E+03  0.37192588473E+03  0.17200000000E+03 0.  1.
         -6    1    1    2    0  503  0.18628835172E+03  0.26021627982E+02 -0.48697679314E+02  0.25949169367E+03  0.17200000000E+03 0.  1.
<mgrwt>
<rscale>  2 0.25488130E+03</rscale>
<asrwt>0</asrwt>
<pdfrwt beam="1">  1       21 0.10669731E+00 0.25488130E+03</pdfrwt>
<pdfrwt beam="2">  1       21 0.51157081E-01 0.25488130E+03</pdfrwt>
<totfact> 0.24313366E+03</totfact>
</mgrwt>
</event>
<event>
 4    1  0.1100959E+000  0.2341025E+03  0.7546771E-02  0.1123785E+00
         21   -1    0    0  503  502  0.00000000000E+00  0.00000000000E+00  0.50963027828E+03  0.50963027828E+03  0.00000000000E+00 0. -1.
         21   -1    0    0  501  503 -0.00000000000E+00 -0.00000000000E+00 -0.13183799118E+03  0.13183799118E+03  0.00000000000E+00 0. -1.
          6    1    1    2  501    0  0.15688421782E+03  0.24643826715E+02  0.51194456948E+02  0.23963482305E+03  0.17200000000E+03 0. -1.
         -6    1    1    2    0  502 -0.15688421782E+03 -0.24643826715E+02  0.32659783015E+03  0.40183344641E+03  0.17200000000E+03 0. -1.
<mgrwt>
<rscale>  2 0.23410249E+03</rscale>
<asrwt>0</asrwt>
<pdfrwt beam="1">  1       21 0.12740756E+00 0.23410249E+03</pdfrwt>
<pdfrwt beam="2">  1       21 0.32959499E-01 0.23410249E+03</pdfrwt>
<totfact> 0.39000240E+03</totfact>
</mgrwt>
</event>
<event>
 4    1  0.1100959E+000  0.3040091E+03  0.7546771E-02  0.1083253E+00
         21   -1    0    0  501  502  0.00000000000E+00  0.00000000000E+00  0.25026020375E+03  0.25026020375E+03  0.00000000000E+00 0. -1.
         21   -1    0    0  502  503 -0.00000000000E+00 -0.00000000000E+00 -0.47180814497E+03  0.47180814497E+03  0.00000000000E+00 0.  1.
          6    1    1    2  501    0  0.24853728365E+03  0.32661280962E+02  0.57509320164E+02  0.30940081212E+03  0.17200000000E+03 0. -1.
         -6    1    1    2    0  503 -0.24853728365E+03 -0.32661280962E+02 -0.27905726138E+03  0.41266753661E+03  0.17200000000E+03 0.  1.
<mgrwt>
<rscale>  2 0.30400911E+03</rscale>
<asrwt>0</asrwt>
<pdfrwt beam="1">  1       21 0.62565052E-01 0.30400911E+03</pdfrwt>
<pdfrwt beam="2">  1       21 0.11795204E+00 0.30400911E+03</pdfrwt>
<totfact> 0.11948209E+03</totfact>
</mgrwt>
</event>
<event>
 4    1  0.1100959E+000  0.2384500E+03  0.7546771E-02  0.1120830E+00
         21   -1    0    0  503  502  0.00000000000E+00  0.00000000000E+00  0.15950818674E+03  0.15950818674E+03  0.00000000000E+00 0.  1.
         21   -1    0    0  501  503 -0.00000000000E+00 -0.00000000000E+00 -0.45896443900E+03  0.45896443900E+03  0.00000000000E+00 0. -1.
          6    1    1    2  501    0 -0.32324399622E+02  0.16195540904E+03 -0.29586860862E+03  0.37999559852E+03  0.17200000000E+03 0. -1.
         -6    1    1    2    0  502  0.32324399622E+02 -0.16195540904E+03 -0.35876436369E+01  0.23847702723E+03  0.17200000000E+03 0.  1.
<mgrwt>
<rscale>  2 0.23845004E+03</rscale>
<asrwt>0</asrwt>
<pdfrwt beam="1">  1       21 0.39877047E-01 0.23845004E+03</pdfrwt>
<pdfrwt beam="2">  1       21 0.11474111E+00 0.23845004E+03</pdfrwt>
<totfact> 0.34467802E+03</totfact>
</mgrwt>
</event>
<event>
 4    1  0.1100959E+000  0.2222524E+03  0.7546771E-02  0.1132215E+00
         21   -1    0    0  501  502  0.00000000000E+00  0.00000000000E+00  0.51833876168E+03  0.51833876168E+03  0.00000000000E+00 0. -1.
         21   -1    0    0  502  503 -0.00000000000E+00 -0.00000000000E+00 -0.22524913422E+03  0.22524913422E+03  0.00000000000E+00 0.  1.
          6    1    1    2  501    0  0.73210434138E+02  0.12021800851E+03  0.42894334418E+03  0.48310302189E+03  0.17200000000E+03 0. -1.
         -6    1    1    2    0  503 -0.73210434138E+02 -0.12021800851E+03 -0.13585371673E+03  0.26048487401E+03  0.17200000000E+03 0.  1.
<mgrwt>
<rscale>  2 0.22225242E+03</rscale>
<asrwt>0</asrwt>
<pdfrwt beam="1">  1       21 0.12958469E+00 0.22225242E+03</pdfrwt>
<pdfrwt beam="2">  1       21 0.56312284E-01 0.22225242E+03</pdfrwt>
<totfact> 0.12571833E+03</totfact>
</mgrwt>
</event>
<event>
 4    1  0.1100959E+000  0.1982805E+03  0.7546771E-02  0.1151198E+00
         21   -1    0    0  501  502  0.00000000000E+00  0.00000000000E+00  0.13819542809E+04  0.13819542809E+04  0.00000000000E+00 0.  1.
         21   -1    0    0  502  503 -0.00000000000E+00 -0.00000000000E+00 -0.41872172767E+02  0.41872172767E+02  0.00000000000E+00 0.  1.
          6    1    1    2  501    0 -0.96999204393E+02 -0.17953039495E+02  0.10731223130E+04  0.10912866974E+04  0.17200000000E+03 0.  1.
         -6    1    1    2    0  503  0.96999204393E+02  0.17953039495E+02  0.26695979517E+03  0.33253975629E+03  0.17200000000E+03 0.  1.
<mgrwt>
<rscale>  2 0.19828050E+03</rscale>
<asrwt>0</asrwt>
<pdfrwt beam="1">  1       21 0.34548842E+00 0.19828050E+03</pdfrwt>
<pdfrwt beam="2">  1       21 0.10468048E-01 0.19828050E+03</pdfrwt>
<totfact> 0.13803575E+03</totfact>
</mgrwt>
</event>
<event>
 4    1  0.1100959E+000  0.1780090E+03  0.7546771E-02  0.1169744E+00
         21   -1    0    0  501  502  0.00000000000E+00  0.00000000000E+00  0.17477945398E+03  0.17477945398E+03  0.00000000000E+00 0.  1.
         21   -1    0    0  502  503 -0.00000000000E+00 -0.00000000000E+00 -0.18141559325E+03  0.18141559325E+03  0.00000000000E+00 0. -1.
          6    1    1    2  501    0  0.42714515679E+02 -0.16693528935E+02 -0.78481575370E+01  0.17818192202E+03  0.17200000000E+03 0.  1.
         -6    1    1    2    0  503 -0.42714515679E+02  0.16693528935E+02  0.12120182645E+01  0.17801312521E+03  0.17200000000E+03 0.  1.
<mgrwt>
<rscale>  2 0.17800900E+03</rscale>
<asrwt>0</asrwt>
<pdfrwt beam="1">  1       21 0.43694864E-01 0.17800900E+03</pdfrwt>
<pdfrwt beam="2">  1       21 0.45353898E-01 0.17800900E+03</pdfrwt>
<totfact> 0.23668565E+04</totfact>
</mgrwt>
</event>
<event>
 4    1  0.1100959E+000  0.1809574E+03  0.7546771E-02  0.1166880E+00
         21   -1    0    0  501  502  0.00000000000E+00  0.00000000000E+00  0.13174099885E+03  0.13174099885E+03  0.00000000000E+00 0.  1.
         21   -1    0    0  502  503 -0.00000000000E+00 -0.00000000000E+00 -0.26724200862E+03  0.26724200862E+03  0.00000000000E+00 0.  1.
          6    1    1    2  501    0 -0.55665042288E+02 -0.79363791512E+01 -0.15005630510E+02  0.18157850091E+03  0.17200000000E+03 0.  1.
         -6    1    1    2    0  503  0.55665042288E+02  0.79363791512E+01 -0.12049537927E+03  0.21740450656E+03  0.17200000000E+03 0.  1.
<mgrwt>
<rscale>  2 0.18095741E+03</rscale>
<asrwt>0</asrwt>
<pdfrwt beam="1">  1       21 0.32935250E-01 0.18095741E+03</pdfrwt>
<pdfrwt beam="2">  1       21 0.66810501E-01 0.18095741E+03</pdfrwt>
<totfact> 0.18348017E+04</totfact>
</mgrwt>
</event>
<event>
 4    1  0.1100959E+000  0.1745900E+03  0.7546771E-02  0.1173144E+00
         21   -1    0    0  503  502  0.00000000000E+00  0.00000000000E+00  0.13071562788E+03  0.13071562788E+03  0.00000000000E+00 0. -1.
         21   -1    0    0  501  503 -0.00000000000E+00 -0.00000000000E+00 -0.27555280586E+03  0.27555280586E+03  0.00000000000E+00 0. -1.
          6    1    1    2  501    0  0.96642443700E+01 -0.28359447097E+02 -0.15206568433E+03  0.23152889282E+03  0.17200000000E+03 0. -1.
         -6    1    1    2    0  502 -0.96642443700E+01  0.28359447097E+02  0.72285063535E+01  0.17473954093E+03  0.17200000000E+03 0. -1.
<mgrwt>
<rscale>  2 0.17458996E+03</rscale>
<asrwt>0</asrwt>
<pdfrwt beam="1">  1       21 0.32678907E-01 0.17458996E+03</pdfrwt>
<pdfrwt beam="2">  1       21 0.68888201E-01 0.17458996E+03</pdfrwt>
<totfact> 0.17495363E+04</totfact>
</mgrwt>
</event>
<event>
 4    1  0.1100959E+000  0.2659031E+03  0.7546771E-02  0.1103648E+00
         21   -1    0    0  503  502  0.00000000000E+00  0.00000000000E+00  0.88004386773E+02  0.88004386773E+02  0.00000000000E+00 0.  1.
         21   -1    0    0  501  503 -0.00000000000E+00 -0.00000000000E+00 -0.11180350659E+04  0.11180350659E+04  0.00000000000E+00 0. -1.
          6    1    1    2  501    0 -0.75248610844E+02 -0.18830324018E+03 -0.83490023018E+03  0.87622078157E+03  0.17200000000E+03 0. -1.
         -6    1    1    2    0  502  0.75248610844E+02  0.18830324018E+03 -0.19513044893E+03  0.32981867108E+03  0.17200000000E+03 0.  1.
<mgrwt>
<rscale>  2 0.26590311E+03</rscale>
<asrwt>0</asrwt>
<pdfrwt beam="1">  1       21 0.22001097E-01 0.26590311E+03</pdfrwt>
<pdfrwt beam="2">  1       21 0.27950876E+00 0.26590311E+03</pdfrwt>
<totfact> 0.79576981E+02</totfact>
</mgrwt>
</event>
<event>
 4    1  0.1100959E+000  0.2267721E+03  0.7546771E-02  0.1128933E+00
         21   -1    0    0  503  502  0.00000000000E+00  0.00000000000E+00  0.71197777772E+02  0.71197777772E+02  0.00000000000E+00 0. -1.
         21   -1    0    0  501  503 -0.00000000000E+00 -0.00000000000E+00 -0.81423822819E+03  0.81423822819E+03  0.00000000000E+00 0.  1.
          6    1    1    2  501    0  0.52166110279E+02  0.13827604824E+03 -0.52029145479E+03  0.56756388760E+03  0.17200000000E+03 0.  1.
         -6    1    1    2    0  502 -0.52166110279E+02 -0.13827604824E+03 -0.22274899564E+03  0.31787211837E+03  0.17200000000E+03 0. -1.
<mgrwt>
<rscale>  2 0.22677206E+03</rscale>
<asrwt>0</asrwt>
<pdfrwt beam="1">  1       21 0.17799444E-01 0.22677206E+03</pdfrwt>
<pdfrwt beam="2">  1       21 0.20355956E+00 0.22677206E+03</pdfrwt>
<totfact> 0.35393016E+03</totfact>
</mgrwt>
</event>
<event>
 4    1  0.1100959E+000  0.2072657E+03  0.7546771E-02  0.1143750E+00
         21   -1    0    0  501  502  0.00000000000E+00  0.00000000000E+00  0.42891174729E+03  0.42891174729E+03  0.00000000000E+00 0. -1.
         21   -1    0    0  502  503 -0.00000000000E+00 -0.00000000000E+00 -0.10036442213E+03  0.10036442213E+03  0.00000000000E+00 0. -1.
          6    1    1    2  501    0  0.64032617900E+02 -0.96306148691E+02  0.15227932134E+03  0.25719261681E+03  0.17200000000E+03 0. -1.
         -6    1    1    2    0  503 -0.64032617900E+02  0.96306148691E+02  0.17626800382E+03  0.27208355261E+03  0.17200000000E+03 0. -1.
<mgrwt>
<rscale>  2 0.20726565E+03</rscale>
<asrwt>0</asrwt>
<pdfrwt beam="1">  1       21 0.10722793E+00 0.20726565E+03</pdfrwt>
<pdfrwt beam="2">  1       21 0.25091107E-01 0.20726565E+03</pdfrwt>
<totfact> 0.10341980E+04</totfact>
</mgrwt>
</event>
<event>
 4    1  0.1100959E+000  0.2063306E+03  0.7546771E-02  0.1144505E+00
         21   -1    0    0  501  502  0.00000000000E+00  0.00000000000E+00  0.16685007867E+03  0.16685007867E+03  0.00000000000E+00 0.  1.
         21   -1    0    0  502  503 -0.00000000000E+00 -0.00000000000E+00 -0.25615456995E+03  0.25615456995E+03  0.00000000000E+00 0.  1.
          6    1    1    2  501    0  0.79319728997E+02  0.81833472450E+02 -0.57875997819E+02  0.21429411505E+03  0.17200000000E+03 0.  1.
         -6    1    1    2    0  503 -0.79319728997E+02 -0.81833472450E+02 -0.31428493468E+02  0.20871053357E+03  0.17200000000E+03 0.  1.
<mgrwt>
<rscale>  2 0.20633065E+03</rscale>
<asrwt>0</asrwt>
<pdfrwt beam="1">  1       21 0.41712520E-01 0.20633065E+03</pdfrwt>
<pdfrwt beam="2">  1       21 0.64038642E-01 0.20633065E+03</pdfrwt>
<totfact> 0.12344140E+04</totfact>
</mgrwt>
</event>
<event>
 4    1  0.1100959E+000  0.1839192E+03  0.7546771E-02  0.1164063E+00
         21   -1    0    0  503  502  0.00000000000E+00  0.00000000000E+00  0.26679755401E+03  0.26679755401E+03  0.00000000000E+00 0. -1.
         21   -1    0    0  501  503 -0.00000000000E+00 -0.00000000000E+00 -0.12996675611E+03  0.12996675611E+03  0.00000000000E+00 0. -1.
          6    1    1    2  501    0 -0.39551053246E+02  0.51749131596E+02  0.99449226010E+02  0.20908468855E+03  0.17200000000E+03 0. -1.
         -6    1    1    2    0  502  0.39551053246E+02 -0.51749131596E+02  0.37381571897E+02  0.18767962157E+03  0.17200000000E+03 0. -1.
<mgrwt>
<rscale>  2 0.18391916E+03</rscale>
<asrwt>0</asrwt>
<pdfrwt beam="1">  1       21 0.66699388E-01 0.18391916E+03</pdfrwt>
<pdfrwt beam="2">  1       21 0.32491689E-01 0.18391916E+03</pdfrwt>
<totfact> 0.18877827E+04</totfact>
</mgrwt>
</event>
<event>
 4    1  0.1100959E+000  0.1839847E+03  0.7546771E-02  0.1164001E+00
         21   -1    0    0  501  502  0.00000000000E+00  0.00000000000E+00  0.32855912550E+03  0.32855912550E+03  0.00000000000E+00 0.  1.
         21   -1    0    0  502  503 -0.00000000000E+00 -0.00000000000E+00 -0.15492926223E+03  0.15492926223E+03  0.00000000000E+00 0. -1.
          6    1    1    2  501    0  0.62515281366E+02  0.18926103368E+02  0.22673621634E+03  0.29199258483E+03  0.17200000000E+03 0.  1.
         -6    1    1    2    0  503 -0.62515281366E+02 -0.18926103368E+02 -0.53106353070E+02  0.19149580290E+03  0.17200000000E+03 0. -1.
<mgrwt>
<rscale>  2 0.18398467E+03</rscale>
<asrwt>0</asrwt>
<pdfrwt beam="1">  1       21 0.82139780E-01 0.18398467E+03</pdfrwt>
<pdfrwt beam="2">  1       21 0.38732316E-01 0.18398467E+03</pdfrwt>
<totfact> 0.83788812E+03</totfact>
</mgrwt>
</event>
<event>
 4    1  0.1100959E+000  0.2095864E+03  0.7546771E-02  0.1141894E+00
         21   -1    0    0  503  502  0.00000000000E+00  0.00000000000E+00  0.29614029031E+03  0.29614029031E+03  0.00000000000E+00 0.  1.
         21   -1    0    0  501  503 -0.00000000000E+00 -0.00000000000E+00 -0.44961687617E+03  0.44961687617E+03  0.00000000000E+00 0. -1.
          6    1    1    2  501    0 -0.11719234098E+03 -0.24666229020E+02 -0.38197467534E+03  0.43569613292E+03  0.17200000000E+03 0. -1.
         -6    1    1    2    0  502  0.11719234098E+03  0.24666229020E+02  0.22849808947E+03  0.31006103356E+03  0.17200000000E+03 0.  1.
<mgrwt>
<rscale>  2 0.20958642E+03</rscale>
<asrwt>0</asrwt>
<pdfrwt beam="1">  1       21 0.74035073E-01 0.20958642E+03</pdfrwt>
<pdfrwt beam="2">  1       21 0.11240422E+00 0.20958642E+03</pdfrwt>
<totfact> 0.99735471E+02</totfact>
</mgrwt>
</event>
<event>
 4    1  0.1100959E+000  0.2082609E+03  0.7546771E-02  0.1142951E+00
         21   -1    0    0  501  502  0.00000000000E+00  0.00000000000E+00  0.10627922892E+04  0.10627922892E+04  0.00000000000E+00 0. -1.
         21   -1    0    0  502  503 -0.00000000000E+00 -0.00000000000E+00 -0.42463124106E+02  0.42463124106E+02  0.00000000000E+00 0.  1.
          6    1    1    2  501    0  0.11400042253E+03 -0.28151125408E+02  0.61920207207E+03  0.65328691113E+03  0.17200000000E+03 0.  1.
         -6    1    1    2    0  503 -0.11400042253E+03  0.28151125408E+02  0.40112709299E+03  0.45196850214E+03  0.17200000000E+03 0. -1.
<mgrwt>
<rscale>  2 0.20826085E+03</rscale>
<asrwt>0</asrwt>
<pdfrwt beam="1">  1       21 0.26569798E+00 0.20826085E+03</pdfrwt>
<pdfrwt beam="2">  1       21 0.10615785E-01 0.20826085E+03</pdfrwt>
<totfact> 0.38650293E+03</totfact>
</mgrwt>
</event>
<event>
 4    1  0.1100959E+000  0.2755865E+03  0.7546771E-02  0.1098124E+00
         21   -1    0    0  501  502  0.00000000000E+00  0.00000000000E+00  0.52381635784E+03  0.52381635784E+03  0.00000000000E+00 0. -1.
         21   -1    0    0  502  503 -0.00000000000E+00 -0.00000000000E+00 -0.34194361539E+03  0.34194361539E+03  0.00000000000E+00 0.  1.
          6    1    1    2  501    0 -0.86121624144E+02 -0.19734997344E+03  0.41946455395E+03  0.50189486766E+03  0.17200000000E+03 0. -1.
         -6    1    1    2    0  503  0.86121624144E+02  0.19734997344E+03 -0.23759181150E+03  0.36386510558E+03  0.17200000000E+03 0.  1.
<mgrwt>
<rscale>  2 0.27558655E+03</rscale>
<asrwt>0</asrwt>
<pdfrwt beam="1">  1       21 0.13095409E+00 0.27558655E+03</pdfrwt>
<pdfrwt beam="2">  1       21 0.85485904E-01 0.27558655E+03</pdfrwt>
<totfact> 0.46374362E+02</totfact>
</mgrwt>
</event>
<event>
 4    1  0.1100959E+000  0.1902002E+03  0.7546771E-02  0.1158281E+00
         21   -1    0    0  501  502  0.00000000000E+00  0.00000000000E+00  0.58154107306E+03  0.58154107306E+03  0.00000000000E+00 0. -1.
         21   -1    0    0  502  503 -0.00000000000E+00 -0.00000000000E+00 -0.62765679127E+02  0.62765679127E+02  0.00000000000E+00 0. -1.
          6    1    1    2  501    0  0.14103931544E+02  0.79957345216E+02  0.22900211680E+03  0.29768786915E+03  0.17200000000E+03 0. -1.
         -6    1    1    2    0  503 -0.14103931544E+02 -0.79957345216E+02  0.28977327713E+03  0.34661888304E+03  0.17200000000E+03 0. -1.
<mgrwt>
<rscale>  2 0.19020015E+03</rscale>
<asrwt>0</asrwt>
<pdfrwt beam="1">  1       21 0.14538525E+00 0.19020015E+03</pdfrwt>
<pdfrwt beam="2">  1       21 0.15691422E-01 0.19020015E+03</pdfrwt>
<totfact> 0.11743108E+04</totfact>
</mgrwt>
</event>
<event>
 4    1  0.1100959E+000  0.2026408E+03  0.7546771E-02  0.1147530E+00
         21   -1    0    0  501  502  0.00000000000E+00  0.00000000000E+00  0.37462337451E+03  0.37462337451E+03  0.00000000000E+00 0.  1.
         21   -1    0    0  502  503 -0.00000000000E+00 -0.00000000000E+00 -0.11679151729E+03  0.11679151729E+03  0.00000000000E+00 0. -1.
          6    1    1    2  501    0  0.88905811187E+02  0.59791672199E+02  0.18983519130E+03  0.27767010495E+03  0.17200000000E+03 0.  1.
         -6    1    1    2    0  503 -0.88905811187E+02 -0.59791672199E+02  0.67996665912E+02  0.21374478684E+03  0.17200000000E+03 0. -1.
<mgrwt>
<rscale>  2 0.20264078E+03</rscale>
<asrwt>0</asrwt>
<pdfrwt beam="1">  1       21 0.93655841E-01 0.20264078E+03</pdfrwt>
<pdfrwt beam="2">  1       21 0.29197880E-01 0.20264078E+03</pdfrwt>
<totfact> 0.10684148E+04</totfact>
</mgrwt>
</event>
<event>
 4    1  0.1100959E+000  0.1910485E+03  0.7546771E-02  0.1157519E+00
         21   -1    0    0  503  502  0.00000000000E+00  0.00000000000E+00  0.29449464530E+03  0.29449464530E+03  0.00000000000E+00 0.  1.
         21   -1    0    0  501  503 -0.00000000000E+00 -0.00000000000E+00 -0.12580385388E+03  0.12580385388E+03  0.00000000000E+00 0. -1.
          6    1    1    2  501    0  0.49822856866E+02 -0.66582256607E+02  0.58762654610E+02  0.19988137366E+03  0.17200000000E+03 0.  1.
         -6    1    1    2    0  502 -0.49822856866E+02  0.66582256607E+02  0.10992813681E+03  0.22041712552E+03  0.17200000000E+03 0.  1.
<mgrwt>
<rscale>  2 0.19104846E+03</rscale>
<asrwt>0</asrwt>
<pdfrwt beam="1">  1       21 0.73623660E-01 0.19104846E+03</pdfrwt>
<pdfrwt beam="2">  1       21 0.31450964E-01 0.19104846E+03</pdfrwt>
<totfact> 0.16116528E+04</totfact>
</mgrwt>
</event>
<event>
 4    1  0.1100959E+000  0.1748698E+03  0.7546771E-02  0.1172862E+00
         21   -1    0    0  501  502  0.00000000000E+00  0.00000000000E+00  0.42703733213E+02  0.42703733213E+02  0.00000000000E+00 0. -1.
         21   -1    0    0  502  503 -0.00000000000E+00 -0.00000000000E+00 -0.78592764259E+03  0.78592764259E+03  0.00000000000E+00 0.  1.
          6    1    1    2  501    0 -0.31360923403E+02 -0.34561075483E+01 -0.24810138877E+03  0.30353542018E+03  0.17200000000E+03 0. -1.
         -6    1    1    2    0  503  0.31360923403E+02  0.34561075483E+01 -0.49512252061E+03  0.52509595563E+03  0.17200000000E+03 0.  1.
<mgrwt>
<rscale>  2 0.17486981E+03</rscale>
<asrwt>0</asrwt>
<pdfrwt beam="1">  1       21 0.10675933E-01 0.17486981E+03</pdfrwt>
<pdfrwt beam="2">  1       21 0.19648191E+00 0.17486981E+03</pdfrwt>
<totfact> 0.10381477E+04</totfact>
</mgrwt>
</event>
<event>
 4    1  0.1100959E+000  0.3090735E+03  0.7546771E-02  0.1080791E+00
         21   -1    0    0  501  502  0.00000000000E+00  0.00000000000E+00  0.58636476815E+03  0.58636476815E+03  0.00000000000E+00 0.  1.
         21   -1    0    0  502  503 -0.00000000000E+00 -0.00000000000E+00 -0.16617254743E+03  0.16617254743E+03  0.00000000000E+00 0. -1.
          6    1    1    2  501    0  0.21091283715E+03  0.14648616893E+03  0.15739746719E+03  0.34684345928E+03  0.17200000000E+03 0.  1.
         -6    1    1    2    0  503 -0.21091283715E+03 -0.14648616893E+03  0.26279475352E+03  0.40569385630E+03  0.17200000000E+03 0. -1.
<mgrwt>
<rscale>  2 0.30907349E+03</rscale>
<asrwt>0</asrwt>
<pdfrwt beam="1">  1       21 0.14659119E+00 0.30907349E+03</pdfrwt>
<pdfrwt beam="2">  1       21 0.41543138E-01 0.30907349E+03</pdfrwt>
<totfact> 0.16184781E+03</totfact>
</mgrwt>
</event>
<event>
 4    1  0.1100959E+000  0.1723842E+03  0.7546771E-02  0.1175384E+00
         21   -1    0    0  503  502  0.00000000000E+00  0.00000000000E+00  0.26598339466E+03  0.26598339466E+03  0.00000000000E+00 0. -1.
         21   -1    0    0  501  503 -0.00000000000E+00 -0.00000000000E+00 -0.15289327625E+03  0.15289327625E+03  0.00000000000E+00 0. -1.
          6    1    1    2  501    0  0.11325381600E+02  0.20108480133E+01 -0.52136772334E+02  0.18009594889E+03  0.17200000000E+03 0. -1.
         -6    1    1    2    0  502 -0.11325381600E+02 -0.20108480133E+01  0.16522689075E+03  0.23878072201E+03  0.17200000000E+03 0. -1.
<mgrwt>
<rscale>  2 0.17238419E+03</rscale>
<asrwt>0</asrwt>
<pdfrwt beam="1">  1       21 0.66495848E-01 0.17238419E+03</pdfrwt>
<pdfrwt beam="2">  1       21 0.38223319E-01 0.17238419E+03</pdfrwt>
<totfact> 0.13874233E+04</totfact>
</mgrwt>
</event>
<event>
 4    1  0.1100959E+000  0.1854391E+03  0.7546771E-02  0.1162640E+00
         21   -1    0    0  503  502  0.00000000000E+00  0.00000000000E+00  0.21467279081E+03  0.21467279081E+03  0.00000000000E+00 0. -1.
         21   -1    0    0  501  503 -0.00000000000E+00 -0.00000000000E+00 -0.21486175455E+03  0.21486175455E+03  0.00000000000E+00 0. -1.
          6    1    1    2  501    0  0.66735633984E+02  0.18708550869E+02 -0.10843339474E+03  0.21481493387E+03  0.17200000000E+03 0. -1.
         -6    1    1    2    0  502 -0.66735633984E+02 -0.18708550869E+02  0.10824443099E+03  0.21471961149E+03  0.17200000000E+03 0. -1.
<mgrwt>
<rscale>  2 0.18543909E+03</rscale>
<asrwt>0</asrwt>
<pdfrwt beam="1">  1       21 0.53668198E-01 0.18543909E+03</pdfrwt>
<pdfrwt beam="2">  1       21 0.53715439E-01 0.18543909E+03</pdfrwt>
<totfact> 0.10823115E+04</totfact>
</mgrwt>
</event>
<event>
 4    1  0.1100959E+000  0.1761749E+03  0.7546771E-02  0.1171557E+00
         21   -1    0    0  503  502  0.00000000000E+00  0.00000000000E+00  0.90878429577E+03  0.90878429577E+03  0.00000000000E+00 0.  1.
         21   -1    0    0  501  503 -0.00000000000E+00 -0.00000000000E+00 -0.91205320318E+02  0.91205320318E+02  0.00000000000E+00 0.  1.
          6    1    1    2  501    0 -0.35798688012E+02  0.13116354290E+02  0.13338569206E+02  0.17667909396E+03  0.17200000000E+03 0.  1.
         -6    1    1    2    0  502  0.35798688012E+02 -0.13116354290E+02  0.80424040625E+03  0.82331052214E+03  0.17200000000E+03 0.  1.
<mgrwt>
<rscale>  2 0.17617487E+03</rscale>
<asrwt>0</asrwt>
<pdfrwt beam="1">  1       21 0.22719605E+00 0.17617487E+03</pdfrwt>
<pdfrwt beam="2">  1       21 0.22801333E-01 0.17617487E+03</pdfrwt>
<totfact> 0.16724904E+03</totfact>
</mgrwt>
</event>
<event>
 4    1  0.1100959E+000  0.1945133E+03  0.7546771E-02  0.1154453E+00
         21   -1    0    0  503  502  0.00000000000E+00  0.00000000000E+00  0.15104877710E+03  0.15104877710E+03  0.00000000000E+00 0. -1.
         21   -1    0    0  501  503 -0.00000000000E+00 -0.00000000000E+00 -0.45356210299E+03  0.45356210299E+03  0.00000000000E+00 0.  1.
          6    1    1    2  501    0  0.32284697206E+02 -0.84906452406E+02 -0.35353919664E+03  0.40351625853E+03  0.17200000000E+03 0.  1.
         -6    1    1    2    0  502 -0.32284697206E+02  0.84906452406E+02  0.51025870758E+02  0.20109462156E+03  0.17200000000E+03 0. -1.
<mgrwt>
<rscale>  2 0.19451326E+03</rscale>
<asrwt>0</asrwt>
<pdfrwt beam="1">  1       21 0.37762195E-01 0.19451326E+03</pdfrwt>
<pdfrwt beam="2">  1       21 0.11339052E+00 0.19451326E+03</pdfrwt>
<totfact> 0.40972699E+03</totfact>
</mgrwt>
</event>
<event>
 4    1  0.1100959E+000  0.1992113E+03  0.7546771E-02  0.1150406E+00
         21   -1    0    0  501  502  0.00000000000E+00  0.00000000000E+00  0.10854749021E+04  0.10854749021E+04  0.00000000000E+00 0. -1.
         21   -1    0    0  502  503 -0.00000000000E+00 -0.00000000000E+00 -0.62337699855E+02  0.62337699855E+02  0.00000000000E+00 0.  1.
          6    1    1    2  501    0 -0.78559662178E+02 -0.62686021787E+02  0.88061941785E+03  0.90287081963E+03  0.17200000000E+03 0. -1.
         -6    1    1    2    0  503  0.78559662178E+02  0.62686021787E+02  0.14251778435E+03  0.24494178228E+03  0.17200000000E+03 0.  1.
<mgrwt>
<rscale>  2 0.19921134E+03</rscale>
<asrwt>0</asrwt>
<pdfrwt beam="1">  1       21 0.27136866E+00 0.19921134E+03</pdfrwt>
<pdfrwt beam="2">  1       21 0.15584428E-01 0.19921134E+03</pdfrwt>
<totfact> 0.18119580E+03</totfact>
</mgrwt>
</event>
<event>
 4    1  0.1100959E+000  0.2083136E+03  0.7546771E-02  0.1142908E+00
         21   -1    0    0  503  502  0.00000000000E+00  0.00000000000E+00  0.33062515566E+03  0.33062515566E+03  0.00000000000E+00 0.  1.
         21   -1    0    0  501  503 -0.00000000000E+00 -0.00000000000E+00 -0.16661488895E+03  0.16661488895E+03  0.00000000000E+00 0.  1.
          6    1    1    2  501    0  0.10189364262E+03  0.58551263641E+02 -0.32536956131E+02  0.21083931890E+03  0.17200000000E+03 0.  1.
         -6    1    1    2    0  502 -0.10189364262E+03 -0.58551263641E+02  0.19654722285E+03  0.28640072571E+03  0.17200000000E+03 0.  1.
<mgrwt>
<rscale>  2 0.20831362E+03</rscale>
<asrwt>0</asrwt>
<pdfrwt beam="1">  1       21 0.82656288E-01 0.20831362E+03</pdfrwt>
<pdfrwt beam="2">  1       21 0.41653723E-01 0.20831362E+03</pdfrwt>
<totfact> 0.70060475E+03</totfact>
</mgrwt>
</event>
<event>
 4    1  0.1100959E+000  0.1886713E+03  0.7546771E-02  0.1159665E+00
         21   -1    0    0  501  502  0.00000000000E+00  0.00000000000E+00  0.67138521354E+02  0.67138521354E+02  0.00000000000E+00 0.  1.
         21   -1    0    0  502  503 -0.00000000000E+00 -0.00000000000E+00 -0.56816970582E+03  0.56816970582E+03  0.00000000000E+00 0.  1.
          6    1    1    2  501    0  0.72078066742E+02  0.28593582130E+02 -0.33263283349E+03  0.38241527501E+03  0.17200000000E+03 0.  1.
         -6    1    1    2    0  503 -0.72078066742E+02 -0.28593582130E+02 -0.16839835098E+03  0.25289295217E+03  0.17200000000E+03 0.  1.
<mgrwt>
<rscale>  2 0.18867125E+03</rscale>
<asrwt>0</asrwt>
<pdfrwt beam="1">  1       21 0.16784630E-01 0.18867125E+03</pdfrwt>
<pdfrwt beam="2">  1       21 0.14204243E+00 0.18867125E+03</pdfrwt>
<totfact> 0.11039674E+04</totfact>
</mgrwt>
</event>
<event>
 4    1  0.1100959E+000  0.1777601E+03  0.7546771E-02  0.1169989E+00
         21   -1    0    0  503  502  0.00000000000E+00  0.00000000000E+00  0.72007351570E+02  0.72007351570E+02  0.00000000000E+00 0. -1.
         21   -1    0    0  501  503 -0.00000000000E+00 -0.00000000000E+00 -0.49492284475E+03  0.49492284475E+03  0.00000000000E+00 0. -1.
          6    1    1    2  501    0 -0.44736009194E+02 -0.36518033695E+01 -0.30689168552E+03  0.35465638698E+03  0.17200000000E+03 0. -1.
         -6    1    1    2    0  502  0.44736009194E+02  0.36518033695E+01 -0.11602380766E+03  0.21227380934E+03  0.17200000000E+03 0. -1.
<mgrwt>
<rscale>  2 0.17776008E+03</rscale>
<asrwt>0</asrwt>
<pdfrwt beam="1">  1       21 0.18001838E-01 0.17776008E+03</pdfrwt>
<pdfrwt beam="2">  1       21 0.12373071E+00 0.17776008E+03</pdfrwt>
<totfact> 0.13878954E+04</totfact>
</mgrwt>
</event>
<event>
 4    1  0.1100959E+000  0.1896970E+03  0.7546771E-02  0.1158735E+00
         21   -1    0    0  501  502  0.00000000000E+00  0.00000000000E+00  0.14023406831E+03  0.14023406831E+03  0.00000000000E+00 0. -1.
         21   -1    0    0  502  503 -0.00000000000E+00 -0.00000000000E+00 -0.32195656664E+03  0.32195656664E+03  0.00000000000E+00 0. -1.
          6    1    1    2  501    0 -0.76440132806E+01  0.79639869193E+02  0.13254473767E+02  0.19015946145E+03  0.17200000000E+03 0.  1.
         -6    1    1    2    0  503  0.76440132806E+01 -0.79639869193E+02 -0.19497697210E+03  0.27203117350E+03  0.17200000000E+03 0.  1.
<mgrwt>
<rscale>  2 0.18969697E+03</rscale>
<asrwt>0</asrwt>
<pdfrwt beam="1">  1       21 0.35058517E-01 0.18969697E+03</pdfrwt>
<pdfrwt beam="2">  1       21 0.80489141E-01 0.18969697E+03</pdfrwt>
<totfact> 0.10661409E+04</totfact>
</mgrwt>
</event>
<event>
 4    1  0.1100959E+000  0.1945243E+03  0.7546771E-02  0.1154443E+00
         21   -1    0    0  501  502  0.00000000000E+00  0.00000000000E+00  0.55584669259E+02  0.55584669259E+02  0.00000000000E+00 0.  1.
         21   -1    0    0  502  503 -0.00000000000E+00 -0.00000000000E+00 -0.17024600153E+04  0.17024600153E+04  0.00000000000E+00 0.  1.
          6    1    1    2  501    0 -0.29193750347E+02  0.86043076631E+02 -0.14247444096E+03  0.24111958117E+03  0.17200000000E+03 0.  1.
         -6    1    1    2    0  503  0.29193750347E+02 -0.86043076631E+02 -0.15044009051E+04  0.15169251034E+04  0.17200000000E+03 0.  1.
<mgrwt>
<rscale>  2 0.19452426E+03</rscale>
<asrwt>0</asrwt>
<pdfrwt beam="1">  1       21 0.13896168E-01 0.19452426E+03</pdfrwt>
<pdfrwt beam="2">  1       21 0.42561499E+00 0.19452426E+03</pdfrwt>
<totfact> 0.26957105E+02</totfact>
</mgrwt>
</event>
<event>
 4    1  0.1100959E+000  0.1834192E+03  0.7546771E-02  0.1164534E+00
         21   -1    0    0  503  502  0.00000000000E+00  0.00000000000E+00  0.36415722657E+03  0.36415722657E+03  0.00000000000E+00 0.  1.
         21   -1    0    0  501  503 -0.00000000000E+00 -0.00000000000E+00 -0.12710343014E+03  0.12710343014E+03  0.00000000000E+00 0.  1.
          6    1    1    2  501    0  0.41370885094E+01  0.63572703963E+02  0.24690307684E+03  0.30757719932E+03  0.17200000000E+03 0.  1.
         -6    1    1    2    0  502 -0.41370885094E+01 -0.63572703963E+02 -0.98492804087E+01  0.18368345738E+03  0.17200000000E+03 0.  1.
<mgrwt>
<rscale>  2 0.18341920E+03</rscale>
<asrwt>0</asrwt>
<pdfrwt beam="1">  1       21 0.91039304E-01 0.18341920E+03</pdfrwt>
<pdfrwt beam="2">  1       21 0.31775858E-01 0.18341920E+03</pdfrwt>
<totfact> 0.98053018E+03</totfact>
</mgrwt>
</event>
<event>
 4    1  0.1100959E+000  0.2571105E+03  0.7546771E-02  0.1108892E+00
         21   -1    0    0  501  502  0.00000000000E+00  0.00000000000E+00  0.16995700330E+03  0.16995700330E+03  0.00000000000E+00 0.  1.
         21   -1    0    0  502  503 -0.00000000000E+00 -0.00000000000E+00 -0.62690877672E+03  0.62690877672E+03  0.00000000000E+00 0.  1.
          6    1    1    2  501    0  0.19058729262E+03 -0.14081875206E+02  0.16994039635E+02  0.25767152093E+03  0.17200000000E+03 0.  1.
         -6    1    1    2    0  503 -0.19058729262E+03  0.14081875206E+02 -0.47394581305E+03  0.53919425908E+03  0.17200000000E+03 0.  1.
<mgrwt>
<rscale>  2 0.25711051E+03</rscale>
<asrwt>0</asrwt>
<pdfrwt beam="1">  1       21 0.42489251E-01 0.25711051E+03</pdfrwt>
<pdfrwt beam="2">  1       21 0.15672719E+00 0.25711051E+03</pdfrwt>
<totfact> 0.13385716E+03</totfact>
</mgrwt>
</event>
<event>
 4    1  0.1100959E+000  0.2197869E+03  0.7546771E-02  0.1134042E+00
         21   -1    0    0  501  502  0.00000000000E+00  0.00000000000E+00  0.80656552440E+03  0.80656552440E+03  0.00000000000E+00 0.  1.
         21   -1    0    0  502  503 -0.00000000000E+00 -0.00000000000E+00 -0.11504905447E+03  0.11504905447E+03  0.00000000000E+00 0. -1.
          6    1    1    2  501    0 -0.12146534383E+03 -0.62995741598E+02  0.66482453000E+03  0.70021278830E+03  0.17200000000E+03 0.  1.
         -6    1    1    2    0  503  0.12146534383E+03  0.62995741598E+02  0.26691939931E+02  0.22140179057E+03  0.17200000000E+03 0. -1.
<mgrwt>
<rscale>  2 0.21978693E+03</rscale>
<asrwt>0</asrwt>
<pdfrwt beam="1">  1       21 0.20164136E+00 0.21978693E+03</pdfrwt>
<pdfrwt beam="2">  1       21 0.28762266E-01 0.21978693E+03</pdfrwt>
<totfact> 0.14739794E+03</totfact>
</mgrwt>
</event>
<event>
 4    1  0.1100959E+000  0.1787351E+03  0.7546771E-02  0.1169033E+00
         21   -1    0    0  501  502  0.00000000000E+00  0.00000000000E+00  0.35327885271E+03  0.35327885271E+03  0.00000000000E+00 0. -1.
         21   -1    0    0  502  503 -0.00000000000E+00 -0.00000000000E+00 -0.96025878353E+02  0.96025878353E+02  0.00000000000E+00 0. -1.
          6    1    1    2  501    0 -0.35817189012E+02 -0.32853811735E+02  0.74384606128E+02  0.19359574790E+03  0.17200000000E+03 0.  1.
         -6    1    1    2    0  503  0.35817189012E+02  0.32853811735E+02  0.18286836823E+03  0.25570898317E+03  0.17200000000E+03 0.  1.
<mgrwt>
<rscale>  2 0.17873512E+03</rscale>
<asrwt>0</asrwt>
<pdfrwt beam="1">  1       21 0.88319710E-01 0.17873512E+03</pdfrwt>
<pdfrwt beam="2">  1       21 0.24006470E-01 0.17873512E+03</pdfrwt>
<totfact> 0.18113026E+04</totfact>
</mgrwt>
</event>
<event>
 4    1  0.1100959E+000  0.4098954E+03  0.7546771E-02  0.1040406E+00
         21   -1    0    0  503  502  0.00000000000E+00  0.00000000000E+00  0.13740335387E+04  0.13740335387E+04  0.00000000000E+00 0.  1.
         21   -1    0    0  501  503 -0.00000000000E+00 -0.00000000000E+00 -0.30848425048E+03  0.30848425048E+03  0.00000000000E+00 0. -1.
          6    1    1    2  501    0 -0.88566592461E+02 -0.36136710327E+03 -0.12082253600E+03  0.42733161576E+03  0.17200000000E+03 0. -1.
         -6    1    1    2    0  502  0.88566592461E+02  0.36136710327E+03  0.11863718242E+04  0.12551861734E+04  0.17200000000E+03 0.  1.
<mgrwt>
<rscale>  2 0.40989538E+03</rscale>
<asrwt>0</asrwt>
<pdfrwt beam="1">  1       21 0.34350837E+00 0.40989538E+03</pdfrwt>
<pdfrwt beam="2">  1       21 0.77121066E-01 0.40989538E+03</pdfrwt>
<totfact> 0.21758203E+01</totfact>
</mgrwt>
</event>
<event>
 4    1  0.1100959E+000  0.1805757E+03  0.7546771E-02  0.1167247E+00
         21   -1    0    0  501  502  0.00000000000E+00  0.00000000000E+00  0.20031174458E+03  0.20031174458E+03  0.00000000000E+00 0.  1.
         21   -1    0    0  502  503 -0.00000000000E+00 -0.00000000000E+00 -0.20076098892E+03  0.20076098892E+03  0.00000000000E+00 0.  1.
          6    1    1    2  501    0  0.48382461061E+01 -0.54773844849E+02  0.86994703519E+02  0.20043867178E+03  0.17200000000E+03 0.  1.
         -6    1    1    2    0  503 -0.48382461061E+01  0.54773844849E+02 -0.87443947858E+02  0.20063406172E+03  0.17200000000E+03 0.  1.
<mgrwt>
<rscale>  2 0.18057570E+03</rscale>
<asrwt>0</asrwt>
<pdfrwt beam="1">  1       21 0.50077936E-01 0.18057570E+03</pdfrwt>
<pdfrwt beam="2">  1       21 0.50190247E-01 0.18057570E+03</pdfrwt>
<totfact> 0.14469572E+04</totfact>
</mgrwt>
</event>
<event>
 4    1  0.1100959E+000  0.2056371E+03  0.7546771E-02  0.1145068E+00
         21   -1    0    0  501  502  0.00000000000E+00  0.00000000000E+00  0.88851216395E+03  0.88851216395E+03  0.00000000000E+00 0.  1.
         21   -1    0    0  502  503 -0.00000000000E+00 -0.00000000000E+00 -0.18166273783E+03  0.18166273783E+03  0.00000000000E+00 0.  1.
          6    1    1    2  501    0 -0.89414212917E+02  0.68612877576E+02  0.81310705543E+03  0.83870716703E+03  0.17200000000E+03 0.  1.
         -6    1    1    2    0  503  0.89414212917E+02 -0.68612877576E+02 -0.10625762931E+03  0.23146773474E+03  0.17200000000E+03 0.  1.
<mgrwt>
<rscale>  2 0.20563713E+03</rscale>
<asrwt>0</asrwt>
<pdfrwt beam="1">  1       21 0.22212803E+00 0.20563713E+03</pdfrwt>
<pdfrwt beam="2">  1       21 0.45415687E-01 0.20563713E+03</pdfrwt>
<totfact> 0.44666115E+02</totfact>
</mgrwt>
</event>
<event>
 4    1  0.1100959E+000  0.2034981E+03  0.7546771E-02  0.1146821E+00
         21   -1    0    0  501  502  0.00000000000E+00  0.00000000000E+00  0.11965774981E+03  0.11965774981E+03  0.00000000000E+00 0. -1.
         21   -1    0    0  502  503 -0.00000000000E+00 -0.00000000000E+00 -0.41432271819E+03  0.41432271819E+03  0.00000000000E+00 0.  1.
          6    1    1    2  501    0 -0.84101161076E+02 -0.68952679583E+02 -0.38978330515E+02  0.20719746033E+03  0.17200000000E+03 0.  1.
         -6    1    1    2    0  503  0.84101161076E+02  0.68952679583E+02 -0.25568663787E+03  0.32678300767E+03  0.17200000000E+03 0.  1.
<mgrwt>
<rscale>  2 0.20349810E+03</rscale>
<asrwt>0</asrwt>
<pdfrwt beam="1">  1       21 0.29914438E-01 0.20349810E+03</pdfrwt>
<pdfrwt beam="2">  1       21 0.10358068E+00 0.20349810E+03</pdfrwt>
<totfact> 0.80246092E+03</totfact>
</mgrwt>
</event>
<event>
 4    1  0.1100959E+000  0.2700695E+03  0.7546771E-02  0.1101240E+00
         21   -1    0    0  503  502  0.00000000000E+00  0.00000000000E+00  0.58292929762E+03  0.58292929762E+03  0.00000000000E+00 0. -1.
         21   -1    0    0  501  503 -0.00000000000E+00 -0.00000000000E+00 -0.14889695807E+03  0.14889695807E+03  0.00000000000E+00 0.  1.
          6    1    1    2  501    0  0.20126483368E+03 -0.53348015211E+02  0.70801544685E+02  0.27919599340E+03  0.17200000000E+03 0.  1.
         -6    1    1    2    0  502 -0.20126483368E+03  0.53348015211E+02  0.36323079487E+03  0.45263026229E+03  0.17200000000E+03 0. -1.
<mgrwt>
<rscale>  2 0.27006952E+03</rscale>
<asrwt>0</asrwt>
<pdfrwt beam="1">  1       21 0.14573232E+00 0.27006952E+03</pdfrwt>
<pdfrwt beam="2">  1       21 0.37224241E-01 0.27006952E+03</pdfrwt>
<totfact> 0.21076151E+03</totfact>
</mgrwt>
</event>
<event>
 4    1  0.1100959E+000  0.2380835E+03  0.7546771E-02  0.1121076E+00
         21   -1    0    0  503  502  0.00000000000E+00  0.00000000000E+00  0.52731040760E+03  0.52731040760E+03  0.00000000000E+00 0.  1.
         21   -1    0    0  501  503 -0.00000000000E+00 -0.00000000000E+00 -0.11179463573E+03  0.11179463573E+03  0.00000000000E+00 0. -1.
          6    1    1    2  501    0  0.96925759966E+02  0.13306061579E+03  0.14509651657E+03  0.27881307276E+03  0.17200000000E+03 0. -1.
         -6    1    1    2    0  502 -0.96925759966E+02 -0.13306061579E+03  0.27041925530E+03  0.36029197057E+03  0.17200000000E+03 0.  1.
<mgrwt>
<rscale>  2 0.23808345E+03</rscale>
<asrwt>0</asrwt>
<pdfrwt beam="1">  1       21 0.13182760E+00 0.23808345E+03</pdfrwt>
<pdfrwt beam="2">  1       21 0.27948660E-01 0.23808345E+03</pdfrwt>
<totfact> 0.49286723E+03</totfact>
</mgrwt>
</event>
<event>
 4    1  0.1100959E+000  0.2437440E+03  0.7546771E-02  0.1117324E+00
         21   -1    0    0  501  502  0.00000000000E+00  0.00000000000E+00  0.86062541346E+02  0.86062541346E+02  0.00000000000E+00 0. -1.
         21   -1    0    0  502  503 -0.00000000000E+00 -0.00000000000E+00 -0.98446296732E+03  0.98446296732E+03  0.00000000000E+00 0. -1.
          6    1    1    2  501    0  0.51638415837E+01  0.17262810053E+03 -0.15662141282E+03  0.28972641113E+03  0.17200000000E+03 0. -1.
         -6    1    1    2    0  503 -0.51638415837E+01 -0.17262810053E+03 -0.74177901316E+03  0.78079909754E+03  0.17200000000E+03 0. -1.
<mgrwt>
<rscale>  2 0.24374398E+03</rscale>
<asrwt>0</asrwt>
<pdfrwt beam="1">  1       21 0.21515635E-01 0.24374398E+03</pdfrwt>
<pdfrwt beam="2">  1       21 0.24611574E+00 0.24374398E+03</pdfrwt>
<totfact> 0.13359750E+03</totfact>
</mgrwt>
</event>
<event>
 4    1  0.1100959E+000  0.2738781E+03  0.7546771E-02  0.1099080E+00
         21   -1    0    0  501  502  0.00000000000E+00  0.00000000000E+00  0.67270921095E+03  0.67270921095E+03  0.00000000000E+00 0.  1.
         21   -1    0    0  502  503 -0.00000000000E+00 -0.00000000000E+00 -0.11988106435E+03  0.11988106435E+03  0.00000000000E+00 0.  1.
          6    1    1    2  501    0 -0.20856911195E+03 -0.43864784920E+02  0.38117793367E+03  0.46936745832E+03  0.17200000000E+03 0.  1.
         -6    1    1    2    0  503  0.20856911195E+03  0.43864784920E+02  0.17165021293E+03  0.32322281697E+03  0.17200000000E+03 0.  1.
<mgrwt>
<rscale>  2 0.27387806E+03</rscale>
<asrwt>0</asrwt>
<pdfrwt beam="1">  1       21 0.16817729E+00 0.27387806E+03</pdfrwt>
<pdfrwt beam="2">  1       21 0.29970268E-01 0.27387806E+03</pdfrwt>
<totfact> 0.21944803E+03</totfact>
</mgrwt>
</event>
<event>
 4    1  0.1100959E+000  0.1723255E+03  0.7546771E-02  0.1175444E+00
         21   -1    0    0  501  502  0.00000000000E+00  0.00000000000E+00  0.20434528656E+03  0.20434528656E+03  0.00000000000E+00 0. -1.
         21   -1    0    0  502  503 -0.00000000000E+00 -0.00000000000E+00 -0.17547720797E+03  0.17547720797E+03  0.00000000000E+00 0. -1.
          6    1    1    2  501    0 -0.85479122954E+01  0.62468902371E+01  0.93159203192E+02  0.19589468492E+03  0.17200000000E+03 0. -1.
         -6    1    1    2    0  503  0.85479122954E+01 -0.62468902371E+01 -0.64291124612E+02  0.18392780960E+03  0.17200000000E+03 0. -1.
<mgrwt>
<rscale>  2 0.17232554E+03</rscale>
<asrwt>0</asrwt>
<pdfrwt beam="1">  1       21 0.51086322E-01 0.17232554E+03</pdfrwt>
<pdfrwt beam="2">  1       21 0.43869302E-01 0.17232554E+03</pdfrwt>
<totfact> 0.18418363E+04</totfact>
</mgrwt>
</event>
<event>
 4    1  0.1100959E+000  0.1956637E+03  0.7546771E-02  0.1153450E+00
         21   -1    0    0  503  502  0.00000000000E+00  0.00000000000E+00  0.62880474513E+02  0.62880474513E+02  0.00000000000E+00 0.  1.
         21   -1    0    0  501  503 -0.00000000000E+00 -0.00000000000E+00 -0.73095682141E+03  0.73095682141E+03  0.00000000000E+00 0. -1.
          6    1    1    2  501    0  0.78563338260E+02 -0.50280027797E+02 -0.49627135187E+03  0.53345059190E+03  0.17200000000E+03 0.  1.
         -6    1    1    2    0  502 -0.78563338260E+02  0.50280027797E+02 -0.17180499502E+03  0.26038670402E+03  0.17200000000E+03 0. -1.
<mgrwt>
<rscale>  2 0.19566369E+03</rscale>
<asrwt>0</asrwt>
<pdfrwt beam="1">  1       21 0.15720119E-01 0.19566369E+03</pdfrwt>
<pdfrwt beam="2">  1       21 0.18273920E+00 0.19566369E+03</pdfrwt>
<totfact> 0.62624093E+03</totfact>
</mgrwt>
</event>
<event>
 4    1  0.1100959E+000  0.2484935E+03  0.7546771E-02  0.1114261E+00
         21   -1    0    0  501  502  0.00000000000E+00  0.00000000000E+00  0.90278704708E+02  0.90278704708E+02  0.00000000000E+00 0.  1.
         21   -1    0    0  502  503 -0.00000000000E+00 -0.00000000000E+00 -0.71001809372E+03  0.71001809372E+03  0.00000000000E+00 0. -1.
          6    1    1    2  501    0  0.17842199402E+03 -0.18182657275E+02 -0.38649523523E+03  0.45948621723E+03  0.17200000000E+03 0. -1.
         -6    1    1    2    0  503 -0.17842199402E+03  0.18182657275E+02 -0.23324415378E+03  0.34081058119E+03  0.17200000000E+03 0.  1.
<mgrwt>
<rscale>  2 0.24849349E+03</rscale>
<asrwt>0</asrwt>
<pdfrwt beam="1">  1       21 0.22569676E-01 0.24849349E+03</pdfrwt>
<pdfrwt beam="2">  1       21 0.17750452E+00 0.24849349E+03</pdfrwt>
<totfact> 0.33215479E+03</totfact>
</mgrwt>
</event>
<event>
 4    1  0.1100959E+000  0.2073870E+03  0.7546771E-02  0.1143652E+00
         21   -1    0    0  501  502  0.00000000000E+00  0.00000000000E+00  0.28442508068E+03  0.28442508068E+03  0.00000000000E+00 0. -1.
         21   -1    0    0  502  503 -0.00000000000E+00 -0.00000000000E+00 -0.19682241361E+03  0.19682241361E+03  0.00000000000E+00 0. -1.
          6    1    1    2  501    0 -0.47194669241E+02 -0.10582077021E+03 -0.72027949472E+02  0.21953905739E+03  0.17200000000E+03 0.  1.
         -6    1    1    2    0  503  0.47194669241E+02  0.10582077021E+03  0.15963061654E+03  0.26170843691E+03  0.17200000000E+03 0.  1.
<mgrwt>
<rscale>  2 0.20738701E+03</rscale>
<asrwt>0</asrwt>
<pdfrwt beam="1">  1       21 0.71106270E-01 0.20738701E+03</pdfrwt>
<pdfrwt beam="2">  1       21 0.49205604E-01 0.20738701E+03</pdfrwt>
<totfact> 0.69759496E+03</totfact>
</mgrwt>
</event>
<event>
 4    1  0.1100959E+000  0.2187551E+03  0.7546771E-02  0.1134815E+00
         21   -1    0    0  503  502  0.00000000000E+00  0.00000000000E+00  0.60209860991E+02  0.60209860991E+02  0.00000000000E+00 0. -1.
         21   -1    0    0  501  503 -0.00000000000E+00 -0.00000000000E+00 -0.98069437970E+03  0.98069437970E+03  0.00000000000E+00 0.  1.
          6    1    1    2  501    0  0.13496511555E+03  0.73620631465E+01 -0.68684583697E+03  0.72084047205E+03  0.17200000000E+03 0.  1.
         -6    1    1    2    0  502 -0.13496511555E+03 -0.73620631465E+01 -0.23363868174E+03  0.32006376864E+03  0.17200000000E+03 0. -1.
<mgrwt>
<rscale>  2 0.21875507E+03</rscale>
<asrwt>0</asrwt>
<pdfrwt beam="1">  1       21 0.15052465E-01 0.21875507E+03</pdfrwt>
<pdfrwt beam="2">  1       21 0.24517359E+00 0.21875507E+03</pdfrwt>
<totfact> 0.26926324E+03</totfact>
</mgrwt>
</event>
<event>
 4    1  0.1100959E+000  0.2160864E+03  0.7546771E-02  0.1136835E+00
         21   -1    0    0  503  502  0.00000000000E+00  0.00000000000E+00  0.14229035814E+03  0.14229035814E+03  0.00000000000E+00 0. -1.
         21   -1    0    0  501  503 -0.00000000000E+00 -0.00000000000E+00 -0.35629289259E+03  0.35629289259E+03  0.00000000000E+00 0. -1.
          6    1    1    2  501    0 -0.13046967920E+03  0.93279406201E+01 -0.17705751942E+03  0.27936125867E+03  0.17200000000E+03 0. -1.
         -6    1    1    2    0  502  0.13046967920E+03 -0.93279406201E+01 -0.36945015034E+02  0.21922199206E+03  0.17200000000E+03 0. -1.
<mgrwt>
<rscale>  2 0.21608644E+03</rscale>
<asrwt>0</asrwt>
<pdfrwt beam="1">  1       21 0.35572590E-01 0.21608644E+03</pdfrwt>
<pdfrwt beam="2">  1       21 0.89073222E-01 0.21608644E+03</pdfrwt>
<totfact> 0.80643310E+03</totfact>
</mgrwt>
</event>
<event>
 4    1  0.1100959E+000  0.1811222E+03  0.7546771E-02  0.1166721E+00
         21   -1    0    0  503  502  0.00000000000E+00  0.00000000000E+00  0.79269515825E+03  0.79269515825E+03  0.00000000000E+00 0. -1.
         21   -1    0    0  501  503 -0.00000000000E+00 -0.00000000000E+00 -0.51091128050E+02  0.51091128050E+02  0.00000000000E+00 0. -1.
          6    1    1    2  501    0  0.23916853613E+01  0.56705684790E+02  0.18690910493E+03  0.26026960704E+03  0.17200000000E+03 0. -1.
         -6    1    1    2    0  502 -0.23916853613E+01 -0.56705684790E+02  0.55469492527E+03  0.58351667925E+03  0.17200000000E+03 0. -1.
<mgrwt>
<rscale>  2 0.18112221E+03</rscale>
<asrwt>0</asrwt>
<pdfrwt beam="1">  1       21 0.19817375E+00 0.18112221E+03</pdfrwt>
<pdfrwt beam="2">  1       21 0.12772785E-01 0.18112221E+03</pdfrwt>
<totfact> 0.73132262E+03</totfact>
</mgrwt>
</event>
<event>
 4    1  0.1100959E+000  0.1756319E+03  0.7546771E-02  0.1172099E+00
         21   -1    0    0  503  502  0.00000000000E+00  0.00000000000E+00  0.29973117625E+03  0.29973117625E+03  0.00000000000E+00 0. -1.
         21   -1    0    0  501  503 -0.00000000000E+00 -0.00000000000E+00 -0.11181112719E+03  0.11181112719E+03  0.00000000000E+00 0. -1.
          6    1    1    2  501    0  0.65103816192E+01  0.34931171205E+02  0.35915157577E+02  0.17926647856E+03  0.17200000000E+03 0. -1.
         -6    1    1    2    0  502 -0.65103816192E+01 -0.34931171205E+02  0.15200489148E+03  0.23227582488E+03  0.17200000000E+03 0. -1.
<mgrwt>
<rscale>  2 0.17563192E+03</rscale>
<asrwt>0</asrwt>
<pdfrwt beam="1">  1       21 0.74932792E-01 0.17563192E+03</pdfrwt>
<pdfrwt beam="2">  1       21 0.27952782E-01 0.17563192E+03</pdfrwt>
<totfact> 0.19676733E+04</totfact>
</mgrwt>
</event>
<event>
 4    1  0.1100959E+000  0.1774377E+03  0.7546771E-02  0.1170306E+00
         21   -1    0    0  503  502  0.00000000000E+00  0.00000000000E+00  0.61684749692E+03  0.61684749692E+03  0.00000000000E+00 0. -1.
         21   -1    0    0  501  503 -0.00000000000E+00 -0.00000000000E+00 -0.15982385802E+03  0.15982385802E+03  0.00000000000E+00 0. -1.
          6    1    1    2  501    0  0.41579260298E+02 -0.13088367524E+02 -0.91870046245E+02  0.19981052437E+03  0.17200000000E+03 0. -1.
         -6    1    1    2    0  502 -0.41579260298E+02  0.13088367524E+02  0.54889368515E+03  0.57686083057E+03  0.17200000000E+03 0. -1.
<mgrwt>
<rscale>  2 0.17743771E+03</rscale>
<asrwt>0</asrwt>
<pdfrwt beam="1">  1       21 0.15421187E+00 0.17743771E+03</pdfrwt>
<pdfrwt beam="2">  1       21 0.39955966E-01 0.17743771E+03</pdfrwt>
<totfact> 0.17033082E+03</totfact>
</mgrwt>
</event>
<event>
 4    1  0.1100959E+000  0.1998664E+03  0.7546771E-02  0.1149852E+00
         21   -1    0    0  501  502  0.00000000000E+00  0.00000000000E+00  0.64373345677E+02  0.64373345677E+02  0.00000000000E+00 0.  1.
         21   -1    0    0  502  503 -0.00000000000E+00 -0.00000000000E+00 -0.72352724078E+03  0.72352724078E+03  0.00000000000E+00 0.  1.
          6    1    1    2  501    0  0.93153022669E+02  0.41049692257E+02 -0.18095088000E+03  0.26961042977E+03  0.17200000000E+03 0.  1.
         -6    1    1    2    0  503 -0.93153022669E+02 -0.41049692257E+02 -0.47820301510E+03  0.51829015668E+03  0.17200000000E+03 0.  1.
<mgrwt>
<rscale>  2 0.19986636E+03</rscale>
<asrwt>0</asrwt>
<pdfrwt beam="1">  1       21 0.16093336E-01 0.19986636E+03</pdfrwt>
<pdfrwt beam="2">  1       21 0.18088181E+00 0.19986636E+03</pdfrwt>
<totfact> 0.61529606E+03</totfact>
</mgrwt>
</event>
<event>
 4    1  0.1100959E+000  0.1746281E+03  0.7546771E-02  0.1173106E+00
         21   -1    0    0  503  502  0.00000000000E+00  0.00000000000E+00  0.40573662001E+03  0.40573662001E+03  0.00000000000E+00 0.  1.
         21   -1    0    0  501  503 -0.00000000000E+00 -0.00000000000E+00 -0.81720196846E+02  0.81720196846E+02  0.00000000000E+00 0.  1.
          6    1    1    2  501    0  0.26386443524E+02 -0.14654135306E+02  0.92950168659E+02  0.19782497804E+03  0.17200000000E+03 0.  1.
         -6    1    1    2    0  502 -0.26386443524E+02  0.14654135306E+02  0.23106625450E+03  0.28963183881E+03  0.17200000000E+03 0.  1.
<mgrwt>
<rscale>  2 0.17462814E+03</rscale>
<asrwt>0</asrwt>
<pdfrwt beam="1">  1       21 0.10143415E+00 0.17462814E+03</pdfrwt>
<pdfrwt beam="2">  1       21 0.20430050E-01 0.17462814E+03</pdfrwt>
<totfact> 0.17809631E+04</totfact>
</mgrwt>
</event>
<event>
 4    1  0.1100959E+000  0.1983654E+03  0.7546771E-02  0.1151125E+00
         21   -1    0    0  503  502  0.00000000000E+00  0.00000000000E+00  0.10905502382E+03  0.10905502382E+03  0.00000000000E+00 0.  1.
         21   -1    0    0  501  503 -0.00000000000E+00 -0.00000000000E+00 -0.78307399303E+03  0.78307399303E+03  0.00000000000E+00 0. -1.
          6    1    1    2  501    0 -0.98718064658E+02  0.44245642394E+01 -0.66456509390E+03  0.69353846114E+03  0.17200000000E+03 0. -1.
         -6    1    1    2    0  502  0.98718064658E+02 -0.44245642394E+01 -0.94538753175E+01  0.19859055571E+03  0.17200000000E+03 0.  1.
<mgrwt>
<rscale>  2 0.19836540E+03</rscale>
<asrwt>0</asrwt>
<pdfrwt beam="1">  1       21 0.27263756E-01 0.19836540E+03</pdfrwt>
<pdfrwt beam="2">  1       21 0.19576850E+00 0.19836540E+03</pdfrwt>
<totfact> 0.18232286E+03</totfact>
</mgrwt>
</event>
<event>
 4    1  0.1100959E+000  0.1944436E+03  0.7546771E-02  0.1154513E+00
         21   -1    0    0  503  502  0.00000000000E+00  0.00000000000E+00  0.40574576286E+03  0.40574576286E+03  0.00000000000E+00 0. -1.
         21   -1    0    0  501  503 -0.00000000000E+00 -0.00000000000E+00 -0.93606101685E+02  0.93606101685E+02  0.00000000000E+00 0. -1.
          6    1    1    2  501    0 -0.69421758019E+02  0.58351911912E+02  0.13927009231E+03  0.23917459046E+03  0.17200000000E+03 0. -1.
         -6    1    1    2    0  502  0.69421758019E+02 -0.58351911912E+02  0.17286956887E+03  0.26017727409E+03  0.17200000000E+03 0. -1.
<mgrwt>
<rscale>  2 0.19444363E+03</rscale>
<asrwt>0</asrwt>
<pdfrwt beam="1">  1       21 0.10143644E+00 0.19444363E+03</pdfrwt>
<pdfrwt beam="2">  1       21 0.23401526E-01 0.19444363E+03</pdfrwt>
<totfact> 0.13614206E+04</totfact>
</mgrwt>
</event>
<event>
 4    1  0.1100959E+000  0.1740994E+03  0.7546771E-02  0.1173639E+00
         21   -1    0    0  503  502  0.00000000000E+00  0.00000000000E+00  0.43113526023E+02  0.43113526023E+02  0.00000000000E+00 0.  1.
         21   -1    0    0  501  503 -0.00000000000E+00 -0.00000000000E+00 -0.13089649396E+04  0.13089649396E+04  0.00000000000E+00 0.  1.
          6    1    1    2  501    0 -0.22488064058E+02 -0.14862694228E+02 -0.10928820870E+04  0.11066624909E+04  0.17200000000E+03 0.  1.
         -6    1    1    2    0  502  0.22488064058E+02  0.14862694228E+02 -0.17296932656E+03  0.24541597469E+03  0.17200000000E+03 0.  1.
<mgrwt>
<rscale>  2 0.17409943E+03</rscale>
<asrwt>0</asrwt>
<pdfrwt beam="1">  1       21 0.10778382E-01 0.17409943E+03</pdfrwt>
<pdfrwt beam="2">  1       21 0.32724123E+00 0.17409943E+03</pdfrwt>
<totfact> 0.17334880E+03</totfact>
</mgrwt>
</event>
<event>
 4    1  0.1100959E+000  0.1912041E+03  0.7546771E-02  0.1157380E+00
         21   -1    0    0  501  502  0.00000000000E+00  0.00000000000E+00  0.22113134050E+03  0.22113134050E+03  0.00000000000E+00 0. -1.
         21   -1    0    0  502  503 -0.00000000000E+00 -0.00000000000E+00 -0.16889666372E+03  0.16889666372E+03  0.00000000000E+00 0. -1.
          6    1    1    2  501    0 -0.65623154149E+02 -0.51658680703E+02 -0.22330403493E+01  0.19121716482E+03  0.17200000000E+03 0. -1.
         -6    1    1    2    0  503  0.65623154149E+02  0.51658680703E+02  0.54467717132E+02  0.19881083940E+03  0.17200000000E+03 0. -1.
<mgrwt>
<rscale>  2 0.19120413E+03</rscale>
<asrwt>0</asrwt>
<pdfrwt beam="1">  1       21 0.55282835E-01 0.19120413E+03</pdfrwt>
<pdfrwt beam="2">  1       21 0.42224166E-01 0.19120413E+03</pdfrwt>
<totfact> 0.16669387E+04</totfact>
</mgrwt>
</event>
<event>
 4    1  0.1100959E+000  0.2075093E+03  0.7546771E-02  0.1143554E+00
         21   -1    0    0  503  502  0.00000000000E+00  0.00000000000E+00  0.45226309601E+03  0.45226309601E+03  0.00000000000E+00 0.  1.
         21   -1    0    0  501  503 -0.00000000000E+00 -0.00000000000E+00 -0.98039723351E+02  0.98039723351E+02  0.00000000000E+00 0.  1.
          6    1    1    2  501    0 -0.10930021481E+03  0.39109554734E+02  0.22385521632E+03  0.30523966339E+03  0.17200000000E+03 0.  1.
         -6    1    1    2    0  502  0.10930021481E+03 -0.39109554734E+02  0.13036815634E+03  0.24506315598E+03  0.17200000000E+03 0.  1.
<mgrwt>
<rscale>  2 0.20750926E+03</rscale>
<asrwt>0</asrwt>
<pdfrwt beam="1">  1       21 0.11306577E+00 0.20750926E+03</pdfrwt>
<pdfrwt beam="2">  1       21 0.24509932E-01 0.20750926E+03</pdfrwt>
<totfact> 0.95087776E+03</totfact>
</mgrwt>
</event>
<event>
 4    1  0.1100959E+000  0.2093513E+03  0.7546771E-02  0.1142081E+00
         21   -1    0    0  503  502  0.00000000000E+00  0.00000000000E+00  0.60857719549E+03  0.60857719549E+03  0.00000000000E+00 0.  1.
         21   -1    0    0  501  503 -0.00000000000E+00 -0.00000000000E+00 -0.80535970544E+02  0.80535970544E+02  0.00000000000E+00 0. -1.
          6    1    1    2  501    0 -0.40854986206E+02  0.11213760890E+03  0.15195915735E+03  0.25868814958E+03  0.17200000000E+03 0. -1.
         -6    1    1    2    0  502  0.40854986206E+02 -0.11213760890E+03  0.37608206760E+03  0.43042501646E+03  0.17200000000E+03 0.  1.
<mgrwt>
<rscale>  2 0.20935132E+03</rscale>
<asrwt>0</asrwt>
<pdfrwt beam="1">  1       21 0.15214429E+00 0.20935132E+03</pdfrwt>
<pdfrwt beam="2">  1       21 0.20133994E-01 0.20935132E+03</pdfrwt>
<totfact> 0.64765130E+03</totfact>
</mgrwt>
</event>
<event>
 4    1  0.1100959E+000  0.1893093E+03  0.7546771E-02  0.1159086E+00
         21   -1    0    0  501  502  0.00000000000E+00  0.00000000000E+00  0.31567085014E+03  0.31567085014E+03  0.00000000000E+00 0.  1.
         21   -1    0    0  502  503 -0.00000000000E+00 -0.00000000000E+00 -0.14060147640E+03  0.14060147640E+03  0.00000000000E+00 0.  1.
          6    1    1    2  501    0  0.26463254783E+02  0.74523076444E+02  0.18764024317E+03  0.26654615666E+03  0.17200000000E+03 0.  1.
         -6    1    1    2    0  503 -0.26463254783E+02 -0.74523076444E+02 -0.12570869429E+02  0.18972616987E+03  0.17200000000E+03 0.  1.
<mgrwt>
<rscale>  2 0.18930925E+03</rscale>
<asrwt>0</asrwt>
<pdfrwt beam="1">  1       21 0.78917711E-01 0.18930925E+03</pdfrwt>
<pdfrwt beam="2">  1       21 0.35150370E-01 0.18930925E+03</pdfrwt>
<totfact> 0.11091812E+04</totfact>
</mgrwt>
</event>
<event>
 4    1  0.1100959E+000  0.2637562E+03  0.7546771E-02  0.1104907E+00
         21   -1    0    0  501  502  0.00000000000E+00  0.00000000000E+00  0.10549863556E+03  0.10549863556E+03  0.00000000000E+00 0. -1.
         21   -1    0    0  502  503 -0.00000000000E+00 -0.00000000000E+00 -0.77398888237E+03  0.77398888237E+03  0.00000000000E+00 0.  1.
          6    1    1    2  501    0 -0.16856392406E+03 -0.10756178594E+03 -0.16505460973E+03  0.31114362999E+03  0.17200000000E+03 0. -1.
         -6    1    1    2    0  503  0.16856392406E+03  0.10756178594E+03 -0.50343563708E+03  0.56834388795E+03  0.17200000000E+03 0.  1.
<mgrwt>
<rscale>  2 0.26375620E+03</rscale>
<asrwt>0</asrwt>
<pdfrwt beam="1">  1       21 0.26374659E-01 0.26375620E+03</pdfrwt>
<pdfrwt beam="2">  1       21 0.19349722E+00 0.26375620E+03</pdfrwt>
<totfact> 0.18981078E+03</totfact>
</mgrwt>
</event>
<event>
 4    1  0.1100959E+000  0.2264111E+03  0.7546771E-02  0.1129192E+00
         21   -1    0    0  503  502  0.00000000000E+00  0.00000000000E+00  0.18244251668E+04  0.18244251668E+04  0.00000000000E+00 0.  1.
         21   -1    0    0  501  503 -0.00000000000E+00 -0.00000000000E+00 -0.45618940165E+02  0.45618940165E+02  0.00000000000E+00 0.  1.
          6    1    1    2  501    0  0.88017029609E+02  0.11802970493E+03  0.30993085914E+03  0.38382176357E+03  0.17200000000E+03 0.  1.
         -6    1    1    2    0  502 -0.88017029609E+02 -0.11802970493E+03  0.14688753675E+04  0.14862223434E+04  0.17200000000E+03 0.  1.
<mgrwt>
<rscale>  2 0.22641115E+03</rscale>
<asrwt>0</asrwt>
<pdfrwt beam="1">  1       21 0.45610605E+00 0.22641115E+03</pdfrwt>
<pdfrwt beam="2">  1       21 0.11404741E-01 0.22641115E+03</pdfrwt>
<totfact> 0.23040513E+02</totfact>
</mgrwt>
</event>
<event>
 4    1  0.1100959E+000  0.2871704E+03  0.7546771E-02  0.1091836E+00
         21   -1    0    0  503  502  0.00000000000E+00  0.00000000000E+00  0.16692921826E+03  0.16692921826E+03  0.00000000000E+00 0. -1.
         21   -1    0    0  501  503 -0.00000000000E+00 -0.00000000000E+00 -0.93541989075E+03  0.93541989075E+03  0.00000000000E+00 0.  1.
          6    1    1    2  501    0  0.10958601358E+03  0.20217252253E+03 -0.76286279963E+03  0.81512359449E+03  0.17200000000E+03 0.  1.
         -6    1    1    2    0  502 -0.10958601358E+03 -0.20217252253E+03 -0.56278728643E+01  0.28722551452E+03  0.17200000000E+03 0. -1.
<mgrwt>
<rscale>  2 0.28717037E+03</rscale>
<asrwt>0</asrwt>
<pdfrwt beam="1">  1       21 0.41732305E-01 0.28717037E+03</pdfrwt>
<pdfrwt beam="2">  1       21 0.23385497E+00 0.28717037E+03</pdfrwt>
<totfact> 0.41427924E+02</totfact>
</mgrwt>
</event>
<event>
 4    1  0.1100959E+000  0.2285832E+03  0.7546771E-02  0.1127641E+00
         21   -1    0    0  501  502  0.00000000000E+00  0.00000000000E+00  0.70930636290E+02  0.70930636290E+02  0.00000000000E+00 0. -1.
         21   -1    0    0  502  503 -0.00000000000E+00 -0.00000000000E+00 -0.74419383447E+03  0.74419383447E+03  0.00000000000E+00 0.  1.
          6    1    1    2  501    0 -0.14918395759E+03  0.20258577049E+02 -0.37769617725E+03  0.44148008501E+03  0.17200000000E+03 0.  1.
         -6    1    1    2    0  503  0.14918395759E+03 -0.20258577049E+02 -0.29556702093E+03  0.37364438575E+03  0.17200000000E+03 0. -1.
<mgrwt>
<rscale>  2 0.22858316E+03</rscale>
<asrwt>0</asrwt>
<pdfrwt beam="1">  1       21 0.17732659E-01 0.22858316E+03</pdfrwt>
<pdfrwt beam="2">  1       21 0.18604846E+00 0.22858316E+03</pdfrwt>
<totfact> 0.46365536E+03</totfact>
</mgrwt>
</event>
<event>
 4    1  0.1100959E+000  0.2001164E+03  0.7546771E-02  0.1149641E+00
         21   -1    0    0  501  502  0.00000000000E+00  0.00000000000E+00  0.15361376404E+03  0.15361376404E+03  0.00000000000E+00 0. -1.
         21   -1    0    0  502  503 -0.00000000000E+00 -0.00000000000E+00 -0.26789495066E+03  0.26789495066E+03  0.00000000000E+00 0.  1.
          6    1    1    2  501    0  0.87965092407E+02 -0.52198717721E+02 -0.91687979427E+02  0.22012098761E+03  0.17200000000E+03 0.  1.
         -6    1    1    2    0  503 -0.87965092407E+02  0.52198717721E+02 -0.22593207192E+02  0.20138772710E+03  0.17200000000E+03 0. -1.
<mgrwt>
<rscale>  2 0.20011638E+03</rscale>
<asrwt>0</asrwt>
<pdfrwt beam="1">  1       21 0.38403441E-01 0.20011638E+03</pdfrwt>
<pdfrwt beam="2">  1       21 0.66973737E-01 0.20011638E+03</pdfrwt>
<totfact> 0.13285023E+04</totfact>
</mgrwt>
</event>
<event>
 4    1  0.1100959E+000  0.2186074E+03  0.7546771E-02  0.1134926E+00
         21   -1    0    0  501  502  0.00000000000E+00  0.00000000000E+00  0.10771702837E+04  0.10771702837E+04  0.00000000000E+00 0. -1.
         21   -1    0    0  502  503 -0.00000000000E+00 -0.00000000000E+00 -0.54425531559E+02  0.54425531559E+02  0.00000000000E+00 0.  1.
          6    1    1    2  501    0  0.12569913777E+03  0.49040174107E+02  0.75462604229E+03  0.78565238854E+03  0.17200000000E+03 0. -1.
         -6    1    1    2    0  503 -0.12569913777E+03 -0.49040174107E+02  0.26811870980E+03  0.34594342667E+03  0.17200000000E+03 0.  1.
<mgrwt>
<rscale>  2 0.21860744E+03</rscale>
<asrwt>0</asrwt>
<pdfrwt beam="1">  1       21 0.26929250E+00 0.21860744E+03</pdfrwt>
<pdfrwt beam="2">  1       21 0.13606386E-01 0.21860744E+03</pdfrwt>
<totfact> 0.23338850E+03</totfact>
</mgrwt>
</event>
<event>
 4    1  0.1100959E+000  0.2135713E+03  0.7546771E-02  0.1138769E+00
         21   -1    0    0  501  502  0.00000000000E+00  0.00000000000E+00  0.30688939534E+03  0.30688939534E+03  0.00000000000E+00 0. -1.
         21   -1    0    0  502  503 -0.00000000000E+00 -0.00000000000E+00 -0.16859144774E+03  0.16859144774E+03  0.00000000000E+00 0. -1.
          6    1    1    2  501    0  0.56034246778E+02  0.11352909203E+03  0.15095610741E+03  0.26153477381E+03  0.17200000000E+03 0. -1.
         -6    1    1    2    0  503 -0.56034246778E+02 -0.11352909203E+03 -0.12658159809E+02  0.21394606927E+03  0.17200000000E+03 0. -1.
<mgrwt>
<rscale>  2 0.21357128E+03</rscale>
<asrwt>0</asrwt>
<pdfrwt beam="1">  1       21 0.76722348E-01 0.21357128E+03</pdfrwt>
<pdfrwt beam="2">  1       21 0.42147862E-01 0.21357128E+03</pdfrwt>
<totfact> 0.80666601E+03</totfact>
</mgrwt>
</event>
<event>
 4    1  0.1100959E+000  0.1763921E+03  0.7546771E-02  0.1171341E+00
         21   -1    0    0  501  502  0.00000000000E+00  0.00000000000E+00  0.34894577584E+03  0.34894577584E+03  0.00000000000E+00 0.  1.
         21   -1    0    0  502  503 -0.00000000000E+00 -0.00000000000E+00 -0.22734435822E+03  0.22734435822E+03  0.00000000000E+00 0.  1.
          6    1    1    2  501    0  0.35194621533E+02 -0.17073946368E+02  0.28544156375E+03  0.33554592434E+03  0.17200000000E+03 0.  1.
         -6    1    1    2    0  503 -0.35194621533E+02  0.17073946368E+02 -0.16384014613E+03  0.24074420972E+03  0.17200000000E+03 0.  1.
<mgrwt>
<rscale>  2 0.17639212E+03</rscale>
<asrwt>0</asrwt>
<pdfrwt beam="1">  1       21 0.87236443E-01 0.17639212E+03</pdfrwt>
<pdfrwt beam="2">  1       21 0.56836090E-01 0.17639212E+03</pdfrwt>
<totfact> 0.33309072E+03</totfact>
</mgrwt>
</event>
<event>
 4    1  0.1100959E+000  0.1853967E+03  0.7546771E-02  0.1162680E+00
         21   -1    0    0  501  502  0.00000000000E+00  0.00000000000E+00  0.11031354388E+03  0.11031354388E+03  0.00000000000E+00 0.  1.
         21   -1    0    0  502  503 -0.00000000000E+00 -0.00000000000E+00 -0.31418518524E+03  0.31418518524E+03  0.00000000000E+00 0.  1.
          6    1    1    2  501    0 -0.25426202779E+02  0.64354099977E+02 -0.12124812543E+03  0.22152437765E+03  0.17200000000E+03 0.  1.
         -6    1    1    2    0  503  0.25426202779E+02 -0.64354099977E+02 -0.82623515936E+02  0.20297435148E+03  0.17200000000E+03 0.  1.
<mgrwt>
<rscale>  2 0.18539672E+03</rscale>
<asrwt>0</asrwt>
<pdfrwt beam="1">  1       21 0.27578386E-01 0.18539672E+03</pdfrwt>
<pdfrwt beam="2">  1       21 0.78546296E-01 0.18539672E+03</pdfrwt>
<totfact> 0.18064309E+04</totfact>
</mgrwt>
</event>
<event>
 4    1  0.1100959E+000  0.1764545E+03  0.7546771E-02  0.1171279E+00
         21   -1    0    0  501  502  0.00000000000E+00  0.00000000000E+00  0.20752843076E+03  0.20752843076E+03  0.00000000000E+00 0.  1.
         21   -1    0    0  502  503 -0.00000000000E+00 -0.00000000000E+00 -0.15879278838E+03  0.15879278838E+03  0.00000000000E+00 0.  1.
          6    1    1    2  501    0  0.39049080874E+02 -0.52301542559E+01  0.67386283062E+02  0.18888381714E+03  0.17200000000E+03 0.  1.
         -6    1    1    2    0  503 -0.39049080874E+02  0.52301542559E+01 -0.18650640687E+02  0.17743740200E+03  0.17200000000E+03 0.  1.
<mgrwt>
<rscale>  2 0.17645448E+03</rscale>
<asrwt>0</asrwt>
<pdfrwt beam="1">  1       21 0.51882107E-01 0.17645448E+03</pdfrwt>
<pdfrwt beam="2">  1       21 0.39698197E-01 0.17645448E+03</pdfrwt>
<totfact> 0.21779979E+04</totfact>
</mgrwt>
</event>
<event>
 4    1  0.1100959E+000  0.2186079E+03  0.7546771E-02  0.1134925E+00
         21   -1    0    0  503  502  0.00000000000E+00  0.00000000000E+00  0.69727125543E+03  0.69727125543E+03  0.00000000000E+00 0.  1.
         21   -1    0    0  501  503 -0.00000000000E+00 -0.00000000000E+00 -0.85803188612E+02  0.85803188612E+02  0.00000000000E+00 0.  1.
          6    1    1    2  501    0  0.12717254292E+03  0.45083757214E+02  0.13009938807E+03  0.25439192521E+03  0.17200000000E+03 0.  1.
         -6    1    1    2    0  502 -0.12717254292E+03 -0.45083757214E+02  0.48136867875E+03  0.52868251883E+03  0.17200000000E+03 0.  1.
<mgrwt>
<rscale>  2 0.21860787E+03</rscale>
<asrwt>0</asrwt>
<pdfrwt beam="1">  1       21 0.17431780E+00 0.21860787E+03</pdfrwt>
<pdfrwt beam="2">  1       21 0.21450799E-01 0.21860787E+03</pdfrwt>
<totfact> 0.39397500E+03</totfact>
</mgrwt>
</event>
<event>
 4    1  0.1100959E+000  0.2006029E+03  0.7546771E-02  0.1149231E+00
         21   -1    0    0  503  502  0.00000000000E+00  0.00000000000E+00  0.19725375181E+03  0.19725375181E+03  0.00000000000E+00 0. -1.
         21   -1    0    0  501  503 -0.00000000000E+00 -0.00000000000E+00 -0.27300997131E+03  0.27300997131E+03  0.00000000000E+00 0.  1.
          6    1    1    2  501    0 -0.10313276878E+03 -0.45982163919E+01 -0.15608704170E+03  0.25417449946E+03  0.17200000000E+03 0.  1.
         -6    1    1    2    0  502  0.10313276878E+03  0.45982163919E+01  0.80330822195E+02  0.21608922367E+03  0.17200000000E+03 0. -1.
<mgrwt>
<rscale>  2 0.20060287E+03</rscale>
<asrwt>0</asrwt>
<pdfrwt beam="1">  1       21 0.49313438E-01 0.20060287E+03</pdfrwt>
<pdfrwt beam="2">  1       21 0.68252493E-01 0.20060287E+03</pdfrwt>
<totfact> 0.76380725E+03</totfact>
</mgrwt>
</event>
<event>
 4    1  0.1100959E+000  0.3160917E+03  0.7546771E-02  0.1077462E+00
         21   -1    0    0  503  502  0.00000000000E+00  0.00000000000E+00  0.16542274764E+03  0.16542274764E+03  0.00000000000E+00 0. -1.
         21   -1    0    0  501  503 -0.00000000000E+00 -0.00000000000E+00 -0.60676840089E+03  0.60676840089E+03  0.00000000000E+00 0.  1.
          6    1    1    2  501    0 -0.22397495497E+03  0.14200416664E+03 -0.24679138514E+03  0.40102362969E+03  0.17200000000E+03 0.  1.
         -6    1    1    2    0  502  0.22397495497E+03 -0.14200416664E+03 -0.19455426811E+03  0.37116751883E+03  0.17200000000E+03 0. -1.
<mgrwt>
<rscale>  2 0.31609170E+03</rscale>
<asrwt>0</asrwt>
<pdfrwt beam="1">  1       21 0.41355687E-01 0.31609170E+03</pdfrwt>
<pdfrwt beam="2">  1       21 0.15169210E+00 0.31609170E+03</pdfrwt>
<totfact> 0.14843406E+03</totfact>
</mgrwt>
</event>
<event>
 4    1  0.1100959E+000  0.1886600E+03  0.7546771E-02  0.1159675E+00
         21   -1    0    0  501  502  0.00000000000E+00  0.00000000000E+00  0.24707409831E+03  0.24707409831E+03  0.00000000000E+00 0. -1.
         21   -1    0    0  502  503 -0.00000000000E+00 -0.00000000000E+00 -0.23449487558E+03  0.23449487558E+03  0.00000000000E+00 0. -1.
          6    1    1    2  501    0  0.72232191502E+02 -0.28126658840E+02  0.15582311418E+03  0.24469050112E+03  0.17200000000E+03 0. -1.
         -6    1    1    2    0  503 -0.72232191502E+02  0.28126658840E+02 -0.14324389144E+03  0.23687847277E+03  0.17200000000E+03 0. -1.
<mgrwt>
<rscale>  2 0.18866001E+03</rscale>
<asrwt>0</asrwt>
<pdfrwt beam="1">  1       21 0.61768525E-01 0.18866001E+03</pdfrwt>
<pdfrwt beam="2">  1       21 0.58623719E-01 0.18866001E+03</pdfrwt>
<totfact> 0.66487252E+03</totfact>
</mgrwt>
</event>
<event>
 4    1  0.1100959E+000  0.2110780E+03  0.7546771E-02  0.1140715E+00
         21   -1    0    0  503  502  0.00000000000E+00  0.00000000000E+00  0.11074234907E+03  0.11074234907E+03  0.00000000000E+00 0. -1.
         21   -1    0    0  501  503 -0.00000000000E+00 -0.00000000000E+00 -0.52707780945E+03  0.52707780945E+03  0.00000000000E+00 0. -1.
          6    1    1    2  501    0  0.11040495228E+03  0.52732198881E+02 -0.36332193459E+03  0.42018658527E+03  0.17200000000E+03 0. -1.
         -6    1    1    2    0  502 -0.11040495228E+03 -0.52732198881E+02 -0.53013525783E+02  0.21763357325E+03  0.17200000000E+03 0. -1.
<mgrwt>
<rscale>  2 0.21107804E+03</rscale>
<asrwt>0</asrwt>
<pdfrwt beam="1">  1       21 0.27685588E-01 0.21107804E+03</pdfrwt>
<pdfrwt beam="2">  1       21 0.13176945E+00 0.21107804E+03</pdfrwt>
<totfact> 0.51255586E+03</totfact>
</mgrwt>
</event>
<event>
 4    1  0.1100959E+000  0.2199037E+03  0.7546771E-02  0.1133955E+00
         21   -1    0    0  501  502  0.00000000000E+00  0.00000000000E+00  0.19357067644E+03  0.19357067644E+03  0.00000000000E+00 0. -1.
         21   -1    0    0  502  503 -0.00000000000E+00 -0.00000000000E+00 -0.43700498442E+03  0.43700498442E+03  0.00000000000E+00 0.  1.
          6    1    1    2  501    0 -0.43774700566E+02 -0.12983609392E+03  0.84631033950E+02  0.23562692461E+03  0.17200000000E+03 0. -1.
         -6    1    1    2    0  503  0.43774700566E+02  0.12983609392E+03 -0.32806534192E+03  0.39494873625E+03  0.17200000000E+03 0.  1.
<mgrwt>
<rscale>  2 0.21990370E+03</rscale>
<asrwt>0</asrwt>
<pdfrwt beam="1">  1       21 0.48392669E-01 0.21990370E+03</pdfrwt>
<pdfrwt beam="2">  1       21 0.10925125E+00 0.21990370E+03</pdfrwt>
<totfact> 0.26462576E+03</totfact>
</mgrwt>
</event>
<event>
 4    1  0.1100959E+000  0.2653066E+03  0.7546771E-02  0.1103996E+00
         21   -1    0    0  501  502  0.00000000000E+00  0.00000000000E+00  0.46933686649E+03  0.46933686649E+03  0.00000000000E+00 0.  1.
         21   -1    0    0  502  503 -0.00000000000E+00 -0.00000000000E+00 -0.33244111323E+03  0.33244111323E+03  0.00000000000E+00 0. -1.
          6    1    1    2  501    0  0.20130076036E+03  0.16780418951E+02  0.36545096389E+03  0.45159936402E+03  0.17200000000E+03 0.  1.
         -6    1    1    2    0  503 -0.20130076036E+03 -0.16780418951E+02 -0.22855521063E+03  0.35017861569E+03  0.17200000000E+03 0. -1.
<mgrwt>
<rscale>  2 0.26530657E+03</rscale>
<asrwt>0</asrwt>
<pdfrwt beam="1">  1       21 0.11733422E+00 0.26530657E+03</pdfrwt>
<pdfrwt beam="2">  1       21 0.83110279E-01 0.26530657E+03</pdfrwt>
<totfact> 0.65834527E+02</totfact>
</mgrwt>
</event>
<event>
 4    1  0.1100959E+000  0.1730245E+03  0.7546771E-02  0.1174730E+00
         21   -1    0    0  503  502  0.00000000000E+00  0.00000000000E+00  0.53759212765E+03  0.53759212765E+03  0.00000000000E+00 0. -1.
         21   -1    0    0  501  503 -0.00000000000E+00 -0.00000000000E+00 -0.66139217021E+02  0.66139217021E+02  0.00000000000E+00 0. -1.
          6    1    1    2  501    0  0.56946577109E+01 -0.17917772224E+02  0.11573069915E+03  0.20816116452E+03  0.17200000000E+03 0. -1.
         -6    1    1    2    0  502 -0.56946577109E+01  0.17917772224E+02  0.35572221148E+03  0.39557018015E+03  0.17200000000E+03 0. -1.
<mgrwt>
<rscale>  2 0.17302449E+03</rscale>
<asrwt>0</asrwt>
<pdfrwt beam="1">  1       21 0.13439802E+00 0.17302449E+03</pdfrwt>
<pdfrwt beam="2">  1       21 0.16534806E-01 0.17302449E+03</pdfrwt>
<totfact> 0.13229625E+04</totfact>
</mgrwt>
</event>
<event>
 4    1  0.1100959E+000  0.2677431E+03  0.7546771E-02  0.1102578E+00
         21   -1    0    0  501  502  0.00000000000E+00  0.00000000000E+00  0.49244063556E+03  0.49244063556E+03  0.00000000000E+00 0. -1.
         21   -1    0    0  502  503 -0.00000000000E+00 -0.00000000000E+00 -0.35187113494E+03  0.35187113494E+03  0.00000000000E+00 0.  1.
          6    1    1    2  501    0 -0.14172907906E+03  0.14837540720E+03  0.39352688561E+03  0.47597248135E+03  0.17200000000E+03 0. -1.
         -6    1    1    2    0  503  0.14172907906E+03 -0.14837540720E+03 -0.25295738498E+03  0.36833928915E+03  0.17200000000E+03 0.  1.
<mgrwt>
<rscale>  2 0.26774315E+03</rscale>
<asrwt>0</asrwt>
<pdfrwt beam="1">  1       21 0.12311016E+00 0.26774315E+03</pdfrwt>
<pdfrwt beam="2">  1       21 0.87967784E-01 0.26774315E+03</pdfrwt>
<totfact> 0.51090554E+02</totfact>
</mgrwt>
</event>
<event>
 4    1  0.1100959E+000  0.1801735E+03  0.7546771E-02  0.1167635E+00
         21   -1    0    0  503  502  0.00000000000E+00  0.00000000000E+00  0.23388325197E+03  0.23388325197E+03  0.00000000000E+00 0.  1.
         21   -1    0    0  501  503 -0.00000000000E+00 -0.00000000000E+00 -0.37194981420E+03  0.37194981420E+03  0.00000000000E+00 0.  1.
          6    1    1    2  501    0 -0.53630027234E+02  0.15178610564E+01 -0.30886155344E+03  0.35757229048E+03  0.17200000000E+03 0.  1.
         -6    1    1    2    0  502  0.53630027234E+02 -0.15178610564E+01  0.17079499121E+03  0.24826077569E+03  0.17200000000E+03 0.  1.
<mgrwt>
<rscale>  2 0.18017348E+03</rscale>
<asrwt>0</asrwt>
<pdfrwt beam="1">  1       21 0.58470813E-01 0.18017348E+03</pdfrwt>
<pdfrwt beam="2">  1       21 0.92987453E-01 0.18017348E+03</pdfrwt>
<totfact> 0.26967005E+03</totfact>
</mgrwt>
</event>
<event>
 4    1  0.1100959E+000  0.2315368E+03  0.7546771E-02  0.1125563E+00
         21   -1    0    0  503  502  0.00000000000E+00  0.00000000000E+00  0.84496262868E+02  0.84496262868E+02  0.00000000000E+00 0.  1.
         21   -1    0    0  501  503 -0.00000000000E+00 -0.00000000000E+00 -0.69511032775E+03  0.69511032775E+03  0.00000000000E+00 0. -1.
          6    1    1    2  501    0 -0.12485866677E+03  0.91845614539E+02 -0.42045160964E+03  0.47998839530E+03  0.17200000000E+03 0. -1.
         -6    1    1    2    0  502  0.12485866677E+03 -0.91845614539E+02 -0.19016245524E+03  0.29961819531E+03  0.17200000000E+03 0.  1.
<mgrwt>
<rscale>  2 0.23153683E+03</rscale>
<asrwt>0</asrwt>
<pdfrwt beam="1">  1       21 0.21124066E-01 0.23153683E+03</pdfrwt>
<pdfrwt beam="2">  1       21 0.17377758E+00 0.23153683E+03</pdfrwt>
<totfact> 0.40483886E+03</totfact>
</mgrwt>
</event>
<event>
 4    1  0.1100959E+000  0.1795057E+03  0.7546771E-02  0.1168282E+00
         21   -1    0    0  501  502  0.00000000000E+00  0.00000000000E+00  0.14489985821E+04  0.14489985821E+04  0.00000000000E+00 0. -1.
         21   -1    0    0  502  503 -0.00000000000E+00 -0.00000000000E+00 -0.23335184622E+02  0.23335184622E+02  0.00000000000E+00 0. -1.
          6    1    1    2  501    0  0.51301329671E+02 -0.25408387435E+01  0.55317565135E+03  0.58157164953E+03  0.17200000000E+03 0. -1.
         -6    1    1    2    0  503 -0.51301329671E+02  0.25408387435E+01  0.87248774615E+03  0.89076211722E+03  0.17200000000E+03 0. -1.
<mgrwt>
<rscale>  2 0.17950566E+03</rscale>
<asrwt>0</asrwt>
<pdfrwt beam="1">  1       21 0.36224934E+00 0.17950566E+03</pdfrwt>
<pdfrwt beam="2">  1       21 0.58338010E-02 0.17950566E+03</pdfrwt>
<totfact> 0.31174083E+03</totfact>
</mgrwt>
</event>
<event>
 4    1  0.1100959E+000  0.1742500E+03  0.7546771E-02  0.1173487E+00
         21   -1    0    0  501  502  0.00000000000E+00  0.00000000000E+00  0.16955218145E+03  0.16955218145E+03  0.00000000000E+00 0. -1.
         21   -1    0    0  502  503 -0.00000000000E+00 -0.00000000000E+00 -0.24960634330E+03  0.24960634330E+03  0.00000000000E+00 0. -1.
          6    1    1    2  501    0  0.20090322191E+02  0.19376021062E+02  0.71377384659E+02  0.18830236929E+03  0.17200000000E+03 0. -1.
         -6    1    1    2    0  503 -0.20090322191E+02 -0.19376021062E+02 -0.15143154651E+03  0.23085615547E+03  0.17200000000E+03 0. -1.
<mgrwt>
<rscale>  2 0.17424997E+03</rscale>
<asrwt>0</asrwt>
<pdfrwt beam="1">  1       21 0.42388046E-01 0.17424997E+03</pdfrwt>
<pdfrwt beam="2">  1       21 0.62401585E-01 0.17424997E+03</pdfrwt>
<totfact> 0.12908611E+04</totfact>
</mgrwt>
</event>
<event>
 4    1  0.1100959E+000  0.2579952E+03  0.7546771E-02  0.1108354E+00
         21   -1    0    0  503  502  0.00000000000E+00  0.00000000000E+00  0.49554643043E+03  0.49554643043E+03  0.00000000000E+00 0.  1.
         21   -1    0    0  501  503 -0.00000000000E+00 -0.00000000000E+00 -0.19277485831E+03  0.19277485831E+03  0.00000000000E+00 0.  1.
          6    1    1    2  501    0  0.16724963595E+03 -0.94895044624E+02 -0.38131340163E+02  0.26079783228E+03  0.17200000000E+03 0.  1.
         -6    1    1    2    0  502 -0.16724963595E+03  0.94895044624E+02  0.34090291229E+03  0.42752345646E+03  0.17200000000E+03 0.  1.
<mgrwt>
<rscale>  2 0.25799517E+03</rscale>
<asrwt>0</asrwt>
<pdfrwt beam="1">  1       21 0.12388661E+00 0.25799517E+03</pdfrwt>
<pdfrwt beam="2">  1       21 0.48193716E-01 0.25799517E+03</pdfrwt>
<totfact> 0.19016930E+03</totfact>
</mgrwt>
</event>
<event>
 4    1  0.1100959E+000  0.1931928E+03  0.7546771E-02  0.1155613E+00
         21   -1    0    0  503  502  0.00000000000E+00  0.00000000000E+00  0.50243904204E+03  0.50243904204E+03  0.00000000000E+00 0.  1.
         21   -1    0    0  501  503 -0.00000000000E+00 -0.00000000000E+00 -0.77183618709E+02  0.77183618709E+02  0.00000000000E+00 0. -1.
          6    1    1    2  501    0 -0.41098906178E+01 -0.87878047692E+02  0.15646030361E+03  0.24860263288E+03  0.17200000000E+03 0. -1.
         -6    1    1    2    0  502  0.41098906178E+01  0.87878047692E+02  0.26879511972E+03  0.33102002787E+03  0.17200000000E+03 0.  1.
<mgrwt>
<rscale>  2 0.19319276E+03</rscale>
<asrwt>0</asrwt>
<pdfrwt beam="1">  1       21 0.12560975E+00 0.19319276E+03</pdfrwt>
<pdfrwt beam="2">  1       21 0.19295906E-01 0.19319276E+03</pdfrwt>
<totfact> 0.11625943E+04</totfact>
</mgrwt>
</event>
<event>
 4    1  0.1100959E+000  0.1841111E+03  0.7546771E-02  0.1163883E+00
         21   -1    0    0  503  502  0.00000000000E+00  0.00000000000E+00  0.85475913552E+02  0.85475913552E+02  0.00000000000E+00 0. -1.
         21   -1    0    0  501  503 -0.00000000000E+00 -0.00000000000E+00 -0.43761002804E+03  0.43761002804E+03  0.00000000000E+00 0. -1.
          6    1    1    2  501    0  0.65298827320E+02  0.69966427340E+01 -0.95969108981E+02  0.20762215618E+03  0.17200000000E+03 0. -1.
         -6    1    1    2    0  502 -0.65298827320E+02 -0.69966427340E+01 -0.25616500550E+03  0.31546378541E+03  0.17200000000E+03 0. -1.
<mgrwt>
<rscale>  2 0.18411108E+03</rscale>
<asrwt>0</asrwt>
<pdfrwt beam="1">  1       21 0.21368979E-01 0.18411108E+03</pdfrwt>
<pdfrwt beam="2">  1       21 0.10940251E+00 0.18411108E+03</pdfrwt>
<totfact> 0.13571334E+04</totfact>
</mgrwt>
</event>
<event>
 4    1  0.1100959E+000  0.1800825E+03  0.7546771E-02  0.1167723E+00
         21   -1    0    0  501  502  0.00000000000E+00  0.00000000000E+00  0.46176624960E+02  0.46176624960E+02  0.00000000000E+00 0.  1.
         21   -1    0    0  502  503 -0.00000000000E+00 -0.00000000000E+00 -0.10195887719E+04  0.10195887719E+04  0.00000000000E+00 0.  1.
          6    1    1    2  501    0  0.52915505924E+02  0.67562986572E+01 -0.18943777031E+03  0.26137399863E+03  0.17200000000E+03 0.  1.
         -6    1    1    2    0  503 -0.52915505924E+02 -0.67562986572E+01 -0.78397437664E+03  0.80439139825E+03  0.17200000000E+03 0.  1.
<mgrwt>
<rscale>  2 0.18008248E+03</rscale>
<asrwt>0</asrwt>
<pdfrwt beam="1">  1       21 0.11544157E-01 0.18008248E+03</pdfrwt>
<pdfrwt beam="2">  1       21 0.25489719E+00 0.18008248E+03</pdfrwt>
<totfact> 0.39687688E+03</totfact>
</mgrwt>
</event>
<event>
 4    1  0.1100959E+000  0.2026808E+03  0.7546771E-02  0.1147497E+00
         21   -1    0    0  503  502  0.00000000000E+00  0.00000000000E+00  0.87043228225E+02  0.87043228225E+02  0.00000000000E+00 0.  1.
         21   -1    0    0  501  503 -0.00000000000E+00 -0.00000000000E+00 -0.47305421761E+03  0.47305421761E+03  0.00000000000E+00 0. -1.
          6    1    1    2  501    0 -0.10042158671E+03  0.37563183168E+02 -0.20657535613E+03  0.28940087347E+03  0.17200000000E+03 0.  1.
         -6    1    1    2    0  502  0.10042158671E+03 -0.37563183168E+02 -0.17943563326E+03  0.27069657236E+03  0.17200000000E+03 0. -1.
<mgrwt>
<rscale>  2 0.20268075E+03</rscale>
<asrwt>0</asrwt>
<pdfrwt beam="1">  1       21 0.21760807E-01 0.20268075E+03</pdfrwt>
<pdfrwt beam="2">  1       21 0.11826355E+00 0.20268075E+03</pdfrwt>
<totfact> 0.10711673E+04</totfact>
</mgrwt>
</event>
<event>
 4    1  0.1100959E+000  0.2413684E+03  0.7546771E-02  0.1118885E+00
         21   -1    0    0  501  502  0.00000000000E+00  0.00000000000E+00  0.21906748464E+03  0.21906748464E+03  0.00000000000E+00 0. -1.
         21   -1    0    0  502  503 -0.00000000000E+00 -0.00000000000E+00 -0.50669090913E+03  0.50669090913E+03  0.00000000000E+00 0. -1.
          6    1    1    2  501    0 -0.90054183951E+01  0.16909649866E+03  0.10632349659E+03  0.26374876179E+03  0.17200000000E+03 0. -1.
         -6    1    1    2    0  503  0.90054183951E+01 -0.16909649866E+03 -0.39394692108E+03  0.46200963199E+03  0.17200000000E+03 0. -1.
<mgrwt>
<rscale>  2 0.24136844E+03</rscale>
<asrwt>0</asrwt>
<pdfrwt beam="1">  1       21 0.54766871E-01 0.24136844E+03</pdfrwt>
<pdfrwt beam="2">  1       21 0.12667273E+00 0.24136844E+03</pdfrwt>
<totfact> 0.13903905E+03</totfact>
</mgrwt>
</event>
<event>
 4    1  0.1100959E+000  0.1901199E+03  0.7546771E-02  0.1158353E+00
         21   -1    0    0  501  502  0.00000000000E+00  0.00000000000E+00  0.20117845918E+03  0.20117845918E+03  0.00000000000E+00 0.  1.
         21   -1    0    0  502  503 -0.00000000000E+00 -0.00000000000E+00 -0.20292273084E+03  0.20292273084E+03  0.00000000000E+00 0.  1.
          6    1    1    2  501    0 -0.67605453934E+02 -0.44621520776E+02  0.67525173818E+02  0.20175536329E+03  0.17200000000E+03 0.  1.
         -6    1    1    2    0  503  0.67605453934E+02  0.44621520776E+02 -0.69269445482E+02  0.20234582673E+03  0.17200000000E+03 0.  1.
<mgrwt>
<rscale>  2 0.19011990E+03</rscale>
<asrwt>0</asrwt>
<pdfrwt beam="1">  1       21 0.50294615E-01 0.19011990E+03</pdfrwt>
<pdfrwt beam="2">  1       21 0.50730683E-01 0.19011990E+03</pdfrwt>
<totfact> 0.13937574E+04</totfact>
</mgrwt>
</event>
<event>
 4    1  0.1100959E+000  0.3008184E+03  0.7546771E-02  0.1084832E+00
         21   -1    0    0  503  502  0.00000000000E+00  0.00000000000E+00  0.74876814175E+03  0.74876814175E+03  0.00000000000E+00 0.  1.
         21   -1    0    0  501  503 -0.00000000000E+00 -0.00000000000E+00 -0.14282253948E+03  0.14282253948E+03  0.00000000000E+00 0. -1.
          6    1    1    2  501    0  0.22092593107E+03 -0.10999744625E+03  0.12813445756E+03  0.32697116756E+03  0.17200000000E+03 0. -1.
         -6    1    1    2    0  502 -0.22092593107E+03  0.10999744625E+03  0.47781114472E+03  0.56461951367E+03  0.17200000000E+03 0.  1.
<mgrwt>
<rscale>  2 0.30081839E+03</rscale>
<asrwt>0</asrwt>
<pdfrwt beam="1">  1       21 0.18719202E+00 0.30081839E+03</pdfrwt>
<pdfrwt beam="2">  1       21 0.35705637E-01 0.30081839E+03</pdfrwt>
<totfact> 0.11206140E+03</totfact>
</mgrwt>
</event>
<event>
 4    1  0.1100959E+000  0.2288028E+03  0.7546771E-02  0.1127485E+00
         21   -1    0    0  503  502  0.00000000000E+00  0.00000000000E+00  0.17813617777E+03  0.17813617777E+03  0.00000000000E+00 0.  1.
         21   -1    0    0  501  503 -0.00000000000E+00 -0.00000000000E+00 -0.30516901926E+03  0.30516901926E+03  0.00000000000E+00 0.  1.
          6    1    1    2  501    0  0.12421024730E+03 -0.85665279465E+02 -0.10999386723E+03  0.25386881744E+03  0.17200000000E+03 0.  1.
         -6    1    1    2    0  502 -0.12421024730E+03  0.85665279465E+02 -0.17038974261E+02  0.22943637960E+03  0.17200000000E+03 0.  1.
<mgrwt>
<rscale>  2 0.22880281E+03</rscale>
<asrwt>0</asrwt>
<pdfrwt beam="1">  1       21 0.44534045E-01 0.22880281E+03</pdfrwt>
<pdfrwt beam="2">  1       21 0.76292255E-01 0.22880281E+03</pdfrwt>
<totfact> 0.72242155E+03</totfact>
</mgrwt>
</event>
<event>
 4    1  0.1100959E+000  0.1815332E+03  0.7546771E-02  0.1166327E+00
         21   -1    0    0  503  502  0.00000000000E+00  0.00000000000E+00  0.13036062796E+03  0.13036062796E+03  0.00000000000E+00 0.  1.
         21   -1    0    0  501  503 -0.00000000000E+00 -0.00000000000E+00 -0.51997859027E+03  0.51997859027E+03  0.00000000000E+00 0.  1.
          6    1    1    2  501    0 -0.19196152487E+02  0.54788808669E+02 -0.42789885791E+03  0.46481365990E+03  0.17200000000E+03 0.  1.
         -6    1    1    2    0  502  0.19196152487E+02 -0.54788808669E+02  0.38280895610E+02  0.18552555833E+03  0.17200000000E+03 0.  1.
<mgrwt>
<rscale>  2 0.18153321E+03</rscale>
<asrwt>0</asrwt>
<pdfrwt beam="1">  1       21 0.32590157E-01 0.18153321E+03</pdfrwt>
<pdfrwt beam="2">  1       21 0.12999465E+00 0.18153321E+03</pdfrwt>
<totfact> 0.39547461E+03</totfact>
</mgrwt>
</event>
<event>
 4    1  0.1100959E+000  0.1759491E+03  0.7546771E-02  0.1171782E+00
         21   -1    0    0  501  502  0.00000000000E+00  0.00000000000E+00  0.54862001067E+03  0.54862001067E+03  0.00000000000E+00 0.  1.
         21   -1    0    0  502  503 -0.00000000000E+00 -0.00000000000E+00 -0.13086781410E+03  0.13086781410E+03  0.00000000000E+00 0.  1.
          6    1    1    2  501    0  0.16580679792E+02  0.33153555020E+02  0.46510905613E+03  0.49727709705E+03  0.17200000000E+03 0.  1.
         -6    1    1    2    0  503 -0.16580679792E+02 -0.33153555020E+02 -0.47356859555E+02  0.18221072773E+03  0.17200000000E+03 0.  1.
<mgrwt>
<rscale>  2 0.17594908E+03</rscale>
<asrwt>0</asrwt>
<pdfrwt beam="1">  1       21 0.13715500E+00 0.17594908E+03</pdfrwt>
<pdfrwt beam="2">  1       21 0.32716955E-01 0.17594908E+03</pdfrwt>
<totfact> 0.34438527E+03</totfact>
</mgrwt>
</event>
<event>
 4    1  0.1100959E+000  0.2234758E+03  0.7546771E-02  0.1131318E+00
         21   -1    0    0  501  502  0.00000000000E+00  0.00000000000E+00  0.61762861644E+02  0.61762861644E+02  0.00000000000E+00 0.  1.
         21   -1    0    0  502  503 -0.00000000000E+00 -0.00000000000E+00 -0.90221642232E+03  0.90221642232E+03  0.00000000000E+00 0. -1.
          6    1    1    2  501    0 -0.12961153023E+03  0.59651482801E+02 -0.57548636757E+03  0.61735403734E+03  0.17200000000E+03 0. -1.
         -6    1    1    2    0  503  0.12961153023E+03 -0.59651482801E+02 -0.26496719311E+03  0.34662524662E+03  0.17200000000E+03 0.  1.
<mgrwt>
<rscale>  2 0.22347583E+03</rscale>
<asrwt>0</asrwt>
<pdfrwt beam="1">  1       21 0.15440716E-01 0.22347583E+03</pdfrwt>
<pdfrwt beam="2">  1       21 0.22555410E+00 0.22347583E+03</pdfrwt>
<totfact> 0.33598225E+03</totfact>
</mgrwt>
</event>
<event>
 4    1  0.1100959E+000  0.1944321E+03  0.7546771E-02  0.1154524E+00
         21   -1    0    0  501  502  0.00000000000E+00  0.00000000000E+00  0.22942430930E+03  0.22942430930E+03  0.00000000000E+00 0. -1.
         21   -1    0    0  502  503 -0.00000000000E+00 -0.00000000000E+00 -0.35463026452E+03  0.35463026452E+03  0.00000000000E+00 0. -1.
          6    1    1    2  501    0 -0.80475036522E+02  0.41756586796E+02  0.15106753751E+03  0.24622194243E+03  0.17200000000E+03 0. -1.
         -6    1    1    2    0  503  0.80475036522E+02 -0.41756586796E+02 -0.27627349274E+03  0.33783263139E+03  0.17200000000E+03 0. -1.
<mgrwt>
<rscale>  2 0.19443211E+03</rscale>
<asrwt>0</asrwt>
<pdfrwt beam="1">  1       21 0.57356078E-01 0.19443211E+03</pdfrwt>
<pdfrwt beam="2">  1       21 0.88657566E-01 0.19443211E+03</pdfrwt>
<totfact> 0.30991815E+03</totfact>
</mgrwt>
</event>
<event>
 4    1  0.1100959E+000  0.1860548E+03  0.7546771E-02  0.1162069E+00
         21   -1    0    0  503  502  0.00000000000E+00  0.00000000000E+00  0.28221880646E+03  0.28221880646E+03  0.00000000000E+00 0. -1.
         21   -1    0    0  501  503 -0.00000000000E+00 -0.00000000000E+00 -0.12677605123E+03  0.12677605123E+03  0.00000000000E+00 0.  1.
          6    1    1    2  501    0 -0.43920171928E+01 -0.70803288479E+02  0.40864808405E+02  0.19048970586E+03  0.17200000000E+03 0.  1.
         -6    1    1    2    0  502  0.43920171928E+01  0.70803288479E+02  0.11457794683E+03  0.21850515182E+03  0.17200000000E+03 0. -1.
<mgrwt>
<rscale>  2 0.18605482E+03</rscale>
<asrwt>0</asrwt>
<pdfrwt beam="1">  1       21 0.70554700E-01 0.18605482E+03</pdfrwt>
<pdfrwt beam="2">  1       21 0.31694013E-01 0.18605482E+03</pdfrwt>
<totfact> 0.17498909E+04</totfact>
</mgrwt>
</event>
<event>
 4    1  0.1100959E+000  0.1779763E+03  0.7546771E-02  0.1169776E+00
         21   -1    0    0  503  502  0.00000000000E+00  0.00000000000E+00  0.15541587987E+03  0.15541587987E+03  0.00000000000E+00 0. -1.
         21   -1    0    0  501  503 -0.00000000000E+00 -0.00000000000E+00 -0.20459964857E+03  0.20459964857E+03  0.00000000000E+00 0. -1.
          6    1    1    2  501    0 -0.43970181884E+02  0.12577078710E+02 -0.13420316873E+02  0.17848155285E+03  0.17200000000E+03 0.  1.
         -6    1    1    2    0  502  0.43970181884E+02 -0.12577078710E+02 -0.35763451825E+02  0.18153397558E+03  0.17200000000E+03 0.  1.
<mgrwt>
<rscale>  2 0.17797629E+03</rscale>
<asrwt>0</asrwt>
<pdfrwt beam="1">  1       21 0.38853970E-01 0.17797629E+03</pdfrwt>
<pdfrwt beam="2">  1       21 0.51149912E-01 0.17797629E+03</pdfrwt>
<totfact> 0.23405982E+04</totfact>
</mgrwt>
</event>
<event>
 4    1  0.1100959E+000  0.1789387E+03  0.7546771E-02  0.1168834E+00
         21   -1    0    0  503  502  0.00000000000E+00  0.00000000000E+00  0.59646388309E+03  0.59646388309E+03  0.00000000000E+00 0.  1.
         21   -1    0    0  501  503 -0.00000000000E+00 -0.00000000000E+00 -0.13925118881E+03  0.13925118881E+03  0.00000000000E+00 0. -1.
          6    1    1    2  501    0  0.28815996406E+02 -0.40058728967E+02 -0.59757115130E+02  0.18865305782E+03  0.17200000000E+03 0. -1.
         -6    1    1    2    0  502 -0.28815996406E+02  0.40058728967E+02  0.51696980941E+03  0.54706201408E+03  0.17200000000E+03 0.  1.
<mgrwt>
<rscale>  2 0.17893871E+03</rscale>
<asrwt>0</asrwt>
<pdfrwt beam="1">  1       21 0.14911596E+00 0.17893871E+03</pdfrwt>
<pdfrwt beam="2">  1       21 0.34812799E-01 0.17893871E+03</pdfrwt>
<totfact> 0.24464981E+03</totfact>
</mgrwt>
</event>
<event>
 4    1  0.1100959E+000  0.2509364E+03  0.7546771E-02  0.1112714E+00
         21   -1    0    0  501  502  0.00000000000E+00  0.00000000000E+00  0.20532451260E+03  0.20532451260E+03  0.00000000000E+00 0. -1.
         21   -1    0    0  502  503 -0.00000000000E+00 -0.00000000000E+00 -0.38057607190E+03  0.38057607190E+03  0.00000000000E+00 0. -1.
          6    1    1    2  501    0  0.17619466441E+03  0.48379148819E+02  0.41460859073E+02  0.25433856303E+03  0.17200000000E+03 0. -1.
         -6    1    1    2    0  503 -0.17619466441E+03 -0.48379148819E+02 -0.21671241837E+03  0.33156202148E+03  0.17200000000E+03 0. -1.
<mgrwt>
<rscale>  2 0.25093645E+03</rscale>
<asrwt>0</asrwt>
<pdfrwt beam="1">  1       21 0.51331129E-01 0.25093645E+03</pdfrwt>
<pdfrwt beam="2">  1       21 0.95144017E-01 0.25093645E+03</pdfrwt>
<totfact> 0.31852721E+03</totfact>
</mgrwt>
</event>
<event>
 4    1  0.1100959E+000  0.2137460E+03  0.7546771E-02  0.1138633E+00
         21   -1    0    0  501  502  0.00000000000E+00  0.00000000000E+00  0.25282640320E+03  0.25282640320E+03  0.00000000000E+00 0.  1.
         21   -1    0    0  502  503 -0.00000000000E+00 -0.00000000000E+00 -0.22460182705E+03  0.22460182705E+03  0.00000000000E+00 0.  1.
          6    1    1    2  501    0 -0.12135924758E+03 -0.37084950219E+02  0.11964348750E+03  0.24495290284E+03  0.17200000000E+03 0.  1.
         -6    1    1    2    0  503  0.12135924758E+03  0.37084950219E+02 -0.91418911347E+02  0.23247532742E+03  0.17200000000E+03 0.  1.
<mgrwt>
<rscale>  2 0.21374602E+03</rscale>
<asrwt>0</asrwt>
<pdfrwt beam="1">  1       21 0.63206601E-01 0.21374602E+03</pdfrwt>
<pdfrwt beam="2">  1       21 0.56150457E-01 0.21374602E+03</pdfrwt>
<totfact> 0.68093239E+03</totfact>
</mgrwt>
</event>
<event>
 4    1  0.1100959E+000  0.2727229E+03  0.7546771E-02  0.1099731E+00
         21   -1    0    0  503  502  0.00000000000E+00  0.00000000000E+00  0.62416017898E+03  0.62416017898E+03  0.00000000000E+00 0.  1.
         21   -1    0    0  501  503 -0.00000000000E+00 -0.00000000000E+00 -0.12696609741E+03  0.12696609741E+03  0.00000000000E+00 0.  1.
          6    1    1    2  501    0  0.11266661262E+03  0.17916469388E+03  0.15550124640E+03  0.31394010697E+03  0.17200000000E+03 0.  1.
         -6    1    1    2    0  502 -0.11266661262E+03 -0.17916469388E+03  0.34169283517E+03  0.43718616943E+03  0.17200000000E+03 0.  1.
<mgrwt>
<rscale>  2 0.27272285E+03</rscale>
<asrwt>0</asrwt>
<pdfrwt beam="1">  1       21 0.15604004E+00 0.27272285E+03</pdfrwt>
<pdfrwt beam="2">  1       21 0.31741526E-01 0.27272285E+03</pdfrwt>
<totfact> 0.24091915E+03</totfact>
</mgrwt>
</event>
<event>
 4    1  0.1100959E+000  0.1991583E+03  0.7546771E-02  0.1150451E+00
         21   -1    0    0  503  502  0.00000000000E+00  0.00000000000E+00  0.27869552388E+03  0.27869552388E+03  0.00000000000E+00 0.  1.
         21   -1    0    0  501  503 -0.00000000000E+00 -0.00000000000E+00 -0.17233807382E+03  0.17233807382E+03  0.00000000000E+00 0.  1.
          6    1    1    2  501    0  0.93028001032E+02  0.37759879509E+02 -0.40940395675E+02  0.20332273231E+03  0.17200000000E+03 0.  1.
         -6    1    1    2    0  502 -0.93028001032E+02 -0.37759879509E+02  0.14729784573E+03  0.24771086539E+03  0.17200000000E+03 0.  1.
<mgrwt>
<rscale>  2 0.19915827E+03</rscale>
<asrwt>0</asrwt>
<pdfrwt beam="1">  1       21 0.69673880E-01 0.19915827E+03</pdfrwt>
<pdfrwt beam="2">  1       21 0.43084519E-01 0.19915827E+03</pdfrwt>
<totfact> 0.96535777E+03</totfact>
</mgrwt>
</event>
<event>
 4    1  0.1100959E+000  0.2010501E+03  0.7546771E-02  0.1148856E+00
         21   -1    0    0  503  502  0.00000000000E+00  0.00000000000E+00  0.18859854195E+03  0.18859854195E+03  0.00000000000E+00 0.  1.
         21   -1    0    0  501  503 -0.00000000000E+00 -0.00000000000E+00 -0.24740233329E+03  0.24740233329E+03  0.00000000000E+00 0.  1.
          6    1    1    2  501    0 -0.10410148482E+03  0.13562078241E+00 -0.10911491166E+03  0.22875139668E+03  0.17200000000E+03 0. -1.
         -6    1    1    2    0  502  0.10410148482E+03 -0.13562078241E+00  0.50311120317E+02  0.20724947856E+03  0.17200000000E+03 0. -1.
<mgrwt>
<rscale>  2 0.20105009E+03</rscale>
<asrwt>0</asrwt>
<pdfrwt beam="1">  1       21 0.47149636E-01 0.20105009E+03</pdfrwt>
<pdfrwt beam="2">  1       21 0.61850583E-01 0.20105009E+03</pdfrwt>
<totfact> 0.10387233E+04</totfact>
</mgrwt>
</event>
<event>
 4    1  0.1100959E+000  0.1886795E+03  0.7546771E-02  0.1159658E+00
         21   -1    0    0  501  502  0.00000000000E+00  0.00000000000E+00  0.16532556619E+03  0.16532556619E+03  0.00000000000E+00 0. -1.
         21   -1    0    0  502  503 -0.00000000000E+00 -0.00000000000E+00 -0.27478506862E+03  0.27478506862E+03  0.00000000000E+00 0.  1.
          6    1    1    2  501    0 -0.73522847471E+02 -0.24705504265E+02  0.47627952632E+02  0.19459802906E+03  0.17200000000E+03 0. -1.
         -6    1    1    2    0  503  0.73522847471E+02  0.24705504265E+02 -0.15708745506E+03  0.24551260574E+03  0.17200000000E+03 0.  1.
<mgrwt>
<rscale>  2 0.18867955E+03</rscale>
<asrwt>0</asrwt>
<pdfrwt beam="1">  1       21 0.41331392E-01 0.18867955E+03</pdfrwt>
<pdfrwt beam="2">  1       21 0.68696267E-01 0.18867955E+03</pdfrwt>
<totfact> 0.10915699E+04</totfact>
</mgrwt>
</event>
<event>
 4    1  0.1100959E+000  0.2181185E+03  0.7546771E-02  0.1135294E+00
         21   -1    0    0  503  502  0.00000000000E+00  0.00000000000E+00  0.25188165018E+03  0.25188165018E+03  0.00000000000E+00 0. -1.
         21   -1    0    0  501  503 -0.00000000000E+00 -0.00000000000E+00 -0.35297731319E+03  0.35297731319E+03  0.00000000000E+00 0. -1.
          6    1    1    2  501    0  0.10154565417E+03 -0.87636407254E+02 -0.25675327753E+03  0.33689450171E+03  0.17200000000E+03 0. -1.
         -6    1    1    2    0  502 -0.10154565417E+03  0.87636407254E+02  0.15565761452E+03  0.26796446167E+03  0.17200000000E+03 0. -1.
<mgrwt>
<rscale>  2 0.21811845E+03</rscale>
<asrwt>0</asrwt>
<pdfrwt beam="1">  1       21 0.62970413E-01 0.21811845E+03</pdfrwt>
<pdfrwt beam="2">  1       21 0.88244327E-01 0.21811845E+03</pdfrwt>
<totfact> 0.25124964E+03</totfact>
</mgrwt>
</event>
<event>
 4    1  0.1100959E+000  0.2016869E+03  0.7546771E-02  0.1148324E+00
         21   -1    0    0  503  502  0.00000000000E+00  0.00000000000E+00  0.83800986014E+02  0.83800986014E+02  0.00000000000E+00 0. -1.
         21   -1    0    0  501  503 -0.00000000000E+00 -0.00000000000E+00 -0.75487485302E+03  0.75487485302E+03  0.00000000000E+00 0.  1.
          6    1    1    2  501    0  0.11312067832E+02  0.10471689053E+03 -0.58607867500E+03  0.61981110295E+03  0.17200000000E+03 0.  1.
         -6    1    1    2    0  502 -0.11312067832E+02 -0.10471689053E+03 -0.84995192006E+02  0.21886473609E+03  0.17200000000E+03 0. -1.
<mgrwt>
<rscale>  2 0.20168686E+03</rscale>
<asrwt>0</asrwt>
<pdfrwt beam="1">  1       21 0.20950246E-01 0.20168686E+03</pdfrwt>
<pdfrwt beam="2">  1       21 0.18871871E+00 0.20168686E+03</pdfrwt>
<totfact> 0.33368493E+03</totfact>
</mgrwt>
</event>
<event>
 4    1  0.1100959E+000  0.2216004E+03  0.7546771E-02  0.1132695E+00
         21   -1    0    0  501  502  0.00000000000E+00  0.00000000000E+00  0.26113912796E+03  0.26113912796E+03  0.00000000000E+00 0. -1.
         21   -1    0    0  502  503 -0.00000000000E+00 -0.00000000000E+00 -0.27373059378E+03  0.27373059378E+03  0.00000000000E+00 0.  1.
          6    1    1    2  501    0 -0.83988884733E+02 -0.11166297698E+03  0.14332853716E+03  0.26391252860E+03  0.17200000000E+03 0. -1.
         -6    1    1    2    0  503  0.83988884733E+02  0.11166297698E+03 -0.15592000298E+03  0.27095719314E+03  0.17200000000E+03 0.  1.
<mgrwt>
<rscale>  2 0.22160044E+03</rscale>
<asrwt>0</asrwt>
<pdfrwt beam="1">  1       21 0.65284782E-01 0.22160044E+03</pdfrwt>
<pdfrwt beam="2">  1       21 0.68432648E-01 0.22160044E+03</pdfrwt>
<totfact> 0.41113845E+03</totfact>
</mgrwt>
</event>
<event>
 4    1  0.1100959E+000  0.1722929E+03  0.7546771E-02  0.1175478E+00
         21   -1    0    0  501  502  0.00000000000E+00  0.00000000000E+00  0.51205636839E+02  0.51205636839E+02  0.00000000000E+00 0.  1.
         21   -1    0    0  502  503 -0.00000000000E+00 -0.00000000000E+00 -0.59566491527E+03  0.59566491527E+03  0.00000000000E+00 0.  1.
          6    1    1    2  501    0 -0.48225917785E+01 -0.88087964540E+01 -0.21930978662E+03  0.27889359045E+03  0.17200000000E+03 0.  1.
         -6    1    1    2    0  503  0.48225917785E+01  0.88087964540E+01 -0.32514949181E+03  0.36797696166E+03  0.17200000000E+03 0.  1.
<mgrwt>
<rscale>  2 0.17229293E+03</rscale>
<asrwt>0</asrwt>
<pdfrwt beam="1">  1       21 0.12801409E-01 0.17229293E+03</pdfrwt>
<pdfrwt beam="2">  1       21 0.14891623E+00 0.17229293E+03</pdfrwt>
<totfact> 0.16154666E+04</totfact>
</mgrwt>
</event>
<event>
 4    1  0.1100959E+000  0.1740696E+03  0.7546771E-02  0.1173669E+00
         21   -1    0    0  503  502  0.00000000000E+00  0.00000000000E+00  0.28111580656E+03  0.28111580656E+03  0.00000000000E+00 0.  1.
         21   -1    0    0  501  503 -0.00000000000E+00 -0.00000000000E+00 -0.25040283854E+03  0.25040283854E+03  0.00000000000E+00 0.  1.
          6    1    1    2  501    0  0.23762383982E+02 -0.12311332778E+02 -0.18520843975E+03  0.25416999422E+03  0.17200000000E+03 0.  1.
         -6    1    1    2    0  502 -0.23762383982E+02  0.12311332778E+02  0.21592140777E+03  0.27734865087E+03  0.17200000000E+03 0.  1.
<mgrwt>
<rscale>  2 0.17406958E+03</rscale>
<asrwt>0</asrwt>
<pdfrwt beam="1">  1       21 0.70278952E-01 0.17406958E+03</pdfrwt>
<pdfrwt beam="2">  1       21 0.62600710E-01 0.17406958E+03</pdfrwt>
<totfact> 0.44103718E+03</totfact>
</mgrwt>
</event>
<event>
 4    1  0.1100959E+000  0.2335916E+03  0.7546771E-02  0.1124137E+00
         21   -1    0    0  503  502  0.00000000000E+00  0.00000000000E+00  0.57174286969E+03  0.57174286969E+03  0.00000000000E+00 0.  1.
         21   -1    0    0  501  503 -0.00000000000E+00 -0.00000000000E+00 -0.17210243749E+03  0.17210243749E+03  0.00000000000E+00 0. -1.
          6    1    1    2  501    0 -0.14774994354E+03  0.56133655677E+02  0.44805398890E+03  0.50528943200E+03  0.17200000000E+03 0.  1.
         -6    1    1    2    0  502  0.14774994354E+03 -0.56133655677E+02 -0.48413556705E+02  0.23855587519E+03  0.17200000000E+03 0. -1.
<mgrwt>
<rscale>  2 0.23359159E+03</rscale>
<asrwt>0</asrwt>
<pdfrwt beam="1">  1       21 0.14293571E+00 0.23359159E+03</pdfrwt>
<pdfrwt beam="2">  1       21 0.43025611E-01 0.23359159E+03</pdfrwt>
<totfact> 0.16975127E+03</totfact>
</mgrwt>
</event>
<event>
 4    1  0.1100959E+000  0.4267957E+03  0.7546771E-02  0.1034877E+00
         21   -1    0    0  501  502  0.00000000000E+00  0.00000000000E+00  0.98111187172E+03  0.98111187172E+03  0.00000000000E+00 0. -1.
         21   -1    0    0  502  503 -0.00000000000E+00 -0.00000000000E+00 -0.19935118946E+03  0.19935118946E+03  0.00000000000E+00 0.  1.
          6    1    1    2  501    0 -0.37247347650E+03 -0.11761837282E+03  0.54555240536E+03  0.69266297672E+03  0.17200000000E+03 0.  1.
         -6    1    1    2    0  503  0.37247347650E+03  0.11761837282E+03  0.23620827690E+03  0.48780008446E+03  0.17200000000E+03 0. -1.
<mgrwt>
<rscale>  2 0.42679570E+03</rscale>
<asrwt>0</asrwt>
<pdfrwt beam="1">  1       21 0.24527795E+00 0.42679570E+03</pdfrwt>
<pdfrwt beam="2">  1       21 0.49837800E-01 0.42679570E+03</pdfrwt>
<totfact> 0.22020791E+02</totfact>
</mgrwt>
</event>
<event>
 4    1  0.1100959E+000  0.1804479E+03  0.7546771E-02  0.1167370E+00
         21   -1    0    0  503  502  0.00000000000E+00  0.00000000000E+00  0.32341220480E+03  0.32341220480E+03  0.00000000000E+00 0. -1.
         21   -1    0    0  501  503 -0.00000000000E+00 -0.00000000000E+00 -0.12937892076E+03  0.12937892076E+03  0.00000000000E+00 0. -1.
          6    1    1    2  501    0 -0.49654916946E+02 -0.22623622416E+02 -0.96090720230E+01  0.18070355097E+03  0.17200000000E+03 0. -1.
         -6    1    1    2    0  502  0.49654916946E+02  0.22623622416E+02  0.20364235606E+03  0.27208757460E+03  0.17200000000E+03 0. -1.
<mgrwt>
<rscale>  2 0.18044788E+03</rscale>
<asrwt>0</asrwt>
<pdfrwt beam="1">  1       21 0.80853050E-01 0.18044788E+03</pdfrwt>
<pdfrwt beam="2">  1       21 0.32344731E-01 0.18044788E+03</pdfrwt>
<totfact> 0.12449966E+04</totfact>
</mgrwt>
</event>
<event>
 4    1  0.1100959E+000  0.1746506E+03  0.7546771E-02  0.1173083E+00
         21   -1    0    0  501  502  0.00000000000E+00  0.00000000000E+00  0.86020509710E+02  0.86020509710E+02  0.00000000000E+00 0. -1.
         21   -1    0    0  502  503 -0.00000000000E+00 -0.00000000000E+00 -0.46720080273E+03  0.46720080273E+03  0.00000000000E+00 0. -1.
          6    1    1    2  501    0 -0.25359154598E+02  0.16605726145E+02 -0.54793619035E+02  0.18304419562E+03  0.17200000000E+03 0. -1.
         -6    1    1    2    0  503  0.25359154598E+02 -0.16605726145E+02 -0.32638667398E+03  0.37017711682E+03  0.17200000000E+03 0. -1.
<mgrwt>
<rscale>  2 0.17465061E+03</rscale>
<asrwt>0</asrwt>
<pdfrwt beam="1">  1       21 0.21505128E-01 0.17465061E+03</pdfrwt>
<pdfrwt beam="2">  1       21 0.11680020E+00 0.17465061E+03</pdfrwt>
<totfact> 0.11519971E+04</totfact>
</mgrwt>
</event>
<event>
 4    1  0.1100959E+000  0.1764614E+03  0.7546771E-02  0.1171272E+00
         21   -1    0    0  501  502  0.00000000000E+00  0.00000000000E+00  0.18672673305E+03  0.18672673305E+03  0.00000000000E+00 0. -1.
         21   -1    0    0  502  503 -0.00000000000E+00 -0.00000000000E+00 -0.30873331589E+03  0.30873331589E+03  0.00000000000E+00 0. -1.
          6    1    1    2  501    0  0.36855314828E+02  0.14011561340E+02  0.10698907130E+03  0.20636205916E+03  0.17200000000E+03 0. -1.
         -6    1    1    2    0  503 -0.36855314828E+02 -0.14011561340E+02 -0.22899565414E+03  0.28909798979E+03  0.17200000000E+03 0. -1.
<mgrwt>
<rscale>  2 0.17646144E+03</rscale>
<asrwt>0</asrwt>
<pdfrwt beam="1">  1       21 0.46681684E-01 0.17646144E+03</pdfrwt>
<pdfrwt beam="2">  1       21 0.77183328E-01 0.17646144E+03</pdfrwt>
<totfact> 0.66324783E+03</totfact>
</mgrwt>
</event>
<event>
 4    1  0.1100959E+000  0.1831908E+03  0.7546771E-02  0.1164750E+00
         21   -1    0    0  503  502  0.00000000000E+00  0.00000000000E+00  0.19785828890E+03  0.19785828890E+03  0.00000000000E+00 0.  1.
         21   -1    0    0  501  503 -0.00000000000E+00 -0.00000000000E+00 -0.17269129537E+03  0.17269129537E+03  0.00000000000E+00 0.  1.
          6    1    1    2  501    0 -0.56631485952E+02  0.27708214477E+02  0.37329376878E+02  0.18695548328E+03  0.17200000000E+03 0.  1.
         -6    1    1    2    0  502  0.56631485952E+02 -0.27708214477E+02 -0.12162383345E+02  0.18359410099E+03  0.17200000000E+03 0.  1.
<mgrwt>
<rscale>  2 0.18319080E+03</rscale>
<asrwt>0</asrwt>
<pdfrwt beam="1">  1       21 0.49464572E-01 0.18319080E+03</pdfrwt>
<pdfrwt beam="2">  1       21 0.43172824E-01 0.18319080E+03</pdfrwt>
<totfact> 0.20214462E+04</totfact>
</mgrwt>
</event>
<event>
 4    1  0.1100959E+000  0.1735130E+03  0.7546771E-02  0.1174233E+00
         21   -1    0    0  501  502  0.00000000000E+00  0.00000000000E+00  0.63287671726E+02  0.63287671726E+02  0.00000000000E+00 0. -1.
         21   -1    0    0  502  503 -0.00000000000E+00 -0.00000000000E+00 -0.49443045846E+03  0.49443045846E+03  0.00000000000E+00 0. -1.
          6    1    1    2  501    0 -0.20988096994E+02 -0.90702221446E+01 -0.26982834887E+03  0.32080228646E+03  0.17200000000E+03 0. -1.
         -6    1    1    2    0  503  0.20988096994E+02  0.90702221446E+01 -0.16131443787E+03  0.23691584373E+03  0.17200000000E+03 0. -1.
<mgrwt>
<rscale>  2 0.17351302E+03</rscale>
<asrwt>0</asrwt>
<pdfrwt beam="1">  1       21 0.15821918E-01 0.17351302E+03</pdfrwt>
<pdfrwt beam="2">  1       21 0.12360761E+00 0.17351302E+03</pdfrwt>
<totfact> 0.17683837E+04</totfact>
</mgrwt>
</event>
<event>
 4    1  0.1100959E+000  0.1829944E+03  0.7546771E-02  0.1164936E+00
         21   -1    0    0  503  502  0.00000000000E+00  0.00000000000E+00  0.17157900345E+03  0.17157900345E+03  0.00000000000E+00 0. -1.
         21   -1    0    0  501  503 -0.00000000000E+00 -0.00000000000E+00 -0.20208763502E+03  0.20208763502E+03  0.00000000000E+00 0. -1.
          6    1    1    2  501    0 -0.50263827532E+02 -0.37101408272E+02  0.19314372570E+02  0.18401090142E+03  0.17200000000E+03 0. -1.
         -6    1    1    2    0  502  0.50263827532E+02  0.37101408272E+02 -0.49823004148E+02  0.18965573705E+03  0.17200000000E+03 0. -1.
<mgrwt>
<rscale>  2 0.18299444E+03</rscale>
<asrwt>0</asrwt>
<pdfrwt beam="1">  1       21 0.42894751E-01 0.18299444E+03</pdfrwt>
<pdfrwt beam="2">  1       21 0.50521909E-01 0.18299444E+03</pdfrwt>
<totfact> 0.19602262E+04</totfact>
</mgrwt>
</event>
<event>
 4    1  0.1100959E+000  0.2413180E+03  0.7546771E-02  0.1118918E+00
         21   -1    0    0  503  502  0.00000000000E+00  0.00000000000E+00  0.17362867138E+03  0.17362867138E+03  0.00000000000E+00 0.  1.
         21   -1    0    0  501  503 -0.00000000000E+00 -0.00000000000E+00 -0.34613033726E+03  0.34613033726E+03  0.00000000000E+00 0.  1.
          6    1    1    2  501    0 -0.69394070386E+02  0.15438543147E+03 -0.13201605268E+03  0.27506842171E+03  0.17200000000E+03 0.  1.
         -6    1    1    2    0  502  0.69394070386E+02 -0.15438543147E+03 -0.40485613202E+02  0.24469058693E+03  0.17200000000E+03 0.  1.
<mgrwt>
<rscale>  2 0.24131804E+03</rscale>
<asrwt>0</asrwt>
<pdfrwt beam="1">  1       21 0.43407168E-01 0.24131804E+03</pdfrwt>
<pdfrwt beam="2">  1       21 0.86532584E-01 0.24131804E+03</pdfrwt>
<totfact> 0.56694213E+03</totfact>
</mgrwt>
</event>
<event>
 4    1  0.1100959E+000  0.2324492E+03  0.7546771E-02  0.1124928E+00
         21   -1    0    0  503  502  0.00000000000E+00  0.00000000000E+00  0.19264160349E+03  0.19264160349E+03  0.00000000000E+00 0.  1.
         21   -1    0    0  501  503 -0.00000000000E+00 -0.00000000000E+00 -0.33882776526E+03  0.33882776526E+03  0.00000000000E+00 0.  1.
          6    1    1    2  501    0 -0.14878030786E+03 -0.48094154615E+02  0.37177837986E+02  0.23540352451E+03  0.17200000000E+03 0.  1.
         -6    1    1    2    0  502  0.14878030786E+03  0.48094154615E+02 -0.18336399975E+03  0.29606584423E+03  0.17200000000E+03 0.  1.
<mgrwt>
<rscale>  2 0.23244919E+03</rscale>
<asrwt>0</asrwt>
<pdfrwt beam="1">  1       21 0.48160401E-01 0.23244919E+03</pdfrwt>
<pdfrwt beam="2">  1       21 0.84706941E-01 0.23244919E+03</pdfrwt>
<totfact> 0.48306434E+03</totfact>
</mgrwt>
</event>
<event>
 4    1  0.1100959E+000  0.2054027E+03  0.7546771E-02  0.1145259E+00
         21   -1    0    0  501  502  0.00000000000E+00  0.00000000000E+00  0.58408523411E+03  0.58408523411E+03  0.00000000000E+00 0. -1.
         21   -1    0    0  502  503 -0.00000000000E+00 -0.00000000000E+00 -0.80732505533E+02  0.80732505533E+02  0.00000000000E+00 0.  1.
          6    1    1    2  501    0 -0.32376128956E+02 -0.10750847169E+03  0.35953197632E+03  0.41406947148E+03  0.17200000000E+03 0. -1.
         -6    1    1    2    0  503  0.32376128956E+02  0.10750847169E+03  0.14382075226E+03  0.25074826817E+03  0.17200000000E+03 0.  1.
<mgrwt>
<rscale>  2 0.20540274E+03</rscale>
<asrwt>0</asrwt>
<pdfrwt beam="1">  1       21 0.14602130E+00 0.20540274E+03</pdfrwt>
<pdfrwt beam="2">  1       21 0.20183128E-01 0.20540274E+03</pdfrwt>
<totfact> 0.72059690E+03</totfact>
</mgrwt>
</event>
<event>
 4    1  0.1100959E+000  0.2772811E+03  0.7546771E-02  0.1097183E+00
         21   -1    0    0  503  502  0.00000000000E+00  0.00000000000E+00  0.50335395348E+03  0.50335395348E+03  0.00000000000E+00 0. -1.
         21   -1    0    0  501  503 -0.00000000000E+00 -0.00000000000E+00 -0.21038962760E+03  0.21038962760E+03  0.00000000000E+00 0.  1.
          6    1    1    2  501    0 -0.66270853962E+02  0.20714489326E+03 -0.40318850224E+02  0.28019714947E+03  0.17200000000E+03 0.  1.
         -6    1    1    2    0  502  0.66270853962E+02 -0.20714489326E+03  0.33328317611E+03  0.43354643161E+03  0.17200000000E+03 0. -1.
<mgrwt>
<rscale>  2 0.27728114E+03</rscale>
<asrwt>0</asrwt>
<pdfrwt beam="1">  1       21 0.12583849E+00 0.27728114E+03</pdfrwt>
<pdfrwt beam="2">  1       21 0.52597408E-01 0.27728114E+03</pdfrwt>
<totfact> 0.15004192E+03</totfact>
</mgrwt>
</event>
<event>
 4    1  0.1100959E+000  0.1885389E+03  0.7546771E-02  0.1159786E+00
         21   -1    0    0  503  502  0.00000000000E+00  0.00000000000E+00  0.39280660364E+03  0.39280660364E+03  0.00000000000E+00 0.  1.
         21   -1    0    0  501  503 -0.00000000000E+00 -0.00000000000E+00 -0.28753045855E+03  0.28753045855E+03  0.00000000000E+00 0.  1.
          6    1    1    2  501    0  0.47369748140E+02  0.60983935383E+02 -0.22895676051E+03  0.29659422044E+03  0.17200000000E+03 0.  1.
         -6    1    1    2    0  502 -0.47369748140E+02 -0.60983935383E+02  0.33423290559E+03  0.38374284175E+03  0.17200000000E+03 0.  1.
<mgrwt>
<rscale>  2 0.18853894E+03</rscale>
<asrwt>0</asrwt>
<pdfrwt beam="1">  1       21 0.98201651E-01 0.18853894E+03</pdfrwt>
<pdfrwt beam="2">  1       21 0.71882615E-01 0.18853894E+03</pdfrwt>
<totfact> 0.15033332E+03</totfact>
</mgrwt>
</event>
<event>
 4    1  0.1100959E+000  0.3378252E+03  0.7546771E-02  0.1067726E+00
         21   -1    0    0  501  502  0.00000000000E+00  0.00000000000E+00  0.28821904982E+03  0.28821904982E+03  0.00000000000E+00 0. -1.
         21   -1    0    0  502  503 -0.00000000000E+00 -0.00000000000E+00 -0.42204282845E+03  0.42204282845E+03  0.00000000000E+00 0.  1.
          6    1    1    2  501    0  0.18941445055E+03 -0.22059922200E+03  0.21357767702E+02  0.33849963820E+03  0.17200000000E+03 0. -1.
         -6    1    1    2    0  503 -0.18941445055E+03  0.22059922200E+03 -0.15518154633E+03  0.37176224007E+03  0.17200000000E+03 0.  1.
<mgrwt>
<rscale>  2 0.33782518E+03</rscale>
<asrwt>0</asrwt>
<pdfrwt beam="1">  1       21 0.72054763E-01 0.33782518E+03</pdfrwt>
<pdfrwt beam="2">  1       21 0.10551071E+00 0.33782518E+03</pdfrwt>
<totfact> 0.11267934E+03</totfact>
</mgrwt>
</event>
<event>
 4    1  0.1100959E+000  0.2411012E+03  0.7546771E-02  0.1119061E+00
         21   -1    0    0  501  502  0.00000000000E+00  0.00000000000E+00  0.12049463589E+04  0.12049463589E+04  0.00000000000E+00 0. -1.
         21   -1    0    0  502  503 -0.00000000000E+00 -0.00000000000E+00 -0.70657393514E+02  0.70657393514E+02  0.00000000000E+00 0.  1.
          6    1    1    2  501    0 -0.16724216117E+03 -0.23997028810E+02  0.20791337781E+03  0.31836735156E+03  0.17200000000E+03 0.  1.
         -6    1    1    2    0  503  0.16724216117E+03  0.23997028810E+02  0.92637558756E+03  0.95723640084E+03  0.17200000000E+03 0. -1.
<mgrwt>
<rscale>  2 0.24110122E+03</rscale>
<asrwt>0</asrwt>
<pdfrwt beam="1">  1       21 0.30123652E+00 0.24110122E+03</pdfrwt>
<pdfrwt beam="2">  1       21 0.17664352E-01 0.24110122E+03</pdfrwt>
<totfact> 0.91984228E+02</totfact>
</mgrwt>
</event>
<event>
 4    1  0.1100959E+000  0.1896873E+03  0.7546771E-02  0.1158744E+00
         21   -1    0    0  501  502  0.00000000000E+00  0.00000000000E+00  0.19245658151E+03  0.19245658151E+03  0.00000000000E+00 0.  1.
         21   -1    0    0  502  503 -0.00000000000E+00 -0.00000000000E+00 -0.31377581880E+03  0.31377581880E+03  0.00000000000E+00 0. -1.
          6    1    1    2  501    0 -0.16928867533E+02 -0.78170950566E+02  0.10025683992E+03  0.21455236661E+03  0.17200000000E+03 0.  1.
         -6    1    1    2    0  503  0.16928867533E+02  0.78170950566E+02 -0.22157607721E+03  0.29168003370E+03  0.17200000000E+03 0. -1.
<mgrwt>
<rscale>  2 0.18968733E+03</rscale>
<asrwt>0</asrwt>
<pdfrwt beam="1">  1       21 0.48114146E-01 0.18968733E+03</pdfrwt>
<pdfrwt beam="2">  1       21 0.78443954E-01 0.18968733E+03</pdfrwt>
<totfact> 0.59475511E+03</totfact>
</mgrwt>
</event>
<event>
 4    1  0.1100959E+000  0.2363209E+03  0.7546771E-02  0.1122268E+00
         21   -1    0    0  501  502  0.00000000000E+00  0.00000000000E+00  0.51818669285E+03  0.51818669285E+03  0.00000000000E+00 0.  1.
         21   -1    0    0  502  503 -0.00000000000E+00 -0.00000000000E+00 -0.19493786917E+03  0.19493786917E+03  0.00000000000E+00 0. -1.
          6    1    1    2  501    0 -0.12970396034E+03 -0.97161880307E+02  0.40005016276E+03  0.46463714987E+03  0.17200000000E+03 0.  1.
         -6    1    1    2    0  503  0.12970396034E+03  0.97161880307E+02 -0.76801339088E+02  0.24848741215E+03  0.17200000000E+03 0. -1.
<mgrwt>
<rscale>  2 0.23632086E+03</rscale>
<asrwt>0</asrwt>
<pdfrwt beam="1">  1       21 0.12954667E+00 0.23632086E+03</pdfrwt>
<pdfrwt beam="2">  1       21 0.48734468E-01 0.23632086E+03</pdfrwt>
<totfact> 0.16863459E+03</totfact>
</mgrwt>
</event>
<event>
 4    1  0.1100959E+000  0.2151142E+03  0.7546771E-02  0.1137579E+00
         21   -1    0    0  501  502  0.00000000000E+00  0.00000000000E+00  0.42900348292E+03  0.42900348292E+03  0.00000000000E+00 0.  1.
         21   -1    0    0  502  503 -0.00000000000E+00 -0.00000000000E+00 -0.16499655206E+03  0.16499655206E+03  0.00000000000E+00 0.  1.
          6    1    1    2  501    0 -0.97872598001E+02  0.84327140659E+02  0.30677075065E+03  0.37467640111E+03  0.17200000000E+03 0.  1.
         -6    1    1    2    0  503  0.97872598001E+02 -0.84327140659E+02 -0.42763819789E+02  0.21932363387E+03  0.17200000000E+03 0.  1.
<mgrwt>
<rscale>  2 0.21511418E+03</rscale>
<asrwt>0</asrwt>
<pdfrwt beam="1">  1       21 0.10725087E+00 0.21511418E+03</pdfrwt>
<pdfrwt beam="2">  1       21 0.41249139E-01 0.21511418E+03</pdfrwt>
<totfact> 0.38588506E+03</totfact>
</mgrwt>
</event>
<event>
 4    1  0.1100959E+000  0.1978199E+03  0.7546771E-02  0.1151591E+00
         21   -1    0    0  501  502  0.00000000000E+00  0.00000000000E+00  0.97757705121E+02  0.97757705121E+02  0.00000000000E+00 0.  1.
         21   -1    0    0  502  503 -0.00000000000E+00 -0.00000000000E+00 -0.43813139013E+03  0.43813139013E+03  0.00000000000E+00 0. -1.
          6    1    1    2  501    0  0.89658764312E+02 -0.38859084976E+02 -0.91454984204E+02  0.21793746038E+03  0.17200000000E+03 0.  1.
         -6    1    1    2    0  503 -0.89658764312E+02  0.38859084976E+02 -0.24891870081E+03  0.31795163487E+03  0.17200000000E+03 0. -1.
<mgrwt>
<rscale>  2 0.19781992E+03</rscale>
<asrwt>0</asrwt>
<pdfrwt beam="1">  1       21 0.24439427E-01 0.19781992E+03</pdfrwt>
<pdfrwt beam="2">  1       21 0.10953285E+00 0.19781992E+03</pdfrwt>
<totfact> 0.10398342E+04</totfact>
</mgrwt>
</event>
<event>
 4    1  0.1100959E+000  0.1981948E+03  0.7546771E-02  0.1151271E+00
         21   -1    0    0  503  502  0.00000000000E+00  0.00000000000E+00  0.10863761876E+04  0.10863761876E+04  0.00000000000E+00 0. -1.
         21   -1    0    0  501  503 -0.00000000000E+00 -0.00000000000E+00 -0.52634786639E+02  0.52634786639E+02  0.00000000000E+00 0.  1.
          6    1    1    2  501    0 -0.14725910459E+02 -0.97366865912E+02  0.19823229761E+03  0.28031625502E+03  0.17200000000E+03 0.  1.
         -6    1    1    2    0  502  0.14725910459E+02  0.97366865912E+02  0.83550910332E+03  0.85869471918E+03  0.17200000000E+03 0. -1.
<mgrwt>
<rscale>  2 0.19819475E+03</rscale>
<asrwt>0</asrwt>
<pdfrwt beam="1">  1       21 0.27159397E+00 0.19819475E+03</pdfrwt>
<pdfrwt beam="2">  1       21 0.13158700E-01 0.19819475E+03</pdfrwt>
<totfact> 0.24590107E+03</totfact>
</mgrwt>
</event>
<event>
 4    1  0.1100959E+000  0.2115131E+03  0.7546771E-02  0.1140373E+00
         21   -1    0    0  503  502  0.00000000000E+00  0.00000000000E+00  0.38608152153E+02  0.38608152153E+02  0.00000000000E+00 0.  1.
         21   -1    0    0  501  503 -0.00000000000E+00 -0.00000000000E+00 -0.11612796889E+04  0.11612796889E+04  0.00000000000E+00 0. -1.
          6    1    1    2  501    0 -0.12294760678E+03  0.61372654577E+01 -0.58925310994E+03  0.62606469922E+03  0.17200000000E+03 0.  1.
         -6    1    1    2    0  502  0.12294760678E+03 -0.61372654577E+01 -0.53341842682E+03  0.57382314184E+03  0.17200000000E+03 0. -1.
<mgrwt>
<rscale>  2 0.21151307E+03</rscale>
<asrwt>0</asrwt>
<pdfrwt beam="1">  1       21 0.96520387E-02 0.21151307E+03</pdfrwt>
<pdfrwt beam="2">  1       21 0.29031990E+00 0.21151307E+03</pdfrwt>
<totfact> 0.32808420E+03</totfact>
</mgrwt>
</event>
<event>
 4    1  0.1100959E+000  0.2311647E+03  0.7546771E-02  0.1125823E+00
         21   -1    0    0  503  502  0.00000000000E+00  0.00000000000E+00  0.19547705003E+03  0.19547705003E+03  0.00000000000E+00 0. -1.
         21   -1    0    0  501  503 -0.00000000000E+00 -0.00000000000E+00 -0.11024933665E+04  0.11024933665E+04  0.00000000000E+00 0. -1.
          6    1    1    2  501    0  0.12108354795E+03  0.95874462103E+02 -0.10163118663E+04  0.10422700934E+04  0.17200000000E+03 0. -1.
         -6    1    1    2    0  502 -0.12108354795E+03 -0.95874462103E+02  0.10929554977E+03  0.25570032317E+03  0.17200000000E+03 0. -1.
<mgrwt>
<rscale>  2 0.23116474E+03</rscale>
<asrwt>0</asrwt>
<pdfrwt beam="1">  1       21 0.48869263E-01 0.23116474E+03</pdfrwt>
<pdfrwt beam="2">  1       21 0.27562334E+00 0.23116474E+03</pdfrwt>
<totfact> 0.17862363E+02</totfact>
</mgrwt>
</event>
<event>
 4    1  0.1100959E+000  0.1922551E+03  0.7546771E-02  0.1156443E+00
         21   -1    0    0  503  502  0.00000000000E+00  0.00000000000E+00  0.13212128375E+03  0.13212128375E+03  0.00000000000E+00 0. -1.
         21   -1    0    0  501  503 -0.00000000000E+00 -0.00000000000E+00 -0.29234473571E+03  0.29234473571E+03  0.00000000000E+00 0.  1.
          6    1    1    2  501    0  0.85543831510E+02  0.77634300979E+01 -0.36074729473E+02  0.19561033731E+03  0.17200000000E+03 0.  1.
         -6    1    1    2    0  502 -0.85543831510E+02 -0.77634300979E+01 -0.12414872249E+03  0.22885568215E+03  0.17200000000E+03 0.  1.
<mgrwt>
<rscale>  2 0.19225509E+03</rscale>
<asrwt>0</asrwt>
<pdfrwt beam="1">  1       21 0.33030321E-01 0.19225509E+03</pdfrwt>
<pdfrwt beam="2">  1       21 0.73086184E-01 0.19225509E+03</pdfrwt>
<totfact> 0.14866565E+04</totfact>
</mgrwt>
</event>
<event>
 4    1  0.1100959E+000  0.2401881E+03  0.7546771E-02  0.1119668E+00
         21   -1    0    0  503  502  0.00000000000E+00  0.00000000000E+00  0.22154911521E+03  0.22154911521E+03  0.00000000000E+00 0. -1.
         21   -1    0    0  501  503 -0.00000000000E+00 -0.00000000000E+00 -0.27911775587E+03  0.27911775587E+03  0.00000000000E+00 0. -1.
          6    1    1    2  501    0  0.60238771525E+02  0.15645325303E+03 -0.93619018800E+02  0.25778838348E+03  0.17200000000E+03 0. -1.
         -6    1    1    2    0  502 -0.60238771525E+02 -0.15645325303E+03  0.36050378141E+02  0.24287848761E+03  0.17200000000E+03 0. -1.
<mgrwt>
<rscale>  2 0.24018811E+03</rscale>
<asrwt>0</asrwt>
<pdfrwt beam="1">  1       21 0.55387279E-01 0.24018811E+03</pdfrwt>
<pdfrwt beam="2">  1       21 0.69779439E-01 0.24018811E+03</pdfrwt>
<totfact> 0.55447201E+03</totfact>
</mgrwt>
</event>
<event>
 4    1  0.1100959E+000  0.1762986E+03  0.7546771E-02  0.1171434E+00
         21   -1    0    0  503  502  0.00000000000E+00  0.00000000000E+00  0.80369085983E+02  0.80369085983E+02  0.00000000000E+00 0. -1.
         21   -1    0    0  501  503 -0.00000000000E+00 -0.00000000000E+00 -0.70916934034E+03  0.70916934034E+03  0.00000000000E+00 0. -1.
          6    1    1    2  501    0  0.31105141427E+02  0.23014155672E+02 -0.58059025140E+03  0.60676702383E+03  0.17200000000E+03 0. -1.
         -6    1    1    2    0  502 -0.31105141427E+02 -0.23014155672E+02 -0.48210002956E+02  0.18277140249E+03  0.17200000000E+03 0. -1.
<mgrwt>
<rscale>  2 0.17629856E+03</rscale>
<asrwt>0</asrwt>
<pdfrwt beam="1">  1       21 0.20092271E-01 0.17629856E+03</pdfrwt>
<pdfrwt beam="2">  1       21 0.17729234E+00 0.17629856E+03</pdfrwt>
<totfact> 0.44121378E+03</totfact>
</mgrwt>
</event>
<event>
 4    1  0.1100959E+000  0.1815512E+03  0.7546771E-02  0.1166310E+00
         21   -1    0    0  503  502  0.00000000000E+00  0.00000000000E+00  0.46027699427E+02  0.46027699427E+02  0.00000000000E+00 0. -1.
         21   -1    0    0  501  503 -0.00000000000E+00 -0.00000000000E+00 -0.91110610640E+03  0.91110610640E+03  0.00000000000E+00 0. -1.
          6    1    1    2  501    0 -0.57627692797E+02 -0.74750845965E+01 -0.65393674584E+03  0.67867082995E+03  0.17200000000E+03 0. -1.
         -6    1    1    2    0  502  0.57627692797E+02  0.74750845965E+01 -0.21114166113E+03  0.27846297587E+03  0.17200000000E+03 0. -1.
<mgrwt>
<rscale>  2 0.18155117E+03</rscale>
<asrwt>0</asrwt>
<pdfrwt beam="1">  1       21 0.11506925E-01 0.18155117E+03</pdfrwt>
<pdfrwt beam="2">  1       21 0.22777652E+00 0.18155117E+03</pdfrwt>
<totfact> 0.57683770E+03</totfact>
</mgrwt>
</event>
<event>
 4    1  0.1100959E+000  0.1861720E+03  0.7546771E-02  0.1161960E+00
         21   -1    0    0  503  502  0.00000000000E+00  0.00000000000E+00  0.15312892257E+03  0.15312892257E+03  0.00000000000E+00 0.  1.
         21   -1    0    0  501  503 -0.00000000000E+00 -0.00000000000E+00 -0.30796073011E+03  0.30796073011E+03  0.00000000000E+00 0. -1.
          6    1    1    2  501    0 -0.70549096712E+02  0.99420319969E+01 -0.19610032694E+03  0.27039851566E+03  0.17200000000E+03 0. -1.
         -6    1    1    2    0  502  0.70549096712E+02 -0.99420319969E+01  0.41268519397E+02  0.19069113703E+03  0.17200000000E+03 0.  1.
<mgrwt>
<rscale>  2 0.18617201E+03</rscale>
<asrwt>0</asrwt>
<pdfrwt beam="1">  1       21 0.38282231E-01 0.18617201E+03</pdfrwt>
<pdfrwt beam="2">  1       21 0.76990182E-01 0.18617201E+03</pdfrwt>
<totfact> 0.99107444E+03</totfact>
</mgrwt>
</event>
<event>
 4    1  0.1100959E+000  0.1777216E+03  0.7546771E-02  0.1170026E+00
         21   -1    0    0  501  502  0.00000000000E+00  0.00000000000E+00  0.10733884987E+04  0.10733884987E+04  0.00000000000E+00 0.  1.
         21   -1    0    0  502  503 -0.00000000000E+00 -0.00000000000E+00 -0.35649166300E+02  0.35649166300E+02  0.00000000000E+00 0.  1.
          6    1    1    2  501    0  0.29975505979E+02 -0.33202906521E+02  0.28717517222E+03  0.33771962262E+03  0.17200000000E+03 0.  1.
         -6    1    1    2    0  503 -0.29975505979E+02  0.33202906521E+02  0.75056416015E+03  0.77131804235E+03  0.17200000000E+03 0.  1.
<mgrwt>
<rscale>  2 0.17772159E+03</rscale>
<asrwt>0</asrwt>
<pdfrwt beam="1">  1       21 0.26834702E+00 0.17772159E+03</pdfrwt>
<pdfrwt beam="2">  1       21 0.89122951E-02 0.17772159E+03</pdfrwt>
<totfact> 0.52510125E+03</totfact>
</mgrwt>
</event>
<event>
 4    1  0.1100959E+000  0.1893062E+03  0.7546771E-02  0.1159089E+00
         21   -1    0    0  503  502  0.00000000000E+00  0.00000000000E+00  0.10878355555E+03  0.10878355555E+03  0.00000000000E+00 0. -1.
         21   -1    0    0  501  503 -0.00000000000E+00 -0.00000000000E+00 -0.43639776356E+03  0.43639776356E+03  0.00000000000E+00 0. -1.
          6    1    1    2  501    0  0.78712942461E+02  0.75568327507E+01 -0.29876279408E+03  0.35368918581E+03  0.17200000000E+03 0. -1.
         -6    1    1    2    0  502 -0.78712942461E+02 -0.75568327507E+01 -0.28851413937E+02  0.19149213331E+03  0.17200000000E+03 0. -1.
<mgrwt>
<rscale>  2 0.18930619E+03</rscale>
<asrwt>0</asrwt>
<pdfrwt beam="1">  1       21 0.27195889E-01 0.18930619E+03</pdfrwt>
<pdfrwt beam="2">  1       21 0.10909944E+00 0.18930619E+03</pdfrwt>
<totfact> 0.86077934E+03</totfact>
</mgrwt>
</event>
<event>
 4    1  0.1100959E+000  0.1811519E+03  0.7546771E-02  0.1166693E+00
         21   -1    0    0  503  502  0.00000000000E+00  0.00000000000E+00  0.14760137358E+03  0.14760137358E+03  0.00000000000E+00 0.  1.
         21   -1    0    0  501  503 -0.00000000000E+00 -0.00000000000E+00 -0.22349452805E+03  0.22349452805E+03  0.00000000000E+00 0. -1.
          6    1    1    2  501    0  0.47541815912E+02 -0.31173590394E+02 -0.51347837888E+02  0.18828865461E+03  0.17200000000E+03 0. -1.
         -6    1    1    2    0  502 -0.47541815912E+02  0.31173590394E+02 -0.24545316585E+02  0.18280724702E+03  0.17200000000E+03 0.  1.
<mgrwt>
<rscale>  2 0.18115192E+03</rscale>
<asrwt>0</asrwt>
<pdfrwt beam="1">  1       21 0.36900343E-01 0.18115192E+03</pdfrwt>
<pdfrwt beam="2">  1       21 0.55873632E-01 0.18115192E+03</pdfrwt>
<totfact> 0.21512043E+04</totfact>
</mgrwt>
</event>
<event>
 4    1  0.1100959E+000  0.1744291E+03  0.7546771E-02  0.1173306E+00
         21   -1    0    0  501  502  0.00000000000E+00  0.00000000000E+00  0.68476286044E+03  0.68476286044E+03  0.00000000000E+00 0.  1.
         21   -1    0    0  502  503 -0.00000000000E+00 -0.00000000000E+00 -0.50885588231E+02  0.50885588231E+02  0.00000000000E+00 0.  1.
          6    1    1    2  501    0  0.14693143600E+01  0.28971597423E+02  0.44792835765E+03  0.48069254823E+03  0.17200000000E+03 0.  1.
         -6    1    1    2    0  503 -0.14693143600E+01 -0.28971597423E+02  0.18594891457E+03  0.25495590044E+03  0.17200000000E+03 0.  1.
<mgrwt>
<rscale>  2 0.17442910E+03</rscale>
<asrwt>0</asrwt>
<pdfrwt beam="1">  1       21 0.17119069E+00 0.17442910E+03</pdfrwt>
<pdfrwt beam="2">  1       21 0.12721399E-01 0.17442910E+03</pdfrwt>
<totfact> 0.11224557E+04</totfact>
</mgrwt>
</event>
<event>
 4    1  0.1100959E+000  0.1724050E+03  0.7546771E-02  0.1175363E+00
         21   -1    0    0  503  502  0.00000000000E+00  0.00000000000E+00  0.82145666806E+03  0.82145666806E+03  0.00000000000E+00 0. -1.
         21   -1    0    0  501  503 -0.00000000000E+00 -0.00000000000E+00 -0.96146782135E+02  0.96146782135E+02  0.00000000000E+00 0.  1.
          6    1    1    2  501    0 -0.11021500989E+02  0.42445233918E+01  0.32937012016E+00  0.17240533039E+03  0.17200000000E+03 0.  1.
         -6    1    1    2    0  502  0.11021500989E+02 -0.42445233918E+01  0.72498051581E+03  0.74519811981E+03  0.17200000000E+03 0. -1.
<mgrwt>
<rscale>  2 0.17240502E+03</rscale>
<asrwt>0</asrwt>
<pdfrwt beam="1">  1       21 0.20536415E+00 0.17240502E+03</pdfrwt>
<pdfrwt beam="2">  1       21 0.24036698E-01 0.17240502E+03</pdfrwt>
<totfact> 0.20714244E+03</totfact>
</mgrwt>
</event>
<event>
 4    1  0.1100959E+000  0.2548452E+03  0.7546771E-02  0.1110280E+00
         21   -1    0    0  501  502  0.00000000000E+00  0.00000000000E+00  0.25108061527E+03  0.25108061527E+03  0.00000000000E+00 0. -1.
         21   -1    0    0  502  503 -0.00000000000E+00 -0.00000000000E+00 -0.43138407577E+03  0.43138407577E+03  0.00000000000E+00 0.  1.
          6    1    1    2  501    0  0.15697786502E+03  0.10353764675E+03  0.12576517744E+03  0.28418827255E+03  0.17200000000E+03 0. -1.
         -6    1    1    2    0  503 -0.15697786502E+03 -0.10353764675E+03 -0.30606863793E+03  0.39827641849E+03  0.17200000000E+03 0. -1.
<mgrwt>
<rscale>  2 0.25484524E+03</rscale>
<asrwt>0</asrwt>
<pdfrwt beam="1">  1       21 0.62770154E-01 0.25484524E+03</pdfrwt>
<pdfrwt beam="2">  1       21 0.10784602E+00 0.25484524E+03</pdfrwt>
<totfact> 0.15284503E+03</totfact>
</mgrwt>
</event>
<event>
 4    1  0.1100959E+000  0.1841839E+03  0.7546771E-02  0.1163814E+00
         21   -1    0    0  503  502  0.00000000000E+00  0.00000000000E+00  0.23145324135E+03  0.23145324135E+03  0.00000000000E+00 0. -1.
         21   -1    0    0  501  503 -0.00000000000E+00 -0.00000000000E+00 -0.14983264210E+03  0.14983264210E+03  0.00000000000E+00 0. -1.
          6    1    1    2  501    0 -0.30705380667E+02 -0.58282905088E+02  0.12671039857E+02  0.18461926410E+03  0.17200000000E+03 0.  1.
         -6    1    1    2    0  502  0.30705380667E+02  0.58282905088E+02  0.68949559394E+02  0.19666661935E+03  0.17200000000E+03 0.  1.
<mgrwt>
<rscale>  2 0.18418392E+03</rscale>
<asrwt>0</asrwt>
<pdfrwt beam="1">  1       21 0.57863310E-01 0.18418392E+03</pdfrwt>
<pdfrwt beam="2">  1       21 0.37458161E-01 0.18418392E+03</pdfrwt>
<totfact> 0.19346205E+04</totfact>
</mgrwt>
</event>
<event>
 4    1  0.1100959E+000  0.2378749E+03  0.7546771E-02  0.1121217E+00
         21   -1    0    0  503  502  0.00000000000E+00  0.00000000000E+00  0.18107482549E+03  0.18107482549E+03  0.00000000000E+00 0.  1.
         21   -1    0    0  501  503 -0.00000000000E+00 -0.00000000000E+00 -0.34138380191E+03  0.34138380191E+03  0.00000000000E+00 0.  1.
          6    1    1    2  501    0  0.12404535534E+03  0.10776466939E+03 -0.15614968030E+03  0.28454735424E+03  0.17200000000E+03 0.  1.
         -6    1    1    2    0  502 -0.12404535534E+03 -0.10776466939E+03 -0.41592961259E+01  0.23791127315E+03  0.17200000000E+03 0.  1.
<mgrwt>
<rscale>  2 0.23787491E+03</rscale>
<asrwt>0</asrwt>
<pdfrwt beam="1">  1       21 0.45268707E-01 0.23787491E+03</pdfrwt>
<pdfrwt beam="2">  1       21 0.85345950E-01 0.23787491E+03</pdfrwt>
<totfact> 0.53795511E+03</totfact>
</mgrwt>
</event>
<event>
 4    1  0.1100959E+000  0.1984688E+03  0.7546771E-02  0.1151037E+00
         21   -1    0    0  501  502  0.00000000000E+00  0.00000000000E+00  0.24017283531E+03  0.24017283531E+03  0.00000000000E+00 0.  1.
         21   -1    0    0  502  503 -0.00000000000E+00 -0.00000000000E+00 -0.26398512917E+03  0.26398512917E+03  0.00000000000E+00 0. -1.
          6    1    1    2  501    0  0.95364283779E+02  0.26674154170E+02  0.14322569079E+03  0.24475182455E+03  0.17200000000E+03 0.  1.
         -6    1    1    2    0  503 -0.95364283779E+02 -0.26674154170E+02 -0.16703798464E+03  0.25940613993E+03  0.17200000000E+03 0. -1.
<mgrwt>
<rscale>  2 0.19846878E+03</rscale>
<asrwt>0</asrwt>
<pdfrwt beam="1">  1       21 0.60043209E-01 0.19846878E+03</pdfrwt>
<pdfrwt beam="2">  1       21 0.65996282E-01 0.19846878E+03</pdfrwt>
<totfact> 0.54305739E+03</totfact>
</mgrwt>
</event>
<event>
 4    1  0.1100959E+000  0.1803148E+03  0.7546771E-02  0.1167499E+00
         21   -1    0    0  501  502  0.00000000000E+00  0.00000000000E+00  0.77114212270E+03  0.77114212270E+03  0.00000000000E+00 0.  1.
         21   -1    0    0  502  503 -0.00000000000E+00 -0.00000000000E+00 -0.50834266572E+02  0.50834266572E+02  0.00000000000E+00 0.  1.
          6    1    1    2  501    0 -0.34670555396E+02 -0.41561796357E+02  0.52990009101E+03  0.55973881122E+03  0.17200000000E+03 0.  1.
         -6    1    1    2    0  503  0.34670555396E+02  0.41561796357E+02  0.19040776511E+03  0.26223757805E+03  0.17200000000E+03 0.  1.
<mgrwt>
<rscale>  2 0.18031481E+03</rscale>
<asrwt>0</asrwt>
<pdfrwt beam="1">  1       21 0.19278549E+00 0.18031481E+03</pdfrwt>
<pdfrwt beam="2">  1       21 0.12708569E-01 0.18031481E+03</pdfrwt>
<totfact> 0.80032436E+03</totfact>
</mgrwt>
</event>
<event>
 4    1  0.1100959E+000  0.2491960E+03  0.7546771E-02  0.1113814E+00
         21   -1    0    0  501  502  0.00000000000E+00  0.00000000000E+00  0.32993852704E+03  0.32993852704E+03  0.00000000000E+00 0. -1.
         21   -1    0    0  502  503 -0.00000000000E+00 -0.00000000000E+00 -0.50689280689E+03  0.50689280689E+03  0.00000000000E+00 0. -1.
          6    1    1    2  501    0  0.55168157052E+02  0.17167160741E+03  0.24328533102E+03  0.34826199711E+03  0.17200000000E+03 0. -1.
         -6    1    1    2    0  503 -0.55168157052E+02 -0.17167160741E+03 -0.42023961087E+03  0.48856933682E+03  0.17200000000E+03 0. -1.
<mgrwt>
<rscale>  2 0.24919604E+03</rscale>
<asrwt>0</asrwt>
<pdfrwt beam="1">  1       21 0.82484633E-01 0.24919604E+03</pdfrwt>
<pdfrwt beam="2">  1       21 0.12672320E+00 0.24919604E+03</pdfrwt>
<totfact> 0.55950612E+02</totfact>
</mgrwt>
</event>
<event>
 4    1  0.1100959E+000  0.1814791E+03  0.7546771E-02  0.1166379E+00
         21   -1    0    0  503  502  0.00000000000E+00  0.00000000000E+00  0.10215217464E+03  0.10215217464E+03  0.00000000000E+00 0.  1.
         21   -1    0    0  501  503 -0.00000000000E+00 -0.00000000000E+00 -0.34022108810E+03  0.34022108810E+03  0.00000000000E+00 0.  1.
          6    1    1    2  501    0  0.40832112015E+02 -0.41029114909E+02 -0.16964619930E+03  0.24842399759E+03  0.17200000000E+03 0.  1.
         -6    1    1    2    0  502 -0.40832112015E+02  0.41029114909E+02 -0.68422714156E+02  0.19394926516E+03  0.17200000000E+03 0.  1.
<mgrwt>
<rscale>  2 0.18147906E+03</rscale>
<asrwt>0</asrwt>
<pdfrwt beam="1">  1       21 0.25538044E-01 0.18147906E+03</pdfrwt>
<pdfrwt beam="2">  1       21 0.85055271E-01 0.18147906E+03</pdfrwt>
<totfact> 0.17521781E+04</totfact>
</mgrwt>
</event>
<event>
 4    1  0.1100959E+000  0.2639234E+03  0.7546771E-02  0.1104809E+00
         21   -1    0    0  503  502  0.00000000000E+00  0.00000000000E+00  0.37743448959E+02  0.37743448959E+02  0.00000000000E+00 0.  1.
         21   -1    0    0  501  503 -0.00000000000E+00 -0.00000000000E+00 -0.18455350319E+04  0.18455350319E+04  0.00000000000E+00 0.  1.
          6    1    1    2  501    0  0.18613233982E+03 -0.73663679229E+02 -0.89987234919E+03  0.93777706860E+03  0.17200000000E+03 0.  1.
         -6    1    1    2    0  502 -0.18613233982E+03  0.73663679229E+02 -0.90791923378E+03  0.94550141228E+03  0.17200000000E+03 0.  1.
<mgrwt>
<rscale>  2 0.26392345E+03</rscale>
<asrwt>0</asrwt>
<pdfrwt beam="1">  1       21 0.94358617E-02 0.26392345E+03</pdfrwt>
<pdfrwt beam="2">  1       21 0.46138379E+00 0.26392345E+03</pdfrwt>
<totfact> 0.28272005E+02</totfact>
</mgrwt>
</event>
<event>
 4    1  0.1100959E+000  0.1984415E+03  0.7546771E-02  0.1151061E+00
         21   -1    0    0  503  502  0.00000000000E+00  0.00000000000E+00  0.45348954663E+03  0.45348954663E+03  0.00000000000E+00 0. -1.
         21   -1    0    0  501  503 -0.00000000000E+00 -0.00000000000E+00 -0.37329331048E+03  0.37329331048E+03  0.00000000000E+00 0. -1.
          6    1    1    2  501    0  0.66657083872E+02  0.73156400140E+02 -0.32203366311E+03  0.37826539081E+03  0.17200000000E+03 0. -1.
         -6    1    1    2    0  502 -0.66657083872E+02 -0.73156400140E+02  0.40222989926E+03  0.44851746629E+03  0.17200000000E+03 0. -1.
<mgrwt>
<rscale>  2 0.19844149E+03</rscale>
<asrwt>0</asrwt>
<pdfrwt beam="1">  1       21 0.11337239E+00 0.19844149E+03</pdfrwt>
<pdfrwt beam="2">  1       21 0.93323328E-01 0.19844149E+03</pdfrwt>
<totfact> 0.58247838E+02</totfact>
</mgrwt>
</event>
<event>
 4    1  0.1100959E+000  0.2811516E+03  0.7546771E-02  0.1095062E+00
         21   -1    0    0  503  502  0.00000000000E+00  0.00000000000E+00  0.15470281852E+03  0.15470281852E+03  0.00000000000E+00 0. -1.
         21   -1    0    0  501  503 -0.00000000000E+00 -0.00000000000E+00 -0.53403546102E+03  0.53403546102E+03  0.00000000000E+00 0.  1.
          6    1    1    2  501    0  0.36026979541E+02 -0.21946364461E+03 -0.11807538927E+03  0.30493939089E+03  0.17200000000E+03 0. -1.
         -6    1    1    2    0  502 -0.36026979541E+02  0.21946364461E+03 -0.26125725324E+03  0.38379888865E+03  0.17200000000E+03 0.  1.
<mgrwt>
<rscale>  2 0.28115162E+03</rscale>
<asrwt>0</asrwt>
<pdfrwt beam="1">  1       21 0.38675705E-01 0.28115162E+03</pdfrwt>
<pdfrwt beam="2">  1       21 0.13350886E+00 0.28115162E+03</pdfrwt>
<totfact> 0.24341537E+03</totfact>
</mgrwt>
</event>
<event>
 4    1  0.1100959E+000  0.2077483E+03  0.7546771E-02  0.1143362E+00
         21   -1    0    0  503  502  0.00000000000E+00  0.00000000000E+00  0.62237551135E+03  0.62237551135E+03  0.00000000000E+00 0. -1.
         21   -1    0    0  501  503 -0.00000000000E+00 -0.00000000000E+00 -0.15119538096E+03  0.15119538096E+03  0.00000000000E+00 0. -1.
          6    1    1    2  501    0 -0.11650484615E+03 -0.14128138718E+01 -0.48992334788E+02  0.21344700534E+03  0.17200000000E+03 0. -1.
         -6    1    1    2    0  502  0.11650484615E+03  0.14128138718E+01  0.52017246518E+03  0.56012388697E+03  0.17200000000E+03 0. -1.
<mgrwt>
<rscale>  2 0.20774835E+03</rscale>
<asrwt>0</asrwt>
<pdfrwt beam="1">  1       21 0.15559387E+00 0.20774835E+03</pdfrwt>
<pdfrwt beam="2">  1       21 0.37798847E-01 0.20774835E+03</pdfrwt>
<totfact> 0.18048746E+03</totfact>
</mgrwt>
</event>
<event>
 4    1  0.1100959E+000  0.2227257E+03  0.7546771E-02  0.1131867E+00
         21   -1    0    0  503  502  0.00000000000E+00  0.00000000000E+00  0.29516140179E+03  0.29516140179E+03  0.00000000000E+00 0.  1.
         21   -1    0    0  501  503 -0.00000000000E+00 -0.00000000000E+00 -0.24642010676E+03  0.24642010676E+03  0.00000000000E+00 0. -1.
          6    1    1    2  501    0  0.63213359147E+02 -0.12659698690E+03 -0.12832456662E+03  0.25704847843E+03  0.17200000000E+03 0. -1.
         -6    1    1    2    0  502 -0.63213359147E+02  0.12659698690E+03  0.17706586165E+03  0.28453303012E+03  0.17200000000E+03 0.  1.
<mgrwt>
<rscale>  2 0.22272567E+03</rscale>
<asrwt>0</asrwt>
<pdfrwt beam="1">  1       21 0.73790350E-01 0.22272567E+03</pdfrwt>
<pdfrwt beam="2">  1       21 0.61605027E-01 0.22272567E+03</pdfrwt>
<totfact> 0.39426821E+03</totfact>
</mgrwt>
</event>
<event>
 4    1  0.1100959E+000  0.2239811E+03  0.7546771E-02  0.1130949E+00
         21   -1    0    0  503  502  0.00000000000E+00  0.00000000000E+00  0.41272023739E+03  0.41272023739E+03  0.00000000000E+00 0. -1.
         21   -1    0    0  501  503 -0.00000000000E+00 -0.00000000000E+00 -0.19748553455E+03  0.19748553455E+03  0.00000000000E+00 0. -1.
          6    1    1    2  501    0 -0.12956958364E+03 -0.61605625108E+02 -0.81569783455E+02  0.23837189353E+03  0.17200000000E+03 0. -1.
         -6    1    1    2    0  502  0.12956958364E+03  0.61605625108E+02  0.29680448629E+03  0.37183387841E+03  0.17200000000E+03 0. -1.
<mgrwt>
<rscale>  2 0.22398109E+03</rscale>
<asrwt>0</asrwt>
<pdfrwt beam="1">  1       21 0.10318006E+00 0.22398109E+03</pdfrwt>
<pdfrwt beam="2">  1       21 0.49371384E-01 0.22398109E+03</pdfrwt>
<totfact> 0.29046764E+03</totfact>
</mgrwt>
</event>
<event>
 4    1  0.1100959E+000  0.1825208E+03  0.7546771E-02  0.1165385E+00
         21   -1    0    0  503  502  0.00000000000E+00  0.00000000000E+00  0.51792267380E+03  0.51792267380E+03  0.00000000000E+00 0. -1.
         21   -1    0    0  501  503 -0.00000000000E+00 -0.00000000000E+00 -0.64865956227E+02  0.64865956227E+02  0.00000000000E+00 0. -1.
          6    1    1    2  501    0 -0.60732166200E+02 -0.64378504397E+01  0.19984506426E+03  0.27065086669E+03  0.17200000000E+03 0. -1.
         -6    1    1    2    0  502  0.60732166200E+02  0.64378504397E+01  0.25321165331E+03  0.31213776334E+03  0.17200000000E+03 0. -1.
<mgrwt>
<rscale>  2 0.18252080E+03</rscale>
<asrwt>0</asrwt>
<pdfrwt beam="1">  1       21 0.12948066E+00 0.18252080E+03</pdfrwt>
<pdfrwt beam="2">  1       21 0.16216491E-01 0.18252080E+03</pdfrwt>
<totfact> 0.14957893E+04</totfact>
</mgrwt>
</event>
<event>
 4    1  0.1100959E+000  0.2838718E+03  0.7546771E-02  0.1093593E+00
         21   -1    0    0  503  502  0.00000000000E+00  0.00000000000E+00  0.14425327422E+03  0.14425327422E+03  0.00000000000E+00 0.  1.
         21   -1    0    0  501  503 -0.00000000000E+00 -0.00000000000E+00 -0.55862747329E+03  0.55862747329E+03  0.00000000000E+00 0. -1.
          6    1    1    2  501    0 -0.21076544853E+03 -0.81099318887E+02 -0.20617504110E+03  0.35084372787E+03  0.17200000000E+03 0.  1.
         -6    1    1    2    0  502  0.21076544853E+03  0.81099318887E+02 -0.20819915797E+03  0.35203701964E+03  0.17200000000E+03 0. -1.
<mgrwt>
<rscale>  2 0.28387176E+03</rscale>
<asrwt>0</asrwt>
<pdfrwt beam="1">  1       21 0.36063319E-01 0.28387176E+03</pdfrwt>
<pdfrwt beam="2">  1       21 0.13965687E+00 0.28387176E+03</pdfrwt>
<totfact> 0.24901740E+03</totfact>
</mgrwt>
</event>
<event>
 4    1  0.1100959E+000  0.1890773E+03  0.7546771E-02  0.1159296E+00
         21   -1    0    0  501  502  0.00000000000E+00  0.00000000000E+00  0.17455779482E+03  0.17455779482E+03  0.00000000000E+00 0.  1.
         21   -1    0    0  502  503 -0.00000000000E+00 -0.00000000000E+00 -0.26938583490E+03  0.26938583490E+03  0.00000000000E+00 0.  1.
          6    1    1    2  501    0  0.69580431941E+02  0.36397464315E+02 -0.15609765523E+03  0.24518705082E+03  0.17200000000E+03 0.  1.
         -6    1    1    2    0  503 -0.69580431941E+02 -0.36397464315E+02  0.61269615148E+02  0.19875657890E+03  0.17200000000E+03 0.  1.
<mgrwt>
<rscale>  2 0.18907726E+03</rscale>
<asrwt>0</asrwt>
<pdfrwt beam="1">  1       21 0.43639449E-01 0.18907726E+03</pdfrwt>
<pdfrwt beam="2">  1       21 0.67346458E-01 0.18907726E+03</pdfrwt>
<totfact> 0.10204216E+04</totfact>
</mgrwt>
</event>
<event>
 4    1  0.1100959E+000  0.1790510E+03  0.7546771E-02  0.1168725E+00
         21   -1    0    0  503  502  0.00000000000E+00  0.00000000000E+00  0.38002234254E+02  0.38002234254E+02  0.00000000000E+00 0. -1.
         21   -1    0    0  501  503 -0.00000000000E+00 -0.00000000000E+00 -0.84423667966E+03  0.84423667966E+03  0.00000000000E+00 0. -1.
          6    1    1    2  501    0  0.30796313929E+02  0.39074821167E+02 -0.41508765203E+03  0.45205863942E+03  0.17200000000E+03 0.  1.
         -6    1    1    2    0  502 -0.30796313929E+02 -0.39074821167E+02 -0.39114679337E+03  0.43018027449E+03  0.17200000000E+03 0.  1.
<mgrwt>
<rscale>  2 0.17905098E+03</rscale>
<asrwt>0</asrwt>
<pdfrwt beam="1">  1       21 0.95005585E-02 0.17905098E+03</pdfrwt>
<pdfrwt beam="2">  1       21 0.21105917E+00 0.17905098E+03</pdfrwt>
<totfact> 0.10273036E+04</totfact>
</mgrwt>
</event>
<event>
 4    1  0.1100959E+000  0.2286412E+03  0.7546771E-02  0.1127600E+00
         21   -1    0    0  503  502  0.00000000000E+00  0.00000000000E+00  0.14443863758E+04  0.14443863758E+04  0.00000000000E+00 0.  1.
         21   -1    0    0  501  503 -0.00000000000E+00 -0.00000000000E+00 -0.53155819626E+02  0.53155819626E+02  0.00000000000E+00 0. -1.
          6    1    1    2  501    0  0.18682604327E+02  0.14947833160E+03  0.27263366756E+03  0.35581726772E+03  0.17200000000E+03 0. -1.
         -6    1    1    2    0  502 -0.18682604327E+02 -0.14947833160E+03  0.11185968887E+04  0.11417249277E+04  0.17200000000E+03 0.  1.
<mgrwt>
<rscale>  2 0.22864123E+03</rscale>
<asrwt>0</asrwt>
<pdfrwt beam="1">  1       21 0.36109646E+00 0.22864123E+03</pdfrwt>
<pdfrwt beam="2">  1       21 0.13288960E-01 0.22864123E+03</pdfrwt>
<totfact> 0.69784337E+02</totfact>
</mgrwt>
</event>
<event>
 4    1  0.1100959E+000  0.1818481E+03  0.7546771E-02  0.1166026E+00
         21   -1    0    0  503  502  0.00000000000E+00  0.00000000000E+00  0.69107450610E+02  0.69107450610E+02  0.00000000000E+00 0.  1.
         21   -1    0    0  501  503 -0.00000000000E+00 -0.00000000000E+00 -0.90202355343E+03  0.90202355343E+03  0.00000000000E+00 0.  1.
          6    1    1    2  501    0  0.58075328747E+02  0.10582188171E+02 -0.74917249059E+03  0.77092681051E+03  0.17200000000E+03 0.  1.
         -6    1    1    2    0  502 -0.58075328747E+02 -0.10582188171E+02 -0.83743612232E+02  0.20020419353E+03  0.17200000000E+03 0.  1.
<mgrwt>
<rscale>  2 0.18184809E+03</rscale>
<asrwt>0</asrwt>
<pdfrwt beam="1">  1       21 0.17276863E-01 0.18184809E+03</pdfrwt>
<pdfrwt beam="2">  1       21 0.22550589E+00 0.18184809E+03</pdfrwt>
<totfact> 0.28524980E+03</totfact>
</mgrwt>
</event>
<event>
 4    1  0.1100959E+000  0.3672148E+03  0.7546771E-02  0.1055763E+00
         21   -1    0    0  503  502  0.00000000000E+00  0.00000000000E+00  0.84850266008E+03  0.84850266008E+03  0.00000000000E+00 0. -1.
         21   -1    0    0  501  503 -0.00000000000E+00 -0.00000000000E+00 -0.18338873766E+03  0.18338873766E+03  0.00000000000E+00 0. -1.
          6    1    1    2  501    0 -0.26889019351E+03 -0.18155097422E+03  0.52100678406E+03  0.63741255200E+03  0.17200000000E+03 0. -1.
         -6    1    1    2    0  502  0.26889019351E+03  0.18155097422E+03  0.14410713837E+03  0.39447884574E+03  0.17200000000E+03 0. -1.
<mgrwt>
<rscale>  2 0.36721478E+03</rscale>
<asrwt>0</asrwt>
<pdfrwt beam="1">  1       21 0.21212565E+00 0.36721478E+03</pdfrwt>
<pdfrwt beam="2">  1       21 0.45847187E-01 0.36721478E+03</pdfrwt>
<totfact> 0.43986375E+02</totfact>
</mgrwt>
</event>
<event>
 4    1  0.1100959E+000  0.2096373E+03  0.7546771E-02  0.1141854E+00
         21   -1    0    0  503  502  0.00000000000E+00  0.00000000000E+00  0.28614138423E+03  0.28614138423E+03  0.00000000000E+00 0.  1.
         21   -1    0    0  501  503 -0.00000000000E+00 -0.00000000000E+00 -0.20488312219E+03  0.20488312219E+03  0.00000000000E+00 0.  1.
          6    1    1    2  501    0 -0.11984865333E+03 -0.27887770799E+00 -0.82216488421E+02  0.22518287778E+03  0.17200000000E+03 0.  1.
         -6    1    1    2    0  502  0.11984865333E+03  0.27887770799E+00  0.16347475046E+03  0.26584162864E+03  0.17200000000E+03 0.  1.
<mgrwt>
<rscale>  2 0.20963725E+03</rscale>
<asrwt>0</asrwt>
<pdfrwt beam="1">  1       21 0.71535346E-01 0.20963725E+03</pdfrwt>
<pdfrwt beam="2">  1       21 0.51220781E-01 0.20963725E+03</pdfrwt>
<totfact> 0.63193481E+03</totfact>
</mgrwt>
</event>
<event>
 4    1  0.1100959E+000  0.1900248E+03  0.7546771E-02  0.1158439E+00
         21   -1    0    0  501  502  0.00000000000E+00  0.00000000000E+00  0.28271862425E+03  0.28271862425E+03  0.00000000000E+00 0.  1.
         21   -1    0    0  502  503 -0.00000000000E+00 -0.00000000000E+00 -0.15408225255E+03  0.15408225255E+03  0.00000000000E+00 0.  1.
          6    1    1    2  501    0  0.76662507396E+02  0.25461223362E+02  0.15465218304E+03  0.24500349315E+03  0.17200000000E+03 0. -1.
         -6    1    1    2    0  503 -0.76662507396E+02 -0.25461223362E+02 -0.26015811347E+02  0.19179738365E+03  0.17200000000E+03 0. -1.
<mgrwt>
<rscale>  2 0.19002477E+03</rscale>
<asrwt>0</asrwt>
<pdfrwt beam="1">  1       21 0.70679655E-01 0.19002477E+03</pdfrwt>
<pdfrwt beam="2">  1       21 0.38520564E-01 0.19002477E+03</pdfrwt>
<totfact> 0.11808338E+04</totfact>
</mgrwt>
</event>
<event>
 4    1  0.1100959E+000  0.2068027E+03  0.7546771E-02  0.1144123E+00
         21   -1    0    0  503  502  0.00000000000E+00  0.00000000000E+00  0.28357016651E+03  0.28357016651E+03  0.00000000000E+00 0. -1.
         21   -1    0    0  501  503 -0.00000000000E+00 -0.00000000000E+00 -0.17993520205E+03  0.17993520205E+03  0.00000000000E+00 0. -1.
          6    1    1    2  501    0  0.29967413060E+02 -0.11083902901E+03  0.14504528492E+03  0.25259744828E+03  0.17200000000E+03 0. -1.
         -6    1    1    2    0  502 -0.29967413060E+02  0.11083902901E+03 -0.41410320473E+02  0.21090792028E+03  0.17200000000E+03 0. -1.
<mgrwt>
<rscale>  2 0.20680265E+03</rscale>
<asrwt>0</asrwt>
<pdfrwt beam="1">  1       21 0.70892541E-01 0.20680265E+03</pdfrwt>
<pdfrwt beam="2">  1       21 0.44983801E-01 0.20680265E+03</pdfrwt>
<totfact> 0.84593694E+03</totfact>
</mgrwt>
</event>
<event>
 4    1  0.1100959E+000  0.1722322E+03  0.7546771E-02  0.1175540E+00
         21   -1    0    0  503  502  0.00000000000E+00  0.00000000000E+00  0.39270585158E+03  0.39270585158E+03  0.00000000000E+00 0.  1.
         21   -1    0    0  501  503 -0.00000000000E+00 -0.00000000000E+00 -0.84586467923E+02  0.84586467923E+02  0.00000000000E+00 0.  1.
          6    1    1    2  501    0  0.89350640734E+01  0.31115088145E+00  0.23211614066E+03  0.28903604436E+03  0.17200000000E+03 0.  1.
         -6    1    1    2    0  502 -0.89350640734E+01 -0.31115088145E+00  0.76003243000E+02  0.18825627514E+03  0.17200000000E+03 0.  1.
<mgrwt>
<rscale>  2 0.17223220E+03</rscale>
<asrwt>0</asrwt>
<pdfrwt beam="1">  1       21 0.98176458E-01 0.17223220E+03</pdfrwt>
<pdfrwt beam="2">  1       21 0.21146618E-01 0.17223220E+03</pdfrwt>
<totfact> 0.18066141E+04</totfact>
</mgrwt>
</event>
<event>
 4    1  0.1100959E+000  0.2226189E+03  0.7546771E-02  0.1131946E+00
         21   -1    0    0  503  502  0.00000000000E+00  0.00000000000E+00  0.13685616818E+03  0.13685616818E+03  0.00000000000E+00 0. -1.
         21   -1    0    0  501  503 -0.00000000000E+00 -0.00000000000E+00 -0.36914220663E+03  0.36914220663E+03  0.00000000000E+00 0. -1.
          6    1    1    2  501    0  0.84709592319E+02 -0.11313464561E+03 -0.81263012868E+02  0.23698700456E+03  0.17200000000E+03 0. -1.
         -6    1    1    2    0  502 -0.84709592319E+02  0.11313464561E+03 -0.15102302559E+03  0.26901137025E+03  0.17200000000E+03 0. -1.
<mgrwt>
<rscale>  2 0.22261887E+03</rscale>
<asrwt>0</asrwt>
<pdfrwt beam="1">  1       21 0.34214042E-01 0.22261887E+03</pdfrwt>
<pdfrwt beam="2">  1       21 0.92285550E-01 0.22261887E+03</pdfrwt>
<totfact> 0.79898246E+03</totfact>
</mgrwt>
</event>
<event>
 4    1  0.1100959E+000  0.2732639E+03  0.7546771E-02  0.1099426E+00
         21   -1    0    0  501  502  0.00000000000E+00  0.00000000000E+00  0.79647539194E+03  0.79647539194E+03  0.00000000000E+00 0.  1.
         21   -1    0    0  502  503 -0.00000000000E+00 -0.00000000000E+00 -0.94206503259E+02  0.94206503259E+02  0.00000000000E+00 0. -1.
          6    1    1    2  501    0  0.17676155315E+03 -0.11766260133E+03  0.32028597271E+03  0.42101809787E+03  0.17200000000E+03 0.  1.
         -6    1    1    2    0  503 -0.17676155315E+03  0.11766260133E+03  0.38198291597E+03  0.46966379732E+03  0.17200000000E+03 0. -1.
<mgrwt>
<rscale>  2 0.27326385E+03</rscale>
<asrwt>0</asrwt>
<pdfrwt beam="1">  1       21 0.19911883E+00 0.27326385E+03</pdfrwt>
<pdfrwt beam="2">  1       21 0.23551628E-01 0.27326385E+03</pdfrwt>
<totfact> 0.21515674E+03</totfact>
</mgrwt>
</event>
<event>
 4    1  0.1100959E+000  0.1958155E+03  0.7546771E-02  0.1153318E+00
         21   -1    0    0  503  502  0.00000000000E+00  0.00000000000E+00  0.28636303295E+02  0.28636303295E+02  0.00000000000E+00 0. -1.
         21   -1    0    0  501  503 -0.00000000000E+00 -0.00000000000E+00 -0.13606144630E+04  0.13606144630E+04  0.00000000000E+00 0. -1.
          6    1    1    2  501    0 -0.71925592759E+02  0.59886762542E+02 -0.57841839141E+03  0.61066484322E+03  0.17200000000E+03 0. -1.
         -6    1    1    2    0  502  0.71925592759E+02 -0.59886762542E+02 -0.75355976833E+03  0.77858592311E+03  0.17200000000E+03 0. -1.
<mgrwt>
<rscale>  2 0.19581551E+03</rscale>
<asrwt>0</asrwt>
<pdfrwt beam="1">  1       21 0.71590760E-02 0.19581551E+03</pdfrwt>
<pdfrwt beam="2">  1       21 0.34015361E+00 0.19581551E+03</pdfrwt>
<totfact> 0.28951260E+03</totfact>
</mgrwt>
</event>
<event>
 4    1  0.1100959E+000  0.1962338E+03  0.7546771E-02  0.1152956E+00
         21   -1    0    0  501  502  0.00000000000E+00  0.00000000000E+00  0.42717870735E+03  0.42717870735E+03  0.00000000000E+00 0. -1.
         21   -1    0    0  502  503 -0.00000000000E+00 -0.00000000000E+00 -0.97556922938E+02  0.97556922938E+02  0.00000000000E+00 0. -1.
          6    1    1    2  501    0  0.50308608503E+02 -0.79954750918E+02  0.23713248206E+03  0.30779787578E+03  0.17200000000E+03 0. -1.
         -6    1    1    2    0  503 -0.50308608503E+02  0.79954750918E+02  0.92489302353E+02  0.21693775451E+03  0.17200000000E+03 0. -1.
<mgrwt>
<rscale>  2 0.19623384E+03</rscale>
<asrwt>0</asrwt>
<pdfrwt beam="1">  1       21 0.10679467E+00 0.19623384E+03</pdfrwt>
<pdfrwt beam="2">  1       21 0.24389232E-01 0.19623384E+03</pdfrwt>
<totfact> 0.11109874E+04</totfact>
</mgrwt>
</event>
<event>
 4    1  0.1100959E+000  0.2027830E+03  0.7546771E-02  0.1147412E+00
         21   -1    0    0  503  502  0.00000000000E+00  0.00000000000E+00  0.90030517134E+03  0.90030517134E+03  0.00000000000E+00 0. -1.
         21   -1    0    0  501  503 -0.00000000000E+00 -0.00000000000E+00 -0.12639611565E+03  0.12639611565E+03  0.00000000000E+00 0. -1.
          6    1    1    2  501    0  0.67124596457E+02  0.83852565617E+02 -0.23289476426E+02  0.20411605503E+03  0.17200000000E+03 0. -1.
         -6    1    1    2    0  502 -0.67124596457E+02 -0.83852565617E+02  0.79719853212E+03  0.82258523195E+03  0.17200000000E+03 0. -1.
<mgrwt>
<rscale>  2 0.20278305E+03</rscale>
<asrwt>0</asrwt>
<pdfrwt beam="1">  1       21 0.22507627E+00 0.20278305E+03</pdfrwt>
<pdfrwt beam="2">  1       21 0.31599032E-01 0.20278305E+03</pdfrwt>
<totfact> 0.89113033E+02</totfact>
</mgrwt>
</event>
<event>
 4    1  0.1100959E+000  0.1864140E+03  0.7546771E-02  0.1161736E+00
         21   -1    0    0  503  502  0.00000000000E+00  0.00000000000E+00  0.91062726681E+03  0.91062726681E+03  0.00000000000E+00 0. -1.
         21   -1    0    0  501  503 -0.00000000000E+00 -0.00000000000E+00 -0.38327027895E+02  0.38327027895E+02  0.00000000000E+00 0. -1.
          6    1    1    2  501    0  0.43902958999E+01 -0.71741986326E+02  0.46740559566E+03  0.50320788761E+03  0.17200000000E+03 0. -1.
         -6    1    1    2    0  502 -0.43902958999E+01  0.71741986326E+02  0.40489464326E+03  0.44574640709E+03  0.17200000000E+03 0. -1.
<mgrwt>
<rscale>  2 0.18641402E+03</rscale>
<asrwt>0</asrwt>
<pdfrwt beam="1">  1       21 0.22765675E+00 0.18641402E+03</pdfrwt>
<pdfrwt beam="2">  1       21 0.95817600E-02 0.18641402E+03</pdfrwt>
<totfact> 0.79522027E+03</totfact>
</mgrwt>
</event>
<event>
 4    1  0.1100959E+000  0.2204410E+03  0.7546771E-02  0.1133555E+00
         21   -1    0    0  501  502  0.00000000000E+00  0.00000000000E+00  0.45174354523E+03  0.45174354523E+03  0.00000000000E+00 0.  1.
         21   -1    0    0  502  503 -0.00000000000E+00 -0.00000000000E+00 -0.14006062382E+03  0.14006062382E+03  0.00000000000E+00 0. -1.
          6    1    1    2  501    0  0.75560300846E+02 -0.11532943360E+03  0.29835833765E+03  0.37096082672E+03  0.17200000000E+03 0.  1.
         -6    1    1    2    0  503 -0.75560300846E+02  0.11532943360E+03  0.13324583762E+02  0.22084334233E+03  0.17200000000E+03 0. -1.
<mgrwt>
<rscale>  2 0.22044101E+03</rscale>
<asrwt>0</asrwt>
<pdfrwt beam="1">  1       21 0.11293588E+00 0.22044101E+03</pdfrwt>
<pdfrwt beam="2">  1       21 0.35015157E-01 0.22044101E+03</pdfrwt>
<totfact> 0.47141521E+03</totfact>
</mgrwt>
</event>
<event>
 4    1  0.1100959E+000  0.2014481E+03  0.7546771E-02  0.1148523E+00
         21   -1    0    0  503  502  0.00000000000E+00  0.00000000000E+00  0.16942469657E+03  0.16942469657E+03  0.00000000000E+00 0. -1.
         21   -1    0    0  501  503 -0.00000000000E+00 -0.00000000000E+00 -0.27114667397E+03  0.27114667397E+03  0.00000000000E+00 0.  1.
          6    1    1    2  501    0  0.91009220801E+02  0.52102201890E+02 -0.12608940927E+03  0.23765491125E+03  0.17200000000E+03 0. -1.
         -6    1    1    2    0  502 -0.91009220801E+02 -0.52102201890E+02  0.24367431874E+02  0.20291645928E+03  0.17200000000E+03 0. -1.
<mgrwt>
<rscale>  2 0.20144805E+03</rscale>
<asrwt>0</asrwt>
<pdfrwt beam="1">  1       21 0.42356174E-01 0.20144805E+03</pdfrwt>
<pdfrwt beam="2">  1       21 0.67786668E-01 0.20144805E+03</pdfrwt>
<totfact> 0.10601060E+04</totfact>
</mgrwt>
</event>
<event>
 4    1  0.1100959E+000  0.2128332E+03  0.7546771E-02  0.1139342E+00
         21   -1    0    0  501  502  0.00000000000E+00  0.00000000000E+00  0.12955745655E+03  0.12955745655E+03  0.00000000000E+00 0. -1.
         21   -1    0    0  502  503 -0.00000000000E+00 -0.00000000000E+00 -0.48825207759E+03  0.48825207759E+03  0.00000000000E+00 0. -1.
          6    1    1    2  501    0  0.11988939150E+03 -0.36612759349E+02 -0.14755111069E+02  0.21334402650E+03  0.17200000000E+03 0. -1.
         -6    1    1    2    0  503 -0.11988939150E+03  0.36612759349E+02 -0.34393950997E+03  0.40446550763E+03  0.17200000000E+03 0. -1.
<mgrwt>
<rscale>  2 0.21283317E+03</rscale>
<asrwt>0</asrwt>
<pdfrwt beam="1">  1       21 0.32389365E-01 0.21283317E+03</pdfrwt>
<pdfrwt beam="2">  1       21 0.12206302E+00 0.21283317E+03</pdfrwt>
<totfact> 0.45680641E+03</totfact>
</mgrwt>
</event>
<event>
 4    1  0.1100959E+000  0.1764823E+03  0.7546771E-02  0.1171252E+00
         21   -1    0    0  501  502  0.00000000000E+00  0.00000000000E+00  0.65300336062E+02  0.65300336062E+02  0.00000000000E+00 0. -1.
         21   -1    0    0  502  503 -0.00000000000E+00 -0.00000000000E+00 -0.50896652444E+03  0.50896652444E+03  0.00000000000E+00 0. -1.
          6    1    1    2  501    0 -0.34788782627E+02  0.18754488065E+02 -0.14983468844E+03  0.23150901511E+03  0.17200000000E+03 0. -1.
         -6    1    1    2    0  503  0.34788782627E+02 -0.18754488065E+02 -0.29383149994E+03  0.34275784539E+03  0.17200000000E+03 0. -1.
<mgrwt>
<rscale>  2 0.17648227E+03</rscale>
<asrwt>0</asrwt>
<pdfrwt beam="1">  1       21 0.16325084E-01 0.17648227E+03</pdfrwt>
<pdfrwt beam="2">  1       21 0.12724163E+00 0.17648227E+03</pdfrwt>
<totfact> 0.15503269E+04</totfact>
</mgrwt>
</event>
<event>
 4    1  0.1100959E+000  0.1734248E+03  0.7546771E-02  0.1174323E+00
         21   -1    0    0  503  502  0.00000000000E+00  0.00000000000E+00  0.22949752763E+03  0.22949752763E+03  0.00000000000E+00 0.  1.
         21   -1    0    0  501  503 -0.00000000000E+00 -0.00000000000E+00 -0.44004407768E+03  0.44004407768E+03  0.00000000000E+00 0.  1.
          6    1    1    2  501    0 -0.71154155261E+01 -0.21012368539E+02 -0.38579922188E+03  0.42298603804E+03  0.17200000000E+03 0.  1.
         -6    1    1    2    0  502  0.71154155261E+01  0.21012368539E+02  0.17525267183E+03  0.24655556727E+03  0.17200000000E+03 0.  1.
<mgrwt>
<rscale>  2 0.17342476E+03</rscale>
<asrwt>0</asrwt>
<pdfrwt beam="1">  1       21 0.57374383E-01 0.17342476E+03</pdfrwt>
<pdfrwt beam="2">  1       21 0.11001102E+00 0.17342476E+03</pdfrwt>
<totfact> 0.18967215E+03</totfact>
</mgrwt>
</event>
<event>
 4    1  0.1100959E+000  0.1881496E+03  0.7546771E-02  0.1160141E+00
         21   -1    0    0  501  502  0.00000000000E+00  0.00000000000E+00  0.39038377114E+03  0.39038377114E+03  0.00000000000E+00 0.  1.
         21   -1    0    0  502  503 -0.00000000000E+00 -0.00000000000E+00 -0.12317176356E+03  0.12317176356E+03  0.00000000000E+00 0.  1.
          6    1    1    2  501    0  0.49422068493E+01 -0.76104075627E+02  0.26548757387E+03  0.32539807562E+03  0.17200000000E+03 0.  1.
         -6    1    1    2    0  503 -0.49422068493E+01  0.76104075627E+02  0.17244337078E+01  0.18815745908E+03  0.17200000000E+03 0.  1.
<mgrwt>
<rscale>  2 0.18814956E+03</rscale>
<asrwt>0</asrwt>
<pdfrwt beam="1">  1       21 0.97595940E-01 0.18814956E+03</pdfrwt>
<pdfrwt beam="2">  1       21 0.30792942E-01 0.18814956E+03</pdfrwt>
<totfact> 0.88344542E+03</totfact>
</mgrwt>
</event>
<event>
 4    1  0.1100959E+000  0.1770971E+03  0.7546771E-02  0.1170642E+00
         21   -1    0    0  501  502  0.00000000000E+00  0.00000000000E+00  0.63620682345E+02  0.63620682345E+02  0.00000000000E+00 0. -1.
         21   -1    0    0  502  503 -0.00000000000E+00 -0.00000000000E+00 -0.60750427624E+03  0.60750427624E+03  0.00000000000E+00 0. -1.
          6    1    1    2  501    0  0.25848922140E+02 -0.33334975345E+02 -0.12624247356E+03  0.21748689498E+03  0.17200000000E+03 0. -1.
         -6    1    1    2    0  503 -0.25848922140E+02  0.33334975345E+02 -0.41764112034E+03  0.45363806361E+03  0.17200000000E+03 0. -1.
<mgrwt>
<rscale>  2 0.17709711E+03</rscale>
<asrwt>0</asrwt>
<pdfrwt beam="1">  1       21 0.15905171E-01 0.17709711E+03</pdfrwt>
<pdfrwt beam="2">  1       21 0.15187607E+00 0.17709711E+03</pdfrwt>
<totfact> 0.10319594E+04</totfact>
</mgrwt>
</event>
<event>
 4    1  0.1100959E+000  0.2111143E+03  0.7546771E-02  0.1140687E+00
         21   -1    0    0  503  502  0.00000000000E+00  0.00000000000E+00  0.77193667332E+03  0.77193667332E+03  0.00000000000E+00 0.  1.
         21   -1    0    0  501  503 -0.00000000000E+00 -0.00000000000E+00 -0.88301561296E+02  0.88301561296E+02  0.00000000000E+00 0. -1.
          6    1    1    2  501    0 -0.96135177626E+02 -0.75784509938E+02  0.59487203999E+03  0.63122262974E+03  0.17200000000E+03 0.  1.
         -6    1    1    2    0  502  0.96135177626E+02  0.75784509938E+02  0.88763072033E+02  0.22901560488E+03  0.17200000000E+03 0. -1.
<mgrwt>
<rscale>  2 0.21111434E+03</rscale>
<asrwt>0</asrwt>
<pdfrwt beam="1">  1       21 0.19298415E+00 0.21111434E+03</pdfrwt>
<pdfrwt beam="2">  1       21 0.22075393E-01 0.21111434E+03</pdfrwt>
<totfact> 0.28092895E+03</totfact>
</mgrwt>
</event>
<event>
 4    1  0.1100959E+000  0.1808959E+03  0.7546771E-02  0.1166939E+00
         21   -1    0    0  503  502  0.00000000000E+00  0.00000000000E+00  0.29118429706E+03  0.29118429706E+03  0.00000000000E+00 0.  1.
         21   -1    0    0  501  503 -0.00000000000E+00 -0.00000000000E+00 -0.11707397795E+03  0.11707397795E+03  0.00000000000E+00 0.  1.
          6    1    1    2  501    0  0.50485248210E+02  0.24301767157E+02  0.12792831876E+03  0.22156035501E+03  0.17200000000E+03 0. -1.
         -6    1    1    2    0  502 -0.50485248210E+02 -0.24301767157E+02  0.46182000347E+02  0.18669791999E+03  0.17200000000E+03 0. -1.
<mgrwt>
<rscale>  2 0.18089593E+03</rscale>
<asrwt>0</asrwt>
<pdfrwt beam="1">  1       21 0.72796073E-01 0.18089593E+03</pdfrwt>
<pdfrwt beam="2">  1       21 0.29268495E-01 0.18089593E+03</pdfrwt>
<totfact> 0.19133091E+04</totfact>
</mgrwt>
</event>
<event>
 4    1  0.1100959E+000  0.2045787E+03  0.7546771E-02  0.1145932E+00
         21   -1    0    0  501  502  0.00000000000E+00  0.00000000000E+00  0.30683526853E+03  0.30683526853E+03  0.00000000000E+00 0. -1.
         21   -1    0    0  502  503 -0.00000000000E+00 -0.00000000000E+00 -0.47012711159E+03  0.47012711159E+03  0.00000000000E+00 0. -1.
          6    1    1    2  501    0 -0.65575908481E+02 -0.89265091095E+02  0.24566298659E+03  0.31969166277E+03  0.17200000000E+03 0. -1.
         -6    1    1    2    0  503  0.65575908481E+02  0.89265091095E+02 -0.40895482965E+03  0.45727071736E+03  0.17200000000E+03 0. -1.
<mgrwt>
<rscale>  2 0.20457873E+03</rscale>
<asrwt>0</asrwt>
<pdfrwt beam="1">  1       21 0.76708818E-01 0.20457873E+03</pdfrwt>
<pdfrwt beam="2">  1       21 0.11753178E+00 0.20457873E+03</pdfrwt>
<totfact> 0.83013419E+02</totfact>
</mgrwt>
</event>
<event>
 4    1  0.1100959E+000  0.1842408E+03  0.7546771E-02  0.1163761E+00
         21   -1    0    0  503  502  0.00000000000E+00  0.00000000000E+00  0.15744220385E+03  0.15744220385E+03  0.00000000000E+00 0. -1.
         21   -1    0    0  501  503 -0.00000000000E+00 -0.00000000000E+00 -0.25287675112E+03  0.25287675112E+03  0.00000000000E+00 0. -1.
          6    1    1    2  501    0 -0.47983586660E+02  0.45367905983E+02  0.31050988453E+02  0.18683906274E+03  0.17200000000E+03 0. -1.
         -6    1    1    2    0  502  0.47983586660E+02 -0.45367905983E+02 -0.12648553572E+03  0.22347989223E+03  0.17200000000E+03 0. -1.
<mgrwt>
<rscale>  2 0.18424080E+03</rscale>
<asrwt>0</asrwt>
<pdfrwt beam="1">  1       21 0.39360551E-01 0.18424080E+03</pdfrwt>
<pdfrwt beam="2">  1       21 0.63219187E-01 0.18424080E+03</pdfrwt>
<totfact> 0.14482982E+04</totfact>
</mgrwt>
</event>
<event>
 4    1  0.1100959E+000  0.1870845E+03  0.7546771E-02  0.1161118E+00
         21   -1    0    0  501  502  0.00000000000E+00  0.00000000000E+00  0.86507389222E+02  0.86507389222E+02  0.00000000000E+00 0. -1.
         21   -1    0    0  502  503 -0.00000000000E+00 -0.00000000000E+00 -0.51984455200E+03  0.51984455200E+03  0.00000000000E+00 0. -1.
          6    1    1    2  501    0  0.52834517094E+02 -0.51235969580E+02 -0.73919176981E+02  0.20115828469E+03  0.17200000000E+03 0. -1.
         -6    1    1    2    0  503 -0.52834517094E+02  0.51235969580E+02 -0.35941798579E+03  0.40519365652E+03  0.17200000000E+03 0. -1.
<mgrwt>
<rscale>  2 0.18708450E+03</rscale>
<asrwt>0</asrwt>
<pdfrwt beam="1">  1       21 0.21626848E-01 0.18708450E+03</pdfrwt>
<pdfrwt beam="2">  1       21 0.12996114E+00 0.18708450E+03</pdfrwt>
<totfact> 0.86597155E+03</totfact>
</mgrwt>
</event>
<event>
 4    1  0.1100959E+000  0.1767231E+03  0.7546771E-02  0.1171013E+00
         21   -1    0    0  501  502  0.00000000000E+00  0.00000000000E+00  0.37256731928E+03  0.37256731928E+03  0.00000000000E+00 0. -1.
         21   -1    0    0  502  503 -0.00000000000E+00 -0.00000000000E+00 -0.83910810366E+02  0.83910810366E+02  0.00000000000E+00 0. -1.
          6    1    1    2  501    0  0.32138446898E+02  0.24782398002E+02  0.13709729677E+03  0.22366652812E+03  0.17200000000E+03 0. -1.
         -6    1    1    2    0  503 -0.32138446898E+02 -0.24782398002E+02  0.15155921215E+03  0.23281160153E+03  0.17200000000E+03 0. -1.
<mgrwt>
<rscale>  2 0.17672308E+03</rscale>
<asrwt>0</asrwt>
<pdfrwt beam="1">  1       21 0.93141826E-01 0.17672308E+03</pdfrwt>
<pdfrwt beam="2">  1       21 0.20977704E-01 0.17672308E+03</pdfrwt>
<totfact> 0.20680044E+04</totfact>
</mgrwt>
</event>
<event>
 4    1  0.1100959E+000  0.1891597E+03  0.7546771E-02  0.1159221E+00
         21   -1    0    0  501  502  0.00000000000E+00  0.00000000000E+00  0.69542082125E+03  0.69542082125E+03  0.00000000000E+00 0. -1.
         21   -1    0    0  502  503 -0.00000000000E+00 -0.00000000000E+00 -0.62377818073E+02  0.62377818073E+02  0.00000000000E+00 0.  1.
          6    1    1    2  501    0  0.71984715339E+02  0.31868281260E+02  0.47509066215E+03  0.51136339706E+03  0.17200000000E+03 0. -1.
         -6    1    1    2    0  503 -0.71984715339E+02 -0.31868281260E+02  0.15795234103E+03  0.24643524226E+03  0.17200000000E+03 0.  1.
<mgrwt>
<rscale>  2 0.18915969E+03</rscale>
<asrwt>0</asrwt>
<pdfrwt beam="1">  1       21 0.17385518E+00 0.18915969E+03</pdfrwt>
<pdfrwt beam="2">  1       21 0.15594457E-01 0.18915969E+03</pdfrwt>
<totfact> 0.73507295E+03</totfact>
</mgrwt>
</event>
<event>
 4    1  0.1100959E+000  0.1791388E+03  0.7546771E-02  0.1168639E+00
         21   -1    0    0  503  502  0.00000000000E+00  0.00000000000E+00  0.17131704007E+03  0.17131704007E+03  0.00000000000E+00 0.  1.
         21   -1    0    0  501  503 -0.00000000000E+00 -0.00000000000E+00 -0.42128057484E+03  0.42128057484E+03  0.00000000000E+00 0.  1.
          6    1    1    2  501    0 -0.30785514497E+02 -0.39483832616E+02 -0.34579120055E+03  0.38943841017E+03  0.17200000000E+03 0.  1.
         -6    1    1    2    0  502  0.30785514497E+02  0.39483832616E+02  0.95827665778E+02  0.20315920474E+03  0.17200000000E+03 0.  1.
<mgrwt>
<rscale>  2 0.17913883E+03</rscale>
<asrwt>0</asrwt>
<pdfrwt beam="1">  1       21 0.42829260E-01 0.17913883E+03</pdfrwt>
<pdfrwt beam="2">  1       21 0.10532014E+00 0.17913883E+03</pdfrwt>
<totfact> 0.38466843E+03</totfact>
</mgrwt>
</event>
<event>
 4    1  0.1100959E+000  0.2593573E+03  0.7546771E-02  0.1107530E+00
         21   -1    0    0  503  502  0.00000000000E+00  0.00000000000E+00  0.33497225996E+03  0.33497225996E+03  0.00000000000E+00 0. -1.
         21   -1    0    0  501  503 -0.00000000000E+00 -0.00000000000E+00 -0.20276204442E+03  0.20276204442E+03  0.00000000000E+00 0. -1.
          6    1    1    2  501    0 -0.16933850557E+03 -0.94903526480E+02  0.92477325778E+02  0.27535116595E+03  0.17200000000E+03 0. -1.
         -6    1    1    2    0  502  0.16933850557E+03  0.94903526480E+02  0.39732889761E+02  0.26238313844E+03  0.17200000000E+03 0. -1.
<mgrwt>
<rscale>  2 0.25935730E+03</rscale>
<asrwt>0</asrwt>
<pdfrwt beam="1">  1       21 0.83743065E-01 0.25935730E+03</pdfrwt>
<pdfrwt beam="2">  1       21 0.50690511E-01 0.25935730E+03</pdfrwt>
<totfact> 0.43794943E+03</totfact>
</mgrwt>
</event>
<event>
 4    1  0.1100959E+000  0.1799584E+03  0.7546771E-02  0.1167843E+00
         21   -1    0    0  501  502  0.00000000000E+00  0.00000000000E+00  0.11770067433E+04  0.11770067433E+04  0.00000000000E+00 0. -1.
         21   -1    0    0  502  503 -0.00000000000E+00 -0.00000000000E+00 -0.44129185906E+02  0.44129185906E+02  0.00000000000E+00 0. -1.
          6    1    1    2  501    0  0.10291326741E+02  0.51914569993E+02  0.94107864780E+03  0.95813050016E+03  0.17200000000E+03 0. -1.
         -6    1    1    2    0  503 -0.10291326741E+02 -0.51914569993E+02  0.19179890956E+03  0.26300542902E+03  0.17200000000E+03 0. -1.
<mgrwt>
<rscale>  2 0.17995842E+03</rscale>
<asrwt>0</asrwt>
<pdfrwt beam="1">  1       21 0.29425158E+00 0.17995842E+03</pdfrwt>
<pdfrwt beam="2">  1       21 0.11032300E-01 0.17995842E+03</pdfrwt>
<totfact> 0.25522357E+03</totfact>
</mgrwt>
</event>
<event>
 4    1  0.1100959E+000  0.2351850E+03  0.7546771E-02  0.1123043E+00
         21   -1    0    0  501  502  0.00000000000E+00  0.00000000000E+00  0.25965184357E+03  0.25965184357E+03  0.00000000000E+00 0. -1.
         21   -1    0    0  502  503 -0.00000000000E+00 -0.00000000000E+00 -0.28685900745E+03  0.28685900745E+03  0.00000000000E+00 0. -1.
          6    1    1    2  501    0  0.19101899388E+02  0.15925793783E+03  0.12502949214E+03  0.26635380085E+03  0.17200000000E+03 0. -1.
         -6    1    1    2    0  503 -0.19101899388E+02 -0.15925793783E+03 -0.15223665602E+03  0.28015705016E+03  0.17200000000E+03 0. -1.
<mgrwt>
<rscale>  2 0.23518498E+03</rscale>
<asrwt>0</asrwt>
<pdfrwt beam="1">  1       21 0.64912961E-01 0.23518498E+03</pdfrwt>
<pdfrwt beam="2">  1       21 0.71714752E-01 0.23518498E+03</pdfrwt>
<totfact> 0.37166183E+03</totfact>
</mgrwt>
</event>
<event>
 4    1  0.1100959E+000  0.1856528E+03  0.7546771E-02  0.1162442E+00
         21   -1    0    0  503  502  0.00000000000E+00  0.00000000000E+00  0.71786333467E+03  0.71786333467E+03  0.00000000000E+00 0. -1.
         21   -1    0    0  501  503 -0.00000000000E+00 -0.00000000000E+00 -0.53577644270E+02  0.53577644270E+02  0.00000000000E+00 0. -1.
          6    1    1    2  501    0 -0.18140460531E+02  0.67482553008E+02  0.45644789975E+03  0.49275922767E+03  0.17200000000E+03 0. -1.
         -6    1    1    2    0  502  0.18140460531E+02 -0.67482553008E+02  0.20783779065E+03  0.27868175127E+03  0.17200000000E+03 0. -1.
<mgrwt>
<rscale>  2 0.18565282E+03</rscale>
<asrwt>0</asrwt>
<pdfrwt beam="1">  1       21 0.17946580E+00 0.18565282E+03</pdfrwt>
<pdfrwt beam="2">  1       21 0.13394413E-01 0.18565282E+03</pdfrwt>
<totfact> 0.88889756E+03</totfact>
</mgrwt>
</event>
<event>
 4    1  0.1100959E+000  0.1762686E+03  0.7546771E-02  0.1171464E+00
         21   -1    0    0  503  502  0.00000000000E+00  0.00000000000E+00  0.61640811206E+03  0.61640811206E+03  0.00000000000E+00 0. -1.
         21   -1    0    0  501  503 -0.00000000000E+00 -0.00000000000E+00 -0.23302645246E+03  0.23302645246E+03  0.00000000000E+00 0. -1.
          6    1    1    2  501    0 -0.87379889380E+01 -0.37553738719E+02 -0.18429552992E+03  0.25502054445E+03  0.17200000000E+03 0. -1.
         -6    1    1    2    0  502  0.87379889380E+01  0.37553738719E+02  0.56767718953E+03  0.59441402007E+03  0.17200000000E+03 0. -1.
<mgrwt>
<rscale>  2 0.17626865E+03</rscale>
<asrwt>0</asrwt>
<pdfrwt beam="1">  1       21 0.15410202E+00 0.17626865E+03</pdfrwt>
<pdfrwt beam="2">  1       21 0.58256614E-01 0.17626865E+03</pdfrwt>
<totfact> 0.78261287E+02</totfact>
</mgrwt>
</event>
<event>
 4    1  0.1100959E+000  0.2339207E+03  0.7546771E-02  0.1123910E+00
         21   -1    0    0  503  502  0.00000000000E+00  0.00000000000E+00  0.61575837049E+03  0.61575837049E+03  0.00000000000E+00 0. -1.
         21   -1    0    0  501  503 -0.00000000000E+00 -0.00000000000E+00 -0.50416181671E+03  0.50416181671E+03  0.00000000000E+00 0.  1.
          6    1    1    2  501    0 -0.28348911473E+02 -0.15598466775E+03 -0.45242180222E+03  0.50931754778E+03  0.17200000000E+03 0.  1.
         -6    1    1    2    0  502  0.28348911473E+02  0.15598466775E+03  0.56401835600E+03  0.61060263941E+03  0.17200000000E+03 0. -1.
<mgrwt>
<rscale>  2 0.23392066E+03</rscale>
<asrwt>0</asrwt>
<pdfrwt beam="1">  1       21 0.15393959E+00 0.23392066E+03</pdfrwt>
<pdfrwt beam="2">  1       21 0.12604045E+00 0.23392066E+03</pdfrwt>
<totfact> 0.12383956E+02</totfact>
</mgrwt>
</event>
<event>
 4    1  0.1100959E+000  0.1884458E+03  0.7546771E-02  0.1159871E+00
         21   -1    0    0  503  502  0.00000000000E+00  0.00000000000E+00  0.90234464732E+03  0.90234464732E+03  0.00000000000E+00 0.  1.
         21   -1    0    0  501  503 -0.00000000000E+00 -0.00000000000E+00 -0.61238335963E+02  0.61238335963E+02  0.00000000000E+00 0.  1.
          6    1    1    2  501    0  0.73735882458E+02 -0.22154608953E+02  0.13254563299E+03  0.23039130167E+03  0.17200000000E+03 0.  1.
         -6    1    1    2    0  502 -0.73735882458E+02  0.22154608953E+02  0.70856067837E+03  0.73319168162E+03  0.17200000000E+03 0.  1.
<mgrwt>
<rscale>  2 0.18844577E+03</rscale>
<asrwt>0</asrwt>
<pdfrwt beam="1">  1       21 0.22558612E+00 0.18844577E+03</pdfrwt>
<pdfrwt beam="2">  1       21 0.15309587E-01 0.18844577E+03</pdfrwt>
<totfact> 0.35303333E+03</totfact>
</mgrwt>
</event>
<event>
 4    1  0.1100959E+000  0.2092486E+03  0.7546771E-02  0.1142162E+00
         21   -1    0    0  501  502  0.00000000000E+00  0.00000000000E+00  0.14128150615E+03  0.14128150615E+03  0.00000000000E+00 0. -1.
         21   -1    0    0  502  503 -0.00000000000E+00 -0.00000000000E+00 -0.31112329660E+03  0.31112329660E+03  0.00000000000E+00 0.  1.
          6    1    1    2  501    0  0.31511791479E+02  0.11492590370E+03 -0.99030052425E+02  0.23149926053E+03  0.17200000000E+03 0. -1.
         -6    1    1    2    0  503 -0.31511791479E+02 -0.11492590370E+03 -0.70811738018E+02  0.22090554222E+03  0.17200000000E+03 0.  1.
<mgrwt>
<rscale>  2 0.20924855E+03</rscale>
<asrwt>0</asrwt>
<pdfrwt beam="1">  1       21 0.35320377E-01 0.20924855E+03</pdfrwt>
<pdfrwt beam="2">  1       21 0.77780824E-01 0.20924855E+03</pdfrwt>
<totfact> 0.11199339E+04</totfact>
</mgrwt>
</event>
<event>
 4    1  0.1100959E+000  0.1728090E+03  0.7546771E-02  0.1174950E+00
         21   -1    0    0  501  502  0.00000000000E+00  0.00000000000E+00  0.53183126893E+02  0.53183126893E+02  0.00000000000E+00 0.  1.
         21   -1    0    0  502  503 -0.00000000000E+00 -0.00000000000E+00 -0.88294799892E+03  0.88294799892E+03  0.00000000000E+00 0.  1.
          6    1    1    2  501    0 -0.16378522870E+02 -0.32708867878E+01 -0.13246825484E+03  0.21774019668E+03  0.17200000000E+03 0.  1.
         -6    1    1    2    0  503  0.16378522870E+02  0.32708867878E+01 -0.69729661719E+03  0.71839092913E+03  0.17200000000E+03 0.  1.
<mgrwt>
<rscale>  2 0.17280901E+03</rscale>
<asrwt>0</asrwt>
<pdfrwt beam="1">  1       21 0.13295782E-01 0.17280901E+03</pdfrwt>
<pdfrwt beam="2">  1       21 0.22073700E+00 0.17280901E+03</pdfrwt>
<totfact> 0.49581855E+03</totfact>
</mgrwt>
</event>
<event>
 4    1  0.1100959E+000  0.1747601E+03  0.7546771E-02  0.1172973E+00
         21   -1    0    0  501  502  0.00000000000E+00  0.00000000000E+00  0.25607221157E+03  0.25607221157E+03  0.00000000000E+00 0. -1.
         21   -1    0    0  502  503 -0.00000000000E+00 -0.00000000000E+00 -0.18293654687E+03  0.18293654687E+03  0.00000000000E+00 0. -1.
          6    1    1    2  501    0  0.18486830344E+02 -0.24805864297E+02  0.16606405708E+03  0.24107750798E+03  0.17200000000E+03 0. -1.
         -6    1    1    2    0  503 -0.18486830344E+02  0.24805864297E+02 -0.92928392372E+02  0.19793125046E+03  0.17200000000E+03 0. -1.
<mgrwt>
<rscale>  2 0.17476010E+03</rscale>
<asrwt>0</asrwt>
<pdfrwt beam="1">  1       21 0.64018053E-01 0.17476010E+03</pdfrwt>
<pdfrwt beam="2">  1       21 0.45734137E-01 0.17476010E+03</pdfrwt>
<totfact> 0.10455441E+04</totfact>
</mgrwt>
</event>
<event>
 4    1  0.1100959E+000  0.1842913E+03  0.7546771E-02  0.1163713E+00
         21   -1    0    0  503  502  0.00000000000E+00  0.00000000000E+00  0.52728124493E+02  0.52728124493E+02  0.00000000000E+00 0.  1.
         21   -1    0    0  501  503 -0.00000000000E+00 -0.00000000000E+00 -0.66654656009E+03  0.66654656009E+03  0.00000000000E+00 0.  1.
          6    1    1    2  501    0 -0.51308421489E+02  0.41793722460E+02 -0.24094242152E+03  0.30334224869E+03  0.17200000000E+03 0.  1.
         -6    1    1    2    0  502  0.51308421489E+02 -0.41793722460E+02 -0.37287601408E+03  0.41593243589E+03  0.17200000000E+03 0.  1.
<mgrwt>
<rscale>  2 0.18429126E+03</rscale>
<asrwt>0</asrwt>
<pdfrwt beam="1">  1       21 0.13182031E-01 0.18429126E+03</pdfrwt>
<pdfrwt beam="2">  1       21 0.16663664E+00 0.18429126E+03</pdfrwt>
<totfact> 0.11246311E+04</totfact>
</mgrwt>
</event>
<event>
 4    1  0.1100959E+000  0.1848452E+03  0.7546771E-02  0.1163194E+00
         21   -1    0    0  503  502  0.00000000000E+00  0.00000000000E+00  0.91138360861E+02  0.91138360861E+02  0.00000000000E+00 0. -1.
         21   -1    0    0  501  503 -0.00000000000E+00 -0.00000000000E+00 -0.37906004888E+03  0.37906004888E+03  0.00000000000E+00 0.  1.
          6    1    1    2  501    0 -0.25914543721E+02  0.62547574994E+02 -0.16859010576E+03  0.25018070764E+03  0.17200000000E+03 0.  1.
         -6    1    1    2    0  502  0.25914543721E+02 -0.62547574994E+02 -0.11933158225E+03  0.22001770210E+03  0.17200000000E+03 0. -1.
<mgrwt>
<rscale>  2 0.18484524E+03</rscale>
<asrwt>0</asrwt>
<pdfrwt beam="1">  1       21 0.22784590E-01 0.18484524E+03</pdfrwt>
<pdfrwt beam="2">  1       21 0.94765011E-01 0.18484524E+03</pdfrwt>
<totfact> 0.16917233E+04</totfact>
</mgrwt>
</event>
<event>
 4    1  0.1100959E+000  0.1982069E+03  0.7546771E-02  0.1151261E+00
         21   -1    0    0  501  502  0.00000000000E+00  0.00000000000E+00  0.19954034801E+03  0.19954034801E+03  0.00000000000E+00 0.  1.
         21   -1    0    0  502  503 -0.00000000000E+00 -0.00000000000E+00 -0.23254848025E+03  0.23254848025E+03  0.00000000000E+00 0.  1.
          6    1    1    2  501    0 -0.23726991651E+02 -0.95598153586E+02  0.68104463668E+02  0.20958099884E+03  0.17200000000E+03 0.  1.
         -6    1    1    2    0  503  0.23726991651E+02  0.95598153586E+02 -0.10111259592E+03  0.22250782942E+03  0.17200000000E+03 0.  1.
<mgrwt>
<rscale>  2 0.19820690E+03</rscale>
<asrwt>0</asrwt>
<pdfrwt beam="1">  1       21 0.49885087E-01 0.19820690E+03</pdfrwt>
<pdfrwt beam="2">  1       21 0.58137120E-01 0.19820690E+03</pdfrwt>
<totfact> 0.10574200E+04</totfact>
</mgrwt>
</event>
<event>
 4    1  0.1100959E+000  0.2153047E+03  0.7546771E-02  0.1137433E+00
         21   -1    0    0  503  502  0.00000000000E+00  0.00000000000E+00  0.66515003018E+03  0.66515003018E+03  0.00000000000E+00 0.  1.
         21   -1    0    0  501  503 -0.00000000000E+00 -0.00000000000E+00 -0.20941517061E+03  0.20941517061E+03  0.00000000000E+00 0.  1.
          6    1    1    2  501    0 -0.54576017809E+02 -0.11744596611E+03 -0.12931596980E+03  0.25115476647E+03  0.17200000000E+03 0.  1.
         -6    1    1    2    0  502  0.54576017809E+02  0.11744596611E+03  0.58505082937E+03  0.62341043432E+03  0.17200000000E+03 0.  1.
<mgrwt>
<rscale>  2 0.21530466E+03</rscale>
<asrwt>0</asrwt>
<pdfrwt beam="1">  1       21 0.16628750E+00 0.21530466E+03</pdfrwt>
<pdfrwt beam="2">  1       21 0.52353794E-01 0.21530466E+03</pdfrwt>
<totfact> 0.76585514E+02</totfact>
</mgrwt>
</event>
<event>
 4    1  0.1100959E+000  0.1834648E+03  0.7546771E-02  0.1164491E+00
         21   -1    0    0  503  502  0.00000000000E+00  0.00000000000E+00  0.38143948901E+02  0.38143948901E+02  0.00000000000E+00 0.  1.
         21   -1    0    0  501  503 -0.00000000000E+00 -0.00000000000E+00 -0.21828426857E+04  0.21828426857E+04  0.00000000000E+00 0.  1.
          6    1    1    2  501    0  0.34941528395E+02 -0.53426785222E+02 -0.19294769566E+04  0.19381797279E+04  0.17200000000E+03 0.  1.
         -6    1    1    2    0  502 -0.34941528395E+02  0.53426785222E+02 -0.21522178026E+03  0.28280690671E+03  0.17200000000E+03 0.  1.
<mgrwt>
<rscale>  2 0.18346480E+03</rscale>
<asrwt>0</asrwt>
<pdfrwt beam="1">  1       21 0.95359878E-02 0.18346480E+03</pdfrwt>
<pdfrwt beam="2">  1       21 0.54571064E+00 0.18346480E+03</pdfrwt>
<totfact> 0.79401673E+01</totfact>
</mgrwt>
</event>
<event>
 4    1  0.1100959E+000  0.1765407E+03  0.7546771E-02  0.1171194E+00
         21   -1    0    0  501  502  0.00000000000E+00  0.00000000000E+00  0.10069210195E+03  0.10069210195E+03  0.00000000000E+00 0. -1.
         21   -1    0    0  502  503 -0.00000000000E+00 -0.00000000000E+00 -0.47252014507E+03  0.47252014507E+03  0.00000000000E+00 0. -1.
          6    1    1    2  501    0  0.24231002218E+02  0.31551271880E+02 -0.17583084834E+02  0.17741417389E+03  0.17200000000E+03 0. -1.
         -6    1    1    2    0  503 -0.24231002218E+02 -0.31551271880E+02 -0.35424495828E+03  0.39579807313E+03  0.17200000000E+03 0. -1.
<mgrwt>
<rscale>  2 0.17654072E+03</rscale>
<asrwt>0</asrwt>
<pdfrwt beam="1">  1       21 0.25173026E-01 0.17654072E+03</pdfrwt>
<pdfrwt beam="2">  1       21 0.11813003E+00 0.17654072E+03</pdfrwt>
<totfact> 0.83078989E+03</totfact>
</mgrwt>
</event>
<event>
 4    1  0.1100959E+000  0.1773944E+03  0.7546771E-02  0.1170349E+00
         21   -1    0    0  503  502  0.00000000000E+00  0.00000000000E+00  0.10142045210E+04  0.10142045210E+04  0.00000000000E+00 0. -1.
         21   -1    0    0  501  503 -0.00000000000E+00 -0.00000000000E+00 -0.61427160082E+02  0.61427160082E+02  0.00000000000E+00 0. -1.
          6    1    1    2  501    0 -0.39252812565E+02  0.18546791926E+02  0.98047199525E+02  0.20268700037E+03  0.17200000000E+03 0. -1.
         -6    1    1    2    0  502  0.39252812565E+02 -0.18546791926E+02  0.85473016141E+03  0.87294468073E+03  0.17200000000E+03 0. -1.
<mgrwt>
<rscale>  2 0.17739438E+03</rscale>
<asrwt>0</asrwt>
<pdfrwt beam="1">  1       21 0.25355108E+00 0.17739438E+03</pdfrwt>
<pdfrwt beam="2">  1       21 0.15356793E-01 0.17739438E+03</pdfrwt>
<totfact> 0.24250700E+03</totfact>
</mgrwt>
</event>
<event>
 4    1  0.1100959E+000  0.2274476E+03  0.7546771E-02  0.1128449E+00
         21   -1    0    0  501  502  0.00000000000E+00  0.00000000000E+00  0.92455940066E+02  0.92455940066E+02  0.00000000000E+00 0.  1.
         21   -1    0    0  502  503 -0.00000000000E+00 -0.00000000000E+00 -0.86551644504E+03  0.86551644504E+03  0.00000000000E+00 0.  1.
          6    1    1    2  501    0  0.14166908414E+03 -0.45588296209E+02 -0.67132515044E+03  0.70880877517E+03  0.17200000000E+03 0.  1.
         -6    1    1    2    0  503 -0.14166908414E+03  0.45588296209E+02 -0.10173535454E+03  0.24916360994E+03  0.17200000000E+03 0.  1.
<mgrwt>
<rscale>  2 0.22744763E+03</rscale>
<asrwt>0</asrwt>
<pdfrwt beam="1">  1       21 0.23113985E-01 0.22744763E+03</pdfrwt>
<pdfrwt beam="2">  1       21 0.21637911E+00 0.22744763E+03</pdfrwt>
<totfact> 0.17971389E+03</totfact>
</mgrwt>
</event>
<event>
 4    1  0.1100959E+000  0.2340719E+03  0.7546771E-02  0.1123806E+00
         21   -1    0    0  501  502  0.00000000000E+00  0.00000000000E+00  0.36017915742E+03  0.36017915742E+03  0.00000000000E+00 0. -1.
         21   -1    0    0  502  503 -0.00000000000E+00 -0.00000000000E+00 -0.18296312393E+03  0.18296312393E+03  0.00000000000E+00 0.  1.
          6    1    1    2  501    0 -0.55118353687E+02  0.14888801581E+03  0.20011350510E+03  0.30795306313E+03  0.17200000000E+03 0.  1.
         -6    1    1    2    0  503  0.55118353687E+02 -0.14888801581E+03 -0.22897471616E+02  0.23518921823E+03  0.17200000000E+03 0.  1.
<mgrwt>
<rscale>  2 0.23407194E+03</rscale>
<asrwt>0</asrwt>
<pdfrwt beam="1">  1       21 0.90044788E-01 0.23407194E+03</pdfrwt>
<pdfrwt beam="2">  1       21 0.45740782E-01 0.23407194E+03</pdfrwt>
<totfact> 0.46625260E+03</totfact>
</mgrwt>
</event>
<event>
 4    1  0.1100959E+000  0.1873982E+03  0.7546771E-02  0.1160829E+00
         21   -1    0    0  503  502  0.00000000000E+00  0.00000000000E+00  0.44053617576E+03  0.44053617576E+03  0.00000000000E+00 0. -1.
         21   -1    0    0  501  503 -0.00000000000E+00 -0.00000000000E+00 -0.81112049978E+02  0.81112049978E+02  0.00000000000E+00 0.  1.
          6    1    1    2  501    0  0.17530609115E+02 -0.72296352656E+02  0.21392170232E+03  0.28439511175E+03  0.17200000000E+03 0. -1.
         -6    1    1    2    0  502 -0.17530609115E+02  0.72296352656E+02  0.14550242346E+03  0.23725311398E+03  0.17200000000E+03 0.  1.
<mgrwt>
<rscale>  2 0.18739820E+03</rscale>
<asrwt>0</asrwt>
<pdfrwt beam="1">  1       21 0.11013404E+00 0.18739820E+03</pdfrwt>
<pdfrwt beam="2">  1       21 0.20278014E-01 0.18739820E+03</pdfrwt>
<totfact> 0.14699527E+04</totfact>
</mgrwt>
</event>
<event>
 4    1  0.1100959E+000  0.2153424E+03  0.7546771E-02  0.1137404E+00
         21   -1    0    0  503  502  0.00000000000E+00  0.00000000000E+00  0.39512966206E+03  0.39512966206E+03  0.00000000000E+00 0.  1.
         21   -1    0    0  501  503 -0.00000000000E+00 -0.00000000000E+00 -0.25463369459E+03  0.25463369459E+03  0.00000000000E+00 0. -1.
          6    1    1    2  501    0 -0.11658873730E+03  0.56527988815E+02 -0.16829202212E+03  0.27330304040E+03  0.17200000000E+03 0. -1.
         -6    1    1    2    0  502  0.11658873730E+03 -0.56527988815E+02  0.30878798960E+03  0.37646031624E+03  0.17200000000E+03 0.  1.
<mgrwt>
<rscale>  2 0.21534240E+03</rscale>
<asrwt>0</asrwt>
<pdfrwt beam="1">  1       21 0.98782415E-01 0.21534240E+03</pdfrwt>
<pdfrwt beam="2">  1       21 0.63658424E-01 0.21534240E+03</pdfrwt>
<totfact> 0.18887297E+03</totfact>
</mgrwt>
</event>
<event>
 4    1  0.1100959E+000  0.1916408E+03  0.7546771E-02  0.1156990E+00
         21   -1    0    0  503  502  0.00000000000E+00  0.00000000000E+00  0.70920330671E+03  0.70920330671E+03  0.00000000000E+00 0. -1.
         21   -1    0    0  501  503 -0.00000000000E+00 -0.00000000000E+00 -0.51920434407E+02  0.51920434407E+02  0.00000000000E+00 0.  1.
          6    1    1    2  501    0 -0.94578149018E+01 -0.83980531066E+02  0.30921358807E+03  0.36378458311E+03  0.17200000000E+03 0. -1.
         -6    1    1    2    0  502  0.94578149018E+01  0.83980531066E+02  0.34806928424E+03  0.39733915802E+03  0.17200000000E+03 0.  1.
<mgrwt>
<rscale>  2 0.19164076E+03</rscale>
<asrwt>0</asrwt>
<pdfrwt beam="1">  1       21 0.17730080E+00 0.19164076E+03</pdfrwt>
<pdfrwt beam="2">  1       21 0.12980111E-01 0.19164076E+03</pdfrwt>
<totfact> 0.96855001E+03</totfact>
</mgrwt>
</event>
<event>
 4    1  0.1100959E+000  0.2931755E+03  0.7546771E-02  0.1088703E+00
         21   -1    0    0  503  502  0.00000000000E+00  0.00000000000E+00  0.39579843515E+03  0.39579843515E+03  0.00000000000E+00 0.  1.
         21   -1    0    0  501  503 -0.00000000000E+00 -0.00000000000E+00 -0.21740247542E+03  0.21740247542E+03  0.00000000000E+00 0. -1.
          6    1    1    2  501    0 -0.20309931547E+02 -0.23654891296E+03  0.99421715514E+02  0.30957480366E+03  0.17200000000E+03 0. -1.
         -6    1    1    2    0  502  0.20309931547E+02  0.23654891296E+03  0.78974244218E+02  0.30362610690E+03  0.17200000000E+03 0.  1.
<mgrwt>
<rscale>  2 0.29317551E+03</rscale>
<asrwt>0</asrwt>
<pdfrwt beam="1">  1       21 0.98949608E-01 0.29317551E+03</pdfrwt>
<pdfrwt beam="2">  1       21 0.54350619E-01 0.29317551E+03</pdfrwt>
<totfact> 0.25039481E+03</totfact>
</mgrwt>
</event>
<event>
 4    1  0.1100959E+000  0.2122425E+03  0.7546771E-02  0.1139802E+00
         21   -1    0    0  503  502  0.00000000000E+00  0.00000000000E+00  0.26245957955E+03  0.26245957955E+03  0.00000000000E+00 0.  1.
         21   -1    0    0  501  503 -0.00000000000E+00 -0.00000000000E+00 -0.18154938066E+03  0.18154938066E+03  0.00000000000E+00 0.  1.
          6    1    1    2  501    0  0.95656690056E+01  0.12398131131E+03 -0.11428375206E+02  0.21254993610E+03  0.17200000000E+03 0.  1.
         -6    1    1    2    0  502 -0.95656690056E+01 -0.12398131131E+03  0.92338574088E+02  0.23145902411E+03  0.17200000000E+03 0.  1.
<mgrwt>
<rscale>  2 0.21224247E+03</rscale>
<asrwt>0</asrwt>
<pdfrwt beam="1">  1       21 0.65614895E-01 0.21224247E+03</pdfrwt>
<pdfrwt beam="2">  1       21 0.45387345E-01 0.21224247E+03</pdfrwt>
<totfact> 0.98099017E+03</totfact>
</mgrwt>
</event>
<event>
 4    1  0.1100959E+000  0.2344757E+03  0.7546771E-02  0.1123529E+00
         21   -1    0    0  503  502  0.00000000000E+00  0.00000000000E+00  0.10140664033E+03  0.10140664033E+03  0.00000000000E+00 0. -1.
         21   -1    0    0  501  503 -0.00000000000E+00 -0.00000000000E+00 -0.10766712020E+04  0.10766712020E+04  0.00000000000E+00 0. -1.
          6    1    1    2  501    0 -0.82476222580E+01 -0.15914409625E+03 -0.72601910746E+02  0.24545855880E+03  0.17200000000E+03 0. -1.
         -6    1    1    2    0  502  0.82476222580E+01  0.15914409625E+03 -0.90266265090E+03  0.93261928351E+03  0.17200000000E+03 0. -1.
<mgrwt>
<rscale>  2 0.23447573E+03</rscale>
<asrwt>0</asrwt>
<pdfrwt beam="1">  1       21 0.25351660E-01 0.23447573E+03</pdfrwt>
<pdfrwt beam="2">  1       21 0.26916780E+00 0.23447573E+03</pdfrwt>
<totfact> 0.72060449E+02</totfact>
</mgrwt>
</event>
<event>
 4    1  0.1100959E+000  0.2212331E+03  0.7546771E-02  0.1132967E+00
         21   -1    0    0  503  502  0.00000000000E+00  0.00000000000E+00  0.41089860673E+03  0.41089860673E+03  0.00000000000E+00 0.  1.
         21   -1    0    0  501  503 -0.00000000000E+00 -0.00000000000E+00 -0.22733048118E+03  0.22733048118E+03  0.00000000000E+00 0.  1.
          6    1    1    2  501    0  0.22449066163E+02 -0.13731756195E+03 -0.12838840862E+03  0.25578830477E+03  0.17200000000E+03 0.  1.
         -6    1    1    2    0  502 -0.22449066163E+02  0.13731756195E+03  0.31195653417E+03  0.38244078313E+03  0.17200000000E+03 0.  1.
<mgrwt>
<rscale>  2 0.22123307E+03</rscale>
<asrwt>0</asrwt>
<pdfrwt beam="1">  1       21 0.10272465E+00 0.22123307E+03</pdfrwt>
<pdfrwt beam="2">  1       21 0.56832621E-01 0.22123307E+03</pdfrwt>
<totfact> 0.21858503E+03</totfact>
</mgrwt>
</event>
<event>
 4    1  0.1100959E+000  0.1781917E+03  0.7546771E-02  0.1169565E+00
         21   -1    0    0  501  502  0.00000000000E+00  0.00000000000E+00  0.16357281637E+04  0.16357281637E+04  0.00000000000E+00 0.  1.
         21   -1    0    0  502  503 -0.00000000000E+00 -0.00000000000E+00 -0.68822588676E+02  0.68822588676E+02  0.00000000000E+00 0.  1.
          6    1    1    2  501    0  0.23865074849E+02  0.39984066027E+02  0.15056000406E+04  0.15161080930E+04  0.17200000000E+03 0.  1.
         -6    1    1    2    0  503 -0.23865074849E+02 -0.39984066027E+02  0.61305534436E+02  0.18844265941E+03  0.17200000000E+03 0.  1.
<mgrwt>
<rscale>  2 0.17819166E+03</rscale>
<asrwt>0</asrwt>
<pdfrwt beam="1">  1       21 0.40893191E+00 0.17819166E+03</pdfrwt>
<pdfrwt beam="2">  1       21 0.17205653E-01 0.17819166E+03</pdfrwt>
<totfact> 0.24001064E+02</totfact>
</mgrwt>
</event>
<event>
 4    1  0.1100959E+000  0.1923080E+03  0.7546771E-02  0.1156396E+00
         21   -1    0    0  503  502  0.00000000000E+00  0.00000000000E+00  0.42378530151E+03  0.42378530151E+03  0.00000000000E+00 0. -1.
         21   -1    0    0  501  503 -0.00000000000E+00 -0.00000000000E+00 -0.21391682990E+03  0.21391682990E+03  0.00000000000E+00 0. -1.
          6    1    1    2  501    0 -0.85141505911E+02 -0.12218645658E+02 -0.14040562142E+03  0.23810944932E+03  0.17200000000E+03 0. -1.
         -6    1    1    2    0  502  0.85141505911E+02  0.12218645658E+02  0.35027409303E+03  0.39959268209E+03  0.17200000000E+03 0. -1.
<mgrwt>
<rscale>  2 0.19230801E+03</rscale>
<asrwt>0</asrwt>
<pdfrwt beam="1">  1       21 0.10594632E+00 0.19230801E+03</pdfrwt>
<pdfrwt beam="2">  1       21 0.53479208E-01 0.19230801E+03</pdfrwt>
<totfact> 0.23671701E+03</totfact>
</mgrwt>
</event>
<event>
 4    1  0.1100959E+000  0.2186353E+03  0.7546771E-02  0.1134905E+00
         21   -1    0    0  503  502  0.00000000000E+00  0.00000000000E+00  0.10225157700E+04  0.10225157700E+04  0.00000000000E+00 0. -1.
         21   -1    0    0  501  503 -0.00000000000E+00 -0.00000000000E+00 -0.56325838308E+02  0.56325838308E+02  0.00000000000E+00 0. -1.
          6    1    1    2  501    0 -0.11732540262E+03 -0.66724537530E+02  0.26066728475E+03  0.34021882274E+03  0.17200000000E+03 0. -1.
         -6    1    1    2    0  502  0.11732540262E+03  0.66724537530E+02  0.70552264695E+03  0.73862278557E+03  0.17200000000E+03 0. -1.
<mgrwt>
<rscale>  2 0.21863534E+03</rscale>
<asrwt>0</asrwt>
<pdfrwt beam="1">  1       21 0.25562888E+00 0.21863534E+03</pdfrwt>
<pdfrwt beam="2">  1       21 0.14081463E-01 0.21863534E+03</pdfrwt>
<totfact> 0.26368677E+03</totfact>
</mgrwt>
</event>
<event>
 4    1  0.1100959E+000  0.2102270E+03  0.7546771E-02  0.1141386E+00
         21   -1    0    0  501  502  0.00000000000E+00  0.00000000000E+00  0.53208208793E+03  0.53208208793E+03  0.00000000000E+00 0.  1.
         21   -1    0    0  502  503 -0.00000000000E+00 -0.00000000000E+00 -0.23070312918E+03  0.23070312918E+03  0.00000000000E+00 0.  1.
          6    1    1    2  501    0  0.12052685202E+03 -0.92022325894E+01  0.45579517298E+03  0.50194087586E+03  0.17200000000E+03 0.  1.
         -6    1    1    2    0  503 -0.12052685202E+03  0.92022325894E+01 -0.15441621423E+03  0.26084434125E+03  0.17200000000E+03 0.  1.
<mgrwt>
<rscale>  2 0.21022703E+03</rscale>
<asrwt>0</asrwt>
<pdfrwt beam="1">  1       21 0.13302052E+00 0.21022703E+03</pdfrwt>
<pdfrwt beam="2">  1       21 0.57675783E-01 0.21022703E+03</pdfrwt>
<totfact> 0.11302851E+03</totfact>
</mgrwt>
</event>
<event>
 4    1  0.1100959E+000  0.2110103E+03  0.7546771E-02  0.1140768E+00
         21   -1    0    0  501  502  0.00000000000E+00  0.00000000000E+00  0.21957685061E+03  0.21957685061E+03  0.00000000000E+00 0. -1.
         21   -1    0    0  502  503 -0.00000000000E+00 -0.00000000000E+00 -0.71986059340E+03  0.71986059340E+03  0.00000000000E+00 0. -1.
          6    1    1    2  501    0  0.10808163399E+03  0.57093857238E+02  0.14795947107E+03  0.25771564411E+03  0.17200000000E+03 0. -1.
         -6    1    1    2    0  503 -0.10808163399E+03 -0.57093857238E+02 -0.64824321386E+03  0.68172179990E+03  0.17200000000E+03 0. -1.
<mgrwt>
<rscale>  2 0.21101030E+03</rscale>
<asrwt>0</asrwt>
<pdfrwt beam="1">  1       21 0.54894213E-01 0.21101030E+03</pdfrwt>
<pdfrwt beam="2">  1       21 0.17996515E+00 0.21101030E+03</pdfrwt>
<totfact> 0.55846447E+02</totfact>
</mgrwt>
</event>
<event>
 4    1  0.1100959E+000  0.2167061E+03  0.7546771E-02  0.1136363E+00
         21   -1    0    0  501  502  0.00000000000E+00  0.00000000000E+00  0.17952879699E+03  0.17952879699E+03  0.00000000000E+00 0.  1.
         21   -1    0    0  502  503 -0.00000000000E+00 -0.00000000000E+00 -0.65301462444E+03  0.65301462444E+03  0.00000000000E+00 0.  1.
          6    1    1    2  501    0 -0.97612571553E+02  0.88596371747E+02  0.85544884066E+02  0.23297952357E+03  0.17200000000E+03 0.  1.
         -6    1    1    2    0  503  0.97612571553E+02 -0.88596371747E+02 -0.55903071151E+03  0.59956389786E+03  0.17200000000E+03 0.  1.
<mgrwt>
<rscale>  2 0.21670609E+03</rscale>
<asrwt>0</asrwt>
<pdfrwt beam="1">  1       21 0.44882200E-01 0.21670609E+03</pdfrwt>
<pdfrwt beam="2">  1       21 0.16325365E+00 0.21670609E+03</pdfrwt>
<totfact> 0.11082507E+03</totfact>
</mgrwt>
</event>
<event>
 4    1  0.1100959E+000  0.2009145E+03  0.7546771E-02  0.1148970E+00
         21   -1    0    0  503  502  0.00000000000E+00  0.00000000000E+00  0.35718210622E+03  0.35718210622E+03  0.00000000000E+00 0. -1.
         21   -1    0    0  501  503 -0.00000000000E+00 -0.00000000000E+00 -0.19428393731E+03  0.19428393731E+03  0.00000000000E+00 0. -1.
          6    1    1    2  501    0 -0.32573520180E+02 -0.98598176461E+02 -0.96885212973E+02  0.22305465499E+03  0.17200000000E+03 0.  1.
         -6    1    1    2    0  502  0.32573520180E+02  0.98598176461E+02  0.25978338188E+03  0.32841138854E+03  0.17200000000E+03 0.  1.
<mgrwt>
<rscale>  2 0.20091450E+03</rscale>
<asrwt>0</asrwt>
<pdfrwt beam="1">  1       21 0.89295525E-01 0.20091450E+03</pdfrwt>
<pdfrwt beam="2">  1       21 0.48570985E-01 0.20091450E+03</pdfrwt>
<totfact> 0.43014078E+03</totfact>
</mgrwt>
</event>
<event>
 4    1  0.1100959E+000  0.2348018E+03  0.7546771E-02  0.1123305E+00
         21   -1    0    0  503  502  0.00000000000E+00  0.00000000000E+00  0.11474160940E+03  0.11474160940E+03  0.00000000000E+00 0. -1.
         21   -1    0    0  501  503 -0.00000000000E+00 -0.00000000000E+00 -0.11657878135E+04  0.11657878135E+04  0.00000000000E+00 0. -1.
          6    1    1    2  501    0  0.14485045356E+03 -0.67573890087E+02 -0.10164200631E+04  0.10431882041E+04  0.17200000000E+03 0. -1.
         -6    1    1    2    0  502 -0.14485045356E+03  0.67573890087E+02 -0.34626141061E+02  0.23734121884E+03  0.17200000000E+03 0. -1.
<mgrwt>
<rscale>  2 0.23480180E+03</rscale>
<asrwt>0</asrwt>
<pdfrwt beam="1">  1       21 0.28685403E-01 0.23480180E+03</pdfrwt>
<pdfrwt beam="2">  1       21 0.29144695E+00 0.23480180E+03</pdfrwt>
<totfact> 0.42049402E+02</totfact>
</mgrwt>
</event>
<event>
 4    1  0.1100959E+000  0.2168362E+03  0.7546771E-02  0.1136264E+00
         21   -1    0    0  501  502  0.00000000000E+00  0.00000000000E+00  0.54739914321E+03  0.54739914321E+03  0.00000000000E+00 0.  1.
         21   -1    0    0  502  503 -0.00000000000E+00 -0.00000000000E+00 -0.10381465263E+03  0.10381465263E+03  0.00000000000E+00 0.  1.
          6    1    1    2  501    0  0.13142586757E+03  0.12696172270E+02  0.35707702526E+03  0.41775824758E+03  0.17200000000E+03 0.  1.
         -6    1    1    2    0  503 -0.13142586757E+03 -0.12696172270E+02  0.86507465318E+02  0.23345554826E+03  0.17200000000E+03 0.  1.
<mgrwt>
<rscale>  2 0.21683623E+03</rscale>
<asrwt>0</asrwt>
<pdfrwt beam="1">  1       21 0.13684978E+00 0.21683623E+03</pdfrwt>
<pdfrwt beam="2">  1       21 0.25953665E-01 0.21683623E+03</pdfrwt>
<totfact> 0.52483165E+03</totfact>
</mgrwt>
</event>
<event>
 4    1  0.1100959E+000  0.2111693E+03  0.7546771E-02  0.1140643E+00
         21   -1    0    0  501  502  0.00000000000E+00  0.00000000000E+00  0.17714387709E+03  0.17714387709E+03  0.00000000000E+00 0.  1.
         21   -1    0    0  502  503 -0.00000000000E+00 -0.00000000000E+00 -0.25582886171E+03  0.25582886171E+03  0.00000000000E+00 0. -1.
          6    1    1    2  501    0 -0.71122707098E+02  0.99749864415E+02 -0.11941048718E+02  0.21150665134E+03  0.17200000000E+03 0.  1.
         -6    1    1    2    0  503  0.71122707098E+02 -0.99749864415E+02 -0.66743935906E+02  0.22146608746E+03  0.17200000000E+03 0.  1.
<mgrwt>
<rscale>  2 0.21116930E+03</rscale>
<asrwt>0</asrwt>
<pdfrwt beam="1">  1       21 0.44285969E-01 0.21116930E+03</pdfrwt>
<pdfrwt beam="2">  1       21 0.63957215E-01 0.21116930E+03</pdfrwt>
<totfact> 0.10918131E+04</totfact>
</mgrwt>
</event>
<event>
 4    1  0.1100959E+000  0.2345460E+03  0.7546771E-02  0.1123480E+00
         21   -1    0    0  501  502  0.00000000000E+00  0.00000000000E+00  0.10906813580E+03  0.10906813580E+03  0.00000000000E+00 0. -1.
         21   -1    0    0  502  503 -0.00000000000E+00 -0.00000000000E+00 -0.50446166691E+03  0.50446166691E+03  0.00000000000E+00 0. -1.
          6    1    1    2  501    0  0.15154576266E+03  0.49615654502E+02 -0.19380349612E+03  0.30425585690E+03  0.17200000000E+03 0. -1.
         -6    1    1    2    0  503 -0.15154576266E+03 -0.49615654502E+02 -0.20159003499E+03  0.30927394581E+03  0.17200000000E+03 0. -1.
<mgrwt>
<rscale>  2 0.23454601E+03</rscale>
<asrwt>0</asrwt>
<pdfrwt beam="1">  1       21 0.27267034E-01 0.23454601E+03</pdfrwt>
<pdfrwt beam="2">  1       21 0.12611542E+00 0.23454601E+03</pdfrwt>
<totfact> 0.57992181E+03</totfact>
</mgrwt>
</event>
<event>
 4    1  0.1100959E+000  0.2892830E+03  0.7546771E-02  0.1090724E+00
         21   -1    0    0  503  502  0.00000000000E+00  0.00000000000E+00  0.88019852744E+03  0.88019852744E+03  0.00000000000E+00 0.  1.
         21   -1    0    0  501  503 -0.00000000000E+00 -0.00000000000E+00 -0.15044388016E+03  0.15044388016E+03  0.00000000000E+00 0. -1.
          6    1    1    2  501    0 -0.14245900169E+02 -0.23215881223E+03  0.52251694579E+02  0.29396411236E+03  0.17200000000E+03 0. -1.
         -6    1    1    2    0  502  0.14245900169E+02  0.23215881223E+03  0.67750295269E+03  0.73667829524E+03  0.17200000000E+03 0.  1.
<mgrwt>
<rscale>  2 0.28928301E+03</rscale>
<asrwt>0</asrwt>
<pdfrwt beam="1">  1       21 0.22004962E+00 0.28928301E+03</pdfrwt>
<pdfrwt beam="2">  1       21 0.37610973E-01 0.28928301E+03</pdfrwt>
<totfact> 0.62229446E+02</totfact>
</mgrwt>
</event>
<event>
 4    1  0.1100959E+000  0.2006379E+03  0.7546771E-02  0.1149202E+00
         21   -1    0    0  503  502  0.00000000000E+00  0.00000000000E+00  0.27914388235E+03  0.27914388235E+03  0.00000000000E+00 0.  1.
         21   -1    0    0  501  503 -0.00000000000E+00 -0.00000000000E+00 -0.17771990748E+03  0.17771990748E+03  0.00000000000E+00 0.  1.
          6    1    1    2  501    0  0.59282448332E+02  0.84600084982E+02  0.14990239121E+03  0.25045221091E+03  0.17200000000E+03 0.  1.
         -6    1    1    2    0  502 -0.59282448332E+02 -0.84600084982E+02 -0.48478416345E+02  0.20641157892E+03  0.17200000000E+03 0.  1.
<mgrwt>
<rscale>  2 0.20063794E+03</rscale>
<asrwt>0</asrwt>
<pdfrwt beam="1">  1       21 0.69785970E-01 0.20063794E+03</pdfrwt>
<pdfrwt beam="2">  1       21 0.44429977E-01 0.20063794E+03</pdfrwt>
<totfact> 0.90230907E+03</totfact>
</mgrwt>
</event>
<event>
 4    1  0.1100959E+000  0.2975940E+03  0.7546771E-02  0.1086450E+00
         21   -1    0    0  503  502  0.00000000000E+00  0.00000000000E+00  0.82814795474E+03  0.82814795474E+03  0.00000000000E+00 0. -1.
         21   -1    0    0  501  503 -0.00000000000E+00 -0.00000000000E+00 -0.10917279619E+03  0.10917279619E+03  0.00000000000E+00 0.  1.
          6    1    1    2  501    0  0.20082614528E+02  0.24202242134E+03  0.42651045050E+03  0.52007050313E+03  0.17200000000E+03 0.  1.
         -6    1    1    2    0  502 -0.20082614528E+02 -0.24202242134E+03  0.29246470804E+03  0.41725024780E+03  0.17200000000E+03 0. -1.
<mgrwt>
<rscale>  2 0.29759396E+03</rscale>
<asrwt>0</asrwt>
<pdfrwt beam="1">  1       21 0.20703697E+00 0.29759396E+03</pdfrwt>
<pdfrwt beam="2">  1       21 0.27293202E-01 0.29759396E+03</pdfrwt>
<totfact> 0.14133867E+03</totfact>
</mgrwt>
</event>
<event>
 4    1  0.1100959E+000  0.1858302E+03  0.7546771E-02  0.1162277E+00
         21   -1    0    0  503  502  0.00000000000E+00  0.00000000000E+00  0.67005948460E+02  0.67005948460E+02  0.00000000000E+00 0. -1.
         21   -1    0    0  501  503 -0.00000000000E+00 -0.00000000000E+00 -0.55995104424E+03  0.55995104424E+03  0.00000000000E+00 0.  1.
          6    1    1    2  501    0 -0.68908921445E+02 -0.14156558592E+02 -0.33492470513E+03  0.38302402759E+03  0.17200000000E+03 0. -1.
         -6    1    1    2    0  502  0.68908921445E+02  0.14156558592E+02 -0.15802039065E+03  0.24393296511E+03  0.17200000000E+03 0.  1.
<mgrwt>
<rscale>  2 0.18583016E+03</rscale>
<asrwt>0</asrwt>
<pdfrwt beam="1">  1       21 0.16751488E-01 0.18583016E+03</pdfrwt>
<pdfrwt beam="2">  1       21 0.13998776E+00 0.18583016E+03</pdfrwt>
<totfact> 0.11529298E+04</totfact>
</mgrwt>
</event>
<event>
 4    1  0.1100959E+000  0.1747128E+03  0.7546771E-02  0.1173020E+00
         21   -1    0    0  503  502  0.00000000000E+00  0.00000000000E+00  0.27714180349E+03  0.27714180349E+03  0.00000000000E+00 0. -1.
         21   -1    0    0  501  503 -0.00000000000E+00 -0.00000000000E+00 -0.24856595610E+03  0.24856595610E+03  0.00000000000E+00 0. -1.
          6    1    1    2  501    0 -0.30344862425E+02  0.44441078175E+01 -0.18186799382E+03  0.25219145098E+03  0.17200000000E+03 0. -1.
         -6    1    1    2    0  502  0.30344862425E+02 -0.44441078175E+01  0.21044384121E+03  0.27351630861E+03  0.17200000000E+03 0. -1.
<mgrwt>
<rscale>  2 0.17471280E+03</rscale>
<asrwt>0</asrwt>
<pdfrwt beam="1">  1       21 0.69285451E-01 0.17471280E+03</pdfrwt>
<pdfrwt beam="2">  1       21 0.62141489E-01 0.17471280E+03</pdfrwt>
<totfact> 0.46208007E+03</totfact>
</mgrwt>
</event>
<event>
 4    1  0.1100959E+000  0.2297273E+03  0.7546771E-02  0.1126832E+00
         21   -1    0    0  503  502  0.00000000000E+00  0.00000000000E+00  0.52428754955E+03  0.52428754955E+03  0.00000000000E+00 0. -1.
         21   -1    0    0  501  503 -0.00000000000E+00 -0.00000000000E+00 -0.10066756754E+03  0.10066756754E+03  0.00000000000E+00 0.  1.
          6    1    1    2  501    0  0.90909795503E+02 -0.12217210581E+03  0.21457681658E+03  0.31435302539E+03  0.17200000000E+03 0. -1.
         -6    1    1    2    0  502 -0.90909795503E+02  0.12217210581E+03  0.20904316543E+03  0.31060209170E+03  0.17200000000E+03 0.  1.
<mgrwt>
<rscale>  2 0.22972726E+03</rscale>
<asrwt>0</asrwt>
<pdfrwt beam="1">  1       21 0.13107188E+00 0.22972726E+03</pdfrwt>
<pdfrwt beam="2">  1       21 0.25166893E-01 0.22972726E+03</pdfrwt>
<totfact> 0.61583543E+03</totfact>
</mgrwt>
</event>
<event>
 4    1  0.1100959E+000  0.1925920E+03  0.7546771E-02  0.1156144E+00
         21   -1    0    0  503  502  0.00000000000E+00  0.00000000000E+00  0.32991296765E+03  0.32991296765E+03  0.00000000000E+00 0.  1.
         21   -1    0    0  501  503 -0.00000000000E+00 -0.00000000000E+00 -0.19513815014E+03  0.19513815014E+03  0.00000000000E+00 0. -1.
          6    1    1    2  501    0 -0.17761725178E+02 -0.84806910133E+02 -0.10352674472E+03  0.21865378515E+03  0.17200000000E+03 0. -1.
         -6    1    1    2    0  502  0.17761725178E+02  0.84806910133E+02  0.23830156223E+03  0.30639733264E+03  0.17200000000E+03 0.  1.
<mgrwt>
<rscale>  2 0.19259203E+03</rscale>
<asrwt>0</asrwt>
<pdfrwt beam="1">  1       21 0.82478241E-01 0.19259203E+03</pdfrwt>
<pdfrwt beam="2">  1       21 0.48784538E-01 0.19259203E+03</pdfrwt>
<totfact> 0.51480873E+03</totfact>
</mgrwt>
</event>
<event>
 4    1  0.1100959E+000  0.1812856E+03  0.7546771E-02  0.1166565E+00
         21   -1    0    0  501  502  0.00000000000E+00  0.00000000000E+00  0.70889677748E+03  0.70889677748E+03  0.00000000000E+00 0. -1.
         21   -1    0    0  502  503 -0.00000000000E+00 -0.00000000000E+00 -0.54865819034E+02  0.54865819034E+02  0.00000000000E+00 0.  1.
          6    1    1    2  501    0  0.44597909351E+02  0.35937300121E+02  0.17665447354E+03  0.25312302558E+03  0.17200000000E+03 0.  1.
         -6    1    1    2    0  503 -0.44597909351E+02 -0.35937300121E+02  0.47737648491E+03  0.51063957093E+03  0.17200000000E+03 0.  1.
<mgrwt>
<rscale>  2 0.18128558E+03</rscale>
<asrwt>0</asrwt>
<pdfrwt beam="1">  1       21 0.17722417E+00 0.18128558E+03</pdfrwt>
<pdfrwt beam="2">  1       21 0.13716457E-01 0.18128558E+03</pdfrwt>
<totfact> 0.88538727E+03</totfact>
</mgrwt>
</event>
<event>
 4    1  0.1100959E+000  0.1728313E+03  0.7546771E-02  0.1174927E+00
         21   -1    0    0  501  502  0.00000000000E+00  0.00000000000E+00  0.29580386527E+03  0.29580386527E+03  0.00000000000E+00 0. -1.
         21   -1    0    0  502  503 -0.00000000000E+00 -0.00000000000E+00 -0.24829968417E+03  0.24829968417E+03  0.00000000000E+00 0. -1.
          6    1    1    2  501    0  0.76445630933E+01 -0.15107253992E+02  0.23330413644E+03  0.29034718622E+03  0.17200000000E+03 0. -1.
         -6    1    1    2    0  503 -0.76445630933E+01  0.15107253992E+02 -0.18579995535E+03  0.25375636322E+03  0.17200000000E+03 0. -1.
<mgrwt>
<rscale>  2 0.17283133E+03</rscale>
<asrwt>0</asrwt>
<pdfrwt beam="1">  1       21 0.73950966E-01 0.17283133E+03</pdfrwt>
<pdfrwt beam="2">  1       21 0.62074921E-01 0.17283133E+03</pdfrwt>
<totfact> 0.40174444E+03</totfact>
</mgrwt>
</event>
<event>
 4    1  0.1100959E+000  0.1874767E+03  0.7546771E-02  0.1160757E+00
         21   -1    0    0  501  502  0.00000000000E+00  0.00000000000E+00  0.60122698637E+03  0.60122698637E+03  0.00000000000E+00 0. -1.
         21   -1    0    0  502  503 -0.00000000000E+00 -0.00000000000E+00 -0.80571093750E+02  0.80571093750E+02  0.00000000000E+00 0.  1.
          6    1    1    2  501    0  0.69726133527E+02  0.26490976377E+02  0.43891292330E+03  0.47727566433E+03  0.17200000000E+03 0. -1.
         -6    1    1    2    0  503 -0.69726133527E+02 -0.26490976377E+02  0.81742969324E+02  0.20452241579E+03  0.17200000000E+03 0.  1.
<mgrwt>
<rscale>  2 0.18747668E+03</rscale>
<asrwt>0</asrwt>
<pdfrwt beam="1">  1       21 0.15030673E+00 0.18747668E+03</pdfrwt>
<pdfrwt beam="2">  1       21 0.20142775E-01 0.18747668E+03</pdfrwt>
<totfact> 0.68004029E+03</totfact>
</mgrwt>
</event>
<event>
 4    1  0.1100959E+000  0.1803913E+03  0.7546771E-02  0.1167425E+00
         21   -1    0    0  501  502  0.00000000000E+00  0.00000000000E+00  0.18338442786E+03  0.18338442786E+03  0.00000000000E+00 0.  1.
         21   -1    0    0  502  503 -0.00000000000E+00 -0.00000000000E+00 -0.17763839802E+03  0.17763839802E+03  0.00000000000E+00 0.  1.
          6    1    1    2  501    0 -0.15825126728E+02  0.52024722692E+02 -0.30530694924E+01  0.18041709354E+03  0.17200000000E+03 0.  1.
         -6    1    1    2    0  503  0.15825126728E+02 -0.52024722692E+02  0.87990993263E+01  0.18060573235E+03  0.17200000000E+03 0.  1.
<mgrwt>
<rscale>  2 0.18039126E+03</rscale>
<asrwt>0</asrwt>
<pdfrwt beam="1">  1       21 0.45846107E-01 0.18039126E+03</pdfrwt>
<pdfrwt beam="2">  1       21 0.44409600E-01 0.18039126E+03</pdfrwt>
<totfact> 0.22363046E+04</totfact>
</mgrwt>
</event>
<event>
 4    1  0.1100959E+000  0.2055557E+03  0.7546771E-02  0.1145135E+00
         21   -1    0    0  501  502  0.00000000000E+00  0.00000000000E+00  0.10897421833E+04  0.10897421833E+04  0.00000000000E+00 0.  1.
         21   -1    0    0  502  503 -0.00000000000E+00 -0.00000000000E+00 -0.42717255280E+02  0.42717255280E+02  0.00000000000E+00 0.  1.
          6    1    1    2  501    0 -0.64072606984E+02 -0.92541017992E+02  0.35146632266E+03  0.40716300782E+03  0.17200000000E+03 0.  1.
         -6    1    1    2    0  503  0.64072606984E+02  0.92541017992E+02  0.69555860537E+03  0.72529643076E+03  0.17200000000E+03 0.  1.
<mgrwt>
<rscale>  2 0.20555568E+03</rscale>
<asrwt>0</asrwt>
<pdfrwt beam="1">  1       21 0.27243545E+00 0.20555568E+03</pdfrwt>
<pdfrwt beam="2">  1       21 0.10679317E-01 0.20555568E+03</pdfrwt>
<totfact> 0.35041496E+03</totfact>
</mgrwt>
</event>
<event>
 4    1  0.1100959E+000  0.2364542E+03  0.7546771E-02  0.1122178E+00
         21   -1    0    0  503  502  0.00000000000E+00  0.00000000000E+00  0.18252217602E+03  0.18252217602E+03  0.00000000000E+00 0.  1.
         21   -1    0    0  501  503 -0.00000000000E+00 -0.00000000000E+00 -0.30832637230E+03  0.30832637230E+03  0.00000000000E+00 0. -1.
          6    1    1    2  501    0  0.50267292070E+02  0.15427178613E+03 -0.43114842789E+02  0.24035281217E+03  0.17200000000E+03 0. -1.
         -6    1    1    2    0  502 -0.50267292070E+02 -0.15427178613E+03 -0.82689353495E+02  0.25049573615E+03  0.17200000000E+03 0. -1.
<mgrwt>
<rscale>  2 0.23645419E+03</rscale>
<asrwt>0</asrwt>
<pdfrwt beam="1">  1       21 0.45630544E-01 0.23645419E+03</pdfrwt>
<pdfrwt beam="2">  1       21 0.77081592E-01 0.23645419E+03</pdfrwt>
<totfact> 0.66805360E+03</totfact>
</mgrwt>
</event>
<event>
 4    1  0.1100959E+000  0.1947621E+03  0.7546771E-02  0.1154235E+00
         21   -1    0    0  501  502  0.00000000000E+00  0.00000000000E+00  0.29143958716E+03  0.29143958716E+03  0.00000000000E+00 0. -1.
         21   -1    0    0  502  503 -0.00000000000E+00 -0.00000000000E+00 -0.23451887636E+03  0.23451887636E+03  0.00000000000E+00 0. -1.
          6    1    1    2  501    0  0.22203918645E+02 -0.88629944260E+02  0.20389199618E+03  0.28196493954E+03  0.17200000000E+03 0. -1.
         -6    1    1    2    0  503 -0.22203918645E+02  0.88629944260E+02 -0.14697128538E+03  0.24399352399E+03  0.17200000000E+03 0. -1.
<mgrwt>
<rscale>  2 0.19476211E+03</rscale>
<asrwt>0</asrwt>
<pdfrwt beam="1">  1       21 0.72859897E-01 0.19476211E+03</pdfrwt>
<pdfrwt beam="2">  1       21 0.58629719E-01 0.19476211E+03</pdfrwt>
<totfact> 0.46096479E+03</totfact>
</mgrwt>
</event>
<event>
 4    1  0.1100959E+000  0.2107507E+03  0.7546771E-02  0.1140973E+00
         21   -1    0    0  503  502  0.00000000000E+00  0.00000000000E+00  0.38180550697E+03  0.38180550697E+03  0.00000000000E+00 0.  1.
         21   -1    0    0  501  503 -0.00000000000E+00 -0.00000000000E+00 -0.18472806221E+03  0.18472806221E+03  0.00000000000E+00 0.  1.
          6    1    1    2  501    0  0.11233278888E+02 -0.12126690871E+03 -0.73825713786E+02  0.22330715555E+03  0.17200000000E+03 0.  1.
         -6    1    1    2    0  502 -0.11233278888E+02  0.12126690871E+03  0.27090315855E+03  0.34322641363E+03  0.17200000000E+03 0.  1.
<mgrwt>
<rscale>  2 0.21075068E+03</rscale>
<asrwt>0</asrwt>
<pdfrwt beam="1">  1       21 0.95451375E-01 0.21075068E+03</pdfrwt>
<pdfrwt beam="2">  1       21 0.46182016E-01 0.21075068E+03</pdfrwt>
<totfact> 0.40563817E+03</totfact>
</mgrwt>
</event>
<event>
 4    1  0.1100959E+000  0.2096659E+03  0.7546771E-02  0.1141831E+00
         21   -1    0    0  501  502  0.00000000000E+00  0.00000000000E+00  0.16867320367E+03  0.16867320367E+03  0.00000000000E+00 0. -1.
         21   -1    0    0  502  503 -0.00000000000E+00 -0.00000000000E+00 -0.30261773334E+03  0.30261773334E+03  0.00000000000E+00 0.  1.
          6    1    1    2  501    0  0.73474985157E+02  0.94748192739E+02  0.20812513686E+02  0.21069635544E+03  0.17200000000E+03 0. -1.
         -6    1    1    2    0  503 -0.73474985157E+02 -0.94748192739E+02 -0.15475704336E+03  0.26059458156E+03  0.17200000000E+03 0. -1.
<mgrwt>
<rscale>  2 0.20966591E+03</rscale>
<asrwt>0</asrwt>
<pdfrwt beam="1">  1       21 0.42168301E-01 0.20966591E+03</pdfrwt>
<pdfrwt beam="2">  1       21 0.75654433E-01 0.20966591E+03</pdfrwt>
<totfact> 0.83384268E+03</totfact>
</mgrwt>
</event>
<event>
 4    1  0.1100959E+000  0.2421934E+03  0.7546771E-02  0.1118340E+00
         21   -1    0    0  503  502  0.00000000000E+00  0.00000000000E+00  0.17275752474E+03  0.17275752474E+03  0.00000000000E+00 0. -1.
         21   -1    0    0  501  503 -0.00000000000E+00 -0.00000000000E+00 -0.36573270630E+03  0.36573270630E+03  0.00000000000E+00 0.  1.
          6    1    1    2  501    0 -0.14600862575E+03  0.88063252972E+02 -0.16854472344E+03  0.29506775344E+03  0.17200000000E+03 0.  1.
         -6    1    1    2    0  502  0.14600862575E+03 -0.88063252972E+02 -0.24430458121E+02  0.24342247760E+03  0.17200000000E+03 0. -1.
<mgrwt>
<rscale>  2 0.24219343E+03</rscale>
<asrwt>0</asrwt>
<pdfrwt beam="1">  1       21 0.43189381E-01 0.24219343E+03</pdfrwt>
<pdfrwt beam="2">  1       21 0.91433176E-01 0.24219343E+03</pdfrwt>
<totfact> 0.50371933E+03</totfact>
</mgrwt>
</event>
<event>
 4    1  0.1100959E+000  0.2044848E+03  0.7546771E-02  0.1146009E+00
         21   -1    0    0  503  502  0.00000000000E+00  0.00000000000E+00  0.63900609690E+03  0.63900609690E+03  0.00000000000E+00 0.  1.
         21   -1    0    0  501  503 -0.00000000000E+00 -0.00000000000E+00 -0.88896021349E+02  0.88896021349E+02  0.00000000000E+00 0.  1.
          6    1    1    2  501    0 -0.10921328185E+03  0.17392586935E+02  0.88087828015E+02  0.22265109130E+03  0.17200000000E+03 0.  1.
         -6    1    1    2    0  502  0.10921328185E+03 -0.17392586935E+02  0.46202224754E+03  0.50525102695E+03  0.17200000000E+03 0.  1.
<mgrwt>
<rscale>  2 0.20448482E+03</rscale>
<asrwt>0</asrwt>
<pdfrwt beam="1">  1       21 0.15975151E+00 0.20448482E+03</pdfrwt>
<pdfrwt beam="2">  1       21 0.22224007E-01 0.20448482E+03</pdfrwt>
<totfact> 0.47383687E+03</totfact>
</mgrwt>
</event>
<event>
 4    1  0.1100959E+000  0.1896555E+03  0.7546771E-02  0.1158772E+00
         21   -1    0    0  501  502  0.00000000000E+00  0.00000000000E+00  0.53543979873E+02  0.53543979873E+02  0.00000000000E+00 0. -1.
         21   -1    0    0  502  503 -0.00000000000E+00 -0.00000000000E+00 -0.67552660632E+03  0.67552660632E+03  0.00000000000E+00 0. -1.
          6    1    1    2  501    0 -0.12575632404E+02 -0.78911656348E+02 -0.28380420866E+03  0.34134150772E+03  0.17200000000E+03 0. -1.
         -6    1    1    2    0  503  0.12575632404E+02  0.78911656348E+02 -0.33817841778E+03  0.38772907847E+03  0.17200000000E+03 0. -1.
<mgrwt>
<rscale>  2 0.18965547E+03</rscale>
<asrwt>0</asrwt>
<pdfrwt beam="1">  1       21 0.13385995E-01 0.18965547E+03</pdfrwt>
<pdfrwt beam="2">  1       21 0.16888165E+00 0.18965547E+03</pdfrwt>
<totfact> 0.10502102E+04</totfact>
</mgrwt>
</event>
<event>
 4    1  0.1100959E+000  0.1941577E+03  0.7546771E-02  0.1154764E+00
         21   -1    0    0  501  502  0.00000000000E+00  0.00000000000E+00  0.91883900020E+03  0.91883900020E+03  0.00000000000E+00 0.  1.
         21   -1    0    0  502  503 -0.00000000000E+00 -0.00000000000E+00 -0.49337583503E+02  0.49337583503E+02  0.00000000000E+00 0.  1.
          6    1    1    2  501    0  0.19020555797E+02 -0.88042248903E+02  0.23607211606E+03  0.30565873636E+03  0.17200000000E+03 0.  1.
         -6    1    1    2    0  503 -0.19020555797E+02  0.88042248903E+02  0.63342930064E+03  0.66251784734E+03  0.17200000000E+03 0.  1.
<mgrwt>
<rscale>  2 0.19415772E+03</rscale>
<asrwt>0</asrwt>
<pdfrwt beam="1">  1       21 0.22970969E+00 0.19415772E+03</pdfrwt>
<pdfrwt beam="2">  1       21 0.12334399E-01 0.19415772E+03</pdfrwt>
<totfact> 0.48980087E+03</totfact>
</mgrwt>
</event>
<event>
 4    1  0.1100959E+000  0.2019432E+03  0.7546771E-02  0.1148110E+00
         21   -1    0    0  501  502  0.00000000000E+00  0.00000000000E+00  0.13069122775E+03  0.13069122775E+03  0.00000000000E+00 0.  1.
         21   -1    0    0  502  503 -0.00000000000E+00 -0.00000000000E+00 -0.52088981378E+03  0.52088981378E+03  0.00000000000E+00 0.  1.
          6    1    1    2  501    0 -0.60393808706E+02 -0.86888799709E+02 -0.40139067553E+03  0.44932788701E+03  0.17200000000E+03 0.  1.
         -6    1    1    2    0  503  0.60393808706E+02  0.86888799709E+02  0.11192089501E+02  0.20225315452E+03  0.17200000000E+03 0.  1.
<mgrwt>
<rscale>  2 0.20194325E+03</rscale>
<asrwt>0</asrwt>
<pdfrwt beam="1">  1       21 0.32672807E-01 0.20194325E+03</pdfrwt>
<pdfrwt beam="2">  1       21 0.13022245E+00 0.20194325E+03</pdfrwt>
<totfact> 0.38498796E+03</totfact>
</mgrwt>
</event>
<event>
 4    1  0.1100959E+000  0.1988269E+03  0.7546771E-02  0.1150733E+00
         21   -1    0    0  503  502  0.00000000000E+00  0.00000000000E+00  0.78923262382E+03  0.78923262382E+03  0.00000000000E+00 0. -1.
         21   -1    0    0  501  503 -0.00000000000E+00 -0.00000000000E+00 -0.76938640293E+02  0.76938640293E+02  0.00000000000E+00 0. -1.
          6    1    1    2  501    0  0.92180508381E+02  0.38090367544E+02  0.10030713493E+03  0.22269630339E+03  0.17200000000E+03 0. -1.
         -6    1    1    2    0  502 -0.92180508381E+02 -0.38090367544E+02  0.61198684859E+03  0.64347496072E+03  0.17200000000E+03 0. -1.
<mgrwt>
<rscale>  2 0.19882686E+03</rscale>
<asrwt>0</asrwt>
<pdfrwt beam="1">  1       21 0.19730813E+00 0.19882686E+03</pdfrwt>
<pdfrwt beam="2">  1       21 0.19234662E-01 0.19882686E+03</pdfrwt>
<totfact> 0.34484680E+03</totfact>
</mgrwt>
</event>
<event>
 4    1  0.1100959E+000  0.2485904E+03  0.7546771E-02  0.1114199E+00
         21   -1    0    0  501  502  0.00000000000E+00  0.00000000000E+00  0.12986749192E+04  0.12986749192E+04  0.00000000000E+00 0. -1.
         21   -1    0    0  502  503 -0.00000000000E+00 -0.00000000000E+00 -0.67542483080E+02  0.67542483080E+02  0.00000000000E+00 0. -1.
          6    1    1    2  501    0  0.46301377356E+02 -0.17340522721E+03  0.24423938578E+03  0.34849686934E+03  0.17200000000E+03 0. -1.
         -6    1    1    2    0  503 -0.46301377356E+02  0.17340522721E+03  0.98689305036E+03  0.10177205330E+04  0.17200000000E+03 0. -1.
<mgrwt>
<rscale>  2 0.24859041E+03</rscale>
<asrwt>0</asrwt>
<pdfrwt beam="1">  1       21 0.32466865E+00 0.24859041E+03</pdfrwt>
<pdfrwt beam="2">  1       21 0.16885625E-01 0.24859041E+03</pdfrwt>
<totfact> 0.72340418E+02</totfact>
</mgrwt>
</event>
<event>
 4    1  0.1100959E+000  0.1746174E+03  0.7546771E-02  0.1173116E+00
         21   -1    0    0  501  502  0.00000000000E+00  0.00000000000E+00  0.11269588660E+04  0.11269588660E+04  0.00000000000E+00 0. -1.
         21   -1    0    0  502  503 -0.00000000000E+00 -0.00000000000E+00 -0.47792080865E+02  0.47792080865E+02  0.00000000000E+00 0. -1.
          6    1    1    2  501    0 -0.27551587409E+01 -0.29993800319E+02  0.92648375251E+03  0.94279550414E+03  0.17200000000E+03 0. -1.
         -6    1    1    2    0  503  0.27551587409E+01  0.29993800319E+02  0.15268303261E+03  0.23195544271E+03  0.17200000000E+03 0. -1.
<mgrwt>
<rscale>  2 0.17461735E+03</rscale>
<asrwt>0</asrwt>
<pdfrwt beam="1">  1       21 0.28173963E+00 0.17461735E+03</pdfrwt>
<pdfrwt beam="2">  1       21 0.11948024E-01 0.17461735E+03</pdfrwt>
<totfact> 0.26302453E+03</totfact>
</mgrwt>
</event>
<event>
 4    1  0.1100959E+000  0.2443954E+03  0.7546771E-02  0.1116899E+00
         21   -1    0    0  501  502  0.00000000000E+00  0.00000000000E+00  0.89433672285E+02  0.89433672285E+02  0.00000000000E+00 0.  1.
         21   -1    0    0  502  503 -0.00000000000E+00 -0.00000000000E+00 -0.66816111006E+03  0.66816111006E+03  0.00000000000E+00 0.  1.
          6    1    1    2  501    0  0.82950484714E+02 -0.15252649920E+03 -0.28131393686E+03  0.37264815436E+03  0.17200000000E+03 0.  1.
         -6    1    1    2    0  503 -0.82950484714E+02  0.15252649920E+03 -0.29741350091E+03  0.38494662799E+03  0.17200000000E+03 0.  1.
<mgrwt>
<rscale>  2 0.24439541E+03</rscale>
<asrwt>0</asrwt>
<pdfrwt beam="1">  1       21 0.22358418E-01 0.24439541E+03</pdfrwt>
<pdfrwt beam="2">  1       21 0.16704028E+00 0.24439541E+03</pdfrwt>
<totfact> 0.40198505E+03</totfact>
</mgrwt>
</event>
<event>
 4    1  0.1100959E+000  0.1883404E+03  0.7546771E-02  0.1159967E+00
         21   -1    0    0  503  502  0.00000000000E+00  0.00000000000E+00  0.37888564267E+03  0.37888564267E+03  0.00000000000E+00 0.  1.
         21   -1    0    0  501  503 -0.00000000000E+00 -0.00000000000E+00 -0.20792405224E+03  0.20792405224E+03  0.00000000000E+00 0.  1.
          6    1    1    2  501    0  0.32900398315E+02  0.69323012866E+02 -0.13206039926E+03  0.23002622758E+03  0.17200000000E+03 0.  1.
         -6    1    1    2    0  502 -0.32900398315E+02 -0.69323012866E+02  0.30302198969E+03  0.35678346733E+03  0.17200000000E+03 0.  1.
<mgrwt>
<rscale>  2 0.18834043E+03</rscale>
<asrwt>0</asrwt>
<pdfrwt beam="1">  1       21 0.94721410E-01 0.18834043E+03</pdfrwt>
<pdfrwt beam="2">  1       21 0.51981014E-01 0.18834043E+03</pdfrwt>
<totfact> 0.32888189E+03</totfact>
</mgrwt>
</event>
<event>
 4    1  0.1100959E+000  0.1753247E+03  0.7546771E-02  0.1172406E+00
         21   -1    0    0  501  502  0.00000000000E+00  0.00000000000E+00  0.20173534618E+03  0.20173534618E+03  0.00000000000E+00 0.  1.
         21   -1    0    0  502  503 -0.00000000000E+00 -0.00000000000E+00 -0.17643344131E+03  0.17643344131E+03  0.00000000000E+00 0.  1.
          6    1    1    2  501    0 -0.11310802561E+02 -0.32043864609E+02  0.82478918450E+02  0.19375633023E+03  0.17200000000E+03 0.  1.
         -6    1    1    2    0  503  0.11310802561E+02  0.32043864609E+02 -0.57177013572E+02  0.18441245727E+03  0.17200000000E+03 0.  1.
<mgrwt>
<rscale>  2 0.17532468E+03</rscale>
<asrwt>0</asrwt>
<pdfrwt beam="1">  1       21 0.50433837E-01 0.17532468E+03</pdfrwt>
<pdfrwt beam="2">  1       21 0.44108360E-01 0.17532468E+03</pdfrwt>
<totfact> 0.18673712E+04</totfact>
</mgrwt>
</event>
<event>
 4    1  0.1100959E+000  0.1788549E+03  0.7546771E-02  0.1168916E+00
         21   -1    0    0  501  502  0.00000000000E+00  0.00000000000E+00  0.27393715748E+03  0.27393715748E+03  0.00000000000E+00 0.  1.
         21   -1    0    0  502  503 -0.00000000000E+00 -0.00000000000E+00 -0.13092941903E+03  0.13092941903E+03  0.00000000000E+00 0.  1.
          6    1    1    2  501    0  0.37408400530E+02 -0.31712765756E+02  0.49451347024E+01  0.17892328607E+03  0.17200000000E+03 0.  1.
         -6    1    1    2    0  503 -0.37408400530E+02  0.31712765756E+02  0.13806260374E+03  0.22594329044E+03  0.17200000000E+03 0.  1.
<mgrwt>
<rscale>  2 0.17885494E+03</rscale>
<asrwt>0</asrwt>
<pdfrwt beam="1">  1       21 0.68484288E-01 0.17885494E+03</pdfrwt>
<pdfrwt beam="2">  1       21 0.32732355E-01 0.17885494E+03</pdfrwt>
<totfact> 0.17617083E+04</totfact>
</mgrwt>
</event>
<event>
 4    1  0.1100959E+000  0.2127848E+03  0.7546771E-02  0.1139380E+00
         21   -1    0    0  503  502  0.00000000000E+00  0.00000000000E+00  0.15716144227E+04  0.15716144227E+04  0.00000000000E+00 0.  1.
         21   -1    0    0  501  503 -0.00000000000E+00 -0.00000000000E+00 -0.39790475818E+02  0.39790475818E+02  0.00000000000E+00 0.  1.
          6    1    1    2  501    0 -0.10485428229E+03 -0.68548921838E+02  0.34265295473E+03  0.40334652916E+03  0.17200000000E+03 0.  1.
         -6    1    1    2    0  502  0.10485428229E+03  0.68548921838E+02  0.11891709921E+04  0.12080583694E+04  0.17200000000E+03 0.  1.
<mgrwt>
<rscale>  2 0.21278481E+03</rscale>
<asrwt>0</asrwt>
<pdfrwt beam="1">  1       21 0.39290340E+00 0.21278481E+03</pdfrwt>
<pdfrwt beam="2">  1       21 0.99476242E-02 0.21278481E+03</pdfrwt>
<totfact> 0.76621764E+02</totfact>
</mgrwt>
</event>
<event>
 4    1  0.1100959E+000  0.1952745E+03  0.7546771E-02  0.1153788E+00
         21   -1    0    0  503  502  0.00000000000E+00  0.00000000000E+00  0.25920531972E+03  0.25920531972E+03  0.00000000000E+00 0. -1.
         21   -1    0    0  501  503 -0.00000000000E+00 -0.00000000000E+00 -0.20750493691E+03  0.20750493691E+03  0.00000000000E+00 0.  1.
          6    1    1    2  501    0 -0.88251347958E+02 -0.27565255045E+02 -0.10004152907E+03  0.21940932351E+03  0.17200000000E+03 0.  1.
         -6    1    1    2    0  502  0.88251347958E+02  0.27565255045E+02  0.15174191188E+03  0.24730093312E+03  0.17200000000E+03 0.  1.
<mgrwt>
<rscale>  2 0.19527453E+03</rscale>
<asrwt>0</asrwt>
<pdfrwt beam="1">  1       21 0.64801330E-01 0.19527453E+03</pdfrwt>
<pdfrwt beam="2">  1       21 0.51876234E-01 0.19527453E+03</pdfrwt>
<totfact> 0.77260972E+03</totfact>
</mgrwt>
</event>
<event>
 4    1  0.1100959E+000  0.2572511E+03  0.7546771E-02  0.1108806E+00
         21   -1    0    0  501  502  0.00000000000E+00  0.00000000000E+00  0.45827950655E+03  0.45827950655E+03  0.00000000000E+00 0.  1.
         21   -1    0    0  502  503 -0.00000000000E+00 -0.00000000000E+00 -0.30179177616E+03  0.30179177616E+03  0.00000000000E+00 0. -1.
          6    1    1    2  501    0 -0.17073442849E+03  0.86277899894E+02  0.35268799006E+03  0.43653973406E+03  0.17200000000E+03 0.  1.
         -6    1    1    2    0  503  0.17073442849E+03 -0.86277899894E+02 -0.19620025966E+03  0.32353154865E+03  0.17200000000E+03 0. -1.
<mgrwt>
<rscale>  2 0.25725109E+03</rscale>
<asrwt>0</asrwt>
<pdfrwt beam="1">  1       21 0.11456988E+00 0.25725109E+03</pdfrwt>
<pdfrwt beam="2">  1       21 0.75447944E-01 0.25725109E+03</pdfrwt>
<totfact> 0.87552070E+02</totfact>
</mgrwt>
</event>
<event>
 4    1  0.1100959E+000  0.2959195E+03  0.7546771E-02  0.1087298E+00
         21   -1    0    0  501  502  0.00000000000E+00  0.00000000000E+00  0.12036612194E+03  0.12036612194E+03  0.00000000000E+00 0.  1.
         21   -1    0    0  502  503 -0.00000000000E+00 -0.00000000000E+00 -0.84379489225E+03  0.84379489225E+03  0.00000000000E+00 0. -1.
          6    1    1    2  501    0  0.23652963640E+03 -0.45145369235E+02 -0.18275679853E+03  0.34780514756E+03  0.17200000000E+03 0.  1.
         -6    1    1    2    0  503 -0.23652963640E+03  0.45145369235E+02 -0.54067197177E+03  0.61635586662E+03  0.17200000000E+03 0. -1.
<mgrwt>
<rscale>  2 0.29591954E+03</rscale>
<asrwt>0</asrwt>
<pdfrwt beam="1">  1       21 0.30091531E-01 0.29591954E+03</pdfrwt>
<pdfrwt beam="2">  1       21 0.21094872E+00 0.29591954E+03</pdfrwt>
<totfact> 0.11032493E+03</totfact>
</mgrwt>
</event>
<event>
 4    1  0.1100959E+000  0.1729244E+03  0.7546771E-02  0.1174832E+00
         21   -1    0    0  501  502  0.00000000000E+00  0.00000000000E+00  0.97974014934E+03  0.97974014934E+03  0.00000000000E+00 0.  1.
         21   -1    0    0  502  503 -0.00000000000E+00 -0.00000000000E+00 -0.12182081474E+03  0.12182081474E+03  0.00000000000E+00 0.  1.
          6    1    1    2  501    0  0.11957751480E+02 -0.13261367449E+02  0.90577723528E+03  0.92213624353E+03  0.17200000000E+03 0.  1.
         -6    1    1    2    0  503 -0.11957751480E+02  0.13261367449E+02 -0.47857900679E+02  0.17942472055E+03  0.17200000000E+03 0.  1.
<mgrwt>
<rscale>  2 0.17292441E+03</rscale>
<asrwt>0</asrwt>
<pdfrwt beam="1">  1       21 0.24493501E+00 0.17292441E+03</pdfrwt>
<pdfrwt beam="2">  1       21 0.30455207E-01 0.17292441E+03</pdfrwt>
<totfact> 0.75657349E+02</totfact>
</mgrwt>
</event>
<event>
 4    1  0.1100959E+000  0.1781801E+03  0.7546771E-02  0.1169576E+00
         21   -1    0    0  501  502  0.00000000000E+00  0.00000000000E+00  0.13739634476E+03  0.13739634476E+03  0.00000000000E+00 0.  1.
         21   -1    0    0  502  503 -0.00000000000E+00 -0.00000000000E+00 -0.23507887391E+03  0.23507887391E+03  0.00000000000E+00 0.  1.
          6    1    1    2  501    0 -0.46316938142E+02  0.43479629293E+01 -0.73161941922E+02  0.19261576593E+03  0.17200000000E+03 0.  1.
         -6    1    1    2    0  503  0.46316938142E+02 -0.43479629293E+01 -0.24520587222E+02  0.17985945274E+03  0.17200000000E+03 0.  1.
<mgrwt>
<rscale>  2 0.17818014E+03</rscale>
<asrwt>0</asrwt>
<pdfrwt beam="1">  1       21 0.34349086E-01 0.17818014E+03</pdfrwt>
<pdfrwt beam="2">  1       21 0.58769718E-01 0.17818014E+03</pdfrwt>
<totfact> 0.22313563E+04</totfact>
</mgrwt>
</event>
<event>
 4    1  0.1100959E+000  0.2753891E+03  0.7546771E-02  0.1098234E+00
         21   -1    0    0  503  502  0.00000000000E+00  0.00000000000E+00  0.66913654420E+03  0.66913654420E+03  0.00000000000E+00 0. -1.
         21   -1    0    0  501  503 -0.00000000000E+00 -0.00000000000E+00 -0.29460952364E+03  0.29460952364E+03  0.00000000000E+00 0. -1.
          6    1    1    2  501    0 -0.16745014874E+03  0.13496520413E+03 -0.19072014520E+03  0.33498258525E+03  0.17200000000E+03 0. -1.
         -6    1    1    2    0  502  0.16745014874E+03 -0.13496520413E+03  0.56524716576E+03  0.62876348259E+03  0.17200000000E+03 0. -1.
<mgrwt>
<rscale>  2 0.27538910E+03</rscale>
<asrwt>0</asrwt>
<pdfrwt beam="1">  1       21 0.16728413E+00 0.27538910E+03</pdfrwt>
<pdfrwt beam="2">  1       21 0.73652382E-01 0.27538910E+03</pdfrwt>
<totfact> 0.33932866E+02</totfact>
</mgrwt>
</event>
<event>
 4    1  0.1100959E+000  0.1937601E+03  0.7546771E-02  0.1155113E+00
         21   -1    0    0  503  502  0.00000000000E+00  0.00000000000E+00  0.80702829629E+03  0.80702829629E+03  0.00000000000E+00 0. -1.
         21   -1    0    0  501  503 -0.00000000000E+00 -0.00000000000E+00 -0.57277409499E+02  0.57277409499E+02  0.00000000000E+00 0. -1.
          6    1    1    2  501    0  0.84994815201E+02  0.27108455644E+02  0.18759225915E+03  0.26969212571E+03  0.17200000000E+03 0. -1.
         -6    1    1    2    0  502 -0.84994815201E+02 -0.27108455644E+02  0.56215862764E+03  0.59461358008E+03  0.17200000000E+03 0. -1.
<mgrwt>
<rscale>  2 0.19376013E+03</rscale>
<asrwt>0</asrwt>
<pdfrwt beam="1">  1       21 0.20175704E+00 0.19376013E+03</pdfrwt>
<pdfrwt beam="2">  1       21 0.14319355E-01 0.19376013E+03</pdfrwt>
<totfact> 0.55789006E+03</totfact>
</mgrwt>
</event>
<event>
 4    1  0.1100959E+000  0.1860795E+03  0.7546771E-02  0.1162046E+00
         21   -1    0    0  501  502  0.00000000000E+00  0.00000000000E+00  0.13741833769E+03  0.13741833769E+03  0.00000000000E+00 0. -1.
         21   -1    0    0  502  503 -0.00000000000E+00 -0.00000000000E+00 -0.29001159979E+03  0.29001159979E+03  0.00000000000E+00 0.  1.
          6    1    1    2  501    0  0.61655251277E+02  0.35216836489E+02  0.11039648665E+01  0.18608281576E+03  0.17200000000E+03 0. -1.
         -6    1    1    2    0  503 -0.61655251277E+02 -0.35216836489E+02 -0.15369722697E+03  0.24134712171E+03  0.17200000000E+03 0.  1.
<mgrwt>
<rscale>  2 0.18607954E+03</rscale>
<asrwt>0</asrwt>
<pdfrwt beam="1">  1       21 0.34354585E-01 0.18607954E+03</pdfrwt>
<pdfrwt beam="2">  1       21 0.72502899E-01 0.18607954E+03</pdfrwt>
<totfact> 0.14057690E+04</totfact>
</mgrwt>
</event>
<event>
 4    1  0.1100959E+000  0.1800171E+03  0.7546771E-02  0.1167786E+00
         21   -1    0    0  501  502  0.00000000000E+00  0.00000000000E+00  0.71403578685E+02  0.71403578685E+02  0.00000000000E+00 0.  1.
         21   -1    0    0  502  503 -0.00000000000E+00 -0.00000000000E+00 -0.56873610317E+03  0.56873610317E+03  0.00000000000E+00 0.  1.
          6    1    1    2  501    0 -0.47226163320E+02  0.24328021055E+02 -0.10480879909E+03  0.20830517871E+03  0.17200000000E+03 0. -1.
         -6    1    1    2    0  503  0.47226163320E+02 -0.24328021055E+02 -0.39252372540E+03  0.43183450315E+03  0.17200000000E+03 0. -1.
<mgrwt>
<rscale>  2 0.18001712E+03</rscale>
<asrwt>0</asrwt>
<pdfrwt beam="1">  1       21 0.17850895E-01 0.18001712E+03</pdfrwt>
<pdfrwt beam="2">  1       21 0.14218402E+00 0.18001712E+03</pdfrwt>
<totfact> 0.98953825E+03</totfact>
</mgrwt>
</event>
<event>
 4    1  0.1100959E+000  0.1857176E+03  0.7546771E-02  0.1162381E+00
         21   -1    0    0  503  502  0.00000000000E+00  0.00000000000E+00  0.55904896310E+03  0.55904896310E+03  0.00000000000E+00 0.  1.
         21   -1    0    0  501  503 -0.00000000000E+00 -0.00000000000E+00 -0.97851533290E+02  0.97851533290E+02  0.00000000000E+00 0.  1.
          6    1    1    2  501    0  0.19186803915E+02 -0.67371221241E+02  0.30946600516E+02  0.18827827007E+03  0.17200000000E+03 0.  1.
         -6    1    1    2    0  502 -0.19186803915E+02  0.67371221241E+02  0.43025082929E+03  0.46862222632E+03  0.17200000000E+03 0.  1.
<mgrwt>
<rscale>  2 0.18571757E+03</rscale>
<asrwt>0</asrwt>
<pdfrwt beam="1">  1       21 0.13976223E+00 0.18571757E+03</pdfrwt>
<pdfrwt beam="2">  1       21 0.24462885E-01 0.18571757E+03</pdfrwt>
<totfact> 0.57063605E+03</totfact>
</mgrwt>
</event>
<event>
 4    1  0.1100959E+000  0.1783222E+03  0.7546771E-02  0.1169437E+00
         21   -1    0    0  503  502  0.00000000000E+00  0.00000000000E+00  0.25584925057E+03  0.25584925057E+03  0.00000000000E+00 0. -1.
         21   -1    0    0  501  503 -0.00000000000E+00 -0.00000000000E+00 -0.16826672259E+03  0.16826672259E+03  0.00000000000E+00 0. -1.
          6    1    1    2  501    0  0.37924420867E+02 -0.27866332849E+02 -0.64621553560E+02  0.18967008037E+03  0.17200000000E+03 0.  1.
         -6    1    1    2    0  502 -0.37924420867E+02  0.27866332849E+02  0.15220408155E+03  0.23444589279E+03  0.17200000000E+03 0.  1.
<mgrwt>
<rscale>  2 0.17832216E+03</rscale>
<asrwt>0</asrwt>
<pdfrwt beam="1">  1       21 0.63962312E-01 0.17832216E+03</pdfrwt>
<pdfrwt beam="2">  1       21 0.42066681E-01 0.17832216E+03</pdfrwt>
<totfact> 0.12393325E+04</totfact>
</mgrwt>
</event>
<event>
 4    1  0.1100959E+000  0.1884382E+03  0.7546771E-02  0.1159878E+00
         21   -1    0    0  503  502  0.00000000000E+00  0.00000000000E+00  0.14333209095E+03  0.14333209095E+03  0.00000000000E+00 0.  1.
         21   -1    0    0  501  503 -0.00000000000E+00 -0.00000000000E+00 -0.48500055503E+03  0.48500055503E+03  0.00000000000E+00 0.  1.
          6    1    1    2  501    0 -0.56979315357E+02  0.51752268762E+02 -0.39057075906E+03  0.43365246169E+03  0.17200000000E+03 0.  1.
         -6    1    1    2    0  502  0.56979315357E+02 -0.51752268762E+02  0.48902294975E+02  0.19468018429E+03  0.17200000000E+03 0.  1.
<mgrwt>
<rscale>  2 0.18843816E+03</rscale>
<asrwt>0</asrwt>
<pdfrwt beam="1">  1       21 0.35833023E-01 0.18843816E+03</pdfrwt>
<pdfrwt beam="2">  1       21 0.12125014E+00 0.18843816E+03</pdfrwt>
<totfact> 0.38790763E+03</totfact>
</mgrwt>
</event>
<event>
 4    1  0.1100959E+000  0.1821233E+03  0.7546771E-02  0.1165764E+00
         21   -1    0    0  503  502  0.00000000000E+00  0.00000000000E+00  0.52459747512E+03  0.52459747512E+03  0.00000000000E+00 0. -1.
         21   -1    0    0  501  503 -0.00000000000E+00 -0.00000000000E+00 -0.77452113843E+02  0.77452113843E+02  0.00000000000E+00 0.  1.
          6    1    1    2  501    0 -0.46989479166E+02  0.37106441630E+02  0.94567121455E+02  0.20521169465E+03  0.17200000000E+03 0.  1.
         -6    1    1    2    0  502  0.46989479166E+02 -0.37106441630E+02  0.35257823982E+03  0.39683789431E+03  0.17200000000E+03 0. -1.
<mgrwt>
<rscale>  2 0.18212331E+03</rscale>
<asrwt>0</asrwt>
<pdfrwt beam="1">  1       21 0.13114936E+00 0.18212331E+03</pdfrwt>
<pdfrwt beam="2">  1       21 0.19363030E-01 0.18212331E+03</pdfrwt>
<totfact> 0.10445934E+04</totfact>
</mgrwt>
</event>
<event>
 4    1  0.1100959E+000  0.1923391E+03  0.7546771E-02  0.1156368E+00
         21   -1    0    0  501  502  0.00000000000E+00  0.00000000000E+00  0.13570952118E+03  0.13570952118E+03  0.00000000000E+00 0. -1.
         21   -1    0    0  502  503 -0.00000000000E+00 -0.00000000000E+00 -0.46674166686E+03  0.46674166686E+03  0.00000000000E+00 0.  1.
          6    1    1    2  501    0 -0.15486001861E+02  0.84678865471E+02  0.28757484810E+02  0.19447704092E+03  0.17200000000E+03 0. -1.
         -6    1    1    2    0  503  0.15486001861E+02 -0.84678865471E+02 -0.35978963049E+03  0.40797414712E+03  0.17200000000E+03 0.  1.
<mgrwt>
<rscale>  2 0.19233909E+03</rscale>
<asrwt>0</asrwt>
<pdfrwt beam="1">  1       21 0.33927381E-01 0.19233909E+03</pdfrwt>
<pdfrwt beam="2">  1       21 0.11668542E+00 0.19233909E+03</pdfrwt>
<totfact> 0.47371753E+03</totfact>
</mgrwt>
</event>
<event>
 4    1  0.1100959E+000  0.2196613E+03  0.7546771E-02  0.1134136E+00
         21   -1    0    0  501  502  0.00000000000E+00  0.00000000000E+00  0.47908798653E+03  0.47908798653E+03  0.00000000000E+00 0.  1.
         21   -1    0    0  502  503 -0.00000000000E+00 -0.00000000000E+00 -0.11235831024E+03  0.11235831024E+03  0.00000000000E+00 0. -1.
          6    1    1    2  501    0 -0.13366296247E+03  0.28307177402E+02  0.27856357455E+03  0.35475167215E+03  0.17200000000E+03 0.  1.
         -6    1    1    2    0  503  0.13366296247E+03 -0.28307177402E+02  0.88166101744E+02  0.23669462462E+03  0.17200000000E+03 0. -1.
<mgrwt>
<rscale>  2 0.21966129E+03</rscale>
<asrwt>0</asrwt>
<pdfrwt beam="1">  1       21 0.11977199E+00 0.21966129E+03</pdfrwt>
<pdfrwt beam="2">  1       21 0.28089579E-01 0.21966129E+03</pdfrwt>
<totfact> 0.62955777E+03</totfact>
</mgrwt>
</event>
<event>
 4    1  0.1100959E+000  0.2006579E+03  0.7546771E-02  0.1149185E+00
         21   -1    0    0  501  502  0.00000000000E+00  0.00000000000E+00  0.62702562661E+03  0.62702562661E+03  0.00000000000E+00 0. -1.
         21   -1    0    0  502  503 -0.00000000000E+00 -0.00000000000E+00 -0.75627250695E+02  0.75627250695E+02  0.00000000000E+00 0. -1.
          6    1    1    2  501    0 -0.23822616753E+02 -0.10055872005E+03  0.13921449366E+03  0.24422171994E+03  0.17200000000E+03 0.  1.
         -6    1    1    2    0  503  0.23822616753E+02  0.10055872005E+03  0.41218388226E+03  0.45843115736E+03  0.17200000000E+03 0.  1.
<mgrwt>
<rscale>  2 0.20065785E+03</rscale>
<asrwt>0</asrwt>
<pdfrwt beam="1">  1       21 0.15675639E+00 0.20065785E+03</pdfrwt>
<pdfrwt beam="2">  1       21 0.18906815E-01 0.20065785E+03</pdfrwt>
<totfact> 0.67722511E+03</totfact>
</mgrwt>
</event>
<event>
 4    1  0.1100959E+000  0.1898612E+03  0.7546771E-02  0.1158587E+00
         21   -1    0    0  501  502  0.00000000000E+00  0.00000000000E+00  0.21498357680E+03  0.21498357680E+03  0.00000000000E+00 0.  1.
         21   -1    0    0  502  503 -0.00000000000E+00 -0.00000000000E+00 -0.17268607688E+03  0.17268607688E+03  0.00000000000E+00 0.  1.
          6    1    1    2  501    0  0.76311559271E+02  0.25294784923E+02  0.54169507125E+02  0.19743762490E+03  0.17200000000E+03 0.  1.
         -6    1    1    2    0  503 -0.76311559271E+02 -0.25294784923E+02 -0.11872007204E+02  0.19023202879E+03  0.17200000000E+03 0.  1.
<mgrwt>
<rscale>  2 0.18986121E+03</rscale>
<asrwt>0</asrwt>
<pdfrwt beam="1">  1       21 0.53745894E-01 0.18986121E+03</pdfrwt>
<pdfrwt beam="2">  1       21 0.43171519E-01 0.18986121E+03</pdfrwt>
<totfact> 0.16923620E+04</totfact>
</mgrwt>
</event>
<event>
 4    1  0.1100959E+000  0.2390522E+03  0.7546771E-02  0.1120426E+00
         21   -1    0    0  501  502  0.00000000000E+00  0.00000000000E+00  0.39951512258E+03  0.39951512258E+03  0.00000000000E+00 0. -1.
         21   -1    0    0  502  503 -0.00000000000E+00 -0.00000000000E+00 -0.26269984379E+03  0.26269984379E+03  0.00000000000E+00 0. -1.
          6    1    1    2  501    0 -0.13335322992E+03  0.98888150900E+02  0.29187621025E+03  0.37727665238E+03  0.17200000000E+03 0. -1.
         -6    1    1    2    0  503  0.13335322992E+03 -0.98888150900E+02 -0.15506093146E+03  0.28493831400E+03  0.17200000000E+03 0. -1.
<mgrwt>
<rscale>  2 0.23905219E+03</rscale>
<asrwt>0</asrwt>
<pdfrwt beam="1">  1       21 0.99878780E-01 0.23905219E+03</pdfrwt>
<pdfrwt beam="2">  1       21 0.65674961E-01 0.23905219E+03</pdfrwt>
<totfact> 0.16860260E+03</totfact>
</mgrwt>
</event>
<event>
 4    1  0.1100959E+000  0.1775166E+03  0.7546771E-02  0.1170228E+00
         21   -1    0    0  503  502  0.00000000000E+00  0.00000000000E+00  0.90303747194E+02  0.90303747194E+02  0.00000000000E+00 0. -1.
         21   -1    0    0  501  503 -0.00000000000E+00 -0.00000000000E+00 -0.38409413964E+03  0.38409413964E+03  0.00000000000E+00 0. -1.
          6    1    1    2  501    0  0.33120678282E+02 -0.28830106475E+02 -0.21863746095E+03  0.28162828995E+03  0.17200000000E+03 0. -1.
         -6    1    1    2    0  502 -0.33120678282E+02  0.28830106475E+02 -0.75152931490E+02  0.19276959688E+03  0.17200000000E+03 0. -1.
<mgrwt>
<rscale>  2 0.17751663E+03</rscale>
<asrwt>0</asrwt>
<pdfrwt beam="1">  1       21 0.22575937E-01 0.17751663E+03</pdfrwt>
<pdfrwt beam="2">  1       21 0.96023533E-01 0.17751663E+03</pdfrwt>
<totfact> 0.16770230E+04</totfact>
</mgrwt>
</event>
<event>
 4    1  0.1100959E+000  0.2017326E+03  0.7546771E-02  0.1148285E+00
         21   -1    0    0  501  502  0.00000000000E+00  0.00000000000E+00  0.45988709860E+02  0.45988709860E+02  0.00000000000E+00 0. -1.
         21   -1    0    0  502  503 -0.00000000000E+00 -0.00000000000E+00 -0.90843819499E+03  0.90843819499E+03  0.00000000000E+00 0. -1.
          6    1    1    2  501    0 -0.66312821860E+02  0.81943033405E+02 -0.35443153680E+03  0.40782075149E+03  0.17200000000E+03 0. -1.
         -6    1    1    2    0  503  0.66312821860E+02 -0.81943033405E+02 -0.50801794834E+03  0.54660615337E+03  0.17200000000E+03 0. -1.
<mgrwt>
<rscale>  2 0.20173262E+03</rscale>
<asrwt>0</asrwt>
<pdfrwt beam="1">  1       21 0.11497178E-01 0.20173262E+03</pdfrwt>
<pdfrwt beam="2">  1       21 0.22710955E+00 0.20173262E+03</pdfrwt>
<totfact> 0.57173005E+03</totfact>
</mgrwt>
</event>
<event>
 4    1  0.1100959E+000  0.2184166E+03  0.7546771E-02  0.1135069E+00
         21   -1    0    0  503  502  0.00000000000E+00  0.00000000000E+00  0.15873900906E+04  0.15873900906E+04  0.00000000000E+00 0. -1.
         21   -1    0    0  501  503 -0.00000000000E+00 -0.00000000000E+00 -0.31187942893E+02  0.31187942893E+02  0.00000000000E+00 0. -1.
          6    1    1    2  501    0 -0.10185610084E+03  0.88017814553E+02  0.62371741974E+03  0.66085491648E+03  0.17200000000E+03 0. -1.
         -6    1    1    2    0  502  0.10185610084E+03 -0.88017814553E+02  0.93248472794E+03  0.95772311698E+03  0.17200000000E+03 0. -1.
<mgrwt>
<rscale>  2 0.21841658E+03</rscale>
<asrwt>0</asrwt>
<pdfrwt beam="1">  1       21 0.39684725E+00 0.21841658E+03</pdfrwt>
<pdfrwt beam="2">  1       21 0.77969911E-02 0.21841658E+03</pdfrwt>
<totfact> 0.11020557E+03</totfact>
</mgrwt>
</event>
<event>
 4    1  0.1100959E+000  0.3369543E+03  0.7546771E-02  0.1068101E+00
         21   -1    0    0  501  502  0.00000000000E+00  0.00000000000E+00  0.22596851295E+03  0.22596851295E+03  0.00000000000E+00 0.  1.
         21   -1    0    0  502  503 -0.00000000000E+00 -0.00000000000E+00 -0.57326547668E+03  0.57326547668E+03  0.00000000000E+00 0. -1.
          6    1    1    2  501    0  0.28003597238E+03  0.74391072039E+02 -0.33197072482E+02  0.33858562145E+03  0.17200000000E+03 0.  1.
         -6    1    1    2    0  503 -0.28003597238E+03 -0.74391072039E+02 -0.31409989125E+03  0.46064836819E+03  0.17200000000E+03 0. -1.
<mgrwt>
<rscale>  2 0.33695427E+03</rscale>
<asrwt>0</asrwt>
<pdfrwt beam="1">  1       21 0.56492129E-01 0.33695427E+03</pdfrwt>
<pdfrwt beam="2">  1       21 0.14331637E+00 0.33695427E+03</pdfrwt>
<totfact> 0.88554153E+02</totfact>
</mgrwt>
</event>
<event>
 4    1  0.1100959E+000  0.2259048E+03  0.7546771E-02  0.1129556E+00
         21   -1    0    0  503  502  0.00000000000E+00  0.00000000000E+00  0.75698746785E+03  0.75698746785E+03  0.00000000000E+00 0.  1.
         21   -1    0    0  501  503 -0.00000000000E+00 -0.00000000000E+00 -0.67485629564E+02  0.67485629564E+02  0.00000000000E+00 0.  1.
          6    1    1    2  501    0 -0.59082004944E+02 -0.13400850635E+03  0.33149634080E+03  0.40115182543E+03  0.17200000000E+03 0.  1.
         -6    1    1    2    0  502  0.59082004944E+02  0.13400850635E+03  0.35800549748E+03  0.42332127198E+03  0.17200000000E+03 0.  1.
<mgrwt>
<rscale>  2 0.22590477E+03</rscale>
<asrwt>0</asrwt>
<pdfrwt beam="1">  1       21 0.18924684E+00 0.22590477E+03</pdfrwt>
<pdfrwt beam="2">  1       21 0.16871410E-01 0.22590477E+03</pdfrwt>
<totfact> 0.48499737E+03</totfact>
</mgrwt>
</event>
<event>
 4    1  0.1100959E+000  0.2452857E+03  0.7546771E-02  0.1116321E+00
         21   -1    0    0  503  502  0.00000000000E+00  0.00000000000E+00  0.21959968304E+03  0.21959968304E+03  0.00000000000E+00 0. -1.
         21   -1    0    0  501  503 -0.00000000000E+00 -0.00000000000E+00 -0.27409016161E+03  0.27409016161E+03  0.00000000000E+00 0. -1.
          6    1    1    2  501    0  0.12476009396E+03  0.12253966863E+03 -0.22208350159E+02  0.24628898118E+03  0.17200000000E+03 0. -1.
         -6    1    1    2    0  502 -0.12476009396E+03 -0.12253966863E+03 -0.32282128402E+02  0.24740086347E+03  0.17200000000E+03 0. -1.
<mgrwt>
<rscale>  2 0.24528565E+03</rscale>
<asrwt>0</asrwt>
<pdfrwt beam="1">  1       21 0.54899921E-01 0.24528565E+03</pdfrwt>
<pdfrwt beam="2">  1       21 0.68522540E-01 0.24528565E+03</pdfrwt>
<totfact> 0.58634350E+03</totfact>
</mgrwt>
</event>
<event>
 4    1  0.1100959E+000  0.2427478E+03  0.7546771E-02  0.1117976E+00
         21   -1    0    0  503  502  0.00000000000E+00  0.00000000000E+00  0.62082499803E+02  0.62082499803E+02  0.00000000000E+00 0. -1.
         21   -1    0    0  501  503 -0.00000000000E+00 -0.00000000000E+00 -0.11104046996E+04  0.11104046996E+04  0.00000000000E+00 0. -1.
          6    1    1    2  501    0 -0.11168207917E+03 -0.12988297188E+03 -0.74755680519E+03  0.78598196555E+03  0.17200000000E+03 0. -1.
         -6    1    1    2    0  502  0.11168207917E+03  0.12988297188E+03 -0.30076539457E+03  0.38650523381E+03  0.17200000000E+03 0. -1.
<mgrwt>
<rscale>  2 0.24274776E+03</rscale>
<asrwt>0</asrwt>
<pdfrwt beam="1">  1       21 0.15520625E-01 0.24274776E+03</pdfrwt>
<pdfrwt beam="2">  1       21 0.27760118E+00 0.24274776E+03</pdfrwt>
<totfact> 0.16015506E+03</totfact>
</mgrwt>
</event>
<event>
 4    1  0.1100959E+000  0.2820725E+03  0.7546771E-02  0.1094562E+00
         21   -1    0    0  503  502  0.00000000000E+00  0.00000000000E+00  0.28435507019E+03  0.28435507019E+03  0.00000000000E+00 0.  1.
         21   -1    0    0  501  503 -0.00000000000E+00 -0.00000000000E+00 -0.31027779611E+03  0.31027779611E+03  0.00000000000E+00 0.  1.
          6    1    1    2  501    0 -0.94299443450E+02 -0.20270303010E+03 -0.10613141434E+03  0.30137813550E+03  0.17200000000E+03 0.  1.
         -6    1    1    2    0  502  0.94299443450E+02  0.20270303010E+03  0.80208688418E+02  0.29325473081E+03  0.17200000000E+03 0.  1.
<mgrwt>
<rscale>  2 0.28207251E+03</rscale>
<asrwt>0</asrwt>
<pdfrwt beam="1">  1       21 0.71088768E-01 0.28207251E+03</pdfrwt>
<pdfrwt beam="2">  1       21 0.77569449E-01 0.28207251E+03</pdfrwt>
<totfact> 0.24726959E+03</totfact>
</mgrwt>
</event>
<event>
 4    1  0.1100959E+000  0.1938672E+03  0.7546771E-02  0.1155019E+00
         21   -1    0    0  501  502  0.00000000000E+00  0.00000000000E+00  0.73326812881E+03  0.73326812881E+03  0.00000000000E+00 0. -1.
         21   -1    0    0  502  503 -0.00000000000E+00 -0.00000000000E+00 -0.51277575003E+02  0.51277575003E+02  0.00000000000E+00 0. -1.
          6    1    1    2  501    0  0.31699012291E+02  0.83640065374E+02  0.34901701533E+03  0.39924599548E+03  0.17200000000E+03 0.  1.
         -6    1    1    2    0  503 -0.31699012291E+02 -0.83640065374E+02  0.33297353847E+03  0.38529970833E+03  0.17200000000E+03 0.  1.
<mgrwt>
<rscale>  2 0.19386719E+03</rscale>
<asrwt>0</asrwt>
<pdfrwt beam="1">  1       21 0.18331700E+00 0.19386719E+03</pdfrwt>
<pdfrwt beam="2">  1       21 0.12819396E-01 0.19386719E+03</pdfrwt>
<totfact> 0.89984557E+03</totfact>
</mgrwt>
</event>
<event>
 4    1  0.1100959E+000  0.1795893E+03  0.7546771E-02  0.1168201E+00
         21   -1    0    0  503  502  0.00000000000E+00  0.00000000000E+00  0.51616867471E+02  0.51616867471E+02  0.00000000000E+00 0.  1.
         21   -1    0    0  501  503 -0.00000000000E+00 -0.00000000000E+00 -0.63389496157E+03  0.63389496157E+03  0.00000000000E+00 0. -1.
          6    1    1    2  501    0  0.28298174777E+02  0.43214786622E+02 -0.25017434003E+03  0.30796023264E+03  0.17200000000E+03 0. -1.
         -6    1    1    2    0  502 -0.28298174777E+02 -0.43214786622E+02 -0.33210375408E+03  0.37755159641E+03  0.17200000000E+03 0. -1.
<mgrwt>
<rscale>  2 0.17958927E+03</rscale>
<asrwt>0</asrwt>
<pdfrwt beam="1">  1       21 0.12904217E-01 0.17958927E+03</pdfrwt>
<pdfrwt beam="2">  1       21 0.15847374E+00 0.17958927E+03</pdfrwt>
<totfact> 0.13434243E+04</totfact>
</mgrwt>
</event>
<event>
 4    1  0.1100959E+000  0.2663117E+03  0.7546771E-02  0.1103409E+00
         21   -1    0    0  501  502  0.00000000000E+00  0.00000000000E+00  0.14755271862E+03  0.14755271862E+03  0.00000000000E+00 0. -1.
         21   -1    0    0  502  503 -0.00000000000E+00 -0.00000000000E+00 -0.48094741587E+03  0.48094741587E+03  0.00000000000E+00 0.  1.
          6    1    1    2  501    0  0.95601024308E+02 -0.17943898209E+03 -0.15894438718E+03  0.31013742496E+03  0.17200000000E+03 0. -1.
         -6    1    1    2    0  503 -0.95601024308E+02  0.17943898209E+03 -0.17445031007E+03  0.31836270954E+03  0.17200000000E+03 0.  1.
<mgrwt>
<rscale>  2 0.26631167E+03</rscale>
<asrwt>0</asrwt>
<pdfrwt beam="1">  1       21 0.36888180E-01 0.26631167E+03</pdfrwt>
<pdfrwt beam="2">  1       21 0.12023685E+00 0.26631167E+03</pdfrwt>
<totfact> 0.35274553E+03</totfact>
</mgrwt>
</event>
<event>
 4    1  0.1100959E+000  0.2355731E+03  0.7546771E-02  0.1122778E+00
         21   -1    0    0  503  502  0.00000000000E+00  0.00000000000E+00  0.50705061315E+03  0.50705061315E+03  0.00000000000E+00 0.  1.
         21   -1    0    0  501  503 -0.00000000000E+00 -0.00000000000E+00 -0.11261641624E+03  0.11261641624E+03  0.00000000000E+00 0.  1.
          6    1    1    2  501    0  0.51273876719E+02 -0.15258334615E+03  0.14523161370E+03  0.27674340023E+03  0.17200000000E+03 0.  1.
         -6    1    1    2    0  502 -0.51273876719E+02  0.15258334615E+03  0.24920258321E+03  0.34292362916E+03  0.17200000000E+03 0.  1.
<mgrwt>
<rscale>  2 0.23557311E+03</rscale>
<asrwt>0</asrwt>
<pdfrwt beam="1">  1       21 0.12676265E+00 0.23557311E+03</pdfrwt>
<pdfrwt beam="2">  1       21 0.28154105E-01 0.23557311E+03</pdfrwt>
<totfact> 0.53761357E+03</totfact>
</mgrwt>
</event>
<event>
 4    1  0.1100959E+000  0.1982795E+03  0.7546771E-02  0.1151199E+00
         21   -1    0    0  503  502  0.00000000000E+00  0.00000000000E+00  0.17906883308E+03  0.17906883308E+03  0.00000000000E+00 0. -1.
         21   -1    0    0  501  503 -0.00000000000E+00 -0.00000000000E+00 -0.23113876982E+03  0.23113876982E+03  0.00000000000E+00 0. -1.
          6    1    1    2  501    0  0.93610126260E+02 -0.31110929126E+02  0.19888723377E+02  0.19927445137E+03  0.17200000000E+03 0. -1.
         -6    1    1    2    0  502 -0.93610126260E+02  0.31110929126E+02 -0.71958660114E+02  0.21093315153E+03  0.17200000000E+03 0. -1.
<mgrwt>
<rscale>  2 0.19827946E+03</rscale>
<asrwt>0</asrwt>
<pdfrwt beam="1">  1       21 0.44767209E-01 0.19827946E+03</pdfrwt>
<pdfrwt beam="2">  1       21 0.57784692E-01 0.19827946E+03</pdfrwt>
<totfact> 0.13401705E+04</totfact>
</mgrwt>
</event>
<event>
 4    1  0.1100959E+000  0.1873635E+03  0.7546771E-02  0.1160861E+00
         21   -1    0    0  503  502  0.00000000000E+00  0.00000000000E+00  0.20899641952E+03  0.20899641952E+03  0.00000000000E+00 0.  1.
         21   -1    0    0  501  503 -0.00000000000E+00 -0.00000000000E+00 -0.21772458137E+03  0.21772458137E+03  0.00000000000E+00 0.  1.
          6    1    1    2  501    0 -0.38950928302E+01  0.74201809269E+02 -0.10635883542E+03  0.21544670366E+03  0.17200000000E+03 0.  1.
         -6    1    1    2    0  502  0.38950928302E+01 -0.74201809269E+02  0.97630673570E+02  0.21127429723E+03  0.17200000000E+03 0.  1.
<mgrwt>
<rscale>  2 0.18736350E+03</rscale>
<asrwt>0</asrwt>
<pdfrwt beam="1">  1       21 0.52249105E-01 0.18736350E+03</pdfrwt>
<pdfrwt beam="2">  1       21 0.54431145E-01 0.18736350E+03</pdfrwt>
<totfact> 0.11120571E+04</totfact>
</mgrwt>
</event>
<event>
 4    1  0.1100959E+000  0.1857570E+03  0.7546771E-02  0.1162345E+00
         21   -1    0    0  503  502  0.00000000000E+00  0.00000000000E+00  0.17376154373E+03  0.17376154373E+03  0.00000000000E+00 0. -1.
         21   -1    0    0  501  503 -0.00000000000E+00 -0.00000000000E+00 -0.20649812044E+03  0.20649812044E+03  0.00000000000E+00 0. -1.
          6    1    1    2  501    0 -0.50733645701E+02  0.48453620027E+02 -0.53597964452E+02  0.19333493707E+03  0.17200000000E+03 0. -1.
         -6    1    1    2    0  502  0.50733645701E+02 -0.48453620027E+02  0.20861387739E+02  0.18692472709E+03  0.17200000000E+03 0. -1.
<mgrwt>
<rscale>  2 0.18575698E+03</rscale>
<asrwt>0</asrwt>
<pdfrwt beam="1">  1       21 0.43440386E-01 0.18575698E+03</pdfrwt>
<pdfrwt beam="2">  1       21 0.51624530E-01 0.18575698E+03</pdfrwt>
<totfact> 0.18230367E+04</totfact>
</mgrwt>
</event>
<event>
 4    1  0.1100959E+000  0.1755804E+03  0.7546771E-02  0.1172150E+00
         21   -1    0    0  501  502  0.00000000000E+00  0.00000000000E+00  0.31567911729E+03  0.31567911729E+03  0.00000000000E+00 0.  1.
         21   -1    0    0  502  503 -0.00000000000E+00 -0.00000000000E+00 -0.10163589742E+03  0.10163589742E+03  0.00000000000E+00 0.  1.
          6    1    1    2  501    0 -0.22139889268E+02  0.27464315105E+02  0.14830348010E+03  0.22983121092E+03  0.17200000000E+03 0.  1.
         -6    1    1    2    0  503  0.22139889268E+02 -0.27464315105E+02  0.65739739763E+02  0.18748380379E+03  0.17200000000E+03 0.  1.
<mgrwt>
<rscale>  2 0.17558036E+03</rscale>
<asrwt>0</asrwt>
<pdfrwt beam="1">  1       21 0.78919777E-01 0.17558036E+03</pdfrwt>
<pdfrwt beam="2">  1       21 0.25408975E-01 0.17558036E+03</pdfrwt>
<totfact> 0.21041397E+04</totfact>
</mgrwt>
</event>
<event>
 4    1  0.1100959E+000  0.2930404E+03  0.7546771E-02  0.1088772E+00
         21   -1    0    0  503  502  0.00000000000E+00  0.00000000000E+00  0.31618161486E+03  0.31618161486E+03  0.00000000000E+00 0.  1.
         21   -1    0    0  501  503 -0.00000000000E+00 -0.00000000000E+00 -0.46167714102E+03  0.46167714102E+03  0.00000000000E+00 0. -1.
          6    1    1    2  501    0  0.22924077020E+03  0.61133906281E+02 -0.32230755043E+03  0.43560858840E+03  0.17200000000E+03 0. -1.
         -6    1    1    2    0  502 -0.22924077020E+03 -0.61133906281E+02  0.17681202427E+03  0.34225016749E+03  0.17200000000E+03 0.  1.
<mgrwt>
<rscale>  2 0.29304042E+03</rscale>
<asrwt>0</asrwt>
<pdfrwt beam="1">  1       21 0.79045404E-01 0.29304042E+03</pdfrwt>
<pdfrwt beam="2">  1       21 0.11541928E+00 0.29304042E+03</pdfrwt>
<totfact> 0.75350850E+02</totfact>
</mgrwt>
</event>
<event>
 4    1  0.1100959E+000  0.2574812E+03  0.7546771E-02  0.1108666E+00
         21   -1    0    0  501  502  0.00000000000E+00  0.00000000000E+00  0.77093148003E+02  0.77093148003E+02  0.00000000000E+00 0.  1.
         21   -1    0    0  502  503 -0.00000000000E+00 -0.00000000000E+00 -0.94115522757E+03  0.94115522757E+03  0.00000000000E+00 0. -1.
          6    1    1    2  501    0 -0.19157117093E+03  0.36142605118E+01 -0.58157671694E+03  0.63602519926E+03  0.17200000000E+03 0. -1.
         -6    1    1    2    0  503  0.19157117093E+03 -0.36142605118E+01 -0.28248536263E+03  0.38222317632E+03  0.17200000000E+03 0.  1.
<mgrwt>
<rscale>  2 0.25748122E+03</rscale>
<asrwt>0</asrwt>
<pdfrwt beam="1">  1       21 0.19273287E-01 0.25748122E+03</pdfrwt>
<pdfrwt beam="2">  1       21 0.23528881E+00 0.25748122E+03</pdfrwt>
<totfact> 0.18867993E+03</totfact>
</mgrwt>
</event>
<event>
 4    1  0.1100959E+000  0.2196655E+03  0.7546771E-02  0.1134133E+00
         21   -1    0    0  501  502  0.00000000000E+00  0.00000000000E+00  0.22264985972E+03  0.22264985972E+03  0.00000000000E+00 0.  1.
         21   -1    0    0  502  503 -0.00000000000E+00 -0.00000000000E+00 -0.31495534558E+03  0.31495534558E+03  0.00000000000E+00 0.  1.
          6    1    1    2  501    0  0.11636964960E+03 -0.71603462058E+02  0.10396780834E+03  0.24302727480E+03  0.17200000000E+03 0.  1.
         -6    1    1    2    0  503 -0.11636964960E+03  0.71603462058E+02 -0.19627329420E+03  0.29457793051E+03  0.17200000000E+03 0.  1.
<mgrwt>
<rscale>  2 0.21966554E+03</rscale>
<asrwt>0</asrwt>
<pdfrwt beam="1">  1       21 0.55662465E-01 0.21966554E+03</pdfrwt>
<pdfrwt beam="2">  1       21 0.78738836E-01 0.21966554E+03</pdfrwt>
<totfact> 0.42455264E+03</totfact>
</mgrwt>
</event>
<event>
 4    1  0.1100959E+000  0.2011805E+03  0.7546771E-02  0.1148747E+00
         21   -1    0    0  503  502  0.00000000000E+00  0.00000000000E+00  0.92156399646E+02  0.92156399646E+02  0.00000000000E+00 0.  1.
         21   -1    0    0  501  503 -0.00000000000E+00 -0.00000000000E+00 -0.71634747983E+03  0.71634747983E+03  0.00000000000E+00 0.  1.
          6    1    1    2  501    0 -0.10432553301E+03  0.24053387400E+01 -0.56354943277E+03  0.59838245769E+03  0.17200000000E+03 0.  1.
         -6    1    1    2    0  502  0.10432553301E+03 -0.24053387400E+01 -0.60641647410E+02  0.21012142178E+03  0.17200000000E+03 0.  1.
<mgrwt>
<rscale>  2 0.20118052E+03</rscale>
<asrwt>0</asrwt>
<pdfrwt beam="1">  1       21 0.23039100E-01 0.20118052E+03</pdfrwt>
<pdfrwt beam="2">  1       21 0.17908687E+00 0.20118052E+03</pdfrwt>
<totfact> 0.32396561E+03</totfact>
</mgrwt>
</event>
<event>
 4    1  0.1100959E+000  0.1730840E+03  0.7546771E-02  0.1174669E+00
         21   -1    0    0  501  502  0.00000000000E+00  0.00000000000E+00  0.36233035384E+02  0.36233035384E+02  0.00000000000E+00 0.  1.
         21   -1    0    0  502  503 -0.00000000000E+00 -0.00000000000E+00 -0.92938429828E+03  0.92938429828E+03  0.00000000000E+00 0.  1.
          6    1    1    2  501    0 -0.11331835097E+02 -0.15673022655E+02 -0.28618318054E+03  0.33445308632E+03  0.17200000000E+03 0.  1.
         -6    1    1    2    0  503  0.11331835097E+02  0.15673022655E+02 -0.60696808235E+03  0.63116424734E+03  0.17200000000E+03 0.  1.
<mgrwt>
<rscale>  2 0.17308395E+03</rscale>
<asrwt>0</asrwt>
<pdfrwt beam="1">  1       21 0.90582590E-02 0.17308395E+03</pdfrwt>
<pdfrwt beam="2">  1       21 0.23234607E+00 0.17308395E+03</pdfrwt>
<totfact> 0.83333415E+03</totfact>
</mgrwt>
</event>
<event>
 4    1  0.1100959E+000  0.2217072E+03  0.7546771E-02  0.1132617E+00
         21   -1    0    0  501  502  0.00000000000E+00  0.00000000000E+00  0.12293398457E+03  0.12293398457E+03  0.00000000000E+00 0.  1.
         21   -1    0    0  502  503 -0.00000000000E+00 -0.00000000000E+00 -0.71352545624E+03  0.71352545624E+03  0.00000000000E+00 0.  1.
          6    1    1    2  501    0  0.98383732449E+02 -0.99452158516E+02 -0.17991558951E+02  0.22243602864E+03  0.17200000000E+03 0.  1.
         -6    1    1    2    0  503 -0.98383732449E+02  0.99452158516E+02 -0.57259991272E+03  0.61402341217E+03  0.17200000000E+03 0.  1.
<mgrwt>
<rscale>  2 0.22170722E+03</rscale>
<asrwt>0</asrwt>
<pdfrwt beam="1">  1       21 0.30733496E-01 0.22170722E+03</pdfrwt>
<pdfrwt beam="2">  1       21 0.17838136E+00 0.22170722E+03</pdfrwt>
<totfact> 0.18450169E+03</totfact>
</mgrwt>
</event>
<event>
 4    1  0.1100959E+000  0.2223566E+03  0.7546771E-02  0.1132138E+00
         21   -1    0    0  501  502  0.00000000000E+00  0.00000000000E+00  0.11415796165E+04  0.11415796165E+04  0.00000000000E+00 0. -1.
         21   -1    0    0  502  503 -0.00000000000E+00 -0.00000000000E+00 -0.53115346413E+02  0.53115346413E+02  0.00000000000E+00 0.  1.
          6    1    1    2  501    0 -0.39995423960E+02 -0.13512517725E+03  0.28758513404E+03  0.36352119165E+03  0.17200000000E+03 0.  1.
         -6    1    1    2    0  503  0.39995423960E+02  0.13512517725E+03  0.80087913602E+03  0.83117377123E+03  0.17200000000E+03 0. -1.
<mgrwt>
<rscale>  2 0.22235658E+03</rscale>
<asrwt>0</asrwt>
<pdfrwt beam="1">  1       21 0.28539482E+00 0.22235658E+03</pdfrwt>
<pdfrwt beam="2">  1       21 0.13278840E-01 0.22235658E+03</pdfrwt>
<totfact> 0.19579449E+03</totfact>
</mgrwt>
</event>
<event>
 4    1  0.1100959E+000  0.1864234E+03  0.7546771E-02  0.1161727E+00
         21   -1    0    0  501  502  0.00000000000E+00  0.00000000000E+00  0.10696899754E+03  0.10696899754E+03  0.00000000000E+00 0.  1.
         21   -1    0    0  502  503 -0.00000000000E+00 -0.00000000000E+00 -0.37835899901E+03  0.37835899901E+03  0.00000000000E+00 0. -1.
          6    1    1    2  501    0 -0.30550172198E+02 -0.65087364779E+02 -0.44476153169E+02  0.19165543633E+03  0.17200000000E+03 0.  1.
         -6    1    1    2    0  503  0.30550172198E+02  0.65087364779E+02 -0.22691384830E+03  0.29367256022E+03  0.17200000000E+03 0. -1.
<mgrwt>
<rscale>  2 0.18642338E+03</rscale>
<asrwt>0</asrwt>
<pdfrwt beam="1">  1       21 0.26742250E-01 0.18642338E+03</pdfrwt>
<pdfrwt beam="2">  1       21 0.94589749E-01 0.18642338E+03</pdfrwt>
<totfact> 0.12509905E+04</totfact>
</mgrwt>
</event>
<event>
 4    1  0.1100959E+000  0.2206092E+03  0.7546771E-02  0.1133430E+00
         21   -1    0    0  501  502  0.00000000000E+00  0.00000000000E+00  0.20924499871E+03  0.20924499871E+03  0.00000000000E+00 0.  1.
         21   -1    0    0  502  503 -0.00000000000E+00 -0.00000000000E+00 -0.23278925942E+03  0.23278925942E+03  0.00000000000E+00 0.  1.
          6    1    1    2  501    0  0.39325763862E+02 -0.13243072121E+03 -0.18229293126E+02  0.22136105970E+03  0.17200000000E+03 0.  1.
         -6    1    1    2    0  503 -0.39325763862E+02  0.13243072121E+03 -0.53149675858E+01  0.22067319843E+03  0.17200000000E+03 0.  1.
<mgrwt>
<rscale>  2 0.22060918E+03</rscale>
<asrwt>0</asrwt>
<pdfrwt beam="1">  1       21 0.52311250E-01 0.22060918E+03</pdfrwt>
<pdfrwt beam="2">  1       21 0.58197315E-01 0.22060918E+03</pdfrwt>
<totfact> 0.94107161E+03</totfact>
</mgrwt>
</event>
<event>
 4    1  0.1100959E+000  0.2222984E+03  0.7546771E-02  0.1132181E+00
         21   -1    0    0  503  502  0.00000000000E+00  0.00000000000E+00  0.51436496473E+03  0.51436496473E+03  0.00000000000E+00 0. -1.
         21   -1    0    0  501  503 -0.00000000000E+00 -0.00000000000E+00 -0.10669425414E+03  0.10669425414E+03  0.00000000000E+00 0. -1.
          6    1    1    2  501    0  0.69140166608E+02 -0.12268755405E+03  0.10585931738E+03  0.24621696455E+03  0.17200000000E+03 0. -1.
         -6    1    1    2    0  502 -0.69140166608E+02  0.12268755405E+03  0.30181139320E+03  0.37484225432E+03  0.17200000000E+03 0. -1.
<mgrwt>
<rscale>  2 0.22229844E+03</rscale>
<asrwt>0</asrwt>
<pdfrwt beam="1">  1       21 0.12859123E+00 0.22229844E+03</pdfrwt>
<pdfrwt beam="2">  1       21 0.26673565E-01 0.22229844E+03</pdfrwt>
<totfact> 0.58106333E+03</totfact>
</mgrwt>
</event>
<event>
 4    1  0.1100959E+000  0.2679029E+03  0.7546771E-02  0.1102486E+00
         21   -1    0    0  501  502  0.00000000000E+00  0.00000000000E+00  0.17035774763E+03  0.17035774763E+03  0.00000000000E+00 0. -1.
         21   -1    0    0  502  503 -0.00000000000E+00 -0.00000000000E+00 -0.73712321792E+03  0.73712321792E+03  0.00000000000E+00 0.  1.
          6    1    1    2  501    0  0.12382533394E+03 -0.16387570095E+03  0.13618696967E+02  0.26824881658E+03  0.17200000000E+03 0. -1.
         -6    1    1    2    0  503 -0.12382533394E+03  0.16387570095E+03 -0.58038416726E+03  0.63923214898E+03  0.17200000000E+03 0.  1.
<mgrwt>
<rscale>  2 0.26790289E+03</rscale>
<asrwt>0</asrwt>
<pdfrwt beam="1">  1       21 0.42589437E-01 0.26790289E+03</pdfrwt>
<pdfrwt beam="2">  1       21 0.18428080E+00 0.26790289E+03</pdfrwt>
<totfact> 0.84009065E+02</totfact>
</mgrwt>
</event>
<event>
 4    1  0.1100959E+000  0.2145502E+03  0.7546771E-02  0.1138013E+00
         21   -1    0    0  503  502  0.00000000000E+00  0.00000000000E+00  0.54115715844E+02  0.54115715844E+02  0.00000000000E+00 0. -1.
         21   -1    0    0  501  503 -0.00000000000E+00 -0.00000000000E+00 -0.91497790751E+03  0.91497790751E+03  0.00000000000E+00 0.  1.
          6    1    1    2  501    0 -0.68371598259E+01  0.12806652290E+03 -0.30192034903E+03  0.37038855031E+03  0.17200000000E+03 0. -1.
         -6    1    1    2    0  502  0.68371598259E+01 -0.12806652290E+03 -0.55894184263E+03  0.59870507304E+03  0.17200000000E+03 0.  1.
<mgrwt>
<rscale>  2 0.21455018E+03</rscale>
<asrwt>0</asrwt>
<pdfrwt beam="1">  1       21 0.13528929E-01 0.21455018E+03</pdfrwt>
<pdfrwt beam="2">  1       21 0.22874447E+00 0.21455018E+03</pdfrwt>
<totfact> 0.41209023E+03</totfact>
</mgrwt>
</event>
<event>
 4    1  0.1100959E+000  0.1976840E+03  0.7546771E-02  0.1151708E+00
         21   -1    0    0  501  502  0.00000000000E+00  0.00000000000E+00  0.54312930827E+03  0.54312930827E+03  0.00000000000E+00 0. -1.
         21   -1    0    0  502  503 -0.00000000000E+00 -0.00000000000E+00 -0.98724085258E+02  0.98724085258E+02  0.00000000000E+00 0. -1.
          6    1    1    2  501    0 -0.11798293033E+01 -0.97435026383E+02  0.55078418423E+02  0.20521356812E+03  0.17200000000E+03 0. -1.
         -6    1    1    2    0  503  0.11798293033E+01  0.97435026383E+02  0.38932680459E+03  0.43663982541E+03  0.17200000000E+03 0. -1.
<mgrwt>
<rscale>  2 0.19768403E+03</rscale>
<asrwt>0</asrwt>
<pdfrwt beam="1">  1       21 0.13578232E+00 0.19768403E+03</pdfrwt>
<pdfrwt beam="2">  1       21 0.24681023E-01 0.19768403E+03</pdfrwt>
<totfact> 0.59845297E+03</totfact>
</mgrwt>
</event>
<event>
 4    1  0.1100959E+000  0.2605005E+03  0.7546771E-02  0.1106843E+00
         21   -1    0    0  503  502  0.00000000000E+00  0.00000000000E+00  0.21818258396E+03  0.21818258396E+03  0.00000000000E+00 0.  1.
         21   -1    0    0  501  503 -0.00000000000E+00 -0.00000000000E+00 -0.31606145892E+03  0.31606145892E+03  0.00000000000E+00 0.  1.
          6    1    1    2  501    0  0.18014178362E+03  0.76324555580E+02 -0.15223531988E+02  0.26094492889E+03  0.17200000000E+03 0.  1.
         -6    1    1    2    0  502 -0.18014178362E+03 -0.76324555580E+02 -0.82655342970E+02  0.27329911399E+03  0.17200000000E+03 0.  1.
<mgrwt>
<rscale>  2 0.26050048E+03</rscale>
<asrwt>0</asrwt>
<pdfrwt beam="1">  1       21 0.54545646E-01 0.26050048E+03</pdfrwt>
<pdfrwt beam="2">  1       21 0.79015364E-01 0.26050048E+03</pdfrwt>
<totfact> 0.42799177E+03</totfact>
</mgrwt>
</event>
<event>
 4    1  0.1100959E+000  0.2683137E+03  0.7546771E-02  0.1102249E+00
         21   -1    0    0  501  502  0.00000000000E+00  0.00000000000E+00  0.33432316355E+03  0.33432316355E+03  0.00000000000E+00 0.  1.
         21   -1    0    0  502  503 -0.00000000000E+00 -0.00000000000E+00 -0.46977679933E+03  0.46977679933E+03  0.00000000000E+00 0.  1.
          6    1    1    2  501    0 -0.12090632912E+03  0.16670295539E+03  0.22816067699E+03  0.35220663010E+03  0.17200000000E+03 0.  1.
         -6    1    1    2    0  503  0.12090632912E+03 -0.16670295539E+03 -0.36361431277E+03  0.45189333278E+03  0.17200000000E+03 0.  1.
<mgrwt>
<rscale>  2 0.26831365E+03</rscale>
<asrwt>0</asrwt>
<pdfrwt beam="1">  1       21 0.83580792E-01 0.26831365E+03</pdfrwt>
<pdfrwt beam="2">  1       21 0.11744420E+00 0.26831365E+03</pdfrwt>
<totfact> 0.64682089E+02</totfact>
</mgrwt>
</event>
<event>
 4    1  0.1100959E+000  0.2357436E+03  0.7546771E-02  0.1122661E+00
         21   -1    0    0  503  502  0.00000000000E+00  0.00000000000E+00  0.14357772986E+03  0.14357772986E+03  0.00000000000E+00 0. -1.
         21   -1    0    0  501  503 -0.00000000000E+00 -0.00000000000E+00 -0.54529903637E+03  0.54529903637E+03  0.00000000000E+00 0. -1.
          6    1    1    2  501    0  0.11544166905E+03  0.11253570091E+03 -0.38639877181E+03  0.45263569655E+03  0.17200000000E+03 0. -1.
         -6    1    1    2    0  502 -0.11544166905E+03 -0.11253570091E+03 -0.15322534707E+02  0.23624106968E+03  0.17200000000E+03 0. -1.
<mgrwt>
<rscale>  2 0.23574364E+03</rscale>
<asrwt>0</asrwt>
<pdfrwt beam="1">  1       21 0.35894433E-01 0.23574364E+03</pdfrwt>
<pdfrwt beam="2">  1       21 0.13632476E+00 0.23574364E+03</pdfrwt>
<totfact> 0.27665952E+03</totfact>
</mgrwt>
</event>
<event>
 4    1  0.1100959E+000  0.2356340E+03  0.7546771E-02  0.1122736E+00
         21   -1    0    0  501  502  0.00000000000E+00  0.00000000000E+00  0.62688585603E+03  0.62688585603E+03  0.00000000000E+00 0.  1.
         21   -1    0    0  502  503 -0.00000000000E+00 -0.00000000000E+00 -0.11395084756E+03  0.11395084756E+03  0.00000000000E+00 0. -1.
          6    1    1    2  501    0 -0.12560983865E+03 -0.10080440499E+03  0.43128532104E+03  0.49145741197E+03  0.17200000000E+03 0.  1.
         -6    1    1    2    0  503  0.12560983865E+03  0.10080440499E+03  0.81649687423E+02  0.24937929162E+03  0.17200000000E+03 0. -1.
<mgrwt>
<rscale>  2 0.23563395E+03</rscale>
<asrwt>0</asrwt>
<pdfrwt beam="1">  1       21 0.15672145E+00 0.23563395E+03</pdfrwt>
<pdfrwt beam="2">  1       21 0.28487714E-01 0.23563395E+03</pdfrwt>
<totfact> 0.30231747E+03</totfact>
</mgrwt>
</event>
<event>
 4    1  0.1100959E+000  0.1782174E+03  0.7546771E-02  0.1169540E+00
         21   -1    0    0  501  502  0.00000000000E+00  0.00000000000E+00  0.15732177916E+04  0.15732177916E+04  0.00000000000E+00 0.  1.
         21   -1    0    0  502  503 -0.00000000000E+00 -0.00000000000E+00 -0.32963790660E+02  0.32963790660E+02  0.00000000000E+00 0.  1.
          6    1    1    2  501    0 -0.11938747018E+02 -0.45109817538E+02  0.12700761432E+04  0.12825189429E+04  0.17200000000E+03 0. -1.
         -6    1    1    2    0  503  0.11938747018E+02  0.45109817538E+02  0.27017785775E+03  0.32366263939E+03  0.17200000000E+03 0. -1.
<mgrwt>
<rscale>  2 0.17821737E+03</rscale>
<asrwt>0</asrwt>
<pdfrwt beam="1">  1       21 0.39330420E+00 0.17821737E+03</pdfrwt>
<pdfrwt beam="2">  1       21 0.82409530E-02 0.17821737E+03</pdfrwt>
<totfact> 0.11178978E+03</totfact>
</mgrwt>
</event>
<event>
 4    1  0.1100959E+000  0.3520991E+03  0.7546771E-02  0.1061757E+00
         21   -1    0    0  503  502  0.00000000000E+00  0.00000000000E+00  0.91388182907E+03  0.91388182907E+03  0.00000000000E+00 0.  1.
         21   -1    0    0  501  503 -0.00000000000E+00 -0.00000000000E+00 -0.15710319259E+03  0.15710319259E+03  0.00000000000E+00 0. -1.
          6    1    1    2  501    0  0.30374767566E+03 -0.46120738853E+02  0.18053584037E+03  0.39568543400E+03  0.17200000000E+03 0.  1.
         -6    1    1    2    0  502 -0.30374767566E+03  0.46120738853E+02  0.57624279612E+03  0.67529958766E+03  0.17200000000E+03 0.  1.
<mgrwt>
<rscale>  2 0.35209910E+03</rscale>
<asrwt>0</asrwt>
<pdfrwt beam="1">  1       21 0.22847044E+00 0.35209910E+03</pdfrwt>
<pdfrwt beam="2">  1       21 0.39275801E-01 0.35209910E+03</pdfrwt>
<totfact> 0.48199328E+02</totfact>
</mgrwt>
</event>
<event>
 4    1  0.1100959E+000  0.2107822E+03  0.7546771E-02  0.1140948E+00
         21   -1    0    0  503  502  0.00000000000E+00  0.00000000000E+00  0.66747281738E+03  0.66747281738E+03  0.00000000000E+00 0.  1.
         21   -1    0    0  501  503 -0.00000000000E+00 -0.00000000000E+00 -0.10281669032E+03  0.10281669032E+03  0.00000000000E+00 0.  1.
          6    1    1    2  501    0  0.11201585378E+03  0.47933094835E+02  0.53627607125E+02  0.21749724900E+03  0.17200000000E+03 0.  1.
         -6    1    1    2    0  502 -0.11201585378E+03 -0.47933094835E+02  0.51102851994E+03  0.55279225869E+03  0.17200000000E+03 0.  1.
<mgrwt>
<rscale>  2 0.21078219E+03</rscale>
<asrwt>0</asrwt>
<pdfrwt beam="1">  1       21 0.16686819E+00 0.21078219E+03</pdfrwt>
<pdfrwt beam="2">  1       21 0.25704175E-01 0.21078219E+03</pdfrwt>
<totfact> 0.31728570E+03</totfact>
</mgrwt>
</event>
<event>
 4    1  0.1100959E+000  0.2186282E+03  0.7546771E-02  0.1134910E+00
         21   -1    0    0  501  502  0.00000000000E+00  0.00000000000E+00  0.73467607187E+02  0.73467607187E+02  0.00000000000E+00 0.  1.
         21   -1    0    0  502  503 -0.00000000000E+00 -0.00000000000E+00 -0.67594585487E+03  0.67594585487E+03  0.00000000000E+00 0. -1.
          6    1    1    2  501    0 -0.16072865748E+02 -0.13399985184E+03 -0.37379244251E+03  0.43303474154E+03  0.17200000000E+03 0.  1.
         -6    1    1    2    0  503  0.16072865748E+02  0.13399985184E+03 -0.22868580517E+03  0.31637872051E+03  0.17200000000E+03 0. -1.
<mgrwt>
<rscale>  2 0.21862822E+03</rscale>
<asrwt>0</asrwt>
<pdfrwt beam="1">  1       21 0.18366902E-01 0.21862822E+03</pdfrwt>
<pdfrwt beam="2">  1       21 0.16898646E+00 0.21862822E+03</pdfrwt>
<totfact> 0.57427840E+03</totfact>
</mgrwt>
</event>
<event>
 4    1  0.1100959E+000  0.1925899E+03  0.7546771E-02  0.1156146E+00
         21   -1    0    0  503  502  0.00000000000E+00  0.00000000000E+00  0.11710369450E+03  0.11710369450E+03  0.00000000000E+00 0.  1.
         21   -1    0    0  501  503 -0.00000000000E+00 -0.00000000000E+00 -0.46858178347E+03  0.46858178347E+03  0.00000000000E+00 0.  1.
          6    1    1    2  501    0 -0.58286123313E+02  0.64106001254E+02 -0.34244242264E+03  0.39288377975E+03  0.17200000000E+03 0.  1.
         -6    1    1    2    0  502  0.58286123313E+02 -0.64106001254E+02 -0.90356663229E+01  0.19280169821E+03  0.17200000000E+03 0.  1.
<mgrwt>
<rscale>  2 0.19258985E+03</rscale>
<asrwt>0</asrwt>
<pdfrwt beam="1">  1       21 0.29275924E-01 0.19258985E+03</pdfrwt>
<pdfrwt beam="2">  1       21 0.11714544E+00 0.19258985E+03</pdfrwt>
<totfact> 0.62630407E+03</totfact>
</mgrwt>
</event>
<event>
 4    1  0.1100959E+000  0.1806364E+03  0.7546771E-02  0.1167189E+00
         21   -1    0    0  503  502  0.00000000000E+00  0.00000000000E+00  0.87610298380E+03  0.87610298380E+03  0.00000000000E+00 0. -1.
         21   -1    0    0  501  503 -0.00000000000E+00 -0.00000000000E+00 -0.12137188338E+03  0.12137188338E+03  0.00000000000E+00 0. -1.
          6    1    1    2  501    0 -0.40220051090E+02 -0.37786907862E+02 -0.37859099612E+02  0.18456113984E+03  0.17200000000E+03 0. -1.
         -6    1    1    2    0  502  0.40220051090E+02  0.37786907862E+02  0.79259020003E+03  0.81291372734E+03  0.17200000000E+03 0. -1.
<mgrwt>
<rscale>  2 0.18063638E+03</rscale>
<asrwt>0</asrwt>
<pdfrwt beam="1">  1       21 0.21902573E+00 0.18063638E+03</pdfrwt>
<pdfrwt beam="2">  1       21 0.30342973E-01 0.18063638E+03</pdfrwt>
<totfact> 0.10783912E+03</totfact>
</mgrwt>
</event>
<event>
 4    1  0.1100959E+000  0.1985610E+03  0.7546771E-02  0.1150959E+00
         21   -1    0    0  501  502  0.00000000000E+00  0.00000000000E+00  0.48308711864E+03  0.48308711864E+03  0.00000000000E+00 0.  1.
         21   -1    0    0  502  503 -0.00000000000E+00 -0.00000000000E+00 -0.41410926912E+03  0.41410926912E+03  0.00000000000E+00 0.  1.
          6    1    1    2  501    0 -0.71548362518E+02 -0.68726356380E+02  0.43645836726E+03  0.47950222793E+03  0.17200000000E+03 0.  1.
         -6    1    1    2    0  503  0.71548362518E+02  0.68726356380E+02 -0.36748051774E+03  0.41769415983E+03  0.17200000000E+03 0.  1.
<mgrwt>
<rscale>  2 0.19856102E+03</rscale>
<asrwt>0</asrwt>
<pdfrwt beam="1">  1       21 0.12077178E+00 0.19856102E+03</pdfrwt>
<pdfrwt beam="2">  1       21 0.10352732E+00 0.19856102E+03</pdfrwt>
<totfact> 0.39017085E+02</totfact>
</mgrwt>
</event>
<event>
 4    1  0.1100959E+000  0.1890274E+03  0.7546771E-02  0.1159341E+00
         21   -1    0    0  503  502  0.00000000000E+00  0.00000000000E+00  0.25282305534E+03  0.25282305534E+03  0.00000000000E+00 0. -1.
         21   -1    0    0  501  503 -0.00000000000E+00 -0.00000000000E+00 -0.18013349486E+03  0.18013349486E+03  0.00000000000E+00 0.  1.
          6    1    1    2  501    0  0.69097707553E+02  0.37052278771E+02 -0.64129547988E+02  0.19960952752E+03  0.17200000000E+03 0.  1.
         -6    1    1    2    0  502 -0.69097707553E+02 -0.37052278771E+02  0.13681910846E+03  0.23334702268E+03  0.17200000000E+03 0. -1.
<mgrwt>
<rscale>  2 0.18902742E+03</rscale>
<asrwt>0</asrwt>
<pdfrwt beam="1">  1       21 0.63205764E-01 0.18902742E+03</pdfrwt>
<pdfrwt beam="2">  1       21 0.45033374E-01 0.18902742E+03</pdfrwt>
<totfact> 0.10985278E+04</totfact>
</mgrwt>
</event>
<event>
 4    1  0.1100959E+000  0.2261882E+03  0.7546771E-02  0.1129352E+00
         21   -1    0    0  503  502  0.00000000000E+00  0.00000000000E+00  0.22882397423E+03  0.22882397423E+03  0.00000000000E+00 0.  1.
         21   -1    0    0  501  503 -0.00000000000E+00 -0.00000000000E+00 -0.24776037628E+03  0.24776037628E+03  0.00000000000E+00 0. -1.
          6    1    1    2  501    0 -0.10373265614E+03  0.10400300312E+03 -0.83907260107E+02  0.24124990551E+03  0.17200000000E+03 0. -1.
         -6    1    1    2    0  502  0.10373265614E+03 -0.10400300312E+03  0.64970858056E+02  0.23533444500E+03  0.17200000000E+03 0.  1.
<mgrwt>
<rscale>  2 0.22618817E+03</rscale>
<asrwt>0</asrwt>
<pdfrwt beam="1">  1       21 0.57205994E-01 0.22618817E+03</pdfrwt>
<pdfrwt beam="2">  1       21 0.61940094E-01 0.22618817E+03</pdfrwt>
<totfact> 0.67807944E+03</totfact>
</mgrwt>
</event>
<event>
 4    1  0.1100959E+000  0.1893366E+03  0.7546771E-02  0.1159061E+00
         21   -1    0    0  503  502  0.00000000000E+00  0.00000000000E+00  0.11110928664E+03  0.11110928664E+03  0.00000000000E+00 0. -1.
         21   -1    0    0  501  503 -0.00000000000E+00 -0.00000000000E+00 -0.38329739659E+03  0.38329739659E+03  0.00000000000E+00 0. -1.
          6    1    1    2  501    0 -0.14185638890E+02 -0.77865980876E+02 -0.23443330624E+03  0.30134252671E+03  0.17200000000E+03 0. -1.
         -6    1    1    2    0  502  0.14185638890E+02  0.77865980876E+02 -0.37754803701E+02  0.19306415652E+03  0.17200000000E+03 0. -1.
<mgrwt>
<rscale>  2 0.18933659E+03</rscale>
<asrwt>0</asrwt>
<pdfrwt beam="1">  1       21 0.27777322E-01 0.18933659E+03</pdfrwt>
<pdfrwt beam="2">  1       21 0.95824348E-01 0.18933659E+03</pdfrwt>
<totfact> 0.11257725E+04</totfact>
</mgrwt>
</event>
<event>
 4    1  0.1100959E+000  0.1732269E+03  0.7546771E-02  0.1174524E+00
         21   -1    0    0  501  502  0.00000000000E+00  0.00000000000E+00  0.22077310629E+03  0.22077310629E+03  0.00000000000E+00 0.  1.
         21   -1    0    0  502  503 -0.00000000000E+00 -0.00000000000E+00 -0.18023069753E+03  0.18023069753E+03  0.00000000000E+00 0.  1.
          6    1    1    2  501    0  0.19649089408E+02 -0.61227036781E+01  0.11968721467E+03  0.21055308967E+03  0.17200000000E+03 0.  1.
         -6    1    1    2    0  503 -0.19649089408E+02  0.61227036781E+01 -0.79144805907E+02  0.19045071414E+03  0.17200000000E+03 0.  1.
<mgrwt>
<rscale>  2 0.17322694E+03</rscale>
<asrwt>0</asrwt>
<pdfrwt beam="1">  1       21 0.55193277E-01 0.17322694E+03</pdfrwt>
<pdfrwt beam="2">  1       21 0.45057674E-01 0.17322694E+03</pdfrwt>
<totfact> 0.14818322E+04</totfact>
</mgrwt>
</event>
<event>
 4    1  0.1100959E+000  0.1795923E+03  0.7546771E-02  0.1168198E+00
         21   -1    0    0  501  502  0.00000000000E+00  0.00000000000E+00  0.33926032846E+03  0.33926032846E+03  0.00000000000E+00 0. -1.
         21   -1    0    0  502  503 -0.00000000000E+00 -0.00000000000E+00 -0.39953186815E+03  0.39953186815E+03  0.00000000000E+00 0.  1.
          6    1    1    2  501    0 -0.38969395315E+02 -0.33923153193E+02  0.29232970581E+03  0.34308898407E+03  0.17200000000E+03 0. -1.
         -6    1    1    2    0  503  0.38969395315E+02  0.33923153193E+02 -0.35260124549E+03  0.39570321254E+03  0.17200000000E+03 0.  1.
<mgrwt>
<rscale>  2 0.17959230E+03</rscale>
<asrwt>0</asrwt>
<pdfrwt beam="1">  1       21 0.84815082E-01 0.17959230E+03</pdfrwt>
<pdfrwt beam="2">  1       21 0.99882967E-01 0.17959230E+03</pdfrwt>
<totfact> 0.10049295E+03</totfact>
</mgrwt>
</event>
<event>
 4    1  0.1100959E+000  0.2323736E+03  0.7546771E-02  0.1124980E+00
         21   -1    0    0  501  502  0.00000000000E+00  0.00000000000E+00  0.21616845541E+03  0.21616845541E+03  0.00000000000E+00 0.  1.
         21   -1    0    0  502  503 -0.00000000000E+00 -0.00000000000E+00 -0.25342599520E+03  0.25342599520E+03  0.00000000000E+00 0.  1.
          6    1    1    2  501    0 -0.78180855833E+02  0.13528200580E+03  0.94819552772E+01  0.23256692539E+03  0.17200000000E+03 0.  1.
         -6    1    1    2    0  503  0.78180855833E+02 -0.13528200580E+03 -0.46739495070E+02  0.23702752522E+03  0.17200000000E+03 0.  1.
<mgrwt>
<rscale>  2 0.23237355E+03</rscale>
<asrwt>0</asrwt>
<pdfrwt beam="1">  1       21 0.54042114E-01 0.23237355E+03</pdfrwt>
<pdfrwt beam="2">  1       21 0.63356499E-01 0.23237355E+03</pdfrwt>
<totfact> 0.72578942E+03</totfact>
</mgrwt>
</event>
<event>
 4    1  0.1100959E+000  0.2261438E+03  0.7546771E-02  0.1129384E+00
         21   -1    0    0  501  502  0.00000000000E+00  0.00000000000E+00  0.44246129073E+03  0.44246129073E+03  0.00000000000E+00 0.  1.
         21   -1    0    0  502  503 -0.00000000000E+00 -0.00000000000E+00 -0.16159405347E+03  0.16159405347E+03  0.00000000000E+00 0. -1.
          6    1    1    2  501    0  0.11514899760E+03 -0.91091969522E+02  0.30159640259E+03  0.37696343141E+03  0.17200000000E+03 0.  1.
         -6    1    1    2    0  503 -0.11514899760E+03  0.91091969522E+02 -0.20729165338E+02  0.22709191279E+03  0.17200000000E+03 0. -1.
<mgrwt>
<rscale>  2 0.22614384E+03</rscale>
<asrwt>0</asrwt>
<pdfrwt beam="1">  1       21 0.11061532E+00 0.22614384E+03</pdfrwt>
<pdfrwt beam="2">  1       21 0.40398514E-01 0.22614384E+03</pdfrwt>
<totfact> 0.37040708E+03</totfact>
</mgrwt>
</event>
<event>
 4    1  0.1100959E+000  0.3077120E+03  0.7546771E-02  0.1081448E+00
         21   -1    0    0  503  502  0.00000000000E+00  0.00000000000E+00  0.44327945092E+03  0.44327945092E+03  0.00000000000E+00 0.  1.
         21   -1    0    0  501  503 -0.00000000000E+00 -0.00000000000E+00 -0.35030287617E+03  0.35030287617E+03  0.00000000000E+00 0. -1.
          6    1    1    2  501    0  0.19042253830E+03 -0.16982908567E+03 -0.20138012647E+03  0.36775075359E+03  0.17200000000E+03 0. -1.
         -6    1    1    2    0  502 -0.19042253830E+03  0.16982908567E+03  0.29435670121E+03  0.42583157349E+03  0.17200000000E+03 0.  1.
<mgrwt>
<rscale>  2 0.30771198E+03</rscale>
<asrwt>0</asrwt>
<pdfrwt beam="1">  1       21 0.11081986E+00 0.30771198E+03</pdfrwt>
<pdfrwt beam="2">  1       21 0.87575719E-01 0.30771198E+03</pdfrwt>
<totfact> 0.65118611E+02</totfact>
</mgrwt>
</event>
<event>
 4    1  0.1100959E+000  0.1789453E+03  0.7546771E-02  0.1168828E+00
         21   -1    0    0  503  502  0.00000000000E+00  0.00000000000E+00  0.15552387960E+03  0.15552387960E+03  0.00000000000E+00 0. -1.
         21   -1    0    0  501  503 -0.00000000000E+00 -0.00000000000E+00 -0.35906131820E+03  0.35906131820E+03  0.00000000000E+00 0. -1.
          6    1    1    2  501    0  0.49217839145E+02  0.38780489859E+01 -0.26981388597E+03  0.32376066471E+03  0.17200000000E+03 0. -1.
         -6    1    1    2    0  502 -0.49217839145E+02 -0.38780489859E+01  0.66276447367E+02  0.19082453309E+03  0.17200000000E+03 0. -1.
<mgrwt>
<rscale>  2 0.17894534E+03</rscale>
<asrwt>0</asrwt>
<pdfrwt beam="1">  1       21 0.38880970E-01 0.17894534E+03</pdfrwt>
<pdfrwt beam="2">  1       21 0.89765329E-01 0.17894534E+03</pdfrwt>
<totfact> 0.68118636E+03</totfact>
</mgrwt>
</event>
<event>
 4    1  0.1100959E+000  0.1833006E+03  0.7546771E-02  0.1164646E+00
         21   -1    0    0  501  502  0.00000000000E+00  0.00000000000E+00  0.22925635294E+03  0.22925635294E+03  0.00000000000E+00 0. -1.
         21   -1    0    0  502  503 -0.00000000000E+00 -0.00000000000E+00 -0.16023719675E+03  0.16023719675E+03  0.00000000000E+00 0. -1.
          6    1    1    2  501    0  0.61272740393E+02 -0.16148094776E+02  0.91412651115E+02  0.20483013075E+03  0.17200000000E+03 0. -1.
         -6    1    1    2    0  503 -0.61272740393E+02  0.16148094776E+02 -0.22393494921E+02  0.18466341894E+03  0.17200000000E+03 0. -1.
<mgrwt>
<rscale>  2 0.18330060E+03</rscale>
<asrwt>0</asrwt>
<pdfrwt beam="1">  1       21 0.57314088E-01 0.18330060E+03</pdfrwt>
<pdfrwt beam="2">  1       21 0.40059299E-01 0.18330060E+03</pdfrwt>
<totfact> 0.17262045E+04</totfact>
</mgrwt>
</event>
<event>
 4    1  0.1100959E+000  0.1884733E+03  0.7546771E-02  0.1159846E+00
         21   -1    0    0  501  502  0.00000000000E+00  0.00000000000E+00  0.66977820383E+03  0.66977820383E+03  0.00000000000E+00 0.  1.
         21   -1    0    0  502  503 -0.00000000000E+00 -0.00000000000E+00 -0.53441190548E+02  0.53441190548E+02  0.00000000000E+00 0.  1.
          6    1    1    2  501    0  0.59510044368E+02 -0.48956326154E+02  0.27667048439E+03  0.33476667126E+03  0.17200000000E+03 0.  1.
         -6    1    1    2    0  503 -0.59510044368E+02  0.48956326154E+02  0.33966652889E+03  0.38845272312E+03  0.17200000000E+03 0.  1.
<mgrwt>
<rscale>  2 0.18847325E+03</rscale>
<asrwt>0</asrwt>
<pdfrwt beam="1">  1       21 0.16744452E+00 0.18847325E+03</pdfrwt>
<pdfrwt beam="2">  1       21 0.13360300E-01 0.18847325E+03</pdfrwt>
<totfact> 0.10798062E+04</totfact>
</mgrwt>
</event>
<event>
 4    1  0.1100959E+000  0.2314727E+03  0.7546771E-02  0.1125607E+00
         21   -1    0    0  503  502  0.00000000000E+00  0.00000000000E+00  0.69416499091E+02  0.69416499091E+02  0.00000000000E+00 0.  1.
         21   -1    0    0  501  503 -0.00000000000E+00 -0.00000000000E+00 -0.14464872745E+04  0.14464872745E+04  0.00000000000E+00 0. -1.
          6    1    1    2  501    0  0.32443055712E+02 -0.15146971559E+03 -0.12061626833E+04  0.12281726447E+04  0.17200000000E+03 0. -1.
         -6    1    1    2    0  502 -0.32443055712E+02  0.15146971559E+03 -0.17090809219E+03  0.28773112897E+03  0.17200000000E+03 0. -1.
<mgrwt>
<rscale>  2 0.23147273E+03</rscale>
<asrwt>0</asrwt>
<pdfrwt beam="1">  1       21 0.17354126E-01 0.23147273E+03</pdfrwt>
<pdfrwt beam="2">  1       21 0.36162179E+00 0.23147273E+03</pdfrwt>
<totfact> 0.42341381E+02</totfact>
</mgrwt>
</event>
<event>
 4    1  0.1100959E+000  0.2244356E+03  0.7546771E-02  0.1130619E+00
         21   -1    0    0  503  502  0.00000000000E+00  0.00000000000E+00  0.38452481818E+03  0.38452481818E+03  0.00000000000E+00 0.  1.
         21   -1    0    0  501  503 -0.00000000000E+00 -0.00000000000E+00 -0.18197536580E+03  0.18197536580E+03  0.00000000000E+00 0.  1.
          6    1    1    2  501    0 -0.84803670253E+02  0.11660058254E+03 -0.48645201560E+02  0.22964693329E+03  0.17200000000E+03 0.  1.
         -6    1    1    2    0  502  0.84803670253E+02 -0.11660058254E+03  0.25119465394E+03  0.33685325069E+03  0.17200000000E+03 0.  1.
<mgrwt>
<rscale>  2 0.22443564E+03</rscale>
<asrwt>0</asrwt>
<pdfrwt beam="1">  1       21 0.96131203E-01 0.22443564E+03</pdfrwt>
<pdfrwt beam="2">  1       21 0.45493842E-01 0.22443564E+03</pdfrwt>
<totfact> 0.40727256E+03</totfact>
</mgrwt>
</event>
<event>
 4    1  0.1100959E+000  0.1742083E+03  0.7546771E-02  0.1173529E+00
         21   -1    0    0  501  502  0.00000000000E+00  0.00000000000E+00  0.18258938101E+03  0.18258938101E+03  0.00000000000E+00 0. -1.
         21   -1    0    0  502  503 -0.00000000000E+00 -0.00000000000E+00 -0.17369253199E+03  0.17369253199E+03  0.00000000000E+00 0. -1.
          6    1    1    2  501    0 -0.23205672185E+02 -0.15033907918E+02  0.41417905875E+02  0.17906413526E+03  0.17200000000E+03 0.  1.
         -6    1    1    2    0  503  0.23205672185E+02  0.15033907918E+02 -0.32521056847E+02  0.17721777774E+03  0.17200000000E+03 0.  1.
<mgrwt>
<rscale>  2 0.17420827E+03</rscale>
<asrwt>0</asrwt>
<pdfrwt beam="1">  1       21 0.45647345E-01 0.17420827E+03</pdfrwt>
<pdfrwt beam="2">  1       21 0.43423133E-01 0.17420827E+03</pdfrwt>
<totfact> 0.23710356E+04</totfact>
</mgrwt>
</event>
<event>
 4    1  0.1100959E+000  0.1836150E+03  0.7546771E-02  0.1164350E+00
         21   -1    0    0  501  502  0.00000000000E+00  0.00000000000E+00  0.18573723951E+03  0.18573723951E+03  0.00000000000E+00 0. -1.
         21   -1    0    0  502  503 -0.00000000000E+00 -0.00000000000E+00 -0.18408130182E+03  0.18408130182E+03  0.00000000000E+00 0. -1.
          6    1    1    2  501    0  0.18123828578E+02 -0.61660413258E+02 -0.20995932490E+02  0.18481154971E+03  0.17200000000E+03 0. -1.
         -6    1    1    2    0  503 -0.18123828578E+02  0.61660413258E+02  0.22651870187E+02  0.18500699162E+03  0.17200000000E+03 0. -1.
<mgrwt>
<rscale>  2 0.18361503E+03</rscale>
<asrwt>0</asrwt>
<pdfrwt beam="1">  1       21 0.46434310E-01 0.18361503E+03</pdfrwt>
<pdfrwt beam="2">  1       21 0.46020325E-01 0.18361503E+03</pdfrwt>
<totfact> 0.20209469E+04</totfact>
</mgrwt>
</event>
<event>
 4    1  0.1100959E+000  0.1954009E+03  0.7546771E-02  0.1153678E+00
         21   -1    0    0  503  502  0.00000000000E+00  0.00000000000E+00  0.75956881344E+03  0.75956881344E+03  0.00000000000E+00 0. -1.
         21   -1    0    0  501  503 -0.00000000000E+00 -0.00000000000E+00 -0.98290650332E+02  0.98290650332E+02  0.00000000000E+00 0. -1.
          6    1    1    2  501    0  0.72844320621E+02  0.57369050297E+02  0.30822189174E+02  0.19781686057E+03  0.17200000000E+03 0. -1.
         -6    1    1    2    0  502 -0.72844320621E+02 -0.57369050297E+02  0.63045597394E+03  0.66004260321E+03  0.17200000000E+03 0. -1.
<mgrwt>
<rscale>  2 0.19540088E+03</rscale>
<asrwt>0</asrwt>
<pdfrwt beam="1">  1       21 0.18989219E+00 0.19540088E+03</pdfrwt>
<pdfrwt beam="2">  1       21 0.24572665E-01 0.19540088E+03</pdfrwt>
<totfact> 0.24387765E+03</totfact>
</mgrwt>
</event>
<event>
 4    1  0.1100959E+000  0.3339161E+03  0.7546771E-02  0.1069417E+00
         21   -1    0    0  501  502  0.00000000000E+00  0.00000000000E+00  0.46611720268E+03  0.46611720268E+03  0.00000000000E+00 0. -1.
         21   -1    0    0  502  503 -0.00000000000E+00 -0.00000000000E+00 -0.24489183322E+03  0.24489183322E+03  0.00000000000E+00 0. -1.
          6    1    1    2  501    0  0.28162546228E+03 -0.51020285096E+02  0.16476239166E+03  0.37235281146E+03  0.17200000000E+03 0. -1.
         -6    1    1    2    0  503 -0.28162546228E+03  0.51020285096E+02  0.56462977805E+02  0.33865622445E+03  0.17200000000E+03 0. -1.
<mgrwt>
<rscale>  2 0.33391611E+03</rscale>
<asrwt>0</asrwt>
<pdfrwt beam="1">  1       21 0.11652930E+00 0.33391611E+03</pdfrwt>
<pdfrwt beam="2">  1       21 0.61222959E-01 0.33391611E+03</pdfrwt>
<totfact> 0.12683912E+03</totfact>
</mgrwt>
</event>
<event>
 4    1  0.1100959E+000  0.1982980E+03  0.7546771E-02  0.1151183E+00
         21   -1    0    0  503  502  0.00000000000E+00  0.00000000000E+00  0.41729260543E+03  0.41729260543E+03  0.00000000000E+00 0.  1.
         21   -1    0    0  501  503 -0.00000000000E+00 -0.00000000000E+00 -0.22719678391E+03  0.22719678391E+03  0.00000000000E+00 0.  1.
          6    1    1    2  501    0  0.57957481064E+02  0.79868928709E+02 -0.15147301535E+03  0.24953194137E+03  0.17200000000E+03 0.  1.
         -6    1    1    2    0  502 -0.57957481064E+02 -0.79868928709E+02  0.34156883687E+03  0.39495744797E+03  0.17200000000E+03 0.  1.
<mgrwt>
<rscale>  2 0.19829805E+03</rscale>
<asrwt>0</asrwt>
<pdfrwt beam="1">  1       21 0.10432315E+00 0.19829805E+03</pdfrwt>
<pdfrwt beam="2">  1       21 0.56799197E-01 0.19829805E+03</pdfrwt>
<totfact> 0.21508188E+03</totfact>
</mgrwt>
</event>
<event>
 4    1  0.1100959E+000  0.3204831E+03  0.7546771E-02  0.1075427E+00
         21   -1    0    0  503  502  0.00000000000E+00  0.00000000000E+00  0.12943877001E+03  0.12943877001E+03  0.00000000000E+00 0. -1.
         21   -1    0    0  501  503 -0.00000000000E+00 -0.00000000000E+00 -0.79350926973E+03  0.79350926973E+03  0.00000000000E+00 0.  1.
          6    1    1    2  501    0  0.25388263805E+03  0.93107755839E+02 -0.33374855605E+03  0.46270676109E+03  0.17200000000E+03 0. -1.
         -6    1    1    2    0  502 -0.25388263805E+03 -0.93107755839E+02 -0.33032194368E+03  0.46024127865E+03  0.17200000000E+03 0.  1.
<mgrwt>
<rscale>  2 0.32048315E+03</rscale>
<asrwt>0</asrwt>
<pdfrwt beam="1">  1       21 0.32359693E-01 0.32048315E+03</pdfrwt>
<pdfrwt beam="2">  1       21 0.19837731E+00 0.32048315E+03</pdfrwt>
<totfact> 0.11333176E+03</totfact>
</mgrwt>
</event>
<event>
 4    1  0.1100959E+000  0.2095683E+03  0.7546771E-02  0.1141908E+00
         21   -1    0    0  503  502  0.00000000000E+00  0.00000000000E+00  0.11479043637E+03  0.11479043637E+03  0.00000000000E+00 0. -1.
         21   -1    0    0  501  503 -0.00000000000E+00 -0.00000000000E+00 -0.40725639257E+03  0.40725639257E+03  0.00000000000E+00 0. -1.
          6    1    1    2  501    0  0.24122065083E+02  0.11727316497E+03 -0.21045834212E+03  0.29700434848E+03  0.17200000000E+03 0. -1.
         -6    1    1    2    0  502 -0.24122065083E+02 -0.11727316497E+03 -0.82007614081E+02  0.22504248047E+03  0.17200000000E+03 0. -1.
<mgrwt>
<rscale>  2 0.20956829E+03</rscale>
<asrwt>0</asrwt>
<pdfrwt beam="1">  1       21 0.28697609E-01 0.20956829E+03</pdfrwt>
<pdfrwt beam="2">  1       21 0.10181410E+00 0.20956829E+03</pdfrwt>
<totfact> 0.90277557E+03</totfact>
</mgrwt>
</event>
<event>
 4    1  0.1100959E+000  0.3180851E+03  0.7546771E-02  0.1076534E+00
         21   -1    0    0  501  502  0.00000000000E+00  0.00000000000E+00  0.69487427760E+03  0.69487427760E+03  0.00000000000E+00 0.  1.
         21   -1    0    0  502  503 -0.00000000000E+00 -0.00000000000E+00 -0.14581044136E+03  0.14581044136E+03  0.00000000000E+00 0.  1.
          6    1    1    2  501    0 -0.26686889942E+03 -0.19367716591E+02  0.25880640416E+03  0.41007178976E+03  0.17200000000E+03 0.  1.
         -6    1    1    2    0  503  0.26686889942E+03  0.19367716591E+02  0.29025743208E+03  0.43061292920E+03  0.17200000000E+03 0.  1.
<mgrwt>
<rscale>  2 0.31808508E+03</rscale>
<asrwt>0</asrwt>
<pdfrwt beam="1">  1       21 0.17371856E+00 0.31808508E+03</pdfrwt>
<pdfrwt beam="2">  1       21 0.36452612E-01 0.31808508E+03</pdfrwt>
<totfact> 0.13178626E+03</totfact>
</mgrwt>
</event>
<event>
 4    1  0.1100959E+000  0.1727656E+03  0.7546771E-02  0.1174994E+00
         21   -1    0    0  503  502  0.00000000000E+00  0.00000000000E+00  0.42417253935E+03  0.42417253935E+03  0.00000000000E+00 0.  1.
         21   -1    0    0  501  503 -0.00000000000E+00 -0.00000000000E+00 -0.82611267590E+02  0.82611267590E+02  0.00000000000E+00 0.  1.
          6    1    1    2  501    0  0.14084576514E+02  0.80989023923E+01  0.26833132999E+03  0.31913895120E+03  0.17200000000E+03 0. -1.
         -6    1    1    2    0  502 -0.14084576514E+02 -0.80989023923E+01  0.73229941767E+02  0.18764485574E+03  0.17200000000E+03 0. -1.
<mgrwt>
<rscale>  2 0.17276564E+03</rscale>
<asrwt>0</asrwt>
<pdfrwt beam="1">  1       21 0.10604313E+00 0.17276564E+03</pdfrwt>
<pdfrwt beam="2">  1       21 0.20652818E-01 0.17276564E+03</pdfrwt>
<totfact> 0.15715698E+04</totfact>
</mgrwt>
</event>
<event>
 4    1  0.1100959E+000  0.2030201E+03  0.7546771E-02  0.1147216E+00
         21   -1    0    0  503  502  0.00000000000E+00  0.00000000000E+00  0.52721247293E+03  0.52721247293E+03  0.00000000000E+00 0.  1.
         21   -1    0    0  501  503 -0.00000000000E+00 -0.00000000000E+00 -0.80738883691E+02  0.80738883691E+02  0.00000000000E+00 0.  1.
          6    1    1    2  501    0 -0.70662498692E+02 -0.81486113794E+02  0.27735835699E+03  0.34372202963E+03  0.17200000000E+03 0. -1.
         -6    1    1    2    0  502  0.70662498692E+02  0.81486113794E+02  0.16911523225E+03  0.26422932699E+03  0.17200000000E+03 0. -1.
<mgrwt>
<rscale>  2 0.20302014E+03</rscale>
<asrwt>0</asrwt>
<pdfrwt beam="1">  1       21 0.13180311E+00 0.20302014E+03</pdfrwt>
<pdfrwt beam="2">  1       21 0.20184722E-01 0.20302014E+03</pdfrwt>
<totfact> 0.93998293E+03</totfact>
</mgrwt>
</event>
<event>
 4    1  0.1100959E+000  0.1755716E+03  0.7546771E-02  0.1172159E+00
         21   -1    0    0  503  502  0.00000000000E+00  0.00000000000E+00  0.16551308518E+03  0.16551308518E+03  0.00000000000E+00 0. -1.
         21   -1    0    0  501  503 -0.00000000000E+00 -0.00000000000E+00 -0.25983554382E+03  0.25983554382E+03  0.00000000000E+00 0. -1.
          6    1    1    2  501    0  0.42781286953E+01 -0.34972399632E+02 -0.16034592407E+03  0.23777339314E+03  0.17200000000E+03 0. -1.
         -6    1    1    2    0  502 -0.42781286953E+01  0.34972399632E+02  0.66023465426E+02  0.18757523586E+03  0.17200000000E+03 0. -1.
<mgrwt>
<rscale>  2 0.17557156E+03</rscale>
<asrwt>0</asrwt>
<pdfrwt beam="1">  1       21 0.41378272E-01 0.17557156E+03</pdfrwt>
<pdfrwt beam="2">  1       21 0.64958886E-01 0.17557156E+03</pdfrwt>
<totfact> 0.12416132E+04</totfact>
</mgrwt>
</event>
<event>
 4    1  0.1100959E+000  0.1806916E+03  0.7546771E-02  0.1167135E+00
         21   -1    0    0  501  502  0.00000000000E+00  0.00000000000E+00  0.54556629371E+02  0.54556629371E+02  0.00000000000E+00 0. -1.
         21   -1    0    0  502  503 -0.00000000000E+00 -0.00000000000E+00 -0.95197196452E+03  0.95197196452E+03  0.00000000000E+00 0. -1.
          6    1    1    2  501    0 -0.12959598560E+02 -0.53828624406E+02 -0.14202332825E+03  0.22982623385E+03  0.17200000000E+03 0. -1.
         -6    1    1    2    0  503  0.12959598560E+02  0.53828624406E+02 -0.75539200690E+03  0.77670236004E+03  0.17200000000E+03 0. -1.
<mgrwt>
<rscale>  2 0.18069165E+03</rscale>
<asrwt>0</asrwt>
<pdfrwt beam="1">  1       21 0.13639157E-01 0.18069165E+03</pdfrwt>
<pdfrwt beam="2">  1       21 0.23799299E+00 0.18069165E+03</pdfrwt>
<totfact> 0.36978273E+03</totfact>
</mgrwt>
</event>
<event>
 4    1  0.1100959E+000  0.2176778E+03  0.7546771E-02  0.1135626E+00
         21   -1    0    0  501  502  0.00000000000E+00  0.00000000000E+00  0.13943891183E+04  0.13943891183E+04  0.00000000000E+00 0.  1.
         21   -1    0    0  502  503 -0.00000000000E+00 -0.00000000000E+00 -0.81987544308E+02  0.81987544308E+02  0.00000000000E+00 0. -1.
          6    1    1    2  501    0  0.39144991796E+02  0.12754322797E+03  0.12210605518E+04  0.12403114434E+04  0.17200000000E+03 0.  1.
         -6    1    1    2    0  503 -0.39144991796E+02 -0.12754322797E+03  0.91341022134E+02  0.23606521918E+03  0.17200000000E+03 0. -1.
<mgrwt>
<rscale>  2 0.21767776E+03</rscale>
<asrwt>0</asrwt>
<pdfrwt beam="1">  1       21 0.34859720E+00 0.21767776E+03</pdfrwt>
<pdfrwt beam="2">  1       21 0.20496891E-01 0.21767776E+03</pdfrwt>
<totfact> 0.37859322E+02</totfact>
</mgrwt>
</event>
<event>
 4    1  0.1100959E+000  0.2148735E+03  0.7546771E-02  0.1137764E+00
         21   -1    0    0  503  502  0.00000000000E+00  0.00000000000E+00  0.73342232418E+02  0.73342232418E+02  0.00000000000E+00 0.  1.
         21   -1    0    0  501  503 -0.00000000000E+00 -0.00000000000E+00 -0.68106170018E+03  0.68106170018E+03  0.00000000000E+00 0.  1.
          6    1    1    2  501    0  0.12752452758E+03 -0.18002981631E+02 -0.40762404484E+03  0.46079059714E+03  0.17200000000E+03 0.  1.
         -6    1    1    2    0  502 -0.12752452758E+03  0.18002981631E+02 -0.20009542292E+03  0.29361333545E+03  0.17200000000E+03 0.  1.
<mgrwt>
<rscale>  2 0.21487348E+03</rscale>
<asrwt>0</asrwt>
<pdfrwt beam="1">  1       21 0.18335559E-01 0.21487348E+03</pdfrwt>
<pdfrwt beam="2">  1       21 0.17026542E+00 0.21487348E+03</pdfrwt>
<totfact> 0.56589985E+03</totfact>
</mgrwt>
</event>
<event>
 4    1  0.1100959E+000  0.2359580E+03  0.7546771E-02  0.1122515E+00
         21   -1    0    0  501  502  0.00000000000E+00  0.00000000000E+00  0.73816380917E+03  0.73816380917E+03  0.00000000000E+00 0. -1.
         21   -1    0    0  502  503 -0.00000000000E+00 -0.00000000000E+00 -0.11024754000E+03  0.11024754000E+03  0.00000000000E+00 0.  1.
          6    1    1    2  501    0 -0.15999031555E+03 -0.22255281204E+02  0.55236601680E+03  0.60065332358E+03  0.17200000000E+03 0. -1.
         -6    1    1    2    0  503  0.15999031555E+03  0.22255281204E+02  0.75550252371E+02  0.24775802559E+03  0.17200000000E+03 0.  1.
<mgrwt>
<rscale>  2 0.23595804E+03</rscale>
<asrwt>0</asrwt>
<pdfrwt beam="1">  1       21 0.18454094E+00 0.23595804E+03</pdfrwt>
<pdfrwt beam="2">  1       21 0.27561887E-01 0.23595804E+03</pdfrwt>
<totfact> 0.20455207E+03</totfact>
</mgrwt>
</event>
<event>
 4    1  0.1100959E+000  0.1736076E+03  0.7546771E-02  0.1174137E+00
         21   -1    0    0  503  502  0.00000000000E+00  0.00000000000E+00  0.21200418575E+03  0.21200418575E+03  0.00000000000E+00 0.  1.
         21   -1    0    0  501  503 -0.00000000000E+00 -0.00000000000E+00 -0.14228995635E+03  0.14228995635E+03  0.00000000000E+00 0.  1.
          6    1    1    2  501    0  0.18283605761E+02 -0.14876252229E+02  0.40104923316E+02  0.17817967896E+03  0.17200000000E+03 0.  1.
         -6    1    1    2    0  502 -0.18283605761E+02  0.14876252229E+02  0.29609306088E+02  0.17611446314E+03  0.17200000000E+03 0.  1.
<mgrwt>
<rscale>  2 0.17360758E+03</rscale>
<asrwt>0</asrwt>
<pdfrwt beam="1">  1       21 0.53001046E-01 0.17360758E+03</pdfrwt>
<pdfrwt beam="2">  1       21 0.35572489E-01 0.17360758E+03</pdfrwt>
<totfact> 0.25977939E+04</totfact>
</mgrwt>
</event>
<event>
 4    1  0.1100959E+000  0.2305644E+03  0.7546771E-02  0.1126243E+00
         21   -1    0    0  503  502  0.00000000000E+00  0.00000000000E+00  0.66961457321E+02  0.66961457321E+02  0.00000000000E+00 0. -1.
         21   -1    0    0  501  503 -0.00000000000E+00 -0.00000000000E+00 -0.79631338971E+03  0.79631338971E+03  0.00000000000E+00 0. -1.
          6    1    1    2  501    0 -0.14558568938E+03  0.48793048938E+02 -0.38849320572E+03  0.45175980948E+03  0.17200000000E+03 0. -1.
         -6    1    1    2    0  502  0.14558568938E+03 -0.48793048938E+02 -0.34085872667E+03  0.41151503755E+03  0.17200000000E+03 0. -1.
<mgrwt>
<rscale>  2 0.23056443E+03</rscale>
<asrwt>0</asrwt>
<pdfrwt beam="1">  1       21 0.16740365E-01 0.23056443E+03</pdfrwt>
<pdfrwt beam="2">  1       21 0.19907834E+00 0.23056443E+03</pdfrwt>
<totfact> 0.42238757E+03</totfact>
</mgrwt>
</event>
<event>
 4    1  0.1100959E+000  0.1818404E+03  0.7546771E-02  0.1166034E+00
         21   -1    0    0  503  502  0.00000000000E+00  0.00000000000E+00  0.23650540581E+03  0.23650540581E+03  0.00000000000E+00 0.  1.
         21   -1    0    0  501  503 -0.00000000000E+00 -0.00000000000E+00 -0.36420607494E+03  0.36420607494E+03  0.00000000000E+00 0.  1.
          6    1    1    2  501    0 -0.32036565772E+02  0.49553881045E+02 -0.29961001297E+03  0.35047409111E+03  0.17200000000E+03 0.  1.
         -6    1    1    2    0  502  0.32036565772E+02 -0.49553881045E+02  0.17190934384E+03  0.25023738964E+03  0.17200000000E+03 0.  1.
<mgrwt>
<rscale>  2 0.18184039E+03</rscale>
<asrwt>0</asrwt>
<pdfrwt beam="1">  1       21 0.59126352E-01 0.18184039E+03</pdfrwt>
<pdfrwt beam="2">  1       21 0.91051518E-01 0.18184039E+03</pdfrwt>
<totfact> 0.27608266E+03</totfact>
</mgrwt>
</event>
<event>
 4    1  0.1100959E+000  0.2857918E+03  0.7546771E-02  0.1092567E+00
         21   -1    0    0  501  502  0.00000000000E+00  0.00000000000E+00  0.57833073610E+03  0.57833073610E+03  0.00000000000E+00 0. -1.
         21   -1    0    0  502  503 -0.00000000000E+00 -0.00000000000E+00 -0.35485672622E+03  0.35485672622E+03  0.00000000000E+00 0.  1.
          6    1    1    2  501    0 -0.73786138062E+02 -0.21598271500E+03  0.47376440489E+03  0.55328983244E+03  0.17200000000E+03 0. -1.
         -6    1    1    2    0  503  0.73786138062E+02  0.21598271500E+03 -0.25029039501E+03  0.37989762987E+03  0.17200000000E+03 0.  1.
<mgrwt>
<rscale>  2 0.28579176E+03</rscale>
<asrwt>0</asrwt>
<pdfrwt beam="1">  1       21 0.14458268E+00 0.28579176E+03</pdfrwt>
<pdfrwt beam="2">  1       21 0.88714182E-01 0.28579176E+03</pdfrwt>
<totfact> 0.32621384E+02</totfact>
</mgrwt>
</event>
<event>
 4    1  0.1100959E+000  0.2368373E+03  0.7546771E-02  0.1121918E+00
         21   -1    0    0  501  502  0.00000000000E+00  0.00000000000E+00  0.12004406783E+03  0.12004406783E+03  0.00000000000E+00 0.  1.
         21   -1    0    0  502  503 -0.00000000000E+00 -0.00000000000E+00 -0.80510094387E+03  0.80510094387E+03  0.00000000000E+00 0.  1.
          6    1    1    2  501    0  0.16109018059E+03  0.23618716958E+02 -0.42881213744E+02  0.24068794853E+03  0.17200000000E+03 0.  1.
         -6    1    1    2    0  503 -0.16109018059E+03 -0.23618716958E+02 -0.64217566230E+03  0.68445706317E+03  0.17200000000E+03 0.  1.
<mgrwt>
<rscale>  2 0.23683726E+03</rscale>
<asrwt>0</asrwt>
<pdfrwt beam="1">  1       21 0.30011018E-01 0.23683726E+03</pdfrwt>
<pdfrwt beam="2">  1       21 0.20127523E+00 0.23683726E+03</pdfrwt>
<totfact> 0.13422758E+03</totfact>
</mgrwt>
</event>
<event>
 4    1  0.1100959E+000  0.2393785E+03  0.7546771E-02  0.1120208E+00
         21   -1    0    0  503  502  0.00000000000E+00  0.00000000000E+00  0.64896669291E+02  0.64896669291E+02  0.00000000000E+00 0. -1.
         21   -1    0    0  501  503 -0.00000000000E+00 -0.00000000000E+00 -0.88323822838E+03  0.88323822838E+03  0.00000000000E+00 0. -1.
          6    1    1    2  501    0  0.11699821483E+03 -0.11844607012E+03 -0.41737461813E+03  0.48114823668E+03  0.17200000000E+03 0. -1.
         -6    1    1    2    0  502 -0.11699821483E+03  0.11844607012E+03 -0.40096694096E+03  0.46698666099E+03  0.17200000000E+03 0. -1.
<mgrwt>
<rscale>  2 0.23937847E+03</rscale>
<asrwt>0</asrwt>
<pdfrwt beam="1">  1       21 0.16224167E-01 0.23937847E+03</pdfrwt>
<pdfrwt beam="2">  1       21 0.22080956E+00 0.23937847E+03</pdfrwt>
<totfact> 0.32360441E+03</totfact>
</mgrwt>
</event>
<event>
 4    1  0.1100959E+000  0.1902882E+03  0.7546771E-02  0.1158202E+00
         21   -1    0    0  501  502  0.00000000000E+00  0.00000000000E+00  0.33090953320E+03  0.33090953320E+03  0.00000000000E+00 0. -1.
         21   -1    0    0  502  503 -0.00000000000E+00 -0.00000000000E+00 -0.10969472738E+03  0.10969472738E+03  0.00000000000E+00 0. -1.
          6    1    1    2  501    0  0.68855379583E+01  0.81106081178E+02  0.99672920918E+02  0.21481223941E+03  0.17200000000E+03 0. -1.
         -6    1    1    2    0  503 -0.68855379583E+01 -0.81106081178E+02  0.12154188490E+03  0.22579202117E+03  0.17200000000E+03 0. -1.
<mgrwt>
<rscale>  2 0.19028822E+03</rscale>
<asrwt>0</asrwt>
<pdfrwt beam="1">  1       21 0.82727381E-01 0.19028822E+03</pdfrwt>
<pdfrwt beam="2">  1       21 0.27423683E-01 0.19028822E+03</pdfrwt>
<totfact> 0.16191174E+04</totfact>
</mgrwt>
</event>
<event>
 4    1  0.1100959E+000  0.1834999E+03  0.7546771E-02  0.1164458E+00
         21   -1    0    0  503  502  0.00000000000E+00  0.00000000000E+00  0.10649750887E+03  0.10649750887E+03  0.00000000000E+00 0. -1.
         21   -1    0    0  501  503 -0.00000000000E+00 -0.00000000000E+00 -0.31785219824E+03  0.31785219824E+03  0.00000000000E+00 0. -1.
          6    1    1    2  501    0  0.42589641992E+01  0.63797198669E+02 -0.90280864962E+02  0.20450637132E+03  0.17200000000E+03 0. -1.
         -6    1    1    2    0  502 -0.42589641992E+01 -0.63797198669E+02 -0.12107382440E+03  0.21984333579E+03  0.17200000000E+03 0. -1.
<mgrwt>
<rscale>  2 0.18349992E+03</rscale>
<asrwt>0</asrwt>
<pdfrwt beam="1">  1       21 0.26624377E-01 0.18349992E+03</pdfrwt>
<pdfrwt beam="2">  1       21 0.79463049E-01 0.18349992E+03</pdfrwt>
<totfact> 0.18853690E+04</totfact>
</mgrwt>
</event>
<event>
 4    1  0.1100959E+000  0.2004281E+03  0.7546771E-02  0.1149378E+00
         21   -1    0    0  503  502  0.00000000000E+00  0.00000000000E+00  0.21517671616E+03  0.21517671616E+03  0.00000000000E+00 0.  1.
         21   -1    0    0  501  503 -0.00000000000E+00 -0.00000000000E+00 -0.54215414391E+03  0.54215414391E+03  0.00000000000E+00 0. -1.
          6    1    1    2  501    0 -0.97472199856E+02  0.32963406612E+02 -0.47010269560E+03  0.51104594738E+03  0.17200000000E+03 0. -1.
         -6    1    1    2    0  502  0.97472199856E+02 -0.32963406612E+02  0.14312526786E+03  0.24628491269E+03  0.17200000000E+03 0.  1.
<mgrwt>
<rscale>  2 0.20042808E+03</rscale>
<asrwt>0</asrwt>
<pdfrwt beam="1">  1       21 0.53794180E-01 0.20042808E+03</pdfrwt>
<pdfrwt beam="2">  1       21 0.13553853E+00 0.20042808E+03</pdfrwt>
<totfact> 0.12613206E+03</totfact>
</mgrwt>
</event>
<event>
 4    1  0.1100959E+000  0.1786130E+03  0.7546771E-02  0.1169152E+00
         21   -1    0    0  501  502  0.00000000000E+00  0.00000000000E+00  0.40054173597E+03  0.40054173597E+03  0.00000000000E+00 0.  1.
         21   -1    0    0  502  503 -0.00000000000E+00 -0.00000000000E+00 -0.11847557933E+03  0.11847557933E+03  0.00000000000E+00 0.  1.
          6    1    1    2  501    0 -0.55003317856E+00 -0.48148809852E+02  0.28959377488E+03  0.34024574189E+03  0.17200000000E+03 0.  1.
         -6    1    1    2    0  503  0.55003317856E+00  0.48148809852E+02 -0.75276182356E+01  0.17877157342E+03  0.17200000000E+03 0.  1.
<mgrwt>
<rscale>  2 0.17861302E+03</rscale>
<asrwt>0</asrwt>
<pdfrwt beam="1">  1       21 0.10013543E+00 0.17861302E+03</pdfrwt>
<pdfrwt beam="2">  1       21 0.29618896E-01 0.17861302E+03</pdfrwt>
<totfact> 0.90320202E+03</totfact>
</mgrwt>
</event>
<event>
 4    1  0.1100959E+000  0.1799403E+03  0.7546771E-02  0.1167861E+00
         21   -1    0    0  503  502  0.00000000000E+00  0.00000000000E+00  0.13436560024E+03  0.13436560024E+03  0.00000000000E+00 0.  1.
         21   -1    0    0  501  503 -0.00000000000E+00 -0.00000000000E+00 -0.25164409376E+03  0.25164409376E+03  0.00000000000E+00 0.  1.
          6    1    1    2  501    0 -0.33939026586E+02 -0.40529748873E+02 -0.18895041444E+02  0.18092965666E+03  0.17200000000E+03 0.  1.
         -6    1    1    2    0  502  0.33939026586E+02  0.40529748873E+02 -0.98383452080E+02  0.20508003733E+03  0.17200000000E+03 0.  1.
<mgrwt>
<rscale>  2 0.17994032E+03</rscale>
<asrwt>0</asrwt>
<pdfrwt beam="1">  1       21 0.33591400E-01 0.17994032E+03</pdfrwt>
<pdfrwt beam="2">  1       21 0.62911023E-01 0.17994032E+03</pdfrwt>
<totfact> 0.20123744E+04</totfact>
</mgrwt>
</event>
<event>
 4    1  0.1100959E+000  0.1803811E+03  0.7546771E-02  0.1167435E+00
         21   -1    0    0  501  502  0.00000000000E+00  0.00000000000E+00  0.89399174337E+03  0.89399174337E+03  0.00000000000E+00 0.  1.
         21   -1    0    0  502  503 -0.00000000000E+00 -0.00000000000E+00 -0.38606948317E+02  0.38606948317E+02  0.00000000000E+00 0.  1.
          6    1    1    2  501    0  0.51294300061E+02 -0.17950598738E+02  0.31609227388E+03  0.36393908120E+03  0.17200000000E+03 0. -1.
         -6    1    1    2    0  503 -0.51294300061E+02  0.17950598738E+02  0.53929252117E+03  0.56865961049E+03  0.17200000000E+03 0. -1.
<mgrwt>
<rscale>  2 0.18038107E+03</rscale>
<asrwt>0</asrwt>
<pdfrwt beam="1">  1       21 0.22349787E+00 0.18038107E+03</pdfrwt>
<pdfrwt beam="2">  1       21 0.96517400E-02 0.18038107E+03</pdfrwt>
<totfact> 0.83677156E+03</totfact>
</mgrwt>
</event>
<event>
 4    1  0.1100959E+000  0.2143002E+03  0.7546771E-02  0.1138205E+00
         21   -1    0    0  501  502  0.00000000000E+00  0.00000000000E+00  0.51638003574E+03  0.51638003574E+03  0.00000000000E+00 0.  1.
         21   -1    0    0  502  503 -0.00000000000E+00 -0.00000000000E+00 -0.88985004169E+02  0.88985004169E+02  0.00000000000E+00 0.  1.
          6    1    1    2  501    0  0.11105308179E+03 -0.63307215248E+02  0.20656862569E+03  0.29764943742E+03  0.17200000000E+03 0.  1.
         -6    1    1    2    0  503 -0.11105308179E+03  0.63307215248E+02  0.22082640588E+03  0.30771560248E+03  0.17200000000E+03 0.  1.
<mgrwt>
<rscale>  2 0.21430023E+03</rscale>
<asrwt>0</asrwt>
<pdfrwt beam="1">  1       21 0.12909500E+00 0.21430023E+03</pdfrwt>
<pdfrwt beam="2">  1       21 0.22246253E-01 0.21430023E+03</pdfrwt>
<totfact> 0.81838206E+03</totfact>
</mgrwt>
</event>
<event>
 4    1  0.1100959E+000  0.1736173E+03  0.7546771E-02  0.1174127E+00
         21   -1    0    0  501  502  0.00000000000E+00  0.00000000000E+00  0.75080549237E+02  0.75080549237E+02  0.00000000000E+00 0. -1.
         21   -1    0    0  502  503 -0.00000000000E+00 -0.00000000000E+00 -0.60116249253E+03  0.60116249253E+03  0.00000000000E+00 0. -1.
          6    1    1    2  501    0 -0.51991676183E+01  0.23063853239E+02 -0.68167745677E+02  0.18652027831E+03  0.17200000000E+03 0. -1.
         -6    1    1    2    0  503  0.51991676183E+01 -0.23063853239E+02 -0.45791419762E+03  0.48972276346E+03  0.17200000000E+03 0. -1.
<mgrwt>
<rscale>  2 0.17361732E+03</rscale>
<asrwt>0</asrwt>
<pdfrwt beam="1">  1       21 0.18770137E-01 0.17361732E+03</pdfrwt>
<pdfrwt beam="2">  1       21 0.15029062E+00 0.17361732E+03</pdfrwt>
<totfact> 0.78461554E+03</totfact>
</mgrwt>
</event>
<event>
 4    1  0.1100959E+000  0.2169569E+03  0.7546771E-02  0.1136172E+00
         21   -1    0    0  503  502  0.00000000000E+00  0.00000000000E+00  0.22539770002E+03  0.22539770002E+03  0.00000000000E+00 0. -1.
         21   -1    0    0  501  503 -0.00000000000E+00 -0.00000000000E+00 -0.47051083499E+03  0.47051083499E+03  0.00000000000E+00 0. -1.
          6    1    1    2  501    0  0.12141377965E+03 -0.52392814913E+02 -0.38204704731E+03  0.43935209036E+03  0.17200000000E+03 0. -1.
         -6    1    1    2    0  502 -0.12141377965E+03  0.52392814913E+02  0.13693391234E+03  0.25655644465E+03  0.17200000000E+03 0. -1.
<mgrwt>
<rscale>  2 0.21695694E+03</rscale>
<asrwt>0</asrwt>
<pdfrwt beam="1">  1       21 0.56349426E-01 0.21695694E+03</pdfrwt>
<pdfrwt beam="2">  1       21 0.11762771E+00 0.21695694E+03</pdfrwt>
<totfact> 0.16075190E+03</totfact>
</mgrwt>
</event>
<event>
 4    1  0.1100959E+000  0.2122602E+03  0.7546771E-02  0.1139789E+00
         21   -1    0    0  503  502  0.00000000000E+00  0.00000000000E+00  0.64922395017E+03  0.64922395017E+03  0.00000000000E+00 0. -1.
         21   -1    0    0  501  503 -0.00000000000E+00 -0.00000000000E+00 -0.12050369047E+03  0.12050369047E+03  0.00000000000E+00 0.  1.
          6    1    1    2  501    0 -0.27015193446E+02  0.12141080671E+03  0.13723572743E+02  0.21270341114E+03  0.17200000000E+03 0.  1.
         -6    1    1    2    0  502  0.27015193446E+02 -0.12141080671E+03  0.51499668696E+03  0.55702422949E+03  0.17200000000E+03 0. -1.
<mgrwt>
<rscale>  2 0.21226023E+03</rscale>
<asrwt>0</asrwt>
<pdfrwt beam="1">  1       21 0.16230598E+00 0.21226023E+03</pdfrwt>
<pdfrwt beam="2">  1       21 0.30125924E-01 0.21226023E+03</pdfrwt>
<totfact> 0.25135301E+03</totfact>
</mgrwt>
</event>
<event>
 4    1  0.1100959E+000  0.1722966E+03  0.7546771E-02  0.1175474E+00
         21   -1    0    0  501  502  0.00000000000E+00  0.00000000000E+00  0.73538416114E+03  0.73538416114E+03  0.00000000000E+00 0. -1.
         21   -1    0    0  502  503 -0.00000000000E+00 -0.00000000000E+00 -0.52735594289E+02  0.52735594289E+02  0.00000000000E+00 0. -1.
          6    1    1    2  501    0 -0.10085849499E+02  0.62025331078E+00  0.53215576227E+03  0.55935307668E+03  0.17200000000E+03 0.  1.
         -6    1    1    2    0  503  0.10085849499E+02 -0.62025331078E+00  0.15049280458E+03  0.22876667874E+03  0.17200000000E+03 0.  1.
<mgrwt>
<rscale>  2 0.17229657E+03</rscale>
<asrwt>0</asrwt>
<pdfrwt beam="1">  1       21 0.18384601E+00 0.17229657E+03</pdfrwt>
<pdfrwt beam="2">  1       21 0.13183901E-01 0.17229657E+03</pdfrwt>
<totfact> 0.86441063E+03</totfact>
</mgrwt>
</event>
<event>
 4    1  0.1100959E+000  0.2035433E+03  0.7546771E-02  0.1146784E+00
         21   -1    0    0  503  502  0.00000000000E+00  0.00000000000E+00  0.40977730990E+03  0.40977730990E+03  0.00000000000E+00 0. -1.
         21   -1    0    0  501  503 -0.00000000000E+00 -0.00000000000E+00 -0.10452479151E+03  0.10452479151E+03  0.00000000000E+00 0. -1.
          6    1    1    2  501    0  0.83776971973E+02 -0.69478623674E+02  0.19915089603E+03  0.28476470914E+03  0.17200000000E+03 0. -1.
         -6    1    1    2    0  502 -0.83776971973E+02  0.69478623674E+02  0.10610162236E+03  0.22953739226E+03  0.17200000000E+03 0. -1.
<mgrwt>
<rscale>  2 0.20354326E+03</rscale>
<asrwt>0</asrwt>
<pdfrwt beam="1">  1       21 0.10244432E+00 0.20354326E+03</pdfrwt>
<pdfrwt beam="2">  1       21 0.26131199E-01 0.20354326E+03</pdfrwt>
<totfact> 0.10704456E+04</totfact>
</mgrwt>
</event>
<event>
 4    1  0.1100959E+000  0.2235477E+03  0.7546771E-02  0.1131265E+00
         21   -1    0    0  503  502  0.00000000000E+00  0.00000000000E+00  0.17014273191E+03  0.17014273191E+03  0.00000000000E+00 0.  1.
         21   -1    0    0  501  503 -0.00000000000E+00 -0.00000000000E+00 -0.33427912931E+03  0.33427912931E+03  0.00000000000E+00 0. -1.
          6    1    1    2  501    0 -0.90970869918E+02 -0.11006305209E+03  0.57889571694E+01  0.22362264338E+03  0.17200000000E+03 0.  1.
         -6    1    1    2    0  502  0.90970869918E+02  0.11006305209E+03 -0.16992535457E+03  0.28079921783E+03  0.17200000000E+03 0.  1.
<mgrwt>
<rscale>  2 0.22354770E+03</rscale>
<asrwt>0</asrwt>
<pdfrwt beam="1">  1       21 0.42535683E-01 0.22354770E+03</pdfrwt>
<pdfrwt beam="2">  1       21 0.83569782E-01 0.22354770E+03</pdfrwt>
<totfact> 0.64776723E+03</totfact>
</mgrwt>
</event>
<event>
 4    1  0.1100959E+000  0.1941141E+03  0.7546771E-02  0.1154802E+00
         21   -1    0    0  503  502  0.00000000000E+00  0.00000000000E+00  0.68116905513E+02  0.68116905513E+02  0.00000000000E+00 0.  1.
         21   -1    0    0  501  503 -0.00000000000E+00 -0.00000000000E+00 -0.70409177668E+03  0.70409177668E+03  0.00000000000E+00 0. -1.
          6    1    1    2  501    0  0.70401437677E+02 -0.56034932265E+02 -0.49674523558E+03  0.53332551517E+03  0.17200000000E+03 0.  1.
         -6    1    1    2    0  502 -0.70401437677E+02  0.56034932265E+02 -0.13922963559E+03  0.23888316702E+03  0.17200000000E+03 0.  1.
<mgrwt>
<rscale>  2 0.19411408E+03</rscale>
<asrwt>0</asrwt>
<pdfrwt beam="1">  1       21 0.17029226E-01 0.19411408E+03</pdfrwt>
<pdfrwt beam="2">  1       21 0.17602295E+00 0.19411408E+03</pdfrwt>
<totfact> 0.60177658E+03</totfact>
</mgrwt>
</event>
<event>
 4    1  0.1100959E+000  0.2195881E+03  0.7546771E-02  0.1134190E+00
         21   -1    0    0  503  502  0.00000000000E+00  0.00000000000E+00  0.16460543373E+04  0.16460543373E+04  0.00000000000E+00 0. -1.
         21   -1    0    0  501  503 -0.00000000000E+00 -0.00000000000E+00 -0.29935656726E+02  0.29935656726E+02  0.00000000000E+00 0. -1.
          6    1    1    2  501    0 -0.13650289497E+03  0.13786723679E+01  0.68533900744E+03  0.71965859697E+03  0.17200000000E+03 0. -1.
         -6    1    1    2    0  502  0.13650289497E+03 -0.13786723679E+01  0.93077967309E+03  0.95633139702E+03  0.17200000000E+03 0. -1.
<mgrwt>
<rscale>  2 0.21958812E+03</rscale>
<asrwt>0</asrwt>
<pdfrwt beam="1">  1       21 0.41151328E+00 0.21958812E+03</pdfrwt>
<pdfrwt beam="2">  1       21 0.74839197E-02 0.21958812E+03</pdfrwt>
<totfact> 0.95570384E+02</totfact>
</mgrwt>
</event>
<event>
 4    1  0.1100959E+000  0.2390882E+03  0.7546771E-02  0.1120402E+00
         21   -1    0    0  503  502  0.00000000000E+00  0.00000000000E+00  0.14297121965E+04  0.14297121965E+04  0.00000000000E+00 0. -1.
         21   -1    0    0  501  503 -0.00000000000E+00 -0.00000000000E+00 -0.13486091426E+03  0.13486091426E+03  0.00000000000E+00 0.  1.
          6    1    1    2  501    0 -0.38338917340E+01  0.16602547033E+03 -0.87302395080E+01  0.23924751327E+03  0.17200000000E+03 0.  1.
         -6    1    1    2    0  502  0.38338917340E+01 -0.16602547033E+03  0.13035815217E+04  0.13253255974E+04  0.17200000000E+03 0. -1.
<mgrwt>
<rscale>  2 0.23908818E+03</rscale>
<asrwt>0</asrwt>
<pdfrwt beam="1">  1       21 0.35742800E+00 0.23908818E+03</pdfrwt>
<pdfrwt beam="2">  1       21 0.33715233E-01 0.23908818E+03</pdfrwt>
<totfact> 0.12457522E+02</totfact>
</mgrwt>
</event>
<event>
 4    1  0.1100959E+000  0.2197381E+03  0.7546771E-02  0.1134078E+00
         21   -1    0    0  501  502  0.00000000000E+00  0.00000000000E+00  0.93147213706E+03  0.93147213706E+03  0.00000000000E+00 0. -1.
         21   -1    0    0  502  503 -0.00000000000E+00 -0.00000000000E+00 -0.18338357519E+03  0.18338357519E+03  0.00000000000E+00 0.  1.
          6    1    1    2  501    0 -0.11145453555E+03  0.79238230729E+02  0.84615956928E+03  0.87422584461E+03  0.17200000000E+03 0. -1.
         -6    1    1    2    0  503  0.11145453555E+03 -0.79238230729E+02 -0.98071007417E+02  0.24062986764E+03  0.17200000000E+03 0.  1.
<mgrwt>
<rscale>  2 0.21973805E+03</rscale>
<asrwt>0</asrwt>
<pdfrwt beam="1">  1       21 0.23286802E+00 0.21973805E+03</pdfrwt>
<pdfrwt beam="2">  1       21 0.45845896E-01 0.21973805E+03</pdfrwt>
<totfact> 0.37050398E+02</totfact>
</mgrwt>
</event>
<event>
 4    1  0.1100959E+000  0.1883652E+03  0.7546771E-02  0.1159944E+00
         21   -1    0    0  503  502  0.00000000000E+00  0.00000000000E+00  0.87795681795E+02  0.87795681795E+02  0.00000000000E+00 0.  1.
         21   -1    0    0  501  503 -0.00000000000E+00 -0.00000000000E+00 -0.62366392591E+03  0.62366392591E+03  0.00000000000E+00 0.  1.
          6    1    1    2  501    0  0.52243842824E+02  0.56285214487E+02 -0.47898602767E+03  0.51469316994E+03  0.17200000000E+03 0.  1.
         -6    1    1    2    0  502 -0.52243842824E+02 -0.56285214487E+02 -0.56882216448E+02  0.19676643777E+03  0.17200000000E+03 0.  1.
<mgrwt>
<rscale>  2 0.18836519E+03</rscale>
<asrwt>0</asrwt>
<pdfrwt beam="1">  1       21 0.21948921E-01 0.18836519E+03</pdfrwt>
<pdfrwt beam="2">  1       21 0.15591598E+00 0.18836519E+03</pdfrwt>
<totfact> 0.52499376E+03</totfact>
</mgrwt>
</event>
<event>
 4    1  0.1100959E+000  0.1976397E+03  0.7546771E-02  0.1151746E+00
         21   -1    0    0  503  502  0.00000000000E+00  0.00000000000E+00  0.29896018294E+02  0.29896018294E+02  0.00000000000E+00 0.  1.
         21   -1    0    0  501  503 -0.00000000000E+00 -0.00000000000E+00 -0.13183576268E+04  0.13183576268E+04  0.00000000000E+00 0.  1.
          6    1    1    2  501    0 -0.93468441820E+02  0.27223529233E+02 -0.58050773389E+03  0.61322972797E+03  0.17200000000E+03 0.  1.
         -6    1    1    2    0  502  0.93468441820E+02 -0.27223529233E+02 -0.70795387459E+03  0.73502391710E+03  0.17200000000E+03 0.  1.
<mgrwt>
<rscale>  2 0.19763975E+03</rscale>
<asrwt>0</asrwt>
<pdfrwt beam="1">  1       21 0.74740047E-02 0.19763975E+03</pdfrwt>
<pdfrwt beam="2">  1       21 0.32958940E+00 0.19763975E+03</pdfrwt>
<totfact> 0.30901110E+03</totfact>
</mgrwt>
</event>
<event>
 4    1  0.1100959E+000  0.2123762E+03  0.7546771E-02  0.1139698E+00
         21   -1    0    0  503  502  0.00000000000E+00  0.00000000000E+00  0.52396644796E+03  0.52396644796E+03  0.00000000000E+00 0.  1.
         21   -1    0    0  501  503 -0.00000000000E+00 -0.00000000000E+00 -0.11134571461E+03  0.11134571461E+03  0.00000000000E+00 0.  1.
          6    1    1    2  501    0  0.68604571680E+02  0.10398579507E+03  0.54997327104E+02  0.21938171943E+03  0.17200000000E+03 0.  1.
         -6    1    1    2    0  502 -0.68604571680E+02 -0.10398579507E+03  0.35762340625E+03  0.41593044314E+03  0.17200000000E+03 0.  1.
<mgrwt>
<rscale>  2 0.21237616E+03</rscale>
<asrwt>0</asrwt>
<pdfrwt beam="1">  1       21 0.13099161E+00 0.21237616E+03</pdfrwt>
<pdfrwt beam="2">  1       21 0.27836430E-01 0.21237616E+03</pdfrwt>
<totfact> 0.51435261E+03</totfact>
</mgrwt>
</event>
<event>
 4    1  0.1100959E+000  0.3302139E+03  0.7546771E-02  0.1071042E+00
         21   -1    0    0  501  502  0.00000000000E+00  0.00000000000E+00  0.18950242728E+03  0.18950242728E+03  0.00000000000E+00 0.  1.
         21   -1    0    0  502  503 -0.00000000000E+00 -0.00000000000E+00 -0.67763047248E+03  0.67763047248E+03  0.00000000000E+00 0. -1.
          6    1    1    2  501    0  0.26175258057E+03  0.10460792319E+03 -0.41246018474E+03  0.52836032688E+03  0.17200000000E+03 0. -1.
         -6    1    1    2    0  503 -0.26175258057E+03 -0.10460792319E+03 -0.75667860458E+02  0.33877257288E+03  0.17200000000E+03 0.  1.
<mgrwt>
<rscale>  2 0.33021392E+03</rscale>
<asrwt>0</asrwt>
<pdfrwt beam="1">  1       21 0.47375607E-01 0.33021392E+03</pdfrwt>
<pdfrwt beam="2">  1       21 0.16940762E+00 0.33021392E+03</pdfrwt>
<totfact> 0.81888988E+02</totfact>
</mgrwt>
</event>
<event>
 4    1  0.1100959E+000  0.1844616E+03  0.7546771E-02  0.1163554E+00
         21   -1    0    0  503  502  0.00000000000E+00  0.00000000000E+00  0.19385219128E+03  0.19385219128E+03  0.00000000000E+00 0.  1.
         21   -1    0    0  501  503 -0.00000000000E+00 -0.00000000000E+00 -0.34641201285E+03  0.34641201285E+03  0.00000000000E+00 0. -1.
          6    1    1    2  501    0 -0.38927376760E+02 -0.54099253718E+02 -0.26600867586E+03  0.32370771623E+03  0.17200000000E+03 0. -1.
         -6    1    1    2    0  502  0.38927376760E+02  0.54099253718E+02  0.11344885429E+03  0.21655648790E+03  0.17200000000E+03 0.  1.
<mgrwt>
<rscale>  2 0.18446157E+03</rscale>
<asrwt>0</asrwt>
<pdfrwt beam="1">  1       21 0.48463048E-01 0.18446157E+03</pdfrwt>
<pdfrwt beam="2">  1       21 0.86603002E-01 0.18446157E+03</pdfrwt>
<totfact> 0.46987226E+03</totfact>
</mgrwt>
</event>
<event>
 4    1  0.1100959E+000  0.2847738E+03  0.7546771E-02  0.1093110E+00
         21   -1    0    0  501  502  0.00000000000E+00  0.00000000000E+00  0.16683264869E+03  0.16683264869E+03  0.00000000000E+00 0.  1.
         21   -1    0    0  502  503 -0.00000000000E+00 -0.00000000000E+00 -0.69592813273E+03  0.69592813273E+03  0.00000000000E+00 0.  1.
          6    1    1    2  501    0 -0.86950503411E+02 -0.20964673322E+03 -0.27673655567E+02  0.28611531593E+03  0.17200000000E+03 0.  1.
         -6    1    1    2    0  503  0.86950503411E+02  0.20964673322E+03 -0.50142182848E+03  0.57664546549E+03  0.17200000000E+03 0.  1.
<mgrwt>
<rscale>  2 0.28477384E+03</rscale>
<asrwt>0</asrwt>
<pdfrwt beam="1">  1       21 0.41708163E-01 0.28477384E+03</pdfrwt>
<pdfrwt beam="2">  1       21 0.17398203E+00 0.28477384E+03</pdfrwt>
<totfact> 0.10202873E+03</totfact>
</mgrwt>
</event>
<event>
 4    1  0.1100959E+000  0.2238176E+03  0.7546771E-02  0.1131068E+00
         21   -1    0    0  503  502  0.00000000000E+00  0.00000000000E+00  0.29744798824E+03  0.29744798824E+03  0.00000000000E+00 0.  1.
         21   -1    0    0  501  503 -0.00000000000E+00 -0.00000000000E+00 -0.18986979611E+03  0.18986979611E+03  0.00000000000E+00 0. -1.
          6    1    1    2  501    0  0.38072099780E+02  0.13806100216E+03 -0.28119479888E+02  0.22557710488E+03  0.17200000000E+03 0. -1.
         -6    1    1    2    0  502 -0.38072099780E+02 -0.13806100216E+03  0.13569767202E+03  0.26174067947E+03  0.17200000000E+03 0.  1.
<mgrwt>
<rscale>  2 0.22381762E+03</rscale>
<asrwt>0</asrwt>
<pdfrwt beam="1">  1       21 0.74361997E-01 0.22381762E+03</pdfrwt>
<pdfrwt beam="2">  1       21 0.47467449E-01 0.22381762E+03</pdfrwt>
<totfact> 0.67280791E+03</totfact>
</mgrwt>
</event>
<event>
 4    1  0.1100959E+000  0.2457665E+03  0.7546771E-02  0.1116010E+00
         21   -1    0    0  503  502  0.00000000000E+00  0.00000000000E+00  0.37302973459E+03  0.37302973459E+03  0.00000000000E+00 0.  1.
         21   -1    0    0  501  503 -0.00000000000E+00 -0.00000000000E+00 -0.85801989507E+03  0.85801989507E+03  0.00000000000E+00 0.  1.
          6    1    1    2  501    0 -0.14470519976E+03  0.99386122393E+02 -0.79690690691E+03  0.83394353193E+03  0.17200000000E+03 0.  1.
         -6    1    1    2    0  502  0.14470519976E+03 -0.99386122393E+02  0.31191674643E+03  0.39710609774E+03  0.17200000000E+03 0.  1.
<mgrwt>
<rscale>  2 0.24576655E+03</rscale>
<asrwt>0</asrwt>
<pdfrwt beam="1">  1       21 0.93257435E-01 0.24576655E+03</pdfrwt>
<pdfrwt beam="2">  1       21 0.21450497E+00 0.24576655E+03</pdfrwt>
<totfact> 0.98159693E+01</totfact>
</mgrwt>
</event>
<event>
 4    1  0.1100959E+000  0.1785690E+03  0.7546771E-02  0.1169195E+00
         21   -1    0    0  501  502  0.00000000000E+00  0.00000000000E+00  0.19637797000E+03  0.19637797000E+03  0.00000000000E+00 0. -1.
         21   -1    0    0  502  503 -0.00000000000E+00 -0.00000000000E+00 -0.21029324176E+03  0.21029324176E+03  0.00000000000E+00 0. -1.
          6    1    1    2  501    0  0.44665009778E+02 -0.17547400909E+02 -0.10402007011E+03  0.20665683962E+03  0.17200000000E+03 0. -1.
         -6    1    1    2    0  503 -0.44665009778E+02  0.17547400909E+02  0.90104798346E+02  0.20001437214E+03  0.17200000000E+03 0. -1.
<mgrwt>
<rscale>  2 0.17856896E+03</rscale>
<asrwt>0</asrwt>
<pdfrwt beam="1">  1       21 0.49094493E-01 0.17856896E+03</pdfrwt>
<pdfrwt beam="2">  1       21 0.52573310E-01 0.17856896E+03</pdfrwt>
<totfact> 0.13703731E+04</totfact>
</mgrwt>
</event>
<event>
 4    1  0.1100959E+000  0.2095249E+03  0.7546771E-02  0.1141943E+00
         21   -1    0    0  503  502  0.00000000000E+00  0.00000000000E+00  0.65694466756E+02  0.65694466756E+02  0.00000000000E+00 0. -1.
         21   -1    0    0  501  503 -0.00000000000E+00 -0.00000000000E+00 -0.67803429226E+03  0.67803429226E+03  0.00000000000E+00 0.  1.
          6    1    1    2  501    0  0.81280815350E+02 -0.87807166890E+02 -0.26151102943E+03  0.33509504326E+03  0.17200000000E+03 0.  1.
         -6    1    1    2    0  502 -0.81280815350E+02  0.87807166890E+02 -0.35082879607E+03  0.40863371575E+03  0.17200000000E+03 0.  1.
<mgrwt>
<rscale>  2 0.20952487E+03</rscale>
<asrwt>0</asrwt>
<pdfrwt beam="1">  1       21 0.16423617E-01 0.20952487E+03</pdfrwt>
<pdfrwt beam="2">  1       21 0.16950857E+00 0.20952487E+03</pdfrwt>
<totfact> 0.70513591E+03</totfact>
</mgrwt>
</event>
<event>
 4    1  0.1100959E+000  0.2034335E+03  0.7546771E-02  0.1146874E+00
         21   -1    0    0  503  502  0.00000000000E+00  0.00000000000E+00  0.53749408231E+03  0.53749408231E+03  0.00000000000E+00 0. -1.
         21   -1    0    0  501  503 -0.00000000000E+00 -0.00000000000E+00 -0.77681048843E+02  0.77681048843E+02  0.00000000000E+00 0.  1.
          6    1    1    2  501    0  0.10370602223E+03 -0.32345517234E+02  0.25878061853E+03  0.32916953088E+03  0.17200000000E+03 0.  1.
         -6    1    1    2    0  502 -0.10370602223E+03  0.32345517234E+02  0.20103241494E+03  0.28600560028E+03  0.17200000000E+03 0. -1.
<mgrwt>
<rscale>  2 0.20343346E+03</rscale>
<asrwt>0</asrwt>
<pdfrwt beam="1">  1       21 0.13437351E+00 0.20343346E+03</pdfrwt>
<pdfrwt beam="2">  1       21 0.19420264E-01 0.20343346E+03</pdfrwt>
<totfact> 0.96162955E+03</totfact>
</mgrwt>
</event>
<event>
 4    1  0.1100959E+000  0.1925307E+03  0.7546771E-02  0.1156198E+00
         21   -1    0    0  503  502  0.00000000000E+00  0.00000000000E+00  0.64192579120E+02  0.64192579120E+02  0.00000000000E+00 0. -1.
         21   -1    0    0  501  503 -0.00000000000E+00 -0.00000000000E+00 -0.62054292251E+03  0.62054292251E+03  0.00000000000E+00 0. -1.
          6    1    1    2  501    0 -0.73312408205E+01  0.86199332453E+02 -0.36839554835E+03  0.41567216896E+03  0.17200000000E+03 0. -1.
         -6    1    1    2    0  502  0.73312408205E+01 -0.86199332453E+02 -0.18795479504E+03  0.26906333267E+03  0.17200000000E+03 0. -1.
<mgrwt>
<rscale>  2 0.19253070E+03</rscale>
<asrwt>0</asrwt>
<pdfrwt beam="1">  1       21 0.16048145E-01 0.19253070E+03</pdfrwt>
<pdfrwt beam="2">  1       21 0.15513573E+00 0.19253070E+03</pdfrwt>
<totfact> 0.94833259E+03</totfact>
</mgrwt>
</event>
<event>
 4    1  0.1100959E+000  0.1855038E+03  0.7546771E-02  0.1162580E+00
         21   -1    0    0  501  502  0.00000000000E+00  0.00000000000E+00  0.27854857496E+03  0.27854857496E+03  0.00000000000E+00 0. -1.
         21   -1    0    0  502  503 -0.00000000000E+00 -0.00000000000E+00 -0.12783885194E+03  0.12783885194E+03  0.00000000000E+00 0. -1.
          6    1    1    2  501    0 -0.39723809936E+02 -0.57005854890E+02  0.11261968170E+03  0.21701345874E+03  0.17200000000E+03 0. -1.
         -6    1    1    2    0  503  0.39723809936E+02  0.57005854890E+02  0.38090041322E+02  0.18937396816E+03  0.17200000000E+03 0. -1.
<mgrwt>
<rscale>  2 0.18550377E+03</rscale>
<asrwt>0</asrwt>
<pdfrwt beam="1">  1       21 0.69637143E-01 0.18550377E+03</pdfrwt>
<pdfrwt beam="2">  1       21 0.31959713E-01 0.18550377E+03</pdfrwt>
<totfact> 0.17724534E+04</totfact>
</mgrwt>
</event>
<event>
 4    1  0.1100959E+000  0.1732526E+03  0.7546771E-02  0.1174498E+00
         21   -1    0    0  503  502  0.00000000000E+00  0.00000000000E+00  0.29632854643E+02  0.29632854643E+02  0.00000000000E+00 0.  1.
         21   -1    0    0  501  503 -0.00000000000E+00 -0.00000000000E+00 -0.11937643887E+04  0.11937643887E+04  0.00000000000E+00 0.  1.
          6    1    1    2  501    0  0.14414094633E+02  0.14990194943E+02 -0.34399839651E+03  0.38516408045E+03  0.17200000000E+03 0. -1.
         -6    1    1    2    0  502 -0.14414094633E+02 -0.14990194943E+02 -0.82013313759E+03  0.83823316293E+03  0.17200000000E+03 0. -1.
<mgrwt>
<rscale>  2 0.17325262E+03</rscale>
<asrwt>0</asrwt>
<pdfrwt beam="1">  1       21 0.74082140E-02 0.17325262E+03</pdfrwt>
<pdfrwt beam="2">  1       21 0.29844108E+00 0.17325262E+03</pdfrwt>
<totfact> 0.48929940E+03</totfact>
</mgrwt>
</event>
<event>
 4    1  0.1100959E+000  0.1815657E+03  0.7546771E-02  0.1166296E+00
         21   -1    0    0  503  502  0.00000000000E+00  0.00000000000E+00  0.38599580524E+03  0.38599580524E+03  0.00000000000E+00 0. -1.
         21   -1    0    0  501  503 -0.00000000000E+00 -0.00000000000E+00 -0.85774234997E+02  0.85774234997E+02  0.00000000000E+00 0. -1.
          6    1    1    2  501    0  0.10852535160E+02 -0.57134191235E+02  0.13464086594E+03  0.22604038601E+03  0.17200000000E+03 0. -1.
         -6    1    1    2    0  502 -0.10852535160E+02  0.57134191235E+02  0.16558070431E+03  0.24572965423E+03  0.17200000000E+03 0. -1.
<mgrwt>
<rscale>  2 0.18156567E+03</rscale>
<asrwt>0</asrwt>
<pdfrwt beam="1">  1       21 0.96498947E-01 0.18156567E+03</pdfrwt>
<pdfrwt beam="2">  1       21 0.21443560E-01 0.18156567E+03</pdfrwt>
<totfact> 0.18214674E+04</totfact>
</mgrwt>
</event>
<event>
 4    1  0.1100959E+000  0.1797964E+03  0.7546771E-02  0.1168000E+00
         21   -1    0    0  501  502  0.00000000000E+00  0.00000000000E+00  0.39411821568E+03  0.39411821568E+03  0.00000000000E+00 0.  1.
         21   -1    0    0  502  503 -0.00000000000E+00 -0.00000000000E+00 -0.17759351073E+03  0.17759351073E+03  0.00000000000E+00 0.  1.
          6    1    1    2  501    0 -0.51066113624E+02  0.11619581515E+02  0.31796093133E+03  0.36527512438E+03  0.17200000000E+03 0.  1.
         -6    1    1    2    0  503  0.51066113624E+02 -0.11619581515E+02 -0.10143622639E+03  0.20643660203E+03  0.17200000000E+03 0.  1.
<mgrwt>
<rscale>  2 0.17979645E+03</rscale>
<asrwt>0</asrwt>
<pdfrwt beam="1">  1       21 0.98529552E-01 0.17979645E+03</pdfrwt>
<pdfrwt beam="2">  1       21 0.44398378E-01 0.17979645E+03</pdfrwt>
<totfact> 0.41861884E+03</totfact>
</mgrwt>
</event>
<event>
 4    1  0.1100959E+000  0.1898990E+03  0.7546771E-02  0.1158552E+00
         21   -1    0    0  501  502  0.00000000000E+00  0.00000000000E+00  0.22664247937E+03  0.22664247937E+03  0.00000000000E+00 0. -1.
         21   -1    0    0  502  503 -0.00000000000E+00 -0.00000000000E+00 -0.15916946905E+03  0.15916946905E+03  0.00000000000E+00 0. -1.
          6    1    1    2  501    0  0.55070921223E+02 -0.58692617885E+02  0.37389092519E+02  0.19354475968E+03  0.17200000000E+03 0.  1.
         -6    1    1    2    0  503 -0.55070921223E+02  0.58692617885E+02  0.30083917797E+02  0.19226718875E+03  0.17200000000E+03 0.  1.
<mgrwt>
<rscale>  2 0.18989900E+03</rscale>
<asrwt>0</asrwt>
<pdfrwt beam="1">  1       21 0.56660620E-01 0.18989900E+03</pdfrwt>
<pdfrwt beam="2">  1       21 0.39792367E-01 0.18989900E+03</pdfrwt>
<totfact> 0.17856552E+04</totfact>
</mgrwt>
</event>
<event>
 4    1  0.1100959E+000  0.2718437E+03  0.7546771E-02  0.1100229E+00
         21   -1    0    0  503  502  0.00000000000E+00  0.00000000000E+00  0.21977063715E+03  0.21977063715E+03  0.00000000000E+00 0. -1.
         21   -1    0    0  501  503 -0.00000000000E+00 -0.00000000000E+00 -0.34288195739E+03  0.34288195739E+03  0.00000000000E+00 0.  1.
          6    1    1    2  501    0 -0.17157771246E+03  0.12196762377E+03 -0.10066581866E+03  0.28988380380E+03  0.17200000000E+03 0.  1.
         -6    1    1    2    0  502  0.17157771246E+03 -0.12196762377E+03 -0.22445501584E+02  0.27276879074E+03  0.17200000000E+03 0. -1.
<mgrwt>
<rscale>  2 0.27184373E+03</rscale>
<asrwt>0</asrwt>
<pdfrwt beam="1">  1       21 0.54942660E-01 0.27184373E+03</pdfrwt>
<pdfrwt beam="2">  1       21 0.85720489E-01 0.27184373E+03</pdfrwt>
<totfact> 0.34723731E+03</totfact>
</mgrwt>
</event>
<event>
 4    1  0.1100959E+000  0.2033254E+03  0.7546771E-02  0.1146963E+00
         21   -1    0    0  501  502  0.00000000000E+00  0.00000000000E+00  0.49594560585E+03  0.49594560585E+03  0.00000000000E+00 0. -1.
         21   -1    0    0  502  503 -0.00000000000E+00 -0.00000000000E+00 -0.10406980004E+03  0.10406980004E+03  0.00000000000E+00 0. -1.
          6    1    1    2  501    0  0.10813291219E+03 -0.80309644740E+01  0.32977452492E+03  0.38741768206E+03  0.17200000000E+03 0. -1.
         -6    1    1    2    0  503 -0.10813291219E+03  0.80309644740E+01  0.62101280891E+02  0.21259772383E+03  0.17200000000E+03 0. -1.
<mgrwt>
<rscale>  2 0.20332541E+03</rscale>
<asrwt>0</asrwt>
<pdfrwt beam="1">  1       21 0.12398640E+00 0.20332541E+03</pdfrwt>
<pdfrwt beam="2">  1       21 0.26017451E-01 0.20332541E+03</pdfrwt>
<totfact> 0.67761572E+03</totfact>
</mgrwt>
</event>
<event>
 4    1  0.1100959E+000  0.1786755E+03  0.7546771E-02  0.1169091E+00
         21   -1    0    0  501  502  0.00000000000E+00  0.00000000000E+00  0.81156249350E+02  0.81156249350E+02  0.00000000000E+00 0. -1.
         21   -1    0    0  502  503 -0.00000000000E+00 -0.00000000000E+00 -0.53478830212E+03  0.53478830212E+03  0.00000000000E+00 0. -1.
          6    1    1    2  501    0 -0.22079226125E+02  0.43051605858E+02 -0.68449264373E+02  0.19133801187E+03  0.17200000000E+03 0. -1.
         -6    1    1    2    0  503  0.22079226125E+02 -0.43051605858E+02 -0.38518278839E+03  0.42460653960E+03  0.17200000000E+03 0. -1.
<mgrwt>
<rscale>  2 0.17867550E+03</rscale>
<asrwt>0</asrwt>
<pdfrwt beam="1">  1       21 0.20289063E-01 0.17867550E+03</pdfrwt>
<pdfrwt beam="2">  1       21 0.13369707E+00 0.17867550E+03</pdfrwt>
<totfact> 0.91447341E+03</totfact>
</mgrwt>
</event>
<event>
 4    1  0.1100959E+000  0.1814617E+03  0.7546771E-02  0.1166396E+00
         21   -1    0    0  503  502  0.00000000000E+00  0.00000000000E+00  0.45102102455E+03  0.45102102455E+03  0.00000000000E+00 0. -1.
         21   -1    0    0  501  503 -0.00000000000E+00 -0.00000000000E+00 -0.86046912295E+02  0.86046912295E+02  0.00000000000E+00 0. -1.
          6    1    1    2  501    0  0.48915564744E+01 -0.57623185906E+02  0.77956251408E+02  0.19749819243E+03  0.17200000000E+03 0. -1.
         -6    1    1    2    0  502 -0.48915564744E+01  0.57623185906E+02  0.28701786085E+03  0.33956974442E+03  0.17200000000E+03 0. -1.
<mgrwt>
<rscale>  2 0.18146173E+03</rscale>
<asrwt>0</asrwt>
<pdfrwt beam="1">  1       21 0.11275525E+00 0.18146173E+03</pdfrwt>
<pdfrwt beam="2">  1       21 0.21511729E-01 0.18146173E+03</pdfrwt>
<totfact> 0.12481533E+04</totfact>
</mgrwt>
</event>
<event>
 4    1  0.1100959E+000  0.1842274E+03  0.7546771E-02  0.1163773E+00
         21   -1    0    0  501  502  0.00000000000E+00  0.00000000000E+00  0.11063093847E+03  0.11063093847E+03  0.00000000000E+00 0.  1.
         21   -1    0    0  502  503 -0.00000000000E+00 -0.00000000000E+00 -0.31688866999E+03  0.31688866999E+03  0.00000000000E+00 0. -1.
          6    1    1    2  501    0 -0.42364600857E+02  0.50606003112E+02 -0.64956568475E+02  0.19534349937E+03  0.17200000000E+03 0.  1.
         -6    1    1    2    0  503  0.42364600857E+02 -0.50606003112E+02 -0.14130116304E+03  0.23217610909E+03  0.17200000000E+03 0. -1.
<mgrwt>
<rscale>  2 0.18422738E+03</rscale>
<asrwt>0</asrwt>
<pdfrwt beam="1">  1       21 0.27657735E-01 0.18422738E+03</pdfrwt>
<pdfrwt beam="2">  1       21 0.79222167E-01 0.18422738E+03</pdfrwt>
<totfact> 0.17634027E+04</totfact>
</mgrwt>
</event>
<event>
 4    1  0.1100959E+000  0.1733524E+03  0.7546771E-02  0.1174396E+00
         21   -1    0    0  501  502  0.00000000000E+00  0.00000000000E+00  0.51230800096E+03  0.51230800096E+03  0.00000000000E+00 0. -1.
         21   -1    0    0  502  503 -0.00000000000E+00 -0.00000000000E+00 -0.10601990743E+03  0.10601990743E+03  0.00000000000E+00 0. -1.
          6    1    1    2  501    0 -0.10020378732E+02 -0.19147704249E+02  0.40978149051E+03  0.44494034716E+03  0.17200000000E+03 0. -1.
         -6    1    1    2    0  503  0.10020378732E+02  0.19147704249E+02 -0.34933969844E+01  0.17338756123E+03  0.17200000000E+03 0. -1.
<mgrwt>
<rscale>  2 0.17335237E+03</rscale>
<asrwt>0</asrwt>
<pdfrwt beam="1">  1       21 0.12807699E+00 0.17335237E+03</pdfrwt>
<pdfrwt beam="2">  1       21 0.26504978E-01 0.17335237E+03</pdfrwt>
<totfact> 0.61742363E+03</totfact>
</mgrwt>
</event>
<event>
 4    1  0.1100959E+000  0.1855111E+03  0.7546771E-02  0.1162573E+00
         21   -1    0    0  501  502  0.00000000000E+00  0.00000000000E+00  0.80904627380E+02  0.80904627380E+02  0.00000000000E+00 0.  1.
         21   -1    0    0  502  503 -0.00000000000E+00 -0.00000000000E+00 -0.42614814712E+03  0.42614814712E+03  0.00000000000E+00 0. -1.
          6    1    1    2  501    0 -0.25975551835E+02  0.64464204159E+02 -0.16178483001E+03  0.24614770796E+03  0.17200000000E+03 0.  1.
         -6    1    1    2    0  503  0.25975551835E+02 -0.64464204159E+02 -0.18345868973E+03  0.26090506655E+03  0.17200000000E+03 0. -1.
<mgrwt>
<rscale>  2 0.18551109E+03</rscale>
<asrwt>0</asrwt>
<pdfrwt beam="1">  1       21 0.20226157E-01 0.18551109E+03</pdfrwt>
<pdfrwt beam="2">  1       21 0.10653704E+00 0.18551109E+03</pdfrwt>
<totfact> 0.16021139E+04</totfact>
</mgrwt>
</event>
<event>
 4    1  0.1100959E+000  0.2480910E+03  0.7546771E-02  0.1114517E+00
         21   -1    0    0  501  502  0.00000000000E+00  0.00000000000E+00  0.62147984779E+03  0.62147984779E+03  0.00000000000E+00 0.  1.
         21   -1    0    0  502  503 -0.00000000000E+00 -0.00000000000E+00 -0.12366889280E+03  0.12366889280E+03  0.00000000000E+00 0. -1.
          6    1    1    2  501    0  0.11815519286E+03 -0.13418090420E+03  0.41518408737E+03  0.48365999531E+03  0.17200000000E+03 0. -1.
         -6    1    1    2    0  503 -0.11815519286E+03  0.13418090420E+03  0.82626867615E+02  0.26148874527E+03  0.17200000000E+03 0. -1.
<mgrwt>
<rscale>  2 0.24809104E+03</rscale>
<asrwt>0</asrwt>
<pdfrwt beam="1">  1       21 0.15536995E+00 0.24809104E+03</pdfrwt>
<pdfrwt beam="2">  1       21 0.30917225E-01 0.24809104E+03</pdfrwt>
<totfact> 0.26123168E+03</totfact>
</mgrwt>
</event>
<event>
 4    1  0.1100959E+000  0.2909442E+03  0.7546771E-02  0.1089857E+00
         21   -1    0    0  503  502  0.00000000000E+00  0.00000000000E+00  0.45326303861E+03  0.45326303861E+03  0.00000000000E+00 0. -1.
         21   -1    0    0  501  503 -0.00000000000E+00 -0.00000000000E+00 -0.18734263514E+03  0.18734263514E+03  0.00000000000E+00 0. -1.
          6    1    1    2  501    0 -0.66019969850E+02 -0.22517972410E+03  0.15091912309E+03  0.32775772497E+03  0.17200000000E+03 0. -1.
         -6    1    1    2    0  502  0.66019969850E+02  0.22517972410E+03  0.11500128037E+03  0.31284794877E+03  0.17200000000E+03 0. -1.
<mgrwt>
<rscale>  2 0.29094423E+03</rscale>
<asrwt>0</asrwt>
<pdfrwt beam="1">  1       21 0.11331576E+00 0.29094423E+03</pdfrwt>
<pdfrwt beam="2">  1       21 0.46835660E-01 0.29094423E+03</pdfrwt>
<totfact> 0.24675019E+03</totfact>
</mgrwt>
</event>
<event>
 4    1  0.1100959E+000  0.1805524E+03  0.7546771E-02  0.1167269E+00
         21   -1    0    0  501  502  0.00000000000E+00  0.00000000000E+00  0.13670820286E+03  0.13670820286E+03  0.00000000000E+00 0.  1.
         21   -1    0    0  502  503 -0.00000000000E+00 -0.00000000000E+00 -0.28196853025E+03  0.28196853025E+03  0.00000000000E+00 0.  1.
          6    1    1    2  501    0 -0.23219665121E+02  0.49759637439E+02  0.96026865700E+01  0.18080759374E+03  0.17200000000E+03 0.  1.
         -6    1    1    2    0  503  0.23219665121E+02 -0.49759637439E+02 -0.15486301397E+03  0.23786913936E+03  0.17200000000E+03 0.  1.
<mgrwt>
<rscale>  2 0.18055241E+03</rscale>
<asrwt>0</asrwt>
<pdfrwt beam="1">  1       21 0.34177051E-01 0.18055241E+03</pdfrwt>
<pdfrwt beam="2">  1       21 0.70492132E-01 0.18055241E+03</pdfrwt>
<totfact> 0.15167591E+04</totfact>
</mgrwt>
</event>
<event>
 4    1  0.1100959E+000  0.1986726E+03  0.7546771E-02  0.1150864E+00
         21   -1    0    0  501  502  0.00000000000E+00  0.00000000000E+00  0.44390869193E+03  0.44390869193E+03  0.00000000000E+00 0.  1.
         21   -1    0    0  502  503 -0.00000000000E+00 -0.00000000000E+00 -0.14049605690E+03  0.14049605690E+03  0.00000000000E+00 0.  1.
          6    1    1    2  501    0  0.95552144959E+02 -0.27506444335E+02  0.32875405633E+03  0.38412243678E+03  0.17200000000E+03 0.  1.
         -6    1    1    2    0  503 -0.95552144959E+02  0.27506444335E+02 -0.25341421292E+02  0.20028231205E+03  0.17200000000E+03 0.  1.
<mgrwt>
<rscale>  2 0.19867264E+03</rscale>
<asrwt>0</asrwt>
<pdfrwt beam="1">  1       21 0.11097717E+00 0.19867264E+03</pdfrwt>
<pdfrwt beam="2">  1       21 0.35124015E-01 0.19867264E+03</pdfrwt>
<totfact> 0.49713748E+03</totfact>
</mgrwt>
</event>
<event>
 4    1  0.1100959E+000  0.2950133E+03  0.7546771E-02  0.1087760E+00
         21   -1    0    0  503  502  0.00000000000E+00  0.00000000000E+00  0.11603194412E+03  0.11603194412E+03  0.00000000000E+00 0.  1.
         21   -1    0    0  501  503 -0.00000000000E+00 -0.00000000000E+00 -0.75639865821E+03  0.75639865821E+03  0.00000000000E+00 0. -1.
          6    1    1    2  501    0 -0.10248125160E+03 -0.21667131531E+03 -0.36006278714E+03  0.46548692408E+03  0.17200000000E+03 0.  1.
         -6    1    1    2    0  502  0.10248125160E+03  0.21667131531E+03 -0.28030392695E+03  0.40694367825E+03  0.17200000000E+03 0. -1.
<mgrwt>
<rscale>  2 0.29501333E+03</rscale>
<asrwt>0</asrwt>
<pdfrwt beam="1">  1       21 0.29007986E-01 0.29501333E+03</pdfrwt>
<pdfrwt beam="2">  1       21 0.18909966E+00 0.29501333E+03</pdfrwt>
<totfact> 0.16497562E+03</totfact>
</mgrwt>
</event>
<event>
 4    1  0.1100959E+000  0.2101271E+03  0.7546771E-02  0.1141465E+00
         21   -1    0    0  501  502  0.00000000000E+00  0.00000000000E+00  0.36107452805E+03  0.36107452805E+03  0.00000000000E+00 0.  1.
         21   -1    0    0  502  503 -0.00000000000E+00 -0.00000000000E+00 -0.18473190847E+03  0.18473190847E+03  0.00000000000E+00 0. -1.
          6    1    1    2  501    0 -0.41530930344E+02  0.11333395236E+03  0.24684280242E+03  0.32416781463E+03  0.17200000000E+03 0.  1.
         -6    1    1    2    0  503  0.41530930344E+02 -0.11333395236E+03 -0.70500182841E+02  0.22163862189E+03  0.17200000000E+03 0. -1.
<mgrwt>
<rscale>  2 0.21012711E+03</rscale>
<asrwt>0</asrwt>
<pdfrwt beam="1">  1       21 0.90268631E-01 0.21012711E+03</pdfrwt>
<pdfrwt beam="2">  1       21 0.46182978E-01 0.21012711E+03</pdfrwt>
<totfact> 0.46233186E+03</totfact>
</mgrwt>
</event>
<event>
 4    1  0.1100959E+000  0.2125157E+03  0.7546771E-02  0.1139589E+00
         21   -1    0    0  501  502  0.00000000000E+00  0.00000000000E+00  0.21727172669E+03  0.21727172669E+03  0.00000000000E+00 0. -1.
         21   -1    0    0  502  503 -0.00000000000E+00 -0.00000000000E+00 -0.45646401789E+03  0.45646401789E+03  0.00000000000E+00 0. -1.
          6    1    1    2  501    0 -0.70192873074E+02  0.10320797169E+03  0.12900726316E+03  0.24860772071E+03  0.17200000000E+03 0. -1.
         -6    1    1    2    0  503  0.70192873074E+02 -0.10320797169E+03 -0.36819955435E+03  0.42512802386E+03  0.17200000000E+03 0. -1.
<mgrwt>
<rscale>  2 0.21251570E+03</rscale>
<asrwt>0</asrwt>
<pdfrwt beam="1">  1       21 0.54317932E-01 0.21251570E+03</pdfrwt>
<pdfrwt beam="2">  1       21 0.11411600E+00 0.21251570E+03</pdfrwt>
<totfact> 0.18790748E+03</totfact>
</mgrwt>
</event>
<event>
 4    1  0.1100959E+000  0.2124703E+03  0.7546771E-02  0.1139625E+00
         21   -1    0    0  501  502  0.00000000000E+00  0.00000000000E+00  0.85476923644E+03  0.85476923644E+03  0.00000000000E+00 0. -1.
         21   -1    0    0  502  503 -0.00000000000E+00 -0.00000000000E+00 -0.55581468207E+02  0.55581468207E+02  0.00000000000E+00 0. -1.
          6    1    1    2  501    0 -0.11139862329E+03 -0.56124661586E+02  0.50116470457E+03  0.54434335857E+03  0.17200000000E+03 0. -1.
         -6    1    1    2    0  503  0.11139862329E+03  0.56124661586E+02  0.29802306366E+03  0.36600734607E+03  0.17200000000E+03 0. -1.
<mgrwt>
<rscale>  2 0.21247031E+03</rscale>
<asrwt>0</asrwt>
<pdfrwt beam="1">  1       21 0.21369227E+00 0.21247031E+03</pdfrwt>
<pdfrwt beam="2">  1       21 0.13895370E-01 0.21247031E+03</pdfrwt>
<totfact> 0.48692643E+03</totfact>
</mgrwt>
</event>
<event>
 4    1  0.1100959E+000  0.2090329E+03  0.7546771E-02  0.1142334E+00
         21   -1    0    0  503  502  0.00000000000E+00  0.00000000000E+00  0.89781678363E+03  0.89781678363E+03  0.00000000000E+00 0.  1.
         21   -1    0    0  501  503 -0.00000000000E+00 -0.00000000000E+00 -0.82897005206E+02  0.82897005206E+02  0.00000000000E+00 0.  1.
          6    1    1    2  501    0  0.69923756266E+02 -0.96028328063E+02  0.92365082172E+02  0.22853026033E+03  0.17200000000E+03 0.  1.
         -6    1    1    2    0  502 -0.69923756266E+02  0.96028328063E+02  0.72255469625E+03  0.75218352850E+03  0.17200000000E+03 0.  1.
<mgrwt>
<rscale>  2 0.20903294E+03</rscale>
<asrwt>0</asrwt>
<pdfrwt beam="1">  1       21 0.22445417E+00 0.20903294E+03</pdfrwt>
<pdfrwt beam="2">  1       21 0.20724254E-01 0.20903294E+03</pdfrwt>
<totfact> 0.20054520E+03</totfact>
</mgrwt>
</event>
<event>
 4    1  0.1100959E+000  0.1875135E+03  0.7546771E-02  0.1160723E+00
         21   -1    0    0  501  502  0.00000000000E+00  0.00000000000E+00  0.13999195348E+03  0.13999195348E+03  0.00000000000E+00 0.  1.
         21   -1    0    0  502  503 -0.00000000000E+00 -0.00000000000E+00 -0.26750621475E+03  0.26750621475E+03  0.00000000000E+00 0.  1.
          6    1    1    2  501    0 -0.12294911004E+02 -0.73662305249E+02 -0.13401282876E+02  0.18799174033E+03  0.17200000000E+03 0.  1.
         -6    1    1    2    0  503  0.12294911004E+02  0.73662305249E+02 -0.11411297839E+03  0.21950642790E+03  0.17200000000E+03 0.  1.
<mgrwt>
<rscale>  2 0.18751347E+03</rscale>
<asrwt>0</asrwt>
<pdfrwt beam="1">  1       21 0.34997989E-01 0.18751347E+03</pdfrwt>
<pdfrwt beam="2">  1       21 0.66876553E-01 0.18751347E+03</pdfrwt>
<totfact> 0.16172258E+04</totfact>
</mgrwt>
</event>
<event>
 4    1  0.1100959E+000  0.2010267E+03  0.7546771E-02  0.1148876E+00
         21   -1    0    0  501  502  0.00000000000E+00  0.00000000000E+00  0.12853954824E+03  0.12853954824E+03  0.00000000000E+00 0. -1.
         21   -1    0    0  502  503 -0.00000000000E+00 -0.00000000000E+00 -0.56788513757E+03  0.56788513757E+03  0.00000000000E+00 0.  1.
          6    1    1    2  501    0  0.46649045999E+02  0.93013901090E+02  0.12974276168E+02  0.20144490843E+03  0.17200000000E+03 0. -1.
         -6    1    1    2    0  503 -0.46649045999E+02 -0.93013901090E+02 -0.45231986550E+03  0.49497977738E+03  0.17200000000E+03 0.  1.
<mgrwt>
<rscale>  2 0.20102666E+03</rscale>
<asrwt>0</asrwt>
<pdfrwt beam="1">  1       21 0.32134887E-01 0.20102666E+03</pdfrwt>
<pdfrwt beam="2">  1       21 0.14197128E+00 0.20102666E+03</pdfrwt>
<totfact> 0.31909290E+03</totfact>
</mgrwt>
</event>
<event>
 4    1  0.1100959E+000  0.2466587E+03  0.7546771E-02  0.1115435E+00
         21   -1    0    0  503  502  0.00000000000E+00  0.00000000000E+00  0.16710975819E+04  0.16710975819E+04  0.00000000000E+00 0. -1.
         21   -1    0    0  501  503 -0.00000000000E+00 -0.00000000000E+00 -0.55368248243E+02  0.55368248243E+02  0.00000000000E+00 0. -1.
          6    1    1    2  501    0 -0.25892028548E+02 -0.17488891739E+03  0.30270923757E+03  0.39047844124E+03  0.17200000000E+03 0. -1.
         -6    1    1    2    0  502  0.25892028548E+02  0.17488891739E+03  0.13130200961E+04  0.13359873889E+04  0.17200000000E+03 0. -1.
<mgrwt>
<rscale>  2 0.24665873E+03</rscale>
<asrwt>0</asrwt>
<pdfrwt beam="1">  1       21 0.41777423E+00 0.24665873E+03</pdfrwt>
<pdfrwt beam="2">  1       21 0.13842068E-01 0.24665873E+03</pdfrwt>
<totfact> 0.28174309E+02</totfact>
</mgrwt>
</event>
<event>
 4    1  0.1100959E+000  0.2171793E+03  0.7546771E-02  0.1136004E+00
         21   -1    0    0  503  502  0.00000000000E+00  0.00000000000E+00  0.20839491696E+03  0.20839491696E+03  0.00000000000E+00 0. -1.
         21   -1    0    0  501  503 -0.00000000000E+00 -0.00000000000E+00 -0.50091177944E+03  0.50091177944E+03  0.00000000000E+00 0. -1.
          6    1    1    2  501    0  0.81572642849E+02  0.10454066869E+03 -0.40883511875E+03  0.46293952283E+03  0.17200000000E+03 0. -1.
         -6    1    1    2    0  502 -0.81572642849E+02 -0.10454066869E+03  0.11631825627E+03  0.24636717357E+03  0.17200000000E+03 0. -1.
<mgrwt>
<rscale>  2 0.21717930E+03</rscale>
<asrwt>0</asrwt>
<pdfrwt beam="1">  1       21 0.52098730E-01 0.21717930E+03</pdfrwt>
<pdfrwt beam="2">  1       21 0.12522794E+00 0.21717930E+03</pdfrwt>
<totfact> 0.16231470E+03</totfact>
</mgrwt>
</event>
<event>
 4    1  0.1100959E+000  0.2785141E+03  0.7546771E-02  0.1096503E+00
         21   -1    0    0  503  502  0.00000000000E+00  0.00000000000E+00  0.58498976814E+03  0.58498976814E+03  0.00000000000E+00 0.  1.
         21   -1    0    0  501  503 -0.00000000000E+00 -0.00000000000E+00 -0.13260146271E+03  0.13260146271E+03  0.00000000000E+00 0.  1.
          6    1    1    2  501    0  0.13744876182E+03 -0.17056953576E+03  0.22697805155E+03  0.35928980578E+03  0.17200000000E+03 0.  1.
         -6    1    1    2    0  502 -0.13744876182E+03  0.17056953576E+03  0.22541025387E+03  0.35830142507E+03  0.17200000000E+03 0.  1.
<mgrwt>
<rscale>  2 0.27851414E+03</rscale>
<asrwt>0</asrwt>
<pdfrwt beam="1">  1       21 0.14624744E+00 0.27851414E+03</pdfrwt>
<pdfrwt beam="2">  1       21 0.33150367E-01 0.27851414E+03</pdfrwt>
<totfact> 0.26187163E+03</totfact>
</mgrwt>
</event>
<event>
 4    1  0.1100959E+000  0.1821619E+03  0.7546771E-02  0.1165727E+00
         21   -1    0    0  503  502  0.00000000000E+00  0.00000000000E+00  0.60284798368E+03  0.60284798368E+03  0.00000000000E+00 0. -1.
         21   -1    0    0  501  503 -0.00000000000E+00 -0.00000000000E+00 -0.55346835870E+02  0.55346835870E+02  0.00000000000E+00 0. -1.
          6    1    1    2  501    0  0.16577355811E+02  0.57655416996E+02  0.29810790341E+03  0.34935838034E+03  0.17200000000E+03 0. -1.
         -6    1    1    2    0  502 -0.16577355811E+02 -0.57655416996E+02  0.24939324440E+03  0.30883643922E+03  0.17200000000E+03 0. -1.
<mgrwt>
<rscale>  2 0.18216189E+03</rscale>
<asrwt>0</asrwt>
<pdfrwt beam="1">  1       21 0.15071198E+00 0.18216189E+03</pdfrwt>
<pdfrwt beam="2">  1       21 0.13836711E-01 0.18216189E+03</pdfrwt>
<totfact> 0.13510011E+04</totfact>
</mgrwt>
</event>
<event>
 4    1  0.1100959E+000  0.2010171E+03  0.7546771E-02  0.1148884E+00
         21   -1    0    0  503  502  0.00000000000E+00  0.00000000000E+00  0.49037389300E+03  0.49037389300E+03  0.00000000000E+00 0. -1.
         21   -1    0    0  501  503 -0.00000000000E+00 -0.00000000000E+00 -0.12933556611E+03  0.12933556611E+03  0.00000000000E+00 0. -1.
          6    1    1    2  501    0 -0.90801168590E+01  0.10364093297E+03 -0.61359793241E+01  0.20111076985E+03  0.17200000000E+03 0. -1.
         -6    1    1    2    0  502  0.90801168590E+01 -0.10364093297E+03  0.36717430622E+03  0.41859868926E+03  0.17200000000E+03 0. -1.
<mgrwt>
<rscale>  2 0.20101714E+03</rscale>
<asrwt>0</asrwt>
<pdfrwt beam="1">  1       21 0.12259347E+00 0.20101714E+03</pdfrwt>
<pdfrwt beam="2">  1       21 0.32333893E-01 0.20101714E+03</pdfrwt>
<totfact> 0.45767836E+03</totfact>
</mgrwt>
</event>
<event>
 4    1  0.1100959E+000  0.1933739E+03  0.7546771E-02  0.1155453E+00
         21   -1    0    0  503  502  0.00000000000E+00  0.00000000000E+00  0.83418185053E+02  0.83418185053E+02  0.00000000000E+00 0. -1.
         21   -1    0    0  501  503 -0.00000000000E+00 -0.00000000000E+00 -0.47975541008E+03  0.47975541008E+03  0.00000000000E+00 0. -1.
          6    1    1    2  501    0  0.56829926897E+02  0.67674357294E+02 -0.27031107608E+03  0.33235754403E+03  0.17200000000E+03 0. -1.
         -6    1    1    2    0  502 -0.56829926897E+02 -0.67674357294E+02 -0.12602614895E+03  0.23081605110E+03  0.17200000000E+03 0. -1.
<mgrwt>
<rscale>  2 0.19337388E+03</rscale>
<asrwt>0</asrwt>
<pdfrwt beam="1">  1       21 0.20854546E-01 0.19337388E+03</pdfrwt>
<pdfrwt beam="2">  1       21 0.11993885E+00 0.19337388E+03</pdfrwt>
<totfact> 0.11281185E+04</totfact>
</mgrwt>
</event>
<event>
 4    1  0.1100959E+000  0.2462507E+03  0.7546771E-02  0.1115697E+00
         21   -1    0    0  503  502  0.00000000000E+00  0.00000000000E+00  0.84644762420E+03  0.84644762420E+03  0.00000000000E+00 0.  1.
         21   -1    0    0  501  503 -0.00000000000E+00 -0.00000000000E+00 -0.19822921246E+03  0.19822921246E+03  0.00000000000E+00 0.  1.
          6    1    1    2  501    0 -0.11929387594E+03 -0.12970878871E+03 -0.93304506569E+02  0.26333463436E+03  0.17200000000E+03 0.  1.
         -6    1    1    2    0  502  0.11929387594E+03  0.12970878871E+03  0.74152291832E+03  0.78134220230E+03  0.17200000000E+03 0.  1.
<mgrwt>
<rscale>  2 0.24625068E+03</rscale>
<asrwt>0</asrwt>
<pdfrwt beam="1">  1       21 0.21161190E+00 0.24625068E+03</pdfrwt>
<pdfrwt beam="2">  1       21 0.49557305E-01 0.24625068E+03</pdfrwt>
<totfact> 0.41429278E+02</totfact>
</mgrwt>
</event>
<event>
 4    1  0.1100959E+000  0.1737700E+03  0.7546771E-02  0.1173972E+00
         21   -1    0    0  501  502  0.00000000000E+00  0.00000000000E+00  0.22715272768E+03  0.22715272768E+03  0.00000000000E+00 0.  1.
         21   -1    0    0  502  503 -0.00000000000E+00 -0.00000000000E+00 -0.17243372198E+03  0.17243372198E+03  0.00000000000E+00 0.  1.
          6    1    1    2  501    0  0.74092400607E+01  0.23603633315E+02  0.12298500975E+03  0.21288809494E+03  0.17200000000E+03 0.  1.
         -6    1    1    2    0  503 -0.74092400607E+01 -0.23603633315E+02 -0.68266004054E+02  0.18669835472E+03  0.17200000000E+03 0.  1.
<mgrwt>
<rscale>  2 0.17377004E+03</rscale>
<asrwt>0</asrwt>
<pdfrwt beam="1">  1       21 0.56788182E-01 0.17377004E+03</pdfrwt>
<pdfrwt beam="2">  1       21 0.43108431E-01 0.17377004E+03</pdfrwt>
<totfact> 0.15264648E+04</totfact>
</mgrwt>
</event>
<event>
 4    1  0.1100959E+000  0.1816436E+03  0.7546771E-02  0.1166222E+00
         21   -1    0    0  501  502  0.00000000000E+00  0.00000000000E+00  0.30236535007E+03  0.30236535007E+03  0.00000000000E+00 0. -1.
         21   -1    0    0  502  503 -0.00000000000E+00 -0.00000000000E+00 -0.25510704743E+03  0.25510704743E+03  0.00000000000E+00 0. -1.
          6    1    1    2  501    0  0.44506988791E+02 -0.37808922214E+02  0.23448610691E+03  0.29661106012E+03  0.17200000000E+03 0. -1.
         -6    1    1    2    0  503 -0.44506988791E+02  0.37808922214E+02 -0.18722780427E+03  0.26086133738E+03  0.17200000000E+03 0. -1.
<mgrwt>
<rscale>  2 0.18164357E+03</rscale>
<asrwt>0</asrwt>
<pdfrwt beam="1">  1       21 0.75591337E-01 0.18164357E+03</pdfrwt>
<pdfrwt beam="2">  1       21 0.63776762E-01 0.18164357E+03</pdfrwt>
<totfact> 0.35813796E+03</totfact>
</mgrwt>
</event>
<event>
 4    1  0.1100959E+000  0.1788032E+03  0.7546771E-02  0.1168966E+00
         21   -1    0    0  503  502  0.00000000000E+00  0.00000000000E+00  0.14486999958E+04  0.14486999958E+04  0.00000000000E+00 0.  1.
         21   -1    0    0  501  503 -0.00000000000E+00 -0.00000000000E+00 -0.35276743092E+02  0.35276743092E+02  0.00000000000E+00 0.  1.
          6    1    1    2  501    0 -0.28439511190E+02 -0.39721358852E+02  0.25269069064E+03  0.30955318975E+03  0.17200000000E+03 0.  1.
         -6    1    1    2    0  502  0.28439511190E+02  0.39721358852E+02  0.11607325620E+04  0.11744235491E+04  0.17200000000E+03 0.  1.
<mgrwt>
<rscale>  2 0.17880322E+03</rscale>
<asrwt>0</asrwt>
<pdfrwt beam="1">  1       21 0.36217480E+00 0.17880322E+03</pdfrwt>
<pdfrwt beam="2">  1       21 0.88191906E-02 0.17880322E+03</pdfrwt>
<totfact> 0.15302392E+03</totfact>
</mgrwt>
</event>
<event>
 4    1  0.1100959E+000  0.2224312E+03  0.7546771E-02  0.1132083E+00
         21   -1    0    0  501  502  0.00000000000E+00  0.00000000000E+00  0.40066726219E+03  0.40066726219E+03  0.00000000000E+00 0.  1.
         21   -1    0    0  502  503 -0.00000000000E+00 -0.00000000000E+00 -0.12529564990E+03  0.12529564990E+03  0.00000000000E+00 0.  1.
          6    1    1    2  501    0  0.12841564051E+03  0.58318440401E+02  0.10605519291E+03  0.24642102419E+03  0.17200000000E+03 0. -1.
         -6    1    1    2    0  503 -0.12841564051E+03 -0.58318440401E+02  0.16931641938E+03  0.27954188790E+03  0.17200000000E+03 0. -1.
<mgrwt>
<rscale>  2 0.22243115E+03</rscale>
<asrwt>0</asrwt>
<pdfrwt beam="1">  1       21 0.10016681E+00 0.22243115E+03</pdfrwt>
<pdfrwt beam="2">  1       21 0.31323913E-01 0.22243115E+03</pdfrwt>
<totfact> 0.78418337E+03</totfact>
</mgrwt>
</event>
<event>
 4    1  0.1100959E+000  0.1805295E+03  0.7546771E-02  0.1167292E+00
         21   -1    0    0  503  502  0.00000000000E+00  0.00000000000E+00  0.14382582751E+03  0.14382582751E+03  0.00000000000E+00 0. -1.
         21   -1    0    0  501  503 -0.00000000000E+00 -0.00000000000E+00 -0.23319559433E+03  0.23319559433E+03  0.00000000000E+00 0. -1.
          6    1    1    2  501    0  0.54753013670E+02 -0.30005015783E+01 -0.76388681788E+02  0.19602583049E+03  0.17200000000E+03 0. -1.
         -6    1    1    2    0  502 -0.54753013670E+02  0.30005015783E+01 -0.12981085035E+02  0.18099559134E+03  0.17200000000E+03 0. -1.
<mgrwt>
<rscale>  2 0.18052949E+03</rscale>
<asrwt>0</asrwt>
<pdfrwt beam="1">  1       21 0.35956457E-01 0.18052949E+03</pdfrwt>
<pdfrwt beam="2">  1       21 0.58298898E-01 0.18052949E+03</pdfrwt>
<totfact> 0.20703206E+04</totfact>
</mgrwt>
</event>
<event>
 4    1  0.1100959E+000  0.2419816E+03  0.7546771E-02  0.1118480E+00
         21   -1    0    0  503  502  0.00000000000E+00  0.00000000000E+00  0.18878896459E+03  0.18878896459E+03  0.00000000000E+00 0.  1.
         21   -1    0    0  501  503 -0.00000000000E+00 -0.00000000000E+00 -0.65217373375E+03  0.65217373375E+03  0.00000000000E+00 0.  1.
          6    1    1    2  501    0 -0.16491277002E+03 -0.42129094237E+02 -0.53619137645E+03  0.58826547959E+03  0.17200000000E+03 0.  1.
         -6    1    1    2    0  502  0.16491277002E+03  0.42129094237E+02  0.72806607289E+02  0.25269721875E+03  0.17200000000E+03 0.  1.
<mgrwt>
<rscale>  2 0.24198157E+03</rscale>
<asrwt>0</asrwt>
<pdfrwt beam="1">  1       21 0.47197241E-01 0.24198157E+03</pdfrwt>
<pdfrwt beam="2">  1       21 0.16304343E+00 0.24198157E+03</pdfrwt>
<totfact> 0.97940995E+02</totfact>
</mgrwt>
</event>
<event>
 4    1  0.1100959E+000  0.1787001E+03  0.7546771E-02  0.1169067E+00
         21   -1    0    0  503  502  0.00000000000E+00  0.00000000000E+00  0.30885383523E+03  0.30885383523E+03  0.00000000000E+00 0.  1.
         21   -1    0    0  501  503 -0.00000000000E+00 -0.00000000000E+00 -0.11021455607E+03  0.11021455607E+03  0.00000000000E+00 0.  1.
          6    1    1    2  501    0 -0.23529179109E+02  0.42380559688E+02  0.15144330466E+03  0.23424092007E+03  0.17200000000E+03 0.  1.
         -6    1    1    2    0  502  0.23529179109E+02 -0.42380559688E+02  0.47195974500E+02  0.18482747122E+03  0.17200000000E+03 0.  1.
<mgrwt>
<rscale>  2 0.17870012E+03</rscale>
<asrwt>0</asrwt>
<pdfrwt beam="1">  1       21 0.77213457E-01 0.17870012E+03</pdfrwt>
<pdfrwt beam="2">  1       21 0.27553640E-01 0.17870012E+03</pdfrwt>
<totfact> 0.18883012E+04</totfact>
</mgrwt>
</event>
<event>
 4    1  0.1100959E+000  0.2050863E+03  0.7546771E-02  0.1145517E+00
         21   -1    0    0  501  502  0.00000000000E+00  0.00000000000E+00  0.12364132400E+03  0.12364132400E+03  0.00000000000E+00 0.  1.
         21   -1    0    0  502  503 -0.00000000000E+00 -0.00000000000E+00 -0.42798396563E+03  0.42798396563E+03  0.00000000000E+00 0.  1.
          6    1    1    2  501    0  0.87151178457E+02  0.69864511487E+02 -0.27244397771E+02  0.20688797713E+03  0.17200000000E+03 0.  1.
         -6    1    1    2    0  503 -0.87151178457E+02 -0.69864511487E+02 -0.27709824386E+03  0.34473731249E+03  0.17200000000E+03 0.  1.
<mgrwt>
<rscale>  2 0.20508627E+03</rscale>
<asrwt>0</asrwt>
<pdfrwt beam="1">  1       21 0.30910331E-01 0.20508627E+03</pdfrwt>
<pdfrwt beam="2">  1       21 0.10699599E+00 0.20508627E+03</pdfrwt>
<totfact> 0.69536781E+03</totfact>
</mgrwt>
</event>
<event>
 4    1  0.1100959E+000  0.2945179E+03  0.7546771E-02  0.1088014E+00
         21   -1    0    0  501  502  0.00000000000E+00  0.00000000000E+00  0.24594189636E+03  0.24594189636E+03  0.00000000000E+00 0. -1.
         21   -1    0    0  502  503 -0.00000000000E+00 -0.00000000000E+00 -0.35305874571E+03  0.35305874571E+03  0.00000000000E+00 0.  1.
          6    1    1    2  501    0 -0.77267370958E+02 -0.22624448764E+03 -0.43856213900E+02  0.29776531413E+03  0.17200000000E+03 0.  1.
         -6    1    1    2    0  503  0.77267370958E+02  0.22624448764E+03 -0.63260635450E+02  0.30123532794E+03  0.17200000000E+03 0. -1.
<mgrwt>
<rscale>  2 0.29451794E+03</rscale>
<asrwt>0</asrwt>
<pdfrwt beam="1">  1       21 0.61485475E-01 0.29451794E+03</pdfrwt>
<pdfrwt beam="2">  1       21 0.88264686E-01 0.29451794E+03</pdfrwt>
<totfact> 0.25117489E+03</totfact>
</mgrwt>
</event>
<event>
 4    1  0.1100959E+000  0.1843936E+03  0.7546771E-02  0.1163617E+00
         21   -1    0    0  501  502  0.00000000000E+00  0.00000000000E+00  0.10816001793E+03  0.10816001793E+03  0.00000000000E+00 0.  1.
         21   -1    0    0  502  503 -0.00000000000E+00 -0.00000000000E+00 -0.62605961974E+03  0.62605961974E+03  0.00000000000E+00 0.  1.
          6    1    1    2  501    0 -0.66197271282E+02 -0.59088221870E+01  0.84642883609E-01  0.18439360094E+03  0.17200000000E+03 0.  1.
         -6    1    1    2    0  503  0.66197271282E+02  0.59088221870E+01 -0.51798424469E+03  0.54982603672E+03  0.17200000000E+03 0.  1.
<mgrwt>
<rscale>  2 0.18439358E+03</rscale>
<asrwt>0</asrwt>
<pdfrwt beam="1">  1       21 0.27040005E-01 0.18439358E+03</pdfrwt>
<pdfrwt beam="2">  1       21 0.15651490E+00 0.18439358E+03</pdfrwt>
<totfact> 0.35063543E+03</totfact>
</mgrwt>
</event>
<event>
 4    1  0.1100959E+000  0.4472128E+03  0.7546771E-02  0.1028556E+00
         21   -1    0    0  501  502  0.00000000000E+00  0.00000000000E+00  0.68373303180E+03  0.68373303180E+03  0.00000000000E+00 0. -1.
         21   -1    0    0  502  503 -0.00000000000E+00 -0.00000000000E+00 -0.82678443741E+03  0.82678443741E+03  0.00000000000E+00 0.  1.
          6    1    1    2  501    0  0.38216757107E+03  0.15608724986E+03  0.53560401476E+03  0.69776137939E+03  0.17200000000E+03 0. -1.
         -6    1    1    2    0  503 -0.38216757107E+03 -0.15608724986E+03 -0.67865542036E+03  0.81275608982E+03  0.17200000000E+03 0.  1.
<mgrwt>
<rscale>  2 0.44721279E+03</rscale>
<asrwt>0</asrwt>
<pdfrwt beam="1">  1       21 0.17093326E+00 0.44721279E+03</pdfrwt>
<pdfrwt beam="2">  1       21 0.20669611E+00 0.44721279E+03</pdfrwt>
<totfact> 0.19479553E+01</totfact>
</mgrwt>
</event>
<event>
 4    1  0.1100959E+000  0.2790389E+03  0.7546771E-02  0.1096215E+00
         21   -1    0    0  501  502  0.00000000000E+00  0.00000000000E+00  0.62793744462E+03  0.62793744462E+03  0.00000000000E+00 0. -1.
         21   -1    0    0  502  503 -0.00000000000E+00 -0.00000000000E+00 -0.14364406233E+03  0.14364406233E+03  0.00000000000E+00 0. -1.
          6    1    1    2  501    0 -0.18687175315E+03  0.11557540914E+03  0.38482248877E+03  0.47534311311E+03  0.17200000000E+03 0. -1.
         -6    1    1    2    0  503  0.18687175315E+03 -0.11557540914E+03  0.99470893527E+02  0.29623839383E+03  0.17200000000E+03 0. -1.
<mgrwt>
<rscale>  2 0.27903894E+03</rscale>
<asrwt>0</asrwt>
<pdfrwt beam="1">  1       21 0.15698435E+00 0.27903894E+03</pdfrwt>
<pdfrwt beam="2">  1       21 0.35911017E-01 0.27903894E+03</pdfrwt>
<totfact> 0.18451530E+03</totfact>
</mgrwt>
</event>
<event>
 4    1  0.1100959E+000  0.1740072E+03  0.7546771E-02  0.1173732E+00
         21   -1    0    0  501  502  0.00000000000E+00  0.00000000000E+00  0.21488168701E+03  0.21488168701E+03  0.00000000000E+00 0. -1.
         21   -1    0    0  502  503 -0.00000000000E+00 -0.00000000000E+00 -0.15047978130E+03  0.15047978130E+03  0.00000000000E+00 0. -1.
          6    1    1    2  501    0 -0.26107939825E+02  0.35879702211E+01  0.78274898834E+02  0.19080214317E+03  0.17200000000E+03 0.  1.
         -6    1    1    2    0  503  0.26107939825E+02 -0.35879702211E+01 -0.13872993121E+02  0.17455932513E+03  0.17200000000E+03 0.  1.
<mgrwt>
<rscale>  2 0.17400718E+03</rscale>
<asrwt>0</asrwt>
<pdfrwt beam="1">  1       21 0.53720421E-01 0.17400718E+03</pdfrwt>
<pdfrwt beam="2">  1       21 0.37619946E-01 0.17400718E+03</pdfrwt>
<totfact> 0.22585207E+04</totfact>
</mgrwt>
</event>
<event>
 4    1  0.1100959E+000  0.1750693E+03  0.7546771E-02  0.1172662E+00
         21   -1    0    0  501  502  0.00000000000E+00  0.00000000000E+00  0.40817554931E+02  0.40817554931E+02  0.00000000000E+00 0.  1.
         21   -1    0    0  502  503 -0.00000000000E+00 -0.00000000000E+00 -0.10075548834E+04  0.10075548834E+04  0.00000000000E+00 0.  1.
          6    1    1    2  501    0 -0.52997500905E+00  0.32634216463E+02 -0.21879960843E+03  0.28021873886E+03  0.17200000000E+03 0.  1.
         -6    1    1    2    0  503  0.52997500905E+00 -0.32634216463E+02 -0.74793772001E+03  0.76815369945E+03  0.17200000000E+03 0.  1.
<mgrwt>
<rscale>  2 0.17506934E+03</rscale>
<asrwt>0</asrwt>
<pdfrwt beam="1">  1       21 0.10204389E-01 0.17506934E+03</pdfrwt>
<pdfrwt beam="2">  1       21 0.25188872E+00 0.17506934E+03</pdfrwt>
<totfact> 0.51720069E+03</totfact>
</mgrwt>
</event>
<event>
 4    1  0.1100959E+000  0.1930145E+03  0.7546771E-02  0.1155770E+00
         21   -1    0    0  503  502  0.00000000000E+00  0.00000000000E+00  0.23424975518E+03  0.23424975518E+03  0.00000000000E+00 0. -1.
         21   -1    0    0  501  503 -0.00000000000E+00 -0.00000000000E+00 -0.37384641622E+03  0.37384641622E+03  0.00000000000E+00 0.  1.
          6    1    1    2  501    0  0.87572871611E+02  0.12570742011E+01 -0.30027205215E+03  0.35695643064E+03  0.17200000000E+03 0.  1.
         -6    1    1    2    0  502 -0.87572871611E+02 -0.12570742011E+01  0.16067539111E+03  0.25113974075E+03  0.17200000000E+03 0. -1.
<mgrwt>
<rscale>  2 0.19301448E+03</rscale>
<asrwt>0</asrwt>
<pdfrwt beam="1">  1       21 0.58562439E-01 0.19301448E+03</pdfrwt>
<pdfrwt beam="2">  1       21 0.93461603E-01 0.19301448E+03</pdfrwt>
<totfact> 0.26260761E+03</totfact>
</mgrwt>
</event>
<event>
 4    1  0.1100959E+000  0.2498380E+03  0.7546771E-02  0.1113407E+00
         21   -1    0    0  501  502  0.00000000000E+00  0.00000000000E+00  0.25038827227E+03  0.25038827227E+03  0.00000000000E+00 0. -1.
         21   -1    0    0  502  503 -0.00000000000E+00 -0.00000000000E+00 -0.34433278092E+03  0.34433278092E+03  0.00000000000E+00 0. -1.
          6    1    1    2  501    0  0.16754787058E+03  0.69012487516E+02  0.10925480384E+03  0.27268227762E+03  0.17200000000E+03 0. -1.
         -6    1    1    2    0  503 -0.16754787058E+03 -0.69012487516E+02 -0.20319931249E+03  0.32203877556E+03  0.17200000000E+03 0. -1.
<mgrwt>
<rscale>  2 0.24983797E+03</rscale>
<asrwt>0</asrwt>
<pdfrwt beam="1">  1       21 0.62597068E-01 0.24983797E+03</pdfrwt>
<pdfrwt beam="2">  1       21 0.86083195E-01 0.24983797E+03</pdfrwt>
<totfact> 0.26329408E+03</totfact>
</mgrwt>
</event>
<event>
 4    1  0.1100959E+000  0.1772315E+03  0.7546771E-02  0.1170510E+00
         21   -1    0    0  503  502  0.00000000000E+00  0.00000000000E+00  0.40735957824E+02  0.40735957824E+02  0.00000000000E+00 0.  1.
         21   -1    0    0  501  503 -0.00000000000E+00 -0.00000000000E+00 -0.10738720147E+04  0.10738720147E+04  0.00000000000E+00 0.  1.
          6    1    1    2  501    0  0.35375768751E+02  0.23990655877E+02 -0.81249364697E+03  0.83159901572E+03  0.17200000000E+03 0.  1.
         -6    1    1    2    0  502 -0.35375768751E+02 -0.23990655877E+02 -0.22064240993E+03  0.28300895683E+03  0.17200000000E+03 0.  1.
<mgrwt>
<rscale>  2 0.17723148E+03</rscale>
<asrwt>0</asrwt>
<pdfrwt beam="1">  1       21 0.10183990E-01 0.17723148E+03</pdfrwt>
<pdfrwt beam="2">  1       21 0.26846799E+00 0.17723148E+03</pdfrwt>
<totfact> 0.41493598E+03</totfact>
</mgrwt>
</event>
<event>
 4    1  0.1100959E+000  0.2739918E+03  0.7546771E-02  0.1099016E+00
         21   -1    0    0  503  502  0.00000000000E+00  0.00000000000E+00  0.77047264181E+03  0.77047264181E+03  0.00000000000E+00 0. -1.
         21   -1    0    0  501  503 -0.00000000000E+00 -0.00000000000E+00 -0.12667390820E+03  0.12667390820E+03  0.00000000000E+00 0.  1.
          6    1    1    2  501    0 -0.48713147852E+02  0.20764045653E+03  0.10639042413E+03  0.29392252773E+03  0.17200000000E+03 0.  1.
         -6    1    1    2    0  502  0.48713147852E+02 -0.20764045653E+03  0.53740830948E+03  0.60322402228E+03  0.17200000000E+03 0. -1.
<mgrwt>
<rscale>  2 0.27399184E+03</rscale>
<asrwt>0</asrwt>
<pdfrwt beam="1">  1       21 0.19261815E+00 0.27399184E+03</pdfrwt>
<pdfrwt beam="2">  1       21 0.31668479E-01 0.27399184E+03</pdfrwt>
<totfact> 0.13346137E+03</totfact>
</mgrwt>
</event>
<event>
 4    1  0.1100959E+000  0.1824260E+03  0.7546771E-02  0.1165476E+00
         21   -1    0    0  503  502  0.00000000000E+00  0.00000000000E+00  0.72603729708E+02  0.72603729708E+02  0.00000000000E+00 0. -1.
         21   -1    0    0  501  503 -0.00000000000E+00 -0.00000000000E+00 -0.46158484570E+03  0.46158484570E+03  0.00000000000E+00 0. -1.
          6    1    1    2  501    0  0.15363073759E+02  0.58815253264E+02 -0.21678643161E+03  0.28332951661E+03  0.17200000000E+03 0. -1.
         -6    1    1    2    0  502 -0.15363073759E+02 -0.58815253264E+02 -0.17219468438E+03  0.25085905880E+03  0.17200000000E+03 0. -1.
<mgrwt>
<rscale>  2 0.18242603E+03</rscale>
<asrwt>0</asrwt>
<pdfrwt beam="1">  1       21 0.18150933E-01 0.18242603E+03</pdfrwt>
<pdfrwt beam="2">  1       21 0.11539621E+00 0.18242603E+03</pdfrwt>
<totfact> 0.16180581E+04</totfact>
</mgrwt>
</event>
