<event>
 4    1  0.8562541E-003  0.4006769E+03  0.7818608E-02  0.1043546E+00
         21   -1    0    0  503  502  0.00000000000E+00  0.00000000000E+00  0.70938433532E+03  0.70938433532E+03  0.00000000000E+00 0.  1.
         21   -1    0    0  501  503 -0.00000000000E+00 -0.00000000000E+00 -0.23139900145E+03  0.23139900145E+03  0.00000000000E+00 0.  1.
    9000005    1    1    2  501    0  0.13584971574E+02 -0.18905837138E+02  0.16924620518E+03  0.43495546910E+03  0.40000000000E+03 0. -1.
   -9000005    1    1    2    0  502 -0.13584971574E+02  0.18905837138E+02  0.30873912869E+03  0.50582786767E+03  0.40000000000E+03 0. -1.
<mgrwt>
<rscale>  2 0.40067690E+03</rscale>
<asrwt>0</asrwt>
<pdfrwt beam="1">  1       21 0.10913605E+00 0.40067690E+03</pdfrwt>
<pdfrwt beam="2">  1       21 0.35599847E-01 0.40067690E+03</pdfrwt>
<totfact> 0.45124116E+03</totfact>
</mgrwt>
</event>
<event>
 4    1  0.8562541E-003  0.4452519E+03  0.7818608E-02  0.1029148E+00
         21   -1    0    0  503  502  0.00000000000E+00  0.00000000000E+00  0.26627951955E+03  0.26627951955E+03  0.00000000000E+00 0.  1.
         21   -1    0    0  501  503 -0.00000000000E+00 -0.00000000000E+00 -0.10583153604E+04  0.10583153604E+04  0.00000000000E+00 0.  1.
    9000005    1    1    2  501    0 -0.11705745930E+03  0.15667410099E+03 -0.75665627891E+03  0.87793960334E+03  0.40000000000E+03 0.  1.
   -9000005    1    1    2    0  502  0.11705745930E+03 -0.15667410099E+03 -0.35379561922E+02  0.44665527658E+03  0.40000000000E+03 0.  1.
<mgrwt>
<rscale>  2 0.44525186E+03</rscale>
<asrwt>0</asrwt>
<pdfrwt beam="1">  1       21 0.40966079E-01 0.44525186E+03</pdfrwt>
<pdfrwt beam="2">  1       21 0.16281775E+00 0.44525186E+03</pdfrwt>
<totfact> 0.11666614E+03</totfact>
</mgrwt>
</event>
<event>
 4    1  0.8562541E-003  0.4014531E+03  0.7818608E-02  0.1043278E+00
         21   -1    0    0  501  502  0.00000000000E+00  0.00000000000E+00  0.39160064693E+03  0.39160064693E+03  0.00000000000E+00 0.  1.
         21   -1    0    0  502  503 -0.00000000000E+00 -0.00000000000E+00 -0.45112953631E+03  0.45112953631E+03  0.00000000000E+00 0.  1.
    9000005    1    1    2  501    0  0.13261817983E+02 -0.31443421711E+02  0.95038491313E+02  0.41254924484E+03  0.40000000000E+03 0.  1.
   -9000005    1    1    2    0  503 -0.13261817983E+02  0.31443421711E+02 -0.15456738069E+03  0.43018093840E+03  0.40000000000E+03 0.  1.
<mgrwt>
<rscale>  2 0.40145307E+03</rscale>
<asrwt>0</asrwt>
<pdfrwt beam="1">  1       21 0.60246254E-01 0.40145307E+03</pdfrwt>
<pdfrwt beam="2">  1       21 0.69404543E-01 0.40145307E+03</pdfrwt>
<totfact> 0.43281692E+03</totfact>
</mgrwt>
</event>
<event>
 4    1  0.8562541E-003  0.4117888E+03  0.7818608E-02  0.1039772E+00
         21   -1    0    0  501  502  0.00000000000E+00  0.00000000000E+00  0.11928619230E+03  0.11928619230E+03  0.00000000000E+00 0.  1.
         21   -1    0    0  502  503 -0.00000000000E+00 -0.00000000000E+00 -0.15468216538E+04  0.15468216538E+04  0.00000000000E+00 0.  1.
    9000005    1    1    2  501    0 -0.56960480751E+01  0.97660558531E+02 -0.47668623242E+03  0.62992046628E+03  0.40000000000E+03 0. -1.
   -9000005    1    1    2    0  503  0.56960480751E+01 -0.97660558531E+02 -0.95084922906E+03  0.10361873798E+04  0.40000000000E+03 0. -1.
<mgrwt>
<rscale>  2 0.41178882E+03</rscale>
<asrwt>0</asrwt>
<pdfrwt beam="1">  1       21 0.18351722E-01 0.41178882E+03</pdfrwt>
<pdfrwt beam="2">  1       21 0.23797256E+00 0.41178882E+03</pdfrwt>
<totfact> 0.18014999E+03</totfact>
</mgrwt>
</event>
<event>
 4    1  0.8562541E-003  0.4348352E+03  0.7818608E-02  0.1032343E+00
         21   -1    0    0  503  502  0.00000000000E+00  0.00000000000E+00  0.23806908973E+04  0.23806908973E+04  0.00000000000E+00 0.  1.
         21   -1    0    0  501  503 -0.00000000000E+00 -0.00000000000E+00 -0.80164751716E+02  0.80164751716E+02  0.00000000000E+00 0.  1.
    9000005    1    1    2  501    0 -0.16917765688E+03 -0.21460201407E+02  0.10319063656E+04  0.11197822856E+04  0.40000000000E+03 0.  1.
   -9000005    1    1    2    0  502  0.16917765688E+03  0.21460201407E+02  0.12686197800E+04  0.13410733634E+04  0.40000000000E+03 0.  1.
<mgrwt>
<rscale>  2 0.43483516E+03</rscale>
<asrwt>0</asrwt>
<pdfrwt beam="1">  1       21 0.36626009E+00 0.43483516E+03</pdfrwt>
<pdfrwt beam="2">  1       21 0.12333041E-01 0.43483516E+03</pdfrwt>
<totfact> 0.61929914E+02</totfact>
</mgrwt>
</event>
<event>
 4    1  0.8562541E-003  0.4469663E+03  0.7818608E-02  0.1028631E+00
         21   -1    0    0  503  502  0.00000000000E+00  0.00000000000E+00  0.17236826457E+04  0.17236826457E+04  0.00000000000E+00 0.  1.
         21   -1    0    0  501  503 -0.00000000000E+00 -0.00000000000E+00 -0.12524623420E+03  0.12524623420E+03  0.00000000000E+00 0.  1.
    9000005    1    1    2  501    0  0.19721416415E+03  0.29756723211E+02  0.54671242297E+03  0.70616808378E+03  0.40000000000E+03 0.  1.
   -9000005    1    1    2    0  502 -0.19721416415E+03 -0.29756723211E+02  0.10517239886E+04  0.11427607961E+04  0.40000000000E+03 0.  1.
<mgrwt>
<rscale>  2 0.44696632E+03</rscale>
<asrwt>0</asrwt>
<pdfrwt beam="1">  1       21 0.26518193E+00 0.44696632E+03</pdfrwt>
<pdfrwt beam="2">  1       21 0.19268653E-01 0.44696632E+03</pdfrwt>
<totfact> 0.10997883E+03</totfact>
</mgrwt>
</event>
<event>
 4    1  0.8562541E-003  0.4391988E+03  0.7818608E-02  0.1030993E+00
         21   -1    0    0  503  502  0.00000000000E+00  0.00000000000E+00  0.30964682564E+04  0.30964682564E+04  0.00000000000E+00 0.  1.
         21   -1    0    0  501  503 -0.00000000000E+00 -0.00000000000E+00 -0.69254130412E+02  0.69254130412E+02  0.00000000000E+00 0.  1.
    9000005    1    1    2  501    0  0.15371682540E+03 -0.96263876655E+02  0.10118582771E+04  0.11030651700E+04  0.40000000000E+03 0.  1.
   -9000005    1    1    2    0  502 -0.15371682540E+03  0.96263876655E+02  0.20153558489E+04  0.20626572168E+04  0.40000000000E+03 0.  1.
<mgrwt>
<rscale>  2 0.43919881E+03</rscale>
<asrwt>0</asrwt>
<pdfrwt beam="1">  1       21 0.47637963E+00 0.43919881E+03</pdfrwt>
<pdfrwt beam="2">  1       21 0.10654484E-01 0.43919881E+03</pdfrwt>
<totfact> 0.15241431E+02</totfact>
</mgrwt>
</event>
<event>
 4    1  0.8562541E-003  0.4721797E+03  0.7818608E-02  0.1021307E+00
         21   -1    0    0  501  502  0.00000000000E+00  0.00000000000E+00  0.38966678918E+03  0.38966678918E+03  0.00000000000E+00 0. -1.
         21   -1    0    0  502  503 -0.00000000000E+00 -0.00000000000E+00 -0.66513082173E+03  0.66513082173E+03  0.00000000000E+00 0.  1.
    9000005    1    1    2  501    0 -0.24745275196E+03 -0.41482326248E+02  0.59441038352E+02  0.47590638248E+03  0.40000000000E+03 0.  1.
   -9000005    1    1    2    0  503  0.24745275196E+03  0.41482326248E+02 -0.33490507090E+03  0.57889122844E+03  0.40000000000E+03 0.  1.
<mgrwt>
<rscale>  2 0.47217968E+03</rscale>
<asrwt>0</asrwt>
<pdfrwt beam="1">  1       21 0.59948738E-01 0.47217968E+03</pdfrwt>
<pdfrwt beam="2">  1       21 0.10232782E+00 0.47217968E+03</pdfrwt>
<totfact> 0.17202033E+03</totfact>
</mgrwt>
</event>
<event>
 4    1  0.8562541E-003  0.4157731E+03  0.7818608E-02  0.1038451E+00
         21   -1    0    0  501  502  0.00000000000E+00  0.00000000000E+00  0.19922285343E+03  0.19922285343E+03  0.00000000000E+00 0. -1.
         21   -1    0    0  502  503 -0.00000000000E+00 -0.00000000000E+00 -0.12767750788E+04  0.12767750788E+04  0.00000000000E+00 0. -1.
    9000005    1    1    2  501    0  0.88980220936E+02 -0.70354481660E+02 -0.12104588578E+03  0.43303503239E+03  0.40000000000E+03 0. -1.
   -9000005    1    1    2    0  503 -0.88980220936E+02  0.70354481660E+02 -0.95650633961E+03  0.10429628999E+04  0.40000000000E+03 0. -1.
<mgrwt>
<rscale>  2 0.41577305E+03</rscale>
<asrwt>0</asrwt>
<pdfrwt beam="1">  1       21 0.30649670E-01 0.41577305E+03</pdfrwt>
<pdfrwt beam="2">  1       21 0.19642694E+00 0.41577305E+03</pdfrwt>
<totfact> 0.12326219E+03</totfact>
</mgrwt>
</event>
<event>
 4    1  0.8562541E-003  0.7362787E+03  0.7818608E-02  0.9657126E-01
         21   -1    0    0  501  502  0.00000000000E+00  0.00000000000E+00  0.34130936076E+03  0.34130936076E+03  0.00000000000E+00 0. -1.
         21   -1    0    0  502  503 -0.00000000000E+00 -0.00000000000E+00 -0.16618062931E+04  0.16618062931E+04  0.00000000000E+00 0.  1.
    9000005    1    1    2  501    0  0.36462657255E+03  0.49915302367E+03 -0.44962435142E+03  0.86270987929E+03  0.40000000000E+03 0.  1.
   -9000005    1    1    2    0  503 -0.36462657255E+03 -0.49915302367E+03 -0.87087258092E+03  0.11404057746E+04  0.40000000000E+03 0.  1.
<mgrwt>
<rscale>  2 0.73627867E+03</rscale>
<asrwt>0</asrwt>
<pdfrwt beam="1">  1       21 0.52509134E-01 0.73627867E+03</pdfrwt>
<pdfrwt beam="2">  1       21 0.25566250E+00 0.73627867E+03</pdfrwt>
<totfact> 0.14775802E+02</totfact>
</mgrwt>
</event>
<event>
 4    1  0.8562541E-003  0.4189833E+03  0.7818608E-02  0.1037398E+00
         21   -1    0    0  503  502  0.00000000000E+00  0.00000000000E+00  0.98304132001E+03  0.98304132001E+03  0.00000000000E+00 0. -1.
         21   -1    0    0  501  503 -0.00000000000E+00 -0.00000000000E+00 -0.17966950740E+03  0.17966950740E+03  0.00000000000E+00 0. -1.
    9000005    1    1    2  501    0 -0.96967491940E+00 -0.12468384105E+03  0.44705225153E+03  0.61270116377E+03  0.40000000000E+03 0.  1.
   -9000005    1    1    2    0  502  0.96967491940E+00  0.12468384105E+03  0.35631956109E+03  0.55000966364E+03  0.40000000000E+03 0.  1.
<mgrwt>
<rscale>  2 0.41898329E+03</rscale>
<asrwt>0</asrwt>
<pdfrwt beam="1">  1       21 0.15123712E+00 0.41898329E+03</pdfrwt>
<pdfrwt beam="2">  1       21 0.27641463E-01 0.41898329E+03</pdfrwt>
<totfact> 0.31927856E+03</totfact>
</mgrwt>
</event>
<event>
 4    1  0.8562541E-003  0.4829012E+03  0.7818608E-02  0.1018341E+00
         21   -1    0    0  503  502  0.00000000000E+00  0.00000000000E+00  0.12859025148E+04  0.12859025148E+04  0.00000000000E+00 0. -1.
         21   -1    0    0  501  503 -0.00000000000E+00 -0.00000000000E+00 -0.20699190034E+03  0.20699190034E+03  0.00000000000E+00 0.  1.
    9000005    1    1    2  501    0 -0.26436134075E+03 -0.57503166166E+02  0.27671317691E+03  0.55656420553E+03  0.40000000000E+03 0.  1.
   -9000005    1    1    2    0  502  0.26436134075E+03  0.57503166166E+02  0.80219743752E+03  0.93633020958E+03  0.40000000000E+03 0. -1.
<mgrwt>
<rscale>  2 0.48290116E+03</rscale>
<asrwt>0</asrwt>
<pdfrwt beam="1">  1       21 0.19783115E+00 0.48290116E+03</pdfrwt>
<pdfrwt beam="2">  1       21 0.31844909E-01 0.48290116E+03</pdfrwt>
<totfact> 0.10840345E+03</totfact>
</mgrwt>
</event>
<event>
 4    1  0.8562541E-003  0.4610474E+03  0.7818608E-02  0.1024478E+00
         21   -1    0    0  501  502  0.00000000000E+00  0.00000000000E+00  0.97982354996E+03  0.97982354996E+03  0.00000000000E+00 0.  1.
         21   -1    0    0  502  503 -0.00000000000E+00 -0.00000000000E+00 -0.40586948047E+03  0.40586948047E+03  0.00000000000E+00 0.  1.
    9000005    1    1    2  501    0  0.21658848880E+03  0.75193679921E+02  0.75968362910E+03  0.88864159215E+03  0.40000000000E+03 0.  1.
   -9000005    1    1    2    0  503 -0.21658848880E+03 -0.75193679921E+02 -0.18572955961E+03  0.49705143828E+03  0.40000000000E+03 0.  1.
<mgrwt>
<rscale>  2 0.46104735E+03</rscale>
<asrwt>0</asrwt>
<pdfrwt beam="1">  1       21 0.15074208E+00 0.46104735E+03</pdfrwt>
<pdfrwt beam="2">  1       21 0.62441459E-01 0.46104735E+03</pdfrwt>
<totfact> 0.58326858E+02</totfact>
</mgrwt>
</event>
<event>
 4    1  0.8562541E-003  0.5761734E+03  0.7818608E-02  0.9956110E-01
         21   -1    0    0  503  502  0.00000000000E+00  0.00000000000E+00  0.11575677443E+04  0.11575677443E+04  0.00000000000E+00 0.  1.
         21   -1    0    0  501  503 -0.00000000000E+00 -0.00000000000E+00 -0.28791510354E+03  0.28791510354E+03  0.00000000000E+00 0.  1.
    9000005    1    1    2  501    0  0.76082399092E+02  0.40766072706E+03  0.48005933083E+03  0.74995517263E+03  0.40000000000E+03 0.  1.
   -9000005    1    1    2    0  502 -0.76082399092E+02 -0.40766072706E+03  0.38959330993E+03  0.69552767521E+03  0.40000000000E+03 0.  1.
<mgrwt>
<rscale>  2 0.57617341E+03</rscale>
<asrwt>0</asrwt>
<pdfrwt beam="1">  1       21 0.17808734E+00 0.57617341E+03</pdfrwt>
<pdfrwt beam="2">  1       21 0.44294632E-01 0.57617341E+03</pdfrwt>
<totfact> 0.72866286E+02</totfact>
</mgrwt>
</event>
<event>
 4    1  0.8562541E-003  0.4603558E+03  0.7818608E-02  0.1024678E+00
         21   -1    0    0  501  502  0.00000000000E+00  0.00000000000E+00  0.67715966183E+03  0.67715966183E+03  0.00000000000E+00 0.  1.
         21   -1    0    0  502  503 -0.00000000000E+00 -0.00000000000E+00 -0.31311894807E+03  0.31311894807E+03  0.00000000000E+00 0.  1.
    9000005    1    1    2  501    0  0.44081050400E+02  0.22357175583E+03  0.19298898606E+03  0.49917153139E+03  0.40000000000E+03 0.  1.
   -9000005    1    1    2    0  503 -0.44081050400E+02 -0.22357175583E+03  0.17105172771E+03  0.49110707851E+03  0.40000000000E+03 0.  1.
<mgrwt>
<rscale>  2 0.46035581E+03</rscale>
<asrwt>0</asrwt>
<pdfrwt beam="1">  1       21 0.10417841E+00 0.46035581E+03</pdfrwt>
<pdfrwt beam="2">  1       21 0.48172146E-01 0.46035581E+03</pdfrwt>
<totfact> 0.26477698E+03</totfact>
</mgrwt>
</event>
<event>
 4    1  0.8562541E-003  0.5389012E+03  0.7818608E-02  0.1004096E+00
         21   -1    0    0  503  502  0.00000000000E+00  0.00000000000E+00  0.59989244986E+03  0.59989244986E+03  0.00000000000E+00 0. -1.
         21   -1    0    0  501  503 -0.00000000000E+00 -0.00000000000E+00 -0.50502985610E+03  0.50502985610E+03  0.00000000000E+00 0.  1.
    9000005    1    1    2  501    0 -0.10805712513E+02  0.36096774679E+03 -0.65006714708E+02  0.54280783948E+03  0.40000000000E+03 0. -1.
   -9000005    1    1    2    0  502  0.10805712513E+02 -0.36096774679E+03  0.15986930846E+03  0.56211446648E+03  0.40000000000E+03 0.  1.
<mgrwt>
<rscale>  2 0.53890118E+03</rscale>
<asrwt>0</asrwt>
<pdfrwt beam="1">  1       21 0.92291147E-01 0.53890118E+03</pdfrwt>
<pdfrwt beam="2">  1       21 0.77696900E-01 0.53890118E+03</pdfrwt>
<totfact> 0.12043665E+03</totfact>
</mgrwt>
</event>
<event>
 4    1  0.8562541E-003  0.4528111E+03  0.7818608E-02  0.1026887E+00
         21   -1    0    0  501  502  0.00000000000E+00  0.00000000000E+00  0.36774048613E+03  0.36774048613E+03  0.00000000000E+00 0.  1.
         21   -1    0    0  502  503 -0.00000000000E+00 -0.00000000000E+00 -0.70962363686E+03  0.70962363686E+03  0.00000000000E+00 0. -1.
    9000005    1    1    2  501    0  0.20676074110E+03 -0.47831510524E+02 -0.42030303455E+03  0.61781267251E+03  0.40000000000E+03 0. -1.
   -9000005    1    1    2    0  503 -0.20676074110E+03  0.47831510524E+02  0.78419883814E+02  0.45955145048E+03  0.40000000000E+03 0.  1.
<mgrwt>
<rscale>  2 0.45281106E+03</rscale>
<asrwt>0</asrwt>
<pdfrwt beam="1">  1       21 0.56575459E-01 0.45281106E+03</pdfrwt>
<pdfrwt beam="2">  1       21 0.10917287E+00 0.45281106E+03</pdfrwt>
<totfact> 0.16760891E+03</totfact>
</mgrwt>
</event>
<event>
 4    1  0.8562541E-003  0.4162500E+03  0.7818608E-02  0.1038294E+00
         21   -1    0    0  501  502  0.00000000000E+00  0.00000000000E+00  0.37447220997E+03  0.37447220997E+03  0.00000000000E+00 0. -1.
         21   -1    0    0  502  503 -0.00000000000E+00 -0.00000000000E+00 -0.64478162612E+03  0.64478162612E+03  0.00000000000E+00 0. -1.
    9000005    1    1    2  501    0  0.27619684145E+02  0.11180885251E+03  0.13567266003E+03  0.43780262349E+03  0.40000000000E+03 0. -1.
   -9000005    1    1    2    0  503 -0.27619684145E+02 -0.11180885251E+03 -0.40598207619E+03  0.58145121260E+03  0.40000000000E+03 0. -1.
<mgrwt>
<rscale>  2 0.41625000E+03</rscale>
<asrwt>0</asrwt>
<pdfrwt beam="1">  1       21 0.57611110E-01 0.41625000E+03</pdfrwt>
<pdfrwt beam="2">  1       21 0.99197171E-01 0.41625000E+03</pdfrwt>
<totfact> 0.20680275E+03</totfact>
</mgrwt>
</event>
<event>
 4    1  0.8562541E-003  0.4327543E+03  0.7818608E-02  0.1032993E+00
         21   -1    0    0  501  502  0.00000000000E+00  0.00000000000E+00  0.87522498825E+03  0.87522498825E+03  0.00000000000E+00 0. -1.
         21   -1    0    0  502  503 -0.00000000000E+00 -0.00000000000E+00 -0.31339768114E+03  0.31339768114E+03  0.00000000000E+00 0.  1.
    9000005    1    1    2  501    0  0.10758005167E+03 -0.12531079961E+03  0.61565462043E+03  0.75253363757E+03  0.40000000000E+03 0. -1.
   -9000005    1    1    2    0  503 -0.10758005167E+03  0.12531079961E+03 -0.53827313316E+02  0.43608903182E+03  0.40000000000E+03 0.  1.
<mgrwt>
<rscale>  2 0.43275428E+03</rscale>
<asrwt>0</asrwt>
<pdfrwt beam="1">  1       21 0.13465000E+00 0.43275428E+03</pdfrwt>
<pdfrwt beam="2">  1       21 0.48215028E-01 0.43275428E+03</pdfrwt>
<totfact> 0.13953227E+03</totfact>
</mgrwt>
</event>
<event>
 4    1  0.8562541E-003  0.4005698E+03  0.7818608E-02  0.1043583E+00
         21   -1    0    0  503  502  0.00000000000E+00  0.00000000000E+00  0.13004918811E+03  0.13004918811E+03  0.00000000000E+00 0. -1.
         21   -1    0    0  501  503 -0.00000000000E+00 -0.00000000000E+00 -0.16675531958E+04  0.16675531958E+04  0.00000000000E+00 0. -1.
    9000005    1    1    2  501    0 -0.10295808974E+02  0.18711573753E+02 -0.12271467147E+04  0.12908699338E+04  0.40000000000E+03 0. -1.
   -9000005    1    1    2    0  502  0.10295808974E+02 -0.18711573753E+02 -0.31035729306E+03  0.50673245014E+03  0.40000000000E+03 0. -1.
<mgrwt>
<rscale>  2 0.40056975E+03</rscale>
<asrwt>0</asrwt>
<pdfrwt beam="1">  1       21 0.20007568E-01 0.40056975E+03</pdfrwt>
<pdfrwt beam="2">  1       21 0.25654664E+00 0.40056975E+03</pdfrwt>
<totfact> 0.11841856E+03</totfact>
</mgrwt>
</event>
<event>
 4    1  0.8562541E-003  0.4913902E+03  0.7818608E-02  0.1016051E+00
         21   -1    0    0  501  502  0.00000000000E+00  0.00000000000E+00  0.22378524029E+03  0.22378524029E+03  0.00000000000E+00 0. -1.
         21   -1    0    0  502  503 -0.00000000000E+00 -0.00000000000E+00 -0.11586917840E+04  0.11586917840E+04  0.00000000000E+00 0. -1.
    9000005    1    1    2  501    0  0.10257422719E+03 -0.26635100715E+03 -0.28617320788E+03  0.56864702233E+03  0.40000000000E+03 0. -1.
   -9000005    1    1    2    0  503 -0.10257422719E+03  0.26635100715E+03 -0.64873333583E+03  0.81383000197E+03  0.40000000000E+03 0. -1.
<mgrwt>
<rscale>  2 0.49139020E+03</rscale>
<asrwt>0</asrwt>
<pdfrwt beam="1">  1       21 0.34428498E-01 0.49139020E+03</pdfrwt>
<pdfrwt beam="2">  1       21 0.17826028E+00 0.49139020E+03</pdfrwt>
<totfact> 0.12603696E+03</totfact>
</mgrwt>
</event>
<event>
 4    1  0.8562541E-003  0.5148749E+03  0.7818608E-02  0.1009968E+00
         21   -1    0    0  501  502  0.00000000000E+00  0.00000000000E+00  0.12705432611E+04  0.12705432611E+04  0.00000000000E+00 0.  1.
         21   -1    0    0  502  503 -0.00000000000E+00 -0.00000000000E+00 -0.21356070541E+03  0.21356070541E+03  0.00000000000E+00 0.  1.
    9000005    1    1    2  501    0  0.29752265849E+02  0.32281727843E+03  0.64103936418E+03  0.82220901175E+03  0.40000000000E+03 0.  1.
   -9000005    1    1    2    0  503 -0.29752265849E+02 -0.32281727843E+03  0.41594319153E+03  0.66189495478E+03  0.40000000000E+03 0.  1.
<mgrwt>
<rscale>  2 0.51487493E+03</rscale>
<asrwt>0</asrwt>
<pdfrwt beam="1">  1       21 0.19546819E+00 0.51487493E+03</pdfrwt>
<pdfrwt beam="2">  1       21 0.32855494E-01 0.51487493E+03</pdfrwt>
<totfact> 0.10426428E+03</totfact>
</mgrwt>
</event>
<event>
 4    1  0.8562541E-003  0.4045701E+03  0.7818608E-02  0.1042209E+00
         21   -1    0    0  503  502  0.00000000000E+00  0.00000000000E+00  0.14795800020E+04  0.14795800020E+04  0.00000000000E+00 0.  1.
         21   -1    0    0  501  503 -0.00000000000E+00 -0.00000000000E+00 -0.11062706334E+03  0.11062706334E+03  0.00000000000E+00 0.  1.
    9000005    1    1    2  501    0  0.60478835844E+02  0.43871269672E+01  0.68023668997E+03  0.79145365679E+03  0.40000000000E+03 0.  1.
   -9000005    1    1    2    0  502 -0.60478835844E+02 -0.43871269672E+01  0.68871624868E+03  0.79875340854E+03  0.40000000000E+03 0.  1.
<mgrwt>
<rscale>  2 0.40457006E+03</rscale>
<asrwt>0</asrwt>
<pdfrwt beam="1">  1       21 0.22762768E+00 0.40457006E+03</pdfrwt>
<pdfrwt beam="2">  1       21 0.17019549E-01 0.40457006E+03</pdfrwt>
<totfact> 0.24167453E+03</totfact>
</mgrwt>
</event>
<event>
 4    1  0.8562541E-003  0.5661110E+03  0.7818608E-02  0.9978321E-01
         21   -1    0    0  503  502  0.00000000000E+00  0.00000000000E+00  0.11696355995E+04  0.11696355995E+04  0.00000000000E+00 0.  1.
         21   -1    0    0  501  503 -0.00000000000E+00 -0.00000000000E+00 -0.44385896915E+03  0.44385896915E+03  0.00000000000E+00 0. -1.
    9000005    1    1    2  501    0 -0.23195600413E+03  0.32661613904E+03 -0.13617721578E+03  0.58225932730E+03  0.40000000000E+03 0. -1.
   -9000005    1    1    2    0  502  0.23195600413E+03 -0.32661613904E+03  0.86195384611E+03  0.10312352413E+04  0.40000000000E+03 0.  1.
<mgrwt>
<rscale>  2 0.56611102E+03</rscale>
<asrwt>0</asrwt>
<pdfrwt beam="1">  1       21 0.17994394E+00 0.56611102E+03</pdfrwt>
<pdfrwt beam="2">  1       21 0.68285996E-01 0.56611102E+03</pdfrwt>
<totfact> 0.27697706E+02</totfact>
</mgrwt>
</event>
<event>
 4    1  0.8562541E-003  0.4770578E+03  0.7818608E-02  0.1019947E+00
         21   -1    0    0  501  502  0.00000000000E+00  0.00000000000E+00  0.12934318092E+04  0.12934318092E+04  0.00000000000E+00 0. -1.
         21   -1    0    0  502  503 -0.00000000000E+00 -0.00000000000E+00 -0.30562893751E+03  0.30562893751E+03  0.00000000000E+00 0. -1.
    9000005    1    1    2  501    0  0.25816923268E+03  0.30541601123E+02  0.10146957315E+04  0.11212455439E+04  0.40000000000E+03 0. -1.
   -9000005    1    1    2    0  503 -0.25816923268E+03 -0.30541601123E+02 -0.26892859882E+02  0.47781520279E+03  0.40000000000E+03 0. -1.
<mgrwt>
<rscale>  2 0.47705780E+03</rscale>
<asrwt>0</asrwt>
<pdfrwt beam="1">  1       21 0.19898951E+00 0.47705780E+03</pdfrwt>
<pdfrwt beam="2">  1       21 0.47019837E-01 0.47705780E+03</pdfrwt>
<totfact> 0.47934288E+02</totfact>
</mgrwt>
</event>
<event>
 4    1  0.8562541E-003  0.4174574E+03  0.7818608E-02  0.1037897E+00
         21   -1    0    0  503  502  0.00000000000E+00  0.00000000000E+00  0.10916119201E+04  0.10916119201E+04  0.00000000000E+00 0.  1.
         21   -1    0    0  501  503 -0.00000000000E+00 -0.00000000000E+00 -0.15982210427E+03  0.15982210427E+03  0.00000000000E+00 0.  1.
    9000005    1    1    2  501    0  0.93056899054E+02  0.74907081185E+02  0.44508031068E+03  0.61021892812E+03  0.40000000000E+03 0. -1.
   -9000005    1    1    2    0  502 -0.93056899054E+02 -0.74907081185E+02  0.48670950518E+03  0.64121509629E+03  0.40000000000E+03 0. -1.
<mgrwt>
<rscale>  2 0.41745737E+03</rscale>
<asrwt>0</asrwt>
<pdfrwt beam="1">  1       21 0.16794029E+00 0.41745737E+03</pdfrwt>
<pdfrwt beam="2">  1       21 0.24588017E-01 0.41745737E+03</pdfrwt>
<totfact> 0.30026716E+03</totfact>
</mgrwt>
</event>
<event>
 4    1  0.8562541E-003  0.4004134E+03  0.7818608E-02  0.1043637E+00
         21   -1    0    0  503  502  0.00000000000E+00  0.00000000000E+00  0.24432131244E+04  0.24432131244E+04  0.00000000000E+00 0.  1.
         21   -1    0    0  501  503 -0.00000000000E+00 -0.00000000000E+00 -0.11687314545E+03  0.11687314545E+03  0.00000000000E+00 0.  1.
    9000005    1    1    2  501    0  0.14742957489E+02 -0.10656945891E+02  0.31552328948E+03  0.50979002687E+03  0.40000000000E+03 0.  1.
   -9000005    1    1    2    0  502 -0.14742957489E+02  0.10656945891E+02  0.20108166895E+04  0.20502962430E+04  0.40000000000E+03 0.  1.
<mgrwt>
<rscale>  2 0.40041344E+03</rscale>
<asrwt>0</asrwt>
<pdfrwt beam="1">  1       21 0.37587890E+00 0.40041344E+03</pdfrwt>
<pdfrwt beam="2">  1       21 0.17980486E-01 0.40041344E+03</pdfrwt>
<totfact> 0.27480487E+02</totfact>
</mgrwt>
</event>
<event>
 4    1  0.8562541E-003  0.4454046E+03  0.7818608E-02  0.1029101E+00
         21   -1    0    0  503  502  0.00000000000E+00  0.00000000000E+00  0.27636773011E+04  0.27636773011E+04  0.00000000000E+00 0. -1.
         21   -1    0    0  501  503 -0.00000000000E+00 -0.00000000000E+00 -0.77836631625E+02  0.77836631625E+02  0.00000000000E+00 0. -1.
    9000005    1    1    2  501    0 -0.18069685914E+03  0.75722413549E+02  0.17391375048E+04  0.17952672501E+04  0.40000000000E+03 0. -1.
   -9000005    1    1    2    0  502  0.18069685914E+03 -0.75722413549E+02  0.94670316469E+03  0.10462466826E+04  0.40000000000E+03 0. -1.
<mgrwt>
<rscale>  2 0.44540458E+03</rscale>
<asrwt>0</asrwt>
<pdfrwt beam="1">  1       21 0.42518105E+00 0.44540458E+03</pdfrwt>
<pdfrwt beam="2">  1       21 0.11974869E-01 0.44540458E+03</pdfrwt>
<totfact> 0.27283928E+02</totfact>
</mgrwt>
</event>
<event>
 4    1  0.8562541E-003  0.5144463E+03  0.7818608E-02  0.1010076E+00
         21   -1    0    0  501  502  0.00000000000E+00  0.00000000000E+00  0.10328158968E+04  0.10328158968E+04  0.00000000000E+00 0. -1.
         21   -1    0    0  502  503 -0.00000000000E+00 -0.00000000000E+00 -0.34454415093E+03  0.34454415093E+03  0.00000000000E+00 0. -1.
    9000005    1    1    2  501    0 -0.11662626566E+03  0.30175046117E+03  0.69277060332E+03  0.86289404650E+03  0.40000000000E+03 0. -1.
   -9000005    1    1    2    0  503  0.11662626566E+03 -0.30175046117E+03 -0.44988574913E+01  0.51446600118E+03  0.40000000000E+03 0. -1.
<mgrwt>
<rscale>  2 0.51444633E+03</rscale>
<asrwt>0</asrwt>
<pdfrwt beam="1">  1       21 0.15889475E+00 0.51444633E+03</pdfrwt>
<pdfrwt beam="2">  1       21 0.53006793E-01 0.51444633E+03</pdfrwt>
<totfact> 0.70507263E+02</totfact>
</mgrwt>
</event>
<event>
 4    1  0.8562541E-003  0.5790904E+03  0.7818608E-02  0.9949762E-01
         21   -1    0    0  501  502  0.00000000000E+00  0.00000000000E+00  0.33358860633E+03  0.33358860633E+03  0.00000000000E+00 0.  1.
         21   -1    0    0  502  503 -0.00000000000E+00 -0.00000000000E+00 -0.10079000777E+04  0.10079000777E+04  0.00000000000E+00 0.  1.
    9000005    1    1    2  501    0  0.23922310383E+02 -0.41805907793E+03 -0.30287364898E+03  0.65351213977E+03  0.40000000000E+03 0.  1.
   -9000005    1    1    2    0  503 -0.23922310383E+02  0.41805907793E+03 -0.37143782242E+03  0.68797654429E+03  0.40000000000E+03 0.  1.
<mgrwt>
<rscale>  2 0.57909038E+03</rscale>
<asrwt>0</asrwt>
<pdfrwt beam="1">  1       21 0.51321325E-01 0.57909038E+03</pdfrwt>
<pdfrwt beam="2">  1       21 0.15506155E+00 0.57909038E+03</pdfrwt>
<totfact> 0.79029148E+02</totfact>
</mgrwt>
</event>
<event>
 4    1  0.8562541E-003  0.6179038E+03  0.7818608E-02  0.9868942E-01
         21   -1    0    0  501  502  0.00000000000E+00  0.00000000000E+00  0.43299072684E+03  0.43299072684E+03  0.00000000000E+00 0. -1.
         21   -1    0    0  502  503 -0.00000000000E+00 -0.00000000000E+00 -0.88270475407E+03  0.88270475407E+03  0.00000000000E+00 0.  1.
    9000005    1    1    2  501    0 -0.30026643888E+03  0.36282940852E+03 -0.20363224464E+03  0.65059296420E+03  0.40000000000E+03 0.  1.
   -9000005    1    1    2    0  503  0.30026643888E+03 -0.36282940852E+03 -0.24608178259E+03  0.66510251671E+03  0.40000000000E+03 0. -1.
<mgrwt>
<rscale>  2 0.61790381E+03</rscale>
<asrwt>0</asrwt>
<pdfrwt beam="1">  1       21 0.66613959E-01 0.61790381E+03</pdfrwt>
<pdfrwt beam="2">  1       21 0.13580073E+00 0.61790381E+03</pdfrwt>
<totfact> 0.63080310E+02</totfact>
</mgrwt>
</event>
<event>
 4    1  0.8562541E-003  0.4492130E+03  0.7818608E-02  0.1027957E+00
         21   -1    0    0  503  502  0.00000000000E+00  0.00000000000E+00  0.16806176666E+03  0.16806176666E+03  0.00000000000E+00 0.  1.
         21   -1    0    0  501  503 -0.00000000000E+00 -0.00000000000E+00 -0.12225693569E+04  0.12225693569E+04  0.00000000000E+00 0.  1.
    9000005    1    1    2  501    0  0.82831134723E+00  0.20443008991E+03 -0.62024217138E+03  0.76582811317E+03  0.40000000000E+03 0.  1.
   -9000005    1    1    2    0  502 -0.82831134723E+00 -0.20443008991E+03 -0.43426541884E+03  0.62480301036E+03  0.40000000000E+03 0.  1.
<mgrwt>
<rscale>  2 0.44921303E+03</rscale>
<asrwt>0</asrwt>
<pdfrwt beam="1">  1       21 0.25855655E-01 0.44921303E+03</pdfrwt>
<pdfrwt beam="2">  1       21 0.18808760E+00 0.44921303E+03</pdfrwt>
<totfact> 0.19342093E+03</totfact>
</mgrwt>
</event>
<event>
 4    1  0.8562541E-003  0.4653806E+03  0.7818608E-02  0.1023232E+00
         21   -1    0    0  503  502  0.00000000000E+00  0.00000000000E+00  0.80771772754E+03  0.80771772754E+03  0.00000000000E+00 0.  1.
         21   -1    0    0  501  503 -0.00000000000E+00 -0.00000000000E+00 -0.36873528178E+03  0.36873528178E+03  0.00000000000E+00 0.  1.
    9000005    1    1    2  501    0  0.21724177842E+03 -0.96876614309E+02 -0.87752035542E+02  0.47358155415E+03  0.40000000000E+03 0. -1.
   -9000005    1    1    2    0  502 -0.21724177842E+03  0.96876614309E+02  0.52673448130E+03  0.70287145516E+03  0.40000000000E+03 0. -1.
<mgrwt>
<rscale>  2 0.46538056E+03</rscale>
<asrwt>0</asrwt>
<pdfrwt beam="1">  1       21 0.12426427E+00 0.46538056E+03</pdfrwt>
<pdfrwt beam="2">  1       21 0.56728505E-01 0.46538056E+03</pdfrwt>
<totfact> 0.11966168E+03</totfact>
</mgrwt>
</event>
<event>
 4    1  0.8562541E-003  0.5555068E+03  0.7818608E-02  0.1000227E+00
         21   -1    0    0  501  502  0.00000000000E+00  0.00000000000E+00  0.15451373362E+04  0.15451373362E+04  0.00000000000E+00 0.  1.
         21   -1    0    0  502  503 -0.00000000000E+00 -0.00000000000E+00 -0.27011384770E+03  0.27011384770E+03  0.00000000000E+00 0. -1.
    9000005    1    1    2  501    0  0.23519617706E+02 -0.38475265143E+03  0.11008676918E+04  0.12330845267E+04  0.40000000000E+03 0. -1.
   -9000005    1    1    2    0  503 -0.23519617706E+02  0.38475265143E+03  0.17415579671E+03  0.58216665718E+03  0.40000000000E+03 0. -1.
<mgrwt>
<rscale>  2 0.55550677E+03</rscale>
<asrwt>0</asrwt>
<pdfrwt beam="1">  1       21 0.23771343E+00 0.55550677E+03</pdfrwt>
<pdfrwt beam="2">  1       21 0.41555978E-01 0.55550677E+03</pdfrwt>
<totfact> 0.33695474E+02</totfact>
</mgrwt>
</event>
<event>
 4    1  0.8562541E-003  0.4115058E+03  0.7818608E-02  0.1039867E+00
         21   -1    0    0  503  502  0.00000000000E+00  0.00000000000E+00  0.11371053293E+04  0.11371053293E+04  0.00000000000E+00 0. -1.
         21   -1    0    0  501  503 -0.00000000000E+00 -0.00000000000E+00 -0.15910290498E+03  0.15910290498E+03  0.00000000000E+00 0. -1.
    9000005    1    1    2  501    0  0.89377946107E+02  0.36723022222E+02  0.65296774905E+03  0.77181855310E+03  0.40000000000E+03 0. -1.
   -9000005    1    1    2    0  502 -0.89377946107E+02 -0.36723022222E+02  0.32503467530E+03  0.52438968121E+03  0.40000000000E+03 0. -1.
<mgrwt>
<rscale>  2 0.41150577E+03</rscale>
<asrwt>0</asrwt>
<pdfrwt beam="1">  1       21 0.17493928E+00 0.41150577E+03</pdfrwt>
<pdfrwt beam="2">  1       21 0.24477371E-01 0.41150577E+03</pdfrwt>
<totfact> 0.27031836E+03</totfact>
</mgrwt>
</event>
<event>
 4    1  0.8562541E-003  0.4192310E+03  0.7818608E-02  0.1037317E+00
         21   -1    0    0  503  502  0.00000000000E+00  0.00000000000E+00  0.15713416272E+04  0.15713416272E+04  0.00000000000E+00 0. -1.
         21   -1    0    0  501  503 -0.00000000000E+00 -0.00000000000E+00 -0.12763312700E+03  0.12763312700E+03  0.00000000000E+00 0. -1.
    9000005    1    1    2  501    0 -0.43569236906E+02  0.11771309153E+03  0.42312966357E+03  0.59564533283E+03  0.40000000000E+03 0. -1.
   -9000005    1    1    2    0  502  0.43569236906E+02 -0.11771309153E+03  0.10205788366E+04  0.11033294214E+04  0.40000000000E+03 0. -1.
<mgrwt>
<rscale>  2 0.41923102E+03</rscale>
<asrwt>0</asrwt>
<pdfrwt beam="1">  1       21 0.24174485E+00 0.41923102E+03</pdfrwt>
<pdfrwt beam="2">  1       21 0.19635867E-01 0.41923102E+03</pdfrwt>
<totfact> 0.14967296E+03</totfact>
</mgrwt>
</event>
<event>
 4    1  0.8562541E-003  0.5241825E+03  0.7818608E-02  0.1007653E+00
         21   -1    0    0  503  502  0.00000000000E+00  0.00000000000E+00  0.61183111526E+03  0.61183111526E+03  0.00000000000E+00 0.  1.
         21   -1    0    0  501  503 -0.00000000000E+00 -0.00000000000E+00 -0.47941067208E+03  0.47941067208E+03  0.00000000000E+00 0. -1.
    9000005    1    1    2  501    0 -0.11305118090E+03 -0.31935366254E+03  0.20342643643E+03  0.56227186158E+03  0.40000000000E+03 0.  1.
   -9000005    1    1    2    0  502  0.11305118090E+03  0.31935366254E+03 -0.71005993255E+02  0.52896992576E+03  0.40000000000E+03 0.  1.
<mgrwt>
<rscale>  2 0.52418254E+03</rscale>
<asrwt>0</asrwt>
<pdfrwt beam="1">  1       21 0.94127864E-01 0.52418254E+03</pdfrwt>
<pdfrwt beam="2">  1       21 0.73755488E-01 0.52418254E+03</pdfrwt>
<totfact> 0.13009017E+03</totfact>
</mgrwt>
</event>
<event>
 4    1  0.8562541E-003  0.4458435E+03  0.7818608E-02  0.1028969E+00
         21   -1    0    0  501  502  0.00000000000E+00  0.00000000000E+00  0.12921428935E+04  0.12921428935E+04  0.00000000000E+00 0.  1.
         21   -1    0    0  502  503 -0.00000000000E+00 -0.00000000000E+00 -0.15671589132E+03  0.15671589132E+03  0.00000000000E+00 0. -1.
    9000005    1    1    2  501    0 -0.19679200567E+03  0.70231696657E+01  0.66593925216E+03  0.80140595579E+03  0.40000000000E+03 0.  1.
   -9000005    1    1    2    0  503  0.19679200567E+03 -0.70231696657E+01  0.46948775004E+03  0.64745282905E+03  0.40000000000E+03 0.  1.
<mgrwt>
<rscale>  2 0.44584349E+03</rscale>
<asrwt>0</asrwt>
<pdfrwt beam="1">  1       21 0.19879121E+00 0.44584349E+03</pdfrwt>
<pdfrwt beam="2">  1       21 0.24110138E-01 0.44584349E+03</pdfrwt>
<totfact> 0.18775803E+03</totfact>
</mgrwt>
</event>
<event>
 4    1  0.8562541E-003  0.4035377E+03  0.7818608E-02  0.1042562E+00
         21   -1    0    0  503  502  0.00000000000E+00  0.00000000000E+00  0.52467076278E+03  0.52467076278E+03  0.00000000000E+00 0. -1.
         21   -1    0    0  501  503 -0.00000000000E+00 -0.00000000000E+00 -0.54113381166E+03  0.54113381166E+03  0.00000000000E+00 0. -1.
    9000005    1    1    2  501    0  0.50560951646E+02  0.16919288276E+02 -0.35623053665E+03  0.53827768613E+03  0.40000000000E+03 0. -1.
   -9000005    1    1    2    0  502 -0.50560951646E+02 -0.16919288276E+02  0.33976748777E+03  0.52752688831E+03  0.40000000000E+03 0. -1.
<mgrwt>
<rscale>  2 0.40353770E+03</rscale>
<asrwt>0</asrwt>
<pdfrwt beam="1">  1       21 0.80718579E-01 0.40353770E+03</pdfrwt>
<pdfrwt beam="2">  1       21 0.83251356E-01 0.40353770E+03</pdfrwt>
<totfact> 0.14803996E+03</totfact>
</mgrwt>
</event>
<event>
 4    1  0.8562541E-003  0.4402589E+03  0.7818608E-02  0.1030667E+00
         21   -1    0    0  501  502  0.00000000000E+00  0.00000000000E+00  0.20983627401E+03  0.20983627401E+03  0.00000000000E+00 0. -1.
         21   -1    0    0  502  503 -0.00000000000E+00 -0.00000000000E+00 -0.15842302802E+04  0.15842302802E+04  0.00000000000E+00 0.  1.
    9000005    1    1    2  501    0 -0.14326349711E+03  0.11534066518E+03 -0.10797850346E+03  0.45330702163E+03  0.40000000000E+03 0. -1.
   -9000005    1    1    2    0  503  0.14326349711E+03 -0.11534066518E+03 -0.12664155028E+04  0.13407595326E+04  0.40000000000E+03 0.  1.
<mgrwt>
<rscale>  2 0.44025890E+03</rscale>
<asrwt>0</asrwt>
<pdfrwt beam="1">  1       21 0.32282503E-01 0.44025890E+03</pdfrwt>
<pdfrwt beam="2">  1       21 0.24372774E+00 0.44025890E+03</pdfrwt>
<totfact> 0.54665135E+02</totfact>
</mgrwt>
</event>
<event>
 4    1  0.8562541E-003  0.4651390E+03  0.7818608E-02  0.1023301E+00
         21   -1    0    0  501  502  0.00000000000E+00  0.00000000000E+00  0.20139036663E+04  0.20139036663E+04  0.00000000000E+00 0.  1.
         21   -1    0    0  502  503 -0.00000000000E+00 -0.00000000000E+00 -0.11554882019E+03  0.11554882019E+03  0.00000000000E+00 0.  1.
    9000005    1    1    2  501    0 -0.19579898372E+03 -0.13422767560E+03  0.66695393059E+03  0.81313089749E+03  0.40000000000E+03 0.  1.
   -9000005    1    1    2    0  503  0.19579898372E+03  0.13422767560E+03  0.12314009155E+04  0.13163215890E+04  0.40000000000E+03 0.  1.
<mgrwt>
<rscale>  2 0.46513902E+03</rscale>
<asrwt>0</asrwt>
<pdfrwt beam="1">  1       21 0.30983131E+00 0.46513902E+03</pdfrwt>
<pdfrwt beam="2">  1       21 0.17776743E-01 0.46513902E+03</pdfrwt>
<totfact> 0.68236666E+02</totfact>
</mgrwt>
</event>
<event>
 4    1  0.8562541E-003  0.4161628E+03  0.7818608E-02  0.1038322E+00
         21   -1    0    0  503  502  0.00000000000E+00  0.00000000000E+00  0.85105210207E+03  0.85105210207E+03  0.00000000000E+00 0.  1.
         21   -1    0    0  501  503 -0.00000000000E+00 -0.00000000000E+00 -0.20368025839E+03  0.20368025839E+03  0.00000000000E+00 0.  1.
    9000005    1    1    2  501    0  0.88047802953E+02  0.73750119393E+02  0.30812011285E+03  0.51781222432E+03  0.40000000000E+03 0. -1.
   -9000005    1    1    2    0  502 -0.88047802953E+02 -0.73750119393E+02  0.33925173083E+03  0.53692013614E+03  0.40000000000E+03 0. -1.
<mgrwt>
<rscale>  2 0.41616282E+03</rscale>
<asrwt>0</asrwt>
<pdfrwt beam="1">  1       21 0.13093109E+00 0.41616282E+03</pdfrwt>
<pdfrwt beam="2">  1       21 0.31335425E-01 0.41616282E+03</pdfrwt>
<totfact> 0.36564379E+03</totfact>
</mgrwt>
</event>
<event>
 4    1  0.8562541E-003  0.4904798E+03  0.7818608E-02  0.1016294E+00
         21   -1    0    0  501  502  0.00000000000E+00  0.00000000000E+00  0.11028892420E+04  0.11028892420E+04  0.00000000000E+00 0. -1.
         21   -1    0    0  502  503 -0.00000000000E+00 -0.00000000000E+00 -0.25854201391E+03  0.25854201391E+03  0.00000000000E+00 0. -1.
    9000005    1    1    2  501    0 -0.18570071876E+03 -0.21467583114E+03  0.15303943473E+03  0.51380106851E+03  0.40000000000E+03 0. -1.
   -9000005    1    1    2    0  503  0.18570071876E+03  0.21467583114E+03  0.69130779338E+03  0.84763018741E+03  0.40000000000E+03 0. -1.
<mgrwt>
<rscale>  2 0.49047984E+03</rscale>
<asrwt>0</asrwt>
<pdfrwt beam="1">  1       21 0.16967527E+00 0.49047984E+03</pdfrwt>
<pdfrwt beam="2">  1       21 0.39775695E-01 0.49047984E+03</pdfrwt>
<totfact> 0.10827197E+03</totfact>
</mgrwt>
</event>
<event>
 4    1  0.8562541E-003  0.4375047E+03  0.7818608E-02  0.1031515E+00
         21   -1    0    0  501  502  0.00000000000E+00  0.00000000000E+00  0.48498199177E+03  0.48498199177E+03  0.00000000000E+00 0. -1.
         21   -1    0    0  502  503 -0.00000000000E+00 -0.00000000000E+00 -0.55967128464E+03  0.55967128464E+03  0.00000000000E+00 0. -1.
    9000005    1    1    2  501    0 -0.15868802440E+03  0.78920640920E+02  0.24625945250E+03  0.50204987262E+03  0.40000000000E+03 0. -1.
   -9000005    1    1    2    0  503  0.15868802440E+03 -0.78920640920E+02 -0.32094874537E+03  0.54260340379E+03  0.40000000000E+03 0. -1.
<mgrwt>
<rscale>  2 0.43750469E+03</rscale>
<asrwt>0</asrwt>
<pdfrwt beam="1">  1       21 0.74612614E-01 0.43750469E+03</pdfrwt>
<pdfrwt beam="2">  1       21 0.86103275E-01 0.43750469E+03</pdfrwt>
<totfact> 0.16158839E+03</totfact>
</mgrwt>
</event>
<event>
 4    1  0.8562541E-003  0.4844780E+03  0.7818608E-02  0.1017912E+00
         21   -1    0    0  501  502  0.00000000000E+00  0.00000000000E+00  0.51203998589E+03  0.51203998589E+03  0.00000000000E+00 0.  1.
         21   -1    0    0  502  503 -0.00000000000E+00 -0.00000000000E+00 -0.46994118638E+03  0.46994118638E+03  0.00000000000E+00 0.  1.
    9000005    1    1    2  501    0  0.15370928400E+03 -0.22603618241E+03 -0.55896428970E+02  0.48769181920E+03  0.40000000000E+03 0.  1.
   -9000005    1    1    2    0  503 -0.15370928400E+03  0.22603618241E+03  0.97995228485E+02  0.49428935306E+03  0.40000000000E+03 0.  1.
<mgrwt>
<rscale>  2 0.48447797E+03</rscale>
<asrwt>0</asrwt>
<pdfrwt beam="1">  1       21 0.78775382E-01 0.48447797E+03</pdfrwt>
<pdfrwt beam="2">  1       21 0.72298644E-01 0.48447797E+03</pdfrwt>
<totfact> 0.20978714E+03</totfact>
</mgrwt>
</event>
<event>
 4    1  0.8562541E-003  0.4099353E+03  0.7818608E-02  0.1040393E+00
         21   -1    0    0  501  502  0.00000000000E+00  0.00000000000E+00  0.52229723531E+03  0.52229723531E+03  0.00000000000E+00 0. -1.
         21   -1    0    0  502  503 -0.00000000000E+00 -0.00000000000E+00 -0.58884315441E+03  0.58884315441E+03  0.00000000000E+00 0.  1.
    9000005    1    1    2  501    0 -0.81177417736E+02 -0.38172799291E+02  0.34090131565E+03  0.53316099142E+03  0.40000000000E+03 0. -1.
   -9000005    1    1    2    0  503  0.81177417736E+02  0.38172799291E+02 -0.40744723475E+03  0.57797939830E+03  0.40000000000E+03 0.  1.
<mgrwt>
<rscale>  2 0.40993528E+03</rscale>
<asrwt>0</asrwt>
<pdfrwt beam="1">  1       21 0.80353421E-01 0.40993528E+03</pdfrwt>
<pdfrwt beam="2">  1       21 0.90591254E-01 0.40993528E+03</pdfrwt>
<totfact> 0.12236026E+03</totfact>
</mgrwt>
</event>
<event>
 4    1  0.8562541E-003  0.4434531E+03  0.7818608E-02  0.1029693E+00
         21   -1    0    0  501  502  0.00000000000E+00  0.00000000000E+00  0.44285231504E+03  0.44285231504E+03  0.00000000000E+00 0.  1.
         21   -1    0    0  502  503 -0.00000000000E+00 -0.00000000000E+00 -0.60021348887E+03  0.60021348887E+03  0.00000000000E+00 0.  1.
    9000005    1    1    2  501    0 -0.16426499158E+03  0.98324446975E+02  0.18733798061E+03  0.48140025271E+03  0.40000000000E+03 0.  1.
   -9000005    1    1    2    0  503  0.16426499158E+03 -0.98324446975E+02 -0.34469915444E+03  0.56166555120E+03  0.40000000000E+03 0.  1.
<mgrwt>
<rscale>  2 0.44345314E+03</rscale>
<asrwt>0</asrwt>
<pdfrwt beam="1">  1       21 0.68131125E-01 0.44345314E+03</pdfrwt>
<pdfrwt beam="2">  1       21 0.92340537E-01 0.44345314E+03</pdfrwt>
<totfact> 0.16779265E+03</totfact>
</mgrwt>
</event>
<event>
 4    1  0.8562541E-003  0.4786279E+03  0.7818608E-02  0.1019513E+00
         21   -1    0    0  501  502  0.00000000000E+00  0.00000000000E+00  0.40754824170E+03  0.40754824170E+03  0.00000000000E+00 0.  1.
         21   -1    0    0  502  503 -0.00000000000E+00 -0.00000000000E+00 -0.57195022773E+03  0.57195022773E+03  0.00000000000E+00 0.  1.
    9000005    1    1    2  501    0  0.25739250824E+03  0.53232741275E+02 -0.17943691070E+02  0.47896409478E+03  0.40000000000E+03 0.  1.
   -9000005    1    1    2    0  503 -0.25739250824E+03 -0.53232741275E+02 -0.14645829496E+03  0.50053437465E+03  0.40000000000E+03 0.  1.
<mgrwt>
<rscale>  2 0.47862786E+03</rscale>
<asrwt>0</asrwt>
<pdfrwt beam="1">  1       21 0.62699730E-01 0.47862786E+03</pdfrwt>
<pdfrwt beam="2">  1       21 0.87992343E-01 0.47862786E+03</pdfrwt>
<totfact> 0.22340568E+03</totfact>
</mgrwt>
</event>
<event>
 4    1  0.8562541E-003  0.4338769E+03  0.7818608E-02  0.1032642E+00
         21   -1    0    0  501  502  0.00000000000E+00  0.00000000000E+00  0.71596828110E+03  0.71596828110E+03  0.00000000000E+00 0.  1.
         21   -1    0    0  502  503 -0.00000000000E+00 -0.00000000000E+00 -0.57495584073E+03  0.57495584073E+03  0.00000000000E+00 0.  1.
    9000005    1    1    2  501    0 -0.15785732816E+03  0.57708034175E+02  0.54600469944E+03  0.69740252730E+03  0.40000000000E+03 0.  1.
   -9000005    1    1    2    0  503  0.15785732816E+03 -0.57708034175E+02 -0.40499225908E+03  0.59352159453E+03  0.40000000000E+03 0.  1.
<mgrwt>
<rscale>  2 0.43387689E+03</rscale>
<asrwt>0</asrwt>
<pdfrwt beam="1">  1       21 0.11014897E+00 0.43387689E+03</pdfrwt>
<pdfrwt beam="2">  1       21 0.88454744E-01 0.43387689E+03</pdfrwt>
<totfact> 0.60234834E+02</totfact>
</mgrwt>
</event>
<event>
 4    1  0.8562541E-003  0.6074858E+03  0.7818608E-02  0.9889996E-01
         21   -1    0    0  501  502  0.00000000000E+00  0.00000000000E+00  0.17182651003E+04  0.17182651003E+04  0.00000000000E+00 0. -1.
         21   -1    0    0  502  503 -0.00000000000E+00 -0.00000000000E+00 -0.21867885941E+03  0.21867885941E+03  0.00000000000E+00 0.  1.
    9000005    1    1    2  501    0 -0.31082096926E+03 -0.33530483517E+03  0.62038086779E+03  0.86828073141E+03  0.40000000000E+03 0.  1.
   -9000005    1    1    2    0  503  0.31082096926E+03  0.33530483517E+03  0.87920537310E+03  0.10686632283E+04  0.40000000000E+03 0. -1.
<mgrwt>
<rscale>  2 0.60748581E+03</rscale>
<asrwt>0</asrwt>
<pdfrwt beam="1">  1       21 0.26434847E+00 0.60748581E+03</pdfrwt>
<pdfrwt beam="2">  1       21 0.33642903E-01 0.60748581E+03</pdfrwt>
<totfact> 0.34756038E+02</totfact>
</mgrwt>
</event>
<event>
 4    1  0.8562541E-003  0.7083845E+03  0.7818608E-02  0.9703000E-01
         21   -1    0    0  503  502  0.00000000000E+00  0.00000000000E+00  0.14225599675E+04  0.14225599675E+04  0.00000000000E+00 0.  1.
         21   -1    0    0  501  503 -0.00000000000E+00 -0.00000000000E+00 -0.56533604090E+03  0.56533604090E+03  0.00000000000E+00 0.  1.
    9000005    1    1    2  501    0 -0.24997826959E+03  0.52850676103E+03 -0.18089313133E+03  0.73111617181E+03  0.40000000000E+03 0.  1.
   -9000005    1    1    2    0  502  0.24997826959E+03 -0.52850676103E+03  0.10381170580E+04  0.12567798366E+04  0.40000000000E+03 0.  1.
<mgrwt>
<rscale>  2 0.70838445E+03</rscale>
<asrwt>0</asrwt>
<pdfrwt beam="1">  1       21 0.21885538E+00 0.70838445E+03</pdfrwt>
<pdfrwt beam="2">  1       21 0.86974776E-01 0.70838445E+03</pdfrwt>
<totfact> 0.81647756E+01</totfact>
</mgrwt>
</event>
<event>
 4    1  0.8562541E-003  0.4187009E+03  0.7818608E-02  0.1037490E+00
         21   -1    0    0  503  502  0.00000000000E+00  0.00000000000E+00  0.11148421074E+04  0.11148421074E+04  0.00000000000E+00 0. -1.
         21   -1    0    0  501  503 -0.00000000000E+00 -0.00000000000E+00 -0.16561358102E+03  0.16561358102E+03  0.00000000000E+00 0. -1.
    9000005    1    1    2  501    0 -0.73753870043E+02 -0.99352033684E+02  0.33075200127E+03  0.53357974689E+03  0.40000000000E+03 0. -1.
   -9000005    1    1    2    0  502  0.73753870043E+02  0.99352033684E+02  0.61847652515E+03  0.74687594158E+03  0.40000000000E+03 0. -1.
<mgrwt>
<rscale>  2 0.41870092E+03</rscale>
<asrwt>0</asrwt>
<pdfrwt beam="1">  1       21 0.17151417E+00 0.41870092E+03</pdfrwt>
<pdfrwt beam="2">  1       21 0.25479013E-01 0.41870092E+03</pdfrwt>
<totfact> 0.26381325E+03</totfact>
</mgrwt>
</event>
<event>
 4    1  0.8562541E-003  0.4132639E+03  0.7818608E-02  0.1039281E+00
         21   -1    0    0  503  502  0.00000000000E+00  0.00000000000E+00  0.71147908614E+03  0.71147908614E+03  0.00000000000E+00 0.  1.
         21   -1    0    0  501  503 -0.00000000000E+00 -0.00000000000E+00 -0.24632737037E+03  0.24632737037E+03  0.00000000000E+00 0.  1.
    9000005    1    1    2  501    0  0.91534651788E+02 -0.49075995811E+02  0.15609533722E+03  0.44176102153E+03  0.40000000000E+03 0.  1.
   -9000005    1    1    2    0  502 -0.91534651788E+02  0.49075995811E+02  0.30905637855E+03  0.51604543498E+03  0.40000000000E+03 0.  1.
<mgrwt>
<rscale>  2 0.41326389E+03</rscale>
<asrwt>0</asrwt>
<pdfrwt beam="1">  1       21 0.10945832E+00 0.41326389E+03</pdfrwt>
<pdfrwt beam="2">  1       21 0.37896519E-01 0.41326389E+03</pdfrwt>
<totfact> 0.39261989E+03</totfact>
</mgrwt>
</event>
<event>
 4    1  0.8562541E-003  0.4383752E+03  0.7818608E-02  0.1031247E+00
         21   -1    0    0  501  502  0.00000000000E+00  0.00000000000E+00  0.11906083233E+04  0.11906083233E+04  0.00000000000E+00 0. -1.
         21   -1    0    0  502  503 -0.00000000000E+00 -0.00000000000E+00 -0.16524911179E+03  0.16524911179E+03  0.00000000000E+00 0. -1.
    9000005    1    1    2  501    0  0.14515484745E+03  0.10537004207E+03  0.40931134198E+03  0.59975707597E+03  0.40000000000E+03 0. -1.
   -9000005    1    1    2    0  503 -0.14515484745E+03 -0.10537004207E+03  0.61604786952E+03  0.75610035911E+03  0.40000000000E+03 0. -1.
<mgrwt>
<rscale>  2 0.43837515E+03</rscale>
<asrwt>0</asrwt>
<pdfrwt beam="1">  1       21 0.18317051E+00 0.43837515E+03</pdfrwt>
<pdfrwt beam="2">  1       21 0.25422941E-01 0.43837515E+03</pdfrwt>
<totfact> 0.21718008E+03</totfact>
</mgrwt>
</event>
<event>
 4    1  0.8562541E-003  0.4478244E+03  0.7818608E-02  0.1028373E+00
         21   -1    0    0  503  502  0.00000000000E+00  0.00000000000E+00  0.24044006880E+03  0.24044006880E+03  0.00000000000E+00 0. -1.
         21   -1    0    0  501  503 -0.00000000000E+00 -0.00000000000E+00 -0.15160500969E+04  0.15160500969E+04  0.00000000000E+00 0.  1.
    9000005    1    1    2  501    0 -0.10718032425E+03  0.17046733367E+03 -0.12268398493E+04  0.13060178978E+04  0.40000000000E+03 0.  1.
   -9000005    1    1    2    0  502  0.10718032425E+03 -0.17046733367E+03 -0.48770178820E+02  0.45047226784E+03  0.40000000000E+03 0. -1.
<mgrwt>
<rscale>  2 0.44782445E+03</rscale>
<asrwt>0</asrwt>
<pdfrwt beam="1">  1       21 0.36990781E-01 0.44782445E+03</pdfrwt>
<pdfrwt beam="2">  1       21 0.23323847E+00 0.44782445E+03</pdfrwt>
<totfact> 0.48056094E+02</totfact>
</mgrwt>
</event>
<event>
 4    1  0.8562541E-003  0.5133996E+03  0.7818608E-02  0.1010339E+00
         21   -1    0    0  501  502  0.00000000000E+00  0.00000000000E+00  0.11815576298E+04  0.11815576298E+04  0.00000000000E+00 0.  1.
         21   -1    0    0  502  503 -0.00000000000E+00 -0.00000000000E+00 -0.22308925230E+03  0.22308925230E+03  0.00000000000E+00 0.  1.
    9000005    1    1    2  501    0  0.21636649168E+03  0.23825335916E+03  0.48429492205E+03  0.70577665971E+03  0.40000000000E+03 0.  1.
   -9000005    1    1    2    0  503 -0.21636649168E+03 -0.23825335916E+03  0.47417345543E+03  0.69887022236E+03  0.40000000000E+03 0.  1.
<mgrwt>
<rscale>  2 0.51339957E+03</rscale>
<asrwt>0</asrwt>
<pdfrwt beam="1">  1       21 0.18177809E+00 0.51339957E+03</pdfrwt>
<pdfrwt beam="2">  1       21 0.34321424E-01 0.51339957E+03</pdfrwt>
<totfact> 0.11875698E+03</totfact>
</mgrwt>
</event>
<event>
 4    1  0.8562541E-003  0.5242616E+03  0.7818608E-02  0.1007633E+00
         21   -1    0    0  503  502  0.00000000000E+00  0.00000000000E+00  0.43403407426E+03  0.43403407426E+03  0.00000000000E+00 0.  1.
         21   -1    0    0  501  503 -0.00000000000E+00 -0.00000000000E+00 -0.63721505118E+03  0.63721505118E+03  0.00000000000E+00 0. -1.
    9000005    1    1    2  501    0 -0.90736181151E+02  0.32652282010E+03 -0.14386492321E+03  0.54364264250E+03  0.40000000000E+03 0. -1.
   -9000005    1    1    2    0  502  0.90736181151E+02 -0.32652282010E+03 -0.59316053708E+02  0.52760648294E+03  0.40000000000E+03 0. -1.
<mgrwt>
<rscale>  2 0.52426158E+03</rscale>
<asrwt>0</asrwt>
<pdfrwt beam="1">  1       21 0.66774473E-01 0.52426158E+03</pdfrwt>
<pdfrwt beam="2">  1       21 0.98033085E-01 0.52426158E+03</pdfrwt>
<totfact> 0.14766688E+03</totfact>
</mgrwt>
</event>
<event>
 4    1  0.8562541E-003  0.4655378E+03  0.7818608E-02  0.1023187E+00
         21   -1    0    0  501  502  0.00000000000E+00  0.00000000000E+00  0.28383999158E+03  0.28383999158E+03  0.00000000000E+00 0.  1.
         21   -1    0    0  502  503 -0.00000000000E+00 -0.00000000000E+00 -0.10684076520E+04  0.10684076520E+04  0.00000000000E+00 0.  1.
    9000005    1    1    2  501    0  0.16589246544E+02  0.23759260086E+03 -0.31117093946E+02  0.46657659673E+03  0.40000000000E+03 0.  1.
   -9000005    1    1    2    0  503 -0.16589246544E+02 -0.23759260086E+03 -0.75345056643E+03  0.88567104680E+03  0.40000000000E+03 0.  1.
<mgrwt>
<rscale>  2 0.46553780E+03</rscale>
<asrwt>0</asrwt>
<pdfrwt beam="1">  1       21 0.43667692E-01 0.46553780E+03</pdfrwt>
<pdfrwt beam="2">  1       21 0.16437041E+00 0.46553780E+03</pdfrwt>
<totfact> 0.98621975E+02</totfact>
</mgrwt>
</event>
<event>
 4    1  0.8562541E-003  0.4038476E+03  0.7818608E-02  0.1042455E+00
         21   -1    0    0  501  502  0.00000000000E+00  0.00000000000E+00  0.11500030514E+03  0.11500030514E+03  0.00000000000E+00 0.  1.
         21   -1    0    0  502  503 -0.00000000000E+00 -0.00000000000E+00 -0.14583071418E+04  0.14583071418E+04  0.00000000000E+00 0. -1.
    9000005    1    1    2  501    0  0.53434343583E+02  0.15415167777E+02 -0.54118749646E+03  0.67526051476E+03  0.40000000000E+03 0.  1.
   -9000005    1    1    2    0  503 -0.53434343583E+02 -0.15415167777E+02 -0.80211934024E+03  0.89804693221E+03  0.40000000000E+03 0. -1.
<mgrwt>
<rscale>  2 0.40384757E+03</rscale>
<asrwt>0</asrwt>
<pdfrwt beam="1">  1       21 0.17692355E-01 0.40384757E+03</pdfrwt>
<pdfrwt beam="2">  1       21 0.22435494E+00 0.40384757E+03</pdfrwt>
<totfact> 0.23574561E+03</totfact>
</mgrwt>
</event>
<event>
 4    1  0.8562541E-003  0.6451149E+03  0.7818608E-02  0.9815989E-01
         21   -1    0    0  503  502  0.00000000000E+00  0.00000000000E+00  0.23898575294E+04  0.23898575294E+04  0.00000000000E+00 0. -1.
         21   -1    0    0  501  503 -0.00000000000E+00 -0.00000000000E+00 -0.39361068755E+03  0.39361068755E+03  0.00000000000E+00 0.  1.
    9000005    1    1    2  501    0  0.58503691336E+02 -0.50274299100E+03 -0.41101808499E+02  0.64642289220E+03  0.40000000000E+03 0.  1.
   -9000005    1    1    2    0  502 -0.58503691336E+02  0.50274299100E+03  0.20373486504E+04  0.21370453248E+04  0.40000000000E+03 0. -1.
<mgrwt>
<rscale>  2 0.64511487E+03</rscale>
<asrwt>0</asrwt>
<pdfrwt beam="1">  1       21 0.36767038E+00 0.64511487E+03</pdfrwt>
<pdfrwt beam="2">  1       21 0.60555492E-01 0.64511487E+03</pdfrwt>
<totfact> 0.22833934E+01</totfact>
</mgrwt>
</event>
<event>
 4    1  0.8562541E-003  0.4744544E+03  0.7818608E-02  0.1020670E+00
         21   -1    0    0  501  502  0.00000000000E+00  0.00000000000E+00  0.88091731733E+03  0.88091731733E+03  0.00000000000E+00 0. -1.
         21   -1    0    0  502  503 -0.00000000000E+00 -0.00000000000E+00 -0.25593169327E+03  0.25593169327E+03  0.00000000000E+00 0. -1.
    9000005    1    1    2  501    0 -0.25449400684E+03  0.18432698225E+02  0.33481534723E+03  0.58069637559E+03  0.40000000000E+03 0. -1.
   -9000005    1    1    2    0  503  0.25449400684E+03 -0.18432698225E+02  0.29017027683E+03  0.55615263502E+03  0.40000000000E+03 0. -1.
<mgrwt>
<rscale>  2 0.47445439E+03</rscale>
<asrwt>0</asrwt>
<pdfrwt beam="1">  1       21 0.13552574E+00 0.47445439E+03</pdfrwt>
<pdfrwt beam="2">  1       21 0.39374107E-01 0.47445439E+03</pdfrwt>
<totfact> 0.20589626E+03</totfact>
</mgrwt>
</event>
<event>
 4    1  0.8562541E-003  0.4148977E+03  0.7818608E-02  0.1038740E+00
         21   -1    0    0  503  502  0.00000000000E+00  0.00000000000E+00  0.47030837957E+03  0.47030837957E+03  0.00000000000E+00 0. -1.
         21   -1    0    0  501  503 -0.00000000000E+00 -0.00000000000E+00 -0.37085131112E+03  0.37085131112E+03  0.00000000000E+00 0. -1.
    9000005    1    1    2  501    0 -0.28989063090E+02  0.10630003858E+03  0.97756264702E+02  0.42625854979E+03  0.40000000000E+03 0. -1.
   -9000005    1    1    2    0  502  0.28989063090E+02 -0.10630003858E+03  0.17008037524E+01  0.41490114089E+03  0.40000000000E+03 0. -1.
<mgrwt>
<rscale>  2 0.41489765E+03</rscale>
<asrwt>0</asrwt>
<pdfrwt beam="1">  1       21 0.72355135E-01 0.41489765E+03</pdfrwt>
<pdfrwt beam="2">  1       21 0.57054048E-01 0.41489765E+03</pdfrwt>
<totfact> 0.44148754E+03</totfact>
</mgrwt>
</event>
<event>
 4    1  0.8562541E-003  0.6251320E+03  0.7818608E-02  0.9854595E-01
         21   -1    0    0  501  502  0.00000000000E+00  0.00000000000E+00  0.30539699451E+04  0.30539699451E+04  0.00000000000E+00 0. -1.
         21   -1    0    0  502  503 -0.00000000000E+00 -0.00000000000E+00 -0.12998443958E+03  0.12998443958E+03  0.00000000000E+00 0.  1.
    9000005    1    1    2  501    0  0.73492600249E+02 -0.47475141731E+03  0.12633831010E+04  0.14095839565E+04  0.40000000000E+03 0.  1.
   -9000005    1    1    2    0  503 -0.73492600249E+02  0.47475141731E+03  0.16606024044E+04  0.17743704281E+04  0.40000000000E+03 0. -1.
<mgrwt>
<rscale>  2 0.62513204E+03</rscale>
<asrwt>0</asrwt>
<pdfrwt beam="1">  1       21 0.46984148E+00 0.62513204E+03</pdfrwt>
<pdfrwt beam="2">  1       21 0.19997608E-01 0.62513204E+03</pdfrwt>
<totfact> 0.46984087E+01</totfact>
</mgrwt>
</event>
<event>
 4    1  0.8562541E-003  0.4061325E+03  0.7818608E-02  0.1041677E+00
         21   -1    0    0  501  502  0.00000000000E+00  0.00000000000E+00  0.22217361555E+03  0.22217361555E+03  0.00000000000E+00 0. -1.
         21   -1    0    0  502  503 -0.00000000000E+00 -0.00000000000E+00 -0.89680419974E+03  0.89680419974E+03  0.00000000000E+00 0. -1.
    9000005    1    1    2  501    0  0.15253257471E+02  0.68636499831E+02 -0.10516996530E+03  0.41952872676E+03  0.40000000000E+03 0. -1.
   -9000005    1    1    2    0  503 -0.15253257471E+02 -0.68636499831E+02 -0.56946061889E+03  0.69944908852E+03  0.40000000000E+03 0. -1.
<mgrwt>
<rscale>  2 0.40613253E+03</rscale>
<asrwt>0</asrwt>
<pdfrwt beam="1">  1       21 0.34180556E-01 0.40613253E+03</pdfrwt>
<pdfrwt beam="2">  1       21 0.13796988E+00 0.40613253E+03</pdfrwt>
<totfact> 0.26904418E+03</totfact>
</mgrwt>
</event>
<event>
 4    1  0.8562541E-003  0.4197888E+03  0.7818608E-02  0.1037135E+00
         21   -1    0    0  503  502  0.00000000000E+00  0.00000000000E+00  0.17573821289E+03  0.17573821289E+03  0.00000000000E+00 0. -1.
         21   -1    0    0  501  503 -0.00000000000E+00 -0.00000000000E+00 -0.18216534952E+04  0.18216534952E+04  0.00000000000E+00 0.  1.
    9000005    1    1    2  501    0  0.84385647371E+02  0.95403003165E+02 -0.14925568732E+04  0.15504672490E+04  0.40000000000E+03 0.  1.
   -9000005    1    1    2    0  502 -0.84385647371E+02 -0.95403003165E+02 -0.15335840912E+03  0.44692445910E+03  0.40000000000E+03 0. -1.
<mgrwt>
<rscale>  2 0.41978884E+03</rscale>
<asrwt>0</asrwt>
<pdfrwt beam="1">  1       21 0.27036648E-01 0.41978884E+03</pdfrwt>
<pdfrwt beam="2">  1       21 0.28025438E+00 0.41978884E+03</pdfrwt>
<totfact> 0.47135750E+02</totfact>
</mgrwt>
</event>
<event>
 4    1  0.8562541E-003  0.4573432E+03  0.7818608E-02  0.1025555E+00
         21   -1    0    0  503  502  0.00000000000E+00  0.00000000000E+00  0.34965888717E+03  0.34965888717E+03  0.00000000000E+00 0. -1.
         21   -1    0    0  501  503 -0.00000000000E+00 -0.00000000000E+00 -0.60231146937E+03  0.60231146937E+03  0.00000000000E+00 0.  1.
    9000005    1    1    2  501    0  0.16385319348E+03 -0.14938195057E+03 -0.16569495370E+03  0.48643360683E+03  0.40000000000E+03 0. -1.
   -9000005    1    1    2    0  502 -0.16385319348E+03  0.14938195057E+03 -0.86957628500E+02  0.46553674970E+03  0.40000000000E+03 0.  1.
<mgrwt>
<rscale>  2 0.45734324E+03</rscale>
<asrwt>0</asrwt>
<pdfrwt beam="1">  1       21 0.53793675E-01 0.45734324E+03</pdfrwt>
<pdfrwt beam="2">  1       21 0.92663302E-01 0.45734324E+03</pdfrwt>
<totfact> 0.27808780E+03</totfact>
</mgrwt>
</event>
<event>
 4    1  0.8562541E-003  0.6193951E+03  0.7818608E-02  0.9865965E-01
         21   -1    0    0  501  502  0.00000000000E+00  0.00000000000E+00  0.41151454696E+03  0.41151454696E+03  0.00000000000E+00 0. -1.
         21   -1    0    0  502  503 -0.00000000000E+00 -0.00000000000E+00 -0.94181169319E+03  0.94181169319E+03  0.00000000000E+00 0. -1.
    9000005    1    1    2  501    0  0.12023272919E+03 -0.45737765968E+03 -0.19710542980E+03  0.65000060246E+03  0.40000000000E+03 0. -1.
   -9000005    1    1    2    0  503 -0.12023272919E+03  0.45737765968E+03 -0.33319171643E+03  0.70332563770E+03  0.40000000000E+03 0. -1.
<mgrwt>
<rscale>  2 0.61939505E+03</rscale>
<asrwt>0</asrwt>
<pdfrwt beam="1">  1       21 0.63309931E-01 0.61939505E+03</pdfrwt>
<pdfrwt beam="2">  1       21 0.14489411E+00 0.61939505E+03</pdfrwt>
<totfact> 0.59353061E+02</totfact>
</mgrwt>
</event>
<event>
 4    1  0.8562541E-003  0.6504760E+03  0.7818608E-02  0.9805886E-01
         21   -1    0    0  503  502  0.00000000000E+00  0.00000000000E+00  0.16970357760E+04  0.16970357760E+04  0.00000000000E+00 0. -1.
         21   -1    0    0  501  503 -0.00000000000E+00 -0.00000000000E+00 -0.24937200262E+03  0.24937200262E+03  0.00000000000E+00 0.  1.
    9000005    1    1    2  501    0 -0.50460336785E+03  0.92165759183E+02  0.73671182564E+03  0.98278349602E+03  0.40000000000E+03 0.  1.
   -9000005    1    1    2    0  502  0.50460336785E+03 -0.92165759183E+02  0.71095194774E+03  0.96362428260E+03  0.40000000000E+03 0. -1.
<mgrwt>
<rscale>  2 0.65047605E+03</rscale>
<asrwt>0</asrwt>
<pdfrwt beam="1">  1       21 0.26108242E+00 0.65047605E+03</pdfrwt>
<pdfrwt beam="2">  1       21 0.38364925E-01 0.65047605E+03</pdfrwt>
<totfact> 0.27377108E+02</totfact>
</mgrwt>
</event>
<event>
 4    1  0.8562541E-003  0.5149061E+03  0.7818608E-02  0.1009960E+00
         21   -1    0    0  503  502  0.00000000000E+00  0.00000000000E+00  0.11759151234E+04  0.11759151234E+04  0.00000000000E+00 0.  1.
         21   -1    0    0  501  503 -0.00000000000E+00 -0.00000000000E+00 -0.33130423078E+03  0.33130423078E+03  0.00000000000E+00 0. -1.
    9000005    1    1    2  501    0  0.29453219417E+02 -0.32289447322E+03 -0.36412110360E+01  0.51491901440E+03  0.40000000000E+03 0.  1.
   -9000005    1    1    2    0  502 -0.29453219417E+02  0.32289447322E+03  0.84825210361E+03  0.99230033974E+03  0.40000000000E+03 0.  1.
<mgrwt>
<rscale>  2 0.51490614E+03</rscale>
<asrwt>0</asrwt>
<pdfrwt beam="1">  1       21 0.18091002E+00 0.51490614E+03</pdfrwt>
<pdfrwt beam="2">  1       21 0.50969882E-01 0.51490614E+03</pdfrwt>
<totfact> 0.52883369E+02</totfact>
</mgrwt>
</event>
<event>
 4    1  0.8562541E-003  0.4297833E+03  0.7818608E-02  0.1033928E+00
         21   -1    0    0  501  502  0.00000000000E+00  0.00000000000E+00  0.29897523131E+03  0.29897523131E+03  0.00000000000E+00 0. -1.
         21   -1    0    0  502  503 -0.00000000000E+00 -0.00000000000E+00 -0.69528917696E+03  0.69528917696E+03  0.00000000000E+00 0. -1.
    9000005    1    1    2  501    0 -0.13743595785E+03  0.76321715085E+02 -0.36409519065E+03  0.56327520322E+03  0.40000000000E+03 0. -1.
   -9000005    1    1    2    0  503  0.13743595785E+03 -0.76321715085E+02 -0.32218754997E+02  0.43098920506E+03  0.40000000000E+03 0. -1.
<mgrwt>
<rscale>  2 0.42978326E+03</rscale>
<asrwt>0</asrwt>
<pdfrwt beam="1">  1       21 0.45996190E-01 0.42978326E+03</pdfrwt>
<pdfrwt beam="2">  1       21 0.10696756E+00 0.42978326E+03</pdfrwt>
<totfact> 0.27658453E+03</totfact>
</mgrwt>
</event>
<event>
 4    1  0.8562541E-003  0.4292336E+03  0.7818608E-02  0.1034102E+00
         21   -1    0    0  501  502  0.00000000000E+00  0.00000000000E+00  0.18780591642E+04  0.18780591642E+04  0.00000000000E+00 0.  1.
         21   -1    0    0  502  503 -0.00000000000E+00 -0.00000000000E+00 -0.99373426607E+02  0.99373426607E+02  0.00000000000E+00 0.  1.
    9000005    1    1    2  501    0 -0.25337734874E+02  0.15362128077E+03  0.10011757730E+04  0.10893091513E+04  0.40000000000E+03 0.  1.
   -9000005    1    1    2    0  503  0.25337734874E+02 -0.15362128077E+03  0.77750996459E+03  0.88812343948E+03  0.40000000000E+03 0.  1.
<mgrwt>
<rscale>  2 0.42923362E+03</rscale>
<asrwt>0</asrwt>
<pdfrwt beam="1">  1       21 0.28893215E+00 0.42923362E+03</pdfrwt>
<pdfrwt beam="2">  1       21 0.15288221E-01 0.42923362E+03</pdfrwt>
<totfact> 0.12319911E+03</totfact>
</mgrwt>
</event>
<event>
 4    1  0.8562541E-003  0.6178498E+03  0.7818608E-02  0.9869050E-01
         21   -1    0    0  503  502  0.00000000000E+00  0.00000000000E+00  0.26615092084E+03  0.26615092084E+03  0.00000000000E+00 0. -1.
         21   -1    0    0  501  503 -0.00000000000E+00 -0.00000000000E+00 -0.14689498620E+04  0.14689498620E+04  0.00000000000E+00 0. -1.
    9000005    1    1    2  501    0 -0.17033342808E+03 -0.43900438834E+03 -0.46814322881E+03  0.77517508498E+03  0.40000000000E+03 0. -1.
   -9000005    1    1    2    0  502  0.17033342808E+03  0.43900438834E+03 -0.73465571236E+03  0.95992569786E+03  0.40000000000E+03 0. -1.
<mgrwt>
<rscale>  2 0.61784976E+03</rscale>
<asrwt>0</asrwt>
<pdfrwt beam="1">  1       21 0.40946295E-01 0.61784976E+03</pdfrwt>
<pdfrwt beam="2">  1       21 0.22599229E+00 0.61784976E+03</pdfrwt>
<totfact> 0.40235898E+02</totfact>
</mgrwt>
</event>
<event>
 4    1  0.8562541E-003  0.5467776E+03  0.7818608E-02  0.1002243E+00
         21   -1    0    0  503  502  0.00000000000E+00  0.00000000000E+00  0.44744402928E+03  0.44744402928E+03  0.00000000000E+00 0. -1.
         21   -1    0    0  501  503 -0.00000000000E+00 -0.00000000000E+00 -0.74175280264E+03  0.74175280264E+03  0.00000000000E+00 0. -1.
    9000005    1    1    2  501    0  0.15959547517E+03 -0.33689017202E+03 -0.33443892383E+03  0.64094859191E+03  0.40000000000E+03 0. -1.
   -9000005    1    1    2    0  502 -0.15959547517E+03  0.33689017202E+03  0.40130150479E+02  0.54824824001E+03  0.40000000000E+03 0. -1.
<mgrwt>
<rscale>  2 0.54677756E+03</rscale>
<asrwt>0</asrwt>
<pdfrwt beam="1">  1       21 0.68837544E-01 0.54677756E+03</pdfrwt>
<pdfrwt beam="2">  1       21 0.11411581E+00 0.54677756E+03</pdfrwt>
<totfact> 0.93999278E+02</totfact>
</mgrwt>
</event>
<event>
 4    1  0.8562541E-003  0.5494924E+03  0.7818608E-02  0.1001611E+00
         21   -1    0    0  503  502  0.00000000000E+00  0.00000000000E+00  0.87278924884E+03  0.87278924884E+03  0.00000000000E+00 0. -1.
         21   -1    0    0  501  503 -0.00000000000E+00 -0.00000000000E+00 -0.39393765289E+03  0.39393765289E+03  0.00000000000E+00 0. -1.
    9000005    1    1    2  501    0 -0.13505622967E+03 -0.35171250762E+03  0.18370074754E+02  0.54979935689E+03  0.40000000000E+03 0. -1.
   -9000005    1    1    2    0  502  0.13505622967E+03  0.35171250762E+03  0.46048152119E+03  0.71692754484E+03  0.40000000000E+03 0. -1.
<mgrwt>
<rscale>  2 0.54949238E+03</rscale>
<asrwt>0</asrwt>
<pdfrwt beam="1">  1       21 0.13427527E+00 0.54949238E+03</pdfrwt>
<pdfrwt beam="2">  1       21 0.60605793E-01 0.54949238E+03</pdfrwt>
<totfact> 0.82052282E+02</totfact>
</mgrwt>
</event>
<event>
 4    1  0.8562541E-003  0.4075542E+03  0.7818608E-02  0.1041195E+00
         21   -1    0    0  503  502  0.00000000000E+00  0.00000000000E+00  0.11886803779E+04  0.11886803779E+04  0.00000000000E+00 0.  1.
         21   -1    0    0  501  503 -0.00000000000E+00 -0.00000000000E+00 -0.14284511853E+03  0.14284511853E+03  0.00000000000E+00 0.  1.
    9000005    1    1    2  501    0  0.36902847206E+02 -0.68837243973E+02  0.62115289158E+03  0.74292079054E+03  0.40000000000E+03 0. -1.
   -9000005    1    1    2    0  502 -0.36902847206E+02  0.68837243973E+02  0.42468236778E+03  0.58860470589E+03  0.40000000000E+03 0. -1.
<mgrwt>
<rscale>  2 0.40755415E+03</rscale>
<asrwt>0</asrwt>
<pdfrwt beam="1">  1       21 0.18287390E+00 0.40755415E+03</pdfrwt>
<pdfrwt beam="2">  1       21 0.21976173E-01 0.40755415E+03</pdfrwt>
<totfact> 0.29302015E+03</totfact>
</mgrwt>
</event>
<event>
 4    1  0.8562541E-003  0.4177745E+03  0.7818608E-02  0.1037793E+00
         21   -1    0    0  501  502  0.00000000000E+00  0.00000000000E+00  0.13074521375E+04  0.13074521375E+04  0.00000000000E+00 0.  1.
         21   -1    0    0  502  503 -0.00000000000E+00 -0.00000000000E+00 -0.13492421982E+03  0.13492421982E+03  0.00000000000E+00 0.  1.
    9000005    1    1    2  501    0  0.12024887824E+03 -0.87008641059E+01  0.51198236194E+03  0.66080362945E+03  0.40000000000E+03 0. -1.
   -9000005    1    1    2    0  503 -0.12024887824E+03  0.87008641059E+01  0.66054555574E+03  0.78157272787E+03  0.40000000000E+03 0. -1.
<mgrwt>
<rscale>  2 0.41777446E+03</rscale>
<asrwt>0</asrwt>
<pdfrwt beam="1">  1       21 0.20114647E+00 0.41777446E+03</pdfrwt>
<pdfrwt beam="2">  1       21 0.20757573E-01 0.41777446E+03</pdfrwt>
<totfact> 0.24450661E+03</totfact>
</mgrwt>
</event>
<event>
 4    1  0.8562541E-003  0.4858309E+03  0.7818608E-02  0.1017545E+00
         21   -1    0    0  501  502  0.00000000000E+00  0.00000000000E+00  0.10564434497E+04  0.10564434497E+04  0.00000000000E+00 0.  1.
         21   -1    0    0  502  503 -0.00000000000E+00 -0.00000000000E+00 -0.24204553533E+03  0.24204553533E+03  0.00000000000E+00 0.  1.
    9000005    1    1    2  501    0  0.14864696705E+03  0.23224066153E+03  0.22710359515E+03  0.53629067549E+03  0.40000000000E+03 0.  1.
   -9000005    1    1    2    0  503 -0.14864696705E+03 -0.23224066153E+03  0.58729431919E+03  0.76219830952E+03  0.40000000000E+03 0.  1.
<mgrwt>
<rscale>  2 0.48583088E+03</rscale>
<asrwt>0</asrwt>
<pdfrwt beam="1">  1       21 0.16252976E+00 0.48583088E+03</pdfrwt>
<pdfrwt beam="2">  1       21 0.37237775E-01 0.48583088E+03</pdfrwt>
<totfact> 0.14027704E+03</totfact>
</mgrwt>
</event>
<event>
 4    1  0.8562541E-003  0.4031137E+03  0.7818608E-02  0.1042707E+00
         21   -1    0    0  501  502  0.00000000000E+00  0.00000000000E+00  0.21067586987E+03  0.21067586987E+03  0.00000000000E+00 0. -1.
         21   -1    0    0  502  503 -0.00000000000E+00 -0.00000000000E+00 -0.78556672082E+03  0.78556672082E+03  0.00000000000E+00 0. -1.
    9000005    1    1    2  501    0  0.49832576452E+02 -0.41719589538E+01 -0.22038854796E+03  0.45942551408E+03  0.40000000000E+03 0. -1.
   -9000005    1    1    2    0  503 -0.49832576452E+02  0.41719589538E+01 -0.35450230299E+03  0.53681707661E+03  0.40000000000E+03 0. -1.
<mgrwt>
<rscale>  2 0.40311374E+03</rscale>
<asrwt>0</asrwt>
<pdfrwt beam="1">  1       21 0.32411672E-01 0.40311374E+03</pdfrwt>
<pdfrwt beam="2">  1       21 0.12085642E+00 0.40311374E+03</pdfrwt>
<totfact> 0.42197830E+03</totfact>
</mgrwt>
</event>
<event>
 4    1  0.8562541E-003  0.7084628E+03  0.7818608E-02  0.9702868E-01
         21   -1    0    0  501  502  0.00000000000E+00  0.00000000000E+00  0.10379548605E+04  0.10379548605E+04  0.00000000000E+00 0. -1.
         21   -1    0    0  502  503 -0.00000000000E+00 -0.00000000000E+00 -0.53421608659E+03  0.53421608659E+03  0.00000000000E+00 0.  1.
    9000005    1    1    2  501    0  0.58355589269E+03 -0.37176690550E+02  0.49391754031E+03  0.86364004240E+03  0.40000000000E+03 0.  1.
   -9000005    1    1    2    0  503 -0.58355589269E+03  0.37176690550E+02  0.98212335633E+01  0.70853090465E+03  0.40000000000E+03 0. -1.
<mgrwt>
<rscale>  2 0.70846283E+03</rscale>
<asrwt>0</asrwt>
<pdfrwt beam="1">  1       21 0.15968536E+00 0.70846283E+03</pdfrwt>
<pdfrwt beam="2">  1       21 0.82187090E-01 0.70846283E+03</pdfrwt>
<totfact> 0.24292921E+02</totfact>
</mgrwt>
</event>
<event>
 4    1  0.8562541E-003  0.5135733E+03  0.7818608E-02  0.1010296E+00
         21   -1    0    0  503  502  0.00000000000E+00  0.00000000000E+00  0.14256564192E+04  0.14256564192E+04  0.00000000000E+00 0.  1.
         21   -1    0    0  501  503 -0.00000000000E+00 -0.00000000000E+00 -0.20713539260E+03  0.20713539260E+03  0.00000000000E+00 0.  1.
    9000005    1    1    2  501    0  0.85104820587E+02 -0.31066818634E+03  0.87609427655E+03  0.10155287952E+04  0.40000000000E+03 0.  1.
   -9000005    1    1    2    0  502 -0.85104820587E+02  0.31066818634E+03  0.34242675001E+03  0.61726301656E+03  0.40000000000E+03 0.  1.
<mgrwt>
<rscale>  2 0.51357332E+03</rscale>
<asrwt>0</asrwt>
<pdfrwt beam="1">  1       21 0.21933175E+00 0.51357332E+03</pdfrwt>
<pdfrwt beam="2">  1       21 0.31866984E-01 0.51357332E+03</pdfrwt>
<totfact> 0.77183732E+02</totfact>
</mgrwt>
</event>
<event>
 4    1  0.8562541E-003  0.4813476E+03  0.7818608E-02  0.1018765E+00
         21   -1    0    0  501  502  0.00000000000E+00  0.00000000000E+00  0.17018230545E+04  0.17018230545E+04  0.00000000000E+00 0. -1.
         21   -1    0    0  502  503 -0.00000000000E+00 -0.00000000000E+00 -0.13617324236E+03  0.13617324236E+03  0.00000000000E+00 0. -1.
    9000005    1    1    2  501    0 -0.18847834726E+03 -0.19018777331E+03  0.76969742860E+03  0.90781584481E+03  0.40000000000E+03 0. -1.
   -9000005    1    1    2    0  503  0.18847834726E+03  0.19018777331E+03  0.79595238355E+03  0.93018045205E+03  0.40000000000E+03 0. -1.
<mgrwt>
<rscale>  2 0.48134756E+03</rscale>
<asrwt>0</asrwt>
<pdfrwt beam="1">  1       21 0.26181892E+00 0.48134756E+03</pdfrwt>
<pdfrwt beam="2">  1       21 0.20949731E-01 0.48134756E+03</pdfrwt>
<totfact> 0.96637018E+02</totfact>
</mgrwt>
</event>
<event>
 4    1  0.8562541E-003  0.4575952E+03  0.7818608E-02  0.1025481E+00
         21   -1    0    0  503  502  0.00000000000E+00  0.00000000000E+00  0.78358820332E+03  0.78358820332E+03  0.00000000000E+00 0.  1.
         21   -1    0    0  501  503 -0.00000000000E+00 -0.00000000000E+00 -0.26772392470E+03  0.26772392470E+03  0.00000000000E+00 0.  1.
    9000005    1    1    2  501    0  0.11172685969E+03 -0.19212107227E+03  0.23521214712E+03  0.51450767899E+03  0.40000000000E+03 0.  1.
   -9000005    1    1    2    0  502 -0.11172685969E+03  0.19212107227E+03  0.28065213150E+03  0.53680444903E+03  0.40000000000E+03 0.  1.
<mgrwt>
<rscale>  2 0.45759523E+03</rscale>
<asrwt>0</asrwt>
<pdfrwt beam="1">  1       21 0.12055203E+00 0.45759523E+03</pdfrwt>
<pdfrwt beam="2">  1       21 0.41188296E-01 0.45759523E+03</pdfrwt>
<totfact> 0.25558265E+03</totfact>
</mgrwt>
</event>
<event>
 4    1  0.8562541E-003  0.4754386E+03  0.7818608E-02  0.1020396E+00
         21   -1    0    0  503  502  0.00000000000E+00  0.00000000000E+00  0.12884641535E+04  0.12884641535E+04  0.00000000000E+00 0. -1.
         21   -1    0    0  501  503 -0.00000000000E+00 -0.00000000000E+00 -0.17813570076E+03  0.17813570076E+03  0.00000000000E+00 0.  1.
    9000005    1    1    2  501    0 -0.69702930581E+02 -0.24735266925E+03  0.46487496338E+03  0.66494403757E+03  0.40000000000E+03 0. -1.
   -9000005    1    1    2    0  502  0.69702930581E+02  0.24735266925E+03  0.64545348940E+03  0.80165581673E+03  0.40000000000E+03 0. -1.
<mgrwt>
<rscale>  2 0.47543858E+03</rscale>
<asrwt>0</asrwt>
<pdfrwt beam="1">  1       21 0.19822525E+00 0.47543858E+03</pdfrwt>
<pdfrwt beam="2">  1       21 0.27405493E-01 0.47543858E+03</pdfrwt>
<totfact> 0.14563671E+03</totfact>
</mgrwt>
</event>
<event>
 4    1  0.8562541E-003  0.4809942E+03  0.7818608E-02  0.1018862E+00
         21   -1    0    0  503  502  0.00000000000E+00  0.00000000000E+00  0.16707276792E+04  0.16707276792E+04  0.00000000000E+00 0.  1.
         21   -1    0    0  501  503 -0.00000000000E+00 -0.00000000000E+00 -0.16468071786E+03  0.16468071786E+03  0.00000000000E+00 0. -1.
    9000005    1    1    2  501    0 -0.26617112629E+03 -0.22546304637E+02  0.38694644626E+03  0.61731916915E+03  0.40000000000E+03 0.  1.
   -9000005    1    1    2    0  502  0.26617112629E+03  0.22546304637E+02  0.11191005151E+04  0.12180892280E+04  0.40000000000E+03 0.  1.
<mgrwt>
<rscale>  2 0.48099418E+03</rscale>
<asrwt>0</asrwt>
<pdfrwt beam="1">  1       21 0.25703502E+00 0.48099418E+03</pdfrwt>
<pdfrwt beam="2">  1       21 0.25335496E-01 0.48099418E+03</pdfrwt>
<totfact> 0.71600453E+02</totfact>
</mgrwt>
</event>
<event>
 4    1  0.8562541E-003  0.4093978E+03  0.7818608E-02  0.1040573E+00
         21   -1    0    0  501  502  0.00000000000E+00  0.00000000000E+00  0.34384658929E+03  0.34384658929E+03  0.00000000000E+00 0.  1.
         21   -1    0    0  502  503 -0.00000000000E+00 -0.00000000000E+00 -0.62209147491E+03  0.62209147491E+03  0.00000000000E+00 0.  1.
    9000005    1    1    2  501    0 -0.71155648831E+02 -0.50432740383E+02  0.85569918320E+02  0.41824490264E+03  0.40000000000E+03 0.  1.
   -9000005    1    1    2    0  503  0.71155648831E+02  0.50432740383E+02 -0.36381480394E+03  0.54769316157E+03  0.40000000000E+03 0.  1.
<mgrwt>
<rscale>  2 0.40939784E+03</rscale>
<asrwt>0</asrwt>
<pdfrwt beam="1">  1       21 0.52899476E-01 0.40939784E+03</pdfrwt>
<pdfrwt beam="2">  1       21 0.95706379E-01 0.40939784E+03</pdfrwt>
<totfact> 0.27168422E+03</totfact>
</mgrwt>
</event>
<event>
 4    1  0.8562541E-003  0.4211095E+03  0.7818608E-02  0.1036706E+00
         21   -1    0    0  501  502  0.00000000000E+00  0.00000000000E+00  0.18448954792E+03  0.18448954792E+03  0.00000000000E+00 0. -1.
         21   -1    0    0  502  503 -0.00000000000E+00 -0.00000000000E+00 -0.96231239806E+03  0.96231239806E+03  0.00000000000E+00 0. -1.
    9000005    1    1    2  501    0 -0.26552292567E+02  0.12895022064E+03 -0.36950322281E+03  0.56023728482E+03  0.40000000000E+03 0. -1.
   -9000005    1    1    2    0  503  0.26552292567E+02 -0.12895022064E+03 -0.40831962734E+03  0.58656466115E+03  0.40000000000E+03 0. -1.
<mgrwt>
<rscale>  2 0.42110947E+03</rscale>
<asrwt>0</asrwt>
<pdfrwt beam="1">  1       21 0.28383007E-01 0.42110947E+03</pdfrwt>
<pdfrwt beam="2">  1       21 0.14804806E+00 0.42110947E+03</pdfrwt>
<totfact> 0.32078895E+03</totfact>
</mgrwt>
</event>
<event>
 4    1  0.8562541E-003  0.4665171E+03  0.7818608E-02  0.1022908E+00
         21   -1    0    0  501  502  0.00000000000E+00  0.00000000000E+00  0.13624357141E+04  0.13624357141E+04  0.00000000000E+00 0. -1.
         21   -1    0    0  502  503 -0.00000000000E+00 -0.00000000000E+00 -0.26513228166E+03  0.26513228166E+03  0.00000000000E+00 0. -1.
    9000005    1    1    2  501    0 -0.22542446370E+03  0.82595548393E+02  0.10617234773E+04  0.11596960618E+04  0.40000000000E+03 0. -1.
   -9000005    1    1    2    0  503  0.22542446370E+03 -0.82595548393E+02  0.35579955190E+02  0.46787193404E+03  0.40000000000E+03 0. -1.
<mgrwt>
<rscale>  2 0.46651711E+03</rscale>
<asrwt>0</asrwt>
<pdfrwt beam="1">  1       21 0.20960549E+00 0.46651711E+03</pdfrwt>
<pdfrwt beam="2">  1       21 0.40789583E-01 0.46651711E+03</pdfrwt>
<totfact> 0.55152611E+02</totfact>
</mgrwt>
</event>
<event>
 4    1  0.8562541E-003  0.4245361E+03  0.7818608E-02  0.1035600E+00
         21   -1    0    0  501  502  0.00000000000E+00  0.00000000000E+00  0.31982063599E+03  0.31982063599E+03  0.00000000000E+00 0. -1.
         21   -1    0    0  502  503 -0.00000000000E+00 -0.00000000000E+00 -0.68169333434E+03  0.68169333434E+03  0.00000000000E+00 0. -1.
    9000005    1    1    2  501    0  0.20099134401E+01 -0.14222110322E+03  0.27541686378E+02  0.42542852095E+03  0.40000000000E+03 0. -1.
   -9000005    1    1    2    0  503 -0.20099134401E+01  0.14222110322E+03 -0.38941438472E+03  0.57608544938E+03  0.40000000000E+03 0. -1.
<mgrwt>
<rscale>  2 0.42453608E+03</rscale>
<asrwt>0</asrwt>
<pdfrwt beam="1">  1       21 0.49203175E-01 0.42453608E+03</pdfrwt>
<pdfrwt beam="2">  1       21 0.10487590E+00 0.42453608E+03</pdfrwt>
<totfact> 0.25239040E+03</totfact>
</mgrwt>
</event>
<event>
 4    1  0.8562541E-003  0.4650370E+03  0.7818608E-02  0.1023330E+00
         21   -1    0    0  503  502  0.00000000000E+00  0.00000000000E+00  0.21453466596E+04  0.21453466596E+04  0.00000000000E+00 0.  1.
         21   -1    0    0  501  503 -0.00000000000E+00 -0.00000000000E+00 -0.10238902244E+03  0.10238902244E+03  0.00000000000E+00 0.  1.
    9000005    1    1    2  501    0 -0.19716314772E+03 -0.13185654296E+03  0.88164548223E+03  0.99677390168E+03  0.40000000000E+03 0.  1.
   -9000005    1    1    2    0  502  0.19716314772E+03  0.13185654296E+03  0.11613121549E+04  0.12509617803E+04  0.40000000000E+03 0.  1.
<mgrwt>
<rscale>  2 0.46503705E+03</rscale>
<asrwt>0</asrwt>
<pdfrwt beam="1">  1       21 0.33005330E+00 0.46503705E+03</pdfrwt>
<pdfrwt beam="2">  1       21 0.15752159E-01 0.46503705E+03</pdfrwt>
<totfact> 0.64585587E+02</totfact>
</mgrwt>
</event>
<event>
 4    1  0.8562541E-003  0.4801177E+03  0.7818608E-02  0.1019103E+00
         21   -1    0    0  503  502  0.00000000000E+00  0.00000000000E+00  0.35805117537E+03  0.35805117537E+03  0.00000000000E+00 0.  1.
         21   -1    0    0  501  503 -0.00000000000E+00 -0.00000000000E+00 -0.87457440232E+03  0.87457440232E+03  0.00000000000E+00 0. -1.
    9000005    1    1    2  501    0  0.16242571556E+02 -0.26504569226E+03  0.58328553448E+02  0.48364786805E+03  0.40000000000E+03 0.  1.
   -9000005    1    1    2    0  502 -0.16242571556E+02  0.26504569226E+03 -0.57485178039E+03  0.74897770964E+03  0.40000000000E+03 0. -1.
<mgrwt>
<rscale>  2 0.48011774E+03</rscale>
<asrwt>0</asrwt>
<pdfrwt beam="1">  1       21 0.55084797E-01 0.48011774E+03</pdfrwt>
<pdfrwt beam="2">  1       21 0.13454991E+00 0.48011774E+03</pdfrwt>
<totfact> 0.10314334E+03</totfact>
</mgrwt>
</event>
<event>
 4    1  0.8562541E-003  0.6167676E+03  0.7818608E-02  0.9871216E-01
         21   -1    0    0  503  502  0.00000000000E+00  0.00000000000E+00  0.99604009396E+03  0.99604009396E+03  0.00000000000E+00 0.  1.
         21   -1    0    0  501  503 -0.00000000000E+00 -0.00000000000E+00 -0.48409517976E+03  0.48409517976E+03  0.00000000000E+00 0. -1.
    9000005    1    1    2  501    0  0.31858303003E+03  0.34482918219E+03 -0.84036291344E+02  0.62246639281E+03  0.40000000000E+03 0. -1.
   -9000005    1    1    2    0  502 -0.31858303003E+03 -0.34482918219E+03  0.59598120555E+03  0.85766888091E+03  0.40000000000E+03 0.  1.
<mgrwt>
<rscale>  2 0.61676763E+03</rscale>
<asrwt>0</asrwt>
<pdfrwt beam="1">  1       21 0.15323694E+00 0.61676763E+03</pdfrwt>
<pdfrwt beam="2">  1       21 0.74476182E-01 0.61676763E+03</pdfrwt>
<totfact> 0.35299280E+02</totfact>
</mgrwt>
</event>
<event>
 4    1  0.8562541E-003  0.4121693E+03  0.7818608E-02  0.1039645E+00
         21   -1    0    0  501  502  0.00000000000E+00  0.00000000000E+00  0.11888461137E+03  0.11888461137E+03  0.00000000000E+00 0. -1.
         21   -1    0    0  502  503 -0.00000000000E+00 -0.00000000000E+00 -0.16916147596E+04  0.16916147596E+04  0.00000000000E+00 0. -1.
    9000005    1    1    2  501    0  0.27013064199E+02  0.95675544653E+02 -0.11430586250E+04  0.12150993934E+04  0.40000000000E+03 0. -1.
   -9000005    1    1    2    0  503 -0.27013064199E+02 -0.95675544653E+02 -0.42967152318E+03  0.59539997759E+03  0.40000000000E+03 0. -1.
<mgrwt>
<rscale>  2 0.41216928E+03</rscale>
<asrwt>0</asrwt>
<pdfrwt beam="1">  1       21 0.18289941E-01 0.41216928E+03</pdfrwt>
<pdfrwt beam="2">  1       21 0.26024841E+00 0.41216928E+03</pdfrwt>
<totfact> 0.13239226E+03</totfact>
</mgrwt>
</event>
<event>
 4    1  0.8562541E-003  0.5905463E+03  0.7818608E-02  0.9925216E-01
         21   -1    0    0  503  502  0.00000000000E+00  0.00000000000E+00  0.69461992665E+03  0.69461992665E+03  0.00000000000E+00 0. -1.
         21   -1    0    0  501  503 -0.00000000000E+00 -0.00000000000E+00 -0.83113176093E+03  0.83113176093E+03  0.00000000000E+00 0. -1.
    9000005    1    1    2  501    0  0.19757307213E+03  0.38692350050E+03 -0.54827709642E+03  0.80582422930E+03  0.40000000000E+03 0. -1.
   -9000005    1    1    2    0  502 -0.19757307213E+03 -0.38692350050E+03  0.41176526215E+03  0.71992745827E+03  0.40000000000E+03 0. -1.
<mgrwt>
<rscale>  2 0.59054628E+03</rscale>
<asrwt>0</asrwt>
<pdfrwt beam="1">  1       21 0.10686461E+00 0.59054628E+03</pdfrwt>
<pdfrwt beam="2">  1       21 0.12786642E+00 0.59054628E+03</pdfrwt>
<totfact> 0.24465018E+02</totfact>
</mgrwt>
</event>
<event>
 4    1  0.8562541E-003  0.4512920E+03  0.7818608E-02  0.1027337E+00
         21   -1    0    0  503  502  0.00000000000E+00  0.00000000000E+00  0.50530675789E+03  0.50530675789E+03  0.00000000000E+00 0. -1.
         21   -1    0    0  501  503 -0.00000000000E+00 -0.00000000000E+00 -0.49816655533E+03  0.49816655533E+03  0.00000000000E+00 0. -1.
    9000005    1    1    2  501    0  0.18725576690E+03 -0.92734683234E+02 -0.21566702328E+03  0.50017667743E+03  0.40000000000E+03 0. -1.
   -9000005    1    1    2    0  502 -0.18725576690E+03  0.92734683234E+02  0.22280722585E+03  0.50329663579E+03  0.40000000000E+03 0. -1.
<mgrwt>
<rscale>  2 0.45129197E+03</rscale>
<asrwt>0</asrwt>
<pdfrwt beam="1">  1       21 0.77739501E-01 0.45129197E+03</pdfrwt>
<pdfrwt beam="2">  1       21 0.76641008E-01 0.45129197E+03</pdfrwt>
<totfact> 0.19163160E+03</totfact>
</mgrwt>
</event>
<event>
 4    1  0.8562541E-003  0.5968989E+03  0.7818608E-02  0.9911861E-01
         21   -1    0    0  501  502  0.00000000000E+00  0.00000000000E+00  0.19502555613E+04  0.19502555613E+04  0.00000000000E+00 0. -1.
         21   -1    0    0  502  503 -0.00000000000E+00 -0.00000000000E+00 -0.18778245240E+03  0.18778245240E+03  0.00000000000E+00 0. -1.
    9000005    1    1    2  501    0 -0.84507874358E+02  0.43490998415E+03  0.10573153094E+04  0.12141680026E+04  0.40000000000E+03 0. -1.
   -9000005    1    1    2    0  503  0.84507874358E+02 -0.43490998415E+03  0.70515779952E+03  0.92387001108E+03  0.40000000000E+03 0. -1.
<mgrwt>
<rscale>  2 0.59689888E+03</rscale>
<asrwt>0</asrwt>
<pdfrwt beam="1">  1       21 0.30003930E+00 0.59689888E+03</pdfrwt>
<pdfrwt beam="2">  1       21 0.28889609E-01 0.59689888E+03</pdfrwt>
<totfact> 0.28684403E+02</totfact>
</mgrwt>
</event>
<event>
 4    1  0.8562541E-003  0.7903761E+03  0.7818608E-02  0.9574053E-01
         21   -1    0    0  503  502  0.00000000000E+00  0.00000000000E+00  0.10569508233E+04  0.10569508233E+04  0.00000000000E+00 0. -1.
         21   -1    0    0  501  503 -0.00000000000E+00 -0.00000000000E+00 -0.12367876312E+04  0.12367876312E+04  0.00000000000E+00 0.  1.
    9000005    1    1    2  501    0 -0.49507825610E+03 -0.46860631463E+03 -0.91862273282E+03  0.12118424332E+04  0.40000000000E+03 0.  1.
   -9000005    1    1    2    0  502  0.49507825610E+03  0.46860631463E+03  0.73878592496E+03  0.10818960212E+04  0.40000000000E+03 0. -1.
<mgrwt>
<rscale>  2 0.79037609E+03</rscale>
<asrwt>0</asrwt>
<pdfrwt beam="1">  1       21 0.16260782E+00 0.79037609E+03</pdfrwt>
<pdfrwt beam="2">  1       21 0.19027502E+00 0.79037609E+03</pdfrwt>
<totfact> 0.24528163E+01</totfact>
</mgrwt>
</event>
<event>
 4    1  0.8562541E-003  0.4369189E+03  0.7818608E-02  0.1031696E+00
         21   -1    0    0  501  502  0.00000000000E+00  0.00000000000E+00  0.32108551878E+03  0.32108551878E+03  0.00000000000E+00 0.  1.
         21   -1    0    0  502  503 -0.00000000000E+00 -0.00000000000E+00 -0.59928095351E+03  0.59928095351E+03  0.00000000000E+00 0. -1.
    9000005    1    1    2  501    0  0.65872475821E+02 -0.16296907874E+03 -0.18002942916E+03  0.47255549839E+03  0.40000000000E+03 0. -1.
   -9000005    1    1    2    0  503 -0.65872475821E+02  0.16296907874E+03 -0.98166005571E+02  0.44781097390E+03  0.40000000000E+03 0. -1.
<mgrwt>
<rscale>  2 0.43691888E+03</rscale>
<asrwt>0</asrwt>
<pdfrwt beam="1">  1       21 0.49397772E-01 0.43691888E+03</pdfrwt>
<pdfrwt beam="2">  1       21 0.92197070E-01 0.43691888E+03</pdfrwt>
<totfact> 0.34015888E+03</totfact>
</mgrwt>
</event>
<event>
 4    1  0.8562541E-003  0.4463068E+03  0.7818608E-02  0.1028829E+00
         21   -1    0    0  501  502  0.00000000000E+00  0.00000000000E+00  0.59453173738E+03  0.59453173738E+03  0.00000000000E+00 0.  1.
         21   -1    0    0  502  503 -0.00000000000E+00 -0.00000000000E+00 -0.39986359278E+03  0.39986359278E+03  0.00000000000E+00 0. -1.
    9000005    1    1    2  501    0  0.18645873779E+03 -0.66504770227E+02  0.29752846636E+03  0.53638878965E+03  0.40000000000E+03 0.  1.
   -9000005    1    1    2    0  503 -0.18645873779E+03  0.66504770227E+02 -0.10286032177E+03  0.45800654052E+03  0.40000000000E+03 0. -1.
<mgrwt>
<rscale>  2 0.44630678E+03</rscale>
<asrwt>0</asrwt>
<pdfrwt beam="1">  1       21 0.91466421E-01 0.44630678E+03</pdfrwt>
<pdfrwt beam="2">  1       21 0.61517476E-01 0.44630678E+03</pdfrwt>
<totfact> 0.21507169E+03</totfact>
</mgrwt>
</event>
<event>
 4    1  0.8562541E-003  0.4337947E+03  0.7818608E-02  0.1032668E+00
         21   -1    0    0  503  502  0.00000000000E+00  0.00000000000E+00  0.50416215010E+03  0.50416215010E+03  0.00000000000E+00 0. -1.
         21   -1    0    0  501  503 -0.00000000000E+00 -0.00000000000E+00 -0.37340853815E+03  0.37340853815E+03  0.00000000000E+00 0. -1.
    9000005    1    1    2  501    0 -0.15604002106E+03  0.61881424283E+02  0.56294751550E+02  0.43743216376E+03  0.40000000000E+03 0.  1.
   -9000005    1    1    2    0  502  0.15604002106E+03 -0.61881424283E+02  0.74458860397E+02  0.44013852448E+03  0.40000000000E+03 0.  1.
<mgrwt>
<rscale>  2 0.43379465E+03</rscale>
<asrwt>0</asrwt>
<pdfrwt beam="1">  1       21 0.77563408E-01 0.43379465E+03</pdfrwt>
<pdfrwt beam="2">  1       21 0.57447467E-01 0.43379465E+03</pdfrwt>
<totfact> 0.36875957E+03</totfact>
</mgrwt>
</event>
<event>
 4    1  0.8562541E-003  0.5573111E+03  0.7818608E-02  0.9998157E-01
         21   -1    0    0  503  502  0.00000000000E+00  0.00000000000E+00  0.13075821359E+04  0.13075821359E+04  0.00000000000E+00 0.  1.
         21   -1    0    0  501  503 -0.00000000000E+00 -0.00000000000E+00 -0.23850736543E+03  0.23850736543E+03  0.00000000000E+00 0.  1.
    9000005    1    1    2  501    0 -0.30136778030E+03 -0.24448535859E+03  0.48516080956E+03  0.73890232149E+03  0.40000000000E+03 0.  1.
   -9000005    1    1    2    0  502  0.30136778030E+03  0.24448535859E+03  0.58391396091E+03  0.80718717985E+03  0.40000000000E+03 0.  1.
<mgrwt>
<rscale>  2 0.55731107E+03</rscale>
<asrwt>0</asrwt>
<pdfrwt beam="1">  1       21 0.20116648E+00 0.55731107E+03</pdfrwt>
<pdfrwt beam="2">  1       21 0.36693442E-01 0.55731107E+03</pdfrwt>
<totfact> 0.75036733E+02</totfact>
</mgrwt>
</event>
<event>
 4    1  0.8562541E-003  0.4903762E+03  0.7818608E-02  0.1016322E+00
         21   -1    0    0  501  502  0.00000000000E+00  0.00000000000E+00  0.29764345301E+03  0.29764345301E+03  0.00000000000E+00 0. -1.
         21   -1    0    0  502  503 -0.00000000000E+00 -0.00000000000E+00 -0.12757774646E+04  0.12757774646E+04  0.00000000000E+00 0. -1.
    9000005    1    1    2  501    0 -0.74424046484E+01  0.28357258525E+03 -0.12647663848E+02  0.49053925826E+03  0.40000000000E+03 0. -1.
   -9000005    1    1    2    0  503  0.74424046484E+01 -0.28357258525E+03 -0.96548634773E+03  0.10828816593E+04  0.40000000000E+03 0. -1.
<mgrwt>
<rscale>  2 0.49037618E+03</rscale>
<asrwt>0</asrwt>
<pdfrwt beam="1">  1       21 0.45791300E-01 0.49037618E+03</pdfrwt>
<pdfrwt beam="2">  1       21 0.19627346E+00 0.49037618E+03</pdfrwt>
<totfact> 0.52541110E+02</totfact>
</mgrwt>
</event>
<event>
 4    1  0.8562541E-003  0.5571911E+03  0.7818608E-02  0.9998431E-01
         21   -1    0    0  501  502  0.00000000000E+00  0.00000000000E+00  0.51652855122E+03  0.51652855122E+03  0.00000000000E+00 0. -1.
         21   -1    0    0  502  503 -0.00000000000E+00 -0.00000000000E+00 -0.60655160584E+03  0.60655160584E+03  0.00000000000E+00 0. -1.
    9000005    1    1    2  501    0 -0.35525455729E+03 -0.15574365096E+03  0.84459152251E+01  0.55725507515E+03  0.40000000000E+03 0. -1.
   -9000005    1    1    2    0  503  0.35525455729E+03  0.15574365096E+03 -0.98468969845E+02  0.56582508191E+03  0.40000000000E+03 0. -1.
<mgrwt>
<rscale>  2 0.55719107E+03</rscale>
<asrwt>0</asrwt>
<pdfrwt beam="1">  1       21 0.79465931E-01 0.55719107E+03</pdfrwt>
<pdfrwt beam="2">  1       21 0.93315632E-01 0.55719107E+03</pdfrwt>
<totfact> 0.11067809E+03</totfact>
</mgrwt>
</event>
<event>
 4    1  0.8562541E-003  0.4431832E+03  0.7818608E-02  0.1029775E+00
         21   -1    0    0  503  502  0.00000000000E+00  0.00000000000E+00  0.14911081044E+03  0.14911081044E+03  0.00000000000E+00 0. -1.
         21   -1    0    0  501  503 -0.00000000000E+00 -0.00000000000E+00 -0.15114454073E+04  0.15114454073E+04  0.00000000000E+00 0. -1.
    9000005    1    1    2  501    0  0.19038319241E+03  0.12867971858E+02 -0.97880185452E+03  0.10744600575E+04  0.40000000000E+03 0. -1.
   -9000005    1    1    2    0  502 -0.19038319241E+03 -0.12867971858E+02 -0.38353274234E+03  0.58609616028E+03  0.40000000000E+03 0. -1.
<mgrwt>
<rscale>  2 0.44318320E+03</rscale>
<asrwt>0</asrwt>
<pdfrwt beam="1">  1       21 0.22940123E-01 0.44318320E+03</pdfrwt>
<pdfrwt beam="2">  1       21 0.23253008E+00 0.44318320E+03</pdfrwt>
<totfact> 0.12535787E+03</totfact>
</mgrwt>
</event>
<event>
 4    1  0.8562541E-003  0.4355550E+03  0.7818608E-02  0.1032119E+00
         21   -1    0    0  501  502  0.00000000000E+00  0.00000000000E+00  0.12598829308E+04  0.12598829308E+04  0.00000000000E+00 0.  1.
         21   -1    0    0  502  503 -0.00000000000E+00 -0.00000000000E+00 -0.26420697599E+03  0.26420697599E+03  0.00000000000E+00 0.  1.
    9000005    1    1    2  501    0 -0.10536173292E+03 -0.13640767254E+03  0.99759257228E+03  0.10885307015E+04  0.40000000000E+03 0.  1.
   -9000005    1    1    2    0  503  0.10536173292E+03  0.13640767254E+03 -0.19166174445E+01  0.43555920529E+03  0.40000000000E+03 0.  1.
<mgrwt>
<rscale>  2 0.43555499E+03</rscale>
<asrwt>0</asrwt>
<pdfrwt beam="1">  1       21 0.19382814E+00 0.43555499E+03</pdfrwt>
<pdfrwt beam="2">  1       21 0.40647228E-01 0.43555499E+03</pdfrwt>
<totfact> 0.71783067E+02</totfact>
</mgrwt>
</event>
<event>
 4    1  0.8562541E-003  0.4821808E+03  0.7818608E-02  0.1018538E+00
         21   -1    0    0  501  502  0.00000000000E+00  0.00000000000E+00  0.11617526906E+04  0.11617526906E+04  0.00000000000E+00 0. -1.
         21   -1    0    0  502  503 -0.00000000000E+00 -0.00000000000E+00 -0.20228076311E+03  0.20228076311E+03  0.00000000000E+00 0.  1.
    9000005    1    1    2  501    0 -0.33878403231E+02 -0.26711533848E+03  0.40936503092E+03  0.63251725573E+03  0.40000000000E+03 0. -1.
   -9000005    1    1    2    0  503  0.33878403231E+02  0.26711533848E+03  0.55010689656E+03  0.73151619798E+03  0.40000000000E+03 0.  1.
<mgrwt>
<rscale>  2 0.48218083E+03</rscale>
<asrwt>0</asrwt>
<pdfrwt beam="1">  1       21 0.17873118E+00 0.48218083E+03</pdfrwt>
<pdfrwt beam="2">  1       21 0.31120118E-01 0.48218083E+03</pdfrwt>
<totfact> 0.15380794E+03</totfact>
</mgrwt>
</event>
<event>
 4    1  0.8562541E-003  0.4170150E+03  0.7818608E-02  0.1038042E+00
         21   -1    0    0  503  502  0.00000000000E+00  0.00000000000E+00  0.15231879535E+04  0.15231879535E+04  0.00000000000E+00 0.  1.
         21   -1    0    0  501  503 -0.00000000000E+00 -0.00000000000E+00 -0.12806584407E+03  0.12806584407E+03  0.00000000000E+00 0. -1.
    9000005    1    1    2  501    0 -0.66356669337E+02  0.97459321020E+02  0.96952934940E+03  0.10554092506E+04  0.40000000000E+03 0.  1.
   -9000005    1    1    2    0  502  0.66356669337E+02 -0.97459321020E+02  0.42559276003E+03  0.59584454701E+03  0.40000000000E+03 0. -1.
<mgrwt>
<rscale>  2 0.41701502E+03</rscale>
<asrwt>0</asrwt>
<pdfrwt beam="1">  1       21 0.23433660E+00 0.41701502E+03</pdfrwt>
<pdfrwt beam="2">  1       21 0.19702439E-01 0.41701502E+03</pdfrwt>
<totfact> 0.16549610E+03</totfact>
</mgrwt>
</event>
<event>
 4    1  0.8562541E-003  0.5124794E+03  0.7818608E-02  0.1010572E+00
         21   -1    0    0  501  502  0.00000000000E+00  0.00000000000E+00  0.57842253982E+03  0.57842253982E+03  0.00000000000E+00 0. -1.
         21   -1    0    0  502  503 -0.00000000000E+00 -0.00000000000E+00 -0.67076342471E+03  0.67076342471E+03  0.00000000000E+00 0.  1.
    9000005    1    1    2  501    0  0.29794202570E+03 -0.11775284694E+03 -0.40118904708E+03  0.65083625831E+03  0.40000000000E+03 0.  1.
   -9000005    1    1    2    0  503 -0.29794202570E+03  0.11775284694E+03  0.30884816219E+03  0.59834970621E+03  0.40000000000E+03 0. -1.
<mgrwt>
<rscale>  2 0.51247945E+03</rscale>
<asrwt>0</asrwt>
<pdfrwt beam="1">  1       21 0.88988084E-01 0.51247945E+03</pdfrwt>
<pdfrwt beam="2">  1       21 0.10319437E+00 0.51247945E+03</pdfrwt>
<totfact> 0.67520243E+02</totfact>
</mgrwt>
</event>
<event>
 4    1  0.8562541E-003  0.4912287E+03  0.7818608E-02  0.1016094E+00
         21   -1    0    0  501  502  0.00000000000E+00  0.00000000000E+00  0.16576748343E+03  0.16576748343E+03  0.00000000000E+00 0.  1.
         21   -1    0    0  502  503 -0.00000000000E+00 -0.00000000000E+00 -0.14787518280E+04  0.14787518280E+04  0.00000000000E+00 0.  1.
    9000005    1    1    2  501    0 -0.21219687281E+03 -0.19046811769E+03 -0.75918351464E+03  0.90424843135E+03  0.40000000000E+03 0.  1.
   -9000005    1    1    2    0  503  0.21219687281E+03  0.19046811769E+03 -0.55380082996E+03  0.74027088012E+03  0.40000000000E+03 0.  1.
<mgrwt>
<rscale>  2 0.49122868E+03</rscale>
<asrwt>0</asrwt>
<pdfrwt beam="1">  1       21 0.25502689E-01 0.49122868E+03</pdfrwt>
<pdfrwt beam="2">  1       21 0.22750029E+00 0.49122868E+03</pdfrwt>
<totfact> 0.10739897E+03</totfact>
</mgrwt>
</event>
<event>
 4    1  0.8562541E-003  0.4697599E+03  0.7818608E-02  0.1021988E+00
         21   -1    0    0  501  502  0.00000000000E+00  0.00000000000E+00  0.10544358341E+04  0.10544358341E+04  0.00000000000E+00 0. -1.
         21   -1    0    0  502  503 -0.00000000000E+00 -0.00000000000E+00 -0.26465730010E+03  0.26465730010E+03  0.00000000000E+00 0. -1.
    9000005    1    1    2  501    0  0.33115424639E+02 -0.24408543795E+03  0.69658000189E+03  0.84017738092E+03  0.40000000000E+03 0. -1.
   -9000005    1    1    2    0  503 -0.33115424639E+02  0.24408543795E+03  0.93198532134E+02  0.47891575330E+03  0.40000000000E+03 0. -1.
<mgrwt>
<rscale>  2 0.46975987E+03</rscale>
<asrwt>0</asrwt>
<pdfrwt beam="1">  1       21 0.16222090E+00 0.46975987E+03</pdfrwt>
<pdfrwt beam="2">  1       21 0.40716508E-01 0.46975987E+03</pdfrwt>
<totfact> 0.11814308E+03</totfact>
</mgrwt>
</event>
<event>
 4    1  0.8562541E-003  0.4115276E+03  0.7818608E-02  0.1039860E+00
         21   -1    0    0  503  502  0.00000000000E+00  0.00000000000E+00  0.50939429180E+03  0.50939429180E+03  0.00000000000E+00 0. -1.
         21   -1    0    0  501  503 -0.00000000000E+00 -0.00000000000E+00 -0.69575876964E+03  0.69575876964E+03  0.00000000000E+00 0. -1.
    9000005    1    1    2  501    0 -0.93436267473E+02  0.24992517208E+02 -0.52860667192E+03  0.66991042356E+03  0.40000000000E+03 0. -1.
   -9000005    1    1    2    0  502  0.93436267473E+02 -0.24992517208E+02  0.34224219408E+03  0.53524263788E+03  0.40000000000E+03 0. -1.
<mgrwt>
<rscale>  2 0.41152760E+03</rscale>
<asrwt>0</asrwt>
<pdfrwt beam="1">  1       21 0.78368353E-01 0.41152760E+03</pdfrwt>
<pdfrwt beam="2">  1       21 0.10703981E+00 0.41152760E+03</pdfrwt>
<totfact> 0.86564746E+02</totfact>
</mgrwt>
</event>
<event>
 4    1  0.8562541E-003  0.4131270E+03  0.7818608E-02  0.1039327E+00
         21   -1    0    0  503  502  0.00000000000E+00  0.00000000000E+00  0.52458190238E+03  0.52458190238E+03  0.00000000000E+00 0. -1.
         21   -1    0    0  501  503 -0.00000000000E+00 -0.00000000000E+00 -0.37581455115E+03  0.37581455115E+03  0.00000000000E+00 0. -1.
    9000005    1    1    2  501    0  0.10381444795E+02  0.10279155915E+03 -0.90584700854E+02  0.42294144637E+03  0.40000000000E+03 0.  1.
   -9000005    1    1    2    0  502 -0.10381444795E+02 -0.10279155915E+03  0.23935205208E+03  0.47745500716E+03  0.40000000000E+03 0.  1.
<mgrwt>
<rscale>  2 0.41312695E+03</rscale>
<asrwt>0</asrwt>
<pdfrwt beam="1">  1       21 0.80704908E-01 0.41312695E+03</pdfrwt>
<pdfrwt beam="2">  1       21 0.57817623E-01 0.41312695E+03</pdfrwt>
<totfact> 0.33441193E+03</totfact>
</mgrwt>
</event>
<event>
 4    1  0.8562541E-003  0.4208636E+03  0.7818608E-02  0.1036786E+00
         21   -1    0    0  501  502  0.00000000000E+00  0.00000000000E+00  0.66002370026E+03  0.66002370026E+03  0.00000000000E+00 0. -1.
         21   -1    0    0  502  503 -0.00000000000E+00 -0.00000000000E+00 -0.26983176941E+03  0.26983176941E+03  0.00000000000E+00 0. -1.
    9000005    1    1    2  501    0 -0.10782187467E+03  0.74166335499E+02  0.16079888960E+03  0.45053577536E+03  0.40000000000E+03 0.  1.
   -9000005    1    1    2    0  503  0.10782187467E+03 -0.74166335499E+02  0.22939304125E+03  0.47931969431E+03  0.40000000000E+03 0.  1.
<mgrwt>
<rscale>  2 0.42086364E+03</rscale>
<asrwt>0</asrwt>
<pdfrwt beam="1">  1       21 0.10154211E+00 0.42086364E+03</pdfrwt>
<pdfrwt beam="2">  1       21 0.41512580E-01 0.42086364E+03</pdfrwt>
<totfact> 0.39044031E+03</totfact>
</mgrwt>
</event>
<event>
 4    1  0.8562541E-003  0.4674513E+03  0.7818608E-02  0.1022642E+00
         21   -1    0    0  501  502  0.00000000000E+00  0.00000000000E+00  0.53283571065E+03  0.53283571065E+03  0.00000000000E+00 0. -1.
         21   -1    0    0  502  503 -0.00000000000E+00 -0.00000000000E+00 -0.43143408059E+03  0.43143408059E+03  0.00000000000E+00 0. -1.
    9000005    1    1    2  501    0 -0.16061285756E+02 -0.24135603801E+03  0.15793865430E+03  0.49341191768E+03  0.40000000000E+03 0. -1.
   -9000005    1    1    2    0  503  0.16061285756E+02  0.24135603801E+03 -0.56537024236E+02  0.47085787356E+03  0.40000000000E+03 0. -1.
<mgrwt>
<rscale>  2 0.46745128E+03</rscale>
<asrwt>0</asrwt>
<pdfrwt beam="1">  1       21 0.81974725E-01 0.46745128E+03</pdfrwt>
<pdfrwt beam="2">  1       21 0.66374473E-01 0.46745128E+03</pdfrwt>
<totfact> 0.23329530E+03</totfact>
</mgrwt>
</event>
<event>
 4    1  0.8562541E-003  0.5126637E+03  0.7818608E-02  0.1010525E+00
         21   -1    0    0  501  502  0.00000000000E+00  0.00000000000E+00  0.28054567126E+03  0.28054567126E+03  0.00000000000E+00 0.  1.
         21   -1    0    0  502  503 -0.00000000000E+00 -0.00000000000E+00 -0.96969957707E+03  0.96969957707E+03  0.00000000000E+00 0.  1.
    9000005    1    1    2  501    0  0.11671004554E+02 -0.32044952802E+03 -0.22948853100E+03  0.56168416233E+03  0.40000000000E+03 0.  1.
   -9000005    1    1    2    0  503 -0.11671004554E+02  0.32044952802E+03 -0.45966537481E+03  0.68856108600E+03  0.40000000000E+03 0.  1.
<mgrwt>
<rscale>  2 0.51266374E+03</rscale>
<asrwt>0</asrwt>
<pdfrwt beam="1">  1       21 0.43160873E-01 0.51266374E+03</pdfrwt>
<pdfrwt beam="2">  1       21 0.14918455E+00 0.51266374E+03</pdfrwt>
<totfact> 0.12975893E+03</totfact>
</mgrwt>
</event>
<event>
 4    1  0.8562541E-003  0.4504300E+03  0.7818608E-02  0.1027594E+00
         21   -1    0    0  503  502  0.00000000000E+00  0.00000000000E+00  0.14079435391E+04  0.14079435391E+04  0.00000000000E+00 0.  1.
         21   -1    0    0  501  503 -0.00000000000E+00 -0.00000000000E+00 -0.15837647525E+03  0.15837647525E+03  0.00000000000E+00 0.  1.
    9000005    1    1    2  501    0  0.89502046594E+02  0.18675259897E+03  0.85990311867E+03  0.97073195222E+03  0.40000000000E+03 0.  1.
   -9000005    1    1    2    0  502 -0.89502046594E+02 -0.18675259897E+03  0.38966394516E+03  0.59558806210E+03  0.40000000000E+03 0.  1.
<mgrwt>
<rscale>  2 0.45042996E+03</rscale>
<asrwt>0</asrwt>
<pdfrwt beam="1">  1       21 0.21660669E+00 0.45042996E+03</pdfrwt>
<pdfrwt beam="2">  1       21 0.24365613E-01 0.45042996E+03</pdfrwt>
<totfact> 0.14030312E+03</totfact>
</mgrwt>
</event>
<event>
 4    1  0.8562541E-003  0.5236713E+03  0.7818608E-02  0.1007779E+00
         21   -1    0    0  501  502  0.00000000000E+00  0.00000000000E+00  0.60838976162E+03  0.60838976162E+03  0.00000000000E+00 0.  1.
         21   -1    0    0  502  503 -0.00000000000E+00 -0.00000000000E+00 -0.47287995938E+03  0.47287995938E+03  0.00000000000E+00 0.  1.
    9000005    1    1    2  501    0 -0.32700658823E+03  0.85430347107E+02  0.18471006918E+03  0.55529223172E+03  0.40000000000E+03 0.  1.
   -9000005    1    1    2    0  503  0.32700658823E+03 -0.85430347107E+02 -0.49200266946E+02  0.52597748927E+03  0.40000000000E+03 0.  1.
<mgrwt>
<rscale>  2 0.52367132E+03</rscale>
<asrwt>0</asrwt>
<pdfrwt beam="1">  1       21 0.93598424E-01 0.52367132E+03</pdfrwt>
<pdfrwt beam="2">  1       21 0.72750763E-01 0.52367132E+03</pdfrwt>
<totfact> 0.13607332E+03</totfact>
</mgrwt>
</event>
<event>
 4    1  0.8562541E-003  0.4328005E+03  0.7818608E-02  0.1032979E+00
         21   -1    0    0  503  502  0.00000000000E+00  0.00000000000E+00  0.18391778201E+03  0.18391778201E+03  0.00000000000E+00 0.  1.
         21   -1    0    0  501  503 -0.00000000000E+00 -0.00000000000E+00 -0.10337549972E+04  0.10337549972E+04  0.00000000000E+00 0.  1.
    9000005    1    1    2  501    0  0.10613570517E+03  0.12669431284E+03 -0.49893179174E+03  0.66049161208E+03  0.40000000000E+03 0.  1.
   -9000005    1    1    2    0  502 -0.10613570517E+03 -0.12669431284E+03 -0.35090542350E+03  0.55718116718E+03  0.40000000000E+03 0.  1.
<mgrwt>
<rscale>  2 0.43280046E+03</rscale>
<asrwt>0</asrwt>
<pdfrwt beam="1">  1       21 0.28295043E-01 0.43280046E+03</pdfrwt>
<pdfrwt beam="2">  1       21 0.15903923E+00 0.43280046E+03</pdfrwt>
<totfact> 0.26412208E+03</totfact>
</mgrwt>
</event>
<event>
 4    1  0.8562541E-003  0.5333938E+03  0.7818608E-02  0.1005412E+00
         21   -1    0    0  501  502  0.00000000000E+00  0.00000000000E+00  0.15233654444E+03  0.15233654444E+03  0.00000000000E+00 0.  1.
         21   -1    0    0  502  503 -0.00000000000E+00 -0.00000000000E+00 -0.21441161514E+04  0.21441161514E+04  0.00000000000E+00 0.  1.
    9000005    1    1    2  501    0  0.23089628761E+03  0.26682556553E+03 -0.58356776105E+03  0.79060755738E+03  0.40000000000E+03 0.  1.
   -9000005    1    1    2    0  503 -0.23089628761E+03 -0.26682556553E+03 -0.14082118459E+04  0.15058451384E+04  0.40000000000E+03 0.  1.
<mgrwt>
<rscale>  2 0.53339383E+03</rscale>
<asrwt>0</asrwt>
<pdfrwt beam="1">  1       21 0.23436392E-01 0.53339383E+03</pdfrwt>
<pdfrwt beam="2">  1       21 0.32986401E+00 0.53339383E+03</pdfrwt>
<totfact> 0.29344646E+02</totfact>
</mgrwt>
</event>
<event>
 4    1  0.8562541E-003  0.4438880E+03  0.7818608E-02  0.1029561E+00
         21   -1    0    0  503  502  0.00000000000E+00  0.00000000000E+00  0.19664973034E+03  0.19664973034E+03  0.00000000000E+00 0.  1.
         21   -1    0    0  501  503 -0.00000000000E+00 -0.00000000000E+00 -0.11213969721E+04  0.11213969721E+04  0.00000000000E+00 0.  1.
    9000005    1    1    2  501    0  0.27171245479E+02  0.19052096944E+03 -0.67744271249E+03  0.80991675194E+03  0.40000000000E+03 0.  1.
   -9000005    1    1    2    0  502 -0.27171245479E+02 -0.19052096944E+03 -0.24730452923E+03  0.50812995046E+03  0.40000000000E+03 0.  1.
<mgrwt>
<rscale>  2 0.44388795E+03</rscale>
<asrwt>0</asrwt>
<pdfrwt beam="1">  1       21 0.30253804E-01 0.44388795E+03</pdfrwt>
<pdfrwt beam="2">  1       21 0.17252261E+00 0.44388795E+03</pdfrwt>
<totfact> 0.18309194E+03</totfact>
</mgrwt>
</event>
<event>
 4    1  0.8562541E-003  0.4271224E+03  0.7818608E-02  0.1034773E+00
         21   -1    0    0  503  502  0.00000000000E+00  0.00000000000E+00  0.69512966001E+03  0.69512966001E+03  0.00000000000E+00 0. -1.
         21   -1    0    0  501  503 -0.00000000000E+00 -0.00000000000E+00 -0.31217675785E+03  0.31217675785E+03  0.00000000000E+00 0. -1.
    9000005    1    1    2  501    0  0.14314723441E+03 -0.44073187182E+02 -0.95469021916E+01  0.42722911873E+03  0.40000000000E+03 0. -1.
   -9000005    1    1    2    0  502 -0.14314723441E+03  0.44073187182E+02  0.39249980436E+03  0.58007729913E+03  0.40000000000E+03 0. -1.
<mgrwt>
<rscale>  2 0.42712244E+03</rscale>
<asrwt>0</asrwt>
<pdfrwt beam="1">  1       21 0.10694302E+00 0.42712244E+03</pdfrwt>
<pdfrwt beam="2">  1       21 0.48027194E-01 0.42712244E+03</pdfrwt>
<totfact> 0.25293123E+03</totfact>
</mgrwt>
</event>
<event>
 4    1  0.8562541E-003  0.4210206E+03  0.7818608E-02  0.1036735E+00
         21   -1    0    0  503  502  0.00000000000E+00  0.00000000000E+00  0.12735494158E+03  0.12735494158E+03  0.00000000000E+00 0.  1.
         21   -1    0    0  501  503 -0.00000000000E+00 -0.00000000000E+00 -0.17093312443E+04  0.17093312443E+04  0.00000000000E+00 0. -1.
    9000005    1    1    2  501    0 -0.12592194996E+03  0.37443856491E+02 -0.11867683698E+04  0.12592368893E+04  0.40000000000E+03 0. -1.
   -9000005    1    1    2    0  502  0.12592194996E+03 -0.37443856491E+02 -0.39520793295E+03  0.57744929659E+03  0.40000000000E+03 0.  1.
<mgrwt>
<rscale>  2 0.42102064E+03</rscale>
<asrwt>0</asrwt>
<pdfrwt beam="1">  1       21 0.19593069E-01 0.42102064E+03</pdfrwt>
<pdfrwt beam="2">  1       21 0.26297402E+00 0.42102064E+03</pdfrwt>
<totfact> 0.11137777E+03</totfact>
</mgrwt>
</event>
<event>
 4    1  0.8562541E-003  0.4282590E+03  0.7818608E-02  0.1034411E+00
         21   -1    0    0  503  502  0.00000000000E+00  0.00000000000E+00  0.37918524754E+03  0.37918524754E+03  0.00000000000E+00 0.  1.
         21   -1    0    0  501  503 -0.00000000000E+00 -0.00000000000E+00 -0.55190437170E+03  0.55190437170E+03  0.00000000000E+00 0.  1.
    9000005    1    1    2  501    0 -0.82064123043E+02 -0.12911716753E+03 -0.25003640292E+03  0.49590721514E+03  0.40000000000E+03 0.  1.
   -9000005    1    1    2    0  502  0.82064123043E+02  0.12911716753E+03  0.77317278767E+02  0.43518240410E+03  0.40000000000E+03 0.  1.
<mgrwt>
<rscale>  2 0.42825899E+03</rscale>
<asrwt>0</asrwt>
<pdfrwt beam="1">  1       21 0.58336192E-01 0.42825899E+03</pdfrwt>
<pdfrwt beam="2">  1       21 0.84908365E-01 0.42825899E+03</pdfrwt>
<totfact> 0.28983480E+03</totfact>
</mgrwt>
</event>
<event>
 4    1  0.8562541E-003  0.4026690E+03  0.7818608E-02  0.1042859E+00
         21   -1    0    0  503  502  0.00000000000E+00  0.00000000000E+00  0.18416957981E+03  0.18416957981E+03  0.00000000000E+00 0. -1.
         21   -1    0    0  501  503 -0.00000000000E+00 -0.00000000000E+00 -0.93425683126E+03  0.93425683126E+03  0.00000000000E+00 0. -1.
    9000005    1    1    2  501    0 -0.18234922987E+02  0.42542294068E+02 -0.50931284788E+03  0.64926260959E+03  0.40000000000E+03 0. -1.
   -9000005    1    1    2    0  502  0.18234922987E+02 -0.42542294068E+02 -0.24077440357E+03  0.46916380148E+03  0.40000000000E+03 0. -1.
<mgrwt>
<rscale>  2 0.40266904E+03</rscale>
<asrwt>0</asrwt>
<pdfrwt beam="1">  1       21 0.28333781E-01 0.40266904E+03</pdfrwt>
<pdfrwt beam="2">  1       21 0.14373182E+00 0.40266904E+03</pdfrwt>
<totfact> 0.35112836E+03</totfact>
</mgrwt>
</event>
<event>
 4    1  0.8562541E-003  0.5844813E+03  0.7818608E-02  0.9938136E-01
         21   -1    0    0  503  502  0.00000000000E+00  0.00000000000E+00  0.11674533575E+04  0.11674533575E+04  0.00000000000E+00 0. -1.
         21   -1    0    0  501  503 -0.00000000000E+00 -0.00000000000E+00 -0.31980686551E+03  0.31980686551E+03  0.00000000000E+00 0. -1.
    9000005    1    1    2  501    0  0.25401363460E+03  0.34219221523E+03  0.64064592434E+03  0.86720564983E+03  0.40000000000E+03 0. -1.
   -9000005    1    1    2    0  502 -0.25401363460E+03 -0.34219221523E+03  0.20700056767E+03  0.62005457319E+03  0.40000000000E+03 0. -1.
<mgrwt>
<rscale>  2 0.58448134E+03</rscale>
<asrwt>0</asrwt>
<pdfrwt beam="1">  1       21 0.17960821E+00 0.58448134E+03</pdfrwt>
<pdfrwt beam="2">  1       21 0.49201057E-01 0.58448134E+03</pdfrwt>
<totfact> 0.56723493E+02</totfact>
</mgrwt>
</event>
<event>
 4    1  0.8562541E-003  0.4132573E+03  0.7818608E-02  0.1039283E+00
         21   -1    0    0  501  502  0.00000000000E+00  0.00000000000E+00  0.47560986446E+03  0.47560986446E+03  0.00000000000E+00 0. -1.
         21   -1    0    0  502  503 -0.00000000000E+00 -0.00000000000E+00 -0.36072668376E+03  0.36072668376E+03  0.00000000000E+00 0. -1.
    9000005    1    1    2  501    0  0.86527113725E+02  0.57398781506E+02  0.29180699322E+02  0.41428622321E+03  0.40000000000E+03 0. -1.
   -9000005    1    1    2    0  503 -0.86527113725E+02 -0.57398781506E+02  0.85702481374E+02  0.42205032501E+03  0.40000000000E+03 0. -1.
<mgrwt>
<rscale>  2 0.41325726E+03</rscale>
<asrwt>0</asrwt>
<pdfrwt beam="1">  1       21 0.73170748E-01 0.41325726E+03</pdfrwt>
<pdfrwt beam="2">  1       21 0.55496413E-01 0.41325726E+03</pdfrwt>
<totfact> 0.45724941E+03</totfact>
</mgrwt>
</event>
<event>
 4    1  0.8562541E-003  0.4271000E+03  0.7818608E-02  0.1034780E+00
         21   -1    0    0  503  502  0.00000000000E+00  0.00000000000E+00  0.83693713525E+03  0.83693713525E+03  0.00000000000E+00 0. -1.
         21   -1    0    0  501  503 -0.00000000000E+00 -0.00000000000E+00 -0.21965119308E+03  0.21965119308E+03  0.00000000000E+00 0. -1.
    9000005    1    1    2  501    0  0.55447964055E+02  0.13906816459E+03  0.26221522519E+03  0.50116988681E+03  0.40000000000E+03 0. -1.
   -9000005    1    1    2    0  502 -0.55447964055E+02 -0.13906816459E+03  0.35507071698E+03  0.55541844152E+03  0.40000000000E+03 0. -1.
<mgrwt>
<rscale>  2 0.42710002E+03</rscale>
<asrwt>0</asrwt>
<pdfrwt beam="1">  1       21 0.12875956E+00 0.42710002E+03</pdfrwt>
<pdfrwt beam="2">  1       21 0.33792492E-01 0.42710002E+03</pdfrwt>
<totfact> 0.32686001E+03</totfact>
</mgrwt>
</event>
<event>
 4    1  0.8562541E-003  0.4629896E+03  0.7818608E-02  0.1023918E+00
         21   -1    0    0  501  502  0.00000000000E+00  0.00000000000E+00  0.18144312913E+03  0.18144312913E+03  0.00000000000E+00 0.  1.
         21   -1    0    0  502  503 -0.00000000000E+00 -0.00000000000E+00 -0.13390683982E+04  0.13390683982E+04  0.00000000000E+00 0.  1.
    9000005    1    1    2  501    0  0.17929156054E+03 -0.14904316462E+03 -0.31794972708E+03  0.56165056534E+03  0.40000000000E+03 0.  1.
   -9000005    1    1    2    0  503 -0.17929156054E+03  0.14904316462E+03 -0.83967554204E+03  0.95886096202E+03  0.40000000000E+03 0.  1.
<mgrwt>
<rscale>  2 0.46298956E+03</rscale>
<asrwt>0</asrwt>
<pdfrwt beam="1">  1       21 0.27914328E-01 0.46298956E+03</pdfrwt>
<pdfrwt beam="2">  1       21 0.20601052E+00 0.46298956E+03</pdfrwt>
<totfact> 0.12534509E+03</totfact>
</mgrwt>
</event>
<event>
 4    1  0.8562541E-003  0.5305539E+03  0.7818608E-02  0.1006098E+00
         21   -1    0    0  503  502  0.00000000000E+00  0.00000000000E+00  0.57657482209E+03  0.57657482209E+03  0.00000000000E+00 0.  1.
         21   -1    0    0  501  503 -0.00000000000E+00 -0.00000000000E+00 -0.90333434258E+03  0.90333434258E+03  0.00000000000E+00 0. -1.
    9000005    1    1    2  501    0  0.23272533774E+03  0.25947320656E+03 -0.66499632415E+03  0.85071002044E+03  0.40000000000E+03 0. -1.
   -9000005    1    1    2    0  502 -0.23272533774E+03 -0.25947320656E+03  0.33823680365E+03  0.62919914423E+03  0.40000000000E+03 0.  1.
<mgrwt>
<rscale>  2 0.53055389E+03</rscale>
<asrwt>0</asrwt>
<pdfrwt beam="1">  1       21 0.88703819E-01 0.53055389E+03</pdfrwt>
<pdfrwt beam="2">  1       21 0.13897451E+00 0.53055389E+03</pdfrwt>
<totfact> 0.31612008E+02</totfact>
</mgrwt>
</event>
<event>
 4    1  0.8562541E-003  0.5350042E+03  0.7818608E-02  0.1005026E+00
         21   -1    0    0  501  502  0.00000000000E+00  0.00000000000E+00  0.14984080921E+03  0.14984080921E+03  0.00000000000E+00 0.  1.
         21   -1    0    0  502  503 -0.00000000000E+00 -0.00000000000E+00 -0.19351211922E+04  0.19351211922E+04  0.00000000000E+00 0. -1.
    9000005    1    1    2  501    0 -0.70384865131E+02  0.34824621838E+03 -0.77439260603E+03  0.94122970954E+03  0.40000000000E+03 0.  1.
   -9000005    1    1    2    0  503  0.70384865131E+02 -0.34824621838E+03 -0.10108877770E+04  0.11437322919E+04  0.40000000000E+03 0. -1.
<mgrwt>
<rscale>  2 0.53500417E+03</rscale>
<asrwt>0</asrwt>
<pdfrwt beam="1">  1       21 0.23052432E-01 0.53500417E+03</pdfrwt>
<pdfrwt beam="2">  1       21 0.29771096E+00 0.53500417E+03</pdfrwt>
<totfact> 0.47468985E+02</totfact>
</mgrwt>
</event>
<event>
 4    1  0.8562541E-003  0.4737523E+03  0.7818608E-02  0.1020866E+00
         21   -1    0    0  503  502  0.00000000000E+00  0.00000000000E+00  0.35471160115E+03  0.35471160115E+03  0.00000000000E+00 0.  1.
         21   -1    0    0  501  503 -0.00000000000E+00 -0.00000000000E+00 -0.65535097225E+03  0.65535097225E+03  0.00000000000E+00 0. -1.
    9000005    1    1    2  501    0  0.20391669728E+03 -0.15119278072E+03 -0.56517645198E+02  0.47711164374E+03  0.40000000000E+03 0. -1.
   -9000005    1    1    2    0  502 -0.20391669728E+03  0.15119278072E+03 -0.24412172591E+03  0.53295092967E+03  0.40000000000E+03 0. -1.
<mgrwt>
<rscale>  2 0.47375234E+03</rscale>
<asrwt>0</asrwt>
<pdfrwt beam="1">  1       21 0.54571016E-01 0.47375234E+03</pdfrwt>
<pdfrwt beam="2">  1       21 0.10082323E+00 0.47375234E+03</pdfrwt>
<totfact> 0.21872544E+03</totfact>
</mgrwt>
</event>
<event>
 4    1  0.8562541E-003  0.4407213E+03  0.7818608E-02  0.1030526E+00
         21   -1    0    0  503  502  0.00000000000E+00  0.00000000000E+00  0.55724682850E+03  0.55724682850E+03  0.00000000000E+00 0. -1.
         21   -1    0    0  501  503 -0.00000000000E+00 -0.00000000000E+00 -0.35752009875E+03  0.35752009875E+03  0.00000000000E+00 0. -1.
    9000005    1    1    2  501    0  0.56372602900E+02  0.17623119560E+03  0.27465142821E+02  0.44157631133E+03  0.40000000000E+03 0. -1.
   -9000005    1    1    2    0  502 -0.56372602900E+02 -0.17623119560E+03  0.17226158693E+03  0.47319061592E+03  0.40000000000E+03 0. -1.
<mgrwt>
<rscale>  2 0.44072135E+03</rscale>
<asrwt>0</asrwt>
<pdfrwt beam="1">  1       21 0.85730281E-01 0.44072135E+03</pdfrwt>
<pdfrwt beam="2">  1       21 0.55003092E-01 0.44072135E+03</pdfrwt>
<totfact> 0.32046006E+03</totfact>
</mgrwt>
</event>
<event>
 4    1  0.8562541E-003  0.5678792E+03  0.7818608E-02  0.9974383E-01
         21   -1    0    0  503  502  0.00000000000E+00  0.00000000000E+00  0.39517410389E+03  0.39517410389E+03  0.00000000000E+00 0.  1.
         21   -1    0    0  501  503 -0.00000000000E+00 -0.00000000000E+00 -0.81628369864E+03  0.81628369864E+03  0.00000000000E+00 0. -1.
    9000005    1    1    2  501    0  0.40189458183E+03  0.31105107414E+02 -0.22052515132E+03  0.60919465278E+03  0.40000000000E+03 0.  1.
   -9000005    1    1    2    0  502 -0.40189458183E+03 -0.31105107414E+02 -0.20058444343E+03  0.60226314976E+03  0.40000000000E+03 0. -1.
<mgrwt>
<rscale>  2 0.56787920E+03</rscale>
<asrwt>0</asrwt>
<pdfrwt beam="1">  1       21 0.60796017E-01 0.56787920E+03</pdfrwt>
<pdfrwt beam="2">  1       21 0.12558211E+00 0.56787920E+03</pdfrwt>
<totfact> 0.96444455E+02</totfact>
</mgrwt>
</event>
<event>
 4    1  0.8562541E-003  0.4029873E+03  0.7818608E-02  0.1042750E+00
         21   -1    0    0  501  502  0.00000000000E+00  0.00000000000E+00  0.13734207856E+03  0.13734207856E+03  0.00000000000E+00 0.  1.
         21   -1    0    0  502  503 -0.00000000000E+00 -0.00000000000E+00 -0.14006072150E+04  0.14006072150E+04  0.00000000000E+00 0.  1.
    9000005    1    1    2  501    0 -0.36086959239E+02  0.33112880709E+02 -0.93512568479E+03  0.10182626271E+04  0.40000000000E+03 0.  1.
   -9000005    1    1    2    0  503  0.36086959239E+02 -0.33112880709E+02 -0.32813945161E+03  0.51968666637E+03  0.40000000000E+03 0.  1.
<mgrwt>
<rscale>  2 0.40298726E+03</rscale>
<asrwt>0</asrwt>
<pdfrwt beam="1">  1       21 0.21129550E-01 0.40298726E+03</pdfrwt>
<pdfrwt beam="2">  1       21 0.21547804E+00 0.40298726E+03</pdfrwt>
<totfact> 0.19194951E+03</totfact>
</mgrwt>
</event>
<event>
 4    1  0.8562541E-003  0.4754743E+03  0.7818608E-02  0.1020386E+00
         21   -1    0    0  501  502  0.00000000000E+00  0.00000000000E+00  0.16588883860E+04  0.16588883860E+04  0.00000000000E+00 0.  1.
         21   -1    0    0  502  503 -0.00000000000E+00 -0.00000000000E+00 -0.14060141360E+03  0.14060141360E+03  0.00000000000E+00 0.  1.
    9000005    1    1    2  501    0 -0.15567702543E+03 -0.20454953405E+03  0.91685396447E+03  0.10328102635E+04  0.40000000000E+03 0.  1.
   -9000005    1    1    2    0  503  0.15567702543E+03  0.20454953405E+03  0.60143300795E+03  0.76667953616E+03  0.40000000000E+03 0.  1.
<mgrwt>
<rscale>  2 0.47547434E+03</rscale>
<asrwt>0</asrwt>
<pdfrwt beam="1">  1       21 0.25521358E+00 0.47547434E+03</pdfrwt>
<pdfrwt beam="2">  1       21 0.21630988E-01 0.47547434E+03</pdfrwt>
<totfact> 0.10002484E+03</totfact>
</mgrwt>
</event>
<event>
 4    1  0.8562541E-003  0.4433228E+03  0.7818608E-02  0.1029732E+00
         21   -1    0    0  503  502  0.00000000000E+00  0.00000000000E+00  0.97970963277E+02  0.97970963277E+02  0.00000000000E+00 0. -1.
         21   -1    0    0  501  503 -0.00000000000E+00 -0.00000000000E+00 -0.24337682604E+04  0.24337682604E+04  0.00000000000E+00 0.  1.
    9000005    1    1    2  501    0 -0.18481774513E+03 -0.48760021554E+02 -0.16985701084E+04  0.17554701797E+04  0.40000000000E+03 0.  1.
   -9000005    1    1    2    0  502  0.18481774513E+03  0.48760021554E+02 -0.63722718876E+03  0.77626904402E+03  0.40000000000E+03 0. -1.
<mgrwt>
<rscale>  2 0.44332284E+03</rscale>
<asrwt>0</asrwt>
<pdfrwt beam="1">  1       21 0.15072457E-01 0.44332284E+03</pdfrwt>
<pdfrwt beam="2">  1       21 0.37442585E+00 0.44332284E+03</pdfrwt>
<totfact> 0.37879596E+02</totfact>
</mgrwt>
</event>
<event>
 4    1  0.8562541E-003  0.4169584E+03  0.7818608E-02  0.1038061E+00
         21   -1    0    0  503  502  0.00000000000E+00  0.00000000000E+00  0.26240251708E+03  0.26240251708E+03  0.00000000000E+00 0. -1.
         21   -1    0    0  501  503 -0.00000000000E+00 -0.00000000000E+00 -0.67782871932E+03  0.67782871932E+03  0.00000000000E+00 0.  1.
    9000005    1    1    2  501    0  0.11728432469E+03 -0.99352263612E+01 -0.13712793852E+03  0.43892868790E+03  0.40000000000E+03 0. -1.
   -9000005    1    1    2    0  502 -0.11728432469E+03  0.99352263612E+01 -0.27829826372E+03  0.50130254850E+03  0.40000000000E+03 0.  1.
<mgrwt>
<rscale>  2 0.41695842E+03</rscale>
<asrwt>0</asrwt>
<pdfrwt beam="1">  1       21 0.40369618E-01 0.41695842E+03</pdfrwt>
<pdfrwt beam="2">  1       21 0.10428134E+00 0.41695842E+03</pdfrwt>
<totfact> 0.38808409E+03</totfact>
</mgrwt>
</event>
<event>
 4    1  0.8562541E-003  0.4849293E+03  0.7818608E-02  0.1017789E+00
         21   -1    0    0  503  502  0.00000000000E+00  0.00000000000E+00  0.19454531865E+04  0.19454531865E+04  0.00000000000E+00 0.  1.
         21   -1    0    0  501  503 -0.00000000000E+00 -0.00000000000E+00 -0.15345144049E+03  0.15345144049E+03  0.00000000000E+00 0. -1.
    9000005    1    1    2  501    0 -0.97884624072E+02  0.25607614946E+03  0.41246363042E+03  0.63661812759E+03  0.40000000000E+03 0. -1.
   -9000005    1    1    2    0  502  0.97884624072E+02 -0.25607614946E+03  0.13795381156E+04  0.14622864994E+04  0.40000000000E+03 0.  1.
<mgrwt>
<rscale>  2 0.48492927E+03</rscale>
<asrwt>0</asrwt>
<pdfrwt beam="1">  1       21 0.29930047E+00 0.48492927E+03</pdfrwt>
<pdfrwt beam="2">  1       21 0.23607915E-01 0.48492927E+03</pdfrwt>
<totfact> 0.45448430E+02</totfact>
</mgrwt>
</event>
<event>
 4    1  0.8562541E-003  0.4223155E+03  0.7818608E-02  0.1036315E+00
         21   -1    0    0  501  502  0.00000000000E+00  0.00000000000E+00  0.48013634727E+03  0.48013634727E+03  0.00000000000E+00 0. -1.
         21   -1    0    0  502  503 -0.00000000000E+00 -0.00000000000E+00 -0.39585765014E+03  0.39585765014E+03  0.00000000000E+00 0. -1.
    9000005    1    1    2  501    0 -0.11506861967E+03  0.71481348484E+02  0.15088091363E+03  0.44845893960E+03  0.40000000000E+03 0. -1.
   -9000005    1    1    2    0  503  0.11506861967E+03 -0.71481348484E+02 -0.66602216500E+02  0.42753505781E+03  0.40000000000E+03 0. -1.
<mgrwt>
<rscale>  2 0.42231549E+03</rscale>
<asrwt>0</asrwt>
<pdfrwt beam="1">  1       21 0.73867131E-01 0.42231549E+03</pdfrwt>
<pdfrwt beam="2">  1       21 0.60901177E-01 0.42231549E+03</pdfrwt>
<totfact> 0.36438758E+03</totfact>
</mgrwt>
</event>
<event>
 4    1  0.8562541E-003  0.4854789E+03  0.7818608E-02  0.1017640E+00
         21   -1    0    0  501  502  0.00000000000E+00  0.00000000000E+00  0.18889206847E+04  0.18889206847E+04  0.00000000000E+00 0.  1.
         21   -1    0    0  502  503 -0.00000000000E+00 -0.00000000000E+00 -0.18285431486E+03  0.18285431486E+03  0.00000000000E+00 0.  1.
    9000005    1    1    2  501    0 -0.22135873434E+03 -0.16337110664E+03  0.14368428278E+04  0.15166433725E+04  0.40000000000E+03 0.  1.
   -9000005    1    1    2    0  503  0.22135873434E+03  0.16337110664E+03  0.26922354213E+03  0.55513162708E+03  0.40000000000E+03 0.  1.
<mgrwt>
<rscale>  2 0.48547895E+03</rscale>
<asrwt>0</asrwt>
<pdfrwt beam="1">  1       21 0.29060317E+00 0.48547895E+03</pdfrwt>
<pdfrwt beam="2">  1       21 0.28131434E-01 0.48547895E+03</pdfrwt>
<totfact> 0.36389503E+02</totfact>
</mgrwt>
</event>
<event>
 4    1  0.8562541E-003  0.7075473E+03  0.7818608E-02  0.9704412E-01
         21   -1    0    0  501  502  0.00000000000E+00  0.00000000000E+00  0.10117928872E+04  0.10117928872E+04  0.00000000000E+00 0.  1.
         21   -1    0    0  502  503 -0.00000000000E+00 -0.00000000000E+00 -0.93079694424E+03  0.93079694424E+03  0.00000000000E+00 0. -1.
    9000005    1    1    2  501    0 -0.15203284586E+03  0.56347955849E+03  0.70526769554E+03  0.99901237301E+03  0.40000000000E+03 0. -1.
   -9000005    1    1    2    0  503  0.15203284586E+03 -0.56347955849E+03 -0.62427175256E+03  0.94357745845E+03  0.40000000000E+03 0.  1.
<mgrwt>
<rscale>  2 0.70754731E+03</rscale>
<asrwt>0</asrwt>
<pdfrwt beam="1">  1       21 0.15566044E+00 0.70754731E+03</pdfrwt>
<pdfrwt beam="2">  1       21 0.14319953E+00 0.70754731E+03</pdfrwt>
<totfact> 0.64675744E+01</totfact>
</mgrwt>
</event>
<event>
 4    1  0.8562541E-003  0.4068403E+03  0.7818608E-02  0.1041437E+00
         21   -1    0    0  503  502  0.00000000000E+00  0.00000000000E+00  0.10506926510E+04  0.10506926510E+04  0.00000000000E+00 0.  1.
         21   -1    0    0  501  503 -0.00000000000E+00 -0.00000000000E+00 -0.16115834437E+03  0.16115834437E+03  0.00000000000E+00 0.  1.
    9000005    1    1    2  501    0  0.37154423938E+01 -0.74197257481E+02  0.53564372785E+03  0.67263157874E+03  0.40000000000E+03 0.  1.
   -9000005    1    1    2    0  502 -0.37154423938E+01  0.74197257481E+02  0.35389057881E+03  0.53921941666E+03  0.40000000000E+03 0.  1.
<mgrwt>
<rscale>  2 0.40684031E+03</rscale>
<asrwt>0</asrwt>
<pdfrwt beam="1">  1       21 0.16164502E+00 0.40684031E+03</pdfrwt>
<pdfrwt beam="2">  1       21 0.24793592E-01 0.40684031E+03</pdfrwt>
<totfact> 0.33036037E+03</totfact>
</mgrwt>
</event>
<event>
 4    1  0.8562541E-003  0.4838411E+03  0.7818608E-02  0.1018085E+00
         21   -1    0    0  503  502  0.00000000000E+00  0.00000000000E+00  0.32193865986E+03  0.32193865986E+03  0.00000000000E+00 0. -1.
         21   -1    0    0  501  503 -0.00000000000E+00 -0.00000000000E+00 -0.79962123609E+03  0.79962123609E+03  0.00000000000E+00 0. -1.
    9000005    1    1    2  501    0  0.18724280985E+03  0.19759142512E+03 -0.40764844266E+03  0.63267645280E+03  0.40000000000E+03 0. -1.
   -9000005    1    1    2    0  502 -0.18724280985E+03 -0.19759142512E+03 -0.70034133573E+02  0.48888344315E+03  0.40000000000E+03 0. -1.
<mgrwt>
<rscale>  2 0.48384113E+03</rscale>
<asrwt>0</asrwt>
<pdfrwt beam="1">  1       21 0.49529026E-01 0.48384113E+03</pdfrwt>
<pdfrwt beam="2">  1       21 0.12301865E+00 0.48384113E+03</pdfrwt>
<totfact> 0.16322571E+03</totfact>
</mgrwt>
</event>
<event>
 4    1  0.8562541E-003  0.5232090E+03  0.7818608E-02  0.1007892E+00
         21   -1    0    0  501  502  0.00000000000E+00  0.00000000000E+00  0.46130435059E+03  0.46130435059E+03  0.00000000000E+00 0. -1.
         21   -1    0    0  502  503 -0.00000000000E+00 -0.00000000000E+00 -0.86727819014E+03  0.86727819014E+03  0.00000000000E+00 0. -1.
    9000005    1    1    2  501    0 -0.32485022026E+03 -0.90664417379E+02  0.17029880683E+03  0.55022666765E+03  0.40000000000E+03 0. -1.
   -9000005    1    1    2    0  503  0.32485022026E+03  0.90664417379E+02 -0.57627264638E+03  0.77835587307E+03  0.40000000000E+03 0. -1.
<mgrwt>
<rscale>  2 0.52320904E+03</rscale>
<asrwt>0</asrwt>
<pdfrwt beam="1">  1       21 0.70969900E-01 0.52320904E+03</pdfrwt>
<pdfrwt beam="2">  1       21 0.13342741E+00 0.52320904E+03</pdfrwt>
<totfact> 0.59188329E+02</totfact>
</mgrwt>
</event>
<event>
 4    1  0.8562541E-003  0.4072951E+03  0.7818608E-02  0.1041283E+00
         21   -1    0    0  503  502  0.00000000000E+00  0.00000000000E+00  0.37674216269E+03  0.37674216269E+03  0.00000000000E+00 0. -1.
         21   -1    0    0  501  503 -0.00000000000E+00 -0.00000000000E+00 -0.44040876692E+03  0.44040876692E+03  0.00000000000E+00 0. -1.
    9000005    1    1    2  501    0 -0.72974640120E+02  0.23748631755E+02 -0.26225575233E+02  0.40813855050E+03  0.40000000000E+03 0. -1.
   -9000005    1    1    2    0  502  0.72974640120E+02 -0.23748631755E+02 -0.37441028998E+02  0.40901237911E+03  0.40000000000E+03 0. -1.
<mgrwt>
<rscale>  2 0.40729510E+03</rscale>
<asrwt>0</asrwt>
<pdfrwt beam="1">  1       21 0.57960333E-01 0.40729510E+03</pdfrwt>
<pdfrwt beam="2">  1       21 0.67755195E-01 0.40729510E+03</pdfrwt>
<totfact> 0.49586779E+03</totfact>
</mgrwt>
</event>
<event>
 4    1  0.8562541E-003  0.4557477E+03  0.7818608E-02  0.1026022E+00
         21   -1    0    0  503  502  0.00000000000E+00  0.00000000000E+00  0.43541688891E+03  0.43541688891E+03  0.00000000000E+00 0. -1.
         21   -1    0    0  501  503 -0.00000000000E+00 -0.00000000000E+00 -0.48824220809E+03  0.48824220809E+03  0.00000000000E+00 0.  1.
    9000005    1    1    2  501    0  0.37929291958E+02  0.21509837952E+03  0.43580076190E+02  0.45782656880E+03  0.40000000000E+03 0. -1.
   -9000005    1    1    2    0  502 -0.37929291958E+02 -0.21509837952E+03 -0.96405395371E+02  0.46583252819E+03  0.40000000000E+03 0.  1.
<mgrwt>
<rscale>  2 0.45574768E+03</rscale>
<asrwt>0</asrwt>
<pdfrwt beam="1">  1       21 0.66987214E-01 0.45574768E+03</pdfrwt>
<pdfrwt beam="2">  1       21 0.75114186E-01 0.45574768E+03</pdfrwt>
<totfact> 0.28067302E+03</totfact>
</mgrwt>
</event>
<event>
 4    1  0.8562541E-003  0.4341186E+03  0.7818608E-02  0.1032567E+00
         21   -1    0    0  503  502  0.00000000000E+00  0.00000000000E+00  0.77166997243E+03  0.77166997243E+03  0.00000000000E+00 0.  1.
         21   -1    0    0  501  503 -0.00000000000E+00 -0.00000000000E+00 -0.30208600356E+03  0.30208600356E+03  0.00000000000E+00 0.  1.
    9000005    1    1    2  501    0  0.86172269596E+02 -0.14502851079E+03 -0.17878050581E+00  0.43411860240E+03  0.40000000000E+03 0.  1.
   -9000005    1    1    2    0  502 -0.86172269596E+02  0.14502851079E+03  0.46976274938E+03  0.63963737359E+03  0.40000000000E+03 0.  1.
<mgrwt>
<rscale>  2 0.43411857E+03</rscale>
<asrwt>0</asrwt>
<pdfrwt beam="1">  1       21 0.11871846E+00 0.43411857E+03</pdfrwt>
<pdfrwt beam="2">  1       21 0.46474770E-01 0.43411857E+03</pdfrwt>
<totfact> 0.20841962E+03</totfact>
</mgrwt>
</event>
<event>
 4    1  0.8562541E-003  0.4348290E+03  0.7818608E-02  0.1032345E+00
         21   -1    0    0  503  502  0.00000000000E+00  0.00000000000E+00  0.59183179686E+03  0.59183179686E+03  0.00000000000E+00 0.  1.
         21   -1    0    0  501  503 -0.00000000000E+00 -0.00000000000E+00 -0.31947973269E+03  0.31947973269E+03  0.00000000000E+00 0.  1.
    9000005    1    1    2  501    0  0.11107387003E+03 -0.12937886923E+03  0.13470605006E+03  0.45521644998E+03  0.40000000000E+03 0.  1.
   -9000005    1    1    2    0  502 -0.11107387003E+03  0.12937886923E+03  0.13764601410E+03  0.45609507957E+03  0.40000000000E+03 0.  1.
<mgrwt>
<rscale>  2 0.43482904E+03</rscale>
<asrwt>0</asrwt>
<pdfrwt beam="1">  1       21 0.91051046E-01 0.43482904E+03</pdfrwt>
<pdfrwt beam="2">  1       21 0.49150728E-01 0.43482904E+03</pdfrwt>
<totfact> 0.35443154E+03</totfact>
</mgrwt>
</event>
<event>
 4    1  0.8562541E-003  0.4036969E+03  0.7818608E-02  0.1042507E+00
         21   -1    0    0  503  502  0.00000000000E+00  0.00000000000E+00  0.44256079186E+03  0.44256079186E+03  0.00000000000E+00 0. -1.
         21   -1    0    0  501  503 -0.00000000000E+00 -0.00000000000E+00 -0.44907567363E+03  0.44907567363E+03  0.00000000000E+00 0. -1.
    9000005    1    1    2  501    0  0.29442544211E+02 -0.45872898014E+02 -0.19239762546E+03  0.44720021519E+03  0.40000000000E+03 0.  1.
   -9000005    1    1    2    0  502 -0.29442544211E+02  0.45872898014E+02  0.18588274369E+03  0.44443625030E+03  0.40000000000E+03 0.  1.
<mgrwt>
<rscale>  2 0.40369690E+03</rscale>
<asrwt>0</asrwt>
<pdfrwt beam="1">  1       21 0.68086276E-01 0.40369690E+03</pdfrwt>
<pdfrwt beam="2">  1       21 0.69088565E-01 0.40369690E+03</pdfrwt>
<totfact> 0.33334676E+03</totfact>
</mgrwt>
</event>
<event>
 4    1  0.8562541E-003  0.4101623E+03  0.7818608E-02  0.1040317E+00
         21   -1    0    0  501  502  0.00000000000E+00  0.00000000000E+00  0.50862872060E+03  0.50862872060E+03  0.00000000000E+00 0. -1.
         21   -1    0    0  502  503 -0.00000000000E+00 -0.00000000000E+00 -0.34267228444E+03  0.34267228444E+03  0.00000000000E+00 0. -1.
    9000005    1    1    2  501    0  0.33304922118E+02 -0.84403027917E+02  0.36102771996E+01  0.41017816015E+03  0.40000000000E+03 0. -1.
   -9000005    1    1    2    0  503 -0.33304922118E+02  0.84403027917E+02  0.16234615896E+03  0.44112284489E+03  0.40000000000E+03 0. -1.
<mgrwt>
<rscale>  2 0.41016227E+03</rscale>
<asrwt>0</asrwt>
<pdfrwt beam="1">  1       21 0.78250573E-01 0.41016227E+03</pdfrwt>
<pdfrwt beam="2">  1       21 0.52718813E-01 0.41016227E+03</pdfrwt>
<totfact> 0.43861824E+03</totfact>
</mgrwt>
</event>
<event>
 4    1  0.8562541E-003  0.5377815E+03  0.7818608E-02  0.1004362E+00
         21   -1    0    0  501  502  0.00000000000E+00  0.00000000000E+00  0.26868092535E+03  0.26868092535E+03  0.00000000000E+00 0.  1.
         21   -1    0    0  502  503 -0.00000000000E+00 -0.00000000000E+00 -0.10950561159E+04  0.10950561159E+04  0.00000000000E+00 0.  1.
    9000005    1    1    2  501    0  0.31383304852E+02  0.35808384312E+03 -0.50218109847E+03  0.73579535619E+03  0.40000000000E+03 0.  1.
   -9000005    1    1    2    0  503 -0.31383304852E+02 -0.35808384312E+03 -0.32419409211E+03  0.62794168510E+03  0.40000000000E+03 0.  1.
<mgrwt>
<rscale>  2 0.53778151E+03</rscale>
<asrwt>0</asrwt>
<pdfrwt beam="1">  1       21 0.41335526E-01 0.53778151E+03</pdfrwt>
<pdfrwt beam="2">  1       21 0.16847018E+00 0.53778151E+03</pdfrwt>
<totfact> 0.10023935E+03</totfact>
</mgrwt>
</event>
<event>
 4    1  0.8562541E-003  0.8390311E+03  0.7818608E-02  0.9505178E-01
         21   -1    0    0  501  502  0.00000000000E+00  0.00000000000E+00  0.38161559448E+03  0.38161559448E+03  0.00000000000E+00 0. -1.
         21   -1    0    0  502  503 -0.00000000000E+00 -0.00000000000E+00 -0.18576124043E+04  0.18576124043E+04  0.00000000000E+00 0. -1.
    9000005    1    1    2  501    0  0.39033278871E+03  0.62579030127E+03 -0.83127872929E+03  0.11811001282E+04  0.40000000000E+03 0. -1.
   -9000005    1    1    2    0  503 -0.39033278871E+03 -0.62579030127E+03 -0.64471808055E+03  0.10581278706E+04  0.40000000000E+03 0. -1.
<mgrwt>
<rscale>  2 0.83903110E+03</rscale>
<asrwt>0</asrwt>
<pdfrwt beam="1">  1       21 0.58710090E-01 0.83903110E+03</pdfrwt>
<pdfrwt beam="2">  1       21 0.28578653E+00 0.83903110E+03</pdfrwt>
<totfact> 0.72729919E+01</totfact>
</mgrwt>
</event>
<event>
 4    1  0.8562541E-003  0.4299284E+03  0.7818608E-02  0.1033883E+00
         21   -1    0    0  503  502  0.00000000000E+00  0.00000000000E+00  0.16865816113E+03  0.16865816113E+03  0.00000000000E+00 0. -1.
         21   -1    0    0  501  503 -0.00000000000E+00 -0.00000000000E+00 -0.11234521190E+04  0.11234521190E+04  0.00000000000E+00 0. -1.
    9000005    1    1    2  501    0  0.10115286309E+03  0.12085744991E+03 -0.57850643337E+03  0.72076911585E+03  0.40000000000E+03 0. -1.
   -9000005    1    1    2    0  502 -0.10115286309E+03 -0.12085744991E+03 -0.37628752452E+03  0.57134116430E+03  0.40000000000E+03 0. -1.
<mgrwt>
<rscale>  2 0.42992840E+03</rscale>
<asrwt>0</asrwt>
<pdfrwt beam="1">  1       21 0.25947409E-01 0.42992840E+03</pdfrwt>
<pdfrwt beam="2">  1       21 0.17283879E+00 0.42992840E+03</pdfrwt>
<totfact> 0.24791111E+03</totfact>
</mgrwt>
</event>
<event>
 4    1  0.8562541E-003  0.4230102E+03  0.7818608E-02  0.1036091E+00
         21   -1    0    0  503  502  0.00000000000E+00  0.00000000000E+00  0.44607717828E+03  0.44607717828E+03  0.00000000000E+00 0.  1.
         21   -1    0    0  501  503 -0.00000000000E+00 -0.00000000000E+00 -0.48150455937E+03  0.48150455937E+03  0.00000000000E+00 0.  1.
    9000005    1    1    2  501    0 -0.13715322866E+03  0.11251807765E+02 -0.20719444534E+03  0.47102775873E+03  0.40000000000E+03 0.  1.
   -9000005    1    1    2    0  502  0.13715322866E+03 -0.11251807765E+02  0.17176706425E+03  0.45655397892E+03  0.40000000000E+03 0.  1.
<mgrwt>
<rscale>  2 0.42301018E+03</rscale>
<asrwt>0</asrwt>
<pdfrwt beam="1">  1       21 0.68627258E-01 0.42301018E+03</pdfrwt>
<pdfrwt beam="2">  1       21 0.74077625E-01 0.42301018E+03</pdfrwt>
<totfact> 0.27774072E+03</totfact>
</mgrwt>
</event>
<event>
 4    1  0.8562541E-003  0.4485330E+03  0.7818608E-02  0.1028160E+00
         21   -1    0    0  503  502  0.00000000000E+00  0.00000000000E+00  0.10924588712E+04  0.10924588712E+04  0.00000000000E+00 0. -1.
         21   -1    0    0  501  503 -0.00000000000E+00 -0.00000000000E+00 -0.19651173066E+03  0.19651173066E+03  0.00000000000E+00 0. -1.
    9000005    1    1    2  501    0 -0.55001203675E+02  0.19533733809E+03  0.28636296806E+03  0.53215181812E+03  0.40000000000E+03 0. -1.
   -9000005    1    1    2    0  502  0.55001203675E+02 -0.19533733809E+03  0.60958417244E+03  0.75681878369E+03  0.40000000000E+03 0. -1.
<mgrwt>
<rscale>  2 0.44853295E+03</rscale>
<asrwt>0</asrwt>
<pdfrwt beam="1">  1       21 0.16807059E+00 0.44853295E+03</pdfrwt>
<pdfrwt beam="2">  1       21 0.30232575E-01 0.44853295E+03</pdfrwt>
<totfact> 0.19713910E+03</totfact>
</mgrwt>
</event>
<event>
 4    1  0.8562541E-003  0.4587517E+03  0.7818608E-02  0.1025144E+00
         21   -1    0    0  501  502  0.00000000000E+00  0.00000000000E+00  0.93430372901E+03  0.93430372901E+03  0.00000000000E+00 0. -1.
         21   -1    0    0  502  503 -0.00000000000E+00 -0.00000000000E+00 -0.37158212038E+03  0.37158212038E+03  0.00000000000E+00 0.  1.
    9000005    1    1    2  501    0 -0.13649439598E+03  0.17838834010E+03  0.69110775924E+03  0.82950771841E+03  0.40000000000E+03 0. -1.
   -9000005    1    1    2    0  503  0.13649439598E+03 -0.17838834010E+03 -0.12838615061E+03  0.47637813099E+03  0.40000000000E+03 0.  1.
<mgrwt>
<rscale>  2 0.45875170E+03</rscale>
<asrwt>0</asrwt>
<pdfrwt beam="1">  1       21 0.14373903E+00 0.45875170E+03</pdfrwt>
<pdfrwt beam="2">  1       21 0.57166481E-01 0.45875170E+03</pdfrwt>
<totfact> 0.80562875E+02</totfact>
</mgrwt>
</event>
<event>
 4    1  0.8562541E-003  0.4750019E+03  0.7818608E-02  0.1020518E+00
         21   -1    0    0  503  502  0.00000000000E+00  0.00000000000E+00  0.14126805223E+04  0.14126805223E+04  0.00000000000E+00 0. -1.
         21   -1    0    0  501  503 -0.00000000000E+00 -0.00000000000E+00 -0.15978590855E+03  0.15978590855E+03  0.00000000000E+00 0.  1.
    9000005    1    1    2  501    0  0.25432422450E+03  0.30756917361E+02  0.64296618561E+03  0.79939496806E+03  0.40000000000E+03 0.  1.
   -9000005    1    1    2    0  502 -0.25432422450E+03 -0.30756917361E+02  0.60992842819E+03  0.77307146283E+03  0.40000000000E+03 0.  1.
<mgrwt>
<rscale>  2 0.47500189E+03</rscale>
<asrwt>0</asrwt>
<pdfrwt beam="1">  1       21 0.21733546E+00 0.47500189E+03</pdfrwt>
<pdfrwt beam="2">  1       21 0.24582448E-01 0.47500189E+03</pdfrwt>
<totfact> 0.13493782E+03</totfact>
</mgrwt>
</event>
<event>
 4    1  0.8562541E-003  0.4915220E+03  0.7818608E-02  0.1016016E+00
         21   -1    0    0  503  502  0.00000000000E+00  0.00000000000E+00  0.10135287608E+04  0.10135287608E+04  0.00000000000E+00 0.  1.
         21   -1    0    0  501  503 -0.00000000000E+00 -0.00000000000E+00 -0.27130009620E+03  0.27130009620E+03  0.00000000000E+00 0. -1.
    9000005    1    1    2  501    0 -0.23700625683E+03  0.15944243697E+03  0.14729722374E+03  0.51311824038E+03  0.40000000000E+03 0. -1.
   -9000005    1    1    2    0  502  0.23700625683E+03 -0.15944243697E+03  0.59493144082E+03  0.77171061660E+03  0.40000000000E+03 0.  1.
<mgrwt>
<rscale>  2 0.49152198E+03</rscale>
<asrwt>0</asrwt>
<pdfrwt beam="1">  1       21 0.15592750E+00 0.49152198E+03</pdfrwt>
<pdfrwt beam="2">  1       21 0.41738477E-01 0.49152198E+03</pdfrwt>
<totfact> 0.12422625E+03</totfact>
</mgrwt>
</event>
<event>
 4    1  0.8562541E-003  0.4233949E+03  0.7818608E-02  0.1035967E+00
         21   -1    0    0  501  502  0.00000000000E+00  0.00000000000E+00  0.18962168712E+04  0.18962168712E+04  0.00000000000E+00 0. -1.
         21   -1    0    0  502  503 -0.00000000000E+00 -0.00000000000E+00 -0.11766429133E+03  0.11766429133E+03  0.00000000000E+00 0. -1.
    9000005    1    1    2  501    0  0.72376032781E+02  0.11842698409E+03  0.13356935571E+04  0.14011925346E+04  0.40000000000E+03 0. -1.
   -9000005    1    1    2    0  503 -0.72376032781E+02 -0.11842698409E+03  0.44285902278E+03  0.61268862789E+03  0.40000000000E+03 0. -1.
<mgrwt>
<rscale>  2 0.42339490E+03</rscale>
<asrwt>0</asrwt>
<pdfrwt beam="1">  1       21 0.29172565E+00 0.42339490E+03</pdfrwt>
<pdfrwt beam="2">  1       21 0.18102200E-01 0.42339490E+03</pdfrwt>
<totfact> 0.86716635E+02</totfact>
</mgrwt>
</event>
<event>
 4    1  0.8562541E-003  0.4638504E+03  0.7818608E-02  0.1023670E+00
         21   -1    0    0  503  502  0.00000000000E+00  0.00000000000E+00  0.36149087140E+03  0.36149087140E+03  0.00000000000E+00 0. -1.
         21   -1    0    0  501  503 -0.00000000000E+00 -0.00000000000E+00 -0.84707080427E+03  0.84707080427E+03  0.00000000000E+00 0.  1.
    9000005    1    1    2  501    0  0.19369813384E+03 -0.13280913840E+03 -0.57230327972E+03  0.73667379367E+03  0.40000000000E+03 0.  1.
   -9000005    1    1    2    0  502 -0.19369813384E+03  0.13280913840E+03  0.86723346856E+02  0.47188788200E+03  0.40000000000E+03 0. -1.
<mgrwt>
<rscale>  2 0.46385044E+03</rscale>
<asrwt>0</asrwt>
<pdfrwt beam="1">  1       21 0.55613981E-01 0.46385044E+03</pdfrwt>
<pdfrwt beam="2">  1       21 0.13031858E+00 0.46385044E+03</pdfrwt>
<totfact> 0.11053534E+03</totfact>
</mgrwt>
</event>
<event>
 4    1  0.8562541E-003  0.5631475E+03  0.7818608E-02  0.9984958E-01
         21   -1    0    0  503  502  0.00000000000E+00  0.00000000000E+00  0.24747844366E+03  0.24747844366E+03  0.00000000000E+00 0.  1.
         21   -1    0    0  501  503 -0.00000000000E+00 -0.00000000000E+00 -0.15810191430E+04  0.15810191430E+04  0.00000000000E+00 0.  1.
    9000005    1    1    2  501    0  0.70397051158E+02 -0.39010167502E+03 -0.10647246574E+04  0.12044806589E+04  0.40000000000E+03 0.  1.
   -9000005    1    1    2    0  502 -0.70397051158E+02  0.39010167502E+03 -0.26881604193E+03  0.62401692771E+03  0.40000000000E+03 0.  1.
<mgrwt>
<rscale>  2 0.56314746E+03</rscale>
<asrwt>0</asrwt>
<pdfrwt beam="1">  1       21 0.38073606E-01 0.56314746E+03</pdfrwt>
<pdfrwt beam="2">  1       21 0.24323372E+00 0.56314746E+03</pdfrwt>
<totfact> 0.37168733E+02</totfact>
</mgrwt>
</event>
<event>
 4    1  0.8562541E-003  0.4627034E+03  0.7818608E-02  0.1024000E+00
         21   -1    0    0  501  502  0.00000000000E+00  0.00000000000E+00  0.10150874959E+04  0.10150874959E+04  0.00000000000E+00 0.  1.
         21   -1    0    0  502  503 -0.00000000000E+00 -0.00000000000E+00 -0.22011742247E+03  0.22011742247E+03  0.00000000000E+00 0. -1.
    9000005    1    1    2  501    0  0.18302562466E+03 -0.14351329397E+03  0.52378302835E+03  0.69888704783E+03  0.40000000000E+03 0. -1.
   -9000005    1    1    2    0  503 -0.18302562466E+03  0.14351329397E+03  0.27118704506E+03  0.53631787052E+03  0.40000000000E+03 0. -1.
<mgrwt>
<rscale>  2 0.46270341E+03</rscale>
<asrwt>0</asrwt>
<pdfrwt beam="1">  1       21 0.15616730E+00 0.46270341E+03</pdfrwt>
<pdfrwt beam="2">  1       21 0.33864219E-01 0.46270341E+03</pdfrwt>
<totfact> 0.19185875E+03</totfact>
</mgrwt>
</event>
<event>
 4    1  0.8562541E-003  0.5113713E+03  0.7818608E-02  0.1010853E+00
         21   -1    0    0  503  502  0.00000000000E+00  0.00000000000E+00  0.35568577857E+03  0.35568577857E+03  0.00000000000E+00 0. -1.
         21   -1    0    0  501  503 -0.00000000000E+00 -0.00000000000E+00 -0.73521261417E+03  0.73521261417E+03  0.00000000000E+00 0.  1.
    9000005    1    1    2  501    0  0.12263739553E+03  0.29404188542E+03 -0.18760103991E+03  0.54469689860E+03  0.40000000000E+03 0.  1.
   -9000005    1    1    2    0  502 -0.12263739553E+03 -0.29404188542E+03 -0.19192579569E+03  0.54620149415E+03  0.40000000000E+03 0. -1.
<mgrwt>
<rscale>  2 0.51137126E+03</rscale>
<asrwt>0</asrwt>
<pdfrwt beam="1">  1       21 0.54720889E-01 0.51137126E+03</pdfrwt>
<pdfrwt beam="2">  1       21 0.11310963E+00 0.51137126E+03</pdfrwt>
<totfact> 0.16146824E+03</totfact>
</mgrwt>
</event>
<event>
 4    1  0.8562541E-003  0.6206814E+03  0.7818608E-02  0.9863404E-01
         21   -1    0    0  503  502  0.00000000000E+00  0.00000000000E+00  0.29491482175E+03  0.29491482175E+03  0.00000000000E+00 0.  1.
         21   -1    0    0  501  503 -0.00000000000E+00 -0.00000000000E+00 -0.13157194286E+04  0.13157194286E+04  0.00000000000E+00 0. -1.
    9000005    1    1    2  501    0  0.12877494711E+01 -0.47459844264E+03 -0.57856478336E+03  0.84851785402E+03  0.40000000000E+03 0.  1.
   -9000005    1    1    2    0  502 -0.12877494711E+01  0.47459844264E+03 -0.44223982347E+03  0.76211639630E+03  0.40000000000E+03 0. -1.
<mgrwt>
<rscale>  2 0.62068135E+03</rscale>
<asrwt>0</asrwt>
<pdfrwt beam="1">  1       21 0.45371511E-01 0.62068135E+03</pdfrwt>
<pdfrwt beam="2">  1       21 0.20241838E+00 0.62068135E+03</pdfrwt>
<totfact> 0.46273397E+02</totfact>
</mgrwt>
</event>
<event>
 4    1  0.8562541E-003  0.6483330E+03  0.7818608E-02  0.9809912E-01
         21   -1    0    0  503  502  0.00000000000E+00  0.00000000000E+00  0.12798749453E+04  0.12798749453E+04  0.00000000000E+00 0.  1.
         21   -1    0    0  501  503 -0.00000000000E+00 -0.00000000000E+00 -0.37734252733E+03  0.37734252733E+03  0.00000000000E+00 0. -1.
    9000005    1    1    2  501    0 -0.10428689024E+03 -0.49945960687E+03  0.15290723275E+03  0.66612031661E+03  0.40000000000E+03 0.  1.
   -9000005    1    1    2    0  502  0.10428689024E+03  0.49945960687E+03  0.74962518518E+03  0.99109715600E+03  0.40000000000E+03 0.  1.
<mgrwt>
<rscale>  2 0.64833298E+03</rscale>
<asrwt>0</asrwt>
<pdfrwt beam="1">  1       21 0.19690384E+00 0.64833298E+03</pdfrwt>
<pdfrwt beam="2">  1       21 0.58052697E-01 0.64833298E+03</pdfrwt>
<totfact> 0.29387856E+02</totfact>
</mgrwt>
</event>
<event>
 4    1  0.8562541E-003  0.4870987E+03  0.7818608E-02  0.1017202E+00
         21   -1    0    0  501  502  0.00000000000E+00  0.00000000000E+00  0.14104132774E+03  0.14104132774E+03  0.00000000000E+00 0.  1.
         21   -1    0    0  502  503 -0.00000000000E+00 -0.00000000000E+00 -0.17233575266E+04  0.17233575266E+04  0.00000000000E+00 0. -1.
    9000005    1    1    2  501    0 -0.32105492351E+02  0.27610566486E+03 -0.64716408027E+03  0.80999163428E+03  0.40000000000E+03 0. -1.
   -9000005    1    1    2    0  503  0.32105492351E+02 -0.27610566486E+03 -0.93515211856E+03  0.10544072200E+04  0.40000000000E+03 0.  1.
<mgrwt>
<rscale>  2 0.48709866E+03</rscale>
<asrwt>0</asrwt>
<pdfrwt beam="1">  1       21 0.21698667E-01 0.48709866E+03</pdfrwt>
<pdfrwt beam="2">  1       21 0.26513191E+00 0.48709866E+03</pdfrwt>
<totfact> 0.85998359E+02</totfact>
</mgrwt>
</event>
<event>
 4    1  0.8562541E-003  0.4093189E+03  0.7818608E-02  0.1040600E+00
         21   -1    0    0  503  502  0.00000000000E+00  0.00000000000E+00  0.11944699341E+03  0.11944699341E+03  0.00000000000E+00 0. -1.
         21   -1    0    0  501  503 -0.00000000000E+00 -0.00000000000E+00 -0.15414930032E+04  0.15414930032E+04  0.00000000000E+00 0. -1.
    9000005    1    1    2  501    0  0.21556599541E+02  0.84126562117E+02 -0.96026423153E+03  0.10438627112E+04  0.40000000000E+03 0. -1.
   -9000005    1    1    2    0  502 -0.21556599541E+02 -0.84126562117E+02 -0.46178177822E+03  0.61707728538E+03  0.40000000000E+03 0. -1.
<mgrwt>
<rscale>  2 0.40931890E+03</rscale>
<asrwt>0</asrwt>
<pdfrwt beam="1">  1       21 0.18376460E-01 0.40931890E+03</pdfrwt>
<pdfrwt beam="2">  1       21 0.23715278E+00 0.40931890E+03</pdfrwt>
<totfact> 0.18203413E+03</totfact>
</mgrwt>
</event>
<event>
 4    1  0.8562541E-003  0.4408239E+03  0.7818608E-02  0.1030494E+00
         21   -1    0    0  503  502  0.00000000000E+00  0.00000000000E+00  0.25334926565E+03  0.25334926565E+03  0.00000000000E+00 0. -1.
         21   -1    0    0  501  503 -0.00000000000E+00 -0.00000000000E+00 -0.81252977054E+03  0.81252977054E+03  0.00000000000E+00 0.  1.
    9000005    1    1    2  501    0 -0.18225988218E+03  0.33272200260E+02 -0.40570841692E+03  0.59910351653E+03  0.40000000000E+03 0.  1.
   -9000005    1    1    2    0  502  0.18225988218E+03 -0.33272200260E+02 -0.15347208797E+03  0.46677551965E+03  0.40000000000E+03 0. -1.
<mgrwt>
<rscale>  2 0.44082389E+03</rscale>
<asrwt>0</asrwt>
<pdfrwt beam="1">  1       21 0.38976811E-01 0.44082389E+03</pdfrwt>
<pdfrwt beam="2">  1       21 0.12500458E+00 0.44082389E+03</pdfrwt>
<totfact> 0.26260297E+03</totfact>
</mgrwt>
</event>
<event>
 4    1  0.8562541E-003  0.4218790E+03  0.7818608E-02  0.1036456E+00
         21   -1    0    0  503  502  0.00000000000E+00  0.00000000000E+00  0.89814140986E+03  0.89814140986E+03  0.00000000000E+00 0. -1.
         21   -1    0    0  501  503 -0.00000000000E+00 -0.00000000000E+00 -0.31495688599E+03  0.31495688599E+03  0.00000000000E+00 0. -1.
    9000005    1    1    2  501    0  0.91424390256E+02  0.98099234090E+02 -0.77762147247E+02  0.42898581609E+03  0.40000000000E+03 0. -1.
   -9000005    1    1    2    0  502 -0.91424390256E+02 -0.98099234090E+02  0.66094667112E+03  0.78411247977E+03  0.40000000000E+03 0. -1.
<mgrwt>
<rscale>  2 0.42187899E+03</rscale>
<asrwt>0</asrwt>
<pdfrwt beam="1">  1       21 0.13817560E+00 0.42187899E+03</pdfrwt>
<pdfrwt beam="2">  1       21 0.48454906E-01 0.42187899E+03</pdfrwt>
<totfact> 0.12961276E+03</totfact>
</mgrwt>
</event>
<event>
 4    1  0.8562541E-003  0.4608803E+03  0.7818608E-02  0.1024526E+00
         21   -1    0    0  501  502  0.00000000000E+00  0.00000000000E+00  0.18332359856E+03  0.18332359856E+03  0.00000000000E+00 0. -1.
         21   -1    0    0  502  503 -0.00000000000E+00 -0.00000000000E+00 -0.15039493761E+04  0.15039493761E+04  0.00000000000E+00 0. -1.
    9000005    1    1    2  501    0 -0.22631618834E+03 -0.34520692237E+02 -0.25608431385E+03  0.52724744769E+03  0.40000000000E+03 0. -1.
   -9000005    1    1    2    0  503  0.22631618834E+03  0.34520692237E+02 -0.10645414637E+04  0.11600255269E+04  0.40000000000E+03 0. -1.
<mgrwt>
<rscale>  2 0.46088035E+03</rscale>
<asrwt>0</asrwt>
<pdfrwt beam="1">  1       21 0.28203631E-01 0.46088035E+03</pdfrwt>
<pdfrwt beam="2">  1       21 0.23137682E+00 0.46088035E+03</pdfrwt>
<totfact> 0.84481412E+02</totfact>
</mgrwt>
</event>
<event>
 4    1  0.8562541E-003  0.5012613E+03  0.7818608E-02  0.1013450E+00
         21   -1    0    0  503  502  0.00000000000E+00  0.00000000000E+00  0.11054684310E+04  0.11054684310E+04  0.00000000000E+00 0.  1.
         21   -1    0    0  501  503 -0.00000000000E+00 -0.00000000000E+00 -0.22983240105E+03  0.22983240105E+03  0.00000000000E+00 0. -1.
    9000005    1    1    2  501    0  0.30176169106E+03 -0.14239468440E+02  0.50802676926E+03  0.71369046437E+03  0.40000000000E+03 0. -1.
   -9000005    1    1    2    0  502 -0.30176169106E+03  0.14239468440E+02  0.36760926068E+03  0.62161036767E+03  0.40000000000E+03 0. -1.
<mgrwt>
<rscale>  2 0.50126129E+03</rscale>
<asrwt>0</asrwt>
<pdfrwt beam="1">  1       21 0.17007206E+00 0.50126129E+03</pdfrwt>
<pdfrwt beam="2">  1       21 0.35358832E-01 0.50126129E+03</pdfrwt>
<totfact> 0.13626871E+03</totfact>
</mgrwt>
</event>
<event>
 4    1  0.8562541E-003  0.4543735E+03  0.7818608E-02  0.1026426E+00
         21   -1    0    0  503  502  0.00000000000E+00  0.00000000000E+00  0.18273867011E+03  0.18273867011E+03  0.00000000000E+00 0.  1.
         21   -1    0    0  501  503 -0.00000000000E+00 -0.00000000000E+00 -0.15881548254E+04  0.15881548254E+04  0.00000000000E+00 0.  1.
    9000005    1    1    2  501    0 -0.21031424734E+02 -0.21450623473E+03 -0.22701759744E+03  0.50792936035E+03  0.40000000000E+03 0.  1.
   -9000005    1    1    2    0  502  0.21031424734E+02  0.21450623473E+03 -0.11783985579E+04  0.12629641352E+04  0.40000000000E+03 0.  1.
<mgrwt>
<rscale>  2 0.45437346E+03</rscale>
<asrwt>0</asrwt>
<pdfrwt beam="1">  1       21 0.28113641E-01 0.45437346E+03</pdfrwt>
<pdfrwt beam="2">  1       21 0.24433152E+00 0.45437346E+03</pdfrwt>
<totfact> 0.70822695E+02</totfact>
</mgrwt>
</event>
<event>
 4    1  0.8562541E-003  0.4174572E+03  0.7818608E-02  0.1037897E+00
         21   -1    0    0  501  502  0.00000000000E+00  0.00000000000E+00  0.33032792055E+03  0.33032792055E+03  0.00000000000E+00 0.  1.
         21   -1    0    0  502  503 -0.00000000000E+00 -0.00000000000E+00 -0.58003898316E+03  0.58003898316E+03  0.00000000000E+00 0. -1.
    9000005    1    1    2  501    0 -0.20992178287E+02  0.11760029035E+03  0.12048655452E+02  0.41763102128E+03  0.40000000000E+03 0.  1.
   -9000005    1    1    2    0  503  0.20992178287E+02 -0.11760029035E+03 -0.26175971806E+03  0.49273588244E+03  0.40000000000E+03 0. -1.
<mgrwt>
<rscale>  2 0.41745718E+03</rscale>
<asrwt>0</asrwt>
<pdfrwt beam="1">  1       21 0.50819680E-01 0.41745718E+03</pdfrwt>
<pdfrwt beam="2">  1       21 0.89236766E-01 0.41745718E+03</pdfrwt>
<totfact> 0.34847197E+03</totfact>
</mgrwt>
</event>
<event>
 4    1  0.8562541E-003  0.4183585E+03  0.7818608E-02  0.1037602E+00
         21   -1    0    0  503  502  0.00000000000E+00  0.00000000000E+00  0.10988685960E+04  0.10988685960E+04  0.00000000000E+00 0.  1.
         21   -1    0    0  501  503 -0.00000000000E+00 -0.00000000000E+00 -0.28571286351E+03  0.28571286351E+03  0.00000000000E+00 0.  1.
    9000005    1    1    2  501    0  0.13075435121E+02  0.12187239171E+03 -0.53954087805E+02  0.42182329293E+03  0.40000000000E+03 0.  1.
   -9000005    1    1    2    0  502 -0.13075435121E+02 -0.12187239171E+03  0.86710982032E+03  0.96275816660E+03  0.40000000000E+03 0.  1.
<mgrwt>
<rscale>  2 0.41835851E+03</rscale>
<asrwt>0</asrwt>
<pdfrwt beam="1">  1       21 0.16905671E+00 0.41835851E+03</pdfrwt>
<pdfrwt beam="2">  1       21 0.43955826E-01 0.41835851E+03</pdfrwt>
<totfact> 0.91774579E+02</totfact>
</mgrwt>
</event>
<event>
 4    1  0.8562541E-003  0.5189169E+03  0.7818608E-02  0.1008956E+00
         21   -1    0    0  503  502  0.00000000000E+00  0.00000000000E+00  0.28097987558E+03  0.28097987558E+03  0.00000000000E+00 0.  1.
         21   -1    0    0  501  503 -0.00000000000E+00 -0.00000000000E+00 -0.98621262237E+03  0.98621262237E+03  0.00000000000E+00 0. -1.
    9000005    1    1    2  501    0 -0.56272676198E+02  0.32574240776E+03 -0.24610327290E+03  0.57431833614E+03  0.40000000000E+03 0.  1.
   -9000005    1    1    2    0  502  0.56272676198E+02 -0.32574240776E+03 -0.45912947390E+03  0.69287416181E+03  0.40000000000E+03 0. -1.
<mgrwt>
<rscale>  2 0.51891688E+03</rscale>
<asrwt>0</asrwt>
<pdfrwt beam="1">  1       21 0.43227674E-01 0.51891688E+03</pdfrwt>
<pdfrwt beam="2">  1       21 0.15172502E+00 0.51891688E+03</pdfrwt>
<totfact> 0.12323789E+03</totfact>
</mgrwt>
</event>
<event>
 4    1  0.8562541E-003  0.5351206E+03  0.7818608E-02  0.1004998E+00
         21   -1    0    0  503  502  0.00000000000E+00  0.00000000000E+00  0.51788253448E+03  0.51788253448E+03  0.00000000000E+00 0. -1.
         21   -1    0    0  501  503 -0.00000000000E+00 -0.00000000000E+00 -0.56013105176E+03  0.56013105176E+03  0.00000000000E+00 0. -1.
    9000005    1    1    2  501    0 -0.11611492876E+03 -0.33596329424E+03 -0.82229183812E+02  0.54140156116E+03  0.40000000000E+03 0. -1.
   -9000005    1    1    2    0  502  0.11611492876E+03  0.33596329424E+03  0.39980666527E+02  0.53661202508E+03  0.40000000000E+03 0. -1.
<mgrwt>
<rscale>  2 0.53512056E+03</rscale>
<asrwt>0</asrwt>
<pdfrwt beam="1">  1       21 0.79674236E-01 0.53512056E+03</pdfrwt>
<pdfrwt beam="2">  1       21 0.86174008E-01 0.53512056E+03</pdfrwt>
<totfact> 0.13390025E+03</totfact>
</mgrwt>
</event>
<event>
 4    1  0.8562541E-003  0.4272777E+03  0.7818608E-02  0.1034723E+00
         21   -1    0    0  503  502  0.00000000000E+00  0.00000000000E+00  0.19833764129E+04  0.19833764129E+04  0.00000000000E+00 0.  1.
         21   -1    0    0  501  503 -0.00000000000E+00 -0.00000000000E+00 -0.14444799719E+03  0.14444799719E+03  0.00000000000E+00 0.  1.
    9000005    1    1    2  501    0  0.14886679538E+03  0.20121415555E+02  0.27867542000E+03  0.51012369465E+03  0.40000000000E+03 0.  1.
   -9000005    1    1    2    0  502 -0.14886679538E+03 -0.20121415555E+02  0.15602529957E+04  0.16177007154E+04  0.40000000000E+03 0.  1.
<mgrwt>
<rscale>  2 0.42727765E+03</rscale>
<asrwt>0</asrwt>
<pdfrwt beam="1">  1       21 0.30513481E+00 0.42727765E+03</pdfrwt>
<pdfrwt beam="2">  1       21 0.22222770E-01 0.42727765E+03</pdfrwt>
<totfact> 0.48676341E+02</totfact>
</mgrwt>
</event>
<event>
 4    1  0.8562541E-003  0.5190740E+03  0.7818608E-02  0.1008917E+00
         21   -1    0    0  503  502  0.00000000000E+00  0.00000000000E+00  0.31121309377E+03  0.31121309377E+03  0.00000000000E+00 0.  1.
         21   -1    0    0  501  503 -0.00000000000E+00 -0.00000000000E+00 -0.96536131304E+03  0.96536131304E+03  0.00000000000E+00 0.  1.
    9000005    1    1    2  501    0 -0.66820039597E+02 -0.32399527003E+03 -0.53209101824E+03  0.74334292516E+03  0.40000000000E+03 0.  1.
   -9000005    1    1    2    0  502  0.66820039597E+02  0.32399527003E+03 -0.12205720104E+03  0.53323148165E+03  0.40000000000E+03 0.  1.
<mgrwt>
<rscale>  2 0.51907403E+03</rscale>
<asrwt>0</asrwt>
<pdfrwt beam="1">  1       21 0.47878938E-01 0.51907403E+03</pdfrwt>
<pdfrwt beam="2">  1       21 0.14851713E+00 0.51907403E+03</pdfrwt>
<totfact> 0.10535049E+03</totfact>
</mgrwt>
</event>
<event>
 4    1  0.8562541E-003  0.6609605E+03  0.7818608E-02  0.9786427E-01
         21   -1    0    0  503  502  0.00000000000E+00  0.00000000000E+00  0.24838803003E+03  0.24838803003E+03  0.00000000000E+00 0.  1.
         21   -1    0    0  501  503 -0.00000000000E+00 -0.00000000000E+00 -0.17880176317E+04  0.17880176317E+04  0.00000000000E+00 0. -1.
    9000005    1    1    2  501    0 -0.63754980890E+02  0.52230650912E+03 -0.63969194423E+03  0.91982311917E+03  0.40000000000E+03 0.  1.
   -9000005    1    1    2    0  502  0.63754980890E+02 -0.52230650912E+03 -0.89993765740E+03  0.11165825425E+04  0.40000000000E+03 0. -1.
<mgrwt>
<rscale>  2 0.66096050E+03</rscale>
<asrwt>0</asrwt>
<pdfrwt beam="1">  1       21 0.38213544E-01 0.66096050E+03</pdfrwt>
<pdfrwt beam="2">  1       21 0.27507963E+00 0.66096050E+03</pdfrwt>
<totfact> 0.22538696E+02</totfact>
</mgrwt>
</event>
<event>
 4    1  0.8562541E-003  0.4008938E+03  0.7818608E-02  0.1043471E+00
         21   -1    0    0  503  502  0.00000000000E+00  0.00000000000E+00  0.16447487869E+04  0.16447487869E+04  0.00000000000E+00 0.  1.
         21   -1    0    0  501  503 -0.00000000000E+00 -0.00000000000E+00 -0.99976228606E+02  0.99976228606E+02  0.00000000000E+00 0.  1.
    9000005    1    1    2  501    0  0.25172738571E+02  0.90643208959E+01  0.64117610849E+03  0.75618954686E+03  0.40000000000E+03 0.  1.
   -9000005    1    1    2    0  502 -0.25172738571E+02 -0.90643208959E+01  0.90359644983E+03  0.98853546867E+03  0.40000000000E+03 0.  1.
<mgrwt>
<rscale>  2 0.40089379E+03</rscale>
<asrwt>0</asrwt>
<pdfrwt beam="1">  1       21 0.25303825E+00 0.40089379E+03</pdfrwt>
<pdfrwt beam="2">  1       21 0.15380959E-01 0.40089379E+03</pdfrwt>
<totfact> 0.20366732E+03</totfact>
</mgrwt>
</event>
<event>
 4    1  0.8562541E-003  0.4579670E+03  0.7818608E-02  0.1025372E+00
         21   -1    0    0  501  502  0.00000000000E+00  0.00000000000E+00  0.43635544006E+03  0.43635544006E+03  0.00000000000E+00 0. -1.
         21   -1    0    0  502  503 -0.00000000000E+00 -0.00000000000E+00 -0.10113156320E+04  0.10113156320E+04  0.00000000000E+00 0.  1.
    9000005    1    1    2  501    0 -0.14256009790E+03  0.17149459328E+03  0.23685322504E+03  0.51559017373E+03  0.40000000000E+03 0.  1.
   -9000005    1    1    2    0  503  0.14256009790E+03 -0.17149459328E+03 -0.81181341698E+03  0.93208089833E+03  0.40000000000E+03 0.  1.
<mgrwt>
<rscale>  2 0.45796700E+03</rscale>
<asrwt>0</asrwt>
<pdfrwt beam="1">  1       21 0.67131606E-01 0.45796700E+03</pdfrwt>
<pdfrwt beam="2">  1       21 0.15558702E+00 0.45796700E+03</pdfrwt>
<totfact> 0.45604759E+02</totfact>
</mgrwt>
</event>
<event>
 4    1  0.8562541E-003  0.5574643E+03  0.7818608E-02  0.9997808E-01
         21   -1    0    0  503  502  0.00000000000E+00  0.00000000000E+00  0.30483499688E+03  0.30483499688E+03  0.00000000000E+00 0. -1.
         21   -1    0    0  501  503 -0.00000000000E+00 -0.00000000000E+00 -0.10233334375E+04  0.10233334375E+04  0.00000000000E+00 0. -1.
    9000005    1    1    2  501    0 -0.38766727126E+03 -0.21921653513E+02 -0.40011649774E+03  0.68619216249E+03  0.40000000000E+03 0. -1.
   -9000005    1    1    2    0  502  0.38766727126E+03  0.21921653513E+02 -0.31838194284E+03  0.64197627186E+03  0.40000000000E+03 0. -1.
<mgrwt>
<rscale>  2 0.55746432E+03</rscale>
<asrwt>0</asrwt>
<pdfrwt beam="1">  1       21 0.46897692E-01 0.55746432E+03</pdfrwt>
<pdfrwt beam="2">  1       21 0.15743591E+00 0.55746432E+03</pdfrwt>
<totfact> 0.92488967E+02</totfact>
</mgrwt>
</event>
<event>
 4    1  0.8562541E-003  0.4611473E+03  0.7818608E-02  0.1024449E+00
         21   -1    0    0  501  502  0.00000000000E+00  0.00000000000E+00  0.84680424255E+03  0.84680424255E+03  0.00000000000E+00 0. -1.
         21   -1    0    0  502  503 -0.00000000000E+00 -0.00000000000E+00 -0.25350524157E+03  0.25350524157E+03  0.00000000000E+00 0.  1.
    9000005    1    1    2  501    0  0.22889490629E+03  0.16245874277E+02  0.34991777537E+03  0.57887758298E+03  0.40000000000E+03 0.  1.
   -9000005    1    1    2    0  503 -0.22889490629E+03 -0.16245874277E+02  0.24338122561E+03  0.52143190115E+03  0.40000000000E+03 0.  1.
<mgrwt>
<rscale>  2 0.46114727E+03</rscale>
<asrwt>0</asrwt>
<pdfrwt beam="1">  1       21 0.13027757E+00 0.46114727E+03</pdfrwt>
<pdfrwt beam="2">  1       21 0.39000807E-01 0.46114727E+03</pdfrwt>
<totfact> 0.23392287E+03</totfact>
</mgrwt>
</event>
<event>
 4    1  0.8562541E-003  0.5141845E+03  0.7818608E-02  0.1010141E+00
         21   -1    0    0  501  502  0.00000000000E+00  0.00000000000E+00  0.29235396085E+03  0.29235396085E+03  0.00000000000E+00 0.  1.
         21   -1    0    0  502  503 -0.00000000000E+00 -0.00000000000E+00 -0.10419830723E+04  0.10419830723E+04  0.00000000000E+00 0.  1.
    9000005    1    1    2  501    0 -0.30187537241E+02  0.32167435011E+03 -0.13232580453E+03  0.53093859670E+03  0.40000000000E+03 0.  1.
   -9000005    1    1    2    0  503  0.30187537241E+02 -0.32167435011E+03 -0.61730330689E+03  0.80339843641E+03  0.40000000000E+03 0.  1.
<mgrwt>
<rscale>  2 0.51418448E+03</rscale>
<asrwt>0</asrwt>
<pdfrwt beam="1">  1       21 0.44977532E-01 0.51418448E+03</pdfrwt>
<pdfrwt beam="2">  1       21 0.16030509E+00 0.51418448E+03</pdfrwt>
<totfact> 0.97545809E+02</totfact>
</mgrwt>
</event>
<event>
 4    1  0.8562541E-003  0.4179957E+03  0.7818608E-02  0.1037721E+00
         21   -1    0    0  501  502  0.00000000000E+00  0.00000000000E+00  0.11107220664E+04  0.11107220664E+04  0.00000000000E+00 0. -1.
         21   -1    0    0  502  503 -0.00000000000E+00 -0.00000000000E+00 -0.19239119323E+03  0.19239119323E+03  0.00000000000E+00 0. -1.
    9000005    1    1    2  501    0 -0.77979946896E+02 -0.92949177008E+02  0.73741676376E+03  0.84764609661E+03  0.40000000000E+03 0. -1.
   -9000005    1    1    2    0  503  0.77979946896E+02  0.92949177008E+02  0.18091410946E+03  0.45546716306E+03  0.40000000000E+03 0. -1.
<mgrwt>
<rscale>  2 0.41799572E+03</rscale>
<asrwt>0</asrwt>
<pdfrwt beam="1">  1       21 0.17088031E+00 0.41799572E+03</pdfrwt>
<pdfrwt beam="2">  1       21 0.29598646E-01 0.41799572E+03</pdfrwt>
<totfact> 0.19869875E+03</totfact>
</mgrwt>
</event>
<event>
 4    1  0.8562541E-003  0.5202449E+03  0.7818608E-02  0.1008626E+00
         21   -1    0    0  501  502  0.00000000000E+00  0.00000000000E+00  0.52147916387E+03  0.52147916387E+03  0.00000000000E+00 0.  1.
         21   -1    0    0  502  503 -0.00000000000E+00 -0.00000000000E+00 -0.57569411321E+03  0.57569411321E+03  0.00000000000E+00 0.  1.
    9000005    1    1    2  501    0  0.33037337863E+03 -0.38835094881E+02  0.14502647882E+03  0.54008093232E+03  0.40000000000E+03 0.  1.
   -9000005    1    1    2    0  503 -0.33037337863E+03  0.38835094881E+02 -0.19924142816E+03  0.55709234476E+03  0.40000000000E+03 0.  1.
<mgrwt>
<rscale>  2 0.52024488E+03</rscale>
<asrwt>0</asrwt>
<pdfrwt beam="1">  1       21 0.80227564E-01 0.52024488E+03</pdfrwt>
<pdfrwt beam="2">  1       21 0.88568325E-01 0.52024488E+03</pdfrwt>
<totfact> 0.12412057E+03</totfact>
</mgrwt>
</event>
<event>
 4    1  0.8562541E-003  0.5746127E+03  0.7818608E-02  0.9959523E-01
         21   -1    0    0  503  502  0.00000000000E+00  0.00000000000E+00  0.86985175805E+03  0.86985175805E+03  0.00000000000E+00 0.  1.
         21   -1    0    0  501  503 -0.00000000000E+00 -0.00000000000E+00 -0.40841741117E+03  0.40841741117E+03  0.00000000000E+00 0.  1.
    9000005    1    1    2  501    0 -0.41250654716E+03  0.42564054789E+01  0.60890509020E+02  0.57782992526E+03  0.40000000000E+03 0.  1.
   -9000005    1    1    2    0  502  0.41250654716E+03 -0.42564054789E+01  0.40054383785E+03  0.70043924396E+03  0.40000000000E+03 0.  1.
<mgrwt>
<rscale>  2 0.57461271E+03</rscale>
<asrwt>0</asrwt>
<pdfrwt beam="1">  1       21 0.13382335E+00 0.57461271E+03</pdfrwt>
<pdfrwt beam="2">  1       21 0.62833448E-01 0.57461271E+03</pdfrwt>
<totfact> 0.75771660E+02</totfact>
</mgrwt>
</event>
<event>
 4    1  0.8562541E-003  0.4151871E+03  0.7818608E-02  0.1038644E+00
         21   -1    0    0  503  502  0.00000000000E+00  0.00000000000E+00  0.35512875926E+03  0.35512875926E+03  0.00000000000E+00 0.  1.
         21   -1    0    0  501  503 -0.00000000000E+00 -0.00000000000E+00 -0.50620287655E+03  0.50620287655E+03  0.00000000000E+00 0.  1.
    9000005    1    1    2  501    0  0.10167725531E+03 -0.45189541496E+02 -0.16283711814E+03  0.44597789850E+03  0.40000000000E+03 0.  1.
   -9000005    1    1    2    0  502 -0.10167725531E+03  0.45189541496E+02  0.11763000853E+02  0.41535373731E+03  0.40000000000E+03 0.  1.
<mgrwt>
<rscale>  2 0.41518714E+03</rscale>
<asrwt>0</asrwt>
<pdfrwt beam="1">  1       21 0.54635193E-01 0.41518714E+03</pdfrwt>
<pdfrwt beam="2">  1       21 0.77877366E-01 0.41518714E+03</pdfrwt>
<totfact> 0.40998666E+03</totfact>
</mgrwt>
</event>
<event>
 4    1  0.8562541E-003  0.4824574E+03  0.7818608E-02  0.1018462E+00
         21   -1    0    0  501  502  0.00000000000E+00  0.00000000000E+00  0.22554745999E+03  0.22554745999E+03  0.00000000000E+00 0.  1.
         21   -1    0    0  502  503 -0.00000000000E+00 -0.00000000000E+00 -0.10334187435E+04  0.10334187435E+04  0.00000000000E+00 0. -1.
    9000005    1    1    2  501    0  0.24638963383E+03 -0.10980588501E+03 -0.42725187893E+03  0.64444499539E+03  0.40000000000E+03 0.  1.
   -9000005    1    1    2    0  503 -0.24638963383E+03  0.10980588501E+03 -0.38061940454E+03  0.61452120806E+03  0.40000000000E+03 0. -1.
<mgrwt>
<rscale>  2 0.48245744E+03</rscale>
<asrwt>0</asrwt>
<pdfrwt beam="1">  1       21 0.34699609E-01 0.48245744E+03</pdfrwt>
<pdfrwt beam="2">  1       21 0.15898750E+00 0.48245744E+03</pdfrwt>
<totfact> 0.17245943E+03</totfact>
</mgrwt>
</event>
<event>
 4    1  0.8562541E-003  0.4088461E+03  0.7818608E-02  0.1040759E+00
         21   -1    0    0  501  502  0.00000000000E+00  0.00000000000E+00  0.88601465572E+02  0.88601465572E+02  0.00000000000E+00 0. -1.
         21   -1    0    0  502  503 -0.00000000000E+00 -0.00000000000E+00 -0.26705900974E+04  0.26705900974E+04  0.00000000000E+00 0. -1.
    9000005    1    1    2  501    0  0.79921621472E+02 -0.27706489681E+02 -0.54350530867E+03  0.68011259046E+03  0.40000000000E+03 0. -1.
   -9000005    1    1    2    0  503 -0.79921621472E+02  0.27706489681E+02 -0.20384833232E+04  0.20790789725E+04  0.40000000000E+03 0. -1.
<mgrwt>
<rscale>  2 0.40884608E+03</rscale>
<asrwt>0</asrwt>
<pdfrwt beam="1">  1       21 0.13630992E-01 0.40884608E+03</pdfrwt>
<pdfrwt beam="2">  1       21 0.41086010E+00 0.40884608E+03</pdfrwt>
<totfact> 0.27381802E+02</totfact>
</mgrwt>
</event>
<event>
 4    1  0.8562541E-003  0.5700312E+03  0.7818608E-02  0.9969610E-01
         21   -1    0    0  501  502  0.00000000000E+00  0.00000000000E+00  0.95690921771E+03  0.95690921771E+03  0.00000000000E+00 0. -1.
         21   -1    0    0  502  503 -0.00000000000E+00 -0.00000000000E+00 -0.43516874364E+03  0.43516874364E+03  0.00000000000E+00 0.  1.
    9000005    1    1    2  501    0  0.28154454337E+03  0.29269143468E+03  0.58710909704E+03  0.81831088082E+03  0.40000000000E+03 0. -1.
   -9000005    1    1    2    0  503 -0.28154454337E+03 -0.29269143468E+03 -0.65368622972E+02  0.57376708054E+03  0.40000000000E+03 0.  1.
<mgrwt>
<rscale>  2 0.57003123E+03</rscale>
<asrwt>0</asrwt>
<pdfrwt beam="1">  1       21 0.14721680E+00 0.57003123E+03</pdfrwt>
<pdfrwt beam="2">  1       21 0.66949037E-01 0.57003123E+03</pdfrwt>
<totfact> 0.51004497E+02</totfact>
</mgrwt>
</event>
<event>
 4    1  0.8562541E-003  0.5702743E+03  0.7818608E-02  0.9969072E-01
         21   -1    0    0  501  502  0.00000000000E+00  0.00000000000E+00  0.11396957539E+04  0.11396957539E+04  0.00000000000E+00 0.  1.
         21   -1    0    0  502  503 -0.00000000000E+00 -0.00000000000E+00 -0.41459229642E+03  0.41459229642E+03  0.00000000000E+00 0. -1.
    9000005    1    1    2  501    0  0.19891137754E+03  0.35446733826E+03  0.79645435433E+03  0.97956743950E+03  0.40000000000E+03 0.  1.
   -9000005    1    1    2    0  503 -0.19891137754E+03 -0.35446733826E+03 -0.71350896845E+02  0.57472061081E+03  0.40000000000E+03 0. -1.
<mgrwt>
<rscale>  2 0.57027435E+03</rscale>
<asrwt>0</asrwt>
<pdfrwt beam="1">  1       21 0.17533781E+00 0.57027435E+03</pdfrwt>
<pdfrwt beam="2">  1       21 0.63783431E-01 0.57027435E+03</pdfrwt>
<totfact> 0.34762931E+02</totfact>
</mgrwt>
</event>
<event>
 4    1  0.8562541E-003  0.4006384E+03  0.7818608E-02  0.1043559E+00
         21   -1    0    0  503  502  0.00000000000E+00  0.00000000000E+00  0.72687601703E+03  0.72687601703E+03  0.00000000000E+00 0.  1.
         21   -1    0    0  501  503 -0.00000000000E+00 -0.00000000000E+00 -0.27620610815E+03  0.27620610815E+03  0.00000000000E+00 0.  1.
    9000005    1    1    2  501    0 -0.21784994311E+02  0.60475004974E+01  0.75170749691E+00  0.40063914350E+03  0.40000000000E+03 0.  1.
   -9000005    1    1    2    0  502  0.21784994311E+02 -0.60475004974E+01  0.44991820138E+03  0.60244298168E+03  0.40000000000E+03 0.  1.
<mgrwt>
<rscale>  2 0.40063844E+03</rscale>
<asrwt>0</asrwt>
<pdfrwt beam="1">  1       21 0.11182708E+00 0.40063844E+03</pdfrwt>
<pdfrwt beam="2">  1       21 0.42493248E-01 0.40063844E+03</pdfrwt>
<totfact> 0.29570611E+03</totfact>
</mgrwt>
</event>
<event>
 4    1  0.8562541E-003  0.4744949E+03  0.7818608E-02  0.1020659E+00
         21   -1    0    0  501  502  0.00000000000E+00  0.00000000000E+00  0.36690054467E+03  0.36690054467E+03  0.00000000000E+00 0.  1.
         21   -1    0    0  502  503 -0.00000000000E+00 -0.00000000000E+00 -0.69190082591E+03  0.69190082591E+03  0.00000000000E+00 0.  1.
    9000005    1    1    2  501    0  0.14150813880E+03  0.21241673457E+03  0.15545137550E+02  0.47474948528E+03  0.40000000000E+03 0.  1.
   -9000005    1    1    2    0  503 -0.14150813880E+03 -0.21241673457E+03 -0.34054541879E+03  0.58405188531E+03  0.40000000000E+03 0.  1.
<mgrwt>
<rscale>  2 0.47449491E+03</rscale>
<asrwt>0</asrwt>
<pdfrwt beam="1">  1       21 0.56446238E-01 0.47449491E+03</pdfrwt>
<pdfrwt beam="2">  1       21 0.10644628E+00 0.47449491E+03</pdfrwt>
<totfact> 0.17786472E+03</totfact>
</mgrwt>
</event>
<event>
 4    1  0.8562541E-003  0.5905882E+03  0.7818608E-02  0.9925127E-01
         21   -1    0    0  501  502  0.00000000000E+00  0.00000000000E+00  0.98890128131E+03  0.98890128131E+03  0.00000000000E+00 0. -1.
         21   -1    0    0  502  503 -0.00000000000E+00 -0.00000000000E+00 -0.49472039128E+03  0.49472039128E+03  0.00000000000E+00 0.  1.
    9000005    1    1    2  501    0 -0.41839015332E+03  0.11723528872E+03  0.64453337816E+03  0.87419546377E+03  0.40000000000E+03 0. -1.
   -9000005    1    1    2    0  503  0.41839015332E+03 -0.11723528872E+03 -0.15035248812E+03  0.60942620882E+03  0.40000000000E+03 0. -1.
<mgrwt>
<rscale>  2 0.59058821E+03</rscale>
<asrwt>0</asrwt>
<pdfrwt beam="1">  1       21 0.15213866E+00 0.59058821E+03</pdfrwt>
<pdfrwt beam="2">  1       21 0.76110830E-01 0.59058821E+03</pdfrwt>
<totfact> 0.34566647E+02</totfact>
</mgrwt>
</event>
<event>
 4    1  0.8562541E-003  0.4000246E+03  0.7818608E-02  0.1043771E+00
         21   -1    0    0  501  502  0.00000000000E+00  0.00000000000E+00  0.16520443649E+03  0.16520443649E+03  0.00000000000E+00 0. -1.
         21   -1    0    0  502  503 -0.00000000000E+00 -0.00000000000E+00 -0.99485231310E+03  0.99485231310E+03  0.00000000000E+00 0. -1.
    9000005    1    1    2  501    0  0.94107015081E+00  0.43316740651E+01 -0.50901764957E+03  0.64739371065E+03  0.40000000000E+03 0.  1.
   -9000005    1    1    2    0  503 -0.94107015081E+00 -0.43316740651E+01 -0.32063022704E+03  0.51266303895E+03  0.40000000000E+03 0.  1.
<mgrwt>
<rscale>  2 0.40002456E+03</rscale>
<asrwt>0</asrwt>
<pdfrwt beam="1">  1       21 0.25416068E-01 0.40002456E+03</pdfrwt>
<pdfrwt beam="2">  1       21 0.15305420E+00 0.40002456E+03</pdfrwt>
<totfact> 0.36704105E+03</totfact>
</mgrwt>
</event>
<event>
 4    1  0.8562541E-003  0.4731220E+03  0.7818608E-02  0.1021043E+00
         21   -1    0    0  503  502  0.00000000000E+00  0.00000000000E+00  0.64723735204E+03  0.64723735204E+03  0.00000000000E+00 0. -1.
         21   -1    0    0  501  503 -0.00000000000E+00 -0.00000000000E+00 -0.34947269696E+03  0.34947269696E+03  0.00000000000E+00 0. -1.
    9000005    1    1    2  501    0 -0.16890089249E+02  0.25210937961E+03  0.19965044664E+03  0.51352187417E+03  0.40000000000E+03 0. -1.
   -9000005    1    1    2    0  502  0.16890089249E+02 -0.25210937961E+03  0.98114208445E+02  0.48318817484E+03  0.40000000000E+03 0. -1.
<mgrwt>
<rscale>  2 0.47312199E+03</rscale>
<asrwt>0</asrwt>
<pdfrwt beam="1">  1       21 0.99574977E-01 0.47312199E+03</pdfrwt>
<pdfrwt beam="2">  1       21 0.53765030E-01 0.47312199E+03</pdfrwt>
<totfact> 0.23287032E+03</totfact>
</mgrwt>
</event>
<event>
 4    1  0.8562541E-003  0.4475818E+03  0.7818608E-02  0.1028446E+00
         21   -1    0    0  503  502  0.00000000000E+00  0.00000000000E+00  0.90669664226E+03  0.90669664226E+03  0.00000000000E+00 0. -1.
         21   -1    0    0  501  503 -0.00000000000E+00 -0.00000000000E+00 -0.33153545519E+03  0.33153545519E+03  0.00000000000E+00 0.  1.
    9000005    1    1    2  501    0 -0.18385401470E+03 -0.80791112025E+02 -0.69994422149E+02  0.45302176728E+03  0.40000000000E+03 0.  1.
   -9000005    1    1    2    0  502  0.18385401470E+03  0.80791112025E+02  0.64515560922E+03  0.78521033017E+03  0.40000000000E+03 0. -1.
<mgrwt>
<rscale>  2 0.44758184E+03</rscale>
<asrwt>0</asrwt>
<pdfrwt beam="1">  1       21 0.13949179E+00 0.44758184E+03</pdfrwt>
<pdfrwt beam="2">  1       21 0.51005455E-01 0.44758184E+03</pdfrwt>
<totfact> 0.11210390E+03</totfact>
</mgrwt>
</event>
<event>
 4    1  0.8562541E-003  0.6765564E+03  0.7818608E-02  0.9758186E-01
         21   -1    0    0  501  502  0.00000000000E+00  0.00000000000E+00  0.84122207460E+03  0.84122207460E+03  0.00000000000E+00 0. -1.
         21   -1    0    0  502  503 -0.00000000000E+00 -0.00000000000E+00 -0.70741830714E+03  0.70741830714E+03  0.00000000000E+00 0. -1.
    9000005    1    1    2  501    0 -0.27904544626E+03 -0.46889470485E+03 -0.30512024422E+03  0.74217718150E+03  0.40000000000E+03 0. -1.
   -9000005    1    1    2    0  503  0.27904544626E+03  0.46889470485E+03  0.43892401168E+03  0.80646320024E+03  0.40000000000E+03 0. -1.
<mgrwt>
<rscale>  2 0.67655643E+03</rscale>
<asrwt>0</asrwt>
<pdfrwt beam="1">  1       21 0.12941878E+00 0.67655643E+03</pdfrwt>
<pdfrwt beam="2">  1       21 0.10883359E+00 0.67655643E+03</pdfrwt>
<totfact> 0.21992577E+02</totfact>
</mgrwt>
</event>
<event>
 4    1  0.8562541E-003  0.5225396E+03  0.7818608E-02  0.1008058E+00
         21   -1    0    0  501  502  0.00000000000E+00  0.00000000000E+00  0.29485292324E+03  0.29485292324E+03  0.00000000000E+00 0.  1.
         21   -1    0    0  502  503 -0.00000000000E+00 -0.00000000000E+00 -0.11022555669E+04  0.11022555669E+04  0.00000000000E+00 0.  1.
    9000005    1    1    2  501    0  0.31525142286E+03 -0.11689405167E+03 -0.68300228736E+03  0.85996500130E+03  0.40000000000E+03 0.  1.
   -9000005    1    1    2    0  503 -0.31525142286E+03  0.11689405167E+03 -0.12440035628E+03  0.53714348881E+03  0.40000000000E+03 0.  1.
<mgrwt>
<rscale>  2 0.52253964E+03</rscale>
<asrwt>0</asrwt>
<pdfrwt beam="1">  1       21 0.45361988E-01 0.52253964E+03</pdfrwt>
<pdfrwt beam="2">  1       21 0.16957778E+00 0.52253964E+03</pdfrwt>
<totfact> 0.81461409E+02</totfact>
</mgrwt>
</event>
<event>
 4    1  0.8562541E-003  0.5164149E+03  0.7818608E-02  0.1009581E+00
         21   -1    0    0  503  502  0.00000000000E+00  0.00000000000E+00  0.18644141853E+04  0.18644141853E+04  0.00000000000E+00 0. -1.
         21   -1    0    0  501  503 -0.00000000000E+00 -0.00000000000E+00 -0.15689309807E+03  0.15689309807E+03  0.00000000000E+00 0. -1.
    9000005    1    1    2  501    0 -0.14856669387E+03  0.29088183729E+03  0.55343900178E+03  0.75695378623E+03  0.40000000000E+03 0. -1.
   -9000005    1    1    2    0  502  0.14856669387E+03 -0.29088183729E+03  0.11540820855E+04  0.12643534972E+04  0.40000000000E+03 0. -1.
<mgrwt>
<rscale>  2 0.51641486E+03</rscale>
<asrwt>0</asrwt>
<pdfrwt beam="1">  1       21 0.28683294E+00 0.51641486E+03</pdfrwt>
<pdfrwt beam="2">  1       21 0.24137401E-01 0.51641486E+03</pdfrwt>
<totfact> 0.50972843E+02</totfact>
</mgrwt>
</event>
<event>
 4    1  0.8562541E-003  0.5971468E+03  0.7818608E-02  0.9911343E-01
         21   -1    0    0  501  502  0.00000000000E+00  0.00000000000E+00  0.71766974016E+03  0.71766974016E+03  0.00000000000E+00 0.  1.
         21   -1    0    0  502  503 -0.00000000000E+00 -0.00000000000E+00 -0.53607843400E+03  0.53607843400E+03  0.00000000000E+00 0.  1.
    9000005    1    1    2  501    0 -0.32566408010E+03 -0.30087743314E+03  0.26034207277E+03  0.65143097692E+03  0.40000000000E+03 0.  1.
   -9000005    1    1    2    0  503  0.32566408010E+03  0.30087743314E+03 -0.78750766620E+02  0.60231719723E+03  0.40000000000E+03 0.  1.
<mgrwt>
<rscale>  2 0.59714682E+03</rscale>
<asrwt>0</asrwt>
<pdfrwt beam="1">  1       21 0.11041073E+00 0.59714682E+03</pdfrwt>
<pdfrwt beam="2">  1       21 0.82473605E-01 0.59714682E+03</pdfrwt>
<totfact> 0.66303846E+02</totfact>
</mgrwt>
</event>
<event>
 4    1  0.8562541E-003  0.4526854E+03  0.7818608E-02  0.1026924E+00
         21   -1    0    0  503  502  0.00000000000E+00  0.00000000000E+00  0.12821638537E+04  0.12821638537E+04  0.00000000000E+00 0. -1.
         21   -1    0    0  501  503 -0.00000000000E+00 -0.00000000000E+00 -0.16352781733E+03  0.16352781733E+03  0.00000000000E+00 0.  1.
    9000005    1    1    2  501    0 -0.21186250100E+03  0.61915776145E+01  0.66806434084E+03  0.80699071771E+03  0.40000000000E+03 0.  1.
   -9000005    1    1    2    0  502  0.21186250100E+03 -0.61915776145E+01  0.45057169555E+03  0.63870095334E+03  0.40000000000E+03 0. -1.
<mgrwt>
<rscale>  2 0.45268538E+03</rscale>
<asrwt>0</asrwt>
<pdfrwt beam="1">  1       21 0.19725597E+00 0.45268538E+03</pdfrwt>
<pdfrwt beam="2">  1       21 0.25158127E-01 0.45268538E+03</pdfrwt>
<totfact> 0.17648664E+03</totfact>
</mgrwt>
</event>
<event>
 4    1  0.8562541E-003  0.4729887E+03  0.7818608E-02  0.1021080E+00
         21   -1    0    0  501  502  0.00000000000E+00  0.00000000000E+00  0.21998965791E+03  0.21998965791E+03  0.00000000000E+00 0.  1.
         21   -1    0    0  502  503 -0.00000000000E+00 -0.00000000000E+00 -0.10401573712E+04  0.10401573712E+04  0.00000000000E+00 0.  1.
    9000005    1    1    2  501    0  0.19169238131E+03  0.16423264067E+03 -0.31596834811E+03  0.56881835969E+03  0.40000000000E+03 0.  1.
   -9000005    1    1    2    0  503 -0.19169238131E+03 -0.16423264067E+03 -0.50419936518E+03  0.69132866942E+03  0.40000000000E+03 0.  1.
<mgrwt>
<rscale>  2 0.47298872E+03</rscale>
<asrwt>0</asrwt>
<pdfrwt beam="1">  1       21 0.33844563E-01 0.47298872E+03</pdfrwt>
<pdfrwt beam="2">  1       21 0.16002421E+00 0.47298872E+03</pdfrwt>
<totfact> 0.17877244E+03</totfact>
</mgrwt>
</event>
<event>
 4    1  0.8562541E-003  0.5142088E+03  0.7818608E-02  0.1010135E+00
         21   -1    0    0  503  502  0.00000000000E+00  0.00000000000E+00  0.21080552135E+03  0.21080552135E+03  0.00000000000E+00 0. -1.
         21   -1    0    0  501  503 -0.00000000000E+00 -0.00000000000E+00 -0.12772930421E+04  0.12772930421E+04  0.00000000000E+00 0.  1.
    9000005    1    1    2  501    0 -0.28343278594E+03 -0.15516626816E+03 -0.63309957426E+03  0.81561374795E+03  0.40000000000E+03 0. -1.
   -9000005    1    1    2    0  502  0.28343278594E+03  0.15516626816E+03 -0.43338794653E+03  0.67248481553E+03  0.40000000000E+03 0.  1.
<mgrwt>
<rscale>  2 0.51420882E+03</rscale>
<asrwt>0</asrwt>
<pdfrwt beam="1">  1       21 0.32431618E-01 0.51420882E+03</pdfrwt>
<pdfrwt beam="2">  1       21 0.19650662E+00 0.51420882E+03</pdfrwt>
<totfact> 0.10533120E+03</totfact>
</mgrwt>
</event>
<event>
 4    1  0.8562541E-003  0.5818895E+03  0.7818608E-02  0.9943709E-01
         21   -1    0    0  501  502  0.00000000000E+00  0.00000000000E+00  0.18345425005E+04  0.18345425005E+04  0.00000000000E+00 0. -1.
         21   -1    0    0  502  503 -0.00000000000E+00 -0.00000000000E+00 -0.18731322474E+03  0.18731322474E+03  0.00000000000E+00 0.  1.
    9000005    1    1    2  501    0 -0.24804522324E+03 -0.34215335982E+03  0.94602890957E+03  0.11106601875E+04  0.40000000000E+03 0.  1.
   -9000005    1    1    2    0  503  0.24804522324E+03  0.34215335982E+03  0.70120036614E+03  0.91119553767E+03  0.40000000000E+03 0. -1.
<mgrwt>
<rscale>  2 0.58188947E+03</rscale>
<asrwt>0</asrwt>
<pdfrwt beam="1">  1       21 0.28223730E+00 0.58188947E+03</pdfrwt>
<pdfrwt beam="2">  1       21 0.28817420E-01 0.58188947E+03</pdfrwt>
<totfact> 0.37246263E+02</totfact>
</mgrwt>
</event>
<event>
 4    1  0.8562541E-003  0.5903200E+03  0.7818608E-02  0.9925695E-01
         21   -1    0    0  503  502  0.00000000000E+00  0.00000000000E+00  0.17610267688E+03  0.17610267688E+03  0.00000000000E+00 0. -1.
         21   -1    0    0  501  503 -0.00000000000E+00 -0.00000000000E+00 -0.22093344714E+04  0.22093344714E+04  0.00000000000E+00 0.  1.
    9000005    1    1    2  501    0  0.38396402302E+03 -0.20260643231E+03 -0.14018674271E+04  0.15210884328E+04  0.40000000000E+03 0.  1.
   -9000005    1    1    2    0  502 -0.38396402302E+03  0.20260643231E+03 -0.63136436741E+03  0.86434871541E+03  0.40000000000E+03 0. -1.
<mgrwt>
<rscale>  2 0.59032003E+03</rscale>
<asrwt>0</asrwt>
<pdfrwt beam="1">  1       21 0.27092721E-01 0.59032003E+03</pdfrwt>
<pdfrwt beam="2">  1       21 0.33989759E+00 0.59032003E+03</pdfrwt>
<totfact> 0.18644241E+02</totfact>
</mgrwt>
</event>
<event>
 4    1  0.8562541E-003  0.4583881E+03  0.7818608E-02  0.1025250E+00
         21   -1    0    0  503  502  0.00000000000E+00  0.00000000000E+00  0.11644599759E+04  0.11644599759E+04  0.00000000000E+00 0. -1.
         21   -1    0    0  501  503 -0.00000000000E+00 -0.00000000000E+00 -0.18875882892E+03  0.18875882892E+03  0.00000000000E+00 0. -1.
    9000005    1    1    2  501    0  0.21481391510E+03 -0.63044767516E+02  0.34584201201E+03  0.57421804056E+03  0.40000000000E+03 0. -1.
   -9000005    1    1    2    0  502 -0.21481391510E+03  0.63044767516E+02  0.62985913499E+03  0.77900076429E+03  0.40000000000E+03 0. -1.
<mgrwt>
<rscale>  2 0.45838811E+03</rscale>
<asrwt>0</asrwt>
<pdfrwt beam="1">  1       21 0.17914768E+00 0.45838811E+03</pdfrwt>
<pdfrwt beam="2">  1       21 0.29039820E-01 0.45838811E+03</pdfrwt>
<totfact> 0.17700883E+03</totfact>
</mgrwt>
</event>
<event>
 4    1  0.8562541E-003  0.5469732E+03  0.7818608E-02  0.1002197E+00
         21   -1    0    0  501  502  0.00000000000E+00  0.00000000000E+00  0.74431627392E+03  0.74431627392E+03  0.00000000000E+00 0.  1.
         21   -1    0    0  502  503 -0.00000000000E+00 -0.00000000000E+00 -0.40195318551E+03  0.40195318551E+03  0.00000000000E+00 0. -1.
    9000005    1    1    2  501    0 -0.18622699683E+03  0.32326340173E+03  0.17197684680E+03  0.57337226745E+03  0.40000000000E+03 0.  1.
   -9000005    1    1    2    0  503  0.18622699683E+03 -0.32326340173E+03  0.17038624161E+03  0.57289719197E+03  0.40000000000E+03 0. -1.
<mgrwt>
<rscale>  2 0.54697324E+03</rscale>
<asrwt>0</asrwt>
<pdfrwt beam="1">  1       21 0.11451020E+00 0.54697324E+03</pdfrwt>
<pdfrwt beam="2">  1       21 0.61838951E-01 0.54697324E+03</pdfrwt>
<totfact> 0.11839613E+03</totfact>
</mgrwt>
</event>
<event>
 4    1  0.8562541E-003  0.8664022E+03  0.7818608E-02  0.9468583E-01
         21   -1    0    0  503  502  0.00000000000E+00  0.00000000000E+00  0.12603687803E+04  0.12603687803E+04  0.00000000000E+00 0. -1.
         21   -1    0    0  501  503 -0.00000000000E+00 -0.00000000000E+00 -0.62932985276E+03  0.62932985276E+03  0.00000000000E+00 0.  1.
    9000005    1    1    2  501    0  0.24981586620E+03 -0.72680455316E+03  0.96719553013E+02  0.87178408877E+03  0.40000000000E+03 0. -1.
   -9000005    1    1    2    0  502 -0.24981586620E+03  0.72680455316E+03  0.53431937457E+03  0.10179145443E+04  0.40000000000E+03 0.  1.
<mgrwt>
<rscale>  2 0.86640223E+03</rscale>
<asrwt>0</asrwt>
<pdfrwt beam="1">  1       21 0.19390289E+00 0.86640223E+03</pdfrwt>
<pdfrwt beam="2">  1       21 0.96819977E-01 0.86640223E+03</pdfrwt>
<totfact> 0.88250765E+01</totfact>
</mgrwt>
</event>
<event>
 4    1  0.8562541E-003  0.4314841E+03  0.7818608E-02  0.1033392E+00
         21   -1    0    0  501  502  0.00000000000E+00  0.00000000000E+00  0.29074486329E+03  0.29074486329E+03  0.00000000000E+00 0. -1.
         21   -1    0    0  502  503 -0.00000000000E+00 -0.00000000000E+00 -0.64701394184E+03  0.64701394184E+03  0.00000000000E+00 0. -1.
    9000005    1    1    2  501    0  0.11893800074E+02  0.16136006114E+03 -0.13055027418E+03  0.45080140406E+03  0.40000000000E+03 0. -1.
   -9000005    1    1    2    0  503 -0.11893800074E+02 -0.16136006114E+03 -0.22571880436E+03  0.48695740107E+03  0.40000000000E+03 0. -1.
<mgrwt>
<rscale>  2 0.43148410E+03</rscale>
<asrwt>0</asrwt>
<pdfrwt beam="1">  1       21 0.44729980E-01 0.43148410E+03</pdfrwt>
<pdfrwt beam="2">  1       21 0.99540605E-01 0.43148410E+03</pdfrwt>
<totfact> 0.34952972E+03</totfact>
</mgrwt>
</event>
<event>
 4    1  0.8562541E-003  0.4407504E+03  0.7818608E-02  0.1030517E+00
         21   -1    0    0  501  502  0.00000000000E+00  0.00000000000E+00  0.12474442935E+04  0.12474442935E+04  0.00000000000E+00 0.  1.
         21   -1    0    0  502  503 -0.00000000000E+00 -0.00000000000E+00 -0.17622611562E+03  0.17622611562E+03  0.00000000000E+00 0. -1.
    9000005    1    1    2  501    0 -0.18509563499E+03  0.70597458311E+00  0.77838788005E+03  0.89451024829E+03  0.40000000000E+03 0. -1.
   -9000005    1    1    2    0  503  0.18509563499E+03 -0.70597458311E+00  0.29283029784E+03  0.52916016084E+03  0.40000000000E+03 0. -1.
<mgrwt>
<rscale>  2 0.44075037E+03</rscale>
<asrwt>0</asrwt>
<pdfrwt beam="1">  1       21 0.19191450E+00 0.44075037E+03</pdfrwt>
<pdfrwt beam="2">  1       21 0.27111711E-01 0.44075037E+03</pdfrwt>
<totfact> 0.16657758E+03</totfact>
</mgrwt>
</event>
<event>
 4    1  0.8562541E-003  0.4357750E+03  0.7818608E-02  0.1032051E+00
         21   -1    0    0  501  502  0.00000000000E+00  0.00000000000E+00  0.15154163136E+03  0.15154163136E+03  0.00000000000E+00 0. -1.
         21   -1    0    0  502  503 -0.00000000000E+00 -0.00000000000E+00 -0.15562617119E+04  0.15562617119E+04  0.00000000000E+00 0. -1.
    9000005    1    1    2  501    0  0.54586586154E+01 -0.17282954386E+03 -0.32549192039E+03  0.54391620533E+03  0.40000000000E+03 0. -1.
   -9000005    1    1    2    0  503 -0.54586586154E+01  0.17282954386E+03 -0.10792281601E+04  0.11638871379E+04  0.40000000000E+03 0. -1.
<mgrwt>
<rscale>  2 0.43577500E+03</rscale>
<asrwt>0</asrwt>
<pdfrwt beam="1">  1       21 0.23314097E-01 0.43577500E+03</pdfrwt>
<pdfrwt beam="2">  1       21 0.23942488E+00 0.43577500E+03</pdfrwt>
<totfact> 0.11045500E+03</totfact>
</mgrwt>
</event>
<event>
 4    1  0.8562541E-003  0.4567713E+03  0.7818608E-02  0.1025722E+00
         21   -1    0    0  501  502  0.00000000000E+00  0.00000000000E+00  0.12075249613E+04  0.12075249613E+04  0.00000000000E+00 0.  1.
         21   -1    0    0  502  503 -0.00000000000E+00 -0.00000000000E+00 -0.28515662513E+03  0.28515662513E+03  0.00000000000E+00 0. -1.
    9000005    1    1    2  501    0  0.11274162491E+03 -0.18955026440E+03  0.92970330674E+03  0.10358514446E+04  0.40000000000E+03 0.  1.
   -9000005    1    1    2    0  503 -0.11274162491E+03  0.18955026440E+03 -0.73349705381E+01  0.45683014187E+03  0.40000000000E+03 0. -1.
<mgrwt>
<rscale>  2 0.45677125E+03</rscale>
<asrwt>0</asrwt>
<pdfrwt beam="1">  1       21 0.18577307E+00 0.45677125E+03</pdfrwt>
<pdfrwt beam="2">  1       21 0.43870251E-01 0.45677125E+03</pdfrwt>
<totfact> 0.68862657E+02</totfact>
</mgrwt>
</event>
<event>
 4    1  0.8562541E-003  0.4275790E+03  0.7818608E-02  0.1034627E+00
         21   -1    0    0  503  502  0.00000000000E+00  0.00000000000E+00  0.15705286512E+04  0.15705286512E+04  0.00000000000E+00 0. -1.
         21   -1    0    0  501  503 -0.00000000000E+00 -0.00000000000E+00 -0.11705750573E+03  0.11705750573E+03  0.00000000000E+00 0. -1.
    9000005    1    1    2  501    0  0.14418069933E+03 -0.45118796834E+02  0.66393411086E+03  0.78970392138E+03  0.40000000000E+03 0. -1.
   -9000005    1    1    2    0  502 -0.14418069933E+03  0.45118796834E+02  0.78953703466E+03  0.89788223559E+03  0.40000000000E+03 0. -1.
<mgrwt>
<rscale>  2 0.42757898E+03</rscale>
<asrwt>0</asrwt>
<pdfrwt beam="1">  1       21 0.24161978E+00 0.42757898E+03</pdfrwt>
<pdfrwt beam="2">  1       21 0.18008848E-01 0.42757898E+03</pdfrwt>
<totfact> 0.17583679E+03</totfact>
</mgrwt>
</event>
<event>
 4    1  0.8562541E-003  0.4040877E+03  0.7818608E-02  0.1042373E+00
         21   -1    0    0  503  502  0.00000000000E+00  0.00000000000E+00  0.94617062562E+03  0.94617062562E+03  0.00000000000E+00 0.  1.
         21   -1    0    0  501  503 -0.00000000000E+00 -0.00000000000E+00 -0.23026136749E+03  0.23026136749E+03  0.00000000000E+00 0.  1.
    9000005    1    1    2  501    0  0.45552443085E+02 -0.34811433885E+02  0.63541578140E+02  0.40905304442E+03  0.40000000000E+03 0.  1.
   -9000005    1    1    2    0  502 -0.45552443085E+02  0.34811433885E+02  0.65236767999E+03  0.76737894869E+03  0.40000000000E+03 0.  1.
<mgrwt>
<rscale>  2 0.40408769E+03</rscale>
<asrwt>0</asrwt>
<pdfrwt beam="1">  1       21 0.14556471E+00 0.40408769E+03</pdfrwt>
<pdfrwt beam="2">  1       21 0.35424826E-01 0.40408769E+03</pdfrwt>
<totfact> 0.21723039E+03</totfact>
</mgrwt>
</event>
<event>
 4    1  0.8562541E-003  0.7911484E+03  0.7818608E-02  0.9572918E-01
         21   -1    0    0  503  502  0.00000000000E+00  0.00000000000E+00  0.18470913487E+04  0.18470913487E+04  0.00000000000E+00 0.  1.
         21   -1    0    0  501  503 -0.00000000000E+00 -0.00000000000E+00 -0.34610368866E+03  0.34610368866E+03  0.00000000000E+00 0. -1.
    9000005    1    1    2  501    0  0.60532976328E+03  0.31542309283E+03  0.59191180640E+03  0.98806651414E+03  0.40000000000E+03 0. -1.
   -9000005    1    1    2    0  502 -0.60532976328E+03 -0.31542309283E+03  0.90907585360E+03  0.12051285232E+04  0.40000000000E+03 0. -1.
<mgrwt>
<rscale>  2 0.79114844E+03</rscale>
<asrwt>0</asrwt>
<pdfrwt beam="1">  1       21 0.28416789E+00 0.79114844E+03</pdfrwt>
<pdfrwt beam="2">  1       21 0.53246722E-01 0.79114844E+03</pdfrwt>
<totfact> 0.93681265E+01</totfact>
</mgrwt>
</event>
<event>
 4    1  0.8562541E-003  0.4510828E+03  0.7818608E-02  0.1027400E+00
         21   -1    0    0  503  502  0.00000000000E+00  0.00000000000E+00  0.96291682563E+03  0.96291682563E+03  0.00000000000E+00 0. -1.
         21   -1    0    0  501  503 -0.00000000000E+00 -0.00000000000E+00 -0.25595125831E+03  0.25595125831E+03  0.00000000000E+00 0.  1.
    9000005    1    1    2  501    0  0.16935183641E+03 -0.12163741416E+03  0.98971263247E+02  0.46181274990E+03  0.40000000000E+03 0.  1.
   -9000005    1    1    2    0  502 -0.16935183641E+03  0.12163741416E+03  0.60799430408E+03  0.75705533405E+03  0.40000000000E+03 0. -1.
<mgrwt>
<rscale>  2 0.45108281E+03</rscale>
<asrwt>0</asrwt>
<pdfrwt beam="1">  1       21 0.14814105E+00 0.45108281E+03</pdfrwt>
<pdfrwt beam="2">  1       21 0.39377117E-01 0.45108281E+03</pdfrwt>
<totfact> 0.16376606E+03</totfact>
</mgrwt>
</event>
<event>
 4    1  0.8562541E-003  0.4316386E+03  0.7818608E-02  0.1033344E+00
         21   -1    0    0  503  502  0.00000000000E+00  0.00000000000E+00  0.18549626427E+03  0.18549626427E+03  0.00000000000E+00 0.  1.
         21   -1    0    0  501  503 -0.00000000000E+00 -0.00000000000E+00 -0.10517657213E+04  0.10517657213E+04  0.00000000000E+00 0.  1.
    9000005    1    1    2  501    0  0.43937325460E+02 -0.15614545398E+03 -0.56442060202E+03  0.71055084783E+03  0.40000000000E+03 0.  1.
   -9000005    1    1    2    0  502 -0.43937325460E+02  0.15614545398E+03 -0.30184885505E+03  0.52671113778E+03  0.40000000000E+03 0.  1.
<mgrwt>
<rscale>  2 0.43163861E+03</rscale>
<asrwt>0</asrwt>
<pdfrwt beam="1">  1       21 0.28537887E-01 0.43163861E+03</pdfrwt>
<pdfrwt beam="2">  1       21 0.16181011E+00 0.43163861E+03</pdfrwt>
<totfact> 0.24762414E+03</totfact>
</mgrwt>
</event>
<event>
 4    1  0.8562541E-003  0.5695923E+03  0.7818608E-02  0.9970581E-01
         21   -1    0    0  501  502  0.00000000000E+00  0.00000000000E+00  0.10640983176E+04  0.10640983176E+04  0.00000000000E+00 0.  1.
         21   -1    0    0  502  503 -0.00000000000E+00 -0.00000000000E+00 -0.31459833068E+03  0.31459833068E+03  0.00000000000E+00 0.  1.
    9000005    1    1    2  501    0 -0.32183504333E+03  0.24669332281E+03  0.49583244254E+03  0.75517229935E+03  0.40000000000E+03 0.  1.
   -9000005    1    1    2    0  503  0.32183504333E+03 -0.24669332281E+03  0.25366754438E+03  0.62352434893E+03  0.40000000000E+03 0.  1.
<mgrwt>
<rscale>  2 0.56959230E+03</rscale>
<asrwt>0</asrwt>
<pdfrwt beam="1">  1       21 0.16370743E+00 0.56959230E+03</pdfrwt>
<pdfrwt beam="2">  1       21 0.48399743E-01 0.56959230E+03</pdfrwt>
<totfact> 0.77177026E+02</totfact>
</mgrwt>
</event>
<event>
 4    1  0.8562541E-003  0.4294317E+03  0.7818608E-02  0.1034040E+00
         21   -1    0    0  501  502  0.00000000000E+00  0.00000000000E+00  0.98780183317E+03  0.98780183317E+03  0.00000000000E+00 0. -1.
         21   -1    0    0  502  503 -0.00000000000E+00 -0.00000000000E+00 -0.23312949425E+03  0.23312949425E+03  0.00000000000E+00 0. -1.
    9000005    1    1    2  501    0 -0.12410701501E+03  0.94916141361E+02  0.64980170429E+03  0.77887988802E+03  0.40000000000E+03 0. -1.
   -9000005    1    1    2    0  503  0.12410701501E+03 -0.94916141361E+02  0.10487063464E+03  0.44205143940E+03  0.40000000000E+03 0. -1.
<mgrwt>
<rscale>  2 0.42943175E+03</rscale>
<asrwt>0</asrwt>
<pdfrwt beam="1">  1       21 0.15196951E+00 0.42943175E+03</pdfrwt>
<pdfrwt beam="2">  1       21 0.35866077E-01 0.42943175E+03</pdfrwt>
<totfact> 0.18655690E+03</totfact>
</mgrwt>
</event>
<event>
 4    1  0.8562541E-003  0.5044015E+03  0.7818608E-02  0.1012636E+00
         21   -1    0    0  501  502  0.00000000000E+00  0.00000000000E+00  0.30064529804E+03  0.30064529804E+03  0.00000000000E+00 0.  1.
         21   -1    0    0  502  503 -0.00000000000E+00 -0.00000000000E+00 -0.91357112772E+03  0.91357112772E+03  0.00000000000E+00 0.  1.
    9000005    1    1    2  501    0  0.22979941098E+03  0.20399292606E+03 -0.14165701105E+03  0.52391563438E+03  0.40000000000E+03 0.  1.
   -9000005    1    1    2    0  503 -0.22979941098E+03 -0.20399292606E+03 -0.47126881862E+03  0.69030079138E+03  0.40000000000E+03 0.  1.
<mgrwt>
<rscale>  2 0.50440151E+03</rscale>
<asrwt>0</asrwt>
<pdfrwt beam="1">  1       21 0.46253124E-01 0.50440151E+03</pdfrwt>
<pdfrwt beam="2">  1       21 0.14054940E+00 0.50440151E+03</pdfrwt>
<totfact> 0.13220645E+03</totfact>
</mgrwt>
</event>
<event>
 4    1  0.8562541E-003  0.4939787E+03  0.7818608E-02  0.1015363E+00
         21   -1    0    0  503  502  0.00000000000E+00  0.00000000000E+00  0.41573746508E+03  0.41573746508E+03  0.00000000000E+00 0. -1.
         21   -1    0    0  501  503 -0.00000000000E+00 -0.00000000000E+00 -0.74685095683E+03  0.74685095683E+03  0.00000000000E+00 0.  1.
    9000005    1    1    2  501    0  0.26634031478E+03 -0.11435825750E+03 -0.43453149954E+03  0.65790014320E+03  0.40000000000E+03 0.  1.
   -9000005    1    1    2    0  502 -0.26634031478E+03  0.11435825750E+03  0.10341800778E+03  0.50468827871E+03  0.40000000000E+03 0. -1.
<mgrwt>
<rscale>  2 0.49397872E+03</rscale>
<asrwt>0</asrwt>
<pdfrwt beam="1">  1       21 0.63959611E-01 0.49397872E+03</pdfrwt>
<pdfrwt beam="2">  1       21 0.11490015E+00 0.49397872E+03</pdfrwt>
<totfact> 0.11095877E+03</totfact>
</mgrwt>
</event>
<event>
 4    1  0.8562541E-003  0.4390767E+03  0.7818608E-02  0.1031030E+00
         21   -1    0    0  501  502  0.00000000000E+00  0.00000000000E+00  0.52255809612E+03  0.52255809612E+03  0.00000000000E+00 0.  1.
         21   -1    0    0  502  503 -0.00000000000E+00 -0.00000000000E+00 -0.42989096793E+03  0.42989096793E+03  0.00000000000E+00 0.  1.
    9000005    1    1    2  501    0  0.60022558179E+02 -0.17083815219E+03  0.22566298855E+03  0.49367212412E+03  0.40000000000E+03 0.  1.
   -9000005    1    1    2    0  503 -0.60022558179E+02  0.17083815219E+03 -0.13299586036E+03  0.45877693993E+03  0.40000000000E+03 0.  1.
<mgrwt>
<rscale>  2 0.43907674E+03</rscale>
<asrwt>0</asrwt>
<pdfrwt beam="1">  1       21 0.80393553E-01 0.43907674E+03</pdfrwt>
<pdfrwt beam="2">  1       21 0.66137072E-01 0.43907674E+03</pdfrwt>
<totfact> 0.24857206E+03</totfact>
</mgrwt>
</event>
<event>
 4    1  0.8562541E-003  0.4787456E+03  0.7818608E-02  0.1019480E+00
         21   -1    0    0  503  502  0.00000000000E+00  0.00000000000E+00  0.15937171462E+04  0.15937171462E+04  0.00000000000E+00 0. -1.
         21   -1    0    0  501  503 -0.00000000000E+00 -0.00000000000E+00 -0.15450295781E+03  0.15450295781E+03  0.00000000000E+00 0.  1.
    9000005    1    1    2  501    0  0.16423985699E+03  0.20548134970E+03  0.48968283465E+03  0.68482595909E+03  0.40000000000E+03 0.  1.
   -9000005    1    1    2    0  502 -0.16423985699E+03 -0.20548134970E+03  0.94953135375E+03  0.10633941449E+04  0.40000000000E+03 0. -1.
<mgrwt>
<rscale>  2 0.47874556E+03</rscale>
<asrwt>0</asrwt>
<pdfrwt beam="1">  1       21 0.24518724E+00 0.47874556E+03</pdfrwt>
<pdfrwt beam="2">  1       21 0.23769687E-01 0.47874556E+03</pdfrwt>
<totfact> 0.95984532E+02</totfact>
</mgrwt>
</event>
<event>
 4    1  0.8562541E-003  0.4053958E+03  0.7818608E-02  0.1041927E+00
         21   -1    0    0  501  502  0.00000000000E+00  0.00000000000E+00  0.11724486984E+04  0.11724486984E+04  0.00000000000E+00 0. -1.
         21   -1    0    0  502  503 -0.00000000000E+00 -0.00000000000E+00 -0.14024818296E+03  0.14024818296E+03  0.00000000000E+00 0. -1.
    9000005    1    1    2  501    0 -0.31511337397E+02 -0.57903019291E+02  0.50090994989E+03  0.64440398969E+03  0.40000000000E+03 0. -1.
   -9000005    1    1    2    0  503  0.31511337397E+02  0.57903019291E+02  0.53129056558E+03  0.66829289170E+03  0.40000000000E+03 0. -1.
<mgrwt>
<rscale>  2 0.40539576E+03</rscale>
<asrwt>0</asrwt>
<pdfrwt beam="1">  1       21 0.18037672E+00 0.40539576E+03</pdfrwt>
<pdfrwt beam="2">  1       21 0.21576644E-01 0.40539576E+03</pdfrwt>
<totfact> 0.31624612E+03</totfact>
</mgrwt>
</event>
<event>
 4    1  0.8562541E-003  0.4247431E+03  0.7818608E-02  0.1035534E+00
         21   -1    0    0  503  502  0.00000000000E+00  0.00000000000E+00  0.16099687149E+04  0.16099687149E+04  0.00000000000E+00 0. -1.
         21   -1    0    0  501  503 -0.00000000000E+00 -0.00000000000E+00 -0.15027386164E+03  0.15027386164E+03  0.00000000000E+00 0. -1.
    9000005    1    1    2  501    0  0.13831088635E+03 -0.35732902300E+02  0.28600002039E+03  0.51205737301E+03  0.40000000000E+03 0. -1.
   -9000005    1    1    2    0  502 -0.13831088635E+03  0.35732902300E+02  0.11736948329E+04  0.12481852035E+04  0.40000000000E+03 0. -1.
<mgrwt>
<rscale>  2 0.42474315E+03</rscale>
<asrwt>0</asrwt>
<pdfrwt beam="1">  1       21 0.24768748E+00 0.42474315E+03</pdfrwt>
<pdfrwt beam="2">  1       21 0.23119057E-01 0.42474315E+03</pdfrwt>
<totfact> 0.10039339E+03</totfact>
</mgrwt>
</event>
<event>
 4    1  0.8562541E-003  0.4315388E+03  0.7818608E-02  0.1033375E+00
         21   -1    0    0  503  502  0.00000000000E+00  0.00000000000E+00  0.37302920830E+03  0.37302920830E+03  0.00000000000E+00 0.  1.
         21   -1    0    0  501  503 -0.00000000000E+00 -0.00000000000E+00 -0.50374923558E+03  0.50374923558E+03  0.00000000000E+00 0.  1.
    9000005    1    1    2  501    0 -0.15294453520E+03 -0.53232710190E+02 -0.10690261125E+03  0.44458286131E+03  0.40000000000E+03 0.  1.
   -9000005    1    1    2    0  502  0.15294453520E+03  0.53232710190E+02 -0.23817416026E+02  0.43219558257E+03  0.40000000000E+03 0.  1.
<mgrwt>
<rscale>  2 0.43153882E+03</rscale>
<asrwt>0</asrwt>
<pdfrwt beam="1">  1       21 0.57389109E-01 0.43153882E+03</pdfrwt>
<pdfrwt beam="2">  1       21 0.77499882E-01 0.43153882E+03</pdfrwt>
<totfact> 0.37056838E+03</totfact>
</mgrwt>
</event>
<event>
 4    1  0.8562541E-003  0.4238070E+03  0.7818608E-02  0.1035834E+00
         21   -1    0    0  503  502  0.00000000000E+00  0.00000000000E+00  0.13433294638E+04  0.13433294638E+04  0.00000000000E+00 0. -1.
         21   -1    0    0  501  503 -0.00000000000E+00 -0.00000000000E+00 -0.14868804647E+03  0.14868804647E+03  0.00000000000E+00 0.  1.
    9000005    1    1    2  501    0  0.13149473721E+03  0.48181974721E+02  0.36052220284E+03  0.55640689010E+03  0.40000000000E+03 0.  1.
   -9000005    1    1    2    0  502 -0.13149473721E+03 -0.48181974721E+02  0.83411921453E+03  0.93561062021E+03  0.40000000000E+03 0. -1.
<mgrwt>
<rscale>  2 0.42380699E+03</rscale>
<asrwt>0</asrwt>
<pdfrwt beam="1">  1       21 0.20666606E+00 0.42380699E+03</pdfrwt>
<pdfrwt beam="2">  1       21 0.22875085E-01 0.42380699E+03</pdfrwt>
<totfact> 0.18616147E+03</totfact>
</mgrwt>
</event>
<event>
 4    1  0.8562541E-003  0.6208696E+03  0.7818608E-02  0.9863030E-01
         21   -1    0    0  503  502  0.00000000000E+00  0.00000000000E+00  0.71837214994E+03  0.71837214994E+03  0.00000000000E+00 0. -1.
         21   -1    0    0  501  503 -0.00000000000E+00 -0.00000000000E+00 -0.62926843203E+03  0.62926843203E+03  0.00000000000E+00 0.  1.
    9000005    1    1    2  501    0 -0.45195438367E+03  0.14565794746E+03 -0.21402542300E+03  0.65672359807E+03  0.40000000000E+03 0.  1.
   -9000005    1    1    2    0  502  0.45195438367E+03 -0.14565794746E+03  0.30312914091E+03  0.69091698390E+03  0.40000000000E+03 0. -1.
<mgrwt>
<rscale>  2 0.62086955E+03</rscale>
<asrwt>0</asrwt>
<pdfrwt beam="1">  1       21 0.11051879E+00 0.62086955E+03</pdfrwt>
<pdfrwt beam="2">  1       21 0.96810528E-01 0.62086955E+03</pdfrwt>
<totfact> 0.44804464E+02</totfact>
</mgrwt>
</event>
<event>
 4    1  0.8562541E-003  0.4477532E+03  0.7818608E-02  0.1028394E+00
         21   -1    0    0  503  502  0.00000000000E+00  0.00000000000E+00  0.33069196996E+03  0.33069196996E+03  0.00000000000E+00 0.  1.
         21   -1    0    0  501  503 -0.00000000000E+00 -0.00000000000E+00 -0.60645645020E+03  0.60645645020E+03  0.00000000000E+00 0.  1.
    9000005    1    1    2  501    0 -0.16845766571E+03 -0.11002253651E+03 -0.12929634298E+03  0.46604773144E+03  0.40000000000E+03 0.  1.
   -9000005    1    1    2    0  502  0.16845766571E+03  0.11002253651E+03 -0.14646813727E+03  0.47110068872E+03  0.40000000000E+03 0.  1.
<mgrwt>
<rscale>  2 0.44775322E+03</rscale>
<asrwt>0</asrwt>
<pdfrwt beam="1">  1       21 0.50875688E-01 0.44775322E+03</pdfrwt>
<pdfrwt beam="2">  1       21 0.93300991E-01 0.44775322E+03</pdfrwt>
<totfact> 0.30934455E+03</totfact>
</mgrwt>
</event>
<event>
 4    1  0.8562541E-003  0.4694872E+03  0.7818608E-02  0.1022065E+00
         21   -1    0    0  503  502  0.00000000000E+00  0.00000000000E+00  0.24052259903E+04  0.24052259903E+04  0.00000000000E+00 0.  1.
         21   -1    0    0  501  503 -0.00000000000E+00 -0.00000000000E+00 -0.10009580764E+03  0.10009580764E+03  0.00000000000E+00 0.  1.
    9000005    1    1    2  501    0 -0.22921292075E+03  0.88767645369E+02  0.78850977784E+03  0.91769598869E+03  0.40000000000E+03 0.  1.
   -9000005    1    1    2    0  502  0.22921292075E+03 -0.88767645369E+02  0.15166204048E+04  0.15876258093E+04  0.40000000000E+03 0.  1.
<mgrwt>
<rscale>  2 0.46948723E+03</rscale>
<asrwt>0</asrwt>
<pdfrwt beam="1">  1       21 0.37003472E+00 0.46948723E+03</pdfrwt>
<pdfrwt beam="2">  1       21 0.15399357E-01 0.46948723E+03</pdfrwt>
<totfact> 0.38144867E+02</totfact>
</mgrwt>
</event>
<event>
 4    1  0.8562541E-003  0.4246893E+03  0.7818608E-02  0.1035551E+00
         21   -1    0    0  503  502  0.00000000000E+00  0.00000000000E+00  0.21904968063E+03  0.21904968063E+03  0.00000000000E+00 0. -1.
         21   -1    0    0  501  503 -0.00000000000E+00 -0.00000000000E+00 -0.96540622665E+03  0.96540622665E+03  0.00000000000E+00 0. -1.
    9000005    1    1    2  501    0  0.10190995082E+03  0.99876860566E+02 -0.60033145874E+03  0.73536309787E+03  0.40000000000E+03 0. -1.
   -9000005    1    1    2    0  502 -0.10190995082E+03 -0.99876860566E+02 -0.14602508728E+03  0.44909280942E+03  0.40000000000E+03 0. -1.
<mgrwt>
<rscale>  2 0.42468933E+03</rscale>
<asrwt>0</asrwt>
<pdfrwt beam="1">  1       21 0.33699951E-01 0.42468933E+03</pdfrwt>
<pdfrwt beam="2">  1       21 0.14852403E+00 0.42468933E+03</pdfrwt>
<totfact> 0.22558873E+03</totfact>
</mgrwt>
</event>
<event>
 4    1  0.8562541E-003  0.4504647E+03  0.7818608E-02  0.1027584E+00
         21   -1    0    0  503  502  0.00000000000E+00  0.00000000000E+00  0.34981831496E+03  0.34981831496E+03  0.00000000000E+00 0. -1.
         21   -1    0    0  501  503 -0.00000000000E+00 -0.00000000000E+00 -0.10198411652E+04  0.10198411652E+04  0.00000000000E+00 0. -1.
    9000005    1    1    2  501    0 -0.20487072857E+03  0.30764654743E+02 -0.78471941982E+03  0.90482210807E+03  0.40000000000E+03 0. -1.
   -9000005    1    1    2    0  502  0.20487072857E+03 -0.30764654743E+02  0.11469656960E+03  0.46483737208E+03  0.40000000000E+03 0. -1.
<mgrwt>
<rscale>  2 0.45046474E+03</rscale>
<asrwt>0</asrwt>
<pdfrwt beam="1">  1       21 0.53818203E-01 0.45046474E+03</pdfrwt>
<pdfrwt beam="2">  1       21 0.15689864E+00 0.45046474E+03</pdfrwt>
<totfact> 0.72599353E+02</totfact>
</mgrwt>
</event>
<event>
 4    1  0.8562541E-003  0.4062110E+03  0.7818608E-02  0.1041650E+00
         21   -1    0    0  501  502  0.00000000000E+00  0.00000000000E+00  0.93178971529E+03  0.93178971529E+03  0.00000000000E+00 0.  1.
         21   -1    0    0  502  503 -0.00000000000E+00 -0.00000000000E+00 -0.17864035774E+03  0.17864035774E+03  0.00000000000E+00 0.  1.
    9000005    1    1    2  501    0  0.25589349798E+02 -0.65974081322E+02  0.32479315394E+03  0.52009420980E+03  0.40000000000E+03 0.  1.
   -9000005    1    1    2    0  503 -0.25589349798E+02  0.65974081322E+02  0.42835620362E+03  0.59033586323E+03  0.40000000000E+03 0.  1.
<mgrwt>
<rscale>  2 0.40621102E+03</rscale>
<asrwt>0</asrwt>
<pdfrwt beam="1">  1       21 0.14335226E+00 0.40621102E+03</pdfrwt>
<pdfrwt beam="2">  1       21 0.27483133E-01 0.40621102E+03</pdfrwt>
<totfact> 0.37490857E+03</totfact>
</mgrwt>
</event>
<event>
 4    1  0.8562541E-003  0.5548033E+03  0.7818608E-02  0.1000388E+00
         21   -1    0    0  501  502  0.00000000000E+00  0.00000000000E+00  0.55556473959E+03  0.55556473959E+03  0.00000000000E+00 0.  1.
         21   -1    0    0  502  503 -0.00000000000E+00 -0.00000000000E+00 -0.92949671650E+03  0.92949671650E+03  0.00000000000E+00 0.  1.
    9000005    1    1    2  501    0  0.29511196025E+03 -0.24640547255E+03  0.28495439361E+03  0.62370324067E+03  0.40000000000E+03 0.  1.
   -9000005    1    1    2    0  503 -0.29511196025E+03  0.24640547255E+03 -0.65888637052E+03  0.86135821541E+03  0.40000000000E+03 0.  1.
<mgrwt>
<rscale>  2 0.55480332E+03</rscale>
<asrwt>0</asrwt>
<pdfrwt beam="1">  1       21 0.85471499E-01 0.55480332E+03</pdfrwt>
<pdfrwt beam="2">  1       21 0.14299949E+00 0.55480332E+03</pdfrwt>
<totfact> 0.31660091E+02</totfact>
</mgrwt>
</event>
<event>
 4    1  0.8562541E-003  0.4267027E+03  0.7818608E-02  0.1034907E+00
         21   -1    0    0  501  502  0.00000000000E+00  0.00000000000E+00  0.34465211604E+03  0.34465211604E+03  0.00000000000E+00 0.  1.
         21   -1    0    0  502  503 -0.00000000000E+00 -0.00000000000E+00 -0.56080113882E+03  0.56080113882E+03  0.00000000000E+00 0.  1.
    9000005    1    1    2  501    0 -0.21128136300E+01  0.14856220794E+03 -0.21708504742E+03  0.47874952890E+03  0.40000000000E+03 0.  1.
   -9000005    1    1    2    0  503  0.21128136300E+01 -0.14856220794E+03  0.93602464314E+00  0.42670372596E+03  0.40000000000E+03 0.  1.
<mgrwt>
<rscale>  2 0.42670270E+03</rscale>
<asrwt>0</asrwt>
<pdfrwt beam="1">  1       21 0.53023403E-01 0.42670270E+03</pdfrwt>
<pdfrwt beam="2">  1       21 0.86277098E-01 0.42670270E+03</pdfrwt>
<totfact> 0.34335876E+03</totfact>
</mgrwt>
</event>
<event>
 4    1  0.8562541E-003  0.6343523E+03  0.7818608E-02  0.9836592E-01
         21   -1    0    0  501  502  0.00000000000E+00  0.00000000000E+00  0.37739435449E+03  0.37739435449E+03  0.00000000000E+00 0. -1.
         21   -1    0    0  502  503 -0.00000000000E+00 -0.00000000000E+00 -0.11815913044E+04  0.11815913044E+04  0.00000000000E+00 0. -1.
    9000005    1    1    2  501    0  0.44225292664E+03 -0.21636815878E+03 -0.15857520065E+03  0.65387225474E+03  0.40000000000E+03 0. -1.
   -9000005    1    1    2    0  503 -0.44225292664E+03  0.21636815878E+03 -0.64562174928E+03  0.90511340416E+03  0.40000000000E+03 0. -1.
<mgrwt>
<rscale>  2 0.63435229E+03</rscale>
<asrwt>0</asrwt>
<pdfrwt beam="1">  1       21 0.58060671E-01 0.63435229E+03</pdfrwt>
<pdfrwt beam="2">  1       21 0.18178328E+00 0.63435229E+03</pdfrwt>
<totfact> 0.37603980E+02</totfact>
</mgrwt>
</event>
<event>
 4    1  0.8562541E-003  0.4261901E+03  0.7818608E-02  0.1035070E+00
         21   -1    0    0  501  502  0.00000000000E+00  0.00000000000E+00  0.32140719504E+03  0.32140719504E+03  0.00000000000E+00 0.  1.
         21   -1    0    0  502  503 -0.00000000000E+00 -0.00000000000E+00 -0.57148936710E+03  0.57148936710E+03  0.00000000000E+00 0.  1.
    9000005    1    1    2  501    0  0.57573264571E+02  0.13536375518E+03 -0.17212241861E+03  0.45963480503E+03  0.40000000000E+03 0. -1.
   -9000005    1    1    2    0  503 -0.57573264571E+02 -0.13536375518E+03 -0.77959753445E+02  0.43326175710E+03  0.40000000000E+03 0. -1.
<mgrwt>
<rscale>  2 0.42619013E+03</rscale>
<asrwt>0</asrwt>
<pdfrwt beam="1">  1       21 0.49447261E-01 0.42619013E+03</pdfrwt>
<pdfrwt beam="2">  1       21 0.87921441E-01 0.42619013E+03</pdfrwt>
<totfact> 0.38127396E+03</totfact>
</mgrwt>
</event>
<event>
 4    1  0.8562541E-003  0.4407971E+03  0.7818608E-02  0.1030503E+00
         21   -1    0    0  503  502  0.00000000000E+00  0.00000000000E+00  0.13001833469E+03  0.13001833469E+03  0.00000000000E+00 0. -1.
         21   -1    0    0  501  503 -0.00000000000E+00 -0.00000000000E+00 -0.20607301781E+04  0.20607301781E+04  0.00000000000E+00 0.  1.
    9000005    1    1    2  501    0 -0.18441935267E+03 -0.17074768997E+02 -0.15395768451E+04  0.16014365137E+04  0.40000000000E+03 0.  1.
   -9000005    1    1    2    0  502  0.18441935267E+03  0.17074768997E+02 -0.39113499827E+03  0.58931199907E+03  0.40000000000E+03 0. -1.
<mgrwt>
<rscale>  2 0.44079706E+03</rscale>
<asrwt>0</asrwt>
<pdfrwt beam="1">  1       21 0.20002821E-01 0.44079706E+03</pdfrwt>
<pdfrwt beam="2">  1       21 0.31703540E+00 0.44079706E+03</pdfrwt>
<totfact> 0.50078188E+02</totfact>
</mgrwt>
</event>
<event>
 4    1  0.8562541E-003  0.4295093E+03  0.7818608E-02  0.1034015E+00
         21   -1    0    0  501  502  0.00000000000E+00  0.00000000000E+00  0.41306097151E+03  0.41306097151E+03  0.00000000000E+00 0.  1.
         21   -1    0    0  502  503 -0.00000000000E+00 -0.00000000000E+00 -0.73558495764E+03  0.73558495764E+03  0.00000000000E+00 0.  1.
    9000005    1    1    2  501    0  0.14757274884E+03  0.51966667070E+02  0.19870931268E+03  0.47324797055E+03  0.40000000000E+03 0.  1.
   -9000005    1    1    2    0  503 -0.14757274884E+03 -0.51966667070E+02 -0.52123329882E+03  0.67539795860E+03  0.40000000000E+03 0.  1.
<mgrwt>
<rscale>  2 0.42950931E+03</rscale>
<asrwt>0</asrwt>
<pdfrwt beam="1">  1       21 0.63547842E-01 0.42950931E+03</pdfrwt>
<pdfrwt beam="2">  1       21 0.11316692E+00 0.42950931E+03</pdfrwt>
<totfact> 0.11996798E+03</totfact>
</mgrwt>
</event>
<event>
 4    1  0.8562541E-003  0.4584074E+03  0.7818608E-02  0.1025244E+00
         21   -1    0    0  501  502  0.00000000000E+00  0.00000000000E+00  0.32349058640E+03  0.32349058640E+03  0.00000000000E+00 0. -1.
         21   -1    0    0  502  503 -0.00000000000E+00 -0.00000000000E+00 -0.97427195938E+03  0.97427195938E+03  0.00000000000E+00 0. -1.
    9000005    1    1    2  501    0 -0.19845044431E+03 -0.10370528974E+03  0.49195631641E+02  0.46103966873E+03  0.40000000000E+03 0. -1.
   -9000005    1    1    2    0  503  0.19845044431E+03  0.10370528974E+03 -0.69997700462E+03  0.83672287704E+03  0.40000000000E+03 0. -1.
<mgrwt>
<rscale>  2 0.45840742E+03</rscale>
<asrwt>0</asrwt>
<pdfrwt beam="1">  1       21 0.49767783E-01 0.45840742E+03</pdfrwt>
<pdfrwt beam="2">  1       21 0.14988799E+00 0.45840742E+03</pdfrwt>
<totfact> 0.96931124E+02</totfact>
</mgrwt>
</event>
<event>
 4    1  0.8562541E-003  0.6534661E+03  0.7818608E-02  0.9800297E-01
         21   -1    0    0  503  502  0.00000000000E+00  0.00000000000E+00  0.70139028654E+03  0.70139028654E+03  0.00000000000E+00 0. -1.
         21   -1    0    0  501  503 -0.00000000000E+00 -0.00000000000E+00 -0.13919073793E+04  0.13919073793E+04  0.00000000000E+00 0. -1.
    9000005    1    1    2  501    0 -0.22116100333E+03 -0.46701799959E+03 -0.11303168275E+04  0.13056163800E+04  0.40000000000E+03 0. -1.
   -9000005    1    1    2    0  502  0.22116100333E+03  0.46701799959E+03  0.43979973473E+03  0.78768128580E+03  0.40000000000E+03 0. -1.
<mgrwt>
<rscale>  2 0.65346614E+03</rscale>
<asrwt>0</asrwt>
<pdfrwt beam="1">  1       21 0.10790620E+00 0.65346614E+03</pdfrwt>
<pdfrwt beam="2">  1       21 0.21413960E+00 0.65346614E+03</pdfrwt>
<totfact> 0.52948087E+01</totfact>
</mgrwt>
</event>
<event>
 4    1  0.8562541E-003  0.4515241E+03  0.7818608E-02  0.1027269E+00
         21   -1    0    0  503  502  0.00000000000E+00  0.00000000000E+00  0.20301450032E+03  0.20301450032E+03  0.00000000000E+00 0. -1.
         21   -1    0    0  501  503 -0.00000000000E+00 -0.00000000000E+00 -0.12638257819E+04  0.12638257819E+04  0.00000000000E+00 0.  1.
    9000005    1    1    2  501    0  0.62607739996E+02 -0.19988568802E+03 -0.86280095103E+03  0.97380670488E+03  0.40000000000E+03 0.  1.
   -9000005    1    1    2    0  502 -0.62607739996E+02  0.19988568802E+03 -0.19801033055E+03  0.49303357734E+03  0.40000000000E+03 0.  1.
<mgrwt>
<rscale>  2 0.45152410E+03</rscale>
<asrwt>0</asrwt>
<pdfrwt beam="1">  1       21 0.31232999E-01 0.45152410E+03</pdfrwt>
<pdfrwt beam="2">  1       21 0.19443474E+00 0.45152410E+03</pdfrwt>
<totfact> 0.12043838E+03</totfact>
</mgrwt>
</event>
<event>
 4    1  0.8562541E-003  0.4089748E+03  0.7818608E-02  0.1040716E+00
         21   -1    0    0  501  502  0.00000000000E+00  0.00000000000E+00  0.11377131505E+03  0.11377131505E+03  0.00000000000E+00 0. -1.
         21   -1    0    0  502  503 -0.00000000000E+00 -0.00000000000E+00 -0.20942815549E+04  0.20942815549E+04  0.00000000000E+00 0. -1.
    9000005    1    1    2  501    0  0.79868801886E+02 -0.29687166614E+02 -0.38755444675E+03  0.56343482549E+03  0.40000000000E+03 0. -1.
   -9000005    1    1    2    0  503 -0.79868801886E+02  0.29687166614E+02 -0.15929557931E+04  0.16446180445E+04  0.40000000000E+03 0. -1.
<mgrwt>
<rscale>  2 0.40897476E+03</rscale>
<asrwt>0</asrwt>
<pdfrwt beam="1">  1       21 0.17503278E-01 0.40897476E+03</pdfrwt>
<pdfrwt beam="2">  1       21 0.32219719E+00 0.40897476E+03</pdfrwt>
<totfact> 0.61163423E+02</totfact>
</mgrwt>
</event>
<event>
 4    1  0.8562541E-003  0.5865212E+03  0.7818608E-02  0.9933772E-01
         21   -1    0    0  501  502  0.00000000000E+00  0.00000000000E+00  0.10483087624E+04  0.10483087624E+04  0.00000000000E+00 0.  1.
         21   -1    0    0  502  503 -0.00000000000E+00 -0.00000000000E+00 -0.32865069578E+03  0.32865069578E+03  0.00000000000E+00 0. -1.
    9000005    1    1    2  501    0 -0.14380880497E+03 -0.40413634625E+03  0.33307536123E+03  0.67449711268E+03  0.40000000000E+03 0. -1.
   -9000005    1    1    2    0  503  0.14380880497E+03  0.40413634625E+03  0.38658270538E+03  0.70246234550E+03  0.40000000000E+03 0. -1.
<mgrwt>
<rscale>  2 0.58652123E+03</rscale>
<asrwt>0</asrwt>
<pdfrwt beam="1">  1       21 0.16127827E+00 0.58652123E+03</pdfrwt>
<pdfrwt beam="2">  1       21 0.50561646E-01 0.58652123E+03</pdfrwt>
<totfact> 0.72907095E+02</totfact>
</mgrwt>
</event>
<event>
 4    1  0.8562541E-003  0.5916706E+03  0.7818608E-02  0.9922839E-01
         21   -1    0    0  503  502  0.00000000000E+00  0.00000000000E+00  0.34244310215E+03  0.34244310215E+03  0.00000000000E+00 0. -1.
         21   -1    0    0  501  503 -0.00000000000E+00 -0.00000000000E+00 -0.10989846889E+04  0.10989846889E+04  0.00000000000E+00 0.  1.
    9000005    1    1    2  501    0 -0.25199745360E+03 -0.35576871048E+03 -0.56867073390E+03  0.82064638887E+03  0.40000000000E+03 0.  1.
   -9000005    1    1    2    0  502  0.25199745360E+03  0.35576871048E+03 -0.18787085290E+03  0.62078140223E+03  0.40000000000E+03 0. -1.
<mgrwt>
<rscale>  2 0.59167059E+03</rscale>
<asrwt>0</asrwt>
<pdfrwt beam="1">  1       21 0.52683554E-01 0.59167059E+03</pdfrwt>
<pdfrwt beam="2">  1       21 0.16907457E+00 0.59167059E+03</pdfrwt>
<totfact> 0.58249179E+02</totfact>
</mgrwt>
</event>
<event>
 4    1  0.8562541E-003  0.4822045E+03  0.7818608E-02  0.1018531E+00
         21   -1    0    0  503  502  0.00000000000E+00  0.00000000000E+00  0.11131420926E+04  0.11131420926E+04  0.00000000000E+00 0. -1.
         21   -1    0    0  501  503 -0.00000000000E+00 -0.00000000000E+00 -0.22600157596E+03  0.22600157596E+03  0.00000000000E+00 0. -1.
    9000005    1    1    2  501    0 -0.19156642303E+03 -0.18927090670E+03  0.25931428718E+03  0.54750805482E+03  0.40000000000E+03 0.  1.
   -9000005    1    1    2    0  502  0.19156642303E+03  0.18927090670E+03  0.62782622947E+03  0.79163561376E+03  0.40000000000E+03 0.  1.
<mgrwt>
<rscale>  2 0.48220449E+03</rscale>
<asrwt>0</asrwt>
<pdfrwt beam="1">  1       21 0.17125263E+00 0.48220449E+03</pdfrwt>
<pdfrwt beam="2">  1       21 0.34769474E-01 0.48220449E+03</pdfrwt>
<totfact> 0.13925755E+03</totfact>
</mgrwt>
</event>
<event>
 4    1  0.8562541E-003  0.4837375E+03  0.7818608E-02  0.1018113E+00
         21   -1    0    0  501  502  0.00000000000E+00  0.00000000000E+00  0.31255818967E+03  0.31255818967E+03  0.00000000000E+00 0.  1.
         21   -1    0    0  502  503 -0.00000000000E+00 -0.00000000000E+00 -0.77743084646E+03  0.77743084646E+03  0.00000000000E+00 0.  1.
    9000005    1    1    2  501    0  0.18206644116E+03 -0.20212309402E+03 -0.33726651875E+03  0.58970385687E+03  0.40000000000E+03 0.  1.
   -9000005    1    1    2    0  503 -0.18206644116E+03  0.20212309402E+03 -0.12760613803E+03  0.50028517927E+03  0.40000000000E+03 0.  1.
<mgrwt>
<rscale>  2 0.48373746E+03</rscale>
<asrwt>0</asrwt>
<pdfrwt beam="1">  1       21 0.48085876E-01 0.48373746E+03</pdfrwt>
<pdfrwt beam="2">  1       21 0.11960474E+00 0.48373746E+03</pdfrwt>
<totfact> 0.18678944E+03</totfact>
</mgrwt>
</event>
<event>
 4    1  0.8562541E-003  0.4553386E+03  0.7818608E-02  0.1026142E+00
         21   -1    0    0  503  502  0.00000000000E+00  0.00000000000E+00  0.19046311647E+03  0.19046311647E+03  0.00000000000E+00 0. -1.
         21   -1    0    0  501  503 -0.00000000000E+00 -0.00000000000E+00 -0.10942139550E+04  0.10942139550E+04  0.00000000000E+00 0. -1.
    9000005    1    1    2  501    0 -0.44811877925E+02  0.21289690724E+03 -0.49799129662E+03  0.67478035614E+03  0.40000000000E+03 0. -1.
   -9000005    1    1    2    0  502  0.44811877925E+02 -0.21289690724E+03 -0.40575954190E+03  0.60989671532E+03  0.40000000000E+03 0. -1.
<mgrwt>
<rscale>  2 0.45533855E+03</rscale>
<asrwt>0</asrwt>
<pdfrwt beam="1">  1       21 0.29302019E-01 0.45533855E+03</pdfrwt>
<pdfrwt beam="2">  1       21 0.16834060E+00 0.45533855E+03</pdfrwt>
<totfact> 0.20823607E+03</totfact>
</mgrwt>
</event>
<event>
 4    1  0.8562541E-003  0.5127420E+03  0.7818608E-02  0.1010506E+00
         21   -1    0    0  503  502  0.00000000000E+00  0.00000000000E+00  0.12520959608E+04  0.12520959608E+04  0.00000000000E+00 0. -1.
         21   -1    0    0  501  503 -0.00000000000E+00 -0.00000000000E+00 -0.46954861089E+03  0.46954861089E+03  0.00000000000E+00 0.  1.
    9000005    1    1    2  501    0 -0.32001413978E+03  0.22254444386E+02 -0.24876545184E+03  0.56990223722E+03  0.40000000000E+03 0.  1.
   -9000005    1    1    2    0  502  0.32001413978E+03 -0.22254444386E+02  0.10313128018E+04  0.11517423345E+04  0.40000000000E+03 0. -1.
<mgrwt>
<rscale>  2 0.51274195E+03</rscale>
<asrwt>0</asrwt>
<pdfrwt beam="1">  1       21 0.19263015E+00 0.51274195E+03</pdfrwt>
<pdfrwt beam="2">  1       21 0.72238248E-01 0.51274195E+03</pdfrwt>
<totfact> 0.20355957E+02</totfact>
</mgrwt>
</event>
<event>
 4    1  0.8562541E-003  0.5079497E+03  0.7818608E-02  0.1011725E+00
         21   -1    0    0  501  502  0.00000000000E+00  0.00000000000E+00  0.62591582814E+03  0.62591582814E+03  0.00000000000E+00 0.  1.
         21   -1    0    0  502  503 -0.00000000000E+00 -0.00000000000E+00 -0.98917813731E+03  0.98917813731E+03  0.00000000000E+00 0.  1.
    9000005    1    1    2  501    0 -0.30484753614E+03 -0.71280142681E+02  0.43511149854E+03  0.66883099150E+03  0.40000000000E+03 0.  1.
   -9000005    1    1    2    0  503  0.30484753614E+03  0.71280142681E+02 -0.79837380771E+03  0.94626297395E+03  0.40000000000E+03 0.  1.
<mgrwt>
<rscale>  2 0.50794968E+03</rscale>
<asrwt>0</asrwt>
<pdfrwt beam="1">  1       21 0.96294742E-01 0.50794968E+03</pdfrwt>
<pdfrwt beam="2">  1       21 0.15218125E+00 0.50794968E+03</pdfrwt>
<totfact> 0.20517589E+02</totfact>
</mgrwt>
</event>
<event>
 4    1  0.8562541E-003  0.4102390E+03  0.7818608E-02  0.1040291E+00
         21   -1    0    0  503  502  0.00000000000E+00  0.00000000000E+00  0.11603006279E+03  0.11603006279E+03  0.00000000000E+00 0. -1.
         21   -1    0    0  501  503 -0.00000000000E+00 -0.00000000000E+00 -0.14522470917E+04  0.14522470917E+04  0.00000000000E+00 0. -1.
    9000005    1    1    2  501    0 -0.71167886517E+01  0.90803913470E+02 -0.64053737471E+03  0.76064717694E+03  0.40000000000E+03 0. -1.
   -9000005    1    1    2    0  502  0.71167886517E+01 -0.90803913470E+02 -0.69567965423E+03  0.80762997759E+03  0.40000000000E+03 0. -1.
<mgrwt>
<rscale>  2 0.41023895E+03</rscale>
<asrwt>0</asrwt>
<pdfrwt beam="1">  1       21 0.17850779E-01 0.41023895E+03</pdfrwt>
<pdfrwt beam="2">  1       21 0.22342262E+00 0.41023895E+03</pdfrwt>
<totfact> 0.23425430E+03</totfact>
</mgrwt>
</event>
<event>
 4    1  0.8562541E-003  0.6558601E+03  0.7818608E-02  0.9795845E-01
         21   -1    0    0  501  502  0.00000000000E+00  0.00000000000E+00  0.60699723461E+03  0.60699723461E+03  0.00000000000E+00 0. -1.
         21   -1    0    0  502  503 -0.00000000000E+00 -0.00000000000E+00 -0.73431848837E+03  0.73431848837E+03  0.00000000000E+00 0. -1.
    9000005    1    1    2  501    0 -0.50295367605E+03 -0.13111078487E+03  0.61712743552E+02  0.65875708791E+03  0.40000000000E+03 0. -1.
   -9000005    1    1    2    0  503  0.50295367605E+03  0.13111078487E+03 -0.18903399731E+03  0.68255863506E+03  0.40000000000E+03 0. -1.
<mgrwt>
<rscale>  2 0.65586008E+03</rscale>
<asrwt>0</asrwt>
<pdfrwt beam="1">  1       21 0.93384190E-01 0.65586008E+03</pdfrwt>
<pdfrwt beam="2">  1       21 0.11297207E+00 0.65586008E+03</pdfrwt>
<totfact> 0.45761179E+02</totfact>
</mgrwt>
</event>
<event>
 4    1  0.8562541E-003  0.4226123E+03  0.7818608E-02  0.1036219E+00
         21   -1    0    0  501  502  0.00000000000E+00  0.00000000000E+00  0.29266936128E+03  0.29266936128E+03  0.00000000000E+00 0.  1.
         21   -1    0    0  502  503 -0.00000000000E+00 -0.00000000000E+00 -0.84834730056E+03  0.84834730056E+03  0.00000000000E+00 0.  1.
    9000005    1    1    2  501    0 -0.13514995859E+03  0.18321283800E+02  0.24401983903E+02  0.42331623825E+03  0.40000000000E+03 0. -1.
   -9000005    1    1    2    0  503  0.13514995859E+03 -0.18321283800E+02 -0.58007992319E+03  0.71770042360E+03  0.40000000000E+03 0. -1.
<mgrwt>
<rscale>  2 0.42261233E+03</rscale>
<asrwt>0</asrwt>
<pdfrwt beam="1">  1       21 0.45026056E-01 0.42261233E+03</pdfrwt>
<pdfrwt beam="2">  1       21 0.13051497E+00 0.42261233E+03</pdfrwt>
<totfact> 0.17549614E+03</totfact>
</mgrwt>
</event>
<event>
 4    1  0.8562541E-003  0.6820889E+03  0.7818608E-02  0.9748363E-01
         21   -1    0    0  503  502  0.00000000000E+00  0.00000000000E+00  0.90383664358E+03  0.90383664358E+03  0.00000000000E+00 0.  1.
         21   -1    0    0  501  503 -0.00000000000E+00 -0.00000000000E+00 -0.51486644256E+03  0.51486644256E+03  0.00000000000E+00 0. -1.
    9000005    1    1    2  501    0  0.54835276928E+03  0.67486880134E+02  0.20538707555E+03  0.71234057119E+03  0.40000000000E+03 0. -1.
   -9000005    1    1    2    0  502 -0.54835276928E+03 -0.67486880134E+02  0.18358312547E+03  0.70636251495E+03  0.40000000000E+03 0.  1.
<mgrwt>
<rscale>  2 0.68208888E+03</rscale>
<asrwt>0</asrwt>
<pdfrwt beam="1">  1       21 0.13905179E+00 0.68208888E+03</pdfrwt>
<pdfrwt beam="2">  1       21 0.79210222E-01 0.68208888E+03</pdfrwt>
<totfact> 0.39072614E+02</totfact>
</mgrwt>
</event>
<event>
 4    1  0.8562541E-003  0.7321283E+03  0.7818608E-02  0.9663813E-01
         21   -1    0    0  503  502  0.00000000000E+00  0.00000000000E+00  0.30093978655E+03  0.30093978655E+03  0.00000000000E+00 0. -1.
         21   -1    0    0  501  503 -0.00000000000E+00 -0.00000000000E+00 -0.18933731140E+04  0.18933731140E+04  0.00000000000E+00 0. -1.
    9000005    1    1    2  501    0 -0.22289049792E+03 -0.57125452767E+03 -0.10633552131E+04  0.12910213858E+04  0.40000000000E+03 0. -1.
   -9000005    1    1    2    0  502  0.22289049792E+03  0.57125452767E+03 -0.52907811432E+03  0.90329151468E+03  0.40000000000E+03 0. -1.
<mgrwt>
<rscale>  2 0.73212834E+03</rscale>
<asrwt>0</asrwt>
<pdfrwt beam="1">  1       21 0.46298428E-01 0.73212834E+03</pdfrwt>
<pdfrwt beam="2">  1       21 0.29128817E+00 0.73212834E+03</pdfrwt>
<totfact> 0.11673685E+02</totfact>
</mgrwt>
</event>
<event>
 4    1  0.8562541E-003  0.4488787E+03  0.7818608E-02  0.1028057E+00
         21   -1    0    0  501  502  0.00000000000E+00  0.00000000000E+00  0.65388603091E+03  0.65388603091E+03  0.00000000000E+00 0. -1.
         21   -1    0    0  502  503 -0.00000000000E+00 -0.00000000000E+00 -0.32680905837E+03  0.32680905837E+03  0.00000000000E+00 0. -1.
    9000005    1    1    2  501    0  0.44964096551E+02  0.19867143145E+03  0.28071833859E+03  0.52942883683E+03  0.40000000000E+03 0. -1.
   -9000005    1    1    2    0  503 -0.44964096551E+02 -0.19867143145E+03  0.46358633951E+02  0.45126625244E+03  0.40000000000E+03 0. -1.
<mgrwt>
<rscale>  2 0.44887872E+03</rscale>
<asrwt>0</asrwt>
<pdfrwt beam="1">  1       21 0.10059785E+00 0.44887872E+03</pdfrwt>
<pdfrwt beam="2">  1       21 0.50278317E-01 0.44887872E+03</pdfrwt>
<totfact> 0.26450696E+03</totfact>
</mgrwt>
</event>
<event>
 4    1  0.8562541E-003  0.4819044E+03  0.7818608E-02  0.1018613E+00
         21   -1    0    0  503  502  0.00000000000E+00  0.00000000000E+00  0.42288356868E+03  0.42288356868E+03  0.00000000000E+00 0. -1.
         21   -1    0    0  501  503 -0.00000000000E+00 -0.00000000000E+00 -0.74726327048E+03  0.74726327048E+03  0.00000000000E+00 0.  1.
    9000005    1    1    2  501    0 -0.26423202767E+03 -0.49124935741E+02 -0.46343257416E+03  0.66858176355E+03  0.40000000000E+03 0.  1.
   -9000005    1    1    2    0  502  0.26423202767E+03  0.49124935741E+02  0.13905287236E+03  0.50156507561E+03  0.40000000000E+03 0. -1.
<mgrwt>
<rscale>  2 0.48190437E+03</rscale>
<asrwt>0</asrwt>
<pdfrwt beam="1">  1       21 0.65059011E-01 0.48190437E+03</pdfrwt>
<pdfrwt beam="2">  1       21 0.11496358E+00 0.48190437E+03</pdfrwt>
<totfact> 0.10717866E+03</totfact>
</mgrwt>
</event>
<event>
 4    1  0.8562541E-003  0.4524221E+03  0.7818608E-02  0.1027002E+00
         21   -1    0    0  503  502  0.00000000000E+00  0.00000000000E+00  0.15794970734E+03  0.15794970734E+03  0.00000000000E+00 0. -1.
         21   -1    0    0  501  503 -0.00000000000E+00 -0.00000000000E+00 -0.13167545459E+04  0.13167545459E+04  0.00000000000E+00 0. -1.
    9000005    1    1    2  501    0 -0.14356487562E+03  0.15516069882E+03 -0.48658933191E+03  0.66442072055E+03  0.40000000000E+03 0. -1.
   -9000005    1    1    2    0  502  0.14356487562E+03 -0.15516069882E+03 -0.67221550661E+03  0.81028353266E+03  0.40000000000E+03 0. -1.
<mgrwt>
<rscale>  2 0.45242206E+03</rscale>
<asrwt>0</asrwt>
<pdfrwt beam="1">  1       21 0.24299955E-01 0.45242206E+03</pdfrwt>
<pdfrwt beam="2">  1       21 0.20257762E+00 0.45242206E+03</pdfrwt>
<totfact> 0.17399732E+03</totfact>
</mgrwt>
</event>
<event>
 4    1  0.8562541E-003  0.4356147E+03  0.7818608E-02  0.1032101E+00
         21   -1    0    0  503  502  0.00000000000E+00  0.00000000000E+00  0.10073534868E+03  0.10073534868E+03  0.00000000000E+00 0. -1.
         21   -1    0    0  501  503 -0.00000000000E+00 -0.00000000000E+00 -0.21786885083E+04  0.21786885083E+04  0.00000000000E+00 0. -1.
    9000005    1    1    2  501    0 -0.17165698147E+03 -0.17147318183E+02 -0.61963905783E+03  0.75743825610E+03  0.40000000000E+03 0. -1.
   -9000005    1    1    2    0  502  0.17165698147E+03  0.17147318183E+02 -0.14583141018E+04  0.15219856009E+04  0.40000000000E+03 0. -1.
<mgrwt>
<rscale>  2 0.43561468E+03</rscale>
<asrwt>0</asrwt>
<pdfrwt beam="1">  1       21 0.15497748E-01 0.43561468E+03</pdfrwt>
<pdfrwt beam="2">  1       21 0.33518280E+00 0.43561468E+03</pdfrwt>
<totfact> 0.63039928E+02</totfact>
</mgrwt>
</event>
<event>
 4    1  0.8562541E-003  0.4513973E+03  0.7818608E-02  0.1027306E+00
         21   -1    0    0  501  502  0.00000000000E+00  0.00000000000E+00  0.28132213657E+03  0.28132213657E+03  0.00000000000E+00 0.  1.
         21   -1    0    0  502  503 -0.00000000000E+00 -0.00000000000E+00 -0.72913285771E+03  0.72913285771E+03  0.00000000000E+00 0. -1.
    9000005    1    1    2  501    0  0.14313822376E+03  0.15254835667E+03 -0.18274148905E+03  0.48698460350E+03  0.40000000000E+03 0. -1.
   -9000005    1    1    2    0  503 -0.14313822376E+03 -0.15254835667E+03 -0.26506923209E+03  0.52347039078E+03  0.40000000000E+03 0. -1.
<mgrwt>
<rscale>  2 0.45139733E+03</rscale>
<asrwt>0</asrwt>
<pdfrwt beam="1">  1       21 0.43280330E-01 0.45139733E+03</pdfrwt>
<pdfrwt beam="2">  1       21 0.11217428E+00 0.45139733E+03</pdfrwt>
<totfact> 0.27698684E+03</totfact>
</mgrwt>
</event>
<event>
 4    1  0.8562541E-003  0.4795333E+03  0.7818608E-02  0.1019264E+00
         21   -1    0    0  503  502  0.00000000000E+00  0.00000000000E+00  0.98045420970E+03  0.98045420970E+03  0.00000000000E+00 0.  1.
         21   -1    0    0  501  503 -0.00000000000E+00 -0.00000000000E+00 -0.28659325935E+03  0.28659325935E+03  0.00000000000E+00 0.  1.
    9000005    1    1    2  501    0  0.19812117840E+03  0.17521455562E+03  0.76927135319E+02  0.48566441704E+03  0.40000000000E+03 0.  1.
   -9000005    1    1    2    0  502 -0.19812117840E+03 -0.17521455562E+03  0.61693381503E+03  0.78138305200E+03  0.40000000000E+03 0.  1.
<mgrwt>
<rscale>  2 0.47953325E+03</rscale>
<asrwt>0</asrwt>
<pdfrwt beam="1">  1       21 0.15083911E+00 0.47953325E+03</pdfrwt>
<pdfrwt beam="2">  1       21 0.44091271E-01 0.47953325E+03</pdfrwt>
<totfact> 0.12193958E+03</totfact>
</mgrwt>
</event>
<event>
 4    1  0.8562541E-003  0.4761453E+03  0.7818608E-02  0.1020200E+00
         21   -1    0    0  503  502  0.00000000000E+00  0.00000000000E+00  0.57570369648E+03  0.57570369648E+03  0.00000000000E+00 0.  1.
         21   -1    0    0  501  503 -0.00000000000E+00 -0.00000000000E+00 -0.41372892191E+03  0.41372892191E+03  0.00000000000E+00 0. -1.
    9000005    1    1    2  501    0 -0.72702159425E+02  0.24784825990E+03 -0.27579561932E+02  0.47694338884E+03  0.40000000000E+03 0. -1.
   -9000005    1    1    2    0  502  0.72702159425E+02 -0.24784825990E+03  0.18955433650E+03  0.51248922955E+03  0.40000000000E+03 0.  1.
<mgrwt>
<rscale>  2 0.47614532E+03</rscale>
<asrwt>0</asrwt>
<pdfrwt beam="1">  1       21 0.88569799E-01 0.47614532E+03</pdfrwt>
<pdfrwt beam="2">  1       21 0.63650604E-01 0.47614532E+03</pdfrwt>
<totfact> 0.21295525E+03</totfact>
</mgrwt>
</event>
<event>
 4    1  0.8562541E-003  0.4425577E+03  0.7818608E-02  0.1029965E+00
         21   -1    0    0  501  502  0.00000000000E+00  0.00000000000E+00  0.27438650628E+03  0.27438650628E+03  0.00000000000E+00 0. -1.
         21   -1    0    0  502  503 -0.00000000000E+00 -0.00000000000E+00 -0.72100992903E+03  0.72100992903E+03  0.00000000000E+00 0. -1.
    9000005    1    1    2  501    0  0.38752878909E+02 -0.18535251979E+03 -0.17354567281E+03  0.47536874400E+03  0.40000000000E+03 0.  1.
   -9000005    1    1    2    0  503 -0.38752878909E+02  0.18535251979E+03 -0.27307774995E+03  0.52002769131E+03  0.40000000000E+03 0.  1.
<mgrwt>
<rscale>  2 0.44255773E+03</rscale>
<asrwt>0</asrwt>
<pdfrwt beam="1">  1       21 0.42213309E-01 0.44255773E+03</pdfrwt>
<pdfrwt beam="2">  1       21 0.11092460E+00 0.44255773E+03</pdfrwt>
<totfact> 0.30095759E+03</totfact>
</mgrwt>
</event>
<event>
 4    1  0.8562541E-003  0.5868802E+03  0.7818608E-02  0.9933006E-01
         21   -1    0    0  501  502  0.00000000000E+00  0.00000000000E+00  0.48447993586E+03  0.48447993586E+03  0.00000000000E+00 0.  1.
         21   -1    0    0  502  503 -0.00000000000E+00 -0.00000000000E+00 -0.88400807309E+03  0.88400807309E+03  0.00000000000E+00 0. -1.
    9000005    1    1    2  501    0  0.28216392207E+03 -0.32374665466E+03  0.10300502338E+03  0.59585099661E+03  0.40000000000E+03 0.  1.
   -9000005    1    1    2    0  503 -0.28216392207E+03  0.32374665466E+03 -0.50253316062E+03  0.77263701234E+03  0.40000000000E+03 0. -1.
<mgrwt>
<rscale>  2 0.58688021E+03</rscale>
<asrwt>0</asrwt>
<pdfrwt beam="1">  1       21 0.74535375E-01 0.58688021E+03</pdfrwt>
<pdfrwt beam="2">  1       21 0.13600124E+00 0.58688021E+03</pdfrwt>
<totfact> 0.49186913E+02</totfact>
</mgrwt>
</event>
<event>
 4    1  0.8562541E-003  0.4927816E+03  0.7818608E-02  0.1015680E+00
         21   -1    0    0  501  502  0.00000000000E+00  0.00000000000E+00  0.69677576605E+03  0.69677576605E+03  0.00000000000E+00 0. -1.
         21   -1    0    0  502  503 -0.00000000000E+00 -0.00000000000E+00 -0.35245752950E+03  0.35245752950E+03  0.00000000000E+00 0. -1.
    9000005    1    1    2  501    0  0.97682177167E+02 -0.27072471956E+03  0.11664250087E+03  0.50639821734E+03  0.40000000000E+03 0. -1.
   -9000005    1    1    2    0  503 -0.97682177167E+02  0.27072471956E+03  0.22767573568E+03  0.54283507821E+03  0.40000000000E+03 0. -1.
<mgrwt>
<rscale>  2 0.49278158E+03</rscale>
<asrwt>0</asrwt>
<pdfrwt beam="1">  1       21 0.10719627E+00 0.49278158E+03</pdfrwt>
<pdfrwt beam="2">  1       21 0.54224235E-01 0.49278158E+03</pdfrwt>
<totfact> 0.18942741E+03</totfact>
</mgrwt>
</event>
<event>
 4    1  0.8562541E-003  0.4606856E+03  0.7818608E-02  0.1024583E+00
         21   -1    0    0  503  502  0.00000000000E+00  0.00000000000E+00  0.14861785190E+04  0.14861785190E+04  0.00000000000E+00 0.  1.
         21   -1    0    0  501  503 -0.00000000000E+00 -0.00000000000E+00 -0.18065550822E+03  0.18065550822E+03  0.00000000000E+00 0.  1.
    9000005    1    1    2  501    0 -0.19723809488E+03 -0.11544840024E+03  0.27127220705E+03  0.53462118318E+03  0.40000000000E+03 0.  1.
   -9000005    1    1    2    0  502  0.19723809488E+03  0.11544840024E+03  0.10342508038E+04  0.11322128441E+04  0.40000000000E+03 0.  1.
<mgrwt>
<rscale>  2 0.46068558E+03</rscale>
<asrwt>0</asrwt>
<pdfrwt beam="1">  1       21 0.22864284E+00 0.46068558E+03</pdfrwt>
<pdfrwt beam="2">  1       21 0.27793156E-01 0.46068558E+03</pdfrwt>
<totfact> 0.90488836E+02</totfact>
</mgrwt>
</event>
<event>
 4    1  0.8562541E-003  0.4201705E+03  0.7818608E-02  0.1037011E+00
         21   -1    0    0  503  502  0.00000000000E+00  0.00000000000E+00  0.10898706540E+03  0.10898706540E+03  0.00000000000E+00 0.  1.
         21   -1    0    0  501  503 -0.00000000000E+00 -0.00000000000E+00 -0.16949159144E+04  0.16949159144E+04  0.00000000000E+00 0.  1.
    9000005    1    1    2  501    0  0.64389764908E+02  0.11134278703E+03 -0.98277290966E+03  0.10688245179E+04  0.40000000000E+03 0.  1.
   -9000005    1    1    2    0  502 -0.64389764908E+02 -0.11134278703E+03 -0.60315593939E+03  0.73507846198E+03  0.40000000000E+03 0.  1.
<mgrwt>
<rscale>  2 0.42017051E+03</rscale>
<asrwt>0</asrwt>
<pdfrwt beam="1">  1       21 0.16767241E-01 0.42017051E+03</pdfrwt>
<pdfrwt beam="2">  1       21 0.26075629E+00 0.42017051E+03</pdfrwt>
<totfact> 0.15409781E+03</totfact>
</mgrwt>
</event>
<event>
 4    1  0.8562541E-003  0.5162571E+03  0.7818608E-02  0.1009621E+00
         21   -1    0    0  501  502  0.00000000000E+00  0.00000000000E+00  0.90172829133E+03  0.90172829133E+03  0.00000000000E+00 0.  1.
         21   -1    0    0  502  503 -0.00000000000E+00 -0.00000000000E+00 -0.36562304206E+03  0.36562304206E+03  0.00000000000E+00 0.  1.
    9000005    1    1    2  501    0 -0.31174466374E+03 -0.96626127075E+02  0.54543080908E+03  0.75101006072E+03  0.40000000000E+03 0.  1.
   -9000005    1    1    2    0  503  0.31174466374E+03  0.96626127075E+02 -0.93255598158E+01  0.51634127268E+03  0.40000000000E+03 0.  1.
<mgrwt>
<rscale>  2 0.51625705E+03</rscale>
<asrwt>0</asrwt>
<pdfrwt beam="1">  1       21 0.13872743E+00 0.51625705E+03</pdfrwt>
<pdfrwt beam="2">  1       21 0.56249699E-01 0.51625705E+03</pdfrwt>
<totfact> 0.89676242E+02</totfact>
</mgrwt>
</event>
<event>
 4    1  0.8562541E-003  0.6984015E+03  0.7818608E-02  0.9719970E-01
         21   -1    0    0  503  502  0.00000000000E+00  0.00000000000E+00  0.47489092112E+03  0.47489092112E+03  0.00000000000E+00 0. -1.
         21   -1    0    0  501  503 -0.00000000000E+00 -0.00000000000E+00 -0.10879218853E+04  0.10879218853E+04  0.00000000000E+00 0. -1.
    9000005    1    1    2  501    0  0.57233887219E+03 -0.13887865643E+02 -0.49126211310E+03  0.85387535461E+03  0.40000000000E+03 0. -1.
   -9000005    1    1    2    0  502 -0.57233887219E+03  0.13887865643E+02 -0.12176885103E+03  0.70893745177E+03  0.40000000000E+03 0. -1.
<mgrwt>
<rscale>  2 0.69840150E+03</rscale>
<asrwt>0</asrwt>
<pdfrwt beam="1">  1       21 0.73060143E-01 0.69840150E+03</pdfrwt>
<pdfrwt beam="2">  1       21 0.16737259E+00 0.69840150E+03</pdfrwt>
<totfact> 0.28002960E+02</totfact>
</mgrwt>
</event>
<event>
 4    1  0.8562541E-003  0.4512559E+03  0.7818608E-02  0.1027348E+00
         21   -1    0    0  501  502  0.00000000000E+00  0.00000000000E+00  0.27908547673E+03  0.27908547673E+03  0.00000000000E+00 0.  1.
         21   -1    0    0  502  503 -0.00000000000E+00 -0.00000000000E+00 -0.78655721560E+03  0.78655721560E+03  0.00000000000E+00 0.  1.
    9000005    1    1    2  501    0 -0.10294426022E+03  0.18175354781E+03 -0.11040523529E+03  0.46456559153E+03  0.40000000000E+03 0.  1.
   -9000005    1    1    2    0  503  0.10294426022E+03 -0.18175354781E+03 -0.39706650358E+03  0.60107710081E+03  0.40000000000E+03 0.  1.
<mgrwt>
<rscale>  2 0.45125588E+03</rscale>
<asrwt>0</asrwt>
<pdfrwt beam="1">  1       21 0.42936229E-01 0.45125588E+03</pdfrwt>
<pdfrwt beam="2">  1       21 0.12100880E+00 0.45125588E+03</pdfrwt>
<totfact> 0.23275484E+03</totfact>
</mgrwt>
</event>
<event>
 4    1  0.8562541E-003  0.4058302E+03  0.7818608E-02  0.1041779E+00
         21   -1    0    0  503  502  0.00000000000E+00  0.00000000000E+00  0.62362330948E+03  0.62362330948E+03  0.00000000000E+00 0.  1.
         21   -1    0    0  501  503 -0.00000000000E+00 -0.00000000000E+00 -0.26418541327E+03  0.26418541327E+03  0.00000000000E+00 0.  1.
    9000005    1    1    2  501    0 -0.41616998957E+02 -0.54462446663E+02  0.17167873026E+03  0.44064920188E+03  0.40000000000E+03 0.  1.
   -9000005    1    1    2    0  502  0.41616998957E+02  0.54462446663E+02  0.18775916595E+03  0.44715952086E+03  0.40000000000E+03 0.  1.
<mgrwt>
<rscale>  2 0.40583018E+03</rscale>
<asrwt>0</asrwt>
<pdfrwt beam="1">  1       21 0.95942047E-01 0.40583018E+03</pdfrwt>
<pdfrwt beam="2">  1       21 0.40643910E-01 0.40583018E+03</pdfrwt>
<totfact> 0.47038347E+03</totfact>
</mgrwt>
</event>
<event>
 4    1  0.8562541E-003  0.4553033E+03  0.7818608E-02  0.1026152E+00
         21   -1    0    0  501  502  0.00000000000E+00  0.00000000000E+00  0.70591119305E+03  0.70591119305E+03  0.00000000000E+00 0.  1.
         21   -1    0    0  502  503 -0.00000000000E+00 -0.00000000000E+00 -0.30313242238E+03  0.30313242238E+03  0.00000000000E+00 0.  1.
    9000005    1    1    2  501    0  0.18398922262E+03 -0.11597012838E+03  0.11222538186E+03  0.46893031577E+03  0.40000000000E+03 0.  1.
   -9000005    1    1    2    0  503 -0.18398922262E+03  0.11597012838E+03  0.29055338881E+03  0.54011329965E+03  0.40000000000E+03 0.  1.
<mgrwt>
<rscale>  2 0.45530331E+03</rscale>
<asrwt>0</asrwt>
<pdfrwt beam="1">  1       21 0.10860172E+00 0.45530331E+03</pdfrwt>
<pdfrwt beam="2">  1       21 0.46635757E-01 0.45530331E+03</pdfrwt>
<totfact> 0.25634360E+03</totfact>
</mgrwt>
</event>
<event>
 4    1  0.8562541E-003  0.4267029E+03  0.7818608E-02  0.1034907E+00
         21   -1    0    0  501  502  0.00000000000E+00  0.00000000000E+00  0.48688250340E+03  0.48688250340E+03  0.00000000000E+00 0. -1.
         21   -1    0    0  502  503 -0.00000000000E+00 -0.00000000000E+00 -0.41899694338E+03  0.41899694338E+03  0.00000000000E+00 0. -1.
    9000005    1    1    2  501    0  0.65173489403E+01 -0.14843465984E+03 -0.11455230453E+03  0.44181167317E+03  0.40000000000E+03 0. -1.
   -9000005    1    1    2    0  503 -0.65173489403E+01  0.14843465984E+03  0.18243786454E+03  0.46406777360E+03  0.40000000000E+03 0. -1.
<mgrwt>
<rscale>  2 0.42670285E+03</rscale>
<asrwt>0</asrwt>
<pdfrwt beam="1">  1       21 0.74905001E-01 0.42670285E+03</pdfrwt>
<pdfrwt beam="2">  1       21 0.64461068E-01 0.42670285E+03</pdfrwt>
<totfact> 0.31093820E+03</totfact>
</mgrwt>
</event>
<event>
 4    1  0.8562541E-003  0.5045246E+03  0.7818608E-02  0.1012605E+00
         21   -1    0    0  501  502  0.00000000000E+00  0.00000000000E+00  0.19446536883E+04  0.19446536883E+04  0.00000000000E+00 0.  1.
         21   -1    0    0  502  503 -0.00000000000E+00 -0.00000000000E+00 -0.13116982973E+03  0.13116982973E+03  0.00000000000E+00 0.  1.
    9000005    1    1    2  501    0 -0.21356731898E+03  0.22121037220E+03  0.95426935340E+03  0.10794327340E+04  0.40000000000E+03 0.  1.
   -9000005    1    1    2    0  503  0.21356731898E+03 -0.22121037220E+03  0.85921450521E+03  0.99639078402E+03  0.40000000000E+03 0.  1.
<mgrwt>
<rscale>  2 0.50452456E+03</rscale>
<asrwt>0</asrwt>
<pdfrwt beam="1">  1       21 0.29917747E+00 0.50452456E+03</pdfrwt>
<pdfrwt beam="2">  1       21 0.20179975E-01 0.50452456E+03</pdfrwt>
<totfact> 0.60949927E+02</totfact>
</mgrwt>
</event>
<event>
 4    1  0.8562541E-003  0.4275839E+03  0.7818608E-02  0.1034626E+00
         21   -1    0    0  503  502  0.00000000000E+00  0.00000000000E+00  0.33569773812E+03  0.33569773812E+03  0.00000000000E+00 0. -1.
         21   -1    0    0  501  503 -0.00000000000E+00 -0.00000000000E+00 -0.60693832990E+03  0.60693832990E+03  0.00000000000E+00 0. -1.
    9000005    1    1    2  501    0  0.14973250637E+03 -0.20202309534E+02 -0.28664466656E+03  0.51477482616E+03  0.40000000000E+03 0. -1.
   -9000005    1    1    2    0  502 -0.14973250637E+03  0.20202309534E+02  0.15404074788E+02  0.42786124187E+03  0.40000000000E+03 0. -1.
<mgrwt>
<rscale>  2 0.42758386E+03</rscale>
<asrwt>0</asrwt>
<pdfrwt beam="1">  1       21 0.51645806E-01 0.42758386E+03</pdfrwt>
<pdfrwt beam="2">  1       21 0.93375127E-01 0.42758386E+03</pdfrwt>
<totfact> 0.30122693E+03</totfact>
</mgrwt>
</event>
<event>
 4    1  0.8562541E-003  0.5642282E+03  0.7818608E-02  0.9982533E-01
         21   -1    0    0  501  502  0.00000000000E+00  0.00000000000E+00  0.47012889243E+03  0.47012889243E+03  0.00000000000E+00 0.  1.
         21   -1    0    0  502  503 -0.00000000000E+00 -0.00000000000E+00 -0.67959515196E+03  0.67959515196E+03  0.00000000000E+00 0.  1.
    9000005    1    1    2  501    0  0.38668569405E+03 -0.93955384705E+02 -0.70336218506E+02  0.56859530769E+03  0.40000000000E+03 0.  1.
   -9000005    1    1    2    0  503 -0.38668569405E+03  0.93955384705E+02 -0.13913004102E+03  0.58112873669E+03  0.40000000000E+03 0.  1.
<mgrwt>
<rscale>  2 0.56422818E+03</rscale>
<asrwt>0</asrwt>
<pdfrwt beam="1">  1       21 0.72327522E-01 0.56422818E+03</pdfrwt>
<pdfrwt beam="2">  1       21 0.10455310E+00 0.56422818E+03</pdfrwt>
<totfact> 0.10391535E+03</totfact>
</mgrwt>
</event>
<event>
 4    1  0.8562541E-003  0.4465588E+03  0.7818608E-02  0.1028753E+00
         21   -1    0    0  503  502  0.00000000000E+00  0.00000000000E+00  0.72330228539E+03  0.72330228539E+03  0.00000000000E+00 0. -1.
         21   -1    0    0  501  503 -0.00000000000E+00 -0.00000000000E+00 -0.27687973365E+03  0.27687973365E+03  0.00000000000E+00 0.  1.
    9000005    1    1    2  501    0  0.16548043476E+02  0.19784058974E+03  0.25584900645E+03  0.51465857691E+03  0.40000000000E+03 0. -1.
   -9000005    1    1    2    0  502 -0.16548043476E+02 -0.19784058974E+03  0.19057354528E+03  0.48552344213E+03  0.40000000000E+03 0.  1.
<mgrwt>
<rscale>  2 0.44655877E+03</rscale>
<asrwt>0</asrwt>
<pdfrwt beam="1">  1       21 0.11127727E+00 0.44655877E+03</pdfrwt>
<pdfrwt beam="2">  1       21 0.42596882E-01 0.44655877E+03</pdfrwt>
<totfact> 0.29260733E+03</totfact>
</mgrwt>
</event>
<event>
 4    1  0.8562541E-003  0.5369061E+03  0.7818608E-02  0.1004571E+00
         21   -1    0    0  501  502  0.00000000000E+00  0.00000000000E+00  0.23162900423E+03  0.23162900423E+03  0.00000000000E+00 0.  1.
         21   -1    0    0  502  503 -0.00000000000E+00 -0.00000000000E+00 -0.13318094130E+04  0.13318094130E+04  0.00000000000E+00 0. -1.
    9000005    1    1    2  501    0 -0.35263701350E+03 -0.62572625645E+02 -0.34996724939E+03  0.64089411950E+03  0.40000000000E+03 0.  1.
   -9000005    1    1    2    0  503  0.35263701350E+03  0.62572625645E+02 -0.75021315936E+03  0.92254429772E+03  0.40000000000E+03 0.  1.
<mgrwt>
<rscale>  2 0.53690613E+03</rscale>
<asrwt>0</asrwt>
<pdfrwt beam="1">  1       21 0.35635231E-01 0.53690613E+03</pdfrwt>
<pdfrwt beam="2">  1       21 0.20489376E+00 0.53690613E+03</pdfrwt>
<totfact> 0.75811014E+02</totfact>
</mgrwt>
</event>
<event>
 4    1  0.8562541E-003  0.4092794E+03  0.7818608E-02  0.1040613E+00
         21   -1    0    0  501  502  0.00000000000E+00  0.00000000000E+00  0.15112643326E+03  0.15112643326E+03  0.00000000000E+00 0.  1.
         21   -1    0    0  502  503 -0.00000000000E+00 -0.00000000000E+00 -0.13641467629E+04  0.13641467629E+04  0.00000000000E+00 0.  1.
    9000005    1    1    2  501    0  0.66114558388E+02 -0.56022075701E+02 -0.27846815606E+03  0.49502941502E+03  0.40000000000E+03 0.  1.
   -9000005    1    1    2    0  503 -0.66114558388E+02  0.56022075701E+02 -0.93455217357E+03  0.10202437811E+04  0.40000000000E+03 0.  1.
<mgrwt>
<rscale>  2 0.40927938E+03</rscale>
<asrwt>0</asrwt>
<pdfrwt beam="1">  1       21 0.23250222E-01 0.40927938E+03</pdfrwt>
<pdfrwt beam="2">  1       21 0.20986872E+00 0.40927938E+03</pdfrwt>
<totfact> 0.17312936E+03</totfact>
</mgrwt>
</event>
<event>
 4    1  0.8562541E-003  0.4031880E+03  0.7818608E-02  0.1042681E+00
         21   -1    0    0  503  502  0.00000000000E+00  0.00000000000E+00  0.14439481773E+04  0.14439481773E+04  0.00000000000E+00 0. -1.
         21   -1    0    0  501  503 -0.00000000000E+00 -0.00000000000E+00 -0.13140318873E+03  0.13140318873E+03  0.00000000000E+00 0. -1.
    9000005    1    1    2  501    0 -0.26927220102E+00 -0.50601349737E+02  0.35815735790E+03  0.53929329879E+03  0.40000000000E+03 0.  1.
   -9000005    1    1    2    0  502  0.26927220102E+00  0.50601349737E+02  0.95438763068E+03  0.10360580672E+04  0.40000000000E+03 0.  1.
<mgrwt>
<rscale>  2 0.40318801E+03</rscale>
<asrwt>0</asrwt>
<pdfrwt beam="1">  1       21 0.22214586E+00 0.40318801E+03</pdfrwt>
<pdfrwt beam="2">  1       21 0.20215876E-01 0.40318801E+03</pdfrwt>
<totfact> 0.18931346E+03</totfact>
</mgrwt>
</event>
<event>
 4    1  0.8562541E-003  0.5504568E+03  0.7818608E-02  0.1001388E+00
         21   -1    0    0  503  502  0.00000000000E+00  0.00000000000E+00  0.63021568462E+03  0.63021568462E+03  0.00000000000E+00 0.  1.
         21   -1    0    0  501  503 -0.00000000000E+00 -0.00000000000E+00 -0.48521355183E+03  0.48521355183E+03  0.00000000000E+00 0.  1.
    9000005    1    1    2  501    0  0.26293736365E+03  0.27178421689E+03  0.12573988171E+03  0.56463548915E+03  0.40000000000E+03 0.  1.
   -9000005    1    1    2    0  502 -0.26293736365E+03 -0.27178421689E+03  0.19262251081E+02  0.55079374730E+03  0.40000000000E+03 0.  1.
<mgrwt>
<rscale>  2 0.55045683E+03</rscale>
<asrwt>0</asrwt>
<pdfrwt beam="1">  1       21 0.96956259E-01 0.55045683E+03</pdfrwt>
<pdfrwt beam="2">  1       21 0.74648239E-01 0.55045683E+03</pdfrwt>
<totfact> 0.11682374E+03</totfact>
</mgrwt>
</event>
<event>
 4    1  0.8562541E-003  0.7311054E+03  0.7818608E-02  0.9665468E-01
         21   -1    0    0  501  502  0.00000000000E+00  0.00000000000E+00  0.10146995347E+04  0.10146995347E+04  0.00000000000E+00 0. -1.
         21   -1    0    0  502  503 -0.00000000000E+00 -0.00000000000E+00 -0.52882368175E+03  0.52882368175E+03  0.00000000000E+00 0. -1.
    9000005    1    1    2  501    0 -0.28976736247E+03 -0.53902687200E+03  0.19486454790E+03  0.75662889524E+03  0.40000000000E+03 0. -1.
   -9000005    1    1    2    0  503  0.28976736247E+03  0.53902687200E+03  0.29101130505E+03  0.78689432121E+03  0.40000000000E+03 0. -1.
<mgrwt>
<rscale>  2 0.73110539E+03</rscale>
<asrwt>0</asrwt>
<pdfrwt beam="1">  1       21 0.15610762E+00 0.73110539E+03</pdfrwt>
<pdfrwt beam="2">  1       21 0.81357489E-01 0.73110539E+03</pdfrwt>
<totfact> 0.26339454E+02</totfact>
</mgrwt>
</event>
<event>
 4    1  0.8562541E-003  0.4192726E+03  0.7818608E-02  0.1037303E+00
         21   -1    0    0  501  502  0.00000000000E+00  0.00000000000E+00  0.25645748639E+03  0.25645748639E+03  0.00000000000E+00 0.  1.
         21   -1    0    0  502  503 -0.00000000000E+00 -0.00000000000E+00 -0.72532376430E+03  0.72532376430E+03  0.00000000000E+00 0.  1.
    9000005    1    1    2  501    0 -0.26201518448E+02  0.12289427127E+03 -0.11934071320E+03  0.43592628655E+03  0.40000000000E+03 0.  1.
   -9000005    1    1    2    0  503  0.26201518448E+02 -0.12289427127E+03 -0.34952556472E+03  0.54585496413E+03  0.40000000000E+03 0.  1.
<mgrwt>
<rscale>  2 0.41927261E+03</rscale>
<asrwt>0</asrwt>
<pdfrwt beam="1">  1       21 0.39454998E-01 0.41927261E+03</pdfrwt>
<pdfrwt beam="2">  1       21 0.11158827E+00 0.41927261E+03</pdfrwt>
<totfact> 0.34389905E+03</totfact>
</mgrwt>
</event>
<event>
 4    1  0.8562541E-003  0.4242484E+03  0.7818608E-02  0.1035692E+00
         21   -1    0    0  501  502  0.00000000000E+00  0.00000000000E+00  0.27051291264E+03  0.27051291264E+03  0.00000000000E+00 0.  1.
         21   -1    0    0  502  503 -0.00000000000E+00 -0.00000000000E+00 -0.66609722931E+03  0.66609722931E+03  0.00000000000E+00 0. -1.
    9000005    1    1    2  501    0 -0.14114214856E+03  0.80991405473E+01 -0.18214341687E+03  0.46169570767E+03  0.40000000000E+03 0. -1.
   -9000005    1    1    2    0  503  0.14114214856E+03 -0.80991405473E+01 -0.21344089980E+03  0.47491443427E+03  0.40000000000E+03 0. -1.
<mgrwt>
<rscale>  2 0.42424840E+03</rscale>
<asrwt>0</asrwt>
<pdfrwt beam="1">  1       21 0.41617371E-01 0.42424840E+03</pdfrwt>
<pdfrwt beam="2">  1       21 0.10247650E+00 0.42424840E+03</pdfrwt>
<totfact> 0.37934165E+03</totfact>
</mgrwt>
</event>
<event>
 4    1  0.8562541E-003  0.4341866E+03  0.7818608E-02  0.1032546E+00
         21   -1    0    0  501  502  0.00000000000E+00  0.00000000000E+00  0.62864239362E+02  0.62864239362E+02  0.00000000000E+00 0.  1.
         21   -1    0    0  502  503 -0.00000000000E+00 -0.00000000000E+00 -0.31100257283E+04  0.31100257283E+04  0.00000000000E+00 0.  1.
    9000005    1    1    2  501    0  0.11365043243E+03  0.12490632836E+03 -0.12235795654E+04  0.12983316081E+04  0.40000000000E+03 0.  1.
   -9000005    1    1    2    0  503 -0.11365043243E+03 -0.12490632836E+03 -0.18235819235E+04  0.18745583595E+04  0.40000000000E+03 0.  1.
<mgrwt>
<rscale>  2 0.43418661E+03</rscale>
<asrwt>0</asrwt>
<pdfrwt beam="1">  1       21 0.96714218E-02 0.43418661E+03</pdfrwt>
<pdfrwt beam="2">  1       21 0.47846548E+00 0.43418661E+03</pdfrwt>
<totfact> 0.17607572E+02</totfact>
</mgrwt>
</event>
<event>
 4    1  0.8562541E-003  0.4681873E+03  0.7818608E-02  0.1022433E+00
         21   -1    0    0  503  502  0.00000000000E+00  0.00000000000E+00  0.35852194552E+03  0.35852194552E+03  0.00000000000E+00 0.  1.
         21   -1    0    0  501  503 -0.00000000000E+00 -0.00000000000E+00 -0.63145343313E+03  0.63145343313E+03  0.00000000000E+00 0.  1.
    9000005    1    1    2  501    0  0.15846048769E+03 -0.18463387101E+03 -0.22468147471E+03  0.51930834536E+03  0.40000000000E+03 0.  1.
   -9000005    1    1    2    0  502 -0.15846048769E+03  0.18463387101E+03 -0.48250012897E+02  0.47066703329E+03  0.40000000000E+03 0.  1.
<mgrwt>
<rscale>  2 0.46818735E+03</rscale>
<asrwt>0</asrwt>
<pdfrwt beam="1">  1       21 0.55157222E-01 0.46818735E+03</pdfrwt>
<pdfrwt beam="2">  1       21 0.97146682E-01 0.46818735E+03</pdfrwt>
<totfact> 0.23434505E+03</totfact>
</mgrwt>
</event>
<event>
 4    1  0.8562541E-003  0.5191218E+03  0.7818608E-02  0.1008905E+00
         21   -1    0    0  503  502  0.00000000000E+00  0.00000000000E+00  0.10122620143E+04  0.10122620143E+04  0.00000000000E+00 0.  1.
         21   -1    0    0  501  503 -0.00000000000E+00 -0.00000000000E+00 -0.32382050477E+03  0.32382050477E+03  0.00000000000E+00 0.  1.
    9000005    1    1    2  501    0 -0.23571397591E+03  0.23222050980E+03  0.62477908091E+02  0.52286798775E+03  0.40000000000E+03 0.  1.
   -9000005    1    1    2    0  502  0.23571397591E+03 -0.23222050980E+03  0.62596360141E+03  0.81321453129E+03  0.40000000000E+03 0.  1.
<mgrwt>
<rscale>  2 0.51912180E+03</rscale>
<asrwt>0</asrwt>
<pdfrwt beam="1">  1       21 0.15573262E+00 0.51912180E+03</pdfrwt>
<pdfrwt beam="2">  1       21 0.49818540E-01 0.51912180E+03</pdfrwt>
<totfact> 0.85013202E+02</totfact>
</mgrwt>
</event>
<event>
 4    1  0.8562541E-003  0.7602647E+03  0.7818608E-02  0.9619383E-01
         21   -1    0    0  501  502  0.00000000000E+00  0.00000000000E+00  0.13930532903E+04  0.13930532903E+04  0.00000000000E+00 0.  1.
         21   -1    0    0  502  503 -0.00000000000E+00 -0.00000000000E+00 -0.42299779208E+03  0.42299779208E+03  0.00000000000E+00 0. -1.
    9000005    1    1    2  501    0  0.52132877040E+03 -0.38238551744E+03  0.61052639199E+03  0.97506145761E+03  0.40000000000E+03 0.  1.
   -9000005    1    1    2    0  503 -0.52132877040E+03  0.38238551744E+03  0.35952910627E+03  0.84098962482E+03  0.40000000000E+03 0.  1.
<mgrwt>
<rscale>  2 0.76026467E+03</rscale>
<asrwt>0</asrwt>
<pdfrwt beam="1">  1       21 0.21431589E+00 0.76026467E+03</pdfrwt>
<pdfrwt beam="2">  1       21 0.65076584E-01 0.76026467E+03</pdfrwt>
<totfact> 0.16797132E+02</totfact>
</mgrwt>
</event>
<event>
 4    1  0.8562541E-003  0.4270375E+03  0.7818608E-02  0.1034800E+00
         21   -1    0    0  503  502  0.00000000000E+00  0.00000000000E+00  0.43301079256E+03  0.43301079256E+03  0.00000000000E+00 0.  1.
         21   -1    0    0  501  503 -0.00000000000E+00 -0.00000000000E+00 -0.43554379311E+03  0.43554379311E+03  0.00000000000E+00 0.  1.
    9000005    1    1    2  501    0 -0.14091362066E+03  0.50043857459E+02  0.77690322837E+02  0.43404702789E+03  0.40000000000E+03 0.  1.
   -9000005    1    1    2    0  502  0.14091362066E+03 -0.50043857459E+02 -0.80223323384E+02  0.43450755778E+03  0.40000000000E+03 0.  1.
<mgrwt>
<rscale>  2 0.42703751E+03</rscale>
<asrwt>0</asrwt>
<pdfrwt beam="1">  1       21 0.66617045E-01 0.42703751E+03</pdfrwt>
<pdfrwt beam="2">  1       21 0.67006738E-01 0.42703751E+03</pdfrwt>
<totfact> 0.37149614E+03</totfact>
</mgrwt>
</event>
<event>
 4    1  0.8562541E-003  0.5102025E+03  0.7818608E-02  0.1011150E+00
         21   -1    0    0  503  502  0.00000000000E+00  0.00000000000E+00  0.16648860445E+03  0.16648860445E+03  0.00000000000E+00 0.  1.
         21   -1    0    0  501  503 -0.00000000000E+00 -0.00000000000E+00 -0.17742021973E+04  0.17742021973E+04  0.00000000000E+00 0. -1.
    9000005    1    1    2  501    0  0.15004136142E+03 -0.27891613180E+03 -0.11382434176E+04  0.12473590888E+04  0.40000000000E+03 0.  1.
   -9000005    1    1    2    0  502 -0.15004136142E+03  0.27891613180E+03 -0.46947017520E+03  0.69333171290E+03  0.40000000000E+03 0.  1.
<mgrwt>
<rscale>  2 0.51020253E+03</rscale>
<asrwt>0</asrwt>
<pdfrwt beam="1">  1       21 0.25613630E-01 0.51020253E+03</pdfrwt>
<pdfrwt beam="2">  1       21 0.27295420E+00 0.51020253E+03</pdfrwt>
<totfact> 0.55272865E+02</totfact>
</mgrwt>
</event>
<event>
 4    1  0.8562541E-003  0.4936856E+03  0.7818608E-02  0.1015440E+00
         21   -1    0    0  503  502  0.00000000000E+00  0.00000000000E+00  0.64957695794E+03  0.64957695794E+03  0.00000000000E+00 0.  1.
         21   -1    0    0  501  503 -0.00000000000E+00 -0.00000000000E+00 -0.39410244418E+03  0.39410244418E+03  0.00000000000E+00 0.  1.
    9000005    1    1    2  501    0 -0.27630189908E+03  0.85922566513E+02  0.13470976717E+02  0.49386930871E+03  0.40000000000E+03 0.  1.
   -9000005    1    1    2    0  502  0.27630189908E+03 -0.85922566513E+02  0.24200353705E+03  0.54981009341E+03  0.40000000000E+03 0.  1.
<mgrwt>
<rscale>  2 0.49368555E+03</rscale>
<asrwt>0</asrwt>
<pdfrwt beam="1">  1       21 0.99934917E-01 0.49368555E+03</pdfrwt>
<pdfrwt beam="2">  1       21 0.60631145E-01 0.49368555E+03</pdfrwt>
<totfact> 0.17642441E+03</totfact>
</mgrwt>
</event>
<event>
 4    1  0.8562541E-003  0.5127074E+03  0.7818608E-02  0.1010514E+00
         21   -1    0    0  503  502  0.00000000000E+00  0.00000000000E+00  0.13444219211E+04  0.13444219211E+04  0.00000000000E+00 0.  1.
         21   -1    0    0  501  503 -0.00000000000E+00 -0.00000000000E+00 -0.22004452363E+03  0.22004452363E+03  0.00000000000E+00 0. -1.
    9000005    1    1    2  501    0  0.31555929674E+03  0.57369104769E+02  0.82330368574E+03  0.96989578971E+03  0.40000000000E+03 0.  1.
   -9000005    1    1    2    0  502 -0.31555929674E+03 -0.57369104769E+02  0.30107371176E+03  0.59457065505E+03  0.40000000000E+03 0. -1.
<mgrwt>
<rscale>  2 0.51270741E+03</rscale>
<asrwt>0</asrwt>
<pdfrwt beam="1">  1       21 0.20683414E+00 0.51270741E+03</pdfrwt>
<pdfrwt beam="2">  1       21 0.33853004E-01 0.51270741E+03</pdfrwt>
<totfact> 0.82465983E+02</totfact>
</mgrwt>
</event>
<event>
 4    1  0.8562541E-003  0.4260086E+03  0.7818608E-02  0.1035128E+00
         21   -1    0    0  501  502  0.00000000000E+00  0.00000000000E+00  0.17828333919E+03  0.17828333919E+03  0.00000000000E+00 0. -1.
         21   -1    0    0  502  503 -0.00000000000E+00 -0.00000000000E+00 -0.12613999650E+04  0.12613999650E+04  0.00000000000E+00 0.  1.
    9000005    1    1    2  501    0  0.44915188275E+02 -0.13952031730E+03 -0.22531847083E+03  0.48192500078E+03  0.40000000000E+03 0. -1.
   -9000005    1    1    2    0  503 -0.44915188275E+02  0.13952031730E+03 -0.85779815494E+03  0.95775830338E+03  0.40000000000E+03 0.  1.
<mgrwt>
<rscale>  2 0.42600856E+03</rscale>
<asrwt>0</asrwt>
<pdfrwt beam="1">  1       21 0.27428205E-01 0.42600856E+03</pdfrwt>
<pdfrwt beam="2">  1       21 0.19406154E+00 0.42600856E+03</pdfrwt>
<totfact> 0.15849297E+03</totfact>
</mgrwt>
</event>
<event>
 4    1  0.8562541E-003  0.4092472E+03  0.7818608E-02  0.1040624E+00
         21   -1    0    0  501  502  0.00000000000E+00  0.00000000000E+00  0.21550957008E+03  0.21550957008E+03  0.00000000000E+00 0. -1.
         21   -1    0    0  502  503 -0.00000000000E+00 -0.00000000000E+00 -0.89430201891E+03  0.89430201891E+03  0.00000000000E+00 0. -1.
    9000005    1    1    2  501    0 -0.73278424942E+02 -0.45973378614E+02 -0.13855544451E+03  0.43206584025E+03  0.40000000000E+03 0. -1.
   -9000005    1    1    2    0  503  0.73278424942E+02  0.45973378614E+02 -0.54023700432E+03  0.67774574874E+03  0.40000000000E+03 0. -1.
<mgrwt>
<rscale>  2 0.40924721E+03</rscale>
<asrwt>0</asrwt>
<pdfrwt beam="1">  1       21 0.33155318E-01 0.40924721E+03</pdfrwt>
<pdfrwt beam="2">  1       21 0.13758493E+00 0.40924721E+03</pdfrwt>
<totfact> 0.28776598E+03</totfact>
</mgrwt>
</event>
<event>
 4    1  0.8562541E-003  0.5772573E+03  0.7818608E-02  0.9953747E-01
         21   -1    0    0  503  502  0.00000000000E+00  0.00000000000E+00  0.70267032914E+03  0.70267032914E+03  0.00000000000E+00 0. -1.
         21   -1    0    0  501  503 -0.00000000000E+00 -0.00000000000E+00 -0.47425252159E+03  0.47425252159E+03  0.00000000000E+00 0.  1.
    9000005    1    1    2  501    0 -0.30415794133E+03  0.28410196962E+03  0.11843572167E+03  0.58928176841E+03  0.40000000000E+03 0. -1.
   -9000005    1    1    2    0  502  0.30415794133E+03 -0.28410196962E+03  0.10998208588E+03  0.58764108232E+03  0.40000000000E+03 0.  1.
<mgrwt>
<rscale>  2 0.57725729E+03</rscale>
<asrwt>0</asrwt>
<pdfrwt beam="1">  1       21 0.10810313E+00 0.57725729E+03</pdfrwt>
<pdfrwt beam="2">  1       21 0.72961926E-01 0.57725729E+03</pdfrwt>
<totfact> 0.93369821E+02</totfact>
</mgrwt>
</event>
<event>
 4    1  0.8562541E-003  0.5883152E+03  0.7818608E-02  0.9929949E-01
         21   -1    0    0  501  502  0.00000000000E+00  0.00000000000E+00  0.72945097671E+03  0.72945097671E+03  0.00000000000E+00 0. -1.
         21   -1    0    0  502  503 -0.00000000000E+00 -0.00000000000E+00 -0.54848994232E+03  0.54848994232E+03  0.00000000000E+00 0.  1.
    9000005    1    1    2  501    0 -0.13357625870E+03  0.41020992981E+03  0.32518519932E+03  0.67220548738E+03  0.40000000000E+03 0. -1.
   -9000005    1    1    2    0  503  0.13357625870E+03 -0.41020992981E+03 -0.14422416493E+03  0.60573543165E+03  0.40000000000E+03 0.  1.
<mgrwt>
<rscale>  2 0.58831522E+03</rscale>
<asrwt>0</asrwt>
<pdfrwt beam="1">  1       21 0.11222323E+00 0.58831522E+03</pdfrwt>
<pdfrwt beam="2">  1       21 0.84383068E-01 0.58831522E+03</pdfrwt>
<totfact> 0.60500950E+02</totfact>
</mgrwt>
</event>
<event>
 4    1  0.8562541E-003  0.4928395E+03  0.7818608E-02  0.1015665E+00
         21   -1    0    0  503  502  0.00000000000E+00  0.00000000000E+00  0.68346930541E+03  0.68346930541E+03  0.00000000000E+00 0. -1.
         21   -1    0    0  501  503 -0.00000000000E+00 -0.00000000000E+00 -0.35613010276E+03  0.35613010276E+03  0.00000000000E+00 0. -1.
    9000005    1    1    2  501    0 -0.11702536027E+03  0.26305109687E+03  0.18753709464E+03  0.52731487404E+03  0.40000000000E+03 0. -1.
   -9000005    1    1    2    0  502  0.11702536027E+03 -0.26305109687E+03  0.13980210801E+03  0.51228453414E+03  0.40000000000E+03 0. -1.
<mgrwt>
<rscale>  2 0.49283954E+03</rscale>
<asrwt>0</asrwt>
<pdfrwt beam="1">  1       21 0.10514912E+00 0.49283954E+03</pdfrwt>
<pdfrwt beam="2">  1       21 0.54789247E-01 0.49283954E+03</pdfrwt>
<totfact> 0.19427323E+03</totfact>
</mgrwt>
</event>
<event>
 4    1  0.8562541E-003  0.4756978E+03  0.7818608E-02  0.1020324E+00
         21   -1    0    0  501  502  0.00000000000E+00  0.00000000000E+00  0.53572906348E+03  0.53572906348E+03  0.00000000000E+00 0. -1.
         21   -1    0    0  502  503 -0.00000000000E+00 -0.00000000000E+00 -0.44063611908E+03  0.44063611908E+03  0.00000000000E+00 0. -1.
    9000005    1    1    2  501    0 -0.18001354238E+03  0.18407483830E+03 -0.51785030599E+02  0.47850821407E+03  0.40000000000E+03 0. -1.
   -9000005    1    1    2    0  503  0.18001354238E+03 -0.18407483830E+03  0.14687797500E+03  0.49785696849E+03  0.40000000000E+03 0. -1.
<mgrwt>
<rscale>  2 0.47569783E+03</rscale>
<asrwt>0</asrwt>
<pdfrwt beam="1">  1       21 0.82419856E-01 0.47569783E+03</pdfrwt>
<pdfrwt beam="2">  1       21 0.67790172E-01 0.47569783E+03</pdfrwt>
<totfact> 0.21911331E+03</totfact>
</mgrwt>
</event>
<event>
 4    1  0.8562541E-003  0.4567720E+03  0.7818608E-02  0.1025722E+00
         21   -1    0    0  503  502  0.00000000000E+00  0.00000000000E+00  0.12788506139E+04  0.12788506139E+04  0.00000000000E+00 0. -1.
         21   -1    0    0  501  503 -0.00000000000E+00 -0.00000000000E+00 -0.17789000950E+03  0.17789000950E+03  0.00000000000E+00 0. -1.
    9000005    1    1    2  501    0  0.16097488722E+03  0.15075709230E+03  0.34079411266E+03  0.56989581716E+03  0.40000000000E+03 0. -1.
   -9000005    1    1    2    0  502 -0.16097488722E+03 -0.15075709230E+03  0.76016649178E+03  0.88684480627E+03  0.40000000000E+03 0. -1.
<mgrwt>
<rscale>  2 0.45677195E+03</rscale>
<asrwt>0</asrwt>
<pdfrwt beam="1">  1       21 0.19674624E+00 0.45677195E+03</pdfrwt>
<pdfrwt beam="2">  1       21 0.27367695E-01 0.45677195E+03</pdfrwt>
<totfact> 0.15060933E+03</totfact>
</mgrwt>
</event>
<event>
 4    1  0.8562541E-003  0.4349444E+03  0.7818608E-02  0.1032309E+00
         21   -1    0    0  501  502  0.00000000000E+00  0.00000000000E+00  0.63808577527E+03  0.63808577527E+03  0.00000000000E+00 0.  1.
         21   -1    0    0  502  503 -0.00000000000E+00 -0.00000000000E+00 -0.30387922396E+03  0.30387922396E+03  0.00000000000E+00 0. -1.
    9000005    1    1    2  501    0 -0.30266744363E+02 -0.16810863750E+03  0.93586068187E+02  0.44489879970E+03  0.40000000000E+03 0. -1.
   -9000005    1    1    2    0  503  0.30266744363E+02  0.16810863750E+03  0.24062048312E+03  0.49706619953E+03  0.40000000000E+03 0.  1.
<mgrwt>
<rscale>  2 0.43494435E+03</rscale>
<asrwt>0</asrwt>
<pdfrwt beam="1">  1       21 0.98167042E-01 0.43494435E+03</pdfrwt>
<pdfrwt beam="2">  1       21 0.46750650E-01 0.43494435E+03</pdfrwt>
<totfact> 0.32904968E+03</totfact>
</mgrwt>
</event>
<event>
 4    1  0.8562541E-003  0.4956825E+03  0.7818608E-02  0.1014912E+00
         21   -1    0    0  503  502  0.00000000000E+00  0.00000000000E+00  0.22051715945E+03  0.22051715945E+03  0.00000000000E+00 0. -1.
         21   -1    0    0  501  503 -0.00000000000E+00 -0.00000000000E+00 -0.12325002096E+04  0.12325002096E+04  0.00000000000E+00 0.  1.
    9000005    1    1    2  501    0 -0.29262783815E+03 -0.83689695450E+01 -0.73106939978E+03  0.88326867860E+03  0.40000000000E+03 0. -1.
   -9000005    1    1    2    0  502  0.29262783815E+03  0.83689695450E+01 -0.28091365037E+03  0.56974869045E+03  0.40000000000E+03 0. -1.
<mgrwt>
<rscale>  2 0.49568245E+03</rscale>
<asrwt>0</asrwt>
<pdfrwt beam="1">  1       21 0.33925716E-01 0.49568245E+03</pdfrwt>
<pdfrwt beam="2">  1       21 0.18961542E+00 0.49568245E+03</pdfrwt>
<totfact> 0.10796928E+03</totfact>
</mgrwt>
</event>
<event>
 4    1  0.8562541E-003  0.4013647E+03  0.7818608E-02  0.1043308E+00
         21   -1    0    0  503  502  0.00000000000E+00  0.00000000000E+00  0.91851653018E+03  0.91851653018E+03  0.00000000000E+00 0. -1.
         21   -1    0    0  501  503 -0.00000000000E+00 -0.00000000000E+00 -0.17596129920E+03  0.17596129920E+03  0.00000000000E+00 0. -1.
    9000005    1    1    2  501    0  0.51000583107E+01  0.32673864948E+02  0.33994702647E+03  0.52598248341E+03  0.40000000000E+03 0. -1.
   -9000005    1    1    2    0  502 -0.51000583107E+01 -0.32673864948E+02  0.40260820451E+03  0.56849534597E+03  0.40000000000E+03 0. -1.
<mgrwt>
<rscale>  2 0.40136466E+03</rscale>
<asrwt>0</asrwt>
<pdfrwt beam="1">  1       21 0.14131023E+00 0.40136466E+03</pdfrwt>
<pdfrwt beam="2">  1       21 0.27070970E-01 0.40136466E+03</pdfrwt>
<totfact> 0.40203748E+03</totfact>
</mgrwt>
</event>
<event>
 4    1  0.8562541E-003  0.4050932E+03  0.7818608E-02  0.1042030E+00
         21   -1    0    0  501  502  0.00000000000E+00  0.00000000000E+00  0.41286380539E+03  0.41286380539E+03  0.00000000000E+00 0.  1.
         21   -1    0    0  502  503 -0.00000000000E+00 -0.00000000000E+00 -0.44187437390E+03  0.44187437390E+03  0.00000000000E+00 0.  1.
    9000005    1    1    2  501    0 -0.64008119529E+02  0.18651047392E+01  0.12097372403E+03  0.42277081248E+03  0.40000000000E+03 0.  1.
   -9000005    1    1    2    0  503  0.64008119529E+02 -0.18651047392E+01 -0.14998429254E+03  0.43196736681E+03  0.40000000000E+03 0.  1.
<mgrwt>
<rscale>  2 0.40509322E+03</rscale>
<asrwt>0</asrwt>
<pdfrwt beam="1">  1       21 0.63517509E-01 0.40509322E+03</pdfrwt>
<pdfrwt beam="2">  1       21 0.67980673E-01 0.40509322E+03</pdfrwt>
<totfact> 0.40307112E+03</totfact>
</mgrwt>
</event>
<event>
 4    1  0.8562541E-003  0.4027933E+03  0.7818608E-02  0.1042817E+00
         21   -1    0    0  501  502  0.00000000000E+00  0.00000000000E+00  0.79592155615E+02  0.79592155615E+02  0.00000000000E+00 0.  1.
         21   -1    0    0  502  503 -0.00000000000E+00 -0.00000000000E+00 -0.26616889635E+04  0.26616889635E+04  0.00000000000E+00 0.  1.
    9000005    1    1    2  501    0  0.20358419389E+02  0.42754939375E+02 -0.62779151982E+03  0.74589854702E+03  0.40000000000E+03 0.  1.
   -9000005    1    1    2    0  503 -0.20358419389E+02 -0.42754939375E+02 -0.19543052880E+04  0.19953825721E+04  0.40000000000E+03 0.  1.
<mgrwt>
<rscale>  2 0.40279331E+03</rscale>
<asrwt>0</asrwt>
<pdfrwt beam="1">  1       21 0.12244949E-01 0.40279331E+03</pdfrwt>
<pdfrwt beam="2">  1       21 0.40949056E+00 0.40279331E+03</pdfrwt>
<totfact> 0.34159165E+02</totfact>
</mgrwt>
</event>
<event>
 4    1  0.8562541E-003  0.4386053E+03  0.7818608E-02  0.1031176E+00
         21   -1    0    0  501  502  0.00000000000E+00  0.00000000000E+00  0.42228700207E+03  0.42228700207E+03  0.00000000000E+00 0. -1.
         21   -1    0    0  502  503 -0.00000000000E+00 -0.00000000000E+00 -0.47770427065E+03  0.47770427065E+03  0.00000000000E+00 0. -1.
    9000005    1    1    2  501    0 -0.66355217640E+02  0.16724719461E+03  0.69189585136E+02  0.44402909556E+03  0.40000000000E+03 0. -1.
   -9000005    1    1    2    0  503  0.66355217640E+02 -0.16724719461E+03 -0.12460685372E+03  0.45596217717E+03  0.40000000000E+03 0. -1.
<mgrwt>
<rscale>  2 0.43860533E+03</rscale>
<asrwt>0</asrwt>
<pdfrwt beam="1">  1       21 0.64967232E-01 0.43860533E+03</pdfrwt>
<pdfrwt beam="2">  1       21 0.73492964E-01 0.43860533E+03</pdfrwt>
<totfact> 0.31772445E+03</totfact>
</mgrwt>
</event>
<event>
 4    1  0.8562541E-003  0.4514731E+03  0.7818608E-02  0.1027284E+00
         21   -1    0    0  501  502  0.00000000000E+00  0.00000000000E+00  0.61075945016E+03  0.61075945016E+03  0.00000000000E+00 0. -1.
         21   -1    0    0  502  503 -0.00000000000E+00 -0.00000000000E+00 -0.34605486729E+03  0.34605486729E+03  0.00000000000E+00 0. -1.
    9000005    1    1    2  501    0 -0.18398837495E+03 -0.99881203342E+02  0.22264208346E+03  0.50338600917E+03  0.40000000000E+03 0. -1.
   -9000005    1    1    2    0  503  0.18398837495E+03  0.99881203342E+02  0.42062499410E+02  0.45342830828E+03  0.40000000000E+03 0. -1.
<mgrwt>
<rscale>  2 0.45147312E+03</rscale>
<asrwt>0</asrwt>
<pdfrwt beam="1">  1       21 0.93962992E-01 0.45147312E+03</pdfrwt>
<pdfrwt beam="2">  1       21 0.53239210E-01 0.45147312E+03</pdfrwt>
<totfact> 0.27562673E+03</totfact>
</mgrwt>
</event>
<event>
 4    1  0.8562541E-003  0.4476244E+03  0.7818608E-02  0.1028433E+00
         21   -1    0    0  501  502  0.00000000000E+00  0.00000000000E+00  0.12552693384E+03  0.12552693384E+03  0.00000000000E+00 0. -1.
         21   -1    0    0  502  503 -0.00000000000E+00 -0.00000000000E+00 -0.15968367617E+04  0.15968367617E+04  0.00000000000E+00 0. -1.
    9000005    1    1    2  501    0 -0.19738485415E+03 -0.37508231061E+02 -0.75268369346E+03  0.87572849128E+03  0.40000000000E+03 0. -1.
   -9000005    1    1    2    0  503  0.19738485415E+03  0.37508231061E+02 -0.71862613436E+03  0.84663520422E+03  0.40000000000E+03 0. -1.
<mgrwt>
<rscale>  2 0.44762445E+03</rscale>
<asrwt>0</asrwt>
<pdfrwt beam="1">  1       21 0.19311838E-01 0.44762445E+03</pdfrwt>
<pdfrwt beam="2">  1       21 0.24566717E+00 0.44762445E+03</pdfrwt>
<totfact> 0.14408210E+03</totfact>
</mgrwt>
</event>
<event>
 4    1  0.8562541E-003  0.4726515E+03  0.7818608E-02  0.1021175E+00
         21   -1    0    0  501  502  0.00000000000E+00  0.00000000000E+00  0.24187520051E+03  0.24187520051E+03  0.00000000000E+00 0. -1.
         21   -1    0    0  502  503 -0.00000000000E+00 -0.00000000000E+00 -0.93487373883E+03  0.93487373883E+03  0.00000000000E+00 0. -1.
    9000005    1    1    2  501    0 -0.23965394107E+03  0.77236299143E+02 -0.28192928796E+03  0.55034859933E+03  0.40000000000E+03 0. -1.
   -9000005    1    1    2    0  503  0.23965394107E+03 -0.77236299143E+02 -0.41106925036E+03  0.62640034001E+03  0.40000000000E+03 0. -1.
<mgrwt>
<rscale>  2 0.47265152E+03</rscale>
<asrwt>0</asrwt>
<pdfrwt beam="1">  1       21 0.37211569E-01 0.47265152E+03</pdfrwt>
<pdfrwt beam="2">  1       21 0.14382673E+00 0.47265152E+03</pdfrwt>
<totfact> 0.19746308E+03</totfact>
</mgrwt>
</event>
<event>
 4    1  0.8562541E-003  0.4895379E+03  0.7818608E-02  0.1016546E+00
         21   -1    0    0  501  502  0.00000000000E+00  0.00000000000E+00  0.37300518064E+03  0.37300518064E+03  0.00000000000E+00 0. -1.
         21   -1    0    0  502  503 -0.00000000000E+00 -0.00000000000E+00 -0.82429114160E+03  0.82429114160E+03  0.00000000000E+00 0. -1.
    9000005    1    1    2  501    0 -0.24519142489E+03  0.13974443545E+03  0.55511410006E+02  0.49267520612E+03  0.40000000000E+03 0. -1.
   -9000005    1    1    2    0  503  0.24519142489E+03 -0.13974443545E+03 -0.50679737096E+03  0.70462111613E+03  0.40000000000E+03 0. -1.
<mgrwt>
<rscale>  2 0.48953789E+03</rscale>
<asrwt>0</asrwt>
<pdfrwt beam="1">  1       21 0.57385413E-01 0.48953789E+03</pdfrwt>
<pdfrwt beam="2">  1       21 0.12681402E+00 0.48953789E+03</pdfrwt>
<totfact> 0.10970644E+03</totfact>
</mgrwt>
</event>
<event>
 4    1  0.8562541E-003  0.4394775E+03  0.7818608E-02  0.1030907E+00
         21   -1    0    0  501  502  0.00000000000E+00  0.00000000000E+00  0.13304459515E+03  0.13304459515E+03  0.00000000000E+00 0. -1.
         21   -1    0    0  502  503 -0.00000000000E+00 -0.00000000000E+00 -0.15181054098E+04  0.15181054098E+04  0.00000000000E+00 0. -1.
    9000005    1    1    2  501    0 -0.15485850268E+03  0.95704260357E+02 -0.51986053072E+03  0.68073154232E+03  0.40000000000E+03 0. -1.
   -9000005    1    1    2    0  503  0.15485850268E+03 -0.95704260357E+02 -0.86520028391E+03  0.97041846261E+03  0.40000000000E+03 0. -1.
<mgrwt>
<rscale>  2 0.43947749E+03</rscale>
<asrwt>0</asrwt>
<pdfrwt beam="1">  1       21 0.20468399E-01 0.43947749E+03</pdfrwt>
<pdfrwt beam="2">  1       21 0.23355468E+00 0.43947749E+03</pdfrwt>
<totfact> 0.15397127E+03</totfact>
</mgrwt>
</event>
<event>
 4    1  0.8562541E-003  0.4042454E+03  0.7818608E-02  0.1042319E+00
         21   -1    0    0  503  502  0.00000000000E+00  0.00000000000E+00  0.60449434485E+03  0.60449434485E+03  0.00000000000E+00 0.  1.
         21   -1    0    0  501  503 -0.00000000000E+00 -0.00000000000E+00 -0.29381350616E+03  0.29381350616E+03  0.00000000000E+00 0.  1.
    9000005    1    1    2  501    0 -0.74499363947E+01 -0.57955778745E+02  0.28365160893E+02  0.40523938135E+03  0.40000000000E+03 0.  1.
   -9000005    1    1    2    0  502  0.74499363947E+01  0.57955778745E+02  0.28231567780E+03  0.49306846966E+03  0.40000000000E+03 0.  1.
<mgrwt>
<rscale>  2 0.40424544E+03</rscale>
<asrwt>0</asrwt>
<pdfrwt beam="1">  1       21 0.92999130E-01 0.40424544E+03</pdfrwt>
<pdfrwt beam="2">  1       21 0.45202078E-01 0.40424544E+03</pdfrwt>
<totfact> 0.40662118E+03</totfact>
</mgrwt>
</event>
<event>
 4    1  0.8562541E-003  0.4840165E+03  0.7818608E-02  0.1018037E+00
         21   -1    0    0  503  502  0.00000000000E+00  0.00000000000E+00  0.12750526091E+04  0.12750526091E+04  0.00000000000E+00 0. -1.
         21   -1    0    0  501  503 -0.00000000000E+00 -0.00000000000E+00 -0.18397184700E+03  0.18397184700E+03  0.00000000000E+00 0. -1.
    9000005    1    1    2  501    0  0.20508382405E+03  0.17947880410E+03  0.57170588406E+03  0.74907919066E+03  0.40000000000E+03 0. -1.
   -9000005    1    1    2    0  502 -0.20508382405E+03 -0.17947880410E+03  0.51937487808E+03  0.70994526549E+03  0.40000000000E+03 0. -1.
<mgrwt>
<rscale>  2 0.48401655E+03</rscale>
<asrwt>0</asrwt>
<pdfrwt beam="1">  1       21 0.19616193E+00 0.48401655E+03</pdfrwt>
<pdfrwt beam="2">  1       21 0.28303362E-01 0.48401655E+03</pdfrwt>
<totfact> 0.14060427E+03</totfact>
</mgrwt>
</event>
<event>
 4    1  0.8562541E-003  0.4300187E+03  0.7818608E-02  0.1033854E+00
         21   -1    0    0  503  502  0.00000000000E+00  0.00000000000E+00  0.85736424291E+03  0.85736424291E+03  0.00000000000E+00 0.  1.
         21   -1    0    0  501  503 -0.00000000000E+00 -0.00000000000E+00 -0.58024176356E+03  0.58024176356E+03  0.00000000000E+00 0.  1.
    9000005    1    1    2  501    0  0.11381524271E+03  0.10937188824E+03 -0.43119762152E+03  0.60897250202E+03  0.40000000000E+03 0.  1.
   -9000005    1    1    2    0  502 -0.11381524271E+03 -0.10937188824E+03  0.70832010087E+03  0.82863350446E+03  0.40000000000E+03 0.  1.
<mgrwt>
<rscale>  2 0.43001874E+03</rscale>
<asrwt>0</asrwt>
<pdfrwt beam="1">  1       21 0.13190219E+00 0.43001874E+03</pdfrwt>
<pdfrwt beam="2">  1       21 0.89267964E-01 0.43001874E+03</pdfrwt>
<totfact> 0.37370916E+02</totfact>
</mgrwt>
</event>
<event>
 4    1  0.8562541E-003  0.4075458E+03  0.7818608E-02  0.1041198E+00
         21   -1    0    0  503  502  0.00000000000E+00  0.00000000000E+00  0.53826761155E+03  0.53826761155E+03  0.00000000000E+00 0.  1.
         21   -1    0    0  501  503 -0.00000000000E+00 -0.00000000000E+00 -0.30862377538E+03  0.30862377538E+03  0.00000000000E+00 0.  1.
    9000005    1    1    2  501    0  0.46314258004E+02  0.62837689638E+02  0.12037765792E+03  0.42495219291E+03  0.40000000000E+03 0.  1.
   -9000005    1    1    2    0  502 -0.46314258004E+02 -0.62837689638E+02  0.10926617825E+03  0.42193919401E+03  0.40000000000E+03 0.  1.
<mgrwt>
<rscale>  2 0.40754581E+03</rscale>
<asrwt>0</asrwt>
<pdfrwt beam="1">  1       21 0.82810402E-01 0.40754581E+03</pdfrwt>
<pdfrwt beam="2">  1       21 0.47480581E-01 0.40754581E+03</pdfrwt>
<totfact> 0.48110198E+03</totfact>
</mgrwt>
</event>
<event>
 4    1  0.8562541E-003  0.4133421E+03  0.7818608E-02  0.1039255E+00
         21   -1    0    0  501  502  0.00000000000E+00  0.00000000000E+00  0.33009693993E+03  0.33009693993E+03  0.00000000000E+00 0.  1.
         21   -1    0    0  502  503 -0.00000000000E+00 -0.00000000000E+00 -0.93323571540E+03  0.93323571540E+03  0.00000000000E+00 0.  1.
    9000005    1    1    2  501    0 -0.27914598986E+02  0.10036171235E+03  0.11998996889E+03  0.43040596043E+03  0.40000000000E+03 0.  1.
   -9000005    1    1    2    0  503  0.27914598986E+02 -0.10036171235E+03 -0.72312874436E+03  0.83292669489E+03  0.40000000000E+03 0.  1.
<mgrwt>
<rscale>  2 0.41334211E+03</rscale>
<asrwt>0</asrwt>
<pdfrwt beam="1">  1       21 0.50784144E-01 0.41334211E+03</pdfrwt>
<pdfrwt beam="2">  1       21 0.14357473E+00 0.41334211E+03</pdfrwt>
<totfact> 0.10635708E+03</totfact>
</mgrwt>
</event>
<event>
 4    1  0.8562541E-003  0.4069023E+03  0.7818608E-02  0.1041416E+00
         21   -1    0    0  501  502  0.00000000000E+00  0.00000000000E+00  0.10684967272E+03  0.10684967272E+03  0.00000000000E+00 0.  1.
         21   -1    0    0  502  503 -0.00000000000E+00 -0.00000000000E+00 -0.15572945915E+04  0.15572945915E+04  0.00000000000E+00 0.  1.
    9000005    1    1    2  501    0  0.23112396157E+02 -0.70959812066E+02 -0.66656464228E+03  0.78094679724E+03  0.40000000000E+03 0. -1.
   -9000005    1    1    2    0  503 -0.23112396157E+02  0.70959812066E+02 -0.78388027651E+03  0.88319746698E+03  0.40000000000E+03 0. -1.
<mgrwt>
<rscale>  2 0.40690230E+03</rscale>
<asrwt>0</asrwt>
<pdfrwt beam="1">  1       21 0.16438411E-01 0.40690230E+03</pdfrwt>
<pdfrwt beam="2">  1       21 0.23958378E+00 0.40690230E+03</pdfrwt>
<totfact> 0.21695408E+03</totfact>
</mgrwt>
</event>
<event>
 4    1  0.8562541E-003  0.5089539E+03  0.7818608E-02  0.1011468E+00
         21   -1    0    0  503  502  0.00000000000E+00  0.00000000000E+00  0.21368005674E+03  0.21368005674E+03  0.00000000000E+00 0.  1.
         21   -1    0    0  501  503 -0.00000000000E+00 -0.00000000000E+00 -0.12792792639E+04  0.12792792639E+04  0.00000000000E+00 0. -1.
    9000005    1    1    2  501    0 -0.11661702518E+03 -0.29229194932E+03 -0.70366749788E+03  0.86843656174E+03  0.40000000000E+03 0. -1.
   -9000005    1    1    2    0  502  0.11661702518E+03  0.29229194932E+03 -0.36193170931E+03  0.62452275891E+03  0.40000000000E+03 0.  1.
<mgrwt>
<rscale>  2 0.50895394E+03</rscale>
<asrwt>0</asrwt>
<pdfrwt beam="1">  1       21 0.32873854E-01 0.50895394E+03</pdfrwt>
<pdfrwt beam="2">  1       21 0.19681220E+00 0.50895394E+03</pdfrwt>
<totfact> 0.10222260E+03</totfact>
</mgrwt>
</event>
<event>
 4    1  0.8562541E-003  0.4377581E+03  0.7818608E-02  0.1031437E+00
         21   -1    0    0  501  502  0.00000000000E+00  0.00000000000E+00  0.19570380738E+04  0.19570380738E+04  0.00000000000E+00 0.  1.
         21   -1    0    0  502  503 -0.00000000000E+00 -0.00000000000E+00 -0.18366990484E+03  0.18366990484E+03  0.00000000000E+00 0.  1.
    9000005    1    1    2  501    0  0.14776292002E+03  0.98986168114E+02  0.16180363024E+04  0.16762081070E+04  0.40000000000E+03 0.  1.
   -9000005    1    1    2    0  503 -0.14776292002E+03 -0.98986168114E+02  0.15533186656E+03  0.46449987167E+03  0.40000000000E+03 0.  1.
<mgrwt>
<rscale>  2 0.43775809E+03</rscale>
<asrwt>0</asrwt>
<pdfrwt beam="1">  1       21 0.30108277E+00 0.43775809E+03</pdfrwt>
<pdfrwt beam="2">  1       21 0.28256910E-01 0.43775809E+03</pdfrwt>
<totfact> 0.32059558E+02</totfact>
</mgrwt>
</event>
<event>
 4    1  0.8562541E-003  0.4267093E+03  0.7818608E-02  0.1034905E+00
         21   -1    0    0  503  502  0.00000000000E+00  0.00000000000E+00  0.31098678552E+03  0.31098678552E+03  0.00000000000E+00 0.  1.
         21   -1    0    0  501  503 -0.00000000000E+00 -0.00000000000E+00 -0.13192370159E+04  0.13192370159E+04  0.00000000000E+00 0.  1.
    9000005    1    1    2  501    0  0.90341212870E+02 -0.11798015940E+03 -0.11120191084E+04  0.11910782301E+04  0.40000000000E+03 0. -1.
   -9000005    1    1    2    0  502 -0.90341212870E+02  0.11798015940E+03  0.10376887804E+03  0.43914557131E+03  0.40000000000E+03 0. -1.
<mgrwt>
<rscale>  2 0.42670933E+03</rscale>
<asrwt>0</asrwt>
<pdfrwt beam="1">  1       21 0.47844120E-01 0.42670933E+03</pdfrwt>
<pdfrwt beam="2">  1       21 0.20295954E+00 0.42670933E+03</pdfrwt>
<totfact> 0.44579374E+02</totfact>
</mgrwt>
</event>
<event>
 4    1  0.8562541E-003  0.7334967E+03  0.7818608E-02  0.9661603E-01
         21   -1    0    0  503  502  0.00000000000E+00  0.00000000000E+00  0.32893036035E+03  0.32893036035E+03  0.00000000000E+00 0.  1.
         21   -1    0    0  501  503 -0.00000000000E+00 -0.00000000000E+00 -0.20108208114E+04  0.20108208114E+04  0.00000000000E+00 0. -1.
    9000005    1    1    2  501    0 -0.52218960964E+03 -0.32455409830E+03 -0.13462614906E+04  0.15331136136E+04  0.40000000000E+03 0. -1.
   -9000005    1    1    2    0  502  0.52218960964E+03  0.32455409830E+03 -0.33562896048E+03  0.80663755817E+03  0.40000000000E+03 0.  1.
<mgrwt>
<rscale>  2 0.73349666E+03</rscale>
<asrwt>0</asrwt>
<pdfrwt beam="1">  1       21 0.50604670E-01 0.73349666E+03</pdfrwt>
<pdfrwt beam="2">  1       21 0.30935705E+00 0.73349666E+03</pdfrwt>
<totfact> 0.74712987E+01</totfact>
</mgrwt>
</event>
<event>
 4    1  0.8562541E-003  0.4821275E+03  0.7818608E-02  0.1018552E+00
         21   -1    0    0  503  502  0.00000000000E+00  0.00000000000E+00  0.26729717743E+04  0.26729717743E+04  0.00000000000E+00 0.  1.
         21   -1    0    0  501  503 -0.00000000000E+00 -0.00000000000E+00 -0.93736261775E+02  0.93736261775E+02  0.00000000000E+00 0.  1.
    9000005    1    1    2  501    0  0.26542788634E+03 -0.44665370602E+02  0.91773103853E+03  0.10366663963E+04  0.40000000000E+03 0.  1.
   -9000005    1    1    2    0  502 -0.26542788634E+03  0.44665370602E+02  0.16615044740E+04  0.17300416398E+04  0.40000000000E+03 0.  1.
<mgrwt>
<rscale>  2 0.48212753E+03</rscale>
<asrwt>0</asrwt>
<pdfrwt beam="1">  1       21 0.41122637E+00 0.48212753E+03</pdfrwt>
<pdfrwt beam="2">  1       21 0.14420965E-01 0.48212753E+03</pdfrwt>
<totfact> 0.23364704E+02</totfact>
</mgrwt>
</event>
<event>
 4    1  0.8562541E-003  0.4141548E+03  0.7818608E-02  0.1038986E+00
         21   -1    0    0  501  502  0.00000000000E+00  0.00000000000E+00  0.39112256100E+03  0.39112256100E+03  0.00000000000E+00 0.  1.
         21   -1    0    0  502  503 -0.00000000000E+00 -0.00000000000E+00 -0.44277061500E+03  0.44277061500E+03  0.00000000000E+00 0.  1.
    9000005    1    1    2  501    0 -0.97283925720E+02  0.45387853890E+02  0.14915686027E+02  0.41442333088E+03  0.40000000000E+03 0.  1.
   -9000005    1    1    2    0  503  0.97283925720E+02 -0.45387853890E+02 -0.66563740027E+02  0.41946984513E+03  0.40000000000E+03 0.  1.
<mgrwt>
<rscale>  2 0.41415483E+03</rscale>
<asrwt>0</asrwt>
<pdfrwt beam="1">  1       21 0.60172702E-01 0.41415483E+03</pdfrwt>
<pdfrwt beam="2">  1       21 0.68118556E-01 0.41415483E+03</pdfrwt>
<totfact> 0.45040220E+03</totfact>
</mgrwt>
</event>
<event>
 4    1  0.8562541E-003  0.4007556E+03  0.7818608E-02  0.1043518E+00
         21   -1    0    0  501  502  0.00000000000E+00  0.00000000000E+00  0.14904593606E+03  0.14904593606E+03  0.00000000000E+00 0.  1.
         21   -1    0    0  502  503 -0.00000000000E+00 -0.00000000000E+00 -0.11057378106E+04  0.11057378106E+04  0.00000000000E+00 0.  1.
    9000005    1    1    2  501    0  0.10902751086E+00  0.24597600734E+02 -0.37818181587E+03  0.55102317529E+03  0.40000000000E+03 0.  1.
   -9000005    1    1    2    0  503 -0.10902751086E+00 -0.24597600734E+02 -0.57851005868E+03  0.70376057139E+03  0.40000000000E+03 0.  1.
<mgrwt>
<rscale>  2 0.40075560E+03</rscale>
<asrwt>0</asrwt>
<pdfrwt beam="1">  1       21 0.22930143E-01 0.40075560E+03</pdfrwt>
<pdfrwt beam="2">  1       21 0.17011352E+00 0.40075560E+03</pdfrwt>
<totfact> 0.33371328E+03</totfact>
</mgrwt>
</event>
<event>
 4    1  0.8562541E-003  0.5171023E+03  0.7818608E-02  0.1009409E+00
         21   -1    0    0  501  502  0.00000000000E+00  0.00000000000E+00  0.66809024928E+03  0.66809024928E+03  0.00000000000E+00 0. -1.
         21   -1    0    0  502  503 -0.00000000000E+00 -0.00000000000E+00 -0.14764028986E+04  0.14764028986E+04  0.00000000000E+00 0. -1.
    9000005    1    1    2  501    0 -0.20886407282E+03  0.25252844151E+03  0.51128754694E+03  0.72719307638E+03  0.40000000000E+03 0. -1.
   -9000005    1    1    2    0  503  0.20886407282E+03 -0.25252844151E+03 -0.13196001963E+04  0.14173000715E+04  0.40000000000E+03 0. -1.
<mgrwt>
<rscale>  2 0.51710233E+03</rscale>
<asrwt>0</asrwt>
<pdfrwt beam="1">  1       21 0.10278312E+00 0.51710233E+03</pdfrwt>
<pdfrwt beam="2">  1       21 0.22713890E+00 0.51710233E+03</pdfrwt>
<totfact> 0.52475339E+01</totfact>
</mgrwt>
</event>
<event>
 4    1  0.8562541E-003  0.4025395E+03  0.7818608E-02  0.1042904E+00
         21   -1    0    0  503  502  0.00000000000E+00  0.00000000000E+00  0.15221694151E+03  0.15221694151E+03  0.00000000000E+00 0. -1.
         21   -1    0    0  501  503 -0.00000000000E+00 -0.00000000000E+00 -0.10987707160E+04  0.10987707160E+04  0.00000000000E+00 0. -1.
    9000005    1    1    2  501    0 -0.79963039271E+01 -0.44430736704E+02 -0.36284305970E+03  0.54193460603E+03  0.40000000000E+03 0. -1.
   -9000005    1    1    2    0  502  0.79963039271E+01  0.44430736704E+02 -0.58371071479E+03  0.70905305147E+03  0.40000000000E+03 0. -1.
<mgrwt>
<rscale>  2 0.40253948E+03</rscale>
<asrwt>0</asrwt>
<pdfrwt beam="1">  1       21 0.23417991E-01 0.40253948E+03</pdfrwt>
<pdfrwt beam="2">  1       21 0.16904165E+00 0.40253948E+03</pdfrwt>
<totfact> 0.32598264E+03</totfact>
</mgrwt>
</event>
<event>
 4    1  0.8562541E-003  0.4152040E+03  0.7818608E-02  0.1038639E+00
         21   -1    0    0  501  502  0.00000000000E+00  0.00000000000E+00  0.69188537969E+03  0.69188537969E+03  0.00000000000E+00 0.  1.
         21   -1    0    0  502  503 -0.00000000000E+00 -0.00000000000E+00 -0.25320789709E+03  0.25320789709E+03  0.00000000000E+00 0.  1.
    9000005    1    1    2  501    0 -0.93915869989E+02 -0.59784690361E+02  0.15963632609E+03  0.44483497664E+03  0.40000000000E+03 0.  1.
   -9000005    1    1    2    0  503  0.93915869989E+02  0.59784690361E+02  0.27904115651E+03  0.50025830014E+03  0.40000000000E+03 0.  1.
<mgrwt>
<rscale>  2 0.41520405E+03</rscale>
<asrwt>0</asrwt>
<pdfrwt beam="1">  1       21 0.10644390E+00 0.41520405E+03</pdfrwt>
<pdfrwt beam="2">  1       21 0.38955061E-01 0.41520405E+03</pdfrwt>
<totfact> 0.39730778E+03</totfact>
</mgrwt>
</event>
<event>
 4    1  0.8562541E-003  0.4182598E+03  0.7818608E-02  0.1037634E+00
         21   -1    0    0  501  502  0.00000000000E+00  0.00000000000E+00  0.63241809997E+03  0.63241809997E+03  0.00000000000E+00 0.  1.
         21   -1    0    0  502  503 -0.00000000000E+00 -0.00000000000E+00 -0.47651584509E+03  0.47651584509E+03  0.00000000000E+00 0.  1.
    9000005    1    1    2  501    0 -0.11034641028E+03 -0.52582963670E+02  0.43706798698E+03  0.60495431528E+03  0.40000000000E+03 0.  1.
   -9000005    1    1    2    0  503  0.11034641028E+03  0.52582963670E+02 -0.28116573210E+03  0.50397962979E+03  0.40000000000E+03 0.  1.
<mgrwt>
<rscale>  2 0.41825985E+03</rscale>
<asrwt>0</asrwt>
<pdfrwt beam="1">  1       21 0.97295092E-01 0.41825985E+03</pdfrwt>
<pdfrwt beam="2">  1       21 0.73310130E-01 0.41825985E+03</pdfrwt>
<totfact> 0.12683077E+03</totfact>
</mgrwt>
</event>
<event>
 4    1  0.8562541E-003  0.4467719E+03  0.7818608E-02  0.1028689E+00
         21   -1    0    0  503  502  0.00000000000E+00  0.00000000000E+00  0.65738724121E+03  0.65738724121E+03  0.00000000000E+00 0.  1.
         21   -1    0    0  501  503 -0.00000000000E+00 -0.00000000000E+00 -0.31252019994E+03  0.31252019994E+03  0.00000000000E+00 0.  1.
    9000005    1    1    2  501    0 -0.65961289273E+02 -0.18776106362E+03  0.90658696250E+02  0.45587729478E+03  0.40000000000E+03 0.  1.
   -9000005    1    1    2    0  502  0.65961289273E+02  0.18776106362E+03  0.25420834502E+03  0.51403014637E+03  0.40000000000E+03 0.  1.
<mgrwt>
<rscale>  2 0.44677188E+03</rscale>
<asrwt>0</asrwt>
<pdfrwt beam="1">  1       21 0.10113650E+00 0.44677188E+03</pdfrwt>
<pdfrwt beam="2">  1       21 0.48080031E-01 0.44677188E+03</pdfrwt>
<totfact> 0.28727896E+03</totfact>
</mgrwt>
</event>
<event>
 4    1  0.8562541E-003  0.4544728E+03  0.7818608E-02  0.1026397E+00
         21   -1    0    0  503  502  0.00000000000E+00  0.00000000000E+00  0.20218373125E+03  0.20218373125E+03  0.00000000000E+00 0. -1.
         21   -1    0    0  501  503 -0.00000000000E+00 -0.00000000000E+00 -0.11829078634E+04  0.11829078634E+04  0.00000000000E+00 0. -1.
    9000005    1    1    2  501    0  0.92120133861E+01  0.21554743981E+03 -0.74612426591E+03  0.87364007474E+03  0.40000000000E+03 0.  1.
   -9000005    1    1    2    0  502 -0.92120133861E+01 -0.21554743981E+03 -0.23459986628E+03  0.51145151995E+03  0.40000000000E+03 0.  1.
<mgrwt>
<rscale>  2 0.45447284E+03</rscale>
<asrwt>0</asrwt>
<pdfrwt beam="1">  1       21 0.31105189E-01 0.45447284E+03</pdfrwt>
<pdfrwt beam="2">  1       21 0.18198583E+00 0.45447284E+03</pdfrwt>
<totfact> 0.14770680E+03</totfact>
</mgrwt>
</event>
<event>
 4    1  0.8562541E-003  0.4040962E+03  0.7818608E-02  0.1042370E+00
         21   -1    0    0  501  502  0.00000000000E+00  0.00000000000E+00  0.13881157617E+04  0.13881157617E+04  0.00000000000E+00 0. -1.
         21   -1    0    0  502  503 -0.00000000000E+00 -0.00000000000E+00 -0.11800600681E+03  0.11800600681E+03  0.00000000000E+00 0. -1.
    9000005    1    1    2  501    0  0.56725050870E+02 -0.87159152787E+01  0.59294081504E+03  0.71754617184E+03  0.40000000000E+03 0. -1.
   -9000005    1    1    2    0  503 -0.56725050870E+02  0.87159152787E+01  0.67716893985E+03  0.78857559667E+03  0.40000000000E+03 0. -1.
<mgrwt>
<rscale>  2 0.40409615E+03</rscale>
<asrwt>0</asrwt>
<pdfrwt beam="1">  1       21 0.21355626E+00 0.40409615E+03</pdfrwt>
<pdfrwt beam="2">  1       21 0.18154771E-01 0.40409615E+03</pdfrwt>
<totfact> 0.26315858E+03</totfact>
</mgrwt>
</event>
<event>
 4    1  0.8562541E-003  0.4647135E+03  0.7818608E-02  0.1023423E+00
         21   -1    0    0  503  502  0.00000000000E+00  0.00000000000E+00  0.78370894121E+03  0.78370894121E+03  0.00000000000E+00 0. -1.
         21   -1    0    0  501  503 -0.00000000000E+00 -0.00000000000E+00 -0.28334703452E+03  0.28334703452E+03  0.00000000000E+00 0. -1.
    9000005    1    1    2  501    0 -0.22106971932E+03 -0.84183275090E+02  0.33862950485E+03  0.57500311839E+03  0.40000000000E+03 0. -1.
   -9000005    1    1    2    0  502  0.22106971932E+03  0.84183275090E+02  0.16173240185E+03  0.49205285734E+03  0.40000000000E+03 0. -1.
<mgrwt>
<rscale>  2 0.46471351E+03</rscale>
<asrwt>0</asrwt>
<pdfrwt beam="1">  1       21 0.12057060E+00 0.46471351E+03</pdfrwt>
<pdfrwt beam="2">  1       21 0.43591852E-01 0.46471351E+03</pdfrwt>
<totfact> 0.22648329E+03</totfact>
</mgrwt>
</event>
<event>
 4    1  0.8562541E-003  0.5271499E+03  0.7818608E-02  0.1006926E+00
         21   -1    0    0  503  502  0.00000000000E+00  0.00000000000E+00  0.55769886948E+03  0.55769886948E+03  0.00000000000E+00 0. -1.
         21   -1    0    0  501  503 -0.00000000000E+00 -0.00000000000E+00 -0.50171461049E+03  0.50171461049E+03  0.00000000000E+00 0.  1.
    9000005    1    1    2  501    0 -0.16140667492E+03  0.30304280681E+03 -0.15871140281E+02  0.52738880398E+03  0.40000000000E+03 0. -1.
   -9000005    1    1    2    0  502  0.16140667492E+03 -0.30304280681E+03  0.71855399274E+02  0.53202467600E+03  0.40000000000E+03 0.  1.
<mgrwt>
<rscale>  2 0.52714994E+03</rscale>
<asrwt>0</asrwt>
<pdfrwt beam="1">  1       21 0.85799826E-01 0.52714994E+03</pdfrwt>
<pdfrwt beam="2">  1       21 0.77186863E-01 0.52714994E+03</pdfrwt>
<totfact> 0.14594431E+03</totfact>
</mgrwt>
</event>
<event>
 4    1  0.8562541E-003  0.4295918E+03  0.7818608E-02  0.1033989E+00
         21   -1    0    0  503  502  0.00000000000E+00  0.00000000000E+00  0.47824135159E+03  0.47824135159E+03  0.00000000000E+00 0.  1.
         21   -1    0    0  501  503 -0.00000000000E+00 -0.00000000000E+00 -0.41287393724E+03  0.41287393724E+03  0.00000000000E+00 0.  1.
    9000005    1    1    2  501    0  0.12770296554E+02  0.15616018960E+03  0.14658768825E+03  0.45391302651E+03  0.40000000000E+03 0.  1.
   -9000005    1    1    2    0  502 -0.12770296554E+02 -0.15616018960E+03 -0.81220273892E+02  0.43720226232E+03  0.40000000000E+03 0.  1.
<mgrwt>
<rscale>  2 0.42959177E+03</rscale>
<asrwt>0</asrwt>
<pdfrwt beam="1">  1       21 0.73575592E-01 0.42959177E+03</pdfrwt>
<pdfrwt beam="2">  1       21 0.63519067E-01 0.42959177E+03</pdfrwt>
<totfact> 0.33423499E+03</totfact>
</mgrwt>
</event>
<event>
 4    1  0.8562541E-003  0.7836758E+03  0.7818608E-02  0.9583951E-01
         21   -1    0    0  503  502  0.00000000000E+00  0.00000000000E+00  0.85016448774E+03  0.85016448774E+03  0.00000000000E+00 0.  1.
         21   -1    0    0  501  503 -0.00000000000E+00 -0.00000000000E+00 -0.79420646319E+03  0.79420646319E+03  0.00000000000E+00 0. -1.
    9000005    1    1    2  501    0 -0.22632606869E+03  0.63476315692E+03 -0.21926412001E+03  0.81377177948E+03  0.40000000000E+03 0. -1.
   -9000005    1    1    2    0  502  0.22632606869E+03 -0.63476315692E+03  0.27522214457E+03  0.83059917145E+03  0.40000000000E+03 0.  1.
<mgrwt>
<rscale>  2 0.78367580E+03</rscale>
<asrwt>0</asrwt>
<pdfrwt beam="1">  1       21 0.13079454E+00 0.78367580E+03</pdfrwt>
<pdfrwt beam="2">  1       21 0.12218561E+00 0.78367580E+03</pdfrwt>
<totfact> 0.15428768E+02</totfact>
</mgrwt>
</event>
<event>
 4    1  0.8562541E-003  0.4859130E+03  0.7818608E-02  0.1017523E+00
         21   -1    0    0  503  502  0.00000000000E+00  0.00000000000E+00  0.19916268497E+03  0.19916268497E+03  0.00000000000E+00 0. -1.
         21   -1    0    0  501  503 -0.00000000000E+00 -0.00000000000E+00 -0.12480464061E+04  0.12480464061E+04  0.00000000000E+00 0. -1.
    9000005    1    1    2  501    0 -0.10029126282E+03 -0.25700804999E+03 -0.68640470885E+03  0.84098923863E+03  0.40000000000E+03 0. -1.
   -9000005    1    1    2    0  502  0.10029126282E+03  0.25700804999E+03 -0.36247901229E+03  0.60621985245E+03  0.40000000000E+03 0. -1.
<mgrwt>
<rscale>  2 0.48591303E+03</rscale>
<asrwt>0</asrwt>
<pdfrwt beam="1">  1       21 0.30640414E-01 0.48591303E+03</pdfrwt>
<pdfrwt beam="2">  1       21 0.19200714E+00 0.48591303E+03</pdfrwt>
<totfact> 0.12807715E+03</totfact>
</mgrwt>
</event>
<event>
 4    1  0.8562541E-003  0.7224572E+03  0.7818608E-02  0.9679580E-01
         21   -1    0    0  501  502  0.00000000000E+00  0.00000000000E+00  0.45274354612E+03  0.45274354612E+03  0.00000000000E+00 0.  1.
         21   -1    0    0  502  503 -0.00000000000E+00 -0.00000000000E+00 -0.11630228915E+04  0.11630228915E+04  0.00000000000E+00 0. -1.
    9000005    1    1    2  501    0  0.33207553434E+03 -0.50166742473E+03 -0.43070547428E+03  0.84110140359E+03  0.40000000000E+03 0.  1.
   -9000005    1    1    2    0  503 -0.33207553434E+03  0.50166742473E+03 -0.27957387109E+03  0.77466503403E+03  0.40000000000E+03 0. -1.
<mgrwt>
<rscale>  2 0.72245717E+03</rscale>
<asrwt>0</asrwt>
<pdfrwt beam="1">  1       21 0.69652855E-01 0.72245717E+03</pdfrwt>
<pdfrwt beam="2">  1       21 0.17892659E+00 0.72245717E+03</pdfrwt>
<totfact> 0.25508557E+02</totfact>
</mgrwt>
</event>
<event>
 4    1  0.8562541E-003  0.4487222E+03  0.7818608E-02  0.1028104E+00
         21   -1    0    0  501  502  0.00000000000E+00  0.00000000000E+00  0.28555722574E+03  0.28555722574E+03  0.00000000000E+00 0.  1.
         21   -1    0    0  502  503 -0.00000000000E+00 -0.00000000000E+00 -0.73713884467E+03  0.73713884467E+03  0.00000000000E+00 0.  1.
    9000005    1    1    2  501    0  0.19908132934E+03 -0.41451452370E+02 -0.11921541694E+03  0.46428861092E+03  0.40000000000E+03 0.  1.
   -9000005    1    1    2    0  503 -0.19908132934E+03  0.41451452370E+02 -0.33236620199E+03  0.55840745949E+03  0.40000000000E+03 0.  1.
<mgrwt>
<rscale>  2 0.44872218E+03</rscale>
<asrwt>0</asrwt>
<pdfrwt beam="1">  1       21 0.43931882E-01 0.44872218E+03</pdfrwt>
<pdfrwt beam="2">  1       21 0.11340597E+00 0.44872218E+03</pdfrwt>
<totfact> 0.26153665E+03</totfact>
</mgrwt>
</event>
<event>
 4    1  0.8562541E-003  0.4068110E+03  0.7818608E-02  0.1041446E+00
         21   -1    0    0  501  502  0.00000000000E+00  0.00000000000E+00  0.12032953828E+03  0.12032953828E+03  0.00000000000E+00 0.  1.
         21   -1    0    0  502  503 -0.00000000000E+00 -0.00000000000E+00 -0.17976892889E+04  0.17976892889E+04  0.00000000000E+00 0.  1.
    9000005    1    1    2  501    0  0.54373426892E+02 -0.50385903890E+02 -0.37384747805E+03  0.55250081059E+03  0.40000000000E+03 0.  1.
   -9000005    1    1    2    0  503 -0.54373426892E+02  0.50385903890E+02 -0.13035122726E+04  0.13655180166E+04  0.40000000000E+03 0.  1.
<mgrwt>
<rscale>  2 0.40681102E+03</rscale>
<asrwt>0</asrwt>
<pdfrwt beam="1">  1       21 0.18512237E-01 0.40681102E+03</pdfrwt>
<pdfrwt beam="2">  1       21 0.27656758E+00 0.40681102E+03</pdfrwt>
<totfact> 0.10347393E+03</totfact>
</mgrwt>
</event>
<event>
 4    1  0.8562541E-003  0.7028067E+03  0.7818608E-02  0.9712444E-01
         21   -1    0    0  503  502  0.00000000000E+00  0.00000000000E+00  0.36580731427E+03  0.36580731427E+03  0.00000000000E+00 0.  1.
         21   -1    0    0  501  503 -0.00000000000E+00 -0.00000000000E+00 -0.22403591724E+04  0.22403591724E+04  0.00000000000E+00 0.  1.
    9000005    1    1    2  501    0 -0.10789760393E+03 -0.56771061904E+03 -0.17586311642E+04  0.18938639897E+04  0.40000000000E+03 0.  1.
   -9000005    1    1    2    0  502  0.10789760393E+03  0.56771061904E+03 -0.11592069397E+03  0.71230249697E+03  0.40000000000E+03 0.  1.
<mgrwt>
<rscale>  2 0.70280669E+03</rscale>
<asrwt>0</asrwt>
<pdfrwt beam="1">  1       21 0.56278049E-01 0.70280669E+03</pdfrwt>
<pdfrwt beam="2">  1       21 0.34467064E+00 0.70280669E+03</pdfrwt>
<totfact> 0.36364671E+01</totfact>
</mgrwt>
</event>
<event>
 4    1  0.8562541E-003  0.4026511E+03  0.7818608E-02  0.1042866E+00
         21   -1    0    0  501  502  0.00000000000E+00  0.00000000000E+00  0.83750287105E+03  0.83750287105E+03  0.00000000000E+00 0. -1.
         21   -1    0    0  502  503 -0.00000000000E+00 -0.00000000000E+00 -0.23926591947E+03  0.23926591947E+03  0.00000000000E+00 0. -1.
    9000005    1    1    2  501    0 -0.45456458543E+02 -0.78521202445E+01  0.53436311329E+03  0.66908286652E+03  0.40000000000E+03 0. -1.
   -9000005    1    1    2    0  503  0.45456458543E+02  0.78521202445E+01  0.63873838284E+02  0.40768592401E+03  0.40000000000E+03 0. -1.
<mgrwt>
<rscale>  2 0.40265115E+03</rscale>
<asrwt>0</asrwt>
<pdfrwt beam="1">  1       21 0.12884659E+00 0.40265115E+03</pdfrwt>
<pdfrwt beam="2">  1       21 0.36810142E-01 0.40265115E+03</pdfrwt>
<totfact> 0.27715837E+03</totfact>
</mgrwt>
</event>
<event>
 4    1  0.8562541E-003  0.4883229E+03  0.7818608E-02  0.1016873E+00
         21   -1    0    0  503  502  0.00000000000E+00  0.00000000000E+00  0.30323832144E+03  0.30323832144E+03  0.00000000000E+00 0. -1.
         21   -1    0    0  501  503 -0.00000000000E+00 -0.00000000000E+00 -0.79113861034E+03  0.79113861034E+03  0.00000000000E+00 0.  1.
    9000005    1    1    2  501    0  0.21659183594E+03 -0.17761533496E+03 -0.28640714950E+03  0.56611684827E+03  0.40000000000E+03 0.  1.
   -9000005    1    1    2    0  502 -0.21659183594E+03  0.17761533496E+03 -0.20149313941E+03  0.52826008352E+03  0.40000000000E+03 0. -1.
<mgrwt>
<rscale>  2 0.48832288E+03</rscale>
<asrwt>0</asrwt>
<pdfrwt beam="1">  1       21 0.46652050E-01 0.48832288E+03</pdfrwt>
<pdfrwt beam="2">  1       21 0.12171363E+00 0.48832288E+03</pdfrwt>
<totfact> 0.19011600E+03</totfact>
</mgrwt>
</event>
<event>
 4    1  0.8562541E-003  0.4714132E+03  0.7818608E-02  0.1021522E+00
         21   -1    0    0  501  502  0.00000000000E+00  0.00000000000E+00  0.10750872525E+04  0.10750872525E+04  0.00000000000E+00 0.  1.
         21   -1    0    0  502  503 -0.00000000000E+00 -0.00000000000E+00 -0.27541954092E+03  0.27541954092E+03  0.00000000000E+00 0. -1.
    9000005    1    1    2  501    0  0.24361874069E+03  0.53668125219E+02  0.73710613871E+03  0.87496046665E+03  0.40000000000E+03 0.  1.
   -9000005    1    1    2    0  503 -0.24361874069E+03 -0.53668125219E+02  0.62561572845E+02  0.47554632674E+03  0.40000000000E+03 0. -1.
<mgrwt>
<rscale>  2 0.47141315E+03</rscale>
<asrwt>0</asrwt>
<pdfrwt beam="1">  1       21 0.16539804E+00 0.47141315E+03</pdfrwt>
<pdfrwt beam="2">  1       21 0.42372237E-01 0.47141315E+03</pdfrwt>
<totfact> 0.10292313E+03</totfact>
</mgrwt>
</event>
<event>
 4    1  0.8562541E-003  0.5932351E+03  0.7818608E-02  0.9919541E-01
         21   -1    0    0  501  502  0.00000000000E+00  0.00000000000E+00  0.11532425458E+04  0.11532425458E+04  0.00000000000E+00 0.  1.
         21   -1    0    0  502  503 -0.00000000000E+00 -0.00000000000E+00 -0.49091359310E+03  0.49091359310E+03  0.00000000000E+00 0.  1.
    9000005    1    1    2  501    0 -0.43713199876E+03  0.29042546449E+02  0.83684325379E+03  0.10257848143E+04  0.40000000000E+03 0.  1.
   -9000005    1    1    2    0  503  0.43713199876E+03 -0.29042546449E+02 -0.17451430106E+03  0.61837132463E+03  0.40000000000E+03 0.  1.
<mgrwt>
<rscale>  2 0.59323507E+03</rscale>
<asrwt>0</asrwt>
<pdfrwt beam="1">  1       21 0.17742193E+00 0.59323507E+03</pdfrwt>
<pdfrwt beam="2">  1       21 0.75525169E-01 0.59323507E+03</pdfrwt>
<totfact> 0.22711408E+02</totfact>
</mgrwt>
</event>
<event>
 4    1  0.8562541E-003  0.4094735E+03  0.7818608E-02  0.1040548E+00
         21   -1    0    0  501  502  0.00000000000E+00  0.00000000000E+00  0.26868200349E+04  0.26868200349E+04  0.00000000000E+00 0.  1.
         21   -1    0    0  502  503 -0.00000000000E+00 -0.00000000000E+00 -0.71767799702E+02  0.71767799702E+02  0.00000000000E+00 0.  1.
    9000005    1    1    2  501    0 -0.87413592017E+02 -0.52348168840E+01  0.18057403702E+04  0.18515849492E+04  0.40000000000E+03 0. -1.
   -9000005    1    1    2    0  503  0.87413592017E+02  0.52348168840E+01  0.80931186498E+03  0.90700288543E+03  0.40000000000E+03 0. -1.
<mgrwt>
<rscale>  2 0.40947349E+03</rscale>
<asrwt>0</asrwt>
<pdfrwt beam="1">  1       21 0.41335685E+00 0.40947349E+03</pdfrwt>
<pdfrwt beam="2">  1       21 0.11041202E-01 0.40947349E+03</pdfrwt>
<totfact> 0.38710361E+02</totfact>
</mgrwt>
</event>
<event>
 4    1  0.8562541E-003  0.6012097E+03  0.7818608E-02  0.9902899E-01
         21   -1    0    0  501  502  0.00000000000E+00  0.00000000000E+00  0.16424586706E+03  0.16424586706E+03  0.00000000000E+00 0.  1.
         21   -1    0    0  502  503 -0.00000000000E+00 -0.00000000000E+00 -0.24991751460E+04  0.24991751460E+04  0.00000000000E+00 0.  1.
    9000005    1    1    2  501    0 -0.43250563058E+03 -0.11996675610E+03 -0.70723171162E+03  0.92824018280E+03  0.40000000000E+03 0.  1.
   -9000005    1    1    2    0  503  0.43250563058E+03  0.11996675610E+03 -0.16276975673E+04  0.17351808302E+04  0.40000000000E+03 0.  1.
<mgrwt>
<rscale>  2 0.60120973E+03</rscale>
<asrwt>0</asrwt>
<pdfrwt beam="1">  1       21 0.25268597E-01 0.60120973E+03</pdfrwt>
<pdfrwt beam="2">  1       21 0.38448846E+00 0.60120973E+03</pdfrwt>
<totfact> 0.11180554E+02</totfact>
</mgrwt>
</event>
<event>
 4    1  0.8562541E-003  0.4088230E+03  0.7818608E-02  0.1040767E+00
         21   -1    0    0  503  502  0.00000000000E+00  0.00000000000E+00  0.32674657234E+03  0.32674657234E+03  0.00000000000E+00 0. -1.
         21   -1    0    0  501  503 -0.00000000000E+00 -0.00000000000E+00 -0.51163300671E+03  0.51163300671E+03  0.00000000000E+00 0. -1.
    9000005    1    1    2  501    0  0.54796047237E+02 -0.64293266330E+02 -0.86114868919E+02  0.41779420955E+03  0.40000000000E+03 0. -1.
   -9000005    1    1    2    0  502 -0.54796047237E+02  0.64293266330E+02 -0.98771565449E+02  0.42058536949E+03  0.40000000000E+03 0. -1.
<mgrwt>
<rscale>  2 0.40882298E+03</rscale>
<asrwt>0</asrwt>
<pdfrwt beam="1">  1       21 0.50268704E-01 0.40882298E+03</pdfrwt>
<pdfrwt beam="2">  1       21 0.78712770E-01 0.40882298E+03</pdfrwt>
<totfact> 0.47917847E+03</totfact>
</mgrwt>
</event>
<event>
 4    1  0.8562541E-003  0.4296267E+03  0.7818608E-02  0.1033978E+00
         21   -1    0    0  501  502  0.00000000000E+00  0.00000000000E+00  0.44764055818E+03  0.44764055818E+03  0.00000000000E+00 0. -1.
         21   -1    0    0  502  503 -0.00000000000E+00 -0.00000000000E+00 -0.42203372662E+03  0.42203372662E+03  0.00000000000E+00 0. -1.
    9000005    1    1    2  501    0  0.14825431287E+03  0.50988073003E+02  0.78712855154E+02  0.43677779069E+03  0.40000000000E+03 0. -1.
   -9000005    1    1    2    0  503 -0.14825431287E+03 -0.50988073003E+02 -0.53106023593E+02  0.43289649411E+03  0.40000000000E+03 0. -1.
<mgrwt>
<rscale>  2 0.42962673E+03</rscale>
<asrwt>0</asrwt>
<pdfrwt beam="1">  1       21 0.68867778E-01 0.42962673E+03</pdfrwt>
<pdfrwt beam="2">  1       21 0.64928266E-01 0.42962673E+03</pdfrwt>
<totfact> 0.36960511E+03</totfact>
</mgrwt>
</event>
<event>
 4    1  0.8562541E-003  0.5358750E+03  0.7818608E-02  0.1004817E+00
         21   -1    0    0  503  502  0.00000000000E+00  0.00000000000E+00  0.26197535374E+03  0.26197535374E+03  0.00000000000E+00 0.  1.
         21   -1    0    0  501  503 -0.00000000000E+00 -0.00000000000E+00 -0.11327549167E+04  0.11327549167E+04  0.00000000000E+00 0.  1.
    9000005    1    1    2  501    0 -0.51635765822E+02 -0.35283959673E+03 -0.56076535226E+03  0.77564154970E+03  0.40000000000E+03 0.  1.
   -9000005    1    1    2    0  502  0.51635765822E+02  0.35283959673E+03 -0.31001421075E+03  0.61908872078E+03  0.40000000000E+03 0.  1.
<mgrwt>
<rscale>  2 0.53587502E+03</rscale>
<asrwt>0</asrwt>
<pdfrwt beam="1">  1       21 0.40303901E-01 0.53587502E+03</pdfrwt>
<pdfrwt beam="2">  1       21 0.17426999E+00 0.53587502E+03</pdfrwt>
<totfact> 0.95905806E+02</totfact>
</mgrwt>
</event>
<event>
 4    1  0.8562541E-003  0.4423840E+03  0.7818608E-02  0.1030018E+00
         21   -1    0    0  501  502  0.00000000000E+00  0.00000000000E+00  0.61798564148E+03  0.61798564148E+03  0.00000000000E+00 0.  1.
         21   -1    0    0  502  503 -0.00000000000E+00 -0.00000000000E+00 -0.31784554162E+03  0.31784554162E+03  0.00000000000E+00 0.  1.
    9000005    1    1    2  501    0  0.16253312207E+03  0.96367014032E+02  0.17840654892E+03  0.47700368328E+03  0.40000000000E+03 0. -1.
   -9000005    1    1    2    0  503 -0.16253312207E+03 -0.96367014032E+02  0.12173355094E+03  0.45882749982E+03  0.40000000000E+03 0. -1.
<mgrwt>
<rscale>  2 0.44238402E+03</rscale>
<asrwt>0</asrwt>
<pdfrwt beam="1">  1       21 0.95074714E-01 0.44238402E+03</pdfrwt>
<pdfrwt beam="2">  1       21 0.48899314E-01 0.44238402E+03</pdfrwt>
<totfact> 0.32232881E+03</totfact>
</mgrwt>
</event>
<event>
 4    1  0.8562541E-003  0.4174347E+03  0.7818608E-02  0.1037904E+00
         21   -1    0    0  503  502  0.00000000000E+00  0.00000000000E+00  0.12562597378E+04  0.12562597378E+04  0.00000000000E+00 0. -1.
         21   -1    0    0  501  503 -0.00000000000E+00 -0.00000000000E+00 -0.13875727925E+03  0.13875727925E+03  0.00000000000E+00 0.  1.
    9000005    1    1    2  501    0  0.10753410670E+03  0.51847593285E+02  0.54544618509E+03  0.68685027325E+03  0.40000000000E+03 0. -1.
   -9000005    1    1    2    0  502 -0.10753410670E+03 -0.51847593285E+02  0.57205627347E+03  0.70816674382E+03  0.40000000000E+03 0.  1.
<mgrwt>
<rscale>  2 0.41743473E+03</rscale>
<asrwt>0</asrwt>
<pdfrwt beam="1">  1       21 0.19327072E+00 0.41743473E+03</pdfrwt>
<pdfrwt beam="2">  1       21 0.21347275E-01 0.41743473E+03</pdfrwt>
<totfact> 0.26174966E+03</totfact>
</mgrwt>
</event>
<event>
 4    1  0.8562541E-003  0.6463858E+03  0.7818608E-02  0.9813585E-01
         21   -1    0    0  501  502  0.00000000000E+00  0.00000000000E+00  0.80511191262E+03  0.80511191262E+03  0.00000000000E+00 0.  1.
         21   -1    0    0  502  503 -0.00000000000E+00 -0.00000000000E+00 -0.68990509361E+03  0.68990509361E+03  0.00000000000E+00 0. -1.
    9000005    1    1    2  501    0  0.42382135581E+03  0.27962478248E+03  0.42970347727E+03  0.77618273557E+03  0.40000000000E+03 0.  1.
   -9000005    1    1    2    0  503 -0.42382135581E+03 -0.27962478248E+03 -0.31449665826E+03  0.71883427066E+03  0.40000000000E+03 0. -1.
<mgrwt>
<rscale>  2 0.64638577E+03</rscale>
<asrwt>0</asrwt>
<pdfrwt beam="1">  1       21 0.12386337E+00 0.64638577E+03</pdfrwt>
<pdfrwt beam="2">  1       21 0.10613924E+00 0.64638577E+03</pdfrwt>
<totfact> 0.26511432E+02</totfact>
</mgrwt>
</event>
<event>
 4    1  0.8562541E-003  0.5189224E+03  0.7818608E-02  0.1008955E+00
         21   -1    0    0  503  502  0.00000000000E+00  0.00000000000E+00  0.93856372406E+03  0.93856372406E+03  0.00000000000E+00 0. -1.
         21   -1    0    0  501  503 -0.00000000000E+00 -0.00000000000E+00 -0.28744002951E+03  0.28744002951E+03  0.00000000000E+00 0. -1.
    9000005    1    1    2  501    0 -0.10990748778E+03 -0.31177037800E+03  0.35196146379E+03  0.62702256456E+03  0.40000000000E+03 0. -1.
   -9000005    1    1    2    0  502  0.10990748778E+03  0.31177037800E+03  0.29916223076E+03  0.59898118901E+03  0.40000000000E+03 0. -1.
<mgrwt>
<rscale>  2 0.51892237E+03</rscale>
<asrwt>0</asrwt>
<pdfrwt beam="1">  1       21 0.14439442E+00 0.51892237E+03</pdfrwt>
<pdfrwt beam="2">  1       21 0.44221544E-01 0.51892237E+03</pdfrwt>
<totfact> 0.13444026E+03</totfact>
</mgrwt>
</event>
<event>
 4    1  0.8562541E-003  0.4412539E+03  0.7818608E-02  0.1030363E+00
         21   -1    0    0  503  502  0.00000000000E+00  0.00000000000E+00  0.10754924994E+03  0.10754924994E+03  0.00000000000E+00 0.  1.
         21   -1    0    0  501  503 -0.00000000000E+00 -0.00000000000E+00 -0.18567976742E+04  0.18567976742E+04  0.00000000000E+00 0. -1.
    9000005    1    1    2  501    0 -0.71924899095E+02  0.17184832601E+03 -0.71933316765E+03  0.84388698553E+03  0.40000000000E+03 0.  1.
   -9000005    1    1    2    0  502  0.71924899095E+02 -0.17184832601E+03 -0.10299152566E+04  0.11204599387E+04  0.40000000000E+03 0. -1.
<mgrwt>
<rscale>  2 0.44125394E+03</rscale>
<asrwt>0</asrwt>
<pdfrwt beam="1">  1       21 0.16546038E-01 0.44125394E+03</pdfrwt>
<pdfrwt beam="2">  1       21 0.28566119E+00 0.44125394E+03</pdfrwt>
<totfact> 0.11053689E+03</totfact>
</mgrwt>
</event>
<event>
 4    1  0.8562541E-003  0.4576513E+03  0.7818608E-02  0.1025465E+00
         21   -1    0    0  501  502  0.00000000000E+00  0.00000000000E+00  0.70277281128E+03  0.70277281128E+03  0.00000000000E+00 0.  1.
         21   -1    0    0  502  503 -0.00000000000E+00 -0.00000000000E+00 -0.37859581071E+03  0.37859581071E+03  0.00000000000E+00 0. -1.
    9000005    1    1    2  501    0 -0.14863110676E+03  0.16538906806E+03  0.41151428526E+03  0.61545816812E+03  0.40000000000E+03 0.  1.
   -9000005    1    1    2    0  503  0.14863110676E+03 -0.16538906806E+03 -0.87337284683E+02  0.46591045387E+03  0.40000000000E+03 0. -1.
<mgrwt>
<rscale>  2 0.45765134E+03</rscale>
<asrwt>0</asrwt>
<pdfrwt beam="1">  1       21 0.10811889E+00 0.45765134E+03</pdfrwt>
<pdfrwt beam="2">  1       21 0.58245509E-01 0.45765134E+03</pdfrwt>
<totfact> 0.16085568E+03</totfact>
</mgrwt>
</event>
<event>
 4    1  0.8562541E-003  0.4116288E+03  0.7818608E-02  0.1039826E+00
         21   -1    0    0  501  502  0.00000000000E+00  0.00000000000E+00  0.36450477539E+04  0.36450477539E+04  0.00000000000E+00 0. -1.
         21   -1    0    0  502  503 -0.00000000000E+00 -0.00000000000E+00 -0.46621221520E+02  0.46621221520E+02  0.00000000000E+00 0. -1.
    9000005    1    1    2  501    0 -0.91533143469E+02 -0.32557436115E+02  0.18991635915E+04  0.19432603145E+04  0.40000000000E+03 0. -1.
   -9000005    1    1    2    0  503  0.91533143469E+02  0.32557436115E+02  0.16992629409E+04  0.17484086609E+04  0.40000000000E+03 0. -1.
<mgrwt>
<rscale>  2 0.41162884E+03</rscale>
<asrwt>0</asrwt>
<pdfrwt beam="1">  1       21 0.56077635E+00 0.41162884E+03</pdfrwt>
<pdfrwt beam="2">  1       21 0.71724985E-02 0.41162884E+03</pdfrwt>
<totfact> 0.76664453E+01</totfact>
</mgrwt>
</event>
<event>
 4    1  0.8562541E-003  0.4538708E+03  0.7818608E-02  0.1026574E+00
         21   -1    0    0  503  502  0.00000000000E+00  0.00000000000E+00  0.18554851379E+03  0.18554851379E+03  0.00000000000E+00 0. -1.
         21   -1    0    0  501  503 -0.00000000000E+00 -0.00000000000E+00 -0.11731279986E+04  0.11731279986E+04  0.00000000000E+00 0.  1.
    9000005    1    1    2  501    0 -0.20903932365E+03 -0.47971390924E+02 -0.65110994456E+03  0.79368939333E+03  0.40000000000E+03 0. -1.
   -9000005    1    1    2    0  502  0.20903932365E+03  0.47971390924E+02 -0.33646954023E+03  0.56498711904E+03  0.40000000000E+03 0. -1.
<mgrwt>
<rscale>  2 0.45387079E+03</rscale>
<asrwt>0</asrwt>
<pdfrwt beam="1">  1       21 0.28545925E-01 0.45387079E+03</pdfrwt>
<pdfrwt beam="2">  1       21 0.18048123E+00 0.45387079E+03</pdfrwt>
<totfact> 0.17952742E+03</totfact>
</mgrwt>
</event>
<event>
 4    1  0.8562541E-003  0.4414349E+03  0.7818608E-02  0.1030307E+00
         21   -1    0    0  503  502  0.00000000000E+00  0.00000000000E+00  0.15891467888E+03  0.15891467888E+03  0.00000000000E+00 0.  1.
         21   -1    0    0  501  503 -0.00000000000E+00 -0.00000000000E+00 -0.13083658835E+04  0.13083658835E+04  0.00000000000E+00 0.  1.
    9000005    1    1    2  501    0  0.17675142728E+03 -0.60197050425E+02 -0.75855074211E+03  0.87764684257E+03  0.40000000000E+03 0.  1.
   -9000005    1    1    2    0  502 -0.17675142728E+03  0.60197050425E+02 -0.39090046248E+03  0.58963371977E+03  0.40000000000E+03 0.  1.
<mgrwt>
<rscale>  2 0.44143488E+03</rscale>
<asrwt>0</asrwt>
<pdfrwt beam="1">  1       21 0.24448413E-01 0.44143488E+03</pdfrwt>
<pdfrwt beam="2">  1       21 0.20128705E+00 0.44143488E+03</pdfrwt>
<totfact> 0.17622309E+03</totfact>
</mgrwt>
</event>
<event>
 4    1  0.8562541E-003  0.4597120E+03  0.7818608E-02  0.1024865E+00
         21   -1    0    0  503  502  0.00000000000E+00  0.00000000000E+00  0.40143423156E+03  0.40143423156E+03  0.00000000000E+00 0.  1.
         21   -1    0    0  501  503 -0.00000000000E+00 -0.00000000000E+00 -0.64550972426E+03  0.64550972426E+03  0.00000000000E+00 0.  1.
    9000005    1    1    2  501    0 -0.22267938884E+03 -0.41821681467E+02 -0.34685206629E+03  0.57588325131E+03  0.40000000000E+03 0.  1.
   -9000005    1    1    2    0  502  0.22267938884E+03  0.41821681467E+02  0.10277657359E+03  0.47106070451E+03  0.40000000000E+03 0.  1.
<mgrwt>
<rscale>  2 0.45971204E+03</rscale>
<asrwt>0</asrwt>
<pdfrwt beam="1">  1       21 0.61759112E-01 0.45971204E+03</pdfrwt>
<pdfrwt beam="2">  1       21 0.99309189E-01 0.45971204E+03</pdfrwt>
<totfact> 0.17415110E+03</totfact>
</mgrwt>
</event>
<event>
 4    1  0.8562541E-003  0.5114261E+03  0.7818608E-02  0.1010839E+00
         21   -1    0    0  503  502  0.00000000000E+00  0.00000000000E+00  0.84383648611E+02  0.84383648611E+02  0.00000000000E+00 0.  1.
         21   -1    0    0  501  503 -0.00000000000E+00 -0.00000000000E+00 -0.31109792911E+04  0.31109792911E+04  0.00000000000E+00 0. -1.
    9000005    1    1    2  501    0 -0.38036298788E+02  0.31640146560E+03 -0.16098701172E+04  0.16891531729E+04  0.40000000000E+03 0. -1.
   -9000005    1    1    2    0  502  0.38036298788E+02 -0.31640146560E+03 -0.14167255253E+04  0.15062097668E+04  0.40000000000E+03 0.  1.
<mgrwt>
<rscale>  2 0.51142609E+03</rscale>
<asrwt>0</asrwt>
<pdfrwt beam="1">  1       21 0.12982098E-01 0.51142609E+03</pdfrwt>
<pdfrwt beam="2">  1       21 0.47861225E+00 0.51142609E+03</pdfrwt>
<totfact> 0.97786572E+01</totfact>
</mgrwt>
</event>
<event>
 4    1  0.8562541E-003  0.5845938E+03  0.7818608E-02  0.9937895E-01
         21   -1    0    0  501  502  0.00000000000E+00  0.00000000000E+00  0.10396590472E+04  0.10396590472E+04  0.00000000000E+00 0.  1.
         21   -1    0    0  502  503 -0.00000000000E+00 -0.00000000000E+00 -0.34336980500E+03  0.34336980500E+03  0.00000000000E+00 0.  1.
    9000005    1    1    2  501    0 -0.40946573882E+03  0.11869179902E+03  0.49101193033E+03  0.76344132070E+03  0.40000000000E+03 0.  1.
   -9000005    1    1    2    0  503  0.40946573882E+03 -0.11869179902E+03  0.20527731187E+03  0.61958753150E+03  0.40000000000E+03 0.  1.
<mgrwt>
<rscale>  2 0.58459382E+03</rscale>
<asrwt>0</asrwt>
<pdfrwt beam="1">  1       21 0.15994754E+00 0.58459382E+03</pdfrwt>
<pdfrwt beam="2">  1       21 0.52826124E-01 0.58459382E+03</pdfrwt>
<totfact> 0.67964312E+02</totfact>
</mgrwt>
</event>
<event>
 4    1  0.8562541E-003  0.4340158E+03  0.7818608E-02  0.1032599E+00
         21   -1    0    0  501  502  0.00000000000E+00  0.00000000000E+00  0.18199796901E+04  0.18199796901E+04  0.00000000000E+00 0.  1.
         21   -1    0    0  502  503 -0.00000000000E+00 -0.00000000000E+00 -0.10989020830E+03  0.10989020830E+03  0.00000000000E+00 0.  1.
    9000005    1    1    2  501    0 -0.13211173808E+03  0.10448061470E+03  0.10877157139E+04  0.11711085280E+04  0.40000000000E+03 0.  1.
   -9000005    1    1    2    0  503  0.13211173808E+03 -0.10448061470E+03  0.62237376790E+03  0.75876137037E+03  0.40000000000E+03 0.  1.
<mgrwt>
<rscale>  2 0.43401579E+03</rscale>
<asrwt>0</asrwt>
<pdfrwt beam="1">  1       21 0.27999685E+00 0.43401579E+03</pdfrwt>
<pdfrwt beam="2">  1       21 0.16906187E-01 0.43401579E+03</pdfrwt>
<totfact> 0.11527901E+03</totfact>
</mgrwt>
</event>
<event>
 4    1  0.8562541E-003  0.4368805E+03  0.7818608E-02  0.1031708E+00
         21   -1    0    0  503  502  0.00000000000E+00  0.00000000000E+00  0.50582283433E+03  0.50582283433E+03  0.00000000000E+00 0.  1.
         21   -1    0    0  501  503 -0.00000000000E+00 -0.00000000000E+00 -0.46446893736E+03  0.46446893736E+03  0.00000000000E+00 0.  1.
    9000005    1    1    2  501    0 -0.10348669732E+03 -0.14196847156E+03 -0.18945314577E+03  0.47619012787E+03  0.40000000000E+03 0.  1.
   -9000005    1    1    2    0  502  0.10348669732E+03  0.14196847156E+03  0.23080704275E+03  0.49410164382E+03  0.40000000000E+03 0.  1.
<mgrwt>
<rscale>  2 0.43688047E+03</rscale>
<asrwt>0</asrwt>
<pdfrwt beam="1">  1       21 0.77818898E-01 0.43688047E+03</pdfrwt>
<pdfrwt beam="2">  1       21 0.71456760E-01 0.43688047E+03</pdfrwt>
<totfact> 0.22542633E+03</totfact>
</mgrwt>
</event>
<event>
 4    1  0.8562541E-003  0.4197229E+03  0.7818608E-02  0.1037157E+00
         21   -1    0    0  501  502  0.00000000000E+00  0.00000000000E+00  0.12129613747E+03  0.12129613747E+03  0.00000000000E+00 0.  1.
         21   -1    0    0  502  503 -0.00000000000E+00 -0.00000000000E+00 -0.14548790845E+04  0.14548790845E+04  0.00000000000E+00 0.  1.
    9000005    1    1    2  501    0  0.66860790097E+02  0.10815246357E+03 -0.63408770696E+03  0.76041734643E+03  0.40000000000E+03 0.  1.
   -9000005    1    1    2    0  503 -0.66860790097E+02 -0.10815246357E+03 -0.69949524012E+03  0.81575787558E+03  0.40000000000E+03 0.  1.
<mgrwt>
<rscale>  2 0.41972291E+03</rscale>
<asrwt>0</asrwt>
<pdfrwt beam="1">  1       21 0.18660944E-01 0.41972291E+03</pdfrwt>
<pdfrwt beam="2">  1       21 0.22382755E+00 0.41972291E+03</pdfrwt>
<totfact> 0.21324659E+03</totfact>
</mgrwt>
</event>
<event>
 4    1  0.8562541E-003  0.5383946E+03  0.7818608E-02  0.1004216E+00
         21   -1    0    0  501  502  0.00000000000E+00  0.00000000000E+00  0.76132957803E+03  0.76132957803E+03  0.00000000000E+00 0.  1.
         21   -1    0    0  502  503 -0.00000000000E+00 -0.00000000000E+00 -0.39780569997E+03  0.39780569997E+03  0.00000000000E+00 0. -1.
    9000005    1    1    2  501    0  0.30095856267E+03  0.19822385282E+03  0.61721236431E+02  0.54192090133E+03  0.40000000000E+03 0. -1.
   -9000005    1    1    2    0  503 -0.30095856267E+03 -0.19822385282E+03  0.30180264163E+03  0.61721437667E+03  0.40000000000E+03 0.  1.
<mgrwt>
<rscale>  2 0.53839461E+03</rscale>
<asrwt>0</asrwt>
<pdfrwt beam="1">  1       21 0.11712763E+00 0.53839461E+03</pdfrwt>
<pdfrwt beam="2">  1       21 0.61200877E-01 0.53839461E+03</pdfrwt>
<totfact> 0.11477015E+03</totfact>
</mgrwt>
</event>
<event>
 4    1  0.8562541E-003  0.4628112E+03  0.7818608E-02  0.1023969E+00
         21   -1    0    0  501  502  0.00000000000E+00  0.00000000000E+00  0.60318163572E+03  0.60318163572E+03  0.00000000000E+00 0. -1.
         21   -1    0    0  502  503 -0.00000000000E+00 -0.00000000000E+00 -0.36729213953E+03  0.36729213953E+03  0.00000000000E+00 0.  1.
    9000005    1    1    2  501    0  0.23214035623E+03  0.17466716775E+02  0.20632536696E+03  0.50671924005E+03  0.40000000000E+03 0. -1.
   -9000005    1    1    2    0  503 -0.23214035623E+03 -0.17466716775E+02  0.29564129224E+02  0.46375453520E+03  0.40000000000E+03 0.  1.
<mgrwt>
<rscale>  2 0.46281123E+03</rscale>
<asrwt>0</asrwt>
<pdfrwt beam="1">  1       21 0.92797174E-01 0.46281123E+03</pdfrwt>
<pdfrwt beam="2">  1       21 0.56506483E-01 0.46281123E+03</pdfrwt>
<totfact> 0.24870076E+03</totfact>
</mgrwt>
</event>
<event>
 4    1  0.8562541E-003  0.5528402E+03  0.7818608E-02  0.1000839E+00
         21   -1    0    0  501  502  0.00000000000E+00  0.00000000000E+00  0.78114887662E+03  0.78114887662E+03  0.00000000000E+00 0. -1.
         21   -1    0    0  502  503 -0.00000000000E+00 -0.00000000000E+00 -0.41201819987E+03  0.41201819987E+03  0.00000000000E+00 0. -1.
    9000005    1    1    2  501    0  0.85811280089E+02 -0.37184507195E+03  0.31847366734E+03  0.63801082288E+03  0.40000000000E+03 0. -1.
   -9000005    1    1    2    0  503 -0.85811280089E+02  0.37184507195E+03  0.50657009410E+02  0.55515625361E+03  0.40000000000E+03 0. -1.
<mgrwt>
<rscale>  2 0.55284024E+03</rscale>
<asrwt>0</asrwt>
<pdfrwt beam="1">  1       21 0.12017675E+00 0.55284024E+03</pdfrwt>
<pdfrwt beam="2">  1       21 0.63387416E-01 0.55284024E+03</pdfrwt>
<totfact> 0.98979677E+02</totfact>
</mgrwt>
</event>
<event>
 4    1  0.8562541E-003  0.5109805E+03  0.7818608E-02  0.1010952E+00
         21   -1    0    0  503  502  0.00000000000E+00  0.00000000000E+00  0.74304670695E+03  0.74304670695E+03  0.00000000000E+00 0. -1.
         21   -1    0    0  501  503 -0.00000000000E+00 -0.00000000000E+00 -0.62463886409E+03  0.62463886409E+03  0.00000000000E+00 0. -1.
    9000005    1    1    2  501    0 -0.31230755538E+03  0.59708446175E+02 -0.39308806387E+03  0.64468545326E+03  0.40000000000E+03 0. -1.
   -9000005    1    1    2    0  502  0.31230755538E+03 -0.59708446175E+02  0.51149590673E+03  0.72300011777E+03  0.40000000000E+03 0. -1.
<mgrwt>
<rscale>  2 0.51098054E+03</rscale>
<asrwt>0</asrwt>
<pdfrwt beam="1">  1       21 0.11431488E+00 0.51098054E+03</pdfrwt>
<pdfrwt beam="2">  1       21 0.96098287E-01 0.51098054E+03</pdfrwt>
<totfact> 0.43596218E+02</totfact>
</mgrwt>
</event>
<event>
 4    1  0.8562541E-003  0.5541822E+03  0.7818608E-02  0.1000531E+00
         21   -1    0    0  503  502  0.00000000000E+00  0.00000000000E+00  0.58267116916E+03  0.58267116916E+03  0.00000000000E+00 0. -1.
         21   -1    0    0  501  503 -0.00000000000E+00 -0.00000000000E+00 -0.67608597835E+03  0.67608597835E+03  0.00000000000E+00 0.  1.
    9000005    1    1    2  501    0 -0.37543500421E+03 -0.78526989843E+02 -0.34217088230E+03  0.65130549147E+03  0.40000000000E+03 0. -1.
   -9000005    1    1    2    0  502  0.37543500421E+03  0.78526989843E+02  0.24875607311E+03  0.60745165604E+03  0.40000000000E+03 0. -1.
<mgrwt>
<rscale>  2 0.55418222E+03</rscale>
<asrwt>0</asrwt>
<pdfrwt beam="1">  1       21 0.89641719E-01 0.55418222E+03</pdfrwt>
<pdfrwt beam="2">  1       21 0.10401323E+00 0.55418222E+03</pdfrwt>
<totfact> 0.64102534E+02</totfact>
</mgrwt>
</event>
<event>
 4    1  0.8562541E-003  0.4517912E+03  0.7818608E-02  0.1027189E+00
         21   -1    0    0  501  502  0.00000000000E+00  0.00000000000E+00  0.23314666110E+03  0.23314666110E+03  0.00000000000E+00 0.  1.
         21   -1    0    0  502  503 -0.00000000000E+00 -0.00000000000E+00 -0.88307840292E+03  0.88307840292E+03  0.00000000000E+00 0. -1.
    9000005    1    1    2  501    0  0.20995959824E+03  0.56777841286E+01 -0.27319571543E+03  0.52796890918E+03  0.40000000000E+03 0. -1.
   -9000005    1    1    2    0  503 -0.20995959824E+03 -0.56777841286E+01 -0.37673602639E+03  0.58825615484E+03  0.40000000000E+03 0.  1.
<mgrwt>
<rscale>  2 0.45179118E+03</rscale>
<asrwt>0</asrwt>
<pdfrwt beam="1">  1       21 0.35868717E-01 0.45179118E+03</pdfrwt>
<pdfrwt beam="2">  1       21 0.13585821E+00 0.45179118E+03</pdfrwt>
<totfact> 0.24961897E+03</totfact>
</mgrwt>
</event>
<event>
 4    1  0.8562541E-003  0.5319871E+03  0.7818608E-02  0.1005751E+00
         21   -1    0    0  501  502  0.00000000000E+00  0.00000000000E+00  0.72522560231E+03  0.72522560231E+03  0.00000000000E+00 0. -1.
         21   -1    0    0  502  503 -0.00000000000E+00 -0.00000000000E+00 -0.39412463512E+03  0.39412463512E+03  0.00000000000E+00 0.  1.
    9000005    1    1    2  501    0  0.28154705028E+03 -0.20914489172E+03  0.10996950019E+03  0.54323440450E+03  0.40000000000E+03 0.  1.
   -9000005    1    1    2    0  503 -0.28154705028E+03  0.20914489172E+03  0.22113146700E+03  0.57611583293E+03  0.40000000000E+03 0.  1.
<mgrwt>
<rscale>  2 0.53198715E+03</rscale>
<asrwt>0</asrwt>
<pdfrwt beam="1">  1       21 0.11157317E+00 0.53198715E+03</pdfrwt>
<pdfrwt beam="2">  1       21 0.60634559E-01 0.53198715E+03</pdfrwt>
<totfact> 0.13262722E+03</totfact>
</mgrwt>
</event>
<event>
 4    1  0.8562541E-003  0.4100019E+03  0.7818608E-02  0.1040370E+00
         21   -1    0    0  501  502  0.00000000000E+00  0.00000000000E+00  0.13283672981E+04  0.13283672981E+04  0.00000000000E+00 0. -1.
         21   -1    0    0  502  503 -0.00000000000E+00 -0.00000000000E+00 -0.12947154006E+03  0.12947154006E+03  0.00000000000E+00 0. -1.
    9000005    1    1    2  501    0  0.62772927164E+02  0.64506959965E+02  0.70899033645E+03  0.81900481406E+03  0.40000000000E+03 0. -1.
   -9000005    1    1    2    0  503 -0.62772927164E+02 -0.64506959965E+02  0.48990542161E+03  0.63883402414E+03  0.40000000000E+03 0. -1.
<mgrwt>
<rscale>  2 0.41000194E+03</rscale>
<asrwt>0</asrwt>
<pdfrwt beam="1">  1       21 0.20436419E+00 0.41000194E+03</pdfrwt>
<pdfrwt beam="2">  1       21 0.19918699E-01 0.41000194E+03</pdfrwt>
<totfact> 0.25273834E+03</totfact>
</mgrwt>
</event>
<event>
 4    1  0.8562541E-003  0.6228728E+03  0.7818608E-02  0.9859057E-01
         21   -1    0    0  501  502  0.00000000000E+00  0.00000000000E+00  0.94138984333E+03  0.94138984333E+03  0.00000000000E+00 0.  1.
         21   -1    0    0  502  503 -0.00000000000E+00 -0.00000000000E+00 -0.42715840713E+03  0.42715840713E+03  0.00000000000E+00 0.  1.
    9000005    1    1    2  501    0  0.47330950979E+03 -0.62838278537E+02  0.38548481323E+03  0.73250875936E+03  0.40000000000E+03 0.  1.
   -9000005    1    1    2    0  503 -0.47330950979E+03  0.62838278537E+02  0.12874662297E+03  0.63603949110E+03  0.40000000000E+03 0.  1.
<mgrwt>
<rscale>  2 0.62287281E+03</rscale>
<asrwt>0</asrwt>
<pdfrwt beam="1">  1       21 0.14482921E+00 0.62287281E+03</pdfrwt>
<pdfrwt beam="2">  1       21 0.65716678E-01 0.62287281E+03</pdfrwt>
<totfact> 0.54610228E+02</totfact>
</mgrwt>
</event>
<event>
 4    1  0.8562541E-003  0.4258787E+03  0.7818608E-02  0.1035170E+00
         21   -1    0    0  501  502  0.00000000000E+00  0.00000000000E+00  0.64205175245E+03  0.64205175245E+03  0.00000000000E+00 0.  1.
         21   -1    0    0  502  503 -0.00000000000E+00 -0.00000000000E+00 -0.51518534799E+03  0.51518534799E+03  0.00000000000E+00 0.  1.
    9000005    1    1    2  501    0 -0.51072583338E+00 -0.14619293314E+03  0.45230394800E+03  0.62124994641E+03  0.40000000000E+03 0.  1.
   -9000005    1    1    2    0  503  0.51072583338E+00  0.14619293314E+03 -0.32543754354E+03  0.53598715403E+03  0.40000000000E+03 0.  1.
<mgrwt>
<rscale>  2 0.42587866E+03</rscale>
<asrwt>0</asrwt>
<pdfrwt beam="1">  1       21 0.98777192E-01 0.42587866E+03</pdfrwt>
<pdfrwt beam="2">  1       21 0.79259285E-01 0.42587866E+03</pdfrwt>
<totfact> 0.10198726E+03</totfact>
</mgrwt>
</event>
<event>
 4    1  0.8562541E-003  0.4757659E+03  0.7818608E-02  0.1020305E+00
         21   -1    0    0  501  502  0.00000000000E+00  0.00000000000E+00  0.49271321203E+03  0.49271321203E+03  0.00000000000E+00 0. -1.
         21   -1    0    0  502  503 -0.00000000000E+00 -0.00000000000E+00 -0.47023980431E+03  0.47023980431E+03  0.00000000000E+00 0. -1.
    9000005    1    1    2  501    0  0.23156654154E+03 -0.11282772533E+03  0.84333323746E+02  0.48318243786E+03  0.40000000000E+03 0. -1.
   -9000005    1    1    2    0  503 -0.23156654154E+03  0.11282772533E+03 -0.61859916032E+02  0.47977057848E+03  0.40000000000E+03 0. -1.
<mgrwt>
<rscale>  2 0.47576587E+03</rscale>
<asrwt>0</asrwt>
<pdfrwt beam="1">  1       21 0.75802033E-01 0.47576587E+03</pdfrwt>
<pdfrwt beam="2">  1       21 0.72344585E-01 0.47576587E+03</pdfrwt>
<totfact> 0.22954525E+03</totfact>
</mgrwt>
</event>
<event>
 4    1  0.8562541E-003  0.4060175E+03  0.7818608E-02  0.1041716E+00
         21   -1    0    0  501  502  0.00000000000E+00  0.00000000000E+00  0.34435248082E+03  0.34435248082E+03  0.00000000000E+00 0. -1.
         21   -1    0    0  502  503 -0.00000000000E+00 -0.00000000000E+00 -0.56009354806E+03  0.56009354806E+03  0.00000000000E+00 0. -1.
    9000005    1    1    2  501    0 -0.28585088833E+02  0.63506655453E+02  0.64494903277E+02  0.41110800909E+03  0.40000000000E+03 0. -1.
   -9000005    1    1    2    0  503  0.28585088833E+02 -0.63506655453E+02 -0.28023597052E+03  0.49333801978E+03  0.40000000000E+03 0. -1.
<mgrwt>
<rscale>  2 0.40601749E+03</rscale>
<asrwt>0</asrwt>
<pdfrwt beam="1">  1       21 0.52977305E-01 0.40601749E+03</pdfrwt>
<pdfrwt beam="2">  1       21 0.86168238E-01 0.40601749E+03</pdfrwt>
<totfact> 0.34771402E+03</totfact>
</mgrwt>
</event>
<event>
 4    1  0.8562541E-003  0.4961696E+03  0.7818608E-02  0.1014784E+00
         21   -1    0    0  503  502  0.00000000000E+00  0.00000000000E+00  0.25458045005E+03  0.25458045005E+03  0.00000000000E+00 0. -1.
         21   -1    0    0  501  503 -0.00000000000E+00 -0.00000000000E+00 -0.98226470193E+03  0.98226470193E+03  0.00000000000E+00 0. -1.
    9000005    1    1    2  501    0 -0.64393607603E+02 -0.28642225686E+03 -0.44088605406E+03  0.66375052436E+03  0.40000000000E+03 0. -1.
   -9000005    1    1    2    0  502  0.64393607603E+02  0.28642225686E+03 -0.28679819782E+03  0.57309462761E+03  0.40000000000E+03 0. -1.
<mgrwt>
<rscale>  2 0.49616957E+03</rscale>
<asrwt>0</asrwt>
<pdfrwt beam="1">  1       21 0.39166222E-01 0.49616957E+03</pdfrwt>
<pdfrwt beam="2">  1       21 0.15111765E+00 0.49616957E+03</pdfrwt>
<totfact> 0.15414643E+03</totfact>
</mgrwt>
</event>
<event>
 4    1  0.8562541E-003  0.4287728E+03  0.7818608E-02  0.1034248E+00
         21   -1    0    0  503  502  0.00000000000E+00  0.00000000000E+00  0.19206707783E+03  0.19206707783E+03  0.00000000000E+00 0.  1.
         21   -1    0    0  501  503 -0.00000000000E+00 -0.00000000000E+00 -0.96021385415E+03  0.96021385415E+03  0.00000000000E+00 0.  1.
    9000005    1    1    2  501    0 -0.14904748851E+03  0.40384896416E+02 -0.41636561135E+03  0.59766747946E+03  0.40000000000E+03 0.  1.
   -9000005    1    1    2    0  502  0.14904748851E+03 -0.40384896416E+02 -0.35178116497E+03  0.55461345252E+03  0.40000000000E+03 0.  1.
<mgrwt>
<rscale>  2 0.42877278E+03</rscale>
<asrwt>0</asrwt>
<pdfrwt beam="1">  1       21 0.29548781E-01 0.42877278E+03</pdfrwt>
<pdfrwt beam="2">  1       21 0.14772521E+00 0.42877278E+03</pdfrwt>
<totfact> 0.29710431E+03</totfact>
</mgrwt>
</event>
<event>
 4    1  0.8562541E-003  0.6750595E+03  0.7818608E-02  0.9760861E-01
         21   -1    0    0  503  502  0.00000000000E+00  0.00000000000E+00  0.61343444375E+03  0.61343444375E+03  0.00000000000E+00 0. -1.
         21   -1    0    0  501  503 -0.00000000000E+00 -0.00000000000E+00 -0.10425622815E+04  0.10425622815E+04  0.00000000000E+00 0.  1.
    9000005    1    1    2  501    0  0.49765414107E+03  0.21919313238E+03 -0.65849181801E+03  0.94303592074E+03  0.40000000000E+03 0.  1.
   -9000005    1    1    2    0  502 -0.49765414107E+03 -0.21919313238E+03  0.22936398022E+03  0.71296080455E+03  0.40000000000E+03 0. -1.
<mgrwt>
<rscale>  2 0.67505946E+03</rscale>
<asrwt>0</asrwt>
<pdfrwt beam="1">  1       21 0.94374531E-01 0.67505946E+03</pdfrwt>
<pdfrwt beam="2">  1       21 0.16039420E+00 0.67505946E+03</pdfrwt>
<totfact> 0.17444561E+02</totfact>
</mgrwt>
</event>
<event>
 4    1  0.8562541E-003  0.5636907E+03  0.7818608E-02  0.9983738E-01
         21   -1    0    0  503  502  0.00000000000E+00  0.00000000000E+00  0.15057390165E+04  0.15057390165E+04  0.00000000000E+00 0. -1.
         21   -1    0    0  501  503 -0.00000000000E+00 -0.00000000000E+00 -0.21656275449E+03  0.21656275449E+03  0.00000000000E+00 0. -1.
    9000005    1    1    2  501    0 -0.11195897530E+03 -0.38106738366E+03  0.50687003506E+03  0.75806622104E+03  0.40000000000E+03 0. -1.
   -9000005    1    1    2    0  502  0.11195897530E+03  0.38106738366E+03  0.78230622691E+03  0.96423554991E+03  0.40000000000E+03 0. -1.
<mgrwt>
<rscale>  2 0.56369066E+03</rscale>
<asrwt>0</asrwt>
<pdfrwt beam="1">  1       21 0.23165215E+00 0.56369066E+03</pdfrwt>
<pdfrwt beam="2">  1       21 0.33317348E-01 0.56369066E+03</pdfrwt>
<totfact> 0.57683649E+02</totfact>
</mgrwt>
</event>
<event>
 4    1  0.8562541E-003  0.4136295E+03  0.7818608E-02  0.1039160E+00
         21   -1    0    0  501  502  0.00000000000E+00  0.00000000000E+00  0.49355501683E+03  0.49355501683E+03  0.00000000000E+00 0.  1.
         21   -1    0    0  502  503 -0.00000000000E+00 -0.00000000000E+00 -0.34760764153E+03  0.34760764153E+03  0.00000000000E+00 0. -1.
    9000005    1    1    2  501    0  0.28385076882E+02  0.10140845005E+03  0.50864302572E+02  0.41674520226E+03  0.40000000000E+03 0.  1.
   -9000005    1    1    2    0  503 -0.28385076882E+02 -0.10140845005E+03  0.95083072727E+02  0.42441745611E+03  0.40000000000E+03 0.  1.
<mgrwt>
<rscale>  2 0.41362953E+03</rscale>
<asrwt>0</asrwt>
<pdfrwt beam="1">  1       21 0.75931541E-01 0.41362953E+03</pdfrwt>
<pdfrwt beam="2">  1       21 0.53478098E-01 0.41362953E+03</pdfrwt>
<totfact> 0.45512720E+03</totfact>
</mgrwt>
</event>
<event>
 4    1  0.8562541E-003  0.4105575E+03  0.7818608E-02  0.1040184E+00
         21   -1    0    0  501  502  0.00000000000E+00  0.00000000000E+00  0.50164939794E+03  0.50164939794E+03  0.00000000000E+00 0. -1.
         21   -1    0    0  502  503 -0.00000000000E+00 -0.00000000000E+00 -0.37761628200E+03  0.37761628200E+03  0.00000000000E+00 0. -1.
    9000005    1    1    2  501    0 -0.78051372835E+02 -0.49653405529E+02  0.20795250886E+03  0.46021921236E+03  0.40000000000E+03 0. -1.
   -9000005    1    1    2    0  503  0.78051372835E+02  0.49653405529E+02 -0.83919392913E+02  0.41904646758E+03  0.40000000000E+03 0. -1.
<mgrwt>
<rscale>  2 0.41055752E+03</rscale>
<asrwt>0</asrwt>
<pdfrwt beam="1">  1       21 0.77176831E-01 0.41055752E+03</pdfrwt>
<pdfrwt beam="2">  1       21 0.58094812E-01 0.41055752E+03</pdfrwt>
<totfact> 0.36712743E+03</totfact>
</mgrwt>
</event>
<event>
 4    1  0.8562541E-003  0.4102513E+03  0.7818608E-02  0.1040287E+00
         21   -1    0    0  501  502  0.00000000000E+00  0.00000000000E+00  0.87165706590E+03  0.87165706590E+03  0.00000000000E+00 0.  1.
         21   -1    0    0  502  503 -0.00000000000E+00 -0.00000000000E+00 -0.20798456207E+03  0.20798456207E+03  0.00000000000E+00 0.  1.
    9000005    1    1    2  501    0  0.62323332876E+02 -0.66497535743E+02  0.47630828389E+03  0.62863001948E+03  0.40000000000E+03 0. -1.
   -9000005    1    1    2    0  503 -0.62323332876E+02  0.66497535743E+02  0.18736421994E+03  0.45101160849E+03  0.40000000000E+03 0. -1.
<mgrwt>
<rscale>  2 0.41025129E+03</rscale>
<asrwt>0</asrwt>
<pdfrwt beam="1">  1       21 0.13410108E+00 0.41025129E+03</pdfrwt>
<pdfrwt beam="2">  1       21 0.31997625E-01 0.41025129E+03</pdfrwt>
<totfact> 0.33031970E+03</totfact>
</mgrwt>
</event>
<event>
 4    1  0.8562541E-003  0.4077059E+03  0.7818608E-02  0.1041144E+00
         21   -1    0    0  503  502  0.00000000000E+00  0.00000000000E+00  0.42195556777E+03  0.42195556777E+03  0.00000000000E+00 0.  1.
         21   -1    0    0  501  503 -0.00000000000E+00 -0.00000000000E+00 -0.43851061675E+03  0.43851061675E+03  0.00000000000E+00 0.  1.
    9000005    1    1    2  501    0  0.12008695613E+02  0.77973899139E+02 -0.14544466014E+03  0.43287213687E+03  0.40000000000E+03 0. -1.
   -9000005    1    1    2    0  502 -0.12008695613E+02 -0.77973899139E+02  0.12888961116E+03  0.42759404765E+03  0.40000000000E+03 0. -1.
<mgrwt>
<rscale>  2 0.40770595E+03</rscale>
<asrwt>0</asrwt>
<pdfrwt beam="1">  1       21 0.64916241E-01 0.40770595E+03</pdfrwt>
<pdfrwt beam="2">  1       21 0.67463172E-01 0.40770595E+03</pdfrwt>
<totfact> 0.39032776E+03</totfact>
</mgrwt>
</event>
<event>
 4    1  0.8562541E-003  0.5278750E+03  0.7818608E-02  0.1006749E+00
         21   -1    0    0  503  502  0.00000000000E+00  0.00000000000E+00  0.11497356001E+04  0.11497356001E+04  0.00000000000E+00 0. -1.
         21   -1    0    0  501  503 -0.00000000000E+00 -0.00000000000E+00 -0.24555897888E+03  0.24555897888E+03  0.00000000000E+00 0. -1.
    9000005    1    1    2  501    0  0.34191526548E+03  0.41784763553E+02  0.37248338259E+03  0.64606182796E+03  0.40000000000E+03 0. -1.
   -9000005    1    1    2    0  502 -0.34191526548E+03 -0.41784763553E+02  0.53169323867E+03  0.74923275107E+03  0.40000000000E+03 0. -1.
<mgrwt>
<rscale>  2 0.52787500E+03</rscale>
<asrwt>0</asrwt>
<pdfrwt beam="1">  1       21 0.17688240E+00 0.52787500E+03</pdfrwt>
<pdfrwt beam="2">  1       21 0.37778305E-01 0.52787500E+03</pdfrwt>
<totfact> 0.10524565E+03</totfact>
</mgrwt>
</event>
<event>
 4    1  0.8562541E-003  0.4904928E+03  0.7818608E-02  0.1016291E+00
         21   -1    0    0  501  502  0.00000000000E+00  0.00000000000E+00  0.16311197115E+04  0.16311197115E+04  0.00000000000E+00 0.  1.
         21   -1    0    0  502  503 -0.00000000000E+00 -0.00000000000E+00 -0.22559184868E+03  0.22559184868E+03  0.00000000000E+00 0.  1.
    9000005    1    1    2  501    0  0.18081144323E+03 -0.21883877751E+03  0.12489837783E+04  0.13418433839E+04  0.40000000000E+03 0.  1.
   -9000005    1    1    2    0  503 -0.18081144323E+03  0.21883877751E+03  0.15654408455E+03  0.51486817629E+03  0.40000000000E+03 0.  1.
<mgrwt>
<rscale>  2 0.49049280E+03</rscale>
<asrwt>0</asrwt>
<pdfrwt beam="1">  1       21 0.25094149E+00 0.49049280E+03</pdfrwt>
<pdfrwt beam="2">  1       21 0.34706439E-01 0.49049280E+03</pdfrwt>
<totfact> 0.41556033E+02</totfact>
</mgrwt>
</event>
<event>
 4    1  0.8562541E-003  0.5059636E+03  0.7818608E-02  0.1012234E+00
         21   -1    0    0  503  502  0.00000000000E+00  0.00000000000E+00  0.98348942155E+03  0.98348942155E+03  0.00000000000E+00 0.  1.
         21   -1    0    0  501  503 -0.00000000000E+00 -0.00000000000E+00 -0.31174367568E+03  0.31174367568E+03  0.00000000000E+00 0.  1.
    9000005    1    1    2  501    0  0.70648191792E+02  0.30167538078E+03  0.72786479861E+02  0.51117225474E+03  0.40000000000E+03 0.  1.
   -9000005    1    1    2    0  502 -0.70648191792E+02 -0.30167538078E+03  0.59895926601E+03  0.78406084248E+03  0.40000000000E+03 0.  1.
<mgrwt>
<rscale>  2 0.50596364E+03</rscale>
<asrwt>0</asrwt>
<pdfrwt beam="1">  1       21 0.15130606E+00 0.50596364E+03</pdfrwt>
<pdfrwt beam="2">  1       21 0.47960566E-01 0.50596364E+03</pdfrwt>
<totfact> 0.10026151E+03</totfact>
</mgrwt>
</event>
<event>
 4    1  0.8562541E-003  0.4223677E+03  0.7818608E-02  0.1036298E+00
         21   -1    0    0  501  502  0.00000000000E+00  0.00000000000E+00  0.46497034808E+03  0.46497034808E+03  0.00000000000E+00 0.  1.
         21   -1    0    0  502  503 -0.00000000000E+00 -0.00000000000E+00 -0.41442599242E+03  0.41442599242E+03  0.00000000000E+00 0. -1.
    9000005    1    1    2  501    0  0.46523595648E+02  0.12739714861E+03 -0.94513967887E+02  0.43281331836E+03  0.40000000000E+03 0. -1.
   -9000005    1    1    2    0  503 -0.46523595648E+02 -0.12739714861E+03  0.14505832355E+03  0.44658302213E+03  0.40000000000E+03 0.  1.
<mgrwt>
<rscale>  2 0.42236771E+03</rscale>
<asrwt>0</asrwt>
<pdfrwt beam="1">  1       21 0.71533900E-01 0.42236771E+03</pdfrwt>
<pdfrwt beam="2">  1       21 0.63757845E-01 0.42236771E+03</pdfrwt>
<totfact> 0.35421309E+03</totfact>
</mgrwt>
</event>
<event>
 4    1  0.8562541E-003  0.4868727E+03  0.7818608E-02  0.1017263E+00
         21   -1    0    0  501  502  0.00000000000E+00  0.00000000000E+00  0.53699472329E+03  0.53699472329E+03  0.00000000000E+00 0.  1.
         21   -1    0    0  502  503 -0.00000000000E+00 -0.00000000000E+00 -0.49557224506E+03  0.49557224506E+03  0.00000000000E+00 0.  1.
    9000005    1    1    2  501    0  0.24349581999E+03  0.13324727719E+03  0.19136144993E+03  0.52312929162E+03  0.40000000000E+03 0.  1.
   -9000005    1    1    2    0  503 -0.24349581999E+03 -0.13324727719E+03 -0.14993897170E+03  0.50943767672E+03  0.40000000000E+03 0.  1.
<mgrwt>
<rscale>  2 0.48687273E+03</rscale>
<asrwt>0</asrwt>
<pdfrwt beam="1">  1       21 0.82614573E-01 0.48687273E+03</pdfrwt>
<pdfrwt beam="2">  1       21 0.76241883E-01 0.48687273E+03</pdfrwt>
<totfact> 0.16630076E+03</totfact>
</mgrwt>
</event>
<event>
 4    1  0.8562541E-003  0.4038806E+03  0.7818608E-02  0.1042444E+00
         21   -1    0    0  501  502  0.00000000000E+00  0.00000000000E+00  0.30311436852E+03  0.30311436852E+03  0.00000000000E+00 0.  1.
         21   -1    0    0  502  503 -0.00000000000E+00 -0.00000000000E+00 -0.54201404843E+03  0.54201404843E+03  0.00000000000E+00 0.  1.
    9000005    1    1    2  501    0 -0.38510429789E+02  0.40453099954E+02 -0.15515121605E+03  0.43265622189E+03  0.40000000000E+03 0.  1.
   -9000005    1    1    2    0  503  0.38510429789E+02 -0.40453099954E+02 -0.83748463866E+02  0.41247219506E+03  0.40000000000E+03 0.  1.
<mgrwt>
<rscale>  2 0.40388056E+03</rscale>
<asrwt>0</asrwt>
<pdfrwt beam="1">  1       21 0.46632980E-01 0.40388056E+03</pdfrwt>
<pdfrwt beam="2">  1       21 0.83386775E-01 0.40388056E+03</pdfrwt>
<totfact> 0.49236947E+03</totfact>
</mgrwt>
</event>
<event>
 4    1  0.8562541E-003  0.4786823E+03  0.7818608E-02  0.1019498E+00
         21   -1    0    0  501  502  0.00000000000E+00  0.00000000000E+00  0.45015356295E+03  0.45015356295E+03  0.00000000000E+00 0.  1.
         21   -1    0    0  502  503 -0.00000000000E+00 -0.00000000000E+00 -0.66416612868E+03  0.66416612868E+03  0.00000000000E+00 0.  1.
    9000005    1    1    2  501    0 -0.26249530436E+03  0.15261688984E+02 -0.37629202401E+03  0.60887797735E+03  0.40000000000E+03 0.  1.
   -9000005    1    1    2    0  503  0.26249530436E+03 -0.15261688984E+02  0.16227945828E+03  0.50544171428E+03  0.40000000000E+03 0.  1.
<mgrwt>
<rscale>  2 0.47868226E+03</rscale>
<asrwt>0</asrwt>
<pdfrwt beam="1">  1       21 0.69254395E-01 0.47868226E+03</pdfrwt>
<pdfrwt beam="2">  1       21 0.10217940E+00 0.47868226E+03</pdfrwt>
<totfact> 0.12497708E+03</totfact>
</mgrwt>
</event>
<event>
 4    1  0.8562541E-003  0.4054918E+03  0.7818608E-02  0.1041894E+00
         21   -1    0    0  503  502  0.00000000000E+00  0.00000000000E+00  0.18414310231E+04  0.18414310231E+04  0.00000000000E+00 0.  1.
         21   -1    0    0  501  503 -0.00000000000E+00 -0.00000000000E+00 -0.90363698330E+02  0.90363698330E+02  0.00000000000E+00 0.  1.
    9000005    1    1    2  501    0 -0.54706485751E+02 -0.37825469426E+02  0.77030489146E+03  0.87051317711E+03  0.40000000000E+03 0.  1.
   -9000005    1    1    2    0  502  0.54706485751E+02  0.37825469426E+02  0.98076243334E+03  0.10612815443E+04  0.40000000000E+03 0.  1.
<mgrwt>
<rscale>  2 0.40549176E+03</rscale>
<asrwt>0</asrwt>
<pdfrwt beam="1">  1       21 0.28329705E+00 0.40549176E+03</pdfrwt>
<pdfrwt beam="2">  1       21 0.13902109E-01 0.40549176E+03</pdfrwt>
<totfact> 0.16083091E+03</totfact>
</mgrwt>
</event>
<event>
 4    1  0.8562541E-003  0.4507363E+03  0.7818608E-02  0.1027503E+00
         21   -1    0    0  503  502  0.00000000000E+00  0.00000000000E+00  0.99843902540E+03  0.99843902540E+03  0.00000000000E+00 0.  1.
         21   -1    0    0  501  503 -0.00000000000E+00 -0.00000000000E+00 -0.21707114513E+03  0.21707114513E+03  0.00000000000E+00 0.  1.
    9000005    1    1    2  501    0  0.16658173478E+03 -0.12415192989E+03  0.23861422763E+03  0.50999992714E+03  0.40000000000E+03 0.  1.
   -9000005    1    1    2    0  502 -0.16658173478E+03  0.12415192989E+03  0.54275365265E+03  0.70551024338E+03  0.40000000000E+03 0.  1.
<mgrwt>
<rscale>  2 0.45073626E+03</rscale>
<asrwt>0</asrwt>
<pdfrwt beam="1">  1       21 0.15360600E+00 0.45073626E+03</pdfrwt>
<pdfrwt beam="2">  1       21 0.33395561E-01 0.45073626E+03</pdfrwt>
<totfact> 0.20747482E+03</totfact>
</mgrwt>
</event>
<event>
 4    1  0.8562541E-003  0.5550402E+03  0.7818608E-02  0.1000334E+00
         21   -1    0    0  503  502  0.00000000000E+00  0.00000000000E+00  0.18802531276E+04  0.18802531276E+04  0.00000000000E+00 0.  1.
         21   -1    0    0  501  503 -0.00000000000E+00 -0.00000000000E+00 -0.16426107586E+03  0.16426107586E+03  0.00000000000E+00 0.  1.
    9000005    1    1    2  501    0 -0.37675362737E+03  0.78271204575E+02  0.80653373829E+03  0.97906401640E+03  0.40000000000E+03 0.  1.
   -9000005    1    1    2    0  502  0.37675362737E+03 -0.78271204575E+02  0.90945831347E+03  0.10654501871E+04  0.40000000000E+03 0.  1.
<mgrwt>
<rscale>  2 0.55504025E+03</rscale>
<asrwt>0</asrwt>
<pdfrwt beam="1">  1       21 0.28926970E+00 0.55504025E+03</pdfrwt>
<pdfrwt beam="2">  1       21 0.25270936E-01 0.55504025E+03</pdfrwt>
<totfact> 0.44252423E+02</totfact>
</mgrwt>
</event>
<event>
 4    1  0.8562541E-003  0.6003007E+03  0.7818608E-02  0.9904782E-01
         21   -1    0    0  501  502  0.00000000000E+00  0.00000000000E+00  0.27263818333E+03  0.27263818333E+03  0.00000000000E+00 0. -1.
         21   -1    0    0  502  503 -0.00000000000E+00 -0.00000000000E+00 -0.13289314953E+04  0.13289314953E+04  0.00000000000E+00 0. -1.
    9000005    1    1    2  501    0 -0.40857854076E+03  0.18282358525E+03 -0.46930022077E+03  0.76197348019E+03  0.40000000000E+03 0. -1.
   -9000005    1    1    2    0  503  0.40857854076E+03 -0.18282358525E+03 -0.58699309117E+03  0.83959619840E+03  0.40000000000E+03 0. -1.
<mgrwt>
<rscale>  2 0.60030066E+03</rscale>
<asrwt>0</asrwt>
<pdfrwt beam="1">  1       21 0.41944335E-01 0.60030066E+03</pdfrwt>
<pdfrwt beam="2">  1       21 0.20445100E+00 0.60030066E+03</pdfrwt>
<totfact> 0.53260971E+02</totfact>
</mgrwt>
</event>
<event>
 4    1  0.8562541E-003  0.4215116E+03  0.7818608E-02  0.1036575E+00
         21   -1    0    0  503  502  0.00000000000E+00  0.00000000000E+00  0.28679917833E+03  0.28679917833E+03  0.00000000000E+00 0. -1.
         21   -1    0    0  501  503 -0.00000000000E+00 -0.00000000000E+00 -0.64717810942E+03  0.64717810942E+03  0.00000000000E+00 0. -1.
    9000005    1    1    2  501    0 -0.71656240596E+02 -0.11197050536E+03 -0.27676448671E+03  0.50425250816E+03  0.40000000000E+03 0. -1.
   -9000005    1    1    2    0  502  0.71656240596E+02  0.11197050536E+03 -0.83614444382E+02  0.42972477959E+03  0.40000000000E+03 0. -1.
<mgrwt>
<rscale>  2 0.42151158E+03</rscale>
<asrwt>0</asrwt>
<pdfrwt beam="1">  1       21 0.44122951E-01 0.42151158E+03</pdfrwt>
<pdfrwt beam="2">  1       21 0.99565862E-01 0.42151158E+03</pdfrwt>
<totfact> 0.36074828E+03</totfact>
</mgrwt>
</event>
<event>
 4    1  0.8562541E-003  0.5248765E+03  0.7818608E-02  0.1007482E+00
         21   -1    0    0  503  502  0.00000000000E+00  0.00000000000E+00  0.11649556724E+04  0.11649556724E+04  0.00000000000E+00 0. -1.
         21   -1    0    0  501  503 -0.00000000000E+00 -0.00000000000E+00 -0.23691121425E+03  0.23691121425E+03  0.00000000000E+00 0. -1.
    9000005    1    1    2  501    0 -0.10749801702E+02  0.33967604121E+03  0.49372760732E+03  0.72059858551E+03  0.40000000000E+03 0. -1.
   -9000005    1    1    2    0  502  0.10749801702E+02 -0.33967604121E+03  0.43431685081E+03  0.68126830112E+03  0.40000000000E+03 0. -1.
<mgrwt>
<rscale>  2 0.52487653E+03</rscale>
<asrwt>0</asrwt>
<pdfrwt beam="1">  1       21 0.17922395E+00 0.52487653E+03</pdfrwt>
<pdfrwt beam="2">  1       21 0.36447880E-01 0.52487653E+03</pdfrwt>
<totfact> 0.10909761E+03</totfact>
</mgrwt>
</event>
<event>
 4    1  0.8562541E-003  0.5716025E+03  0.7818608E-02  0.9966139E-01
         21   -1    0    0  501  502  0.00000000000E+00  0.00000000000E+00  0.50130422302E+03  0.50130422302E+03  0.00000000000E+00 0. -1.
         21   -1    0    0  502  503 -0.00000000000E+00 -0.00000000000E+00 -0.66811021741E+03  0.66811021741E+03  0.00000000000E+00 0. -1.
    9000005    1    1    2  501    0  0.37219826206E+03 -0.16792234599E+03  0.80697088288E+01  0.57165949722E+03  0.40000000000E+03 0. -1.
   -9000005    1    1    2    0  503 -0.37219826206E+03  0.16792234599E+03 -0.17487570322E+03  0.59775494322E+03  0.40000000000E+03 0. -1.
<mgrwt>
<rscale>  2 0.57160254E+03</rscale>
<asrwt>0</asrwt>
<pdfrwt beam="1">  1       21 0.77123727E-01 0.57160254E+03</pdfrwt>
<pdfrwt beam="2">  1       21 0.10278619E+00 0.57160254E+03</pdfrwt>
<totfact> 0.93330614E+02</totfact>
</mgrwt>
</event>
<event>
 4    1  0.8562541E-003  0.6516483E+03  0.7818608E-02  0.9803691E-01
         21   -1    0    0  503  502  0.00000000000E+00  0.00000000000E+00  0.93204987460E+03  0.93204987460E+03  0.00000000000E+00 0.  1.
         21   -1    0    0  501  503 -0.00000000000E+00 -0.00000000000E+00 -0.45944097939E+03  0.45944097939E+03  0.00000000000E+00 0.  1.
    9000005    1    1    2  501    0  0.30134665918E+03  0.41693608965E+03  0.17272178918E+03  0.67415007848E+03  0.40000000000E+03 0.  1.
   -9000005    1    1    2    0  502 -0.30134665918E+03 -0.41693608965E+03  0.29988710602E+03  0.71734077551E+03  0.40000000000E+03 0.  1.
<mgrwt>
<rscale>  2 0.65164830E+03</rscale>
<asrwt>0</asrwt>
<pdfrwt beam="1">  1       21 0.14339229E+00 0.65164830E+03</pdfrwt>
<pdfrwt beam="2">  1       21 0.70683228E-01 0.65164830E+03</pdfrwt>
<totfact> 0.47168327E+02</totfact>
</mgrwt>
</event>
<event>
 4    1  0.8562541E-003  0.4110320E+03  0.7818608E-02  0.1040025E+00
         21   -1    0    0  503  502  0.00000000000E+00  0.00000000000E+00  0.95241247379E+03  0.95241247379E+03  0.00000000000E+00 0. -1.
         21   -1    0    0  501  503 -0.00000000000E+00 -0.00000000000E+00 -0.23276042377E+03  0.23276042377E+03  0.00000000000E+00 0. -1.
    9000005    1    1    2  501    0  0.90581683253E+02  0.27243765375E+02  0.64885471056E+03  0.76808834095E+03  0.40000000000E+03 0. -1.
   -9000005    1    1    2    0  502 -0.90581683253E+02 -0.27243765375E+02  0.70797339464E+02  0.41708455662E+03  0.40000000000E+03 0. -1.
<mgrwt>
<rscale>  2 0.41103195E+03</rscale>
<asrwt>0</asrwt>
<pdfrwt beam="1">  1       21 0.14652499E+00 0.41103195E+03</pdfrwt>
<pdfrwt beam="2">  1       21 0.35809296E-01 0.41103195E+03</pdfrwt>
<totfact> 0.20817940E+03</totfact>
</mgrwt>
</event>
<event>
 4    1  0.8562541E-003  0.4250071E+03  0.7818608E-02  0.1035449E+00
         21   -1    0    0  503  502  0.00000000000E+00  0.00000000000E+00  0.10579842080E+03  0.10579842080E+03  0.00000000000E+00 0.  1.
         21   -1    0    0  501  503 -0.00000000000E+00 -0.00000000000E+00 -0.17152037064E+04  0.17152037064E+04  0.00000000000E+00 0.  1.
    9000005    1    1    2  501    0  0.68088077194E+02 -0.12647139913E+03 -0.74294577355E+03  0.85592022029E+03  0.40000000000E+03 0.  1.
   -9000005    1    1    2    0  502 -0.68088077194E+02  0.12647139913E+03 -0.86645951206E+03  0.96508190694E+03  0.40000000000E+03 0.  1.
<mgrwt>
<rscale>  2 0.42500706E+03</rscale>
<asrwt>0</asrwt>
<pdfrwt beam="1">  1       21 0.16276680E-01 0.42500706E+03</pdfrwt>
<pdfrwt beam="2">  1       21 0.26387750E+00 0.42500706E+03</pdfrwt>
<totfact> 0.15555538E+03</totfact>
</mgrwt>
</event>
<event>
 4    1  0.8562541E-003  0.4168105E+03  0.7818608E-02  0.1038109E+00
         21   -1    0    0  503  502  0.00000000000E+00  0.00000000000E+00  0.10595488035E+04  0.10595488035E+04  0.00000000000E+00 0.  1.
         21   -1    0    0  501  503 -0.00000000000E+00 -0.00000000000E+00 -0.17736860408E+03  0.17736860408E+03  0.00000000000E+00 0.  1.
    9000005    1    1    2  501    0  0.11702513674E+03 -0.60067674147E+01  0.27108894657E+03  0.49721241018E+03  0.40000000000E+03 0.  1.
   -9000005    1    1    2    0  502 -0.11702513674E+03  0.60067674147E+01  0.61109125289E+03  0.73970499744E+03  0.40000000000E+03 0.  1.
<mgrwt>
<rscale>  2 0.41681047E+03</rscale>
<asrwt>0</asrwt>
<pdfrwt beam="1">  1       21 0.16300750E+00 0.41681047E+03</pdfrwt>
<pdfrwt beam="2">  1       21 0.27287478E-01 0.41681047E+03</pdfrwt>
<totfact> 0.26656524E+03</totfact>
</mgrwt>
</event>
<event>
 4    1  0.8562541E-003  0.4635966E+03  0.7818608E-02  0.1023743E+00
         21   -1    0    0  501  502  0.00000000000E+00  0.00000000000E+00  0.21683896830E+03  0.21683896830E+03  0.00000000000E+00 0.  1.
         21   -1    0    0  502  503 -0.00000000000E+00 -0.00000000000E+00 -0.13451094332E+04  0.13451094332E+04  0.00000000000E+00 0. -1.
    9000005    1    1    2  501    0  0.16920387883E+03  0.16214762146E+03 -0.16351824545E+03  0.49158928014E+03  0.40000000000E+03 0.  1.
   -9000005    1    1    2    0  503 -0.16920387883E+03 -0.16214762146E+03 -0.96475221945E+03  0.10703591214E+04  0.40000000000E+03 0. -1.
<mgrwt>
<rscale>  2 0.46359660E+03</rscale>
<asrwt>0</asrwt>
<pdfrwt beam="1">  1       21 0.33359841E-01 0.46359660E+03</pdfrwt>
<pdfrwt beam="2">  1       21 0.20693991E+00 0.46359660E+03</pdfrwt>
<totfact> 0.86633424E+02</totfact>
</mgrwt>
</event>
<event>
 4    1  0.8562541E-003  0.5200059E+03  0.7818608E-02  0.1008685E+00
         21   -1    0    0  501  502  0.00000000000E+00  0.00000000000E+00  0.52386210047E+03  0.52386210047E+03  0.00000000000E+00 0.  1.
         21   -1    0    0  502  503 -0.00000000000E+00 -0.00000000000E+00 -0.54614142422E+03  0.54614142422E+03  0.00000000000E+00 0.  1.
    9000005    1    1    2  501    0  0.26829205452E+03  0.19602416462E+03 -0.13645327716E+03  0.53761100852E+03  0.40000000000E+03 0.  1.
   -9000005    1    1    2    0  503 -0.26829205452E+03 -0.19602416462E+03  0.11417395342E+03  0.53239251617E+03  0.40000000000E+03 0.  1.
<mgrwt>
<rscale>  2 0.52000587E+03</rscale>
<asrwt>0</asrwt>
<pdfrwt beam="1">  1       21 0.80594169E-01 0.52000587E+03</pdfrwt>
<pdfrwt beam="2">  1       21 0.84021758E-01 0.52000587E+03</pdfrwt>
<totfact> 0.13905875E+03</totfact>
</mgrwt>
</event>
<event>
 4    1  0.8562541E-003  0.8326071E+03  0.7818608E-02  0.9513983E-01
         21   -1    0    0  503  502  0.00000000000E+00  0.00000000000E+00  0.98181349766E+03  0.98181349766E+03  0.00000000000E+00 0.  1.
         21   -1    0    0  501  503 -0.00000000000E+00 -0.00000000000E+00 -0.92847179116E+03  0.92847179116E+03  0.00000000000E+00 0. -1.
    9000005    1    1    2  501    0 -0.49259874945E+03 -0.53905563058E+03 -0.44079253719E+03  0.94208946585E+03  0.40000000000E+03 0. -1.
   -9000005    1    1    2    0  502  0.49259874945E+03  0.53905563058E+03  0.49413424369E+03  0.96819582297E+03  0.40000000000E+03 0.  1.
<mgrwt>
<rscale>  2 0.83260705E+03</rscale>
<asrwt>0</asrwt>
<pdfrwt beam="1">  1       21 0.15104823E+00 0.83260705E+03</pdfrwt>
<pdfrwt beam="2">  1       21 0.14284181E+00 0.83260705E+03</pdfrwt>
<totfact> 0.68004997E+01</totfact>
</mgrwt>
</event>
<event>
 4    1  0.8562541E-003  0.4631015E+03  0.7818608E-02  0.1023886E+00
         21   -1    0    0  501  502  0.00000000000E+00  0.00000000000E+00  0.85674011053E+03  0.85674011053E+03  0.00000000000E+00 0.  1.
         21   -1    0    0  502  503 -0.00000000000E+00 -0.00000000000E+00 -0.25289261910E+03  0.25289261910E+03  0.00000000000E+00 0. -1.
    9000005    1    1    2  501    0  0.82978007368E+02  0.21812311502E+03  0.35783361131E+03  0.58524177602E+03  0.40000000000E+03 0.  1.
   -9000005    1    1    2    0  503 -0.82978007368E+02 -0.21812311502E+03  0.24601388012E+03  0.52439095361E+03  0.40000000000E+03 0.  1.
<mgrwt>
<rscale>  2 0.46310155E+03</rscale>
<asrwt>0</asrwt>
<pdfrwt beam="1">  1       21 0.13180617E+00 0.46310155E+03</pdfrwt>
<pdfrwt beam="2">  1       21 0.38906557E-01 0.46310155E+03</pdfrwt>
<totfact> 0.22789563E+03</totfact>
</mgrwt>
</event>
<event>
 4    1  0.8562541E-003  0.4401563E+03  0.7818608E-02  0.1030699E+00
         21   -1    0    0  503  502  0.00000000000E+00  0.00000000000E+00  0.68249604277E+03  0.68249604277E+03  0.00000000000E+00 0.  1.
         21   -1    0    0  501  503 -0.00000000000E+00 -0.00000000000E+00 -0.29867765524E+03  0.29867765524E+03  0.00000000000E+00 0.  1.
    9000005    1    1    2  501    0  0.17341640570E+03 -0.60533770850E+02  0.82661374227E+02  0.44785096848E+03  0.40000000000E+03 0.  1.
   -9000005    1    1    2    0  502 -0.17341640570E+03  0.60533770850E+02  0.30115701330E+03  0.53332272954E+03  0.40000000000E+03 0.  1.
<mgrwt>
<rscale>  2 0.44015632E+03</rscale>
<asrwt>0</asrwt>
<pdfrwt beam="1">  1       21 0.10499939E+00 0.44015632E+03</pdfrwt>
<pdfrwt beam="2">  1       21 0.45950409E-01 0.44015632E+03</pdfrwt>
<totfact> 0.28901130E+03</totfact>
</mgrwt>
</event>
<event>
 4    1  0.8562541E-003  0.4334117E+03  0.7818608E-02  0.1032788E+00
         21   -1    0    0  503  502  0.00000000000E+00  0.00000000000E+00  0.95129837459E+03  0.95129837459E+03  0.00000000000E+00 0. -1.
         21   -1    0    0  501  503 -0.00000000000E+00 -0.00000000000E+00 -0.33883391350E+03  0.33883391350E+03  0.00000000000E+00 0. -1.
    9000005    1    1    2  501    0  0.13796615110E+03 -0.93867315285E+02 -0.11043721147E+03  0.44726067277E+03  0.40000000000E+03 0. -1.
   -9000005    1    1    2    0  502 -0.13796615110E+03  0.93867315285E+02  0.72290167256E+03  0.84287161533E+03  0.40000000000E+03 0. -1.
<mgrwt>
<rscale>  2 0.43341173E+03</rscale>
<asrwt>0</asrwt>
<pdfrwt beam="1">  1       21 0.14635359E+00 0.43341173E+03</pdfrwt>
<pdfrwt beam="2">  1       21 0.52128295E-01 0.43341173E+03</pdfrwt>
<totfact> 0.94685596E+02</totfact>
</mgrwt>
</event>
<event>
 4    1  0.8562541E-003  0.4626527E+03  0.7818608E-02  0.1024015E+00
         21   -1    0    0  501  502  0.00000000000E+00  0.00000000000E+00  0.89126594224E+02  0.89126594224E+02  0.00000000000E+00 0.  1.
         21   -1    0    0  502  503 -0.00000000000E+00 -0.00000000000E+00 -0.24075675318E+04  0.24075675318E+04  0.00000000000E+00 0.  1.
    9000005    1    1    2  501    0  0.16621071376E+03  0.16254700843E+03 -0.10971345901E+04  0.11906938482E+04  0.40000000000E+03 0.  1.
   -9000005    1    1    2    0  503 -0.16621071376E+03 -0.16254700843E+03 -0.12213063475E+04  0.13060002778E+04  0.40000000000E+03 0.  1.
<mgrwt>
<rscale>  2 0.46265271E+03</rscale>
<asrwt>0</asrwt>
<pdfrwt beam="1">  1       21 0.13711787E-01 0.46265271E+03</pdfrwt>
<pdfrwt beam="2">  1       21 0.37039493E+00 0.46265271E+03</pdfrwt>
<totfact> 0.47243074E+02</totfact>
</mgrwt>
</event>
<event>
 4    1  0.8562541E-003  0.5357099E+03  0.7818608E-02  0.1004857E+00
         21   -1    0    0  501  502  0.00000000000E+00  0.00000000000E+00  0.13315828075E+04  0.13315828075E+04  0.00000000000E+00 0.  1.
         21   -1    0    0  502  503 -0.00000000000E+00 -0.00000000000E+00 -0.22742031340E+03  0.22742031340E+03  0.00000000000E+00 0.  1.
    9000005    1    1    2  501    0 -0.23702726373E+03 -0.26608858159E+03  0.73038054205E+03  0.90578186845E+03  0.40000000000E+03 0.  1.
   -9000005    1    1    2    0  503  0.23702726373E+03  0.26608858159E+03  0.37378195207E+03  0.65322125248E+03  0.40000000000E+03 0.  1.
<mgrwt>
<rscale>  2 0.53570986E+03</rscale>
<asrwt>0</asrwt>
<pdfrwt beam="1">  1       21 0.20485889E+00 0.53570986E+03</pdfrwt>
<pdfrwt beam="2">  1       21 0.34987741E-01 0.53570986E+03</pdfrwt>
<totfact> 0.78769839E+02</totfact>
</mgrwt>
</event>
<event>
 4    1  0.8562541E-003  0.4249700E+03  0.7818608E-02  0.1035461E+00
         21   -1    0    0  501  502  0.00000000000E+00  0.00000000000E+00  0.79245301019E+03  0.79245301019E+03  0.00000000000E+00 0.  1.
         21   -1    0    0  502  503 -0.00000000000E+00 -0.00000000000E+00 -0.23302592221E+03  0.23302592221E+03  0.00000000000E+00 0.  1.
    9000005    1    1    2  501    0  0.11612352298E+03 -0.84349613621E+02  0.35576507403E+03  0.55422767687E+03  0.40000000000E+03 0.  1.
   -9000005    1    1    2    0  503 -0.11612352298E+03  0.84349613621E+02  0.20366201395E+03  0.47125125552E+03  0.40000000000E+03 0.  1.
<mgrwt>
<rscale>  2 0.42497003E+03</rscale>
<asrwt>0</asrwt>
<pdfrwt beam="1">  1       21 0.12191585E+00 0.42497003E+03</pdfrwt>
<pdfrwt beam="2">  1       21 0.35850142E-01 0.42497003E+03</pdfrwt>
<totfact> 0.33403381E+03</totfact>
</mgrwt>
</event>
<event>
 4    1  0.8562541E-003  0.4451363E+03  0.7818608E-02  0.1029182E+00
         21   -1    0    0  503  502  0.00000000000E+00  0.00000000000E+00  0.11169011229E+04  0.11169011229E+04  0.00000000000E+00 0. -1.
         21   -1    0    0  501  503 -0.00000000000E+00 -0.00000000000E+00 -0.17851522253E+03  0.17851522253E+03  0.00000000000E+00 0. -1.
    9000005    1    1    2  501    0  0.18011272021E+03 -0.75536059575E+02  0.52022209112E+03  0.68467314273E+03  0.40000000000E+03 0. -1.
   -9000005    1    1    2    0  502 -0.18011272021E+03  0.75536059575E+02  0.41816380923E+03  0.61074320269E+03  0.40000000000E+03 0. -1.
<mgrwt>
<rscale>  2 0.44513626E+03</rscale>
<asrwt>0</asrwt>
<pdfrwt beam="1">  1       21 0.17183094E+00 0.44513626E+03</pdfrwt>
<pdfrwt beam="2">  1       21 0.27463881E-01 0.44513626E+03</pdfrwt>
<totfact> 0.22414143E+03</totfact>
</mgrwt>
</event>
<event>
 4    1  0.8562541E-003  0.4979675E+03  0.7818608E-02  0.1014311E+00
         21   -1    0    0  501  502  0.00000000000E+00  0.00000000000E+00  0.14453024055E+03  0.14453024055E+03  0.00000000000E+00 0.  1.
         21   -1    0    0  502  503 -0.00000000000E+00 -0.00000000000E+00 -0.19900571949E+04  0.19900571949E+04  0.00000000000E+00 0.  1.
    9000005    1    1    2  501    0  0.24572841021E+03 -0.16609997773E+03 -0.52648250951E+03  0.72467612560E+03  0.40000000000E+03 0.  1.
   -9000005    1    1    2    0  503 -0.24572841021E+03  0.16609997773E+03 -0.13190444449E+04  0.14099113099E+04  0.40000000000E+03 0.  1.
<mgrwt>
<rscale>  2 0.49796752E+03</rscale>
<asrwt>0</asrwt>
<pdfrwt beam="1">  1       21 0.22235422E-01 0.49796752E+03</pdfrwt>
<pdfrwt beam="2">  1       21 0.30616264E+00 0.49796752E+03</pdfrwt>
<totfact> 0.46063123E+02</totfact>
</mgrwt>
</event>
<event>
 4    1  0.8562541E-003  0.6175928E+03  0.7818608E-02  0.9869564E-01
         21   -1    0    0  503  502  0.00000000000E+00  0.00000000000E+00  0.22403607679E+03  0.22403607679E+03  0.00000000000E+00 0. -1.
         21   -1    0    0  501  503 -0.00000000000E+00 -0.00000000000E+00 -0.20089263821E+04  0.20089263821E+04  0.00000000000E+00 0. -1.
    9000005    1    1    2  501    0 -0.16988820542E+02 -0.47024703175E+03 -0.13284930209E+04  0.14650305790E+04  0.40000000000E+03 0. -1.
   -9000005    1    1    2    0  502  0.16988820542E+02  0.47024703175E+03 -0.45639728438E+03  0.76793187984E+03  0.40000000000E+03 0. -1.
<mgrwt>
<rscale>  2 0.61759282E+03</rscale>
<asrwt>0</asrwt>
<pdfrwt beam="1">  1       21 0.34467089E-01 0.61759282E+03</pdfrwt>
<pdfrwt beam="2">  1       21 0.30906559E+00 0.61759282E+03</pdfrwt>
<totfact> 0.17563167E+02</totfact>
</mgrwt>
</event>
<event>
 4    1  0.8562541E-003  0.5889843E+03  0.7818608E-02  0.9928527E-01
         21   -1    0    0  501  502  0.00000000000E+00  0.00000000000E+00  0.10405481095E+04  0.10405481095E+04  0.00000000000E+00 0. -1.
         21   -1    0    0  502  503 -0.00000000000E+00 -0.00000000000E+00 -0.51701333021E+03  0.51701333021E+03  0.00000000000E+00 0.  1.
    9000005    1    1    2  501    0 -0.33500903707E+03 -0.27326081367E+03  0.72589226989E+03  0.93478452849E+03  0.40000000000E+03 0. -1.
   -9000005    1    1    2    0  503  0.33500903707E+03  0.27326081367E+03 -0.20235749057E+03  0.62277691126E+03  0.40000000000E+03 0.  1.
<mgrwt>
<rscale>  2 0.58898432E+03</rscale>
<asrwt>0</asrwt>
<pdfrwt beam="1">  1       21 0.16008432E+00 0.58898432E+03</pdfrwt>
<pdfrwt beam="2">  1       21 0.79540513E-01 0.58898432E+03</pdfrwt>
<totfact> 0.27108979E+02</totfact>
</mgrwt>
</event>
<event>
 4    1  0.8562541E-003  0.7174338E+03  0.7818608E-02  0.9687874E-01
         21   -1    0    0  503  502  0.00000000000E+00  0.00000000000E+00  0.14418729212E+04  0.14418729212E+04  0.00000000000E+00 0. -1.
         21   -1    0    0  501  503 -0.00000000000E+00 -0.00000000000E+00 -0.35748726258E+03  0.35748726258E+03  0.00000000000E+00 0.  1.
    9000005    1    1    2  501    0  0.48530363205E+03  0.34524145636E+03  0.50810587327E+03  0.87913756427E+03  0.40000000000E+03 0.  1.
   -9000005    1    1    2    0  502 -0.48530363205E+03 -0.34524145636E+03  0.57627978539E+03  0.92022261954E+03  0.40000000000E+03 0. -1.
<mgrwt>
<rscale>  2 0.71743381E+03</rscale>
<asrwt>0</asrwt>
<pdfrwt beam="1">  1       21 0.22182660E+00 0.71743381E+03</pdfrwt>
<pdfrwt beam="2">  1       21 0.54998041E-01 0.71743381E+03</pdfrwt>
<totfact> 0.22063140E+02</totfact>
</mgrwt>
</event>
<event>
 4    1  0.8562541E-003  0.5183952E+03  0.7818608E-02  0.1009086E+00
         21   -1    0    0  501  502  0.00000000000E+00  0.00000000000E+00  0.16121896554E+04  0.16121896554E+04  0.00000000000E+00 0. -1.
         21   -1    0    0  502  503 -0.00000000000E+00 -0.00000000000E+00 -0.19157699727E+03  0.19157699727E+03  0.00000000000E+00 0. -1.
    9000005    1    1    2  501    0 -0.13121682543E+02 -0.32948664175E+03  0.10353765611E+04  0.11579025214E+04  0.40000000000E+03 0. -1.
   -9000005    1    1    2    0  503  0.13121682543E+02  0.32948664175E+03  0.38523609694E+03  0.64586413125E+03  0.40000000000E+03 0. -1.
<mgrwt>
<rscale>  2 0.51839524E+03</rscale>
<asrwt>0</asrwt>
<pdfrwt beam="1">  1       21 0.24802917E+00 0.51839524E+03</pdfrwt>
<pdfrwt beam="2">  1       21 0.29473385E-01 0.51839524E+03</pdfrwt>
<totfact> 0.59358177E+02</totfact>
</mgrwt>
</event>
<event>
 4    1  0.8562541E-003  0.4231074E+03  0.7818608E-02  0.1036060E+00
         21   -1    0    0  503  502  0.00000000000E+00  0.00000000000E+00  0.30070957843E+03  0.30070957843E+03  0.00000000000E+00 0.  1.
         21   -1    0    0  501  503 -0.00000000000E+00 -0.00000000000E+00 -0.73367442572E+03  0.73367442572E+03  0.00000000000E+00 0.  1.
    9000005    1    1    2  501    0  0.12862614932E+03 -0.49751537149E+02  0.81068117609E+01  0.42318509205E+03  0.40000000000E+03 0.  1.
   -9000005    1    1    2    0  502 -0.12862614932E+03  0.49751537149E+02 -0.44107165905E+03  0.61119891210E+03  0.40000000000E+03 0.  1.
<mgrwt>
<rscale>  2 0.42310744E+03</rscale>
<asrwt>0</asrwt>
<pdfrwt beam="1">  1       21 0.46263012E-01 0.42310744E+03</pdfrwt>
<pdfrwt beam="2">  1       21 0.11287299E+00 0.42310744E+03</pdfrwt>
<totfact> 0.23980589E+03</totfact>
</mgrwt>
</event>
<event>
 4    1  0.8562541E-003  0.4816055E+03  0.7818608E-02  0.1018695E+00
         21   -1    0    0  501  502  0.00000000000E+00  0.00000000000E+00  0.97514658014E+02  0.97514658014E+02  0.00000000000E+00 0. -1.
         21   -1    0    0  502  503 -0.00000000000E+00 -0.00000000000E+00 -0.25051856605E+04  0.25051856605E+04  0.00000000000E+00 0.  1.
    9000005    1    1    2  501    0 -0.16331377955E+03 -0.21277332717E+03 -0.91125500563E+03  0.10306937298E+04  0.40000000000E+03 0. -1.
   -9000005    1    1    2    0  503  0.16331377955E+03  0.21277332717E+03 -0.14964159969E+04  0.15720065887E+04  0.40000000000E+03 0.  1.
<mgrwt>
<rscale>  2 0.48160552E+03</rscale>
<asrwt>0</asrwt>
<pdfrwt beam="1">  1       21 0.15002255E-01 0.48160552E+03</pdfrwt>
<pdfrwt beam="2">  1       21 0.38541319E+00 0.48160552E+03</pdfrwt>
<totfact> 0.31809919E+02</totfact>
</mgrwt>
</event>
<event>
 4    1  0.8562541E-003  0.4655786E+03  0.7818608E-02  0.1023176E+00
         21   -1    0    0  501  502  0.00000000000E+00  0.00000000000E+00  0.35493594180E+04  0.35493594180E+04  0.00000000000E+00 0. -1.
         21   -1    0    0  502  503 -0.00000000000E+00 -0.00000000000E+00 -0.62000140340E+02  0.62000140340E+02  0.00000000000E+00 0. -1.
    9000005    1    1    2  501    0 -0.17178536818E+03  0.16508537063E+03  0.19647113308E+04  0.20191220878E+04  0.40000000000E+03 0. -1.
   -9000005    1    1    2    0  503  0.17178536818E+03 -0.16508537063E+03  0.15226479469E+04  0.15922374705E+04  0.40000000000E+03 0. -1.
<mgrwt>
<rscale>  2 0.46557856E+03</rscale>
<asrwt>0</asrwt>
<pdfrwt beam="1">  1       21 0.54605514E+00 0.46557856E+03</pdfrwt>
<pdfrwt beam="2">  1       21 0.95384859E-02 0.46557856E+03</pdfrwt>
<totfact> 0.57365775E+01</totfact>
</mgrwt>
</event>
<event>
 4    1  0.8562541E-003  0.4190342E+03  0.7818608E-02  0.1037381E+00
         21   -1    0    0  503  502  0.00000000000E+00  0.00000000000E+00  0.21004358527E+03  0.21004358527E+03  0.00000000000E+00 0.  1.
         21   -1    0    0  501  503 -0.00000000000E+00 -0.00000000000E+00 -0.90284697924E+03  0.90284697924E+03  0.00000000000E+00 0.  1.
    9000005    1    1    2  501    0 -0.12425561711E+03 -0.12254042952E+02 -0.19495434261E+03  0.46216535532E+03  0.40000000000E+03 0.  1.
   -9000005    1    1    2    0  502  0.12425561711E+03  0.12254042952E+02 -0.49784905136E+03  0.65072520920E+03  0.40000000000E+03 0.  1.
<mgrwt>
<rscale>  2 0.41903415E+03</rscale>
<asrwt>0</asrwt>
<pdfrwt beam="1">  1       21 0.32314398E-01 0.41903415E+03</pdfrwt>
<pdfrwt beam="2">  1       21 0.13889953E+00 0.41903415E+03</pdfrwt>
<totfact> 0.29427779E+03</totfact>
</mgrwt>
</event>
<event>
 4    1  0.8562541E-003  0.4501393E+03  0.7818608E-02  0.1027681E+00
         21   -1    0    0  503  502  0.00000000000E+00  0.00000000000E+00  0.26103810459E+03  0.26103810459E+03  0.00000000000E+00 0. -1.
         21   -1    0    0  501  503 -0.00000000000E+00 -0.00000000000E+00 -0.87233697220E+03  0.87233697220E+03  0.00000000000E+00 0. -1.
    9000005    1    1    2  501    0  0.20546384163E+03 -0.20247509692E+02 -0.49374613830E+03  0.66813965678E+03  0.40000000000E+03 0. -1.
   -9000005    1    1    2    0  502 -0.20546384163E+03  0.20247509692E+02 -0.11755272931E+03  0.46523542001E+03  0.40000000000E+03 0. -1.
<mgrwt>
<rscale>  2 0.45013926E+03</rscale>
<asrwt>0</asrwt>
<pdfrwt beam="1">  1       21 0.40159708E-01 0.45013926E+03</pdfrwt>
<pdfrwt beam="2">  1       21 0.13420569E+00 0.45013926E+03</pdfrwt>
<totfact> 0.20469386E+03</totfact>
</mgrwt>
</event>
<event>
 4    1  0.8562541E-003  0.4562195E+03  0.7818608E-02  0.1025883E+00
         21   -1    0    0  503  502  0.00000000000E+00  0.00000000000E+00  0.11958660158E+04  0.11958660158E+04  0.00000000000E+00 0. -1.
         21   -1    0    0  501  503 -0.00000000000E+00 -0.00000000000E+00 -0.46210781955E+03  0.46210781955E+03  0.00000000000E+00 0. -1.
    9000005    1    1    2  501    0 -0.57135403355E+02  0.21182952601E+03 -0.28763431209E+03  0.53932337229E+03  0.40000000000E+03 0. -1.
   -9000005    1    1    2    0  502  0.57135403355E+02 -0.21182952601E+03  0.10213925084E+04  0.11186504631E+04  0.40000000000E+03 0. -1.
<mgrwt>
<rscale>  2 0.45621947E+03</rscale>
<asrwt>0</asrwt>
<pdfrwt beam="1">  1       21 0.18397939E+00 0.45621947E+03</pdfrwt>
<pdfrwt beam="2">  1       21 0.71093511E-01 0.45621947E+03</pdfrwt>
<totfact> 0.24885881E+02</totfact>
</mgrwt>
</event>
<event>
 4    1  0.8562541E-003  0.5583046E+03  0.7818608E-02  0.9995898E-01
         21   -1    0    0  501  502  0.00000000000E+00  0.00000000000E+00  0.11908184831E+03  0.11908184831E+03  0.00000000000E+00 0.  1.
         21   -1    0    0  502  503 -0.00000000000E+00 -0.00000000000E+00 -0.31927853549E+04  0.31927853549E+04  0.00000000000E+00 0.  1.
    9000005    1    1    2  501    0 -0.33196496144E+03 -0.20372345730E+03 -0.22397245762E+04  0.23082612850E+04  0.40000000000E+03 0.  1.
   -9000005    1    1    2    0  503  0.33196496144E+03  0.20372345730E+03 -0.83397893039E+03  0.10036059182E+04  0.40000000000E+03 0.  1.
<mgrwt>
<rscale>  2 0.55830456E+03</rscale>
<asrwt>0</asrwt>
<pdfrwt beam="1">  1       21 0.18320285E-01 0.55830456E+03</pdfrwt>
<pdfrwt beam="2">  1       21 0.49119772E+00 0.55830456E+03</pdfrwt>
<totfact> 0.40774989E+01</totfact>
</mgrwt>
</event>
<event>
 4    1  0.8562541E-003  0.4114897E+03  0.7818608E-02  0.1039872E+00
         21   -1    0    0  503  502  0.00000000000E+00  0.00000000000E+00  0.46787520288E+03  0.46787520288E+03  0.00000000000E+00 0.  1.
         21   -1    0    0  501  503 -0.00000000000E+00 -0.00000000000E+00 -0.37767018030E+03  0.37767018030E+03  0.00000000000E+00 0.  1.
    9000005    1    1    2  501    0 -0.91935778373E+02  0.29521978649E+02 -0.41290333896E+02  0.41355607388E+03  0.40000000000E+03 0. -1.
   -9000005    1    1    2    0  502  0.91935778373E+02 -0.29521978649E+02  0.13149535648E+03  0.43198930929E+03  0.40000000000E+03 0. -1.
<mgrwt>
<rscale>  2 0.41148965E+03</rscale>
<asrwt>0</asrwt>
<pdfrwt beam="1">  1       21 0.71980801E-01 0.41148965E+03</pdfrwt>
<pdfrwt beam="2">  1       21 0.58103104E-01 0.41148965E+03</pdfrwt>
<totfact> 0.42989048E+03</totfact>
</mgrwt>
</event>
<event>
 4    1  0.8562541E-003  0.6273416E+03  0.7818608E-02  0.9850250E-01
         21   -1    0    0  501  502  0.00000000000E+00  0.00000000000E+00  0.70830864592E+03  0.70830864592E+03  0.00000000000E+00 0. -1.
         21   -1    0    0  502  503 -0.00000000000E+00 -0.00000000000E+00 -0.55886423053E+03  0.55886423053E+03  0.00000000000E+00 0. -1.
    9000005    1    1    2  501    0 -0.43171018684E+03  0.21721818530E+03  0.26522057654E+02  0.62790193899E+03  0.40000000000E+03 0. -1.
   -9000005    1    1    2    0  503  0.43171018684E+03 -0.21721818530E+03  0.12292235774E+03  0.63927093746E+03  0.40000000000E+03 0. -1.
<mgrwt>
<rscale>  2 0.62734155E+03</rscale>
<asrwt>0</asrwt>
<pdfrwt beam="1">  1       21 0.10897056E+00 0.62734155E+03</pdfrwt>
<pdfrwt beam="2">  1       21 0.85979112E-01 0.62734155E+03</pdfrwt>
<totfact> 0.61546760E+02</totfact>
</mgrwt>
</event>
<event>
 4    1  0.8562541E-003  0.5236803E+03  0.7818608E-02  0.1007776E+00
         21   -1    0    0  501  502  0.00000000000E+00  0.00000000000E+00  0.37950300262E+03  0.37950300262E+03  0.00000000000E+00 0.  1.
         21   -1    0    0  502  503 -0.00000000000E+00 -0.00000000000E+00 -0.11261555174E+04  0.11261555174E+04  0.00000000000E+00 0. -1.
    9000005    1    1    2  501    0 -0.11620997694E+03 -0.31738987126E+03  0.77315699717E+02  0.52935697459E+03  0.40000000000E+03 0.  1.
   -9000005    1    1    2    0  503  0.11620997694E+03  0.31738987126E+03 -0.82396821453E+03  0.97630154547E+03  0.40000000000E+03 0. -1.
<mgrwt>
<rscale>  2 0.52368033E+03</rscale>
<asrwt>0</asrwt>
<pdfrwt beam="1">  1       21 0.58385079E-01 0.52368033E+03</pdfrwt>
<pdfrwt beam="2">  1       21 0.17325469E+00 0.52368033E+03</pdfrwt>
<totfact> 0.44562632E+02</totfact>
</mgrwt>
</event>
<event>
 4    1  0.8562541E-003  0.4805395E+03  0.7818608E-02  0.1018987E+00
         21   -1    0    0  501  502  0.00000000000E+00  0.00000000000E+00  0.50887295239E+03  0.50887295239E+03  0.00000000000E+00 0. -1.
         21   -1    0    0  502  503 -0.00000000000E+00 -0.00000000000E+00 -0.47205167362E+03  0.47205167362E+03  0.00000000000E+00 0. -1.
    9000005    1    1    2  501    0  0.21506422638E+03  0.15705286035E+03 -0.78073678431E+02  0.48684055057E+03  0.40000000000E+03 0. -1.
   -9000005    1    1    2    0  503 -0.21506422638E+03 -0.15705286035E+03  0.11489495720E+03  0.49408407544E+03  0.40000000000E+03 0. -1.
<mgrwt>
<rscale>  2 0.48053951E+03</rscale>
<asrwt>0</asrwt>
<pdfrwt beam="1">  1       21 0.78288146E-01 0.48053951E+03</pdfrwt>
<pdfrwt beam="2">  1       21 0.72623335E-01 0.48053951E+03</pdfrwt>
<totfact> 0.21094526E+03</totfact>
</mgrwt>
</event>
<event>
 4    1  0.8562541E-003  0.4393375E+03  0.7818608E-02  0.1030950E+00
         21   -1    0    0  503  502  0.00000000000E+00  0.00000000000E+00  0.15369546098E+03  0.15369546098E+03  0.00000000000E+00 0. -1.
         21   -1    0    0  501  503 -0.00000000000E+00 -0.00000000000E+00 -0.23015173663E+04  0.23015173663E+04  0.00000000000E+00 0.  1.
    9000005    1    1    2  501    0  0.10452513182E+03 -0.14863354244E+03 -0.19013769654E+04  0.19514742627E+04  0.40000000000E+03 0.  1.
   -9000005    1    1    2    0  502 -0.10452513182E+03  0.14863354244E+03 -0.24644493993E+03  0.50373856467E+03  0.40000000000E+03 0. -1.
<mgrwt>
<rscale>  2 0.43933749E+03</rscale>
<asrwt>0</asrwt>
<pdfrwt beam="1">  1       21 0.23645454E-01 0.43933749E+03</pdfrwt>
<pdfrwt beam="2">  1       21 0.35407962E+00 0.43933749E+03</pdfrwt>
<totfact> 0.21653017E+02</totfact>
</mgrwt>
</event>
<event>
 4    1  0.8562541E-003  0.4585961E+03  0.7818608E-02  0.1025189E+00
         21   -1    0    0  501  502  0.00000000000E+00  0.00000000000E+00  0.29431896320E+03  0.29431896320E+03  0.00000000000E+00 0.  1.
         21   -1    0    0  502  503 -0.00000000000E+00 -0.00000000000E+00 -0.71527054160E+03  0.71527054160E+03  0.00000000000E+00 0. -1.
    9000005    1    1    2  501    0 -0.18395675909E+03  0.12833677644E+03 -0.22631506858E+03  0.51139899068E+03  0.40000000000E+03 0. -1.
   -9000005    1    1    2    0  503  0.18395675909E+03 -0.12833677644E+03 -0.19463650981E+03  0.49819051412E+03  0.40000000000E+03 0. -1.
<mgrwt>
<rscale>  2 0.45859614E+03</rscale>
<asrwt>0</asrwt>
<pdfrwt beam="1">  1       21 0.45279841E-01 0.45859614E+03</pdfrwt>
<pdfrwt beam="2">  1       21 0.11004162E+00 0.45859614E+03</pdfrwt>
<totfact> 0.26366420E+03</totfact>
</mgrwt>
</event>
<event>
 4    1  0.8562541E-003  0.4506706E+03  0.7818608E-02  0.1027522E+00
         21   -1    0    0  503  502  0.00000000000E+00  0.00000000000E+00  0.49031403315E+03  0.49031403315E+03  0.00000000000E+00 0.  1.
         21   -1    0    0  501  503 -0.00000000000E+00 -0.00000000000E+00 -0.41727205639E+03  0.41727205639E+03  0.00000000000E+00 0. -1.
    9000005    1    1    2  501    0  0.20706292506E+03 -0.15130383960E+02  0.75251820248E+02  0.45691007858E+03  0.40000000000E+03 0. -1.
   -9000005    1    1    2    0  502 -0.20706292506E+03  0.15130383960E+02 -0.22098434930E+01  0.45067601097E+03  0.40000000000E+03 0.  1.
<mgrwt>
<rscale>  2 0.45067059E+03</rscale>
<asrwt>0</asrwt>
<pdfrwt beam="1">  1       21 0.75432928E-01 0.45067059E+03</pdfrwt>
<pdfrwt beam="2">  1       21 0.64195701E-01 0.45067059E+03</pdfrwt>
<totfact> 0.30614740E+03</totfact>
</mgrwt>
</event>
<event>
 4    1  0.8562541E-003  0.4132065E+03  0.7818608E-02  0.1039300E+00
         21   -1    0    0  501  502  0.00000000000E+00  0.00000000000E+00  0.15773951351E+04  0.15773951351E+04  0.00000000000E+00 0. -1.
         21   -1    0    0  502  503 -0.00000000000E+00 -0.00000000000E+00 -0.11412483387E+03  0.11412483387E+03  0.00000000000E+00 0. -1.
    9000005    1    1    2  501    0  0.54911247835E+02  0.87888363423E+02  0.53960521291E+03  0.67964210829E+03  0.40000000000E+03 0. -1.
   -9000005    1    1    2    0  503 -0.54911247835E+02 -0.87888363423E+02  0.92366508833E+03  0.10118778607E+04  0.40000000000E+03 0. -1.
<mgrwt>
<rscale>  2 0.41320650E+03</rscale>
<asrwt>0</asrwt>
<pdfrwt beam="1">  1       21 0.24267616E+00 0.41320650E+03</pdfrwt>
<pdfrwt beam="2">  1       21 0.17557668E-01 0.41320650E+03</pdfrwt>
<totfact> 0.18296758E+03</totfact>
</mgrwt>
</event>
<event>
 4    1  0.8562541E-003  0.4183215E+03  0.7818608E-02  0.1037614E+00
         21   -1    0    0  501  502  0.00000000000E+00  0.00000000000E+00  0.96589654711E+03  0.96589654711E+03  0.00000000000E+00 0. -1.
         21   -1    0    0  502  503 -0.00000000000E+00 -0.00000000000E+00 -0.18713492182E+03  0.18713492182E+03  0.00000000000E+00 0.  1.
    9000005    1    1    2  501    0 -0.12093052363E+03 -0.19201556495E+02  0.28646482933E+03  0.50700590702E+03  0.40000000000E+03 0.  1.
   -9000005    1    1    2    0  503  0.12093052363E+03  0.19201556495E+02  0.49229679596E+03  0.64602556190E+03  0.40000000000E+03 0. -1.
<mgrwt>
<rscale>  2 0.41832152E+03</rscale>
<asrwt>0</asrwt>
<pdfrwt beam="1">  1       21 0.14859947E+00 0.41832152E+03</pdfrwt>
<pdfrwt beam="2">  1       21 0.28789988E-01 0.41832152E+03</pdfrwt>
<totfact> 0.30913160E+03</totfact>
</mgrwt>
</event>
<event>
 4    1  0.8562541E-003  0.8696906E+03  0.7818608E-02  0.9464283E-01
         21   -1    0    0  501  502  0.00000000000E+00  0.00000000000E+00  0.10831146378E+04  0.10831146378E+04  0.00000000000E+00 0.  1.
         21   -1    0    0  502  503 -0.00000000000E+00 -0.00000000000E+00 -0.70712522554E+03  0.70712522554E+03  0.00000000000E+00 0. -1.
    9000005    1    1    2  501    0  0.76448932372E+03 -0.10916860406E+03  0.88114750244E+02  0.87414296279E+03  0.40000000000E+03 0. -1.
   -9000005    1    1    2    0  503 -0.76448932372E+03  0.10916860406E+03  0.28787466202E+03  0.91609690056E+03  0.40000000000E+03 0.  1.
<mgrwt>
<rscale>  2 0.86969058E+03</rscale>
<asrwt>0</asrwt>
<pdfrwt beam="1">  1       21 0.16663302E+00 0.86969058E+03</pdfrwt>
<pdfrwt beam="2">  1       21 0.10878850E+00 0.86969058E+03</pdfrwt>
<totfact> 0.10382553E+02</totfact>
</mgrwt>
</event>
<event>
 4    1  0.8562541E-003  0.4789086E+03  0.7818608E-02  0.1019436E+00
         21   -1    0    0  501  502  0.00000000000E+00  0.00000000000E+00  0.19284858359E+03  0.19284858359E+03  0.00000000000E+00 0. -1.
         21   -1    0    0  502  503 -0.00000000000E+00 -0.00000000000E+00 -0.12268518580E+04  0.12268518580E+04  0.00000000000E+00 0.  1.
    9000005    1    1    2  501    0 -0.37119281220E+02 -0.26072135874E+03 -0.64120316152E+03  0.80030929164E+03  0.40000000000E+03 0. -1.
   -9000005    1    1    2    0  503  0.37119281220E+02  0.26072135874E+03 -0.39280011290E+03  0.61939114995E+03  0.40000000000E+03 0. -1.
<mgrwt>
<rscale>  2 0.47890862E+03</rscale>
<asrwt>0</asrwt>
<pdfrwt beam="1">  1       21 0.29669012E-01 0.47890862E+03</pdfrwt>
<pdfrwt beam="2">  1       21 0.18874644E+00 0.47890862E+03</pdfrwt>
<totfact> 0.14418239E+03</totfact>
</mgrwt>
</event>
<event>
 4    1  0.8562541E-003  0.4028601E+03  0.7818608E-02  0.1042794E+00
         21   -1    0    0  503  502  0.00000000000E+00  0.00000000000E+00  0.11960751701E+04  0.11960751701E+04  0.00000000000E+00 0. -1.
         21   -1    0    0  501  503 -0.00000000000E+00 -0.00000000000E+00 -0.13757138258E+03  0.13757138258E+03  0.00000000000E+00 0. -1.
    9000005    1    1    2  501    0  0.28271411789E+02 -0.38690967502E+02  0.45128580570E+03  0.60494226346E+03  0.40000000000E+03 0.  1.
   -9000005    1    1    2    0  502 -0.28271411789E+02  0.38690967502E+02  0.60721798184E+03  0.72870428924E+03  0.40000000000E+03 0.  1.
<mgrwt>
<rscale>  2 0.40286010E+03</rscale>
<asrwt>0</asrwt>
<pdfrwt beam="1">  1       21 0.18401156E+00 0.40286010E+03</pdfrwt>
<pdfrwt beam="2">  1       21 0.21164829E-01 0.40286010E+03</pdfrwt>
<totfact> 0.30986668E+03</totfact>
</mgrwt>
</event>
<event>
 4    1  0.8562541E-003  0.5184359E+03  0.7818608E-02  0.1009076E+00
         21   -1    0    0  503  502  0.00000000000E+00  0.00000000000E+00  0.19696234744E+04  0.19696234744E+04  0.00000000000E+00 0.  1.
         21   -1    0    0  501  503 -0.00000000000E+00 -0.00000000000E+00 -0.31848922444E+03  0.31848922444E+03  0.00000000000E+00 0.  1.
    9000005    1    1    2  501    0  0.28170177312E+03  0.17152226851E+03 -0.39341091983E+02  0.51992643623E+03  0.40000000000E+03 0.  1.
   -9000005    1    1    2    0  502 -0.28170177312E+03 -0.17152226851E+03  0.16904753420E+04  0.17681862626E+04  0.40000000000E+03 0.  1.
<mgrwt>
<rscale>  2 0.51843590E+03</rscale>
<asrwt>0</asrwt>
<pdfrwt beam="1">  1       21 0.30301899E+00 0.51843590E+03</pdfrwt>
<pdfrwt beam="2">  1       21 0.48998343E-01 0.51843590E+03</pdfrwt>
<totfact> 0.96609234E+01</totfact>
</mgrwt>
</event>
<event>
 4    1  0.8562541E-003  0.4227446E+03  0.7818608E-02  0.1036177E+00
         21   -1    0    0  501  502  0.00000000000E+00  0.00000000000E+00  0.30879278346E+03  0.30879278346E+03  0.00000000000E+00 0. -1.
         21   -1    0    0  502  503 -0.00000000000E+00 -0.00000000000E+00 -0.58149587365E+03  0.58149587365E+03  0.00000000000E+00 0. -1.
    9000005    1    1    2  501    0  0.29423653233E+02 -0.13359342843E+03 -0.10574671557E+03  0.43576980545E+03  0.40000000000E+03 0. -1.
   -9000005    1    1    2    0  503 -0.29423653233E+02  0.13359342843E+03 -0.16695637462E+03  0.45451885166E+03  0.40000000000E+03 0. -1.
<mgrwt>
<rscale>  2 0.42274455E+03</rscale>
<asrwt>0</asrwt>
<pdfrwt beam="1">  1       21 0.47506583E-01 0.42274455E+03</pdfrwt>
<pdfrwt beam="2">  1       21 0.89460902E-01 0.42274455E+03</pdfrwt>
<totfact> 0.39882148E+03</totfact>
</mgrwt>
</event>
<event>
 4    1  0.8562541E-003  0.6771493E+03  0.7818608E-02  0.9757128E-01
         21   -1    0    0  503  502  0.00000000000E+00  0.00000000000E+00  0.78850967272E+03  0.78850967272E+03  0.00000000000E+00 0. -1.
         21   -1    0    0  501  503 -0.00000000000E+00 -0.00000000000E+00 -0.58183688974E+03  0.58183688974E+03  0.00000000000E+00 0.  1.
    9000005    1    1    2  501    0  0.44189237174E+03 -0.32134462504E+03  0.87253393945E+02  0.68274767741E+03  0.40000000000E+03 0.  1.
   -9000005    1    1    2    0  502 -0.44189237174E+03  0.32134462504E+03  0.11941938904E+03  0.68759888505E+03  0.40000000000E+03 0.  1.
<mgrwt>
<rscale>  2 0.67714935E+03</rscale>
<asrwt>0</asrwt>
<pdfrwt beam="1">  1       21 0.12130918E+00 0.67714935E+03</pdfrwt>
<pdfrwt beam="2">  1       21 0.89513368E-01 0.67714935E+03</pdfrwt>
<totfact> 0.41987294E+02</totfact>
</mgrwt>
</event>
<event>
 4    1  0.8562541E-003  0.6362908E+03  0.7818608E-02  0.9832849E-01
         21   -1    0    0  501  502  0.00000000000E+00  0.00000000000E+00  0.69754781087E+03  0.69754781087E+03  0.00000000000E+00 0. -1.
         21   -1    0    0  502  503 -0.00000000000E+00 -0.00000000000E+00 -0.58051639382E+03  0.58051639382E+03  0.00000000000E+00 0.  1.
    9000005    1    1    2  501    0 -0.48617202596E+03  0.92210036840E+02  0.67037378902E+02  0.63981242555E+03  0.40000000000E+03 0.  1.
   -9000005    1    1    2    0  503  0.48617202596E+03 -0.92210036840E+02  0.49994038157E+02  0.63825177914E+03  0.40000000000E+03 0. -1.
<mgrwt>
<rscale>  2 0.63629076E+03</rscale>
<asrwt>0</asrwt>
<pdfrwt beam="1">  1       21 0.10731505E+00 0.63629076E+03</pdfrwt>
<pdfrwt beam="2">  1       21 0.89310215E-01 0.63629076E+03</pdfrwt>
<totfact> 0.58267368E+02</totfact>
</mgrwt>
</event>
<event>
 4    1  0.8562541E-003  0.4217000E+03  0.7818608E-02  0.1036514E+00
         21   -1    0    0  501  502  0.00000000000E+00  0.00000000000E+00  0.53798783859E+03  0.53798783859E+03  0.00000000000E+00 0. -1.
         21   -1    0    0  502  503 -0.00000000000E+00 -0.00000000000E+00 -0.34153728823E+03  0.34153728823E+03  0.00000000000E+00 0. -1.
    9000005    1    1    2  501    0  0.12395464339E+03  0.49660556810E+02  0.17710757258E+03  0.45738169704E+03  0.40000000000E+03 0.  1.
   -9000005    1    1    2    0  503 -0.12395464339E+03 -0.49660556810E+02  0.19342977789E+02  0.42214342979E+03  0.40000000000E+03 0.  1.
<mgrwt>
<rscale>  2 0.42170004E+03</rscale>
<asrwt>0</asrwt>
<pdfrwt beam="1">  1       21 0.82767360E-01 0.42170004E+03</pdfrwt>
<pdfrwt beam="2">  1       21 0.52544198E-01 0.42170004E+03</pdfrwt>
<totfact> 0.38643640E+03</totfact>
</mgrwt>
</event>
<event>
 4    1  0.8562541E-003  0.4878312E+03  0.7818608E-02  0.1017005E+00
         21   -1    0    0  501  502  0.00000000000E+00  0.00000000000E+00  0.10579403885E+03  0.10579403885E+03  0.00000000000E+00 0. -1.
         21   -1    0    0  502  503 -0.00000000000E+00 -0.00000000000E+00 -0.22501003065E+04  0.22501003065E+04  0.00000000000E+00 0. -1.
    9000005    1    1    2  501    0 -0.21809699182E+03  0.17439305728E+03 -0.10522495866E+04  0.11598312070E+04  0.40000000000E+03 0.  1.
   -9000005    1    1    2    0  503  0.21809699182E+03 -0.17439305728E+03 -0.10920566811E+04  0.11960631384E+04  0.40000000000E+03 0.  1.
<mgrwt>
<rscale>  2 0.48783116E+03</rscale>
<asrwt>0</asrwt>
<pdfrwt beam="1">  1       21 0.16276007E-01 0.48783116E+03</pdfrwt>
<pdfrwt beam="2">  1       21 0.34616926E+00 0.48783116E+03</pdfrwt>
<totfact> 0.47820513E+02</totfact>
</mgrwt>
</event>
<event>
 4    1  0.8562541E-003  0.5705624E+03  0.7818608E-02  0.9968435E-01
         21   -1    0    0  501  502  0.00000000000E+00  0.00000000000E+00  0.21779206309E+03  0.21779206309E+03  0.00000000000E+00 0. -1.
         21   -1    0    0  502  503 -0.00000000000E+00 -0.00000000000E+00 -0.14976599483E+04  0.14976599483E+04  0.00000000000E+00 0. -1.
    9000005    1    1    2  501    0 -0.30802369588E+03 -0.26582492818E+03 -0.67783725141E+03  0.88600498253E+03  0.40000000000E+03 0. -1.
   -9000005    1    1    2    0  503  0.30802369588E+03  0.26582492818E+03 -0.60203063383E+03  0.82944702889E+03  0.40000000000E+03 0. -1.
<mgrwt>
<rscale>  2 0.57056243E+03</rscale>
<asrwt>0</asrwt>
<pdfrwt beam="1">  1       21 0.33506470E-01 0.57056243E+03</pdfrwt>
<pdfrwt beam="2">  1       21 0.23040923E+00 0.57056243E+03</pdfrwt>
<totfact> 0.57914816E+02</totfact>
</mgrwt>
</event>
<event>
 4    1  0.8562541E-003  0.4298654E+03  0.7818608E-02  0.1033902E+00
         21   -1    0    0  501  502  0.00000000000E+00  0.00000000000E+00  0.28417427249E+03  0.28417427249E+03  0.00000000000E+00 0.  1.
         21   -1    0    0  502  503 -0.00000000000E+00 -0.00000000000E+00 -0.99012346983E+03  0.99012346983E+03  0.00000000000E+00 0.  1.
    9000005    1    1    2  501    0 -0.68972405938E+02  0.14151713476E+03  0.20322777289E+02  0.43034556752E+03  0.40000000000E+03 0.  1.
   -9000005    1    1    2    0  503  0.68972405938E+02 -0.14151713476E+03 -0.72627197463E+03  0.84395217479E+03  0.40000000000E+03 0.  1.
<mgrwt>
<rscale>  2 0.42986544E+03</rscale>
<asrwt>0</asrwt>
<pdfrwt beam="1">  1       21 0.43719119E-01 0.42986544E+03</pdfrwt>
<pdfrwt beam="2">  1       21 0.15232669E+00 0.42986544E+03</pdfrwt>
<totfact> 0.12337186E+03</totfact>
</mgrwt>
</event>
<event>
 4    1  0.8562541E-003  0.5060759E+03  0.7818608E-02  0.1012205E+00
         21   -1    0    0  501  502  0.00000000000E+00  0.00000000000E+00  0.30675646868E+03  0.30675646868E+03  0.00000000000E+00 0. -1.
         21   -1    0    0  502  503 -0.00000000000E+00 -0.00000000000E+00 -0.92919685759E+03  0.92919685759E+03  0.00000000000E+00 0. -1.
    9000005    1    1    2  501    0  0.22673811985E+03  0.21143008351E+03 -0.50807803153E+03  0.71711654655E+03  0.40000000000E+03 0. -1.
   -9000005    1    1    2    0  503 -0.22673811985E+03 -0.21143008351E+03 -0.11436235737E+03  0.51883677972E+03  0.40000000000E+03 0. -1.
<mgrwt>
<rscale>  2 0.50607594E+03</rscale>
<asrwt>0</asrwt>
<pdfrwt beam="1">  1       21 0.47193303E-01 0.50607594E+03</pdfrwt>
<pdfrwt beam="2">  1       21 0.14295336E+00 0.50607594E+03</pdfrwt>
<totfact> 0.12100008E+03</totfact>
</mgrwt>
</event>
<event>
 4    1  0.8562541E-003  0.5846096E+03  0.7818608E-02  0.9937861E-01
         21   -1    0    0  501  502  0.00000000000E+00  0.00000000000E+00  0.35606123550E+03  0.35606123550E+03  0.00000000000E+00 0. -1.
         21   -1    0    0  502  503 -0.00000000000E+00 -0.00000000000E+00 -0.96015262041E+03  0.96015262041E+03  0.00000000000E+00 0.  1.
    9000005    1    1    2  501    0  0.38487394766E+03 -0.18341316189E+03 -0.31356729831E+03  0.66339490058E+03  0.40000000000E+03 0.  1.
   -9000005    1    1    2    0  503 -0.38487394766E+03  0.18341316189E+03 -0.29052408660E+03  0.65281895533E+03  0.40000000000E+03 0. -1.
<mgrwt>
<rscale>  2 0.58460957E+03</rscale>
<asrwt>0</asrwt>
<pdfrwt beam="1">  1       21 0.54778653E-01 0.58460957E+03</pdfrwt>
<pdfrwt beam="2">  1       21 0.14771578E+00 0.58460957E+03</pdfrwt>
<totfact> 0.78296949E+02</totfact>
</mgrwt>
</event>
<event>
 4    1  0.8562541E-003  0.4774716E+03  0.7818608E-02  0.1019832E+00
         21   -1    0    0  501  502  0.00000000000E+00  0.00000000000E+00  0.78767038804E+03  0.78767038804E+03  0.00000000000E+00 0. -1.
         21   -1    0    0  502  503 -0.00000000000E+00 -0.00000000000E+00 -0.32334218416E+03  0.32334218416E+03  0.00000000000E+00 0. -1.
    9000005    1    1    2  501    0  0.89897678104E+02 -0.24473978245E+03  0.41205346614E+03  0.63068788842E+03  0.40000000000E+03 0. -1.
   -9000005    1    1    2    0  503 -0.89897678104E+02  0.24473978245E+03  0.52274737738E+02  0.48032468378E+03  0.40000000000E+03 0. -1.
<mgrwt>
<rscale>  2 0.47747163E+03</rscale>
<asrwt>0</asrwt>
<pdfrwt beam="1">  1       21 0.12118006E+00 0.47747163E+03</pdfrwt>
<pdfrwt beam="2">  1       21 0.49744952E-01 0.47747163E+03</pdfrwt>
<totfact> 0.16848211E+03</totfact>
</mgrwt>
</event>
<event>
 4    1  0.8562541E-003  0.6147536E+03  0.7818608E-02  0.9875261E-01
         21   -1    0    0  501  502  0.00000000000E+00  0.00000000000E+00  0.53150671370E+03  0.53150671370E+03  0.00000000000E+00 0.  1.
         21   -1    0    0  502  503 -0.00000000000E+00 -0.00000000000E+00 -0.78317056176E+03  0.78317056176E+03  0.00000000000E+00 0.  1.
    9000005    1    1    2  501    0 -0.41268642871E+03 -0.21820157832E+03  0.73659194679E+02  0.61915078469E+03  0.40000000000E+03 0.  1.
   -9000005    1    1    2    0  503  0.41268642871E+03  0.21820157832E+03 -0.32532304273E+03  0.69552649077E+03  0.40000000000E+03 0.  1.
<mgrwt>
<rscale>  2 0.61475362E+03</rscale>
<asrwt>0</asrwt>
<pdfrwt beam="1">  1       21 0.81770264E-01 0.61475362E+03</pdfrwt>
<pdfrwt beam="2">  1       21 0.12048778E+00 0.61475362E+03</pdfrwt>
<totfact> 0.53940158E+02</totfact>
</mgrwt>
</event>
<event>
 4    1  0.8562541E-003  0.5378904E+03  0.7818608E-02  0.1004336E+00
         21   -1    0    0  503  502  0.00000000000E+00  0.00000000000E+00  0.38677799919E+03  0.38677799919E+03  0.00000000000E+00 0.  1.
         21   -1    0    0  501  503 -0.00000000000E+00 -0.00000000000E+00 -0.83802819606E+03  0.83802819606E+03  0.00000000000E+00 0. -1.
    9000005    1    1    2  501    0  0.27626283704E+03  0.23022795372E+03 -0.24948480650E+02  0.53846865507E+03  0.40000000000E+03 0.  1.
   -9000005    1    1    2    0  502 -0.27626283704E+03 -0.23022795372E+03 -0.42630171623E+03  0.68633754018E+03  0.40000000000E+03 0. -1.
<mgrwt>
<rscale>  2 0.53789038E+03</rscale>
<asrwt>0</asrwt>
<pdfrwt beam="1">  1       21 0.59504308E-01 0.53789038E+03</pdfrwt>
<pdfrwt beam="2">  1       21 0.12892741E+00 0.53789038E+03</pdfrwt>
<totfact> 0.95403734E+02</totfact>
</mgrwt>
</event>
<event>
 4    1  0.8562541E-003  0.6798448E+03  0.7818608E-02  0.9752335E-01
         21   -1    0    0  501  502  0.00000000000E+00  0.00000000000E+00  0.14787610674E+04  0.14787610674E+04  0.00000000000E+00 0. -1.
         21   -1    0    0  502  503 -0.00000000000E+00 -0.00000000000E+00 -0.33598361857E+03  0.33598361857E+03  0.00000000000E+00 0. -1.
    9000005    1    1    2  501    0 -0.54963767256E+03  0.93444010304E+01  0.81101414944E+03  0.10582687936E+04  0.40000000000E+03 0. -1.
   -9000005    1    1    2    0  503  0.54963767256E+03 -0.93444010304E+01  0.33176329944E+03  0.75647589240E+03  0.40000000000E+03 0. -1.
<mgrwt>
<rscale>  2 0.67984475E+03</rscale>
<asrwt>0</asrwt>
<pdfrwt beam="1">  1       21 0.22750170E+00 0.67984475E+03</pdfrwt>
<pdfrwt beam="2">  1       21 0.51689788E-01 0.67984475E+03</pdfrwt>
<totfact> 0.23496460E+02</totfact>
</mgrwt>
</event>
<event>
 4    1  0.8562541E-003  0.4001152E+03  0.7818608E-02  0.1043740E+00
         21   -1    0    0  501  502  0.00000000000E+00  0.00000000000E+00  0.41570185788E+03  0.41570185788E+03  0.00000000000E+00 0.  1.
         21   -1    0    0  502  503 -0.00000000000E+00 -0.00000000000E+00 -0.45810208914E+03  0.45810208914E+03  0.00000000000E+00 0.  1.
    9000005    1    1    2  501    0 -0.65539511200E+01 -0.70143424871E+01  0.15319410476E+03  0.42843971455E+03  0.40000000000E+03 0. -1.
   -9000005    1    1    2    0  503  0.65539511200E+01  0.70143424871E+01 -0.19559433602E+03  0.44536423247E+03  0.40000000000E+03 0. -1.
<mgrwt>
<rscale>  2 0.40011518E+03</rscale>
<asrwt>0</asrwt>
<pdfrwt beam="1">  1       21 0.63954132E-01 0.40011518E+03</pdfrwt>
<pdfrwt beam="2">  1       21 0.70477244E-01 0.40011518E+03</pdfrwt>
<totfact> 0.36689283E+03</totfact>
</mgrwt>
</event>
<event>
 4    1  0.8562541E-003  0.4419316E+03  0.7818608E-02  0.1030156E+00
         21   -1    0    0  501  502  0.00000000000E+00  0.00000000000E+00  0.22332059034E+04  0.22332059034E+04  0.00000000000E+00 0. -1.
         21   -1    0    0  502  503 -0.00000000000E+00 -0.00000000000E+00 -0.10565213806E+03  0.10565213806E+03  0.00000000000E+00 0. -1.
    9000005    1    1    2  501    0 -0.96924941383E+02 -0.16096296441E+03  0.15491148796E+04  0.16109191259E+04  0.40000000000E+03 0. -1.
   -9000005    1    1    2    0  503  0.96924941383E+02  0.16096296441E+03  0.57843888574E+03  0.72793891550E+03  0.40000000000E+03 0. -1.
<mgrwt>
<rscale>  2 0.44193158E+03</rscale>
<asrwt>0</asrwt>
<pdfrwt beam="1">  1       21 0.34357010E+00 0.44193158E+03</pdfrwt>
<pdfrwt beam="2">  1       21 0.16254177E-01 0.44193158E+03</pdfrwt>
<totfact> 0.51091521E+02</totfact>
</mgrwt>
</event>
<event>
 4    1  0.8562541E-003  0.4922022E+03  0.7818608E-02  0.1015835E+00
         21   -1    0    0  503  502  0.00000000000E+00  0.00000000000E+00  0.11480039932E+04  0.11480039932E+04  0.00000000000E+00 0.  1.
         21   -1    0    0  501  503 -0.00000000000E+00 -0.00000000000E+00 -0.22597147401E+03  0.22597147401E+03  0.00000000000E+00 0.  1.
    9000005    1    1    2  501    0 -0.24565728415E+03  0.14803870521E+03  0.28436245852E+03  0.56844082129E+03  0.40000000000E+03 0.  1.
   -9000005    1    1    2    0  502  0.24565728415E+03 -0.14803870521E+03  0.63767006065E+03  0.80553464590E+03  0.40000000000E+03 0.  1.
<mgrwt>
<rscale>  2 0.49220215E+03</rscale>
<asrwt>0</asrwt>
<pdfrwt beam="1">  1       21 0.17661600E+00 0.49220215E+03</pdfrwt>
<pdfrwt beam="2">  1       21 0.34764843E-01 0.49220215E+03</pdfrwt>
<totfact> 0.12692351E+03</totfact>
</mgrwt>
</event>
<event>
 4    1  0.8562541E-003  0.4374240E+03  0.7818608E-02  0.1031540E+00
         21   -1    0    0  503  502  0.00000000000E+00  0.00000000000E+00  0.19392574506E+03  0.19392574506E+03  0.00000000000E+00 0.  1.
         21   -1    0    0  501  503 -0.00000000000E+00 -0.00000000000E+00 -0.12462015519E+04  0.12462015519E+04  0.00000000000E+00 0.  1.
    9000005    1    1    2  501    0 -0.18404791514E+02  0.17607118615E+03 -0.85474412095E+03  0.96017045947E+03  0.40000000000E+03 0.  1.
   -9000005    1    1    2    0  502  0.18404791514E+02 -0.17607118615E+03 -0.19753168594E+03  0.47995683753E+03  0.40000000000E+03 0.  1.
<mgrwt>
<rscale>  2 0.43742405E+03</rscale>
<asrwt>0</asrwt>
<pdfrwt beam="1">  1       21 0.29834729E-01 0.43742405E+03</pdfrwt>
<pdfrwt beam="2">  1       21 0.19172332E+00 0.43742405E+03</pdfrwt>
<totfact> 0.13852004E+03</totfact>
</mgrwt>
</event>
<event>
 4    1  0.8562541E-003  0.4251748E+03  0.7818608E-02  0.1035395E+00
         21   -1    0    0  501  502  0.00000000000E+00  0.00000000000E+00  0.11488209478E+04  0.11488209478E+04  0.00000000000E+00 0. -1.
         21   -1    0    0  502  503 -0.00000000000E+00 -0.00000000000E+00 -0.21640105289E+03  0.21640105289E+03  0.00000000000E+00 0. -1.
    9000005    1    1    2  501    0 -0.62014387331E+01  0.14399696152E+03  0.82277294529E+03  0.92613654624E+03  0.40000000000E+03 0. -1.
   -9000005    1    1    2    0  503  0.62014387331E+01 -0.14399696152E+03  0.10964694964E+03  0.43908545448E+03  0.40000000000E+03 0. -1.
<mgrwt>
<rscale>  2 0.42517477E+03</rscale>
<asrwt>0</asrwt>
<pdfrwt beam="1">  1       21 0.17674168E+00 0.42517477E+03</pdfrwt>
<pdfrwt beam="2">  1       21 0.33292470E-01 0.42517477E+03</pdfrwt>
<totfact> 0.14219988E+03</totfact>
</mgrwt>
</event>
<event>
 4    1  0.8562541E-003  0.4295379E+03  0.7818608E-02  0.1034006E+00
         21   -1    0    0  503  502  0.00000000000E+00  0.00000000000E+00  0.90455005098E+02  0.90455005098E+02  0.00000000000E+00 0. -1.
         21   -1    0    0  501  503 -0.00000000000E+00 -0.00000000000E+00 -0.20480879076E+04  0.20480879076E+04  0.00000000000E+00 0. -1.
    9000005    1    1    2  501    0 -0.32586740536E+02 -0.15310423941E+03 -0.10471674459E+04  0.11318402994E+04  0.40000000000E+03 0. -1.
   -9000005    1    1    2    0  502  0.32586740536E+02  0.15310423941E+03 -0.91046545664E+03  0.10067026132E+04  0.40000000000E+03 0. -1.
<mgrwt>
<rscale>  2 0.42953790E+03</rscale>
<asrwt>0</asrwt>
<pdfrwt beam="1">  1       21 0.13916155E-01 0.42953790E+03</pdfrwt>
<pdfrwt beam="2">  1       21 0.31509043E+00 0.42953790E+03</pdfrwt>
<totfact> 0.10209820E+03</totfact>
</mgrwt>
</event>
<event>
 4    1  0.8562541E-003  0.4352998E+03  0.7818608E-02  0.1032199E+00
         21   -1    0    0  501  502  0.00000000000E+00  0.00000000000E+00  0.41532218382E+03  0.41532218382E+03  0.00000000000E+00 0.  1.
         21   -1    0    0  502  503 -0.00000000000E+00 -0.00000000000E+00 -0.45675872825E+03  0.45675872825E+03  0.00000000000E+00 0.  1.
    9000005    1    1    2  501    0  0.16751313006E+03  0.37753246168E+02 -0.60021218639E+01  0.43534122456E+03  0.40000000000E+03 0. -1.
   -9000005    1    1    2    0  503 -0.16751313006E+03 -0.37753246168E+02 -0.35434422559E+02  0.43673968750E+03  0.40000000000E+03 0. -1.
<mgrwt>
<rscale>  2 0.43529985E+03</rscale>
<asrwt>0</asrwt>
<pdfrwt beam="1">  1       21 0.63895720E-01 0.43529985E+03</pdfrwt>
<pdfrwt beam="2">  1       21 0.70270574E-01 0.43529985E+03</pdfrwt>
<totfact> 0.36526793E+03</totfact>
</mgrwt>
</event>
<event>
 4    1  0.8562541E-003  0.4530342E+03  0.7818608E-02  0.1026821E+00
         21   -1    0    0  503  502  0.00000000000E+00  0.00000000000E+00  0.46798949250E+03  0.46798949250E+03  0.00000000000E+00 0. -1.
         21   -1    0    0  501  503 -0.00000000000E+00 -0.00000000000E+00 -0.44797915961E+03  0.44797915961E+03  0.00000000000E+00 0. -1.
    9000005    1    1    2  501    0  0.19298531448E+03 -0.89424066641E+02  0.76425417290E+02  0.45943534878E+03  0.40000000000E+03 0. -1.
   -9000005    1    1    2    0  502 -0.19298531448E+03  0.89424066641E+02 -0.56415084402E+02  0.45653330333E+03  0.40000000000E+03 0. -1.
<mgrwt>
<rscale>  2 0.45303421E+03</rscale>
<asrwt>0</asrwt>
<pdfrwt beam="1">  1       21 0.71998384E-01 0.45303421E+03</pdfrwt>
<pdfrwt beam="2">  1       21 0.68919870E-01 0.45303421E+03</pdfrwt>
<totfact> 0.29024756E+03</totfact>
</mgrwt>
</event>
<event>
 4    1  0.8562541E-003  0.4187823E+03  0.7818608E-02  0.1037463E+00
         21   -1    0    0  503  502  0.00000000000E+00  0.00000000000E+00  0.11254145890E+03  0.11254145890E+03  0.00000000000E+00 0.  1.
         21   -1    0    0  501  503 -0.00000000000E+00 -0.00000000000E+00 -0.24768224641E+04  0.24768224641E+04  0.00000000000E+00 0.  1.
    9000005    1    1    2  501    0  0.34947310324E+02 -0.11898454740E+03 -0.19705456556E+04  0.20145542479E+04  0.40000000000E+03 0.  1.
   -9000005    1    1    2    0  502 -0.34947310324E+02  0.11898454740E+03 -0.39373534958E+03  0.57480967505E+03  0.40000000000E+03 0.  1.
<mgrwt>
<rscale>  2 0.41878233E+03</rscale>
<asrwt>0</asrwt>
<pdfrwt beam="1">  1       21 0.17314073E-01 0.41878233E+03</pdfrwt>
<pdfrwt beam="2">  1       21 0.38104957E+00 0.41878233E+03</pdfrwt>
<totfact> 0.27018070E+02</totfact>
</mgrwt>
</event>
<event>
 4    1  0.8562541E-003  0.5418161E+03  0.7818608E-02  0.1003406E+00
         21   -1    0    0  501  502  0.00000000000E+00  0.00000000000E+00  0.10817583005E+04  0.10817583005E+04  0.00000000000E+00 0.  1.
         21   -1    0    0  502  503 -0.00000000000E+00 -0.00000000000E+00 -0.43286402079E+03  0.43286402079E+03  0.00000000000E+00 0. -1.
    9000005    1    1    2  501    0 -0.34817524531E+03  0.11107980507E+03  0.78700591447E+03  0.95548052516E+03  0.40000000000E+03 0.  1.
   -9000005    1    1    2    0  503  0.34817524531E+03 -0.11107980507E+03 -0.13811163475E+03  0.55914179615E+03  0.40000000000E+03 0. -1.
<mgrwt>
<rscale>  2 0.54181614E+03</rscale>
<asrwt>0</asrwt>
<pdfrwt beam="1">  1       21 0.16642435E+00 0.54181614E+03</pdfrwt>
<pdfrwt beam="2">  1       21 0.66594465E-01 0.54181614E+03</pdfrwt>
<totfact> 0.37092195E+02</totfact>
</mgrwt>
</event>
<event>
 4    1  0.8562541E-003  0.4679058E+03  0.7818608E-02  0.1022513E+00
         21   -1    0    0  501  502  0.00000000000E+00  0.00000000000E+00  0.27425860481E+03  0.27425860481E+03  0.00000000000E+00 0. -1.
         21   -1    0    0  502  503 -0.00000000000E+00 -0.00000000000E+00 -0.10040763455E+04  0.10040763455E+04  0.00000000000E+00 0. -1.
    9000005    1    1    2  501    0  0.13676083647E+03  0.20057993212E+03 -0.75542853825E+02  0.47396472266E+03  0.40000000000E+03 0. -1.
   -9000005    1    1    2    0  503 -0.13676083647E+03 -0.20057993212E+03 -0.65427488687E+03  0.80437022767E+03  0.40000000000E+03 0. -1.
<mgrwt>
<rscale>  2 0.46790580E+03</rscale>
<asrwt>0</asrwt>
<pdfrwt beam="1">  1       21 0.42193632E-01 0.46790580E+03</pdfrwt>
<pdfrwt beam="2">  1       21 0.15447328E+00 0.46790580E+03</pdfrwt>
<totfact> 0.12581466E+03</totfact>
</mgrwt>
</event>
<event>
 4    1  0.8562541E-003  0.4994432E+03  0.7818608E-02  0.1013924E+00
         21   -1    0    0  501  502  0.00000000000E+00  0.00000000000E+00  0.64713926670E+03  0.64713926670E+03  0.00000000000E+00 0. -1.
         21   -1    0    0  502  503 -0.00000000000E+00 -0.00000000000E+00 -0.41832283333E+03  0.41832283333E+03  0.00000000000E+00 0.  1.
    9000005    1    1    2  501    0  0.25642052609E+02  0.29796971340E+03  0.26373361795E+03  0.56479986384E+03  0.40000000000E+03 0. -1.
   -9000005    1    1    2    0  503 -0.25642052609E+02 -0.29796971340E+03 -0.34917184573E+02  0.50066223619E+03  0.40000000000E+03 0.  1.
<mgrwt>
<rscale>  2 0.49944315E+03</rscale>
<asrwt>0</asrwt>
<pdfrwt beam="1">  1       21 0.99559888E-01 0.49944315E+03</pdfrwt>
<pdfrwt beam="2">  1       21 0.64357359E-01 0.49944315E+03</pdfrwt>
<totfact> 0.15573001E+03</totfact>
</mgrwt>
</event>
<event>
 4    1  0.8562541E-003  0.4015537E+03  0.7818608E-02  0.1043243E+00
         21   -1    0    0  501  502  0.00000000000E+00  0.00000000000E+00  0.10094734050E+04  0.10094734050E+04  0.00000000000E+00 0. -1.
         21   -1    0    0  502  503 -0.00000000000E+00 -0.00000000000E+00 -0.17573577103E+03  0.17573577103E+03  0.00000000000E+00 0. -1.
    9000005    1    1    2  501    0 -0.76974277461E+01 -0.34439816880E+02  0.59570036402E+03  0.71840397763E+03  0.40000000000E+03 0. -1.
   -9000005    1    1    2    0  503  0.76974277461E+01  0.34439816880E+02  0.23803726996E+03  0.46680519842E+03  0.40000000000E+03 0. -1.
<mgrwt>
<rscale>  2 0.40155367E+03</rscale>
<asrwt>0</asrwt>
<pdfrwt beam="1">  1       21 0.15530360E+00 0.40155367E+03</pdfrwt>
<pdfrwt beam="2">  1       21 0.27036273E-01 0.40155367E+03</pdfrwt>
<totfact> 0.31245376E+03</totfact>
</mgrwt>
</event>
<event>
 4    1  0.8562541E-003  0.4579980E+03  0.7818608E-02  0.1025363E+00
         21   -1    0    0  503  502  0.00000000000E+00  0.00000000000E+00  0.28989090457E+03  0.28989090457E+03  0.00000000000E+00 0. -1.
         21   -1    0    0  501  503 -0.00000000000E+00 -0.00000000000E+00 -0.84603362985E+03  0.84603362985E+03  0.00000000000E+00 0. -1.
    9000005    1    1    2  501    0  0.22226117488E+03  0.19029236814E+02 -0.49414106736E+03  0.67374886728E+03  0.40000000000E+03 0. -1.
   -9000005    1    1    2    0  502 -0.22226117488E+03 -0.19029236814E+02 -0.62001657929E+02  0.46217566714E+03  0.40000000000E+03 0. -1.
<mgrwt>
<rscale>  2 0.45799797E+03</rscale>
<asrwt>0</asrwt>
<pdfrwt beam="1">  1       21 0.44598601E-01 0.45799797E+03</pdfrwt>
<pdfrwt beam="2">  1       21 0.13015902E+00 0.45799797E+03</pdfrwt>
<totfact> 0.17776264E+03</totfact>
</mgrwt>
</event>
<event>
 4    1  0.8562541E-003  0.4076781E+03  0.7818608E-02  0.1041153E+00
         21   -1    0    0  501  502  0.00000000000E+00  0.00000000000E+00  0.19045029746E+03  0.19045029746E+03  0.00000000000E+00 0.  1.
         21   -1    0    0  502  503 -0.00000000000E+00 -0.00000000000E+00 -0.93057676620E+03  0.93057676620E+03  0.00000000000E+00 0.  1.
    9000005    1    1    2  501    0  0.73742820291E+02 -0.27630219439E+02 -0.23024893601E+03  0.46820508872E+03  0.40000000000E+03 0.  1.
   -9000005    1    1    2    0  503 -0.73742820291E+02  0.27630219439E+02 -0.50987753273E+03  0.65282197493E+03  0.40000000000E+03 0.  1.
<mgrwt>
<rscale>  2 0.40767810E+03</rscale>
<asrwt>0</asrwt>
<pdfrwt beam="1">  1       21 0.29300046E-01 0.40767810E+03</pdfrwt>
<pdfrwt beam="2">  1       21 0.14316566E+00 0.40767810E+03</pdfrwt>
<totfact> 0.33143175E+03</totfact>
</mgrwt>
</event>
<event>
 4    1  0.8562541E-003  0.5297150E+03  0.7818608E-02  0.1006301E+00
         21   -1    0    0  501  502  0.00000000000E+00  0.00000000000E+00  0.11834956476E+04  0.11834956476E+04  0.00000000000E+00 0. -1.
         21   -1    0    0  502  503 -0.00000000000E+00 -0.00000000000E+00 -0.26692618920E+03  0.26692618920E+03  0.00000000000E+00 0. -1.
    9000005    1    1    2  501    0  0.32494043017E+03 -0.12252217243E+03  0.70073466494E+03  0.87842303963E+03  0.40000000000E+03 0. -1.
   -9000005    1    1    2    0  503 -0.32494043017E+03  0.12252217243E+03  0.21583479345E+03  0.57199879717E+03  0.40000000000E+03 0. -1.
<mgrwt>
<rscale>  2 0.52971499E+03</rscale>
<asrwt>0</asrwt>
<pdfrwt beam="1">  1       21 0.18207625E+00 0.52971499E+03</pdfrwt>
<pdfrwt beam="2">  1       21 0.41065568E-01 0.52971499E+03</pdfrwt>
<totfact> 0.81329888E+02</totfact>
</mgrwt>
</event>
<event>
 4    1  0.8562541E-003  0.5932922E+03  0.7818608E-02  0.9919421E-01
         21   -1    0    0  501  502  0.00000000000E+00  0.00000000000E+00  0.15133273807E+04  0.15133273807E+04  0.00000000000E+00 0.  1.
         21   -1    0    0  502  503 -0.00000000000E+00 -0.00000000000E+00 -0.39879504398E+03  0.39879504398E+03  0.00000000000E+00 0.  1.
    9000005    1    1    2  501    0  0.35603637093E+03  0.25540898747E+03  0.11744628326E+04  0.13158110022E+04  0.40000000000E+03 0.  1.
   -9000005    1    1    2    0  503 -0.35603637093E+03 -0.25540898747E+03 -0.59930495849E+02  0.59631142253E+03  0.40000000000E+03 0.  1.
<mgrwt>
<rscale>  2 0.59329221E+03</rscale>
<asrwt>0</asrwt>
<pdfrwt beam="1">  1       21 0.23281959E+00 0.59329221E+03</pdfrwt>
<pdfrwt beam="2">  1       21 0.61353084E-01 0.59329221E+03</pdfrwt>
<totfact> 0.15443464E+02</totfact>
</mgrwt>
</event>
<event>
 4    1  0.8562541E-003  0.4467516E+03  0.7818608E-02  0.1028695E+00
         21   -1    0    0  501  502  0.00000000000E+00  0.00000000000E+00  0.38554270240E+03  0.38554270240E+03  0.00000000000E+00 0. -1.
         21   -1    0    0  502  503 -0.00000000000E+00 -0.00000000000E+00 -0.59772954600E+03  0.59772954600E+03  0.00000000000E+00 0.  1.
    9000005    1    1    2  501    0  0.19071628185E+03  0.56694459767E+02  0.73825309025E+02  0.45281026731E+03  0.40000000000E+03 0. -1.
   -9000005    1    1    2    0  503 -0.19071628185E+03 -0.56694459767E+02 -0.28601215262E+03  0.53046198109E+03  0.40000000000E+03 0. -1.
<mgrwt>
<rscale>  2 0.44675157E+03</rscale>
<asrwt>0</asrwt>
<pdfrwt beam="1">  1       21 0.59314262E-01 0.44675157E+03</pdfrwt>
<pdfrwt beam="2">  1       21 0.91958391E-01 0.44675157E+03</pdfrwt>
<totfact> 0.22999744E+03</totfact>
</mgrwt>
</event>
<event>
 4    1  0.8562541E-003  0.4611266E+03  0.7818608E-02  0.1024455E+00
         21   -1    0    0  503  502  0.00000000000E+00  0.00000000000E+00  0.55662367675E+03  0.55662367675E+03  0.00000000000E+00 0.  1.
         21   -1    0    0  501  503 -0.00000000000E+00 -0.00000000000E+00 -0.39996225139E+03  0.39996225139E+03  0.00000000000E+00 0.  1.
    9000005    1    1    2  501    0 -0.72415562772E+02 -0.21770099479E+03 -0.22990899382E+02  0.46169938090E+03  0.40000000000E+03 0.  1.
   -9000005    1    1    2    0  502  0.72415562772E+02  0.21770099479E+03  0.17965232474E+03  0.49488654725E+03  0.40000000000E+03 0.  1.
<mgrwt>
<rscale>  2 0.46112660E+03</rscale>
<asrwt>0</asrwt>
<pdfrwt beam="1">  1       21 0.85634411E-01 0.46112660E+03</pdfrwt>
<pdfrwt beam="2">  1       21 0.61532655E-01 0.46112660E+03</pdfrwt>
<totfact> 0.24976860E+03</totfact>
</mgrwt>
</event>
<event>
 4    1  0.8562541E-003  0.5074128E+03  0.7818608E-02  0.1011862E+00
         21   -1    0    0  501  502  0.00000000000E+00  0.00000000000E+00  0.73406304899E+03  0.73406304899E+03  0.00000000000E+00 0. -1.
         21   -1    0    0  502  503 -0.00000000000E+00 -0.00000000000E+00 -0.38531515411E+03  0.38531515411E+03  0.00000000000E+00 0. -1.
    9000005    1    1    2  501    0  0.10530750384E+03 -0.29390140032E+03  0.34202260455E+03  0.61192088173E+03  0.40000000000E+03 0. -1.
   -9000005    1    1    2    0  503 -0.10530750384E+03  0.29390140032E+03  0.67252903317E+01  0.50745732136E+03  0.40000000000E+03 0. -1.
<mgrwt>
<rscale>  2 0.50741275E+03</rscale>
<asrwt>0</asrwt>
<pdfrwt beam="1">  1       21 0.11293278E+00 0.50741275E+03</pdfrwt>
<pdfrwt beam="2">  1       21 0.59279255E-01 0.50741275E+03</pdfrwt>
<totfact> 0.13636329E+03</totfact>
</mgrwt>
</event>
<event>
 4    1  0.8562541E-003  0.4590358E+03  0.7818608E-02  0.1025061E+00
         21   -1    0    0  501  502  0.00000000000E+00  0.00000000000E+00  0.12574550922E+04  0.12574550922E+04  0.00000000000E+00 0.  1.
         21   -1    0    0  502  503 -0.00000000000E+00 -0.00000000000E+00 -0.17488624072E+03  0.17488624072E+03  0.00000000000E+00 0. -1.
    9000005    1    1    2  501    0  0.16437264983E+03  0.15393330848E+03  0.39481952534E+03  0.60547195564E+03  0.40000000000E+03 0. -1.
   -9000005    1    1    2    0  503 -0.16437264983E+03 -0.15393330848E+03  0.68774932614E+03  0.82686937728E+03  0.40000000000E+03 0.  1.
<mgrwt>
<rscale>  2 0.45903576E+03</rscale>
<asrwt>0</asrwt>
<pdfrwt beam="1">  1       21 0.19345462E+00 0.45903576E+03</pdfrwt>
<pdfrwt beam="2">  1       21 0.26905576E-01 0.45903576E+03</pdfrwt>
<totfact> 0.16376370E+03</totfact>
</mgrwt>
</event>
<event>
 4    1  0.8562541E-003  0.6616821E+03  0.7818608E-02  0.9785102E-01
         21   -1    0    0  503  502  0.00000000000E+00  0.00000000000E+00  0.80649305773E+03  0.80649305773E+03  0.00000000000E+00 0.  1.
         21   -1    0    0  501  503 -0.00000000000E+00 -0.00000000000E+00 -0.63491584103E+03  0.63491584103E+03  0.00000000000E+00 0.  1.
    9000005    1    1    2  501    0  0.45437472190E+03  0.26714569329E+03 -0.18861790237E+03  0.68804064011E+03  0.40000000000E+03 0.  1.
   -9000005    1    1    2    0  502 -0.45437472190E+03 -0.26714569329E+03  0.36019511907E+03  0.75336825865E+03  0.40000000000E+03 0.  1.
<mgrwt>
<rscale>  2 0.66168211E+03</rscale>
<asrwt>0</asrwt>
<pdfrwt beam="1">  1       21 0.12407586E+00 0.66168211E+03</pdfrwt>
<pdfrwt beam="2">  1       21 0.97679360E-01 0.66168211E+03</pdfrwt>
<totfact> 0.32235704E+02</totfact>
</mgrwt>
</event>
<event>
 4    1  0.8562541E-003  0.4989027E+03  0.7818608E-02  0.1014066E+00
         21   -1    0    0  503  502  0.00000000000E+00  0.00000000000E+00  0.17706359445E+03  0.17706359445E+03  0.00000000000E+00 0.  1.
         21   -1    0    0  501  503 -0.00000000000E+00 -0.00000000000E+00 -0.14148137472E+04  0.14148137472E+04  0.00000000000E+00 0.  1.
    9000005    1    1    2  501    0  0.28219277859E+03 -0.96286722574E+02 -0.55510407267E+03  0.74635409071E+03  0.40000000000E+03 0.  1.
   -9000005    1    1    2    0  502 -0.28219277859E+03  0.96286722574E+02 -0.68264608011E+03  0.84552325096E+03  0.40000000000E+03 0.  1.
<mgrwt>
<rscale>  2 0.49890269E+03</rscale>
<asrwt>0</asrwt>
<pdfrwt beam="1">  1       21 0.27240554E-01 0.49890269E+03</pdfrwt>
<pdfrwt beam="2">  1       21 0.21766365E+00 0.49890269E+03</pdfrwt>
<totfact> 0.10872609E+03</totfact>
</mgrwt>
</event>
<event>
 4    1  0.8562541E-003  0.4242145E+03  0.7818608E-02  0.1035703E+00
         21   -1    0    0  503  502  0.00000000000E+00  0.00000000000E+00  0.51194689777E+03  0.51194689777E+03  0.00000000000E+00 0. -1.
         21   -1    0    0  501  503 -0.00000000000E+00 -0.00000000000E+00 -0.35875638672E+03  0.35875638672E+03  0.00000000000E+00 0.  1.
    9000005    1    1    2  501    0 -0.11688673312E+03  0.79343556829E+02  0.13843943454E+03  0.44623243431E+03  0.40000000000E+03 0. -1.
   -9000005    1    1    2    0  502  0.11688673312E+03 -0.79343556829E+02  0.14751076508E+02  0.42447085018E+03  0.40000000000E+03 0.  1.
<mgrwt>
<rscale>  2 0.42421446E+03</rscale>
<asrwt>0</asrwt>
<pdfrwt beam="1">  1       21 0.78761061E-01 0.42421446E+03</pdfrwt>
<pdfrwt beam="2">  1       21 0.55193290E-01 0.42421446E+03</pdfrwt>
<totfact> 0.38956662E+03</totfact>
</mgrwt>
</event>
<event>
 4    1  0.8562541E-003  0.5485289E+03  0.7818608E-02  0.1001835E+00
         21   -1    0    0  501  502  0.00000000000E+00  0.00000000000E+00  0.74883457605E+03  0.74883457605E+03  0.00000000000E+00 0. -1.
         21   -1    0    0  502  503 -0.00000000000E+00 -0.00000000000E+00 -0.46976141985E+03  0.46976141985E+03  0.00000000000E+00 0. -1.
    9000005    1    1    2  501    0  0.20092977444E+03  0.31703499389E+03  0.37128286734E+03  0.66237068865E+03  0.40000000000E+03 0. -1.
   -9000005    1    1    2    0  503 -0.20092977444E+03 -0.31703499389E+03 -0.92209711131E+02  0.55622530726E+03  0.40000000000E+03 0. -1.
<mgrwt>
<rscale>  2 0.54852891E+03</rscale>
<asrwt>0</asrwt>
<pdfrwt beam="1">  1       21 0.11520532E+00 0.54852891E+03</pdfrwt>
<pdfrwt beam="2">  1       21 0.72270988E-01 0.54852891E+03</pdfrwt>
<totfact> 0.82150392E+02</totfact>
</mgrwt>
</event>
<event>
 4    1  0.8562541E-003  0.7036942E+03  0.7818608E-02  0.9710935E-01
         21   -1    0    0  503  502  0.00000000000E+00  0.00000000000E+00  0.11393618599E+04  0.11393618599E+04  0.00000000000E+00 0. -1.
         21   -1    0    0  501  503 -0.00000000000E+00 -0.00000000000E+00 -0.50191129323E+03  0.50191129323E+03  0.00000000000E+00 0. -1.
    9000005    1    1    2  501    0  0.31092180578E+03 -0.48837815261E+03  0.61921371866E+03  0.93734263673E+03  0.40000000000E+03 0. -1.
   -9000005    1    1    2    0  502 -0.31092180578E+03  0.48837815261E+03  0.18236847981E+02  0.70393051637E+03  0.40000000000E+03 0. -1.
<mgrwt>
<rscale>  2 0.70369424E+03</rscale>
<asrwt>0</asrwt>
<pdfrwt beam="1">  1       21 0.17528644E+00 0.70369424E+03</pdfrwt>
<pdfrwt beam="2">  1       21 0.77217122E-01 0.70369424E+03</pdfrwt>
<totfact> 0.21519274E+02</totfact>
</mgrwt>
</event>
<event>
 4    1  0.8562541E-003  0.4221744E+03  0.7818608E-02  0.1036361E+00
         21   -1    0    0  501  502  0.00000000000E+00  0.00000000000E+00  0.13873564306E+04  0.13873564306E+04  0.00000000000E+00 0. -1.
         21   -1    0    0  502  503 -0.00000000000E+00 -0.00000000000E+00 -0.13500881194E+03  0.13500881194E+03  0.00000000000E+00 0. -1.
    9000005    1    1    2  501    0 -0.13501662141E+03 -0.13056306221E+01  0.45863447922E+03  0.62335926901E+03  0.40000000000E+03 0. -1.
   -9000005    1    1    2    0  503  0.13501662141E+03  0.13056306221E+01  0.79371313946E+03  0.89900597355E+03  0.40000000000E+03 0. -1.
<mgrwt>
<rscale>  2 0.42217436E+03</rscale>
<asrwt>0</asrwt>
<pdfrwt beam="1">  1       21 0.21343944E+00 0.42217436E+03</pdfrwt>
<pdfrwt beam="2">  1       21 0.20770587E-01 0.42217436E+03</pdfrwt>
<totfact> 0.20254349E+03</totfact>
</mgrwt>
</event>
<event>
 4    1  0.8562541E-003  0.5664258E+03  0.7818608E-02  0.9977619E-01
         21   -1    0    0  501  502  0.00000000000E+00  0.00000000000E+00  0.44453120160E+03  0.44453120160E+03  0.00000000000E+00 0.  1.
         21   -1    0    0  502  503 -0.00000000000E+00 -0.00000000000E+00 -0.72202755467E+03  0.72202755467E+03  0.00000000000E+00 0. -1.
    9000005    1    1    2  501    0  0.17351328008E+03 -0.36156783564E+03 -0.12720899206E+03  0.58053448286E+03  0.40000000000E+03 0.  1.
   -9000005    1    1    2    0  503 -0.17351328008E+03  0.36156783564E+03 -0.15028736101E+03  0.58602427340E+03  0.40000000000E+03 0. -1.
<mgrwt>
<rscale>  2 0.56642577E+03</rscale>
<asrwt>0</asrwt>
<pdfrwt beam="1">  1       21 0.68389416E-01 0.56642577E+03</pdfrwt>
<pdfrwt beam="2">  1       21 0.11108116E+00 0.56642577E+03</pdfrwt>
<totfact> 0.10139587E+03</totfact>
</mgrwt>
</event>
<event>
 4    1  0.8562541E-003  0.4385133E+03  0.7818608E-02  0.1031204E+00
         21   -1    0    0  501  502  0.00000000000E+00  0.00000000000E+00  0.14467842507E+03  0.14467842507E+03  0.00000000000E+00 0. -1.
         21   -1    0    0  502  503 -0.00000000000E+00 -0.00000000000E+00 -0.13784665530E+04  0.13784665530E+04  0.00000000000E+00 0. -1.
    9000005    1    1    2  501    0 -0.16670348358E+02  0.17893026591E+03 -0.76099719161E+03  0.87829987260E+03  0.40000000000E+03 0. -1.
   -9000005    1    1    2    0  503  0.16670348358E+02 -0.17893026591E+03 -0.47279093629E+03  0.64484510544E+03  0.40000000000E+03 0. -1.
<mgrwt>
<rscale>  2 0.43851333E+03</rscale>
<asrwt>0</asrwt>
<pdfrwt beam="1">  1       21 0.22258219E-01 0.43851333E+03</pdfrwt>
<pdfrwt beam="2">  1       21 0.21207178E+00 0.43851333E+03</pdfrwt>
<totfact> 0.17972446E+03</totfact>
</mgrwt>
</event>
<event>
 4    1  0.8562541E-003  0.4534823E+03  0.7818608E-02  0.1026689E+00
         21   -1    0    0  501  502  0.00000000000E+00  0.00000000000E+00  0.23417944411E+03  0.23417944411E+03  0.00000000000E+00 0. -1.
         21   -1    0    0  502  503 -0.00000000000E+00 -0.00000000000E+00 -0.90360878920E+03  0.90360878920E+03  0.00000000000E+00 0. -1.
    9000005    1    1    2  501    0 -0.13217167458E+03 -0.16785969739E+03 -0.23923660879E+03  0.51271862123E+03  0.40000000000E+03 0. -1.
   -9000005    1    1    2    0  503  0.13217167458E+03  0.16785969739E+03 -0.43019273630E+03  0.62506961207E+03  0.40000000000E+03 0. -1.
<mgrwt>
<rscale>  2 0.45348234E+03</rscale>
<asrwt>0</asrwt>
<pdfrwt beam="1">  1       21 0.36027607E-01 0.45348234E+03</pdfrwt>
<pdfrwt beam="2">  1       21 0.13901674E+00 0.45348234E+03</pdfrwt>
<totfact> 0.23265615E+03</totfact>
</mgrwt>
</event>
<event>
 4    1  0.8562541E-003  0.6708862E+03  0.7818608E-02  0.9768358E-01
         21   -1    0    0  501  502  0.00000000000E+00  0.00000000000E+00  0.30615361613E+04  0.30615361613E+04  0.00000000000E+00 0.  1.
         21   -1    0    0  502  503 -0.00000000000E+00 -0.00000000000E+00 -0.15805546035E+03  0.15805546035E+03  0.00000000000E+00 0.  1.
    9000005    1    1    2  501    0  0.31312030612E+03 -0.43822821537E+03  0.18772229028E+04  0.19935029776E+04  0.40000000000E+03 0.  1.
   -9000005    1    1    2    0  503 -0.31312030612E+03  0.43822821537E+03  0.10262577982E+04  0.12260886441E+04  0.40000000000E+03 0.  1.
<mgrwt>
<rscale>  2 0.67088620E+03</rscale>
<asrwt>0</asrwt>
<pdfrwt beam="1">  1       21 0.47100552E+00 0.67088620E+03</pdfrwt>
<pdfrwt beam="2">  1       21 0.24316227E-01 0.67088620E+03</pdfrwt>
<totfact> 0.30878696E+01</totfact>
</mgrwt>
</event>
<event>
 4    1  0.8562541E-003  0.4004722E+03  0.7818608E-02  0.1043616E+00
         21   -1    0    0  503  502  0.00000000000E+00  0.00000000000E+00  0.76925894704E+03  0.76925894704E+03  0.00000000000E+00 0.  1.
         21   -1    0    0  501  503 -0.00000000000E+00 -0.00000000000E+00 -0.47464455216E+03  0.47464455216E+03  0.00000000000E+00 0.  1.
    9000005    1    1    2  501    0  0.18721212918E+02 -0.52462381078E+01 -0.31843380557E+03  0.51164254647E+03  0.40000000000E+03 0.  1.
   -9000005    1    1    2    0  502 -0.18721212918E+02  0.52462381078E+01  0.61304820045E+03  0.73226095274E+03  0.40000000000E+03 0.  1.
<mgrwt>
<rscale>  2 0.40047223E+03</rscale>
<asrwt>0</asrwt>
<pdfrwt beam="1">  1       21 0.11834753E+00 0.40047223E+03</pdfrwt>
<pdfrwt beam="2">  1       21 0.73022239E-01 0.40047223E+03</pdfrwt>
<totfact> 0.79659097E+02</totfact>
</mgrwt>
</event>
<event>
 4    1  0.8562541E-003  0.4119813E+03  0.7818608E-02  0.1039708E+00
         21   -1    0    0  503  502  0.00000000000E+00  0.00000000000E+00  0.96544022664E+03  0.96544022664E+03  0.00000000000E+00 0.  1.
         21   -1    0    0  501  503 -0.00000000000E+00 -0.00000000000E+00 -0.37091160776E+03  0.37091160776E+03  0.00000000000E+00 0.  1.
    9000005    1    1    2  501    0  0.70720699338E+02  0.68754289781E+02 -0.18734565937E+03  0.45257813222E+03  0.40000000000E+03 0.  1.
   -9000005    1    1    2    0  502 -0.70720699338E+02 -0.68754289781E+02  0.78187427825E+03  0.88377370218E+03  0.40000000000E+03 0.  1.
<mgrwt>
<rscale>  2 0.41198127E+03</rscale>
<asrwt>0</asrwt>
<pdfrwt beam="1">  1       21 0.14852926E+00 0.41198127E+03</pdfrwt>
<pdfrwt beam="2">  1       21 0.57063325E-01 0.41198127E+03</pdfrwt>
<totfact> 0.75637483E+02</totfact>
</mgrwt>
</event>
<event>
 4    1  0.8562541E-003  0.4081671E+03  0.7818608E-02  0.1040988E+00
         21   -1    0    0  501  502  0.00000000000E+00  0.00000000000E+00  0.22540907866E+03  0.22540907866E+03  0.00000000000E+00 0. -1.
         21   -1    0    0  502  503 -0.00000000000E+00 -0.00000000000E+00 -0.79001333622E+03  0.79001333622E+03  0.00000000000E+00 0. -1.
    9000005    1    1    2  501    0  0.61423552330E+02  0.53174376478E+02 -0.15341619171E+03  0.43604689538E+03  0.40000000000E+03 0. -1.
   -9000005    1    1    2    0  503 -0.61423552330E+02 -0.53174376478E+02 -0.41118806586E+03  0.57937551950E+03  0.40000000000E+03 0. -1.
<mgrwt>
<rscale>  2 0.40816708E+03</rscale>
<asrwt>0</asrwt>
<pdfrwt beam="1">  1       21 0.34678320E-01 0.40816708E+03</pdfrwt>
<pdfrwt beam="2">  1       21 0.12154051E+00 0.40816708E+03</pdfrwt>
<totfact> 0.36241365E+03</totfact>
</mgrwt>
</event>
<event>
 4    1  0.8562541E-003  0.4145970E+03  0.7818608E-02  0.1038839E+00
         21   -1    0    0  501  502  0.00000000000E+00  0.00000000000E+00  0.14965003619E+03  0.14965003619E+03  0.00000000000E+00 0.  1.
         21   -1    0    0  502  503 -0.00000000000E+00 -0.00000000000E+00 -0.12601696898E+04  0.12601696898E+04  0.00000000000E+00 0.  1.
    9000005    1    1    2  501    0 -0.10904410801E+03 -0.23916716829E+00 -0.34553115471E+03  0.53970589544E+03  0.40000000000E+03 0.  1.
   -9000005    1    1    2    0  503  0.10904410801E+03  0.23916716829E+00 -0.76498849894E+03  0.87011383060E+03  0.40000000000E+03 0.  1.
<mgrwt>
<rscale>  2 0.41459700E+03</rscale>
<asrwt>0</asrwt>
<pdfrwt beam="1">  1       21 0.23023083E-01 0.41459700E+03</pdfrwt>
<pdfrwt beam="2">  1       21 0.19387226E+00 0.41459700E+03</pdfrwt>
<totfact> 0.22457918E+03</totfact>
</mgrwt>
</event>
<event>
 4    1  0.8562541E-003  0.4456779E+03  0.7818608E-02  0.1029019E+00
         21   -1    0    0  501  502  0.00000000000E+00  0.00000000000E+00  0.16076515736E+03  0.16076515736E+03  0.00000000000E+00 0. -1.
         21   -1    0    0  502  503 -0.00000000000E+00 -0.00000000000E+00 -0.24229008257E+04  0.24229008257E+04  0.00000000000E+00 0.  1.
    9000005    1    1    2  501    0 -0.87456101917E+02 -0.17601201697E+03 -0.22672457931E+03  0.50003283367E+03  0.40000000000E+03 0. -1.
   -9000005    1    1    2    0  503  0.87456101917E+02  0.17601201697E+03 -0.20354110890E+04  0.20836331494E+04  0.40000000000E+03 0.  1.
<mgrwt>
<rscale>  2 0.44567791E+03</rscale>
<asrwt>0</asrwt>
<pdfrwt beam="1">  1       21 0.24733103E-01 0.44567791E+03</pdfrwt>
<pdfrwt beam="2">  1       21 0.37275394E+00 0.44567791E+03</pdfrwt>
<totfact> 0.15138770E+02</totfact>
</mgrwt>
</event>
<event>
 4    1  0.8562541E-003  0.6170092E+03  0.7818608E-02  0.9870732E-01
         21   -1    0    0  501  502  0.00000000000E+00  0.00000000000E+00  0.11308644042E+04  0.11308644042E+04  0.00000000000E+00 0. -1.
         21   -1    0    0  502  503 -0.00000000000E+00 -0.00000000000E+00 -0.44552443644E+03  0.44552443644E+03  0.00000000000E+00 0.  1.
    9000005    1    1    2  501    0 -0.43793073090E+03  0.17005005014E+03  0.73231546734E+03  0.95759401018E+03  0.40000000000E+03 0.  1.
   -9000005    1    1    2    0  503  0.43793073090E+03 -0.17005005014E+03 -0.46975499604E+02  0.61879483044E+03  0.40000000000E+03 0.  1.
<mgrwt>
<rscale>  2 0.61700919E+03</rscale>
<asrwt>0</asrwt>
<pdfrwt beam="1">  1       21 0.17397914E+00 0.61700919E+03</pdfrwt>
<pdfrwt beam="2">  1       21 0.68542222E-01 0.61700919E+03</pdfrwt>
<totfact> 0.29744201E+02</totfact>
</mgrwt>
</event>
<event>
 4    1  0.8562541E-003  0.5621210E+03  0.7818608E-02  0.9987267E-01
         21   -1    0    0  501  502  0.00000000000E+00  0.00000000000E+00  0.31430715957E+03  0.31430715957E+03  0.00000000000E+00 0.  1.
         21   -1    0    0  502  503 -0.00000000000E+00 -0.00000000000E+00 -0.11243323468E+04  0.11243323468E+04  0.00000000000E+00 0.  1.
    9000005    1    1    2  501    0  0.28694895816E+03 -0.27136756871E+03 -0.63903964852E+03  0.85108855844E+03  0.40000000000E+03 0.  1.
   -9000005    1    1    2    0  503 -0.28694895816E+03  0.27136756871E+03 -0.17098553867E+03  0.58755094789E+03  0.40000000000E+03 0.  1.
<mgrwt>
<rscale>  2 0.56212104E+03</rscale>
<asrwt>0</asrwt>
<pdfrwt beam="1">  1       21 0.48354948E-01 0.56212104E+03</pdfrwt>
<pdfrwt beam="2">  1       21 0.17297421E+00 0.56212104E+03</pdfrwt>
<totfact> 0.66238897E+02</totfact>
</mgrwt>
</event>
<event>
 4    1  0.8562541E-003  0.4129249E+03  0.7818608E-02  0.1039394E+00
         21   -1    0    0  501  502  0.00000000000E+00  0.00000000000E+00  0.78105969295E+03  0.78105969295E+03  0.00000000000E+00 0.  1.
         21   -1    0    0  502  503 -0.00000000000E+00 -0.00000000000E+00 -0.32360663994E+03  0.32360663994E+03  0.00000000000E+00 0.  1.
    9000005    1    1    2  501    0  0.98802407292E+02  0.27295988464E+02  0.54380295730E+03  0.68280937533E+03  0.40000000000E+03 0.  1.
   -9000005    1    1    2    0  503 -0.98802407292E+02 -0.27295988464E+02 -0.86349904284E+02  0.42185695756E+03  0.40000000000E+03 0.  1.
<mgrwt>
<rscale>  2 0.41292492E+03</rscale>
<asrwt>0</asrwt>
<pdfrwt beam="1">  1       21 0.12016303E+00 0.41292492E+03</pdfrwt>
<pdfrwt beam="2">  1       21 0.49785637E-01 0.41292492E+03</pdfrwt>
<totfact> 0.17628707E+03</totfact>
</mgrwt>
</event>
<event>
 4    1  0.8562541E-003  0.5764381E+03  0.7818608E-02  0.9955532E-01
         21   -1    0    0  501  502  0.00000000000E+00  0.00000000000E+00  0.85182907287E+03  0.85182907287E+03  0.00000000000E+00 0. -1.
         21   -1    0    0  502  503 -0.00000000000E+00 -0.00000000000E+00 -0.61062206786E+03  0.61062206786E+03  0.00000000000E+00 0.  1.
    9000005    1    1    2  501    0 -0.34847812894E+03  0.22548593435E+03  0.56005556206E+03  0.80370588248E+03  0.40000000000E+03 0. -1.
   -9000005    1    1    2    0  503  0.34847812894E+03 -0.22548593435E+03 -0.31884855704E+03  0.65874525825E+03  0.40000000000E+03 0.  1.
<mgrwt>
<rscale>  2 0.57643813E+03</rscale>
<asrwt>0</asrwt>
<pdfrwt beam="1">  1       21 0.13105063E+00 0.57643813E+03</pdfrwt>
<pdfrwt beam="2">  1       21 0.93941856E-01 0.57643813E+03</pdfrwt>
<totfact> 0.31618916E+02</totfact>
</mgrwt>
</event>
<event>
 4    1  0.8562541E-003  0.4508470E+03  0.7818608E-02  0.1027470E+00
         21   -1    0    0  501  502  0.00000000000E+00  0.00000000000E+00  0.87236895385E+03  0.87236895385E+03  0.00000000000E+00 0. -1.
         21   -1    0    0  502  503 -0.00000000000E+00 -0.00000000000E+00 -0.24207744350E+03  0.24207744350E+03  0.00000000000E+00 0.  1.
    9000005    1    1    2  501    0  0.19310868026E+03 -0.77278844954E+02  0.20724960686E+03  0.49620094902E+03  0.40000000000E+03 0.  1.
   -9000005    1    1    2    0  503 -0.19310868026E+03  0.77278844954E+02  0.42304190349E+03  0.61824544833E+03  0.40000000000E+03 0. -1.
<mgrwt>
<rscale>  2 0.45084696E+03</rscale>
<asrwt>0</asrwt>
<pdfrwt beam="1">  1       21 0.13421061E+00 0.45084696E+03</pdfrwt>
<pdfrwt beam="2">  1       21 0.37242684E-01 0.45084696E+03</pdfrwt>
<totfact> 0.23882904E+03</totfact>
</mgrwt>
</event>
<event>
 4    1  0.8562541E-003  0.4073450E+03  0.7818608E-02  0.1041266E+00
         21   -1    0    0  501  502  0.00000000000E+00  0.00000000000E+00  0.23697735525E+03  0.23697735525E+03  0.00000000000E+00 0.  1.
         21   -1    0    0  502  503 -0.00000000000E+00 -0.00000000000E+00 -0.70696769677E+03  0.70696769677E+03  0.00000000000E+00 0.  1.
    9000005    1    1    2  501    0  0.77005893355E+02 -0.41202674927E-01 -0.18879340036E+03  0.44896865963E+03  0.40000000000E+03 0. -1.
   -9000005    1    1    2    0  503 -0.77005893355E+02  0.41202674927E-01 -0.28119694116E+03  0.49497639239E+03  0.40000000000E+03 0. -1.
<mgrwt>
<rscale>  2 0.40734495E+03</rscale>
<asrwt>0</asrwt>
<pdfrwt beam="1">  1       21 0.36458055E-01 0.40734495E+03</pdfrwt>
<pdfrwt beam="2">  1       21 0.10876426E+00 0.40734495E+03</pdfrwt>
<totfact> 0.43249407E+03</totfact>
</mgrwt>
</event>
<event>
 4    1  0.8562541E-003  0.4884501E+03  0.7818608E-02  0.1016838E+00
         21   -1    0    0  501  502  0.00000000000E+00  0.00000000000E+00  0.53592286549E+03  0.53592286549E+03  0.00000000000E+00 0. -1.
         21   -1    0    0  502  503 -0.00000000000E+00 -0.00000000000E+00 -0.55705972742E+03  0.55705972742E+03  0.00000000000E+00 0. -1.
    9000005    1    1    2  501    0 -0.26737156002E+03 -0.84237339947E+02  0.23433970784E+03  0.54175509155E+03  0.40000000000E+03 0. -1.
   -9000005    1    1    2    0  503  0.26737156002E+03  0.84237339947E+02 -0.25547656978E+03  0.55122750136E+03  0.40000000000E+03 0. -1.
<mgrwt>
<rscale>  2 0.48845008E+03</rscale>
<asrwt>0</asrwt>
<pdfrwt beam="1">  1       21 0.82449672E-01 0.48845008E+03</pdfrwt>
<pdfrwt beam="2">  1       21 0.85701497E-01 0.48845008E+03</pdfrwt>
<totfact> 0.12729773E+03</totfact>
</mgrwt>
</event>
<event>
 4    1  0.8562541E-003  0.6027838E+03  0.7818608E-02  0.9899647E-01
         21   -1    0    0  501  502  0.00000000000E+00  0.00000000000E+00  0.87472703506E+03  0.87472703506E+03  0.00000000000E+00 0.  1.
         21   -1    0    0  502  503 -0.00000000000E+00 -0.00000000000E+00 -0.41564811058E+03  0.41564811058E+03  0.00000000000E+00 0. -1.
    9000005    1    1    2  501    0  0.36660370007E+02 -0.44944889628E+03  0.21329978352E+03  0.63940995515E+03  0.40000000000E+03 0.  1.
   -9000005    1    1    2    0  503 -0.36660370007E+02  0.44944889628E+03  0.24577914095E+03  0.65096519049E+03  0.40000000000E+03 0.  1.
<mgrwt>
<rscale>  2 0.60278379E+03</rscale>
<asrwt>0</asrwt>
<pdfrwt beam="1">  1       21 0.13457339E+00 0.60278379E+03</pdfrwt>
<pdfrwt beam="2">  1       21 0.63945863E-01 0.60278379E+03</pdfrwt>
<totfact> 0.71141547E+02</totfact>
</mgrwt>
</event>
<event>
 4    1  0.8562541E-003  0.5281191E+03  0.7818608E-02  0.1006689E+00
         21   -1    0    0  503  502  0.00000000000E+00  0.00000000000E+00  0.32034965390E+03  0.32034965390E+03  0.00000000000E+00 0.  1.
         21   -1    0    0  501  503 -0.00000000000E+00 -0.00000000000E+00 -0.11948688013E+04  0.11948688013E+04  0.00000000000E+00 0. -1.
    9000005    1    1    2  501    0  0.87357371066E+01  0.34472230388E+03 -0.83190745475E+03  0.98538306924E+03  0.40000000000E+03 0. -1.
   -9000005    1    1    2    0  502 -0.87357371066E+01 -0.34472230388E+03 -0.42611692683E+02  0.52983538599E+03  0.40000000000E+03 0.  1.
<mgrwt>
<rscale>  2 0.52811910E+03</rscale>
<asrwt>0</asrwt>
<pdfrwt beam="1">  1       21 0.49284563E-01 0.52811910E+03</pdfrwt>
<pdfrwt beam="2">  1       21 0.18382596E+00 0.52811910E+03</pdfrwt>
<totfact> 0.53908648E+02</totfact>
</mgrwt>
</event>
<event>
 4    1  0.8562541E-003  0.4843954E+03  0.7818608E-02  0.1017934E+00
         21   -1    0    0  503  502  0.00000000000E+00  0.00000000000E+00  0.13451751549E+04  0.13451751549E+04  0.00000000000E+00 0.  1.
         21   -1    0    0  501  503 -0.00000000000E+00 -0.00000000000E+00 -0.18965189086E+03  0.18965189086E+03  0.00000000000E+00 0. -1.
    9000005    1    1    2  501    0 -0.10992764829E+03  0.25010961844E+03  0.79517442174E+03  0.93109681026E+03  0.40000000000E+03 0.  1.
   -9000005    1    1    2    0  502  0.10992764829E+03 -0.25010961844E+03  0.36034884228E+03  0.60373023547E+03  0.40000000000E+03 0. -1.
<mgrwt>
<rscale>  2 0.48439541E+03</rscale>
<asrwt>0</asrwt>
<pdfrwt beam="1">  1       21 0.20695002E+00 0.48439541E+03</pdfrwt>
<pdfrwt beam="2">  1       21 0.29177215E-01 0.48439541E+03</pdfrwt>
<totfact> 0.11216630E+03</totfact>
</mgrwt>
</event>
<event>
 4    1  0.8562541E-003  0.4277273E+03  0.7818608E-02  0.1034580E+00
         21   -1    0    0  501  502  0.00000000000E+00  0.00000000000E+00  0.22883694380E+03  0.22883694380E+03  0.00000000000E+00 0.  1.
         21   -1    0    0  502  503 -0.00000000000E+00 -0.00000000000E+00 -0.80004489483E+03  0.80004489483E+03  0.00000000000E+00 0.  1.
    9000005    1    1    2  501    0  0.65365236426E+02  0.13666755735E+03 -0.27193817103E+03  0.50685402655E+03  0.40000000000E+03 0.  1.
   -9000005    1    1    2    0  503 -0.65365236426E+02 -0.13666755735E+03 -0.29926978000E+03  0.52202781208E+03  0.40000000000E+03 0.  1.
<mgrwt>
<rscale>  2 0.42772729E+03</rscale>
<asrwt>0</asrwt>
<pdfrwt beam="1">  1       21 0.35205684E-01 0.42772729E+03</pdfrwt>
<pdfrwt beam="2">  1       21 0.12308383E+00 0.42772729E+03</pdfrwt>
<totfact> 0.33783803E+03</totfact>
</mgrwt>
</event>
<event>
 4    1  0.8562541E-003  0.4139923E+03  0.7818608E-02  0.1039040E+00
         21   -1    0    0  501  502  0.00000000000E+00  0.00000000000E+00  0.72273030633E+03  0.72273030633E+03  0.00000000000E+00 0.  1.
         21   -1    0    0  502  503 -0.00000000000E+00 -0.00000000000E+00 -0.23958093614E+03  0.23958093614E+03  0.00000000000E+00 0.  1.
    9000005    1    1    2  501    0  0.61903696540E+02 -0.86934080956E+02  0.19302650189E+03  0.45678094587E+03  0.40000000000E+03 0.  1.
   -9000005    1    1    2    0  503 -0.61903696540E+02  0.86934080956E+02  0.29012286830E+03  0.50553029661E+03  0.40000000000E+03 0.  1.
<mgrwt>
<rscale>  2 0.41399227E+03</rscale>
<asrwt>0</asrwt>
<pdfrwt beam="1">  1       21 0.11118928E+00 0.41399227E+03</pdfrwt>
<pdfrwt beam="2">  1       21 0.36858606E-01 0.41399227E+03</pdfrwt>
<totfact> 0.39952180E+03</totfact>
</mgrwt>
</event>
<event>
 4    1  0.8562541E-003  0.5385858E+03  0.7818608E-02  0.1004171E+00
         21   -1    0    0  503  502  0.00000000000E+00  0.00000000000E+00  0.55003708727E+03  0.55003708727E+03  0.00000000000E+00 0. -1.
         21   -1    0    0  501  503 -0.00000000000E+00 -0.00000000000E+00 -0.53182422756E+03  0.53182422756E+03  0.00000000000E+00 0. -1.
    9000005    1    1    2  501    0  0.18899364441E+03  0.30717437383E+03 -0.40381443235E+02  0.54009754167E+03  0.40000000000E+03 0. -1.
   -9000005    1    1    2    0  502 -0.18899364441E+03 -0.30717437383E+03  0.58594302948E+02  0.54176377315E+03  0.40000000000E+03 0. -1.
<mgrwt>
<rscale>  2 0.53858583E+03</rscale>
<asrwt>0</asrwt>
<pdfrwt beam="1">  1       21 0.84621091E-01 0.53858583E+03</pdfrwt>
<pdfrwt beam="2">  1       21 0.81819111E-01 0.53858583E+03</pdfrwt>
<totfact> 0.13123642E+03</totfact>
</mgrwt>
</event>
<event>
 4    1  0.8562541E-003  0.4633944E+03  0.7818608E-02  0.1023801E+00
         21   -1    0    0  503  502  0.00000000000E+00  0.00000000000E+00  0.19184584870E+04  0.19184584870E+04  0.00000000000E+00 0. -1.
         21   -1    0    0  501  503 -0.00000000000E+00 -0.00000000000E+00 -0.13388740388E+03  0.13388740388E+03  0.00000000000E+00 0. -1.
    9000005    1    1    2  501    0  0.16539654934E+03 -0.16546396694E+03  0.13078463420E+04  0.13875144674E+04  0.40000000000E+03 0. -1.
   -9000005    1    1    2    0  502 -0.16539654934E+03  0.16546396694E+03  0.47672474113E+03  0.66483142351E+03  0.40000000000E+03 0. -1.
<mgrwt>
<rscale>  2 0.46339437E+03</rscale>
<asrwt>0</asrwt>
<pdfrwt beam="1">  1       21 0.29514744E+00 0.46339437E+03</pdfrwt>
<pdfrwt beam="2">  1       21 0.20598064E-01 0.46339437E+03</pdfrwt>
<totfact> 0.63319929E+02</totfact>
</mgrwt>
</event>
<event>
 4    1  0.8562541E-003  0.6131075E+03  0.7818608E-02  0.9878579E-01
         21   -1    0    0  503  502  0.00000000000E+00  0.00000000000E+00  0.40422249821E+03  0.40422249821E+03  0.00000000000E+00 0. -1.
         21   -1    0    0  501  503 -0.00000000000E+00 -0.00000000000E+00 -0.93650543656E+03  0.93650543656E+03  0.00000000000E+00 0.  1.
    9000005    1    1    2  501    0  0.39776256585E+03 -0.24017848601E+03 -0.32229062314E+03  0.69265576566E+03  0.40000000000E+03 0.  1.
   -9000005    1    1    2    0  502 -0.39776256585E+03  0.24017848601E+03 -0.20999231521E+03  0.64807216911E+03  0.40000000000E+03 0. -1.
<mgrwt>
<rscale>  2 0.61310747E+03</rscale>
<asrwt>0</asrwt>
<pdfrwt beam="1">  1       21 0.62188076E-01 0.61310747E+03</pdfrwt>
<pdfrwt beam="2">  1       21 0.14407776E+00 0.61310747E+03</pdfrwt>
<totfact> 0.62839857E+02</totfact>
</mgrwt>
</event>
<event>
 4    1  0.8562541E-003  0.5207031E+03  0.7818608E-02  0.1008512E+00
         21   -1    0    0  503  502  0.00000000000E+00  0.00000000000E+00  0.19451658693E+04  0.19451658693E+04  0.00000000000E+00 0. -1.
         21   -1    0    0  501  503 -0.00000000000E+00 -0.00000000000E+00 -0.15337236128E+03  0.15337236128E+03  0.00000000000E+00 0.  1.
    9000005    1    1    2  501    0 -0.18990394943E+03 -0.27398584871E+03  0.12127388202E+04  0.13197981669E+04  0.40000000000E+03 0.  1.
   -9000005    1    1    2    0  502  0.18990394943E+03  0.27398584871E+03  0.57905468782E+03  0.77874006368E+03  0.40000000000E+03 0.  1.
<mgrwt>
<rscale>  2 0.52070314E+03</rscale>
<asrwt>0</asrwt>
<pdfrwt beam="1">  1       21 0.29925627E+00 0.52070314E+03</pdfrwt>
<pdfrwt beam="2">  1       21 0.23595749E-01 0.52070314E+03</pdfrwt>
<totfact> 0.44709048E+02</totfact>
</mgrwt>
</event>
<event>
 4    1  0.8562541E-003  0.4453643E+03  0.7818608E-02  0.1029114E+00
         21   -1    0    0  503  502  0.00000000000E+00  0.00000000000E+00  0.34618069687E+03  0.34618069687E+03  0.00000000000E+00 0.  1.
         21   -1    0    0  501  503 -0.00000000000E+00 -0.00000000000E+00 -0.77023288140E+03  0.77023288140E+03  0.00000000000E+00 0.  1.
    9000005    1    1    2  501    0 -0.18275899215E+03 -0.70345938216E+02 -0.49452212256E+03  0.66550847473E+03  0.40000000000E+03 0.  1.
   -9000005    1    1    2    0  502  0.18275899215E+03  0.70345938216E+02  0.70469938033E+02  0.45090510354E+03  0.40000000000E+03 0.  1.
<mgrwt>
<rscale>  2 0.44536435E+03</rscale>
<asrwt>0</asrwt>
<pdfrwt beam="1">  1       21 0.53258569E-01 0.44536435E+03</pdfrwt>
<pdfrwt beam="2">  1       21 0.11849737E+00 0.44536435E+03</pdfrwt>
<totfact> 0.15607434E+03</totfact>
</mgrwt>
</event>
<event>
 4    1  0.8562541E-003  0.1066929E+04  0.7818608E-02  0.9238038E-01
         21   -1    0    0  503  502  0.00000000000E+00  0.00000000000E+00  0.56183390061E+03  0.56183390061E+03  0.00000000000E+00 0. -1.
         21   -1    0    0  501  503 -0.00000000000E+00 -0.00000000000E+00 -0.22253042940E+04  0.22253042940E+04  0.00000000000E+00 0.  1.
    9000005    1    1    2  501    0  0.97644766861E+03 -0.15775888298E+03 -0.12486727639E+04  0.16424133420E+04  0.40000000000E+03 0.  1.
   -9000005    1    1    2    0  502 -0.97644766861E+03  0.15775888298E+03 -0.41479762947E+03  0.11447248526E+04  0.40000000000E+03 0. -1.
<mgrwt>
<rscale>  2 0.10669292E+04</rscale>
<asrwt>0</asrwt>
<pdfrwt beam="1">  1       21 0.86435983E-01 0.10669292E+04</pdfrwt>
<pdfrwt beam="2">  1       21 0.34235451E+00 0.10669292E+04</pdfrwt>
<totfact> 0.12387182E+01</totfact>
</mgrwt>
</event>
<event>
 4    1  0.8562541E-003  0.4384889E+03  0.7818608E-02  0.1031211E+00
         21   -1    0    0  503  502  0.00000000000E+00  0.00000000000E+00  0.10691843064E+03  0.10691843064E+03  0.00000000000E+00 0. -1.
         21   -1    0    0  501  503 -0.00000000000E+00 -0.00000000000E+00 -0.18754056840E+04  0.18754056840E+04  0.00000000000E+00 0. -1.
    9000005    1    1    2  501    0 -0.15356584786E+03  0.93220347807E+02 -0.68328272817E+03  0.81187917173E+03  0.40000000000E+03 0. -1.
   -9000005    1    1    2    0  502  0.15356584786E+03 -0.93220347807E+02 -0.10852045252E+04  0.11704449429E+04  0.40000000000E+03 0. -1.
<mgrwt>
<rscale>  2 0.43848889E+03</rscale>
<asrwt>0</asrwt>
<pdfrwt beam="1">  1       21 0.16448990E-01 0.43848889E+03</pdfrwt>
<pdfrwt beam="2">  1       21 0.28852394E+00 0.43848889E+03</pdfrwt>
<totfact> 0.10757416E+03</totfact>
</mgrwt>
</event>
<event>
 4    1  0.8562541E-003  0.5565904E+03  0.7818608E-02  0.9999799E-01
         21   -1    0    0  503  502  0.00000000000E+00  0.00000000000E+00  0.19001938517E+04  0.19001938517E+04  0.00000000000E+00 0.  1.
         21   -1    0    0  501  503 -0.00000000000E+00 -0.00000000000E+00 -0.16315410761E+03  0.16315410761E+03  0.00000000000E+00 0. -1.
    9000005    1    1    2  501    0  0.12834540233E+03  0.36513058242E+03  0.84032535213E+03  0.10079382828E+04  0.40000000000E+03 0.  1.
   -9000005    1    1    2    0  502 -0.12834540233E+03 -0.36513058242E+03  0.89671439196E+03  0.10554096765E+04  0.40000000000E+03 0. -1.
<mgrwt>
<rscale>  2 0.55659041E+03</rscale>
<asrwt>0</asrwt>
<pdfrwt beam="1">  1       21 0.29233750E+00 0.55659041E+03</pdfrwt>
<pdfrwt beam="2">  1       21 0.25100633E-01 0.55659041E+03</pdfrwt>
<totfact> 0.42928346E+02</totfact>
</mgrwt>
</event>
<event>
 4    1  0.8562541E-003  0.4401089E+03  0.7818608E-02  0.1030713E+00
         21   -1    0    0  501  502  0.00000000000E+00  0.00000000000E+00  0.33887082600E+03  0.33887082600E+03  0.00000000000E+00 0. -1.
         21   -1    0    0  502  503 -0.00000000000E+00 -0.00000000000E+00 -0.66099214289E+03  0.66099214289E+03  0.00000000000E+00 0.  1.
    9000005    1    1    2  501    0 -0.15363959267E+03 -0.10045278652E+03  0.22796780209E+02  0.44069896749E+03  0.40000000000E+03 0. -1.
   -9000005    1    1    2    0  503  0.15363959267E+03  0.10045278652E+03 -0.34491809710E+03  0.55916400140E+03  0.40000000000E+03 0.  1.
<mgrwt>
<rscale>  2 0.44010895E+03</rscale>
<asrwt>0</asrwt>
<pdfrwt beam="1">  1       21 0.52133974E-01 0.44010895E+03</pdfrwt>
<pdfrwt beam="2">  1       21 0.10169110E+00 0.44010895E+03</pdfrwt>
<totfact> 0.23921800E+03</totfact>
</mgrwt>
</event>
<event>
 4    1  0.8562541E-003  0.4752865E+03  0.7818608E-02  0.1020439E+00
         21   -1    0    0  501  502  0.00000000000E+00  0.00000000000E+00  0.66563850806E+03  0.66563850806E+03  0.00000000000E+00 0. -1.
         21   -1    0    0  502  503 -0.00000000000E+00 -0.00000000000E+00 -0.36648686426E+03  0.36648686426E+03  0.00000000000E+00 0. -1.
    9000005    1    1    2  501    0 -0.21617840500E+03 -0.13843470092E+03  0.91979497450E+01  0.47537550577E+03  0.40000000000E+03 0. -1.
   -9000005    1    1    2    0  503  0.21617840500E+03  0.13843470092E+03  0.28995369406E+03  0.55674986655E+03  0.40000000000E+03 0. -1.
<mgrwt>
<rscale>  2 0.47528651E+03</rscale>
<asrwt>0</asrwt>
<pdfrwt beam="1">  1       21 0.10240592E+00 0.47528651E+03</pdfrwt>
<pdfrwt beam="2">  1       21 0.56382595E-01 0.47528651E+03</pdfrwt>
<totfact> 0.19606608E+03</totfact>
</mgrwt>
</event>
<event>
 4    1  0.8562541E-003  0.4013159E+03  0.7818608E-02  0.1043325E+00
         21   -1    0    0  503  502  0.00000000000E+00  0.00000000000E+00  0.61361323886E+03  0.61361323886E+03  0.00000000000E+00 0.  1.
         21   -1    0    0  501  503 -0.00000000000E+00 -0.00000000000E+00 -0.29153516275E+03  0.29153516275E+03  0.00000000000E+00 0.  1.
    9000005    1    1    2  501    0  0.20125247388E+02  0.25483587215E+02  0.30394105122E+03  0.50342288527E+03  0.40000000000E+03 0. -1.
   -9000005    1    1    2    0  502 -0.20125247388E+02 -0.25483587215E+02  0.18137024895E+02  0.40172551633E+03  0.40000000000E+03 0. -1.
<mgrwt>
<rscale>  2 0.40131588E+03</rscale>
<asrwt>0</asrwt>
<pdfrwt beam="1">  1       21 0.94402037E-01 0.40131588E+03</pdfrwt>
<pdfrwt beam="2">  1       21 0.44851564E-01 0.40131588E+03</pdfrwt>
<totfact> 0.39926225E+03</totfact>
</mgrwt>
</event>
<event>
 4    1  0.8562541E-003  0.4432566E+03  0.7818608E-02  0.1029752E+00
         21   -1    0    0  501  502  0.00000000000E+00  0.00000000000E+00  0.67908278268E+03  0.67908278268E+03  0.00000000000E+00 0.  1.
         21   -1    0    0  502  503 -0.00000000000E+00 -0.00000000000E+00 -0.32359938341E+03  0.32359938341E+03  0.00000000000E+00 0.  1.
    9000005    1    1    2  501    0  0.10390547496E+03 -0.16024988925E+03  0.34089929386E+03  0.55918575025E+03  0.40000000000E+03 0.  1.
   -9000005    1    1    2    0  503 -0.10390547496E+03  0.16024988925E+03  0.14584105409E+02  0.44349641584E+03  0.40000000000E+03 0.  1.
<mgrwt>
<rscale>  2 0.44325656E+03</rscale>
<asrwt>0</asrwt>
<pdfrwt beam="1">  1       21 0.10447427E+00 0.44325656E+03</pdfrwt>
<pdfrwt beam="2">  1       21 0.49784521E-01 0.44325656E+03</pdfrwt>
<totfact> 0.24674205E+03</totfact>
</mgrwt>
</event>
<event>
 4    1  0.8562541E-003  0.4128396E+03  0.7818608E-02  0.1039422E+00
         21   -1    0    0  503  502  0.00000000000E+00  0.00000000000E+00  0.81035151597E+02  0.81035151597E+02  0.00000000000E+00 0.  1.
         21   -1    0    0  501  503 -0.00000000000E+00 -0.00000000000E+00 -0.21112420862E+04  0.21112420862E+04  0.00000000000E+00 0.  1.
    9000005    1    1    2  501    0 -0.52731147358E+02  0.87498501750E+02 -0.10825771818E+04  0.11586241480E+04  0.40000000000E+03 0.  1.
   -9000005    1    1    2    0  502  0.52731147358E+02 -0.87498501750E+02 -0.94762975280E+03  0.10336530898E+04  0.40000000000E+03 0.  1.
<mgrwt>
<rscale>  2 0.41283963E+03</rscale>
<asrwt>0</asrwt>
<pdfrwt beam="1">  1       21 0.12466945E-01 0.41283963E+03</pdfrwt>
<pdfrwt beam="2">  1       21 0.32480651E+00 0.41283963E+03</pdfrwt>
<totfact> 0.11023246E+03</totfact>
</mgrwt>
</event>
<event>
 4    1  0.8562541E-003  0.4275695E+03  0.7818608E-02  0.1034630E+00
         21   -1    0    0  501  502  0.00000000000E+00  0.00000000000E+00  0.36854049176E+03  0.36854049176E+03  0.00000000000E+00 0.  1.
         21   -1    0    0  502  503 -0.00000000000E+00 -0.00000000000E+00 -0.52215066942E+03  0.52215066942E+03  0.00000000000E+00 0. -1.
    9000005    1    1    2  501    0 -0.12578907344E+03  0.83623018055E+02  0.22757963652E+02  0.42817475995E+03  0.40000000000E+03 0.  1.
   -9000005    1    1    2    0  503  0.12578907344E+03 -0.83623018055E+02 -0.17636814131E+03  0.46251640124E+03  0.40000000000E+03 0. -1.
<mgrwt>
<rscale>  2 0.42756953E+03</rscale>
<asrwt>0</asrwt>
<pdfrwt beam="1">  1       21 0.56698537E-01 0.42756953E+03</pdfrwt>
<pdfrwt beam="2">  1       21 0.80330872E-01 0.42756953E+03</pdfrwt>
<totfact> 0.35078379E+03</totfact>
</mgrwt>
</event>
<event>
 4    1  0.8562541E-003  0.4739382E+03  0.7818608E-02  0.1020815E+00
         21   -1    0    0  501  502  0.00000000000E+00  0.00000000000E+00  0.20054341950E+04  0.20054341950E+04  0.00000000000E+00 0. -1.
         21   -1    0    0  502  503 -0.00000000000E+00 -0.00000000000E+00 -0.15889095459E+03  0.15889095459E+03  0.00000000000E+00 0.  1.
    9000005    1    1    2  501    0 -0.34602299186E+02 -0.25183342009E+03  0.33542066362E+03  0.58062415741E+03  0.40000000000E+03 0.  1.
   -9000005    1    1    2    0  503  0.34602299186E+02  0.25183342009E+03  0.15111225768E+04  0.15837009922E+04  0.40000000000E+03 0. -1.
<mgrwt>
<rscale>  2 0.47393817E+03</rscale>
<asrwt>0</asrwt>
<pdfrwt beam="1">  1       21 0.30852832E+00 0.47393817E+03</pdfrwt>
<pdfrwt beam="2">  1       21 0.24444764E-01 0.47393817E+03</pdfrwt>
<totfact> 0.37595304E+02</totfact>
</mgrwt>
</event>
<event>
 4    1  0.8562541E-003  0.4223668E+03  0.7818608E-02  0.1036299E+00
         21   -1    0    0  501  502  0.00000000000E+00  0.00000000000E+00  0.28413960171E+03  0.28413960171E+03  0.00000000000E+00 0. -1.
         21   -1    0    0  502  503 -0.00000000000E+00 -0.00000000000E+00 -0.63228317152E+03  0.63228317152E+03  0.00000000000E+00 0. -1.
    9000005    1    1    2  501    0 -0.12479242553E+02  0.13504800955E+03 -0.21249064780E+03  0.47280648450E+03  0.40000000000E+03 0.  1.
   -9000005    1    1    2    0  503  0.12479242553E+02 -0.13504800955E+03 -0.13565292201E+03  0.44361628873E+03  0.40000000000E+03 0.  1.
<mgrwt>
<rscale>  2 0.42236678E+03</rscale>
<asrwt>0</asrwt>
<pdfrwt beam="1">  1       21 0.43713786E-01 0.42236678E+03</pdfrwt>
<pdfrwt beam="2">  1       21 0.97274333E-01 0.42236678E+03</pdfrwt>
<totfact> 0.38895092E+03</totfact>
</mgrwt>
</event>
<event>
 4    1  0.8562541E-003  0.4067020E+03  0.7818608E-02  0.1041483E+00
         21   -1    0    0  503  502  0.00000000000E+00  0.00000000000E+00  0.54152086563E+03  0.54152086563E+03  0.00000000000E+00 0.  1.
         21   -1    0    0  501  503 -0.00000000000E+00 -0.00000000000E+00 -0.33137953661E+03  0.33137953661E+03  0.00000000000E+00 0.  1.
    9000005    1    1    2  501    0 -0.71799518039E+02 -0.15853719245E+02 -0.17020791265E+02  0.40705800390E+03  0.40000000000E+03 0.  1.
   -9000005    1    1    2    0  502  0.71799518039E+02  0.15853719245E+02  0.22716212028E+03  0.46584239835E+03  0.40000000000E+03 0.  1.
<mgrwt>
<rscale>  2 0.40670199E+03</rscale>
<asrwt>0</asrwt>
<pdfrwt beam="1">  1       21 0.83310902E-01 0.40670199E+03</pdfrwt>
<pdfrwt beam="2">  1       21 0.50981467E-01 0.40670199E+03</pdfrwt>
<totfact> 0.40820016E+03</totfact>
</mgrwt>
</event>
<event>
 4    1  0.8562541E-003  0.4127054E+03  0.7818608E-02  0.1039467E+00
         21   -1    0    0  501  502  0.00000000000E+00  0.00000000000E+00  0.89937771028E+02  0.89937771028E+02  0.00000000000E+00 0. -1.
         21   -1    0    0  502  503 -0.00000000000E+00 -0.00000000000E+00 -0.20273050783E+04  0.20273050783E+04  0.00000000000E+00 0. -1.
    9000005    1    1    2  501    0  0.56083926082E+02 -0.84736876919E+02 -0.69703898662E+03  0.81005499439E+03  0.40000000000E+03 0. -1.
   -9000005    1    1    2    0  503 -0.56083926082E+02  0.84736876919E+02 -0.12403283207E+04  0.13071878550E+04  0.40000000000E+03 0. -1.
<mgrwt>
<rscale>  2 0.41270540E+03</rscale>
<asrwt>0</asrwt>
<pdfrwt beam="1">  1       21 0.13836581E-01 0.41270540E+03</pdfrwt>
<pdfrwt beam="2">  1       21 0.31189307E+00 0.41270540E+03</pdfrwt>
<totfact> 0.10889816E+03</totfact>
</mgrwt>
</event>
<event>
 4    1  0.8562541E-003  0.5702552E+03  0.7818608E-02  0.9969114E-01
         21   -1    0    0  503  502  0.00000000000E+00  0.00000000000E+00  0.12660969440E+04  0.12660969440E+04  0.00000000000E+00 0.  1.
         21   -1    0    0  501  503 -0.00000000000E+00 -0.00000000000E+00 -0.25874999213E+03  0.25874999213E+03  0.00000000000E+00 0.  1.
    9000005    1    1    2  501    0  0.39254239219E+03  0.10536335419E+03  0.43825868155E+03  0.71920903639E+03  0.40000000000E+03 0.  1.
   -9000005    1    1    2    0  502 -0.39254239219E+03 -0.10536335419E+03  0.56908827031E+03  0.80563789973E+03  0.40000000000E+03 0.  1.
<mgrwt>
<rscale>  2 0.57025518E+03</rscale>
<asrwt>0</asrwt>
<pdfrwt beam="1">  1       21 0.19478414E+00 0.57025518E+03</pdfrwt>
<pdfrwt beam="2">  1       21 0.39807692E-01 0.57025518E+03</pdfrwt>
<totfact> 0.69762935E+02</totfact>
</mgrwt>
</event>
<event>
 4    1  0.8562541E-003  0.4687931E+03  0.7818608E-02  0.1022261E+00
         21   -1    0    0  503  502  0.00000000000E+00  0.00000000000E+00  0.37238103418E+03  0.37238103418E+03  0.00000000000E+00 0. -1.
         21   -1    0    0  501  503 -0.00000000000E+00 -0.00000000000E+00 -0.63647102825E+03  0.63647102825E+03  0.00000000000E+00 0. -1.
    9000005    1    1    2  501    0  0.13428318151E+02  0.24410369119E+03  0.40112193302E+01  0.46881021924E+03  0.40000000000E+03 0. -1.
   -9000005    1    1    2    0  502 -0.13428318151E+02 -0.24410369119E+03 -0.26810121340E+03  0.54004184320E+03  0.40000000000E+03 0. -1.
<mgrwt>
<rscale>  2 0.46879306E+03</rscale>
<asrwt>0</asrwt>
<pdfrwt beam="1">  1       21 0.57289390E-01 0.46879306E+03</pdfrwt>
<pdfrwt beam="2">  1       21 0.97918619E-01 0.46879306E+03</pdfrwt>
<totfact> 0.21171419E+03</totfact>
</mgrwt>
</event>
<event>
 4    1  0.8562541E-003  0.4112678E+03  0.7818608E-02  0.1039946E+00
         21   -1    0    0  503  502  0.00000000000E+00  0.00000000000E+00  0.72814383550E+03  0.72814383550E+03  0.00000000000E+00 0. -1.
         21   -1    0    0  501  503 -0.00000000000E+00 -0.00000000000E+00 -0.23526836333E+03  0.23526836333E+03  0.00000000000E+00 0. -1.
    9000005    1    1    2  501    0  0.84491028897E+02  0.44749088399E+02  0.19224753210E+03  0.45398274028E+03  0.40000000000E+03 0. -1.
   -9000005    1    1    2    0  502 -0.84491028897E+02 -0.44749088399E+02  0.30062794007E+03  0.50942945854E+03  0.40000000000E+03 0. -1.
<mgrwt>
<rscale>  2 0.41126781E+03</rscale>
<asrwt>0</asrwt>
<pdfrwt beam="1">  1       21 0.11202213E+00 0.41126781E+03</pdfrwt>
<pdfrwt beam="2">  1       21 0.36195133E-01 0.41126781E+03</pdfrwt>
<totfact> 0.40734621E+03</totfact>
</mgrwt>
</event>
<event>
 4    1  0.8562541E-003  0.4046024E+03  0.7818608E-02  0.1042198E+00
         21   -1    0    0  501  502  0.00000000000E+00  0.00000000000E+00  0.60879667219E+03  0.60879667219E+03  0.00000000000E+00 0. -1.
         21   -1    0    0  502  503 -0.00000000000E+00 -0.00000000000E+00 -0.27113378885E+03  0.27113378885E+03  0.00000000000E+00 0. -1.
    9000005    1    1    2  501    0 -0.13851405649E+02 -0.59255732593E+02  0.20879995785E+03  0.45530267480E+03  0.40000000000E+03 0. -1.
   -9000005    1    1    2    0  503  0.13851405649E+02  0.59255732593E+02  0.12886292548E+03  0.42462778624E+03  0.40000000000E+03 0. -1.
<mgrwt>
<rscale>  2 0.40460240E+03</rscale>
<asrwt>0</asrwt>
<pdfrwt beam="1">  1       21 0.93661026E-01 0.40460240E+03</pdfrwt>
<pdfrwt beam="2">  1       21 0.41712891E-01 0.40460240E+03</pdfrwt>
<totfact> 0.47244051E+03</totfact>
</mgrwt>
</event>
<event>
 4    1  0.8562541E-003  0.4573448E+03  0.7818608E-02  0.1025554E+00
         21   -1    0    0  501  502  0.00000000000E+00  0.00000000000E+00  0.71131769004E+03  0.71131769004E+03  0.00000000000E+00 0. -1.
         21   -1    0    0  502  503 -0.00000000000E+00 -0.00000000000E+00 -0.89223888909E+03  0.89223888909E+03  0.00000000000E+00 0. -1.
    9000005    1    1    2  501    0 -0.12215644523E+03 -0.18504616875E+03  0.56603560269E+03  0.72770913502E+03  0.40000000000E+03 0. -1.
   -9000005    1    1    2    0  503  0.12215644523E+03  0.18504616875E+03 -0.74695680175E+03  0.87584744411E+03  0.40000000000E+03 0. -1.
<mgrwt>
<rscale>  2 0.45734482E+03</rscale>
<asrwt>0</asrwt>
<pdfrwt beam="1">  1       21 0.10943349E+00 0.45734482E+03</pdfrwt>
<pdfrwt beam="2">  1       21 0.13726752E+00 0.45734482E+03</pdfrwt>
<totfact> 0.20280934E+02</totfact>
</mgrwt>
</event>
<event>
 4    1  0.8562541E-003  0.4041464E+03  0.7818608E-02  0.1042353E+00
         21   -1    0    0  501  502  0.00000000000E+00  0.00000000000E+00  0.12320879041E+03  0.12320879041E+03  0.00000000000E+00 0.  1.
         21   -1    0    0  502  503 -0.00000000000E+00 -0.00000000000E+00 -0.17941463043E+04  0.17941463043E+04  0.00000000000E+00 0.  1.
    9000005    1    1    2  501    0 -0.56355823543E+02 -0.12584482437E+02 -0.34559195312E+03  0.53175948144E+03  0.40000000000E+03 0.  1.
   -9000005    1    1    2    0  503  0.56355823543E+02  0.12584482437E+02 -0.13253455608E+04  0.13855956133E+04  0.40000000000E+03 0.  1.
<mgrwt>
<rscale>  2 0.40414644E+03</rscale>
<asrwt>0</asrwt>
<pdfrwt beam="1">  1       21 0.18955200E-01 0.40414644E+03</pdfrwt>
<pdfrwt beam="2">  1       21 0.27602248E+00 0.40414644E+03</pdfrwt>
<totfact> 0.99865227E+02</totfact>
</mgrwt>
</event>
<event>
 4    1  0.8562541E-003  0.4883739E+03  0.7818608E-02  0.1016859E+00
         21   -1    0    0  501  502  0.00000000000E+00  0.00000000000E+00  0.17855310183E+03  0.17855310183E+03  0.00000000000E+00 0.  1.
         21   -1    0    0  502  503 -0.00000000000E+00 -0.00000000000E+00 -0.13982580867E+04  0.13982580867E+04  0.00000000000E+00 0.  1.
    9000005    1    1    2  501    0  0.70482933382E+02  0.27118486332E+03 -0.44320744600E+03  0.65950126170E+03  0.40000000000E+03 0. -1.
   -9000005    1    1    2    0  503 -0.70482933382E+02 -0.27118486332E+03 -0.77649753891E+03  0.91730992686E+03  0.40000000000E+03 0. -1.
<mgrwt>
<rscale>  2 0.48837391E+03</rscale>
<asrwt>0</asrwt>
<pdfrwt beam="1">  1       21 0.27469709E-01 0.48837391E+03</pdfrwt>
<pdfrwt beam="2">  1       21 0.21511662E+00 0.48837391E+03</pdfrwt>
<totfact> 0.11157651E+03</totfact>
</mgrwt>
</event>
<event>
 4    1  0.8562541E-003  0.4459078E+03  0.7818608E-02  0.1028949E+00
         21   -1    0    0  503  502  0.00000000000E+00  0.00000000000E+00  0.12624352938E+03  0.12624352938E+03  0.00000000000E+00 0.  1.
         21   -1    0    0  501  503 -0.00000000000E+00 -0.00000000000E+00 -0.17774400833E+04  0.17774400833E+04  0.00000000000E+00 0.  1.
    9000005    1    1    2  501    0 -0.21989288985E+02 -0.19583221998E+03 -0.11468264322E+04  0.12304652180E+04  0.40000000000E+03 0.  1.
   -9000005    1    1    2    0  502  0.21989288985E+02  0.19583221998E+03 -0.50437012174E+03  0.67321839466E+03  0.40000000000E+03 0.  1.
<mgrwt>
<rscale>  2 0.44590782E+03</rscale>
<asrwt>0</asrwt>
<pdfrwt beam="1">  1       21 0.19422082E-01 0.44590782E+03</pdfrwt>
<pdfrwt beam="2">  1       21 0.27345231E+00 0.44590782E+03</pdfrwt>
<totfact> 0.96589873E+02</totfact>
</mgrwt>
</event>
<event>
 4    1  0.8562541E-003  0.4936675E+03  0.7818608E-02  0.1015445E+00
         21   -1    0    0  501  502  0.00000000000E+00  0.00000000000E+00  0.10665817545E+04  0.10665817545E+04  0.00000000000E+00 0. -1.
         21   -1    0    0  502  503 -0.00000000000E+00 -0.00000000000E+00 -0.23621910337E+03  0.23621910337E+03  0.00000000000E+00 0.  1.
    9000005    1    1    2  501    0 -0.10167663474E+02 -0.28914387439E+03  0.29738224811E+03  0.57631915027E+03  0.40000000000E+03 0.  1.
   -9000005    1    1    2    0  503  0.10167663474E+02  0.28914387439E+03  0.53298040304E+03  0.72648170762E+03  0.40000000000E+03 0. -1.
<mgrwt>
<rscale>  2 0.49366746E+03</rscale>
<asrwt>0</asrwt>
<pdfrwt beam="1">  1       21 0.16408950E+00 0.49366746E+03</pdfrwt>
<pdfrwt beam="2">  1       21 0.36341401E-01 0.49366746E+03</pdfrwt>
<totfact> 0.14307821E+03</totfact>
</mgrwt>
</event>
<event>
 4    1  0.8562541E-003  0.4976347E+03  0.7818608E-02  0.1014398E+00
         21   -1    0    0  501  502  0.00000000000E+00  0.00000000000E+00  0.30377462579E+03  0.30377462579E+03  0.00000000000E+00 0.  1.
         21   -1    0    0  502  503 -0.00000000000E+00 -0.00000000000E+00 -0.12095829270E+04  0.12095829270E+04  0.00000000000E+00 0. -1.
    9000005    1    1    2  501    0 -0.54806820024E+02 -0.29092361551E+03 -0.20841358327E+02  0.49807097868E+03  0.40000000000E+03 0.  1.
   -9000005    1    1    2    0  503  0.54806820024E+02  0.29092361551E+03 -0.88496694286E+03  0.10152865741E+04  0.40000000000E+03 0. -1.
<mgrwt>
<rscale>  2 0.49763474E+03</rscale>
<asrwt>0</asrwt>
<pdfrwt beam="1">  1       21 0.46734557E-01 0.49763474E+03</pdfrwt>
<pdfrwt beam="2">  1       21 0.18608968E+00 0.49763474E+03</pdfrwt>
<totfact> 0.58911421E+02</totfact>
</mgrwt>
</event>
<event>
 4    1  0.8562541E-003  0.4067785E+03  0.7818608E-02  0.1041457E+00
         21   -1    0    0  501  502  0.00000000000E+00  0.00000000000E+00  0.62017314121E+03  0.62017314121E+03  0.00000000000E+00 0.  1.
         21   -1    0    0  502  503 -0.00000000000E+00 -0.00000000000E+00 -0.26733642274E+03  0.26733642274E+03  0.00000000000E+00 0.  1.
    9000005    1    1    2  501    0 -0.21929542019E+02 -0.70624452554E+02  0.15673646838E+03  0.43593008457E+03  0.40000000000E+03 0.  1.
   -9000005    1    1    2    0  503  0.21929542019E+02  0.70624452554E+02  0.19610025009E+03  0.45157947938E+03  0.40000000000E+03 0.  1.
<mgrwt>
<rscale>  2 0.40677846E+03</rscale>
<asrwt>0</asrwt>
<pdfrwt beam="1">  1       21 0.95411252E-01 0.40677846E+03</pdfrwt>
<pdfrwt beam="2">  1       21 0.41128681E-01 0.40677846E+03</pdfrwt>
<totfact> 0.46499126E+03</totfact>
</mgrwt>
</event>
<event>
 4    1  0.8562541E-003  0.6516519E+03  0.7818608E-02  0.9803685E-01
         21   -1    0    0  503  502  0.00000000000E+00  0.00000000000E+00  0.71362103361E+03  0.71362103361E+03  0.00000000000E+00 0. -1.
         21   -1    0    0  501  503 -0.00000000000E+00 -0.00000000000E+00 -0.62759396359E+03  0.62759396359E+03  0.00000000000E+00 0.  1.
    9000005    1    1    2  501    0  0.45482514774E+03  0.24038349057E+03 -0.10966264143E+03  0.66081467333E+03  0.40000000000E+03 0.  1.
   -9000005    1    1    2    0  502 -0.45482514774E+03 -0.24038349057E+03  0.19568971145E+03  0.68040032387E+03  0.40000000000E+03 0. -1.
<mgrwt>
<rscale>  2 0.65165185E+03</rscale>
<asrwt>0</asrwt>
<pdfrwt beam="1">  1       21 0.10978785E+00 0.65165185E+03</pdfrwt>
<pdfrwt beam="2">  1       21 0.96552917E-01 0.65165185E+03</pdfrwt>
<totfact> 0.45413073E+02</totfact>
</mgrwt>
</event>
<event>
 4    1  0.8562541E-003  0.4842632E+03  0.7818608E-02  0.1017970E+00
         21   -1    0    0  503  502  0.00000000000E+00  0.00000000000E+00  0.25652794878E+03  0.25652794878E+03  0.00000000000E+00 0. -1.
         21   -1    0    0  501  503 -0.00000000000E+00 -0.00000000000E+00 -0.91474095258E+03  0.91474095258E+03  0.00000000000E+00 0. -1.
    9000005    1    1    2  501    0 -0.26593611240E+03 -0.61553421444E+02 -0.34370338608E+03  0.59383739961E+03  0.40000000000E+03 0. -1.
   -9000005    1    1    2    0  502  0.26593611240E+03  0.61553421444E+02 -0.31450961772E+03  0.57743150175E+03  0.40000000000E+03 0. -1.
<mgrwt>
<rscale>  2 0.48426319E+03</rscale>
<asrwt>0</asrwt>
<pdfrwt beam="1">  1       21 0.39465838E-01 0.48426319E+03</pdfrwt>
<pdfrwt beam="2">  1       21 0.14072938E+00 0.48426319E+03</pdfrwt>
<totfact> 0.18474843E+03</totfact>
</mgrwt>
</event>
<event>
 4    1  0.8562541E-003  0.6739687E+03  0.7818608E-02  0.9762815E-01
         21   -1    0    0  503  502  0.00000000000E+00  0.00000000000E+00  0.72421769327E+03  0.72421769327E+03  0.00000000000E+00 0.  1.
         21   -1    0    0  501  503 -0.00000000000E+00 -0.00000000000E+00 -0.66521229422E+03  0.66521229422E+03  0.00000000000E+00 0.  1.
    9000005    1    1    2  501    0 -0.24847726441E+03  0.48217514002E+03 -0.13655279262E+03  0.68766305830E+03  0.40000000000E+03 0.  1.
   -9000005    1    1    2    0  502  0.24847726441E+03 -0.48217514002E+03  0.19555819167E+03  0.70176692919E+03  0.40000000000E+03 0.  1.
<mgrwt>
<rscale>  2 0.67396871E+03</rscale>
<asrwt>0</asrwt>
<pdfrwt beam="1">  1       21 0.11141811E+00 0.67396871E+03</pdfrwt>
<pdfrwt beam="2">  1       21 0.10234035E+00 0.67396871E+03</pdfrwt>
<totfact> 0.37689164E+02</totfact>
</mgrwt>
</event>
<event>
 4    1  0.8562541E-003  0.4891764E+03  0.7818608E-02  0.1016643E+00
         21   -1    0    0  501  502  0.00000000000E+00  0.00000000000E+00  0.18485905013E+04  0.18485905013E+04  0.00000000000E+00 0. -1.
         21   -1    0    0  502  503 -0.00000000000E+00 -0.00000000000E+00 -0.12968218269E+03  0.12968218269E+03  0.00000000000E+00 0.  1.
    9000005    1    1    2  501    0 -0.25572048440E+03 -0.11790091472E+03  0.90162081201E+03  0.10257746733E+04  0.40000000000E+03 0. -1.
   -9000005    1    1    2    0  503  0.25572048440E+03  0.11790091472E+03  0.81728750659E+03  0.95249801063E+03  0.40000000000E+03 0.  1.
<mgrwt>
<rscale>  2 0.48917644E+03</rscale>
<asrwt>0</asrwt>
<pdfrwt beam="1">  1       21 0.28439852E+00 0.48917644E+03</pdfrwt>
<pdfrwt beam="2">  1       21 0.19951106E-01 0.48917644E+03</pdfrwt>
<totfact> 0.77088500E+02</totfact>
</mgrwt>
</event>
<event>
 4    1  0.8562541E-003  0.5499614E+03  0.7818608E-02  0.1001503E+00
         21   -1    0    0  503  502  0.00000000000E+00  0.00000000000E+00  0.38943776977E+03  0.38943776977E+03  0.00000000000E+00 0. -1.
         21   -1    0    0  501  503 -0.00000000000E+00 -0.00000000000E+00 -0.88050192764E+03  0.88050192764E+03  0.00000000000E+00 0.  1.
    9000005    1    1    2  501    0 -0.26075017031E+03  0.27288627035E+03 -0.27464379503E+02  0.55064676518E+03  0.40000000000E+03 0. -1.
   -9000005    1    1    2    0  502  0.26075017031E+03 -0.27288627035E+03 -0.46359977836E+03  0.71929293223E+03  0.40000000000E+03 0.  1.
<mgrwt>
<rscale>  2 0.54996142E+03</rscale>
<asrwt>0</asrwt>
<pdfrwt beam="1">  1       21 0.59913504E-01 0.54996142E+03</pdfrwt>
<pdfrwt beam="2">  1       21 0.13546183E+00 0.54996142E+03</pdfrwt>
<totfact> 0.82215050E+02</totfact>
</mgrwt>
</event>
<event>
 4    1  0.8562541E-003  0.6016656E+03  0.7818608E-02  0.9901956E-01
         21   -1    0    0  503  502  0.00000000000E+00  0.00000000000E+00  0.86817938608E+03  0.86817938608E+03  0.00000000000E+00 0.  1.
         21   -1    0    0  501  503 -0.00000000000E+00 -0.00000000000E+00 -0.49723524472E+03  0.49723524472E+03  0.00000000000E+00 0. -1.
    9000005    1    1    2  501    0 -0.11845574429E+03  0.43355482927E+03 -0.88828909287E+02  0.60818757671E+03  0.40000000000E+03 0. -1.
   -9000005    1    1    2    0  502  0.11845574429E+03 -0.43355482927E+03  0.45977305065E+03  0.75722705409E+03  0.40000000000E+03 0.  1.
<mgrwt>
<rscale>  2 0.60166565E+03</rscale>
<asrwt>0</asrwt>
<pdfrwt beam="1">  1       21 0.13356606E+00 0.60166565E+03</pdfrwt>
<pdfrwt beam="2">  1       21 0.76497730E-01 0.60166565E+03</pdfrwt>
<totfact> 0.48353496E+02</totfact>
</mgrwt>
</event>
<event>
 4    1  0.8562541E-003  0.4856707E+03  0.7818608E-02  0.1017588E+00
         21   -1    0    0  501  502  0.00000000000E+00  0.00000000000E+00  0.12888800433E+03  0.12888800433E+03  0.00000000000E+00 0. -1.
         21   -1    0    0  502  503 -0.00000000000E+00 -0.00000000000E+00 -0.18613883540E+04  0.18613883540E+04  0.00000000000E+00 0.  1.
    9000005    1    1    2  501    0  0.26268331133E+03 -0.82906519086E+02 -0.73719963813E+03  0.88280197067E+03  0.40000000000E+03 0. -1.
   -9000005    1    1    2    0  503 -0.26268331133E+03  0.82906519086E+02 -0.99530071156E+03  0.11074743877E+04  0.40000000000E+03 0. -1.
<mgrwt>
<rscale>  2 0.48567068E+03</rscale>
<asrwt>0</asrwt>
<pdfrwt beam="1">  1       21 0.19828924E-01 0.48567068E+03</pdfrwt>
<pdfrwt beam="2">  1       21 0.28636744E+00 0.48567068E+03</pdfrwt>
<totfact> 0.76022161E+02</totfact>
</mgrwt>
</event>
<event>
 4    1  0.8562541E-003  0.4260607E+03  0.7818608E-02  0.1035112E+00
         21   -1    0    0  503  502  0.00000000000E+00  0.00000000000E+00  0.41396628279E+03  0.41396628279E+03  0.00000000000E+00 0. -1.
         21   -1    0    0  501  503 -0.00000000000E+00 -0.00000000000E+00 -0.43953958365E+03  0.43953958365E+03  0.00000000000E+00 0. -1.
    9000005    1    1    2  501    0  0.13052303076E+03 -0.67018286560E+02  0.78831063835E+01  0.42613361245E+03  0.40000000000E+03 0. -1.
   -9000005    1    1    2    0  502 -0.13052303076E+03  0.67018286560E+02 -0.33456407237E+02  0.42737225399E+03  0.40000000000E+03 0. -1.
<mgrwt>
<rscale>  2 0.42606069E+03</rscale>
<asrwt>0</asrwt>
<pdfrwt beam="1">  1       21 0.63687120E-01 0.42606069E+03</pdfrwt>
<pdfrwt beam="2">  1       21 0.67621474E-01 0.42606069E+03</pdfrwt>
<totfact> 0.40236537E+03</totfact>
</mgrwt>
</event>
<event>
 4    1  0.8562541E-003  0.4133621E+03  0.7818608E-02  0.1039249E+00
         21   -1    0    0  501  502  0.00000000000E+00  0.00000000000E+00  0.26038543204E+04  0.26038543204E+04  0.00000000000E+00 0.  1.
         21   -1    0    0  502  503 -0.00000000000E+00 -0.00000000000E+00 -0.68121772038E+02  0.68121772038E+02  0.00000000000E+00 0. -1.
    9000005    1    1    2  501    0 -0.60449527393E+02  0.84935701851E+02  0.10119054518E+04  0.10930786167E+04  0.40000000000E+03 0.  1.
   -9000005    1    1    2    0  503  0.60449527393E+02 -0.84935701851E+02  0.15238270965E+04  0.15788974758E+04  0.40000000000E+03 0.  1.
<mgrwt>
<rscale>  2 0.41336209E+03</rscale>
<asrwt>0</asrwt>
<pdfrwt beam="1">  1       21 0.40059290E+00 0.41336209E+03</pdfrwt>
<pdfrwt beam="2">  1       21 0.10480275E-01 0.41336209E+03</pdfrwt>
<totfact> 0.51261755E+02</totfact>
</mgrwt>
</event>
<event>
 4    1  0.8562541E-003  0.4909188E+03  0.7818608E-02  0.1016177E+00
         21   -1    0    0  501  502  0.00000000000E+00  0.00000000000E+00  0.72945145416E+03  0.72945145416E+03  0.00000000000E+00 0. -1.
         21   -1    0    0  502  503 -0.00000000000E+00 -0.00000000000E+00 -0.50256735555E+03  0.50256735555E+03  0.00000000000E+00 0. -1.
    9000005    1    1    2  501    0  0.17876555921E+03  0.22145923293E+03  0.47400569563E+03  0.68240949327E+03  0.40000000000E+03 0. -1.
   -9000005    1    1    2    0  503 -0.17876555921E+03 -0.22145923293E+03 -0.24712159701E+03  0.54960931644E+03  0.40000000000E+03 0. -1.
<mgrwt>
<rscale>  2 0.49091885E+03</rscale>
<asrwt>0</asrwt>
<pdfrwt beam="1">  1       21 0.11222330E+00 0.49091885E+03</pdfrwt>
<pdfrwt beam="2">  1       21 0.77318055E-01 0.49091885E+03</pdfrwt>
<totfact> 0.76770245E+02</totfact>
</mgrwt>
</event>
<event>
 4    1  0.8562541E-003  0.4869735E+03  0.7818608E-02  0.1017236E+00
         21   -1    0    0  501  502  0.00000000000E+00  0.00000000000E+00  0.45016364357E+03  0.45016364357E+03  0.00000000000E+00 0.  1.
         21   -1    0    0  502  503 -0.00000000000E+00 -0.00000000000E+00 -0.55276133779E+03  0.55276133779E+03  0.00000000000E+00 0.  1.
    9000005    1    1    2  501    0 -0.26377714999E+03  0.86975843214E+02 -0.15998879025E+03  0.51258130591E+03  0.40000000000E+03 0.  1.
   -9000005    1    1    2    0  503  0.26377714999E+03 -0.86975843214E+02  0.57391096037E+02  0.49034367546E+03  0.40000000000E+03 0.  1.
<mgrwt>
<rscale>  2 0.48697349E+03</rscale>
<asrwt>0</asrwt>
<pdfrwt beam="1">  1       21 0.69255946E-01 0.48697349E+03</pdfrwt>
<pdfrwt beam="2">  1       21 0.85040205E-01 0.48697349E+03</pdfrwt>
<totfact> 0.19334013E+03</totfact>
</mgrwt>
</event>
<event>
 4    1  0.8562541E-003  0.6178400E+03  0.7818608E-02  0.9869070E-01
         21   -1    0    0  501  502  0.00000000000E+00  0.00000000000E+00  0.94824402342E+03  0.94824402342E+03  0.00000000000E+00 0. -1.
         21   -1    0    0  502  503 -0.00000000000E+00 -0.00000000000E+00 -0.40494172038E+03  0.40494172038E+03  0.00000000000E+00 0.  1.
    9000005    1    1    2  501    0  0.35089371911E+03 -0.31400615660E+03  0.21977526664E+03  0.65576477209E+03  0.40000000000E+03 0. -1.
   -9000005    1    1    2    0  503 -0.35089371911E+03  0.31400615660E+03  0.32352703640E+03  0.69742097170E+03  0.40000000000E+03 0.  1.
<mgrwt>
<rscale>  2 0.61784000E+03</rscale>
<asrwt>0</asrwt>
<pdfrwt beam="1">  1       21 0.14588370E+00 0.61784000E+03</pdfrwt>
<pdfrwt beam="2">  1       21 0.62298726E-01 0.61784000E+03</pdfrwt>
<totfact> 0.60419339E+02</totfact>
</mgrwt>
</event>
<event>
 4    1  0.8562541E-003  0.4052204E+03  0.7818608E-02  0.1041987E+00
         21   -1    0    0  501  502  0.00000000000E+00  0.00000000000E+00  0.55647923510E+03  0.55647923510E+03  0.00000000000E+00 0. -1.
         21   -1    0    0  502  503 -0.00000000000E+00 -0.00000000000E+00 -0.29628212352E+03  0.29628212352E+03  0.00000000000E+00 0. -1.
    9000005    1    1    2  501    0  0.27682778643E+02  0.58628107842E+02  0.15730458221E+03  0.43468186395E+03  0.40000000000E+03 0. -1.
   -9000005    1    1    2    0  503 -0.27682778643E+02 -0.58628107842E+02  0.10289252938E+03  0.41807949467E+03  0.40000000000E+03 0. -1.
<mgrwt>
<rscale>  2 0.40522042E+03</rscale>
<asrwt>0</asrwt>
<pdfrwt beam="1">  1       21 0.85612190E-01 0.40522042E+03</pdfrwt>
<pdfrwt beam="2">  1       21 0.45581865E-01 0.40522042E+03</pdfrwt>
<totfact> 0.48548477E+03</totfact>
</mgrwt>
</event>
<event>
 4    1  0.8562541E-003  0.4913595E+03  0.7818608E-02  0.1016059E+00
         21   -1    0    0  503  502  0.00000000000E+00  0.00000000000E+00  0.14551093888E+04  0.14551093888E+04  0.00000000000E+00 0.  1.
         21   -1    0    0  501  503 -0.00000000000E+00 -0.00000000000E+00 -0.16593119942E+03  0.16593119942E+03  0.00000000000E+00 0.  1.
    9000005    1    1    2  501    0  0.59470592896E+02  0.27910108711E+03  0.63844420210E+03  0.80563339519E+03  0.40000000000E+03 0.  1.
   -9000005    1    1    2    0  502 -0.59470592896E+02 -0.27910108711E+03  0.65073398726E+03  0.81540719301E+03  0.40000000000E+03 0.  1.
<mgrwt>
<rscale>  2 0.49135951E+03</rscale>
<asrwt>0</asrwt>
<pdfrwt beam="1">  1       21 0.22386297E+00 0.49135951E+03</pdfrwt>
<pdfrwt beam="2">  1       21 0.25527878E-01 0.49135951E+03</pdfrwt>
<totfact> 0.11304475E+03</totfact>
</mgrwt>
</event>
<event>
 4    1  0.8562541E-003  0.4900186E+03  0.7818608E-02  0.1016418E+00
         21   -1    0    0  501  502  0.00000000000E+00  0.00000000000E+00  0.31811318020E+03  0.31811318020E+03  0.00000000000E+00 0.  1.
         21   -1    0    0  502  503 -0.00000000000E+00 -0.00000000000E+00 -0.13009999470E+04  0.13009999470E+04  0.00000000000E+00 0.  1.
    9000005    1    1    2  501    0 -0.23664528291E+03  0.15529740481E+03  0.33093860928E+02  0.49113488727E+03  0.40000000000E+03 0.  1.
   -9000005    1    1    2    0  503  0.23664528291E+03 -0.15529740481E+03 -0.10159806278E+04  0.11279782400E+04  0.40000000000E+03 0.  1.
<mgrwt>
<rscale>  2 0.49001865E+03</rscale>
<asrwt>0</asrwt>
<pdfrwt beam="1">  1       21 0.48940488E-01 0.49001865E+03</pdfrwt>
<pdfrwt beam="2">  1       21 0.20015384E+00 0.49001865E+03</pdfrwt>
<totfact> 0.42993560E+02</totfact>
</mgrwt>
</event>
<event>
 4    1  0.8562541E-003  0.4393176E+03  0.7818608E-02  0.1030956E+00
         21   -1    0    0  503  502  0.00000000000E+00  0.00000000000E+00  0.11134710402E+04  0.11134710402E+04  0.00000000000E+00 0.  1.
         21   -1    0    0  501  503 -0.00000000000E+00 -0.00000000000E+00 -0.17568559973E+03  0.17568559973E+03  0.00000000000E+00 0.  1.
    9000005    1    1    2  501    0 -0.14647877249E+03 -0.10744246645E+03  0.54350227670E+03  0.69885237294E+03  0.40000000000E+03 0.  1.
   -9000005    1    1    2    0  502  0.14647877249E+03  0.10744246645E+03  0.39428316376E+03  0.59030426698E+03  0.40000000000E+03 0.  1.
<mgrwt>
<rscale>  2 0.43931756E+03</rscale>
<asrwt>0</asrwt>
<pdfrwt beam="1">  1       21 0.17130323E+00 0.43931756E+03</pdfrwt>
<pdfrwt beam="2">  1       21 0.27028554E-01 0.43931756E+03</pdfrwt>
<totfact> 0.23388232E+03</totfact>
</mgrwt>
</event>
<event>
 4    1  0.8562541E-003  0.5025563E+03  0.7818608E-02  0.1013114E+00
         21   -1    0    0  501  502  0.00000000000E+00  0.00000000000E+00  0.80932927687E+03  0.80932927687E+03  0.00000000000E+00 0. -1.
         21   -1    0    0  502  503 -0.00000000000E+00 -0.00000000000E+00 -0.31261994091E+03  0.31261994091E+03  0.00000000000E+00 0.  1.
    9000005    1    1    2  501    0  0.15402924767E+03  0.26236967143E+03  0.22470670991E+03  0.55050518535E+03  0.40000000000E+03 0.  1.
   -9000005    1    1    2    0  503 -0.15402924767E+03 -0.26236967143E+03  0.27200262605E+03  0.57144403243E+03  0.40000000000E+03 0.  1.
<mgrwt>
<rscale>  2 0.50255632E+03</rscale>
<asrwt>0</asrwt>
<pdfrwt beam="1">  1       21 0.12451220E+00 0.50255632E+03</pdfrwt>
<pdfrwt beam="2">  1       21 0.48095376E-01 0.50255632E+03</pdfrwt>
<totfact> 0.16729825E+03</totfact>
</mgrwt>
</event>
<event>
 4    1  0.8562541E-003  0.8070329E+03  0.7818608E-02  0.9549893E-01
         21   -1    0    0  503  502  0.00000000000E+00  0.00000000000E+00  0.11332583601E+04  0.11332583601E+04  0.00000000000E+00 0.  1.
         21   -1    0    0  501  503 -0.00000000000E+00 -0.00000000000E+00 -0.57484541590E+03  0.57484541590E+03  0.00000000000E+00 0. -1.
    9000005    1    1    2  501    0  0.45312640365E+03 -0.53476960406E+03  0.26640748292E+03  0.84986764503E+03  0.40000000000E+03 0.  1.
   -9000005    1    1    2    0  502 -0.45312640365E+03  0.53476960406E+03  0.29200546130E+03  0.85823613099E+03  0.40000000000E+03 0. -1.
<mgrwt>
<rscale>  2 0.80703288E+03</rscale>
<asrwt>0</asrwt>
<pdfrwt beam="1">  1       21 0.17434744E+00 0.80703288E+03</pdfrwt>
<pdfrwt beam="2">  1       21 0.88437756E-01 0.80703288E+03</pdfrwt>
<totfact> 0.15402146E+02</totfact>
</mgrwt>
</event>
<event>
 4    1  0.8562541E-003  0.4002031E+03  0.7818608E-02  0.1043709E+00
         21   -1    0    0  503  502  0.00000000000E+00  0.00000000000E+00  0.82647018874E+03  0.82647018874E+03  0.00000000000E+00 0.  1.
         21   -1    0    0  501  503 -0.00000000000E+00 -0.00000000000E+00 -0.29310568063E+03  0.29310568063E+03  0.00000000000E+00 0.  1.
    9000005    1    1    2  501    0  0.10816016058E+02 -0.67496302179E+01 -0.59167940094E+02  0.40455332015E+03  0.40000000000E+03 0.  1.
   -9000005    1    1    2    0  502 -0.10816016058E+02  0.67496302179E+01  0.59253244821E+03  0.71502254922E+03  0.40000000000E+03 0.  1.
<mgrwt>
<rscale>  2 0.40020313E+03</rscale>
<asrwt>0</asrwt>
<pdfrwt beam="1">  1       21 0.12714926E+00 0.40020313E+03</pdfrwt>
<pdfrwt beam="2">  1       21 0.45093182E-01 0.40020313E+03</pdfrwt>
<totfact> 0.18897544E+03</totfact>
</mgrwt>
</event>
<event>
 4    1  0.8562541E-003  0.4822386E+03  0.7818608E-02  0.1018522E+00
         21   -1    0    0  501  502  0.00000000000E+00  0.00000000000E+00  0.14658949275E+03  0.14658949275E+03  0.00000000000E+00 0. -1.
         21   -1    0    0  502  503 -0.00000000000E+00 -0.00000000000E+00 -0.15864368527E+04  0.15864368527E+04  0.00000000000E+00 0. -1.
    9000005    1    1    2  501    0 -0.10061402664E+03 -0.24986169980E+03 -0.71819819937E+03  0.86507959459E+03  0.40000000000E+03 0. -1.
   -9000005    1    1    2    0  503  0.10061402664E+03  0.24986169980E+03 -0.72164916057E+03  0.86794675086E+03  0.40000000000E+03 0. -1.
<mgrwt>
<rscale>  2 0.48223858E+03</rscale>
<asrwt>0</asrwt>
<pdfrwt beam="1">  1       21 0.22552230E-01 0.48223858E+03</pdfrwt>
<pdfrwt beam="2">  1       21 0.24406721E+00 0.48223858E+03</pdfrwt>
<totfact> 0.10778847E+03</totfact>
</mgrwt>
</event>
<event>
 4    1  0.8562541E-003  0.4191257E+03  0.7818608E-02  0.1037351E+00
         21   -1    0    0  503  502  0.00000000000E+00  0.00000000000E+00  0.35103262424E+03  0.35103262424E+03  0.00000000000E+00 0.  1.
         21   -1    0    0  501  503 -0.00000000000E+00 -0.00000000000E+00 -0.58904792402E+03  0.58904792402E+03  0.00000000000E+00 0.  1.
    9000005    1    1    2  501    0  0.37335946592E+02  0.11946699667E+03 -0.30132456492E+03  0.51620037740E+03  0.40000000000E+03 0.  1.
   -9000005    1    1    2    0  502 -0.37335946592E+02 -0.11946699667E+03  0.63309265142E+02  0.42388017087E+03  0.40000000000E+03 0.  1.
<mgrwt>
<rscale>  2 0.41912568E+03</rscale>
<asrwt>0</asrwt>
<pdfrwt beam="1">  1       21 0.54005019E-01 0.41912568E+03</pdfrwt>
<pdfrwt beam="2">  1       21 0.90622757E-01 0.41912568E+03</pdfrwt>
<totfact> 0.29484890E+03</totfact>
</mgrwt>
</event>
<event>
 4    1  0.8562541E-003  0.4324575E+03  0.7818608E-02  0.1033086E+00
         21   -1    0    0  503  502  0.00000000000E+00  0.00000000000E+00  0.31315951809E+03  0.31315951809E+03  0.00000000000E+00 0.  1.
         21   -1    0    0  501  503 -0.00000000000E+00 -0.00000000000E+00 -0.60500363553E+03  0.60500363553E+03  0.00000000000E+00 0.  1.
    9000005    1    1    2  501    0  0.98304163741E+01  0.16408182357E+03 -0.19805406831E+03  0.47565207440E+03  0.40000000000E+03 0.  1.
   -9000005    1    1    2    0  502 -0.98304163741E+01 -0.16408182357E+03 -0.93790049127E+02  0.44251107921E+03  0.40000000000E+03 0.  1.
<mgrwt>
<rscale>  2 0.43245749E+03</rscale>
<asrwt>0</asrwt>
<pdfrwt beam="1">  1       21 0.48178388E-01 0.43245749E+03</pdfrwt>
<pdfrwt beam="2">  1       21 0.93077482E-01 0.43245749E+03</pdfrwt>
<totfact> 0.35118964E+03</totfact>
</mgrwt>
</event>
<event>
 4    1  0.8562541E-003  0.6494215E+03  0.7818608E-02  0.9807865E-01
         21   -1    0    0  501  502  0.00000000000E+00  0.00000000000E+00  0.74046588792E+03  0.74046588792E+03  0.00000000000E+00 0.  1.
         21   -1    0    0  502  503 -0.00000000000E+00 -0.00000000000E+00 -0.66424353285E+03  0.66424353285E+03  0.00000000000E+00 0.  1.
    9000005    1    1    2  501    0 -0.26322519008E+03 -0.43870350130E+03  0.30326854275E+03  0.71674268169E+03  0.40000000000E+03 0.  1.
   -9000005    1    1    2    0  503  0.26322519008E+03  0.43870350130E+03 -0.22704618768E+03  0.68796673908E+03  0.40000000000E+03 0.  1.
<mgrwt>
<rscale>  2 0.64942148E+03</rscale>
<asrwt>0</asrwt>
<pdfrwt beam="1">  1       21 0.11391783E+00 0.64942148E+03</pdfrwt>
<pdfrwt beam="2">  1       21 0.10219131E+00 0.64942148E+03</pdfrwt>
<totfact> 0.36042097E+02</totfact>
</mgrwt>
</event>
<event>
 4    1  0.8562541E-003  0.4229153E+03  0.7818608E-02  0.1036122E+00
         21   -1    0    0  503  502  0.00000000000E+00  0.00000000000E+00  0.81996797392E+03  0.81996797392E+03  0.00000000000E+00 0. -1.
         21   -1    0    0  501  503 -0.00000000000E+00 -0.00000000000E+00 -0.30919568446E+03  0.30919568446E+03  0.00000000000E+00 0. -1.
    9000005    1    1    2  501    0 -0.28784857948E+02 -0.13427137689E+03 -0.51017612640E+02  0.42598141685E+03  0.40000000000E+03 0. -1.
   -9000005    1    1    2    0  502  0.28784857948E+02  0.13427137689E+03  0.56178990210E+03  0.70318224153E+03  0.40000000000E+03 0. -1.
<mgrwt>
<rscale>  2 0.42291532E+03</rscale>
<asrwt>0</asrwt>
<pdfrwt beam="1">  1       21 0.12614892E+00 0.42291532E+03</pdfrwt>
<pdfrwt beam="2">  1       21 0.47568567E-01 0.42291532E+03</pdfrwt>
<totfact> 0.17071002E+03</totfact>
</mgrwt>
</event>
<event>
 4    1  0.8562541E-003  0.4812842E+03  0.7818608E-02  0.1018783E+00
         21   -1    0    0  503  502  0.00000000000E+00  0.00000000000E+00  0.77079076130E+03  0.77079076130E+03  0.00000000000E+00 0. -1.
         21   -1    0    0  501  503 -0.00000000000E+00 -0.00000000000E+00 -0.30077289293E+03  0.30077289293E+03  0.00000000000E+00 0.  1.
    9000005    1    1    2  501    0 -0.52630658757E+02  0.26242040204E+03  0.21933076394E+03  0.52890494199E+03  0.40000000000E+03 0.  1.
   -9000005    1    1    2    0  502  0.52630658757E+02 -0.26242040204E+03  0.25068710442E+03  0.54265871224E+03  0.40000000000E+03 0. -1.
<mgrwt>
<rscale>  2 0.48128417E+03</rscale>
<asrwt>0</asrwt>
<pdfrwt beam="1">  1       21 0.11858319E+00 0.48128417E+03</pdfrwt>
<pdfrwt beam="2">  1       21 0.46272753E-01 0.48128417E+03</pdfrwt>
<totfact> 0.20724579E+03</totfact>
</mgrwt>
</event>
<event>
 4    1  0.8562541E-003  0.4087484E+03  0.7818608E-02  0.1040792E+00
         21   -1    0    0  503  502  0.00000000000E+00  0.00000000000E+00  0.10127560729E+03  0.10127560729E+03  0.00000000000E+00 0.  1.
         21   -1    0    0  501  503 -0.00000000000E+00 -0.00000000000E+00 -0.17730090009E+04  0.17730090009E+04  0.00000000000E+00 0.  1.
    9000005    1    1    2  501    0 -0.82031578990E+02 -0.18603609536E+02 -0.58873313566E+03  0.71671610786E+03  0.40000000000E+03 0.  1.
   -9000005    1    1    2    0  502  0.82031578990E+02  0.18603609536E+02 -0.10830002579E+04  0.11575685003E+04  0.40000000000E+03 0.  1.
<mgrwt>
<rscale>  2 0.40874842E+03</rscale>
<asrwt>0</asrwt>
<pdfrwt beam="1">  1       21 0.15580862E-01 0.40874842E+03</pdfrwt>
<pdfrwt beam="2">  1       21 0.27277062E+00 0.40874842E+03</pdfrwt>
<totfact> 0.15039210E+03</totfact>
</mgrwt>
</event>
<event>
 4    1  0.8562541E-003  0.4306005E+03  0.7818608E-02  0.1033670E+00
         21   -1    0    0  503  502  0.00000000000E+00  0.00000000000E+00  0.12072468371E+04  0.12072468371E+04  0.00000000000E+00 0. -1.
         21   -1    0    0  501  503 -0.00000000000E+00 -0.00000000000E+00 -0.15702007226E+03  0.15702007226E+03  0.00000000000E+00 0.  1.
    9000005    1    1    2  501    0  0.69959249322E+01  0.15927296107E+03  0.42424275661E+03  0.60448220456E+03  0.40000000000E+03 0.  1.
   -9000005    1    1    2    0  502 -0.69959249322E+01 -0.15927296107E+03  0.62598400825E+03  0.75978470482E+03  0.40000000000E+03 0. -1.
<mgrwt>
<rscale>  2 0.43060053E+03</rscale>
<asrwt>0</asrwt>
<pdfrwt beam="1">  1       21 0.18573028E+00 0.43060053E+03</pdfrwt>
<pdfrwt beam="2">  1       21 0.24156935E-01 0.43060053E+03</pdfrwt>
<totfact> 0.23098346E+03</totfact>
</mgrwt>
</event>
<event>
 4    1  0.8562541E-003  0.4336965E+03  0.7818608E-02  0.1032699E+00
         21   -1    0    0  503  502  0.00000000000E+00  0.00000000000E+00  0.51965889577E+03  0.51965889577E+03  0.00000000000E+00 0. -1.
         21   -1    0    0  501  503 -0.00000000000E+00 -0.00000000000E+00 -0.60795263306E+03  0.60795263306E+03  0.00000000000E+00 0. -1.
    9000005    1    1    2  501    0 -0.11715268244E+03  0.11986633327E+03 -0.40278863356E+03  0.59188797266E+03  0.40000000000E+03 0. -1.
   -9000005    1    1    2    0  502  0.11715268244E+03 -0.11986633327E+03  0.31449489627E+03  0.53572355617E+03  0.40000000000E+03 0. -1.
<mgrwt>
<rscale>  2 0.43369654E+03</rscale>
<asrwt>0</asrwt>
<pdfrwt beam="1">  1       21 0.79947523E-01 0.43369654E+03</pdfrwt>
<pdfrwt beam="2">  1       21 0.93531174E-01 0.43369654E+03</pdfrwt>
<totfact> 0.11358764E+03</totfact>
</mgrwt>
</event>
<event>
 4    1  0.8562541E-003  0.5526644E+03  0.7818608E-02  0.1000879E+00
         21   -1    0    0  503  502  0.00000000000E+00  0.00000000000E+00  0.23150744031E+04  0.23150744031E+04  0.00000000000E+00 0. -1.
         21   -1    0    0  501  503 -0.00000000000E+00 -0.00000000000E+00 -0.14776396840E+03  0.14776396840E+03  0.00000000000E+00 0. -1.
    9000005    1    1    2  501    0 -0.38617066863E+02 -0.37940296179E+03  0.68060739705E+03  0.87673503077E+03  0.40000000000E+03 0. -1.
   -9000005    1    1    2    0  502  0.38617066863E+02  0.37940296179E+03  0.14867030376E+04  0.15861033407E+04  0.40000000000E+03 0. -1.
<mgrwt>
<rscale>  2 0.55266435E+03</rscale>
<asrwt>0</asrwt>
<pdfrwt beam="1">  1       21 0.35616527E+00 0.55266435E+03</pdfrwt>
<pdfrwt beam="2">  1       21 0.22732920E-01 0.55266435E+03</pdfrwt>
<totfact> 0.21232245E+02</totfact>
</mgrwt>
</event>
<event>
 4    1  0.8562541E-003  0.4017310E+03  0.7818608E-02  0.1043182E+00
         21   -1    0    0  501  502  0.00000000000E+00  0.00000000000E+00  0.11487905144E+03  0.11487905144E+03  0.00000000000E+00 0.  1.
         21   -1    0    0  502  503 -0.00000000000E+00 -0.00000000000E+00 -0.19504406439E+04  0.19504406439E+04  0.00000000000E+00 0.  1.
    9000005    1    1    2  501    0  0.18346138015E+02 -0.32422268447E+02 -0.37161492806E+03  0.54725262816E+03  0.40000000000E+03 0.  1.
   -9000005    1    1    2    0  503 -0.18346138015E+02  0.32422268447E+02 -0.14639466644E+04  0.15180670672E+04  0.40000000000E+03 0.  1.
<mgrwt>
<rscale>  2 0.40173098E+03</rscale>
<asrwt>0</asrwt>
<pdfrwt beam="1">  1       21 0.17673699E-01 0.40173098E+03</pdfrwt>
<pdfrwt beam="2">  1       21 0.30006781E+00 0.40173098E+03</pdfrwt>
<totfact> 0.81904612E+02</totfact>
</mgrwt>
</event>
<event>
 4    1  0.8562541E-003  0.4194616E+03  0.7818608E-02  0.1037242E+00
         21   -1    0    0  501  502  0.00000000000E+00  0.00000000000E+00  0.80420395075E+03  0.80420395075E+03  0.00000000000E+00 0.  1.
         21   -1    0    0  502  503 -0.00000000000E+00 -0.00000000000E+00 -0.22026561588E+03  0.22026561588E+03  0.00000000000E+00 0.  1.
    9000005    1    1    2  501    0 -0.63561808246E+02  0.10912349521E+03  0.33396111048E+03  0.53616980891E+03  0.40000000000E+03 0.  1.
   -9000005    1    1    2    0  503  0.63561808246E+02 -0.10912349521E+03  0.24997722439E+03  0.48829975772E+03  0.40000000000E+03 0.  1.
<mgrwt>
<rscale>  2 0.41946161E+03</rscale>
<asrwt>0</asrwt>
<pdfrwt beam="1">  1       21 0.12372368E+00 0.41946161E+03</pdfrwt>
<pdfrwt beam="2">  1       21 0.33887018E-01 0.41946161E+03</pdfrwt>
<totfact> 0.36121013E+03</totfact>
</mgrwt>
</event>
<event>
 4    1  0.8562541E-003  0.8208915E+03  0.7818608E-02  0.9530260E-01
         21   -1    0    0  503  502  0.00000000000E+00  0.00000000000E+00  0.28932449532E+03  0.28932449532E+03  0.00000000000E+00 0.  1.
         21   -1    0    0  501  503 -0.00000000000E+00 -0.00000000000E+00 -0.25130233374E+04  0.25130233374E+04  0.00000000000E+00 0.  1.
    9000005    1    1    2  501    0  0.25801043985E+02  0.71637775521E+03 -0.14909234546E+04  0.17019740097E+04  0.40000000000E+03 0.  1.
   -9000005    1    1    2    0  502 -0.25801043985E+02 -0.71637775521E+03 -0.73277538751E+03  0.11003738231E+04  0.40000000000E+03 0.  1.
<mgrwt>
<rscale>  2 0.82089146E+03</rscale>
<asrwt>0</asrwt>
<pdfrwt beam="1">  1       21 0.44511462E-01 0.82089146E+03</pdfrwt>
<pdfrwt beam="2">  1       21 0.38661896E+00 0.82089146E+03</pdfrwt>
<totfact> 0.31151785E+01</totfact>
</mgrwt>
</event>
<event>
 4    1  0.8562541E-003  0.4024093E+03  0.7818608E-02  0.1042949E+00
         21   -1    0    0  503  502  0.00000000000E+00  0.00000000000E+00  0.28432480610E+04  0.28432480610E+04  0.00000000000E+00 0. -1.
         21   -1    0    0  501  503 -0.00000000000E+00 -0.00000000000E+00 -0.57341986323E+02  0.57341986323E+02  0.00000000000E+00 0. -1.
    9000005    1    1    2  501    0  0.43586506156E+02  0.57868995612E+01  0.12735981078E+04  0.13356591676E+04  0.40000000000E+03 0. -1.
   -9000005    1    1    2    0  502 -0.43586506156E+02 -0.57868995612E+01  0.15123079669E+04  0.15649308798E+04  0.40000000000E+03 0. -1.
<mgrwt>
<rscale>  2 0.40240933E+03</rscale>
<asrwt>0</asrwt>
<pdfrwt beam="1">  1       21 0.43742267E+00 0.40240933E+03</pdfrwt>
<pdfrwt beam="2">  1       21 0.88218463E-02 0.40240933E+03</pdfrwt>
<totfact> 0.40440168E+02</totfact>
</mgrwt>
</event>
<event>
 4    1  0.8562541E-003  0.4169460E+03  0.7818608E-02  0.1038065E+00
         21   -1    0    0  503  502  0.00000000000E+00  0.00000000000E+00  0.50008512924E+03  0.50008512924E+03  0.00000000000E+00 0.  1.
         21   -1    0    0  501  503 -0.00000000000E+00 -0.00000000000E+00 -0.41820531106E+03  0.41820531106E+03  0.00000000000E+00 0.  1.
    9000005    1    1    2  501    0  0.12269033974E+02  0.11701908799E+03 -0.14767906187E+03  0.44232691696E+03  0.40000000000E+03 0.  1.
   -9000005    1    1    2    0  502 -0.12269033974E+02 -0.11701908799E+03  0.22955888004E+03  0.47596352335E+03  0.40000000000E+03 0.  1.
<mgrwt>
<rscale>  2 0.41694604E+03</rscale>
<asrwt>0</asrwt>
<pdfrwt beam="1">  1       21 0.76936174E-01 0.41694604E+03</pdfrwt>
<pdfrwt beam="2">  1       21 0.64339278E-01 0.41694604E+03</pdfrwt>
<totfact> 0.29482028E+03</totfact>
</mgrwt>
</event>
<event>
 4    1  0.8562541E-003  0.4003231E+03  0.7818608E-02  0.1043668E+00
         21   -1    0    0  503  502  0.00000000000E+00  0.00000000000E+00  0.40224665009E+03  0.40224665009E+03  0.00000000000E+00 0.  1.
         21   -1    0    0  501  503 -0.00000000000E+00 -0.00000000000E+00 -0.46698483798E+03  0.46698483798E+03  0.00000000000E+00 0.  1.
    9000005    1    1    2  501    0  0.13678165442E+02 -0.84567645567E+01 -0.19891740341E+03  0.44701984571E+03  0.40000000000E+03 0.  1.
   -9000005    1    1    2    0  502 -0.13678165442E+02  0.84567645567E+01  0.13417921551E+03  0.42221164237E+03  0.40000000000E+03 0.  1.
<mgrwt>
<rscale>  2 0.40032313E+03</rscale>
<asrwt>0</asrwt>
<pdfrwt beam="1">  1       21 0.61884100E-01 0.40032313E+03</pdfrwt>
<pdfrwt beam="2">  1       21 0.71843821E-01 0.40032313E+03</pdfrwt>
<totfact> 0.37775196E+03</totfact>
</mgrwt>
</event>
<event>
 4    1  0.8562541E-003  0.4142001E+03  0.7818608E-02  0.1038971E+00
         21   -1    0    0  501  502  0.00000000000E+00  0.00000000000E+00  0.18419396573E+03  0.18419396573E+03  0.00000000000E+00 0.  1.
         21   -1    0    0  502  503 -0.00000000000E+00 -0.00000000000E+00 -0.10452661880E+04  0.10452661880E+04  0.00000000000E+00 0.  1.
    9000005    1    1    2  501    0  0.66636202808E+02 -0.84388010658E+02 -0.22765922316E+03  0.47264198053E+03  0.40000000000E+03 0.  1.
   -9000005    1    1    2    0  503 -0.66636202808E+02  0.84388010658E+02 -0.63341299915E+03  0.75681817325E+03  0.40000000000E+03 0.  1.
<mgrwt>
<rscale>  2 0.41420010E+03</rscale>
<asrwt>0</asrwt>
<pdfrwt beam="1">  1       21 0.28337534E-01 0.41420010E+03</pdfrwt>
<pdfrwt beam="2">  1       21 0.16081018E+00 0.41420010E+03</pdfrwt>
<totfact> 0.25732034E+03</totfact>
</mgrwt>
</event>
<event>
 4    1  0.8562541E-003  0.4630498E+03  0.7818608E-02  0.1023900E+00
         21   -1    0    0  501  502  0.00000000000E+00  0.00000000000E+00  0.63890666711E+03  0.63890666711E+03  0.00000000000E+00 0. -1.
         21   -1    0    0  502  503 -0.00000000000E+00 -0.00000000000E+00 -0.33977932634E+03  0.33977932634E+03  0.00000000000E+00 0. -1.
    9000005    1    1    2  501    0  0.98779513570E+02 -0.21132381003E+03  0.95273007778E+02  0.47274950132E+03  0.40000000000E+03 0. -1.
   -9000005    1    1    2    0  503 -0.98779513570E+02  0.21132381003E+03  0.20385433299E+03  0.50593649213E+03  0.40000000000E+03 0. -1.
<mgrwt>
<rscale>  2 0.46304983E+03</rscale>
<asrwt>0</asrwt>
<pdfrwt beam="1">  1       21 0.98293333E-01 0.46304983E+03</pdfrwt>
<pdfrwt beam="2">  1       21 0.52273743E-01 0.46304983E+03</pdfrwt>
<totfact> 0.25617216E+03</totfact>
</mgrwt>
</event>
<event>
 4    1  0.8562541E-003  0.4057217E+03  0.7818608E-02  0.1041816E+00
         21   -1    0    0  503  502  0.00000000000E+00  0.00000000000E+00  0.75680914052E+02  0.75680914052E+02  0.00000000000E+00 0. -1.
         21   -1    0    0  501  503 -0.00000000000E+00 -0.00000000000E+00 -0.23248567264E+04  0.23248567264E+04  0.00000000000E+00 0. -1.
    9000005    1    1    2  501    0  0.16121397893E+02  0.65956304892E+02 -0.81991126426E+03  0.91480304705E+03  0.40000000000E+03 0. -1.
   -9000005    1    1    2    0  502 -0.16121397893E+02 -0.65956304892E+02 -0.14292645481E+04  0.14857345934E+04  0.40000000000E+03 0. -1.
<mgrwt>
<rscale>  2 0.40572174E+03</rscale>
<asrwt>0</asrwt>
<pdfrwt beam="1">  1       21 0.11643218E-01 0.40572174E+03</pdfrwt>
<pdfrwt beam="2">  1       21 0.35767026E+00 0.40572174E+03</pdfrwt>
<totfact> 0.79158083E+02</totfact>
</mgrwt>
</event>
<event>
 4    1  0.8562541E-003  0.4261681E+03  0.7818608E-02  0.1035077E+00
         21   -1    0    0  503  502  0.00000000000E+00  0.00000000000E+00  0.22692556843E+04  0.22692556843E+04  0.00000000000E+00 0.  1.
         21   -1    0    0  501  503 -0.00000000000E+00 -0.00000000000E+00 -0.13472475701E+03  0.13472475701E+03  0.00000000000E+00 0.  1.
    9000005    1    1    2  501    0 -0.12773485563E+03  0.72822084996E+02  0.30143731044E+03  0.52199971411E+03  0.40000000000E+03 0. -1.
   -9000005    1    1    2    0  502  0.12773485563E+03 -0.72822084996E+02  0.18330936169E+04  0.18819807272E+04  0.40000000000E+03 0. -1.
<mgrwt>
<rscale>  2 0.42616810E+03</rscale>
<asrwt>0</asrwt>
<pdfrwt beam="1">  1       21 0.34911623E+00 0.42616810E+03</pdfrwt>
<pdfrwt beam="2">  1       21 0.20726887E-01 0.42616810E+03</pdfrwt>
<totfact> 0.30172274E+02</totfact>
</mgrwt>
</event>
<event>
 4    1  0.8562541E-003  0.4101913E+03  0.7818608E-02  0.1040307E+00
         21   -1    0    0  501  502  0.00000000000E+00  0.00000000000E+00  0.12695890848E+04  0.12695890848E+04  0.00000000000E+00 0.  1.
         21   -1    0    0  502  503 -0.00000000000E+00 -0.00000000000E+00 -0.13481447371E+03  0.13481447371E+03  0.00000000000E+00 0.  1.
    9000005    1    1    2  501    0  0.79814482297E+02 -0.43434329935E+02  0.65882339436E+03  0.77608321561E+03  0.40000000000E+03 0.  1.
   -9000005    1    1    2    0  503 -0.79814482297E+02  0.43434329935E+02  0.47595121678E+03  0.62832034295E+03  0.40000000000E+03 0.  1.
<mgrwt>
<rscale>  2 0.41019129E+03</rscale>
<asrwt>0</asrwt>
<pdfrwt beam="1">  1       21 0.19532139E+00 0.41019129E+03</pdfrwt>
<pdfrwt beam="2">  1       21 0.20740689E-01 0.41019129E+03</pdfrwt>
<totfact> 0.26874536E+03</totfact>
</mgrwt>
</event>
<event>
 4    1  0.8562541E-003  0.5032033E+03  0.7818608E-02  0.1012946E+00
         21   -1    0    0  501  502  0.00000000000E+00  0.00000000000E+00  0.11448894181E+03  0.11448894181E+03  0.00000000000E+00 0. -1.
         21   -1    0    0  502  503 -0.00000000000E+00 -0.00000000000E+00 -0.22176257692E+04  0.22176257692E+04  0.00000000000E+00 0. -1.
    9000005    1    1    2  501    0  0.92554461112E+02  0.29094204980E+03 -0.99122139480E+03  0.11116354880E+04  0.40000000000E+03 0. -1.
   -9000005    1    1    2    0  503 -0.92554461112E+02 -0.29094204980E+03 -0.11119154326E+04  0.12204792230E+04  0.40000000000E+03 0. -1.
<mgrwt>
<rscale>  2 0.50320334E+03</rscale>
<asrwt>0</asrwt>
<pdfrwt beam="1">  1       21 0.17613685E-01 0.50320334E+03</pdfrwt>
<pdfrwt beam="2">  1       21 0.34117317E+00 0.50320334E+03</pdfrwt>
<totfact> 0.43878395E+02</totfact>
</mgrwt>
</event>
<event>
 4    1  0.8562541E-003  0.4387391E+03  0.7818608E-02  0.1031134E+00
         21   -1    0    0  501  502  0.00000000000E+00  0.00000000000E+00  0.19520549817E+03  0.19520549817E+03  0.00000000000E+00 0. -1.
         21   -1    0    0  502  503 -0.00000000000E+00 -0.00000000000E+00 -0.10669793504E+04  0.10669793504E+04  0.00000000000E+00 0.  1.
    9000005    1    1    2  501    0 -0.16062033787E+03  0.81811546332E+02 -0.60964117492E+03  0.75110211303E+03  0.40000000000E+03 0.  1.
   -9000005    1    1    2    0  503  0.16062033787E+03 -0.81811546332E+02 -0.26213267733E+03  0.51108273555E+03  0.40000000000E+03 0. -1.
<mgrwt>
<rscale>  2 0.43873913E+03</rscale>
<asrwt>0</asrwt>
<pdfrwt beam="1">  1       21 0.30031614E-01 0.43873913E+03</pdfrwt>
<pdfrwt beam="2">  1       21 0.16415067E+00 0.43873913E+03</pdfrwt>
<totfact> 0.21438242E+03</totfact>
</mgrwt>
</event>
<event>
 4    1  0.8562541E-003  0.4304428E+03  0.7818608E-02  0.1033720E+00
         21   -1    0    0  501  502  0.00000000000E+00  0.00000000000E+00  0.38491495041E+03  0.38491495041E+03  0.00000000000E+00 0.  1.
         21   -1    0    0  502  503 -0.00000000000E+00 -0.00000000000E+00 -0.50891263410E+03  0.50891263410E+03  0.00000000000E+00 0. -1.
    9000005    1    1    2  501    0 -0.15791751521E+03  0.18522632621E+02 -0.16599495217E+03  0.46134082160E+03  0.40000000000E+03 0. -1.
   -9000005    1    1    2    0  503  0.15791751521E+03 -0.18522632621E+02  0.41997268481E+02  0.43248676291E+03  0.40000000000E+03 0.  1.
<mgrwt>
<rscale>  2 0.43044283E+03</rscale>
<asrwt>0</asrwt>
<pdfrwt beam="1">  1       21 0.59217685E-01 0.43044283E+03</pdfrwt>
<pdfrwt beam="2">  1       21 0.78294251E-01 0.43044283E+03</pdfrwt>
<totfact> 0.33821097E+03</totfact>
</mgrwt>
</event>
<event>
 4    1  0.8562541E-003  0.5653822E+03  0.7818608E-02  0.9979950E-01
         21   -1    0    0  501  502  0.00000000000E+00  0.00000000000E+00  0.46207621830E+03  0.46207621830E+03  0.00000000000E+00 0.  1.
         21   -1    0    0  502  503 -0.00000000000E+00 -0.00000000000E+00 -0.75515540546E+03  0.75515540546E+03  0.00000000000E+00 0. -1.
    9000005    1    1    2  501    0  0.34184587563E+03 -0.20687769495E+03  0.29768143571E+02  0.56616528128E+03  0.40000000000E+03 0.  1.
   -9000005    1    1    2    0  503 -0.34184587563E+03  0.20687769495E+03 -0.32284733073E+03  0.65106634248E+03  0.40000000000E+03 0. -1.
<mgrwt>
<rscale>  2 0.56538216E+03</rscale>
<asrwt>0</asrwt>
<pdfrwt beam="1">  1       21 0.71088650E-01 0.56538216E+03</pdfrwt>
<pdfrwt beam="2">  1       21 0.11617775E+00 0.56538216E+03</pdfrwt>
<totfact> 0.83026455E+02</totfact>
</mgrwt>
</event>
<event>
 4    1  0.8562541E-003  0.4115516E+03  0.7818608E-02  0.1039852E+00
         21   -1    0    0  503  502  0.00000000000E+00  0.00000000000E+00  0.27379512380E+03  0.27379512380E+03  0.00000000000E+00 0.  1.
         21   -1    0    0  501  503 -0.00000000000E+00 -0.00000000000E+00 -0.65973512527E+03  0.65973512527E+03  0.00000000000E+00 0.  1.
    9000005    1    1    2  501    0  0.89262539613E+02  0.37508955419E+02 -0.30949589478E+03  0.51493925040E+03  0.40000000000E+03 0.  1.
   -9000005    1    1    2    0  502 -0.89262539613E+02 -0.37508955419E+02 -0.76444106690E+02  0.41859099866E+03  0.40000000000E+03 0.  1.
<mgrwt>
<rscale>  2 0.41155160E+03</rscale>
<asrwt>0</asrwt>
<pdfrwt beam="1">  1       21 0.42122328E-01 0.41155160E+03</pdfrwt>
<pdfrwt beam="2">  1       21 0.10149771E+00 0.41155160E+03</pdfrwt>
<totfact> 0.38055471E+03</totfact>
</mgrwt>
</event>
<event>
 4    1  0.8562541E-003  0.4050393E+03  0.7818608E-02  0.1042049E+00
         21   -1    0    0  501  502  0.00000000000E+00  0.00000000000E+00  0.14817062103E+04  0.14817062103E+04  0.00000000000E+00 0.  1.
         21   -1    0    0  502  503 -0.00000000000E+00 -0.00000000000E+00 -0.12637995440E+03  0.12637995440E+03  0.00000000000E+00 0.  1.
    9000005    1    1    2  501    0  0.57008819719E+01  0.63437613498E+02  0.96068093636E+03  0.10425759888E+04  0.40000000000E+03 0. -1.
   -9000005    1    1    2    0  503 -0.57008819719E+01 -0.63437613498E+02  0.39464531954E+03  0.56551017594E+03  0.40000000000E+03 0. -1.
<mgrwt>
<rscale>  2 0.40503930E+03</rscale>
<asrwt>0</asrwt>
<pdfrwt beam="1">  1       21 0.22795479E+00 0.40503930E+03</pdfrwt>
<pdfrwt beam="2">  1       21 0.19443071E-01 0.40503930E+03</pdfrwt>
<totfact> 0.18718104E+03</totfact>
</mgrwt>
</event>
<event>
 4    1  0.8562541E-003  0.5417178E+03  0.7818608E-02  0.1003429E+00
         21   -1    0    0  501  502  0.00000000000E+00  0.00000000000E+00  0.72766681655E+03  0.72766681655E+03  0.00000000000E+00 0. -1.
         21   -1    0    0  502  503 -0.00000000000E+00 -0.00000000000E+00 -0.52982844794E+03  0.52982844794E+03  0.00000000000E+00 0. -1.
    9000005    1    1    2  501    0  0.46808519975E+02 -0.36230807424E+03  0.40619334689E+03  0.67709025488E+03  0.40000000000E+03 0. -1.
   -9000005    1    1    2    0  503 -0.46808519975E+02  0.36230807424E+03 -0.20835497828E+03  0.58040500960E+03  0.40000000000E+03 0. -1.
<mgrwt>
<rscale>  2 0.54171780E+03</rscale>
<asrwt>0</asrwt>
<pdfrwt beam="1">  1       21 0.11194874E+00 0.54171780E+03</pdfrwt>
<pdfrwt beam="2">  1       21 0.81512069E-01 0.54171780E+03</pdfrwt>
<totfact> 0.67079539E+02</totfact>
</mgrwt>
</event>
<event>
 4    1  0.8562541E-003  0.4033736E+03  0.7818608E-02  0.1042618E+00
         21   -1    0    0  503  502  0.00000000000E+00  0.00000000000E+00  0.10976793568E+04  0.10976793568E+04  0.00000000000E+00 0.  1.
         21   -1    0    0  501  503 -0.00000000000E+00 -0.00000000000E+00 -0.15555122639E+03  0.15555122639E+03  0.00000000000E+00 0.  1.
    9000005    1    1    2  501    0  0.18272345847E+02 -0.48748405777E+02  0.33513205378E+03  0.52442709613E+03  0.40000000000E+03 0. -1.
   -9000005    1    1    2    0  502 -0.18272345847E+02  0.48748405777E+02  0.60699607662E+03  0.72880348704E+03  0.40000000000E+03 0. -1.
<mgrwt>
<rscale>  2 0.40337363E+03</rscale>
<asrwt>0</asrwt>
<pdfrwt beam="1">  1       21 0.16887374E+00 0.40337363E+03</pdfrwt>
<pdfrwt beam="2">  1       21 0.23930959E-01 0.40337363E+03</pdfrwt>
<totfact> 0.31339224E+03</totfact>
</mgrwt>
</event>
<event>
 4    1  0.8562541E-003  0.4046068E+03  0.7818608E-02  0.1042196E+00
         21   -1    0    0  503  502  0.00000000000E+00  0.00000000000E+00  0.86676117605E+02  0.86676117605E+02  0.00000000000E+00 0.  1.
         21   -1    0    0  501  503 -0.00000000000E+00 -0.00000000000E+00 -0.19426681103E+04  0.19426681103E+04  0.00000000000E+00 0.  1.
    9000005    1    1    2  501    0 -0.27850987122E+02  0.54138638820E+02 -0.10970891464E+04  0.11693208563E+04  0.40000000000E+03 0.  1.
   -9000005    1    1    2    0  502  0.27850987122E+02 -0.54138638820E+02 -0.75890284633E+03  0.86002337170E+03  0.40000000000E+03 0.  1.
<mgrwt>
<rscale>  2 0.40460681E+03</rscale>
<asrwt>0</asrwt>
<pdfrwt beam="1">  1       21 0.13334788E-01 0.40460681E+03</pdfrwt>
<pdfrwt beam="2">  1       21 0.29887200E+00 0.40460681E+03</pdfrwt>
<totfact> 0.14014973E+03</totfact>
</mgrwt>
</event>
<event>
 4    1  0.8562541E-003  0.4967769E+03  0.7818608E-02  0.1014624E+00
         21   -1    0    0  501  502  0.00000000000E+00  0.00000000000E+00  0.29321610331E+03  0.29321610331E+03  0.00000000000E+00 0.  1.
         21   -1    0    0  502  503 -0.00000000000E+00 -0.00000000000E+00 -0.93791280640E+03  0.93791280640E+03  0.00000000000E+00 0. -1.
    9000005    1    1    2  501    0 -0.50712461926E+02  0.29019910191E+03 -0.51954822928E+03  0.71883074162E+03  0.40000000000E+03 0. -1.
   -9000005    1    1    2    0  503  0.50712461926E+02 -0.29019910191E+03 -0.12514847380E+03  0.51229816810E+03  0.40000000000E+03 0.  1.
<mgrwt>
<rscale>  2 0.49677688E+03</rscale>
<asrwt>0</asrwt>
<pdfrwt beam="1">  1       21 0.45110169E-01 0.49677688E+03</pdfrwt>
<pdfrwt beam="2">  1       21 0.14429428E+00 0.49677688E+03</pdfrwt>
<totfact> 0.13021466E+03</totfact>
</mgrwt>
</event>
<event>
 4    1  0.8562541E-003  0.5950373E+03  0.7818608E-02  0.9915756E-01
         21   -1    0    0  503  502  0.00000000000E+00  0.00000000000E+00  0.27755614663E+03  0.27755614663E+03  0.00000000000E+00 0.  1.
         21   -1    0    0  501  503 -0.00000000000E+00 -0.00000000000E+00 -0.13334576972E+04  0.13334576972E+04  0.00000000000E+00 0.  1.
    9000005    1    1    2  501    0  0.68119316168E+01  0.44048041495E+03 -0.36026116095E+03  0.69559866479E+03  0.40000000000E+03 0.  1.
   -9000005    1    1    2    0  502 -0.68119316168E+01 -0.44048041495E+03 -0.69564038961E+03  0.91541517904E+03  0.40000000000E+03 0.  1.
<mgrwt>
<rscale>  2 0.59503731E+03</rscale>
<asrwt>0</asrwt>
<pdfrwt beam="1">  1       21 0.42700945E-01 0.59503731E+03</pdfrwt>
<pdfrwt beam="2">  1       21 0.20514734E+00 0.59503731E+03</pdfrwt>
<totfact> 0.50858294E+02</totfact>
</mgrwt>
</event>
<event>
 4    1  0.8562541E-003  0.4016062E+03  0.7818608E-02  0.1043225E+00
         21   -1    0    0  501  502  0.00000000000E+00  0.00000000000E+00  0.12425643686E+03  0.12425643686E+03  0.00000000000E+00 0. -1.
         21   -1    0    0  502  503 -0.00000000000E+00 -0.00000000000E+00 -0.12982969757E+04  0.12982969757E+04  0.00000000000E+00 0. -1.
    9000005    1    1    2  501    0  0.21842716397E+02 -0.28467729508E+02 -0.59738268355E+03  0.71982885917E+03  0.40000000000E+03 0. -1.
   -9000005    1    1    2    0  503 -0.21842716397E+02  0.28467729508E+02 -0.57665785531E+03  0.70272455341E+03  0.40000000000E+03 0. -1.
<mgrwt>
<rscale>  2 0.40160617E+03</rscale>
<asrwt>0</asrwt>
<pdfrwt beam="1">  1       21 0.19116374E-01 0.40160617E+03</pdfrwt>
<pdfrwt beam="2">  1       21 0.19973800E+00 0.40160617E+03</pdfrwt>
<totfact> 0.29430555E+03</totfact>
</mgrwt>
</event>
<event>
 4    1  0.8562541E-003  0.4458844E+03  0.7818608E-02  0.1028957E+00
         21   -1    0    0  503  502  0.00000000000E+00  0.00000000000E+00  0.11017843695E+04  0.11017843695E+04  0.00000000000E+00 0. -1.
         21   -1    0    0  501  503 -0.00000000000E+00 -0.00000000000E+00 -0.29495862193E+03  0.29495862193E+03  0.00000000000E+00 0. -1.
    9000005    1    1    2  501    0  0.19431152356E+03  0.32495238110E+02 -0.31730199809E+02  0.44701198448E+03  0.40000000000E+03 0. -1.
   -9000005    1    1    2    0  502 -0.19431152356E+03 -0.32495238110E+02  0.83855594739E+03  0.94973100697E+03  0.40000000000E+03 0. -1.
<mgrwt>
<rscale>  2 0.44588441E+03</rscale>
<asrwt>0</asrwt>
<pdfrwt beam="1">  1       21 0.16950529E+00 0.44588441E+03</pdfrwt>
<pdfrwt beam="2">  1       21 0.45378250E-01 0.44588441E+03</pdfrwt>
<totfact> 0.84140275E+02</totfact>
</mgrwt>
</event>
<event>
 4    1  0.8562541E-003  0.4762060E+03  0.7818608E-02  0.1020183E+00
         21   -1    0    0  503  502  0.00000000000E+00  0.00000000000E+00  0.26567142359E+03  0.26567142359E+03  0.00000000000E+00 0.  1.
         21   -1    0    0  501  503 -0.00000000000E+00 -0.00000000000E+00 -0.85388912887E+03  0.85388912887E+03  0.00000000000E+00 0.  1.
    9000005    1    1    2  501    0  0.12364267495E+03 -0.22690233730E+03 -0.30473587145E+03  0.56536371752E+03  0.40000000000E+03 0.  1.
   -9000005    1    1    2    0  502 -0.12364267495E+03  0.22690233730E+03 -0.28348183383E+03  0.55419683493E+03  0.40000000000E+03 0.  1.
<mgrwt>
<rscale>  2 0.47620603E+03</rscale>
<asrwt>0</asrwt>
<pdfrwt beam="1">  1       21 0.40872527E-01 0.47620603E+03</pdfrwt>
<pdfrwt beam="2">  1       21 0.13136756E+00 0.47620603E+03</pdfrwt>
<totfact> 0.20666885E+03</totfact>
</mgrwt>
</event>
<event>
 4    1  0.8562541E-003  0.6696212E+03  0.7818608E-02  0.9770642E-01
         21   -1    0    0  501  502  0.00000000000E+00  0.00000000000E+00  0.37726466912E+03  0.37726466912E+03  0.00000000000E+00 0. -1.
         21   -1    0    0  502  503 -0.00000000000E+00 -0.00000000000E+00 -0.12154808100E+04  0.12154808100E+04  0.00000000000E+00 0.  1.
    9000005    1    1    2  501    0  0.33044612859E+03  0.42331773530E+03 -0.53767999176E+03  0.85877373182E+03  0.40000000000E+03 0. -1.
   -9000005    1    1    2    0  503 -0.33044612859E+03 -0.42331773530E+03 -0.30053614912E+03  0.73397174731E+03  0.40000000000E+03 0.  1.
<mgrwt>
<rscale>  2 0.66962120E+03</rscale>
<asrwt>0</asrwt>
<pdfrwt beam="1">  1       21 0.58040719E-01 0.66962120E+03</pdfrwt>
<pdfrwt beam="2">  1       21 0.18699704E+00 0.66962120E+03</pdfrwt>
<totfact> 0.34176258E+02</totfact>
</mgrwt>
</event>
<event>
 4    1  0.8562541E-003  0.5197656E+03  0.7818608E-02  0.1008745E+00
         21   -1    0    0  503  502  0.00000000000E+00  0.00000000000E+00  0.53902900816E+03  0.53902900816E+03  0.00000000000E+00 0. -1.
         21   -1    0    0  501  503 -0.00000000000E+00 -0.00000000000E+00 -0.57813422449E+03  0.57813422449E+03  0.00000000000E+00 0. -1.
    9000005    1    1    2  501    0 -0.15637429046E+03 -0.29275129587E+03 -0.22333130783E+03  0.56571469223E+03  0.40000000000E+03 0. -1.
   -9000005    1    1    2    0  502  0.15637429046E+03  0.29275129587E+03  0.18422609150E+03  0.55144854043E+03  0.40000000000E+03 0. -1.
<mgrwt>
<rscale>  2 0.51976556E+03</rscale>
<asrwt>0</asrwt>
<pdfrwt beam="1">  1       21 0.82927540E-01 0.51976556E+03</pdfrwt>
<pdfrwt beam="2">  1       21 0.88943727E-01 0.51976556E+03</pdfrwt>
<totfact> 0.11379052E+03</totfact>
</mgrwt>
</event>
<event>
 4    1  0.8562541E-003  0.4763245E+03  0.7818608E-02  0.1020150E+00
         21   -1    0    0  503  502  0.00000000000E+00  0.00000000000E+00  0.54884260659E+03  0.54884260659E+03  0.00000000000E+00 0. -1.
         21   -1    0    0  501  503 -0.00000000000E+00 -0.00000000000E+00 -0.42461757786E+03  0.42461757786E+03  0.00000000000E+00 0. -1.
    9000005    1    1    2  501    0 -0.49386595104E+02  0.25386207307E+03  0.14126590129E+03  0.49683100023E+03  0.40000000000E+03 0. -1.
   -9000005    1    1    2    0  502  0.49386595104E+02 -0.25386207307E+03 -0.17040872563E+02  0.47662918423E+03  0.40000000000E+03 0. -1.
<mgrwt>
<rscale>  2 0.47632446E+03</rscale>
<asrwt>0</asrwt>
<pdfrwt beam="1">  1       21 0.84437324E-01 0.47632446E+03</pdfrwt>
<pdfrwt beam="2">  1       21 0.65325781E-01 0.47632446E+03</pdfrwt>
<totfact> 0.22490296E+03</totfact>
</mgrwt>
</event>
<event>
 4    1  0.8562541E-003  0.5643616E+03  0.7818608E-02  0.9982234E-01
         21   -1    0    0  503  502  0.00000000000E+00  0.00000000000E+00  0.12139460350E+04  0.12139460350E+04  0.00000000000E+00 0. -1.
         21   -1    0    0  501  503 -0.00000000000E+00 -0.00000000000E+00 -0.27381108412E+03  0.27381108412E+03  0.00000000000E+00 0.  1.
    9000005    1    1    2  501    0 -0.69829685233E+02 -0.39195383344E+03  0.62212045410E+03  0.83996300627E+03  0.40000000000E+03 0. -1.
   -9000005    1    1    2    0  502  0.69829685233E+02  0.39195383344E+03  0.31801449680E+03  0.64779411287E+03  0.40000000000E+03 0.  1.
<mgrwt>
<rscale>  2 0.56436158E+03</rscale>
<asrwt>0</asrwt>
<pdfrwt beam="1">  1       21 0.18676093E+00 0.56436158E+03</pdfrwt>
<pdfrwt beam="2">  1       21 0.42124783E-01 0.56436158E+03</pdfrwt>
<totfact> 0.70599268E+02</totfact>
</mgrwt>
</event>
<event>
 4    1  0.8562541E-003  0.4414245E+03  0.7818608E-02  0.1030311E+00
         21   -1    0    0  501  502  0.00000000000E+00  0.00000000000E+00  0.53308540034E+03  0.53308540034E+03  0.00000000000E+00 0. -1.
         21   -1    0    0  502  503 -0.00000000000E+00 -0.00000000000E+00 -0.36766815810E+03  0.36766815810E+03  0.00000000000E+00 0.  1.
    9000005    1    1    2  501    0 -0.29520867868E+02  0.18434783743E+03  0.11710063347E+03  0.45669263752E+03  0.40000000000E+03 0. -1.
   -9000005    1    1    2    0  503  0.29520867868E+02 -0.18434783743E+03  0.48316608756E+02  0.44406092092E+03  0.40000000000E+03 0.  1.
<mgrwt>
<rscale>  2 0.44142452E+03</rscale>
<asrwt>0</asrwt>
<pdfrwt beam="1">  1       21 0.82013138E-01 0.44142452E+03</pdfrwt>
<pdfrwt beam="2">  1       21 0.56564332E-01 0.44142452E+03</pdfrwt>
<totfact> 0.33440312E+03</totfact>
</mgrwt>
</event>
<event>
 4    1  0.8562541E-003  0.4034729E+03  0.7818608E-02  0.1042584E+00
         21   -1    0    0  503  502  0.00000000000E+00  0.00000000000E+00  0.17058564700E+03  0.17058564700E+03  0.00000000000E+00 0.  1.
         21   -1    0    0  501  503 -0.00000000000E+00 -0.00000000000E+00 -0.13818331928E+04  0.13818331928E+04  0.00000000000E+00 0.  1.
    9000005    1    1    2  501    0 -0.52477443982E+02  0.60387764958E+01 -0.10373760434E+04  0.11130765492E+04  0.40000000000E+03 0.  1.
   -9000005    1    1    2    0  502  0.52477443982E+02 -0.60387764958E+01 -0.17387150238E+03  0.43934229058E+03  0.40000000000E+03 0.  1.
<mgrwt>
<rscale>  2 0.40347286E+03</rscale>
<asrwt>0</asrwt>
<pdfrwt beam="1">  1       21 0.26243946E-01 0.40347286E+03</pdfrwt>
<pdfrwt beam="2">  1       21 0.21258972E+00 0.40347286E+03</pdfrwt>
<totfact> 0.13183015E+03</totfact>
</mgrwt>
</event>
<event>
 4    1  0.8562541E-003  0.4400402E+03  0.7818608E-02  0.1030734E+00
         21   -1    0    0  501  502  0.00000000000E+00  0.00000000000E+00  0.40584191946E+03  0.40584191946E+03  0.00000000000E+00 0. -1.
         21   -1    0    0  502  503 -0.00000000000E+00 -0.00000000000E+00 -0.50127180661E+03  0.50127180661E+03  0.00000000000E+00 0.  1.
    9000005    1    1    2  501    0 -0.14712832995E+03 -0.10949266917E+03 -0.14727103643E+03  0.46403033117E+03  0.40000000000E+03 0.  1.
   -9000005    1    1    2    0  503  0.14712832995E+03  0.10949266917E+03  0.51841149275E+02  0.44308339490E+03  0.40000000000E+03 0.  1.
<mgrwt>
<rscale>  2 0.44004021E+03</rscale>
<asrwt>0</asrwt>
<pdfrwt beam="1">  1       21 0.62437218E-01 0.44004021E+03</pdfrwt>
<pdfrwt beam="2">  1       21 0.77118740E-01 0.44004021E+03</pdfrwt>
<totfact> 0.31066200E+03</totfact>
</mgrwt>
</event>
<event>
 4    1  0.8562541E-003  0.4968998E+03  0.7818608E-02  0.1014591E+00
         21   -1    0    0  503  502  0.00000000000E+00  0.00000000000E+00  0.18498849052E+04  0.18498849052E+04  0.00000000000E+00 0.  1.
         21   -1    0    0  501  503 -0.00000000000E+00 -0.00000000000E+00 -0.14166438714E+03  0.14166438714E+03  0.00000000000E+00 0.  1.
    9000005    1    1    2  501    0  0.28848752733E+03  0.60698983680E+02  0.61466111674E+03  0.79039085805E+03  0.40000000000E+03 0.  1.
   -9000005    1    1    2    0  502 -0.28848752733E+03 -0.60698983680E+02  0.10935594013E+04  0.12011584343E+04  0.40000000000E+03 0.  1.
<mgrwt>
<rscale>  2 0.49689981E+03</rscale>
<asrwt>0</asrwt>
<pdfrwt beam="1">  1       21 0.28459766E+00 0.49689981E+03</pdfrwt>
<pdfrwt beam="2">  1       21 0.21794522E-01 0.49689981E+03</pdfrwt>
<totfact> 0.64660734E+02</totfact>
</mgrwt>
</event>
<event>
 4    1  0.8562541E-003  0.4489015E+03  0.7818608E-02  0.1028050E+00
         21   -1    0    0  503  502  0.00000000000E+00  0.00000000000E+00  0.10630250627E+04  0.10630250627E+04  0.00000000000E+00 0. -1.
         21   -1    0    0  501  503 -0.00000000000E+00 -0.00000000000E+00 -0.21612415020E+03  0.21612415020E+03  0.00000000000E+00 0.  1.
    9000005    1    1    2  501    0  0.13631552293E+03  0.15142851530E+03  0.19924543485E+03  0.49113263010E+03  0.40000000000E+03 0.  1.
   -9000005    1    1    2    0  502 -0.13631552293E+03 -0.15142851530E+03  0.64765547767E+03  0.78801658281E+03  0.40000000000E+03 0. -1.
<mgrwt>
<rscale>  2 0.44890146E+03</rscale>
<asrwt>0</asrwt>
<pdfrwt beam="1">  1       21 0.16354231E+00 0.44890146E+03</pdfrwt>
<pdfrwt beam="2">  1       21 0.33249870E-01 0.44890146E+03</pdfrwt>
<totfact> 0.17601525E+03</totfact>
</mgrwt>
</event>
<event>
 4    1  0.8562541E-003  0.5097458E+03  0.7818608E-02  0.1011266E+00
         21   -1    0    0  503  502  0.00000000000E+00  0.00000000000E+00  0.25674367859E+03  0.25674367859E+03  0.00000000000E+00 0.  1.
         21   -1    0    0  501  503 -0.00000000000E+00 -0.00000000000E+00 -0.12689165565E+04  0.12689165565E+04  0.00000000000E+00 0.  1.
    9000005    1    1    2  501    0  0.24667828433E+02 -0.31501151716E+03 -0.84929187373E+03  0.99052382328E+03  0.40000000000E+03 0.  1.
   -9000005    1    1    2    0  502 -0.24667828433E+02  0.31501151716E+03 -0.16288100415E+03  0.53513641178E+03  0.40000000000E+03 0.  1.
<mgrwt>
<rscale>  2 0.50974578E+03</rscale>
<asrwt>0</asrwt>
<pdfrwt beam="1">  1       21 0.39499027E-01 0.50974578E+03</pdfrwt>
<pdfrwt beam="2">  1       21 0.19521793E+00 0.50974578E+03</pdfrwt>
<totfact> 0.72080414E+02</totfact>
</mgrwt>
</event>
<event>
 4    1  0.8562541E-003  0.4338317E+03  0.7818608E-02  0.1032656E+00
         21   -1    0    0  503  502  0.00000000000E+00  0.00000000000E+00  0.26951872361E+03  0.26951872361E+03  0.00000000000E+00 0. -1.
         21   -1    0    0  501  503 -0.00000000000E+00 -0.00000000000E+00 -0.79842364609E+03  0.79842364609E+03  0.00000000000E+00 0. -1.
    9000005    1    1    2  501    0  0.65495209871E+02  0.15466208975E+03 -0.75379801037E+02  0.44033180549E+03  0.40000000000E+03 0. -1.
   -9000005    1    1    2    0  502 -0.65495209871E+02 -0.15466208975E+03 -0.45352512144E+03  0.62761056420E+03  0.40000000000E+03 0. -1.
<mgrwt>
<rscale>  2 0.43383175E+03</rscale>
<asrwt>0</asrwt>
<pdfrwt beam="1">  1       21 0.41464419E-01 0.43383175E+03</pdfrwt>
<pdfrwt beam="2">  1       21 0.12283441E+00 0.43383175E+03</pdfrwt>
<totfact> 0.24243961E+03</totfact>
</mgrwt>
</event>
<event>
 4    1  0.8562541E-003  0.4940258E+03  0.7818608E-02  0.1015350E+00
         21   -1    0    0  503  502  0.00000000000E+00  0.00000000000E+00  0.11499337396E+04  0.11499337396E+04  0.00000000000E+00 0. -1.
         21   -1    0    0  501  503 -0.00000000000E+00 -0.00000000000E+00 -0.21603840295E+03  0.21603840295E+03  0.00000000000E+00 0.  1.
    9000005    1    1    2  501    0 -0.28699114643E+03  0.41201999948E+02  0.55751414316E+03  0.74490505620E+03  0.40000000000E+03 0. -1.
   -9000005    1    1    2    0  502  0.28699114643E+03 -0.41201999948E+02  0.37638119346E+03  0.62106708633E+03  0.40000000000E+03 0. -1.
<mgrwt>
<rscale>  2 0.49402583E+03</rscale>
<asrwt>0</asrwt>
<pdfrwt beam="1">  1       21 0.17691288E+00 0.49402583E+03</pdfrwt>
<pdfrwt beam="2">  1       21 0.33236678E-01 0.49402583E+03</pdfrwt>
<totfact> 0.13821272E+03</totfact>
</mgrwt>
</event>
<event>
 4    1  0.8562541E-003  0.6738143E+03  0.7818608E-02  0.9763092E-01
         21   -1    0    0  503  502  0.00000000000E+00  0.00000000000E+00  0.25197093935E+03  0.25197093935E+03  0.00000000000E+00 0.  1.
         21   -1    0    0  501  503 -0.00000000000E+00 -0.00000000000E+00 -0.18719889476E+04  0.18719889476E+04  0.00000000000E+00 0.  1.
    9000005    1    1    2  501    0  0.33714508425E+03 -0.42468687897E+03 -0.10155023849E+04  0.12187168854E+04  0.40000000000E+03 0.  1.
   -9000005    1    1    2    0  502 -0.33714508425E+03  0.42468687897E+03 -0.60451562338E+03  0.90524300158E+03  0.40000000000E+03 0.  1.
<mgrwt>
<rscale>  2 0.67381433E+03</rscale>
<asrwt>0</asrwt>
<pdfrwt beam="1">  1       21 0.38764762E-01 0.67381433E+03</pdfrwt>
<pdfrwt beam="2">  1       21 0.28799829E+00 0.67381433E+03</pdfrwt>
<totfact> 0.18142917E+02</totfact>
</mgrwt>
</event>
<event>
 4    1  0.8562541E-003  0.5231166E+03  0.7818608E-02  0.1007915E+00
         21   -1    0    0  501  502  0.00000000000E+00  0.00000000000E+00  0.94935341506E+03  0.94935341506E+03  0.00000000000E+00 0.  1.
         21   -1    0    0  502  503 -0.00000000000E+00 -0.00000000000E+00 -0.33695778120E+03  0.33695778120E+03  0.00000000000E+00 0.  1.
    9000005    1    1    2  501    0  0.33644936608E+03  0.21278981812E+02  0.55072558906E+03  0.75957201466E+03  0.40000000000E+03 0.  1.
   -9000005    1    1    2    0  503 -0.33644936608E+03 -0.21278981812E+02  0.61670044803E+02  0.52673918160E+03  0.40000000000E+03 0.  1.
<mgrwt>
<rscale>  2 0.52311659E+03</rscale>
<asrwt>0</asrwt>
<pdfrwt beam="1">  1       21 0.14605437E+00 0.52311659E+03</pdfrwt>
<pdfrwt beam="2">  1       21 0.51839659E-01 0.52311659E+03</pdfrwt>
<totfact> 0.92914808E+02</totfact>
</mgrwt>
</event>
<event>
 4    1  0.8562541E-003  0.4097026E+03  0.7818608E-02  0.1040471E+00
         21   -1    0    0  503  502  0.00000000000E+00  0.00000000000E+00  0.12522009387E+04  0.12522009387E+04  0.00000000000E+00 0. -1.
         21   -1    0    0  501  503 -0.00000000000E+00 -0.00000000000E+00 -0.13420523654E+03  0.13420523654E+03  0.00000000000E+00 0. -1.
    9000005    1    1    2  501    0  0.25783849153E+02  0.84802293634E+02  0.53534300916E+03  0.67412786127E+03  0.40000000000E+03 0.  1.
   -9000005    1    1    2    0  502 -0.25783849153E+02 -0.84802293634E+02  0.58265269301E+03  0.71227831397E+03  0.40000000000E+03 0.  1.
<mgrwt>
<rscale>  2 0.40970262E+03</rscale>
<asrwt>0</asrwt>
<pdfrwt beam="1">  1       21 0.19264629E+00 0.40970262E+03</pdfrwt>
<pdfrwt beam="2">  1       21 0.20646960E-01 0.40970262E+03</pdfrwt>
<totfact> 0.28264966E+03</totfact>
</mgrwt>
</event>
<event>
 4    1  0.8562541E-003  0.4409538E+03  0.7818608E-02  0.1030455E+00
         21   -1    0    0  503  502  0.00000000000E+00  0.00000000000E+00  0.17196017858E+03  0.17196017858E+03  0.00000000000E+00 0. -1.
         21   -1    0    0  501  503 -0.00000000000E+00 -0.00000000000E+00 -0.11881716442E+04  0.11881716442E+04  0.00000000000E+00 0. -1.
    9000005    1    1    2  501    0 -0.14185241692E+03  0.11965862769E+03 -0.65763632862E+03  0.79178648390E+03  0.40000000000E+03 0. -1.
   -9000005    1    1    2    0  502  0.14185241692E+03 -0.11965862769E+03 -0.35857513702E+03  0.56834533891E+03  0.40000000000E+03 0. -1.
<mgrwt>
<rscale>  2 0.44095385E+03</rscale>
<asrwt>0</asrwt>
<pdfrwt beam="1">  1       21 0.26455413E-01 0.44095385E+03</pdfrwt>
<pdfrwt beam="2">  1       21 0.18279563E+00 0.44095385E+03</pdfrwt>
<totfact> 0.20193351E+03</totfact>
</mgrwt>
</event>
<event>
 4    1  0.8562541E-003  0.4120403E+03  0.7818608E-02  0.1039688E+00
         21   -1    0    0  501  502  0.00000000000E+00  0.00000000000E+00  0.41194868293E+03  0.41194868293E+03  0.00000000000E+00 0. -1.
         21   -1    0    0  502  503 -0.00000000000E+00 -0.00000000000E+00 -0.43106224073E+03  0.43106224073E+03  0.00000000000E+00 0. -1.
    9000005    1    1    2  501    0 -0.56429435574E+02 -0.81196844057E+02  0.78773988855E+02  0.41950274135E+03  0.40000000000E+03 0. -1.
   -9000005    1    1    2    0  503  0.56429435574E+02  0.81196844057E+02 -0.97887546658E+02  0.42350818230E+03  0.40000000000E+03 0. -1.
<mgrwt>
<rscale>  2 0.41204030E+03</rscale>
<asrwt>0</asrwt>
<pdfrwt beam="1">  1       21 0.63376720E-01 0.41204030E+03</pdfrwt>
<pdfrwt beam="2">  1       21 0.66317268E-01 0.41204030E+03</pdfrwt>
<totfact> 0.42694344E+03</totfact>
</mgrwt>
</event>
<event>
 4    1  0.8562541E-003  0.4577972E+03  0.7818608E-02  0.1025422E+00
         21   -1    0    0  501  502  0.00000000000E+00  0.00000000000E+00  0.61499853069E+03  0.61499853069E+03  0.00000000000E+00 0. -1.
         21   -1    0    0  502  503 -0.00000000000E+00 -0.00000000000E+00 -0.44950404355E+03  0.44950404355E+03  0.00000000000E+00 0. -1.
    9000005    1    1    2  501    0  0.16910423569E+03 -0.14485189836E+03  0.34451466121E+03  0.57294735079E+03  0.40000000000E+03 0. -1.
   -9000005    1    1    2    0  503 -0.16910423569E+03  0.14485189836E+03 -0.17902017407E+03  0.49155522346E+03  0.40000000000E+03 0. -1.
<mgrwt>
<rscale>  2 0.45779724E+03</rscale>
<asrwt>0</asrwt>
<pdfrwt beam="1">  1       21 0.94615159E-01 0.45779724E+03</pdfrwt>
<pdfrwt beam="2">  1       21 0.69154468E-01 0.45779724E+03</pdfrwt>
<totfact> 0.15226145E+03</totfact>
</mgrwt>
</event>
<event>
 4    1  0.8562541E-003  0.4079126E+03  0.7818608E-02  0.1041074E+00
         21   -1    0    0  503  502  0.00000000000E+00  0.00000000000E+00  0.41224726871E+03  0.41224726871E+03  0.00000000000E+00 0. -1.
         21   -1    0    0  501  503 -0.00000000000E+00 -0.00000000000E+00 -0.76548047416E+03  0.76548047416E+03  0.00000000000E+00 0. -1.
    9000005    1    1    2  501    0 -0.61389167743E+02  0.51225966846E+02 -0.58148722081E+03  0.71029579582E+03  0.40000000000E+03 0. -1.
   -9000005    1    1    2    0  502  0.61389167743E+02 -0.51225966846E+02  0.22825401536E+03  0.46743194705E+03  0.40000000000E+03 0. -1.
<mgrwt>
<rscale>  2 0.40791265E+03</rscale>
<asrwt>0</asrwt>
<pdfrwt beam="1">  1       21 0.63422657E-01 0.40791265E+03</pdfrwt>
<pdfrwt beam="2">  1       21 0.11776623E+00 0.40791265E+03</pdfrwt>
<totfact> 0.11011835E+03</totfact>
</mgrwt>
</event>
<event>
 4    1  0.8562541E-003  0.4284195E+03  0.7818608E-02  0.1034360E+00
         21   -1    0    0  501  502  0.00000000000E+00  0.00000000000E+00  0.10350267737E+04  0.10350267737E+04  0.00000000000E+00 0. -1.
         21   -1    0    0  502  503 -0.00000000000E+00 -0.00000000000E+00 -0.17807532755E+03  0.17807532755E+03  0.00000000000E+00 0. -1.
    9000005    1    1    2  501    0  0.52271872319E+02 -0.14425996123E+03  0.46766605682E+03  0.63423562321E+03  0.40000000000E+03 0.  1.
   -9000005    1    1    2    0  503 -0.52271872319E+02  0.14425996123E+03  0.38928538929E+03  0.57886647801E+03  0.40000000000E+03 0.  1.
<mgrwt>
<rscale>  2 0.42841952E+03</rscale>
<asrwt>0</asrwt>
<pdfrwt beam="1">  1       21 0.15923488E+00 0.42841952E+03</pdfrwt>
<pdfrwt beam="2">  1       21 0.27396205E-01 0.42841952E+03</pdfrwt>
<totfact> 0.28098635E+03</totfact>
</mgrwt>
</event>
<event>
 4    1  0.8562541E-003  0.5744588E+03  0.7818608E-02  0.9959860E-01
         21   -1    0    0  503  502  0.00000000000E+00  0.00000000000E+00  0.59169655936E+03  0.59169655936E+03  0.00000000000E+00 0. -1.
         21   -1    0    0  501  503 -0.00000000000E+00 -0.00000000000E+00 -0.58277195078E+03  0.58277195078E+03  0.00000000000E+00 0. -1.
    9000005    1    1    2  501    0  0.87126972621E+02  0.40300340810E+03 -0.11728397999E+03  0.58630912347E+03  0.40000000000E+03 0. -1.
   -9000005    1    1    2    0  502 -0.87126972621E+02 -0.40300340810E+03  0.12620858857E+03  0.58815938667E+03  0.40000000000E+03 0. -1.
<mgrwt>
<rscale>  2 0.57445875E+03</rscale>
<asrwt>0</asrwt>
<pdfrwt beam="1">  1       21 0.91030239E-01 0.57445875E+03</pdfrwt>
<pdfrwt beam="2">  1       21 0.89657224E-01 0.57445875E+03</pdfrwt>
<totfact> 0.87961928E+02</totfact>
</mgrwt>
</event>
<event>
 4    1  0.8562541E-003  0.4326684E+03  0.7818608E-02  0.1033020E+00
         21   -1    0    0  501  502  0.00000000000E+00  0.00000000000E+00  0.81605178628E+03  0.81605178628E+03  0.00000000000E+00 0. -1.
         21   -1    0    0  502  503 -0.00000000000E+00 -0.00000000000E+00 -0.23114987455E+03  0.23114987455E+03  0.00000000000E+00 0. -1.
    9000005    1    1    2  501    0  0.55160775114E+02  0.15543243446E+03  0.33801336387E+03  0.54904916624E+03  0.40000000000E+03 0. -1.
   -9000005    1    1    2    0  503 -0.55160775114E+02 -0.15543243446E+03  0.24688854786E+03  0.49815249458E+03  0.40000000000E+03 0. -1.
<mgrwt>
<rscale>  2 0.43266841E+03</rscale>
<asrwt>0</asrwt>
<pdfrwt beam="1">  1       21 0.12554643E+00 0.43266841E+03</pdfrwt>
<pdfrwt beam="2">  1       21 0.35561519E-01 0.43266841E+03</pdfrwt>
<totfact> 0.31404202E+03</totfact>
</mgrwt>
</event>
<event>
 4    1  0.8562541E-003  0.4114647E+03  0.7818608E-02  0.1039881E+00
         21   -1    0    0  503  502  0.00000000000E+00  0.00000000000E+00  0.73269519849E+03  0.73269519849E+03  0.00000000000E+00 0.  1.
         21   -1    0    0  501  503 -0.00000000000E+00 -0.00000000000E+00 -0.26059358653E+03  0.26059358653E+03  0.00000000000E+00 0.  1.
    9000005    1    1    2  501    0  0.72433012049E+02  0.63692217624E+02  0.68882225987E+02  0.41719060497E+03  0.40000000000E+03 0.  1.
   -9000005    1    1    2    0  502 -0.72433012049E+02 -0.63692217624E+02  0.40321938597E+03  0.57609818004E+03  0.40000000000E+03 0.  1.
<mgrwt>
<rscale>  2 0.41146475E+03</rscale>
<asrwt>0</asrwt>
<pdfrwt beam="1">  1       21 0.11272234E+00 0.41146475E+03</pdfrwt>
<pdfrwt beam="2">  1       21 0.40091321E-01 0.41146475E+03</pdfrwt>
<totfact> 0.32549148E+03</totfact>
</mgrwt>
</event>
<event>
 4    1  0.8562541E-003  0.4448576E+03  0.7818608E-02  0.1029267E+00
         21   -1    0    0  501  502  0.00000000000E+00  0.00000000000E+00  0.21846480346E+03  0.21846480346E+03  0.00000000000E+00 0. -1.
         21   -1    0    0  502  503 -0.00000000000E+00 -0.00000000000E+00 -0.90600477301E+03  0.90600477301E+03  0.00000000000E+00 0. -1.
    9000005    1    1    2  501    0 -0.44266937984E+02 -0.18957516114E+03 -0.33663777190E+03  0.55787390420E+03  0.40000000000E+03 0. -1.
   -9000005    1    1    2    0  503  0.44266937984E+02  0.18957516114E+03 -0.35090219766E+03  0.56659567227E+03  0.40000000000E+03 0. -1.
<mgrwt>
<rscale>  2 0.44485762E+03</rscale>
<asrwt>0</asrwt>
<pdfrwt beam="1">  1       21 0.33609969E-01 0.44485762E+03</pdfrwt>
<pdfrwt beam="2">  1       21 0.13938535E+00 0.44485762E+03</pdfrwt>
<totfact> 0.26674294E+03</totfact>
</mgrwt>
</event>
<event>
 4    1  0.8562541E-003  0.5645676E+03  0.7818608E-02  0.9981772E-01
         21   -1    0    0  501  502  0.00000000000E+00  0.00000000000E+00  0.18968502848E+03  0.18968502848E+03  0.00000000000E+00 0. -1.
         21   -1    0    0  502  503 -0.00000000000E+00 -0.00000000000E+00 -0.21833241645E+04  0.21833241645E+04  0.00000000000E+00 0.  1.
    9000005    1    1    2  501    0  0.39671097665E+03 -0.36836931756E+02 -0.15663077273E+04  0.16649493852E+04  0.40000000000E+03 0.  1.
   -9000005    1    1    2    0  503 -0.39671097665E+03  0.36836931756E+02 -0.42733140863E+03  0.70805980774E+03  0.40000000000E+03 0. -1.
<mgrwt>
<rscale>  2 0.56456759E+03</rscale>
<asrwt>0</asrwt>
<pdfrwt beam="1">  1       21 0.29182312E-01 0.56456759E+03</pdfrwt>
<pdfrwt beam="2">  1       21 0.33589603E+00 0.56456759E+03</pdfrwt>
<totfact> 0.17247940E+02</totfact>
</mgrwt>
</event>
<event>
 4    1  0.8562541E-003  0.5769689E+03  0.7818608E-02  0.9954375E-01
         21   -1    0    0  501  502  0.00000000000E+00  0.00000000000E+00  0.15094325122E+04  0.15094325122E+04  0.00000000000E+00 0. -1.
         21   -1    0    0  502  503 -0.00000000000E+00 -0.00000000000E+00 -0.22349938075E+03  0.22349938075E+03  0.00000000000E+00 0.  1.
    9000005    1    1    2  501    0 -0.28144355555E+02 -0.41485059656E+03  0.54329439686E+03  0.79250357972E+03  0.40000000000E+03 0. -1.
   -9000005    1    1    2    0  503  0.28144355555E+02  0.41485059656E+03  0.74263873463E+03  0.94042831326E+03  0.40000000000E+03 0.  1.
<mgrwt>
<rscale>  2 0.57696891E+03</rscale>
<asrwt>0</asrwt>
<pdfrwt beam="1">  1       21 0.23222038E+00 0.57696891E+03</pdfrwt>
<pdfrwt beam="2">  1       21 0.34384521E-01 0.57696891E+03</pdfrwt>
<totfact> 0.53385000E+02</totfact>
</mgrwt>
</event>
<event>
 4    1  0.8562541E-003  0.6367524E+03  0.7818608E-02  0.9831960E-01
         21   -1    0    0  501  502  0.00000000000E+00  0.00000000000E+00  0.36576580326E+03  0.36576580326E+03  0.00000000000E+00 0.  1.
         21   -1    0    0  502  503 -0.00000000000E+00 -0.00000000000E+00 -0.13566049765E+04  0.13566049765E+04  0.00000000000E+00 0.  1.
    9000005    1    1    2  501    0 -0.29555195547E+03 -0.39762119283E+03 -0.12713590555E+03  0.64932049856E+03  0.40000000000E+03 0.  1.
   -9000005    1    1    2    0  503  0.29555195547E+03  0.39762119283E+03 -0.86370326764E+03  0.10730502812E+04  0.40000000000E+03 0.  1.
<mgrwt>
<rscale>  2 0.63675236E+03</rscale>
<asrwt>0</asrwt>
<pdfrwt beam="1">  1       21 0.56271662E-01 0.63675236E+03</pdfrwt>
<pdfrwt beam="2">  1       21 0.20870846E+00 0.63675236E+03</pdfrwt>
<totfact> 0.26316368E+02</totfact>
</mgrwt>
</event>
<event>
 4    1  0.8562541E-003  0.4107902E+03  0.7818608E-02  0.1040106E+00
         21   -1    0    0  501  502  0.00000000000E+00  0.00000000000E+00  0.43295183456E+03  0.43295183456E+03  0.00000000000E+00 0.  1.
         21   -1    0    0  502  503 -0.00000000000E+00 -0.00000000000E+00 -0.60055178418E+03  0.60055178418E+03  0.00000000000E+00 0.  1.
    9000005    1    1    2  501    0  0.61333145703E+02  0.70617732787E+02  0.22234736743E+03  0.46710488196E+03  0.40000000000E+03 0.  1.
   -9000005    1    1    2    0  503 -0.61333145703E+02 -0.70617732787E+02 -0.38994731706E+03  0.56639873678E+03  0.40000000000E+03 0.  1.
<mgrwt>
<rscale>  2 0.41079024E+03</rscale>
<asrwt>0</asrwt>
<pdfrwt beam="1">  1       21 0.66607975E-01 0.41079024E+03</pdfrwt>
<pdfrwt beam="2">  1       21 0.92392582E-01 0.41079024E+03</pdfrwt>
<totfact> 0.17858339E+03</totfact>
</mgrwt>
</event>
<event>
 4    1  0.8562541E-003  0.6950062E+03  0.7818608E-02  0.9725811E-01
         21   -1    0    0  501  502  0.00000000000E+00  0.00000000000E+00  0.58632408893E+03  0.58632408893E+03  0.00000000000E+00 0.  1.
         21   -1    0    0  502  503 -0.00000000000E+00 -0.00000000000E+00 -0.82479295494E+03  0.82479295494E+03  0.00000000000E+00 0. -1.
    9000005    1    1    2  501    0  0.34094920488E+03 -0.45473861535E+03 -0.14329566913E+03  0.70962470179E+03  0.40000000000E+03 0.  1.
   -9000005    1    1    2    0  503 -0.34094920488E+03  0.45473861535E+03 -0.95173196879E+02  0.70149234208E+03  0.40000000000E+03 0.  1.
<mgrwt>
<rscale>  2 0.69500616E+03</rscale>
<asrwt>0</asrwt>
<pdfrwt beam="1">  1       21 0.90203706E-01 0.69500616E+03</pdfrwt>
<pdfrwt beam="2">  1       21 0.12689122E+00 0.69500616E+03</pdfrwt>
<totfact> 0.36479857E+02</totfact>
</mgrwt>
</event>
<event>
 4    1  0.8562541E-003  0.4718312E+03  0.7818608E-02  0.1021405E+00
         21   -1    0    0  503  502  0.00000000000E+00  0.00000000000E+00  0.98038690074E+03  0.98038690074E+03  0.00000000000E+00 0.  1.
         21   -1    0    0  501  503 -0.00000000000E+00 -0.00000000000E+00 -0.23734518204E+03  0.23734518204E+03  0.00000000000E+00 0.  1.
    9000005    1    1    2  501    0  0.24030974059E+03  0.69827755677E+02  0.49815440145E+03  0.68613591553E+03  0.40000000000E+03 0.  1.
   -9000005    1    1    2    0  502 -0.24030974059E+03 -0.69827755677E+02  0.24488731726E+03  0.53159616726E+03  0.40000000000E+03 0.  1.
<mgrwt>
<rscale>  2 0.47183121E+03</rscale>
<asrwt>0</asrwt>
<pdfrwt beam="1">  1       21 0.15082875E+00 0.47183121E+03</pdfrwt>
<pdfrwt beam="2">  1       21 0.36514644E-01 0.47183121E+03</pdfrwt>
<totfact> 0.18051634E+03</totfact>
</mgrwt>
</event>
<event>
 4    1  0.8562541E-003  0.4143306E+03  0.7818608E-02  0.1038927E+00
         21   -1    0    0  501  502  0.00000000000E+00  0.00000000000E+00  0.14952285618E+04  0.14952285618E+04  0.00000000000E+00 0. -1.
         21   -1    0    0  502  503 -0.00000000000E+00 -0.00000000000E+00 -0.11494066419E+03  0.11494066419E+03  0.00000000000E+00 0. -1.
    9000005    1    1    2  501    0  0.19618157847E+02  0.10623082946E+03  0.71710239465E+03  0.82819424392E+03  0.40000000000E+03 0. -1.
   -9000005    1    1    2    0  503 -0.19618157847E+02 -0.10623082946E+03  0.66318550295E+03  0.78197498206E+03  0.40000000000E+03 0. -1.
<mgrwt>
<rscale>  2 0.41433062E+03</rscale>
<asrwt>0</asrwt>
<pdfrwt beam="1">  1       21 0.23003515E+00 0.41433062E+03</pdfrwt>
<pdfrwt beam="2">  1       21 0.17683180E-01 0.41433062E+03</pdfrwt>
<totfact> 0.21622184E+03</totfact>
</mgrwt>
</event>
<event>
 4    1  0.8562541E-003  0.6103541E+03  0.7818608E-02  0.9884154E-01
         21   -1    0    0  501  502  0.00000000000E+00  0.00000000000E+00  0.58494105567E+03  0.58494105567E+03  0.00000000000E+00 0.  1.
         21   -1    0    0  502  503 -0.00000000000E+00 -0.00000000000E+00 -0.84403045946E+03  0.84403045946E+03  0.00000000000E+00 0. -1.
    9000005    1    1    2  501    0  0.33616299882E+03  0.31547834909E+03  0.22442543366E+03  0.65030679359E+03  0.40000000000E+03 0.  1.
   -9000005    1    1    2    0  503 -0.33616299882E+03 -0.31547834909E+03 -0.48351483745E+03  0.77866472153E+03  0.40000000000E+03 0. -1.
<mgrwt>
<rscale>  2 0.61035412E+03</rscale>
<asrwt>0</asrwt>
<pdfrwt beam="1">  1       21 0.89990932E-01 0.61035412E+03</pdfrwt>
<pdfrwt beam="2">  1       21 0.12985084E+00 0.61035412E+03</pdfrwt>
<totfact> 0.35473360E+02</totfact>
</mgrwt>
</event>
<event>
 4    1  0.8562541E-003  0.5346646E+03  0.7818608E-02  0.1005107E+00
         21   -1    0    0  501  502  0.00000000000E+00  0.00000000000E+00  0.10142790709E+04  0.10142790709E+04  0.00000000000E+00 0. -1.
         21   -1    0    0  502  503 -0.00000000000E+00 -0.00000000000E+00 -0.33469677472E+03  0.33469677472E+03  0.00000000000E+00 0. -1.
    9000005    1    1    2  501    0  0.35438602914E+03  0.16635711908E+02  0.60782613607E+03  0.80951764418E+03  0.40000000000E+03 0. -1.
   -9000005    1    1    2    0  503 -0.35438602914E+03 -0.16635711908E+02  0.71756160098E+02  0.53945820141E+03  0.40000000000E+03 0. -1.
<mgrwt>
<rscale>  2 0.53466457E+03</rscale>
<asrwt>0</asrwt>
<pdfrwt beam="1">  1       21 0.15604293E+00 0.53466457E+03</pdfrwt>
<pdfrwt beam="2">  1       21 0.51491812E-01 0.53466457E+03</pdfrwt>
<totfact> 0.78325344E+02</totfact>
</mgrwt>
</event>
<event>
 4    1  0.8562541E-003  0.4661010E+03  0.7818608E-02  0.1023026E+00
         21   -1    0    0  503  502  0.00000000000E+00  0.00000000000E+00  0.91884205674E+02  0.91884205674E+02  0.00000000000E+00 0. -1.
         21   -1    0    0  501  503 -0.00000000000E+00 -0.00000000000E+00 -0.23718220258E+04  0.23718220258E+04  0.00000000000E+00 0.  1.
    9000005    1    1    2  501    0 -0.23058750577E+03  0.63871211912E+02 -0.10710146419E+04  0.11680421622E+04  0.40000000000E+03 0.  1.
   -9000005    1    1    2    0  502  0.23058750577E+03 -0.63871211912E+02 -0.12089231783E+04  0.12956640693E+04  0.40000000000E+03 0. -1.
<mgrwt>
<rscale>  2 0.46610099E+03</rscale>
<asrwt>0</asrwt>
<pdfrwt beam="1">  1       21 0.14136032E-01 0.46610099E+03</pdfrwt>
<pdfrwt beam="2">  1       21 0.36489569E+00 0.46610099E+03</pdfrwt>
<totfact> 0.48224999E+02</totfact>
</mgrwt>
</event>
<event>
 4    1  0.8562541E-003  0.4035783E+03  0.7818608E-02  0.1042548E+00
         21   -1    0    0  501  502  0.00000000000E+00  0.00000000000E+00  0.25464100382E+03  0.25464100382E+03  0.00000000000E+00 0. -1.
         21   -1    0    0  502  503 -0.00000000000E+00 -0.00000000000E+00 -0.77036873590E+03  0.77036873590E+03  0.00000000000E+00 0. -1.
    9000005    1    1    2  501    0  0.51775405556E+02  0.13954857448E+02 -0.46731560171E+02  0.40627486925E+03  0.40000000000E+03 0. -1.
   -9000005    1    1    2    0  503 -0.51775405556E+02 -0.13954857448E+02 -0.46899617192E+03  0.61873487047E+03  0.40000000000E+03 0. -1.
<mgrwt>
<rscale>  2 0.40357828E+03</rscale>
<asrwt>0</asrwt>
<pdfrwt beam="1">  1       21 0.39175540E-01 0.40357828E+03</pdfrwt>
<pdfrwt beam="2">  1       21 0.11851826E+00 0.40357828E+03</pdfrwt>
<totfact> 0.30210171E+03</totfact>
</mgrwt>
</event>
<event>
 4    1  0.8562541E-003  0.5489684E+03  0.7818608E-02  0.1001733E+00
         21   -1    0    0  501  502  0.00000000000E+00  0.00000000000E+00  0.14801120304E+04  0.14801120304E+04  0.00000000000E+00 0.  1.
         21   -1    0    0  502  503 -0.00000000000E+00 -0.00000000000E+00 -0.20468876101E+03  0.20468876101E+03  0.00000000000E+00 0. -1.
    9000005    1    1    2  501    0 -0.36471784287E+03  0.91362839263E+02  0.57656901735E+03  0.79611437939E+03  0.40000000000E+03 0. -1.
   -9000005    1    1    2    0  503  0.36471784287E+03 -0.91362839263E+02  0.69885425201E+03  0.88868641199E+03  0.40000000000E+03 0.  1.
<mgrwt>
<rscale>  2 0.54896837E+03</rscale>
<asrwt>0</asrwt>
<pdfrwt beam="1">  1       21 0.22770954E+00 0.54896837E+03</pdfrwt>
<pdfrwt beam="2">  1       21 0.31490580E-01 0.54896837E+03</pdfrwt>
<totfact> 0.68864015E+02</totfact>
</mgrwt>
</event>
<event>
 4    1  0.8562541E-003  0.5387524E+03  0.7818608E-02  0.1004131E+00
         21   -1    0    0  501  502  0.00000000000E+00  0.00000000000E+00  0.79747933097E+03  0.79747933097E+03  0.00000000000E+00 0. -1.
         21   -1    0    0  502  503 -0.00000000000E+00 -0.00000000000E+00 -0.41876856191E+03  0.41876856191E+03  0.00000000000E+00 0. -1.
    9000005    1    1    2  501    0 -0.33918198843E+03 -0.12332767305E+03  0.40934976726E+03  0.67662498341E+03  0.40000000000E+03 0. -1.
   -9000005    1    1    2    0  503  0.33918198843E+03  0.12332767305E+03 -0.30638998199E+02  0.53962290947E+03  0.40000000000E+03 0. -1.
<mgrwt>
<rscale>  2 0.53875239E+03</rscale>
<asrwt>0</asrwt>
<pdfrwt beam="1">  1       21 0.12268913E+00 0.53875239E+03</pdfrwt>
<pdfrwt beam="2">  1       21 0.64425933E-01 0.53875239E+03</pdfrwt>
<totfact> 0.90958470E+02</totfact>
</mgrwt>
</event>
<event>
 4    1  0.8562541E-003  0.6216015E+03  0.7818608E-02  0.9861576E-01
         21   -1    0    0  503  502  0.00000000000E+00  0.00000000000E+00  0.61358331546E+03  0.61358331546E+03  0.00000000000E+00 0.  1.
         21   -1    0    0  501  503 -0.00000000000E+00 -0.00000000000E+00 -0.64167148706E+03  0.64167148706E+03  0.00000000000E+00 0. -1.
    9000005    1    1    2  501    0 -0.10511194136E+03  0.46404736477E+03 -0.99683526132E+02  0.62954370964E+03  0.40000000000E+03 0. -1.
   -9000005    1    1    2    0  502  0.10511194136E+03 -0.46404736477E+03  0.71595354535E+02  0.62571109288E+03  0.40000000000E+03 0.  1.
<mgrwt>
<rscale>  2 0.62160154E+03</rscale>
<asrwt>0</asrwt>
<pdfrwt beam="1">  1       21 0.94397434E-01 0.62160154E+03</pdfrwt>
<pdfrwt beam="2">  1       21 0.98718690E-01 0.62160154E+03</pdfrwt>
<totfact> 0.62986936E+02</totfact>
</mgrwt>
</event>
<event>
 4    1  0.8562541E-003  0.4420188E+03  0.7818608E-02  0.1030129E+00
         21   -1    0    0  501  502  0.00000000000E+00  0.00000000000E+00  0.93284876049E+03  0.93284876049E+03  0.00000000000E+00 0. -1.
         21   -1    0    0  502  503 -0.00000000000E+00 -0.00000000000E+00 -0.22122927860E+03  0.22122927860E+03  0.00000000000E+00 0. -1.
    9000005    1    1    2  501    0 -0.18284674918E+03 -0.44132795919E+02  0.48898784801E+03  0.65915836705E+03  0.40000000000E+03 0. -1.
   -9000005    1    1    2    0  503  0.18284674918E+03  0.44132795919E+02  0.22263163388E+03  0.49491967203E+03  0.40000000000E+03 0. -1.
<mgrwt>
<rscale>  2 0.44201882E+03</rscale>
<asrwt>0</asrwt>
<pdfrwt beam="1">  1       21 0.14351519E+00 0.44201882E+03</pdfrwt>
<pdfrwt beam="2">  1       21 0.34035274E-01 0.44201882E+03</pdfrwt>
<totfact> 0.24083855E+03</totfact>
</mgrwt>
</event>
<event>
 4    1  0.8562541E-003  0.4174806E+03  0.7818608E-02  0.1037889E+00
         21   -1    0    0  501  502  0.00000000000E+00  0.00000000000E+00  0.10149153030E+03  0.10149153030E+03  0.00000000000E+00 0.  1.
         21   -1    0    0  502  503 -0.00000000000E+00 -0.00000000000E+00 -0.17506202630E+04  0.17506202630E+04  0.00000000000E+00 0. -1.
    9000005    1    1    2  501    0  0.93269988686E+02 -0.74771452638E+02 -0.69677882295E+03  0.81227506981E+03  0.40000000000E+03 0.  1.
   -9000005    1    1    2    0  503 -0.93269988686E+02  0.74771452638E+02 -0.95234990972E+03  0.10398367235E+04  0.40000000000E+03 0. -1.
<mgrwt>
<rscale>  2 0.41748061E+03</rscale>
<asrwt>0</asrwt>
<pdfrwt beam="1">  1       21 0.15614082E-01 0.41748061E+03</pdfrwt>
<pdfrwt beam="2">  1       21 0.26932619E+00 0.41748061E+03</pdfrwt>
<totfact> 0.15640126E+03</totfact>
</mgrwt>
</event>
<event>
 4    1  0.8562541E-003  0.4756035E+03  0.7818608E-02  0.1020350E+00
         21   -1    0    0  503  502  0.00000000000E+00  0.00000000000E+00  0.13605696853E+04  0.13605696853E+04  0.00000000000E+00 0.  1.
         21   -1    0    0  501  503 -0.00000000000E+00 -0.00000000000E+00 -0.19663200868E+03  0.19663200868E+03  0.00000000000E+00 0.  1.
    9000005    1    1    2  501    0  0.15479420691E+03 -0.20551750731E+03  0.27593102786E+03  0.54985145671E+03  0.40000000000E+03 0.  1.
   -9000005    1    1    2    0  502 -0.15479420691E+03  0.20551750731E+03  0.88800664874E+03  0.10073502373E+04  0.40000000000E+03 0.  1.
<mgrwt>
<rscale>  2 0.47560350E+03</rscale>
<asrwt>0</asrwt>
<pdfrwt beam="1">  1       21 0.20931841E+00 0.47560350E+03</pdfrwt>
<pdfrwt beam="2">  1       21 0.30251079E-01 0.47560350E+03</pdfrwt>
<totfact> 0.10111213E+03</totfact>
</mgrwt>
</event>
<event>
 4    1  0.8562541E-003  0.4684250E+03  0.7818608E-02  0.1022366E+00
         21   -1    0    0  503  502  0.00000000000E+00  0.00000000000E+00  0.62277980114E+03  0.62277980114E+03  0.00000000000E+00 0.  1.
         21   -1    0    0  501  503 -0.00000000000E+00 -0.00000000000E+00 -0.38058973901E+03  0.38058973901E+03  0.00000000000E+00 0.  1.
    9000005    1    1    2  501    0 -0.14620577159E+03  0.19505346404E+03 -0.15618483109E+02  0.46868530860E+03  0.40000000000E+03 0.  1.
   -9000005    1    1    2    0  502  0.14620577159E+03 -0.19505346404E+03  0.25780854524E+03  0.53468423156E+03  0.40000000000E+03 0.  1.
<mgrwt>
<rscale>  2 0.46842500E+03</rscale>
<asrwt>0</asrwt>
<pdfrwt beam="1">  1       21 0.95812277E-01 0.46842500E+03</pdfrwt>
<pdfrwt beam="2">  1       21 0.58552267E-01 0.46842500E+03</pdfrwt>
<totfact> 0.21277243E+03</totfact>
</mgrwt>
</event>
<event>
 4    1  0.8562541E-003  0.6302731E+03  0.7818608E-02  0.9844516E-01
         21   -1    0    0  501  502  0.00000000000E+00  0.00000000000E+00  0.25275949391E+04  0.25275949391E+04  0.00000000000E+00 0.  1.
         21   -1    0    0  502  503 -0.00000000000E+00 -0.00000000000E+00 -0.16035555433E+03  0.16035555433E+03  0.00000000000E+00 0. -1.
    9000005    1    1    2  501    0  0.45474581390E+03  0.17450045373E+03  0.13732574745E+04  0.15109865171E+04  0.40000000000E+03 0.  1.
   -9000005    1    1    2    0  503 -0.45474581390E+03 -0.17450045373E+03  0.99398191025E+03  0.11769639763E+04  0.40000000000E+03 0. -1.
<mgrwt>
<rscale>  2 0.63027309E+03</rscale>
<asrwt>0</asrwt>
<pdfrwt beam="1">  1       21 0.38886073E+00 0.63027309E+03</pdfrwt>
<pdfrwt beam="2">  1       21 0.24670087E-01 0.63027309E+03</pdfrwt>
<totfact> 0.10836382E+02</totfact>
</mgrwt>
</event>
<event>
 4    1  0.8562541E-003  0.4442172E+03  0.7818608E-02  0.1029461E+00
         21   -1    0    0  501  502  0.00000000000E+00  0.00000000000E+00  0.46540466926E+03  0.46540466926E+03  0.00000000000E+00 0. -1.
         21   -1    0    0  502  503 -0.00000000000E+00 -0.00000000000E+00 -0.44323721516E+03  0.44323721516E+03  0.00000000000E+00 0.  1.
    9000005    1    1    2  501    0 -0.15758872234E+03 -0.11177996053E+03  0.10574648606E+03  0.45663035850E+03  0.40000000000E+03 0. -1.
   -9000005    1    1    2    0  503  0.15758872234E+03  0.11177996053E+03 -0.83579031953E+02  0.45201152592E+03  0.40000000000E+03 0.  1.
<mgrwt>
<rscale>  2 0.44421725E+03</rscale>
<asrwt>0</asrwt>
<pdfrwt beam="1">  1       21 0.71600718E-01 0.44421725E+03</pdfrwt>
<pdfrwt beam="2">  1       21 0.68190341E-01 0.44421725E+03</pdfrwt>
<totfact> 0.30195256E+03</totfact>
</mgrwt>
</event>
<event>
 4    1  0.8562541E-003  0.5024050E+03  0.7818608E-02  0.1013153E+00
         21   -1    0    0  501  502  0.00000000000E+00  0.00000000000E+00  0.85236050973E+03  0.85236050973E+03  0.00000000000E+00 0.  1.
         21   -1    0    0  502  503 -0.00000000000E+00 -0.00000000000E+00 -0.31038017804E+03  0.31038017804E+03  0.00000000000E+00 0.  1.
    9000005    1    1    2  501    0 -0.12269634485E+03 -0.27813025739E+03  0.39555415661E+03  0.63943250146E+03  0.40000000000E+03 0.  1.
   -9000005    1    1    2    0  503  0.12269634485E+03  0.27813025739E+03  0.14642617508E+03  0.52330818631E+03  0.40000000000E+03 0.  1.
<mgrwt>
<rscale>  2 0.50240505E+03</rscale>
<asrwt>0</asrwt>
<pdfrwt beam="1">  1       21 0.13113238E+00 0.50240505E+03</pdfrwt>
<pdfrwt beam="2">  1       21 0.47750797E-01 0.50240505E+03</pdfrwt>
<totfact> 0.14852174E+03</totfact>
</mgrwt>
</event>
<event>
 4    1  0.8562541E-003  0.5625085E+03  0.7818608E-02  0.9986395E-01
         21   -1    0    0  503  502  0.00000000000E+00  0.00000000000E+00  0.12931442276E+04  0.12931442276E+04  0.00000000000E+00 0. -1.
         21   -1    0    0  501  503 -0.00000000000E+00 -0.00000000000E+00 -0.24599790126E+03  0.24599790126E+03  0.00000000000E+00 0. -1.
    9000005    1    1    2  501    0  0.18279606899E+03  0.35071552661E+03  0.57974804476E+03  0.80778931588E+03  0.40000000000E+03 0. -1.
   -9000005    1    1    2    0  502 -0.18279606899E+03 -0.35071552661E+03  0.46739828162E+03  0.73135281302E+03  0.40000000000E+03 0. -1.
<mgrwt>
<rscale>  2 0.56250847E+03</rscale>
<asrwt>0</asrwt>
<pdfrwt beam="1">  1       21 0.19894526E+00 0.56250847E+03</pdfrwt>
<pdfrwt beam="2">  1       21 0.37845832E-01 0.56250847E+03</pdfrwt>
<totfact> 0.72754022E+02</totfact>
</mgrwt>
</event>
<event>
 4    1  0.8562541E-003  0.5845948E+03  0.7818608E-02  0.9937893E-01
         21   -1    0    0  503  502  0.00000000000E+00  0.00000000000E+00  0.37722773655E+03  0.37722773655E+03  0.00000000000E+00 0.  1.
         21   -1    0    0  501  503 -0.00000000000E+00 -0.00000000000E+00 -0.12681408574E+04  0.12681408574E+04  0.00000000000E+00 0.  1.
    9000005    1    1    2  501    0 -0.35230002882E+03 -0.24007444220E+03 -0.88511527983E+03  0.10607450715E+04  0.40000000000E+03 0.  1.
   -9000005    1    1    2    0  502  0.35230002882E+03  0.24007444220E+03 -0.57978410682E+01  0.58462352251E+03  0.40000000000E+03 0.  1.
<mgrwt>
<rscale>  2 0.58459477E+03</rscale>
<asrwt>0</asrwt>
<pdfrwt beam="1">  1       21 0.58035037E-01 0.58459477E+03</pdfrwt>
<pdfrwt beam="2">  1       21 0.19509859E+00 0.58459477E+03</pdfrwt>
<totfact> 0.30960076E+02</totfact>
</mgrwt>
</event>
<event>
 4    1  0.8562541E-003  0.4141021E+03  0.7818608E-02  0.1039003E+00
         21   -1    0    0  503  502  0.00000000000E+00  0.00000000000E+00  0.22789105260E+03  0.22789105260E+03  0.00000000000E+00 0. -1.
         21   -1    0    0  501  503 -0.00000000000E+00 -0.00000000000E+00 -0.75778652350E+03  0.75778652350E+03  0.00000000000E+00 0. -1.
    9000005    1    1    2  501    0 -0.10474600316E+03  0.22557988863E+02 -0.22365711176E+03  0.47064114958E+03  0.40000000000E+03 0. -1.
   -9000005    1    1    2    0  502  0.10474600316E+03 -0.22557988863E+02 -0.30623835914E+03  0.51503642652E+03  0.40000000000E+03 0. -1.
<mgrwt>
<rscale>  2 0.41410215E+03</rscale>
<asrwt>0</asrwt>
<pdfrwt beam="1">  1       21 0.35060162E-01 0.41410215E+03</pdfrwt>
<pdfrwt beam="2">  1       21 0.11658254E+00 0.41410215E+03</pdfrwt>
<totfact> 0.39293659E+03</totfact>
</mgrwt>
</event>
<event>
 4    1  0.8562541E-003  0.4732404E+03  0.7818608E-02  0.1021010E+00
         21   -1    0    0  501  502  0.00000000000E+00  0.00000000000E+00  0.40691000307E+03  0.40691000307E+03  0.00000000000E+00 0. -1.
         21   -1    0    0  502  503 -0.00000000000E+00 -0.00000000000E+00 -0.58555889182E+03  0.58555889182E+03  0.00000000000E+00 0.  1.
    9000005    1    1    2  501    0 -0.16013770014E+03  0.19573551714E+03  0.32300384849E+02  0.47434142823E+03  0.40000000000E+03 0. -1.
   -9000005    1    1    2    0  503  0.16013770014E+03 -0.19573551714E+03 -0.21094927360E+03  0.51812746666E+03  0.40000000000E+03 0. -1.
<mgrwt>
<rscale>  2 0.47324040E+03</rscale>
<asrwt>0</asrwt>
<pdfrwt beam="1">  1       21 0.62601539E-01 0.47324040E+03</pdfrwt>
<pdfrwt beam="2">  1       21 0.90085983E-01 0.47324040E+03</pdfrwt>
<totfact> 0.21245039E+03</totfact>
</mgrwt>
</event>
<event>
 4    1  0.8562541E-003  0.4250957E+03  0.7818608E-02  0.1035420E+00
         21   -1    0    0  503  502  0.00000000000E+00  0.00000000000E+00  0.55162713482E+03  0.55162713482E+03  0.00000000000E+00 0. -1.
         21   -1    0    0  501  503 -0.00000000000E+00 -0.00000000000E+00 -0.33914757313E+03  0.33914757313E+03  0.00000000000E+00 0. -1.
    9000005    1    1    2  501    0 -0.47416716446E+02 -0.13586023071E+03  0.24012252750E+02  0.42577333826E+03  0.40000000000E+03 0.  1.
   -9000005    1    1    2    0  502  0.47416716446E+02  0.13586023071E+03  0.18846730894E+03  0.46500136970E+03  0.40000000000E+03 0.  1.
<mgrwt>
<rscale>  2 0.42509569E+03</rscale>
<asrwt>0</asrwt>
<pdfrwt beam="1">  1       21 0.84865713E-01 0.42509569E+03</pdfrwt>
<pdfrwt beam="2">  1       21 0.52176550E-01 0.42509569E+03</pdfrwt>
<totfact> 0.36960347E+03</totfact>
</mgrwt>
</event>
<event>
 4    1  0.8562541E-003  0.4892451E+03  0.7818608E-02  0.1016625E+00
         21   -1    0    0  501  502  0.00000000000E+00  0.00000000000E+00  0.45233653843E+03  0.45233653843E+03  0.00000000000E+00 0.  1.
         21   -1    0    0  502  503 -0.00000000000E+00 -0.00000000000E+00 -0.55879790181E+03  0.55879790181E+03  0.00000000000E+00 0.  1.
    9000005    1    1    2  501    0  0.23552842727E+03  0.15455457373E+03  0.63191873124E+02  0.49330920237E+03  0.40000000000E+03 0.  1.
   -9000005    1    1    2    0  503 -0.23552842727E+03 -0.15455457373E+03 -0.16965323651E+03  0.51782523787E+03  0.40000000000E+03 0.  1.
<mgrwt>
<rscale>  2 0.48924509E+03</rscale>
<asrwt>0</asrwt>
<pdfrwt beam="1">  1       21 0.69590237E-01 0.48924509E+03</pdfrwt>
<pdfrwt beam="2">  1       21 0.85968908E-01 0.48924509E+03</pdfrwt>
<totfact> 0.18629071E+03</totfact>
</mgrwt>
</event>
<event>
 4    1  0.8562541E-003  0.4147581E+03  0.7818608E-02  0.1038786E+00
         21   -1    0    0  501  502  0.00000000000E+00  0.00000000000E+00  0.34951496620E+03  0.34951496620E+03  0.00000000000E+00 0.  1.
         21   -1    0    0  502  503 -0.00000000000E+00 -0.00000000000E+00 -0.67689247345E+03  0.67689247345E+03  0.00000000000E+00 0.  1.
    9000005    1    1    2  501    0 -0.82812350581E+02 -0.71877360370E+02  0.10439974660E+03  0.42769562475E+03  0.40000000000E+03 0.  1.
   -9000005    1    1    2    0  503  0.82812350581E+02  0.71877360370E+02 -0.43177725385E+03  0.59871181489E+03  0.40000000000E+03 0.  1.
<mgrwt>
<rscale>  2 0.41475805E+03</rscale>
<asrwt>0</asrwt>
<pdfrwt beam="1">  1       21 0.53771534E-01 0.41475805E+03</pdfrwt>
<pdfrwt beam="2">  1       21 0.10413730E+00 0.41475805E+03</pdfrwt>
<totfact> 0.21332286E+03</totfact>
</mgrwt>
</event>
<event>
 4    1  0.8562541E-003  0.4603684E+03  0.7818608E-02  0.1024674E+00
         21   -1    0    0  501  502  0.00000000000E+00  0.00000000000E+00  0.10066334955E+04  0.10066334955E+04  0.00000000000E+00 0. -1.
         21   -1    0    0  502  503 -0.00000000000E+00 -0.00000000000E+00 -0.25562926134E+03  0.25562926134E+03  0.00000000000E+00 0. -1.
    9000005    1    1    2  501    0 -0.13502918510E+02 -0.22750103552E+03  0.64055919538E+03  0.78883149833E+03  0.40000000000E+03 0. -1.
   -9000005    1    1    2    0  503  0.13502918510E+02  0.22750103552E+03  0.11044503883E+03  0.47343125855E+03  0.40000000000E+03 0. -1.
<mgrwt>
<rscale>  2 0.46036839E+03</rscale>
<asrwt>0</asrwt>
<pdfrwt beam="1">  1       21 0.15486669E+00 0.46036839E+03</pdfrwt>
<pdfrwt beam="2">  1       21 0.39327579E-01 0.46036839E+03</pdfrwt>
<totfact> 0.14493870E+03</totfact>
</mgrwt>
</event>
<event>
 4    1  0.8562541E-003  0.5768696E+03  0.7818608E-02  0.9954591E-01
         21   -1    0    0  501  502  0.00000000000E+00  0.00000000000E+00  0.21000919211E+03  0.21000919211E+03  0.00000000000E+00 0. -1.
         21   -1    0    0  502  503 -0.00000000000E+00 -0.00000000000E+00 -0.16721766361E+04  0.16721766361E+04  0.00000000000E+00 0. -1.
    9000005    1    1    2  501    0  0.41560226014E+03 -0.73006741512E+01 -0.51570167881E+03  0.77377435987E+03  0.40000000000E+03 0. -1.
   -9000005    1    1    2    0  503 -0.41560226014E+03  0.73006741512E+01 -0.94646576521E+03  0.11084114684E+04  0.40000000000E+03 0. -1.
<mgrwt>
<rscale>  2 0.57686960E+03</rscale>
<asrwt>0</asrwt>
<pdfrwt beam="1">  1       21 0.32309107E-01 0.57686960E+03</pdfrwt>
<pdfrwt beam="2">  1       21 0.25725794E+00 0.57686960E+03</pdfrwt>
<totfact> 0.42232675E+02</totfact>
</mgrwt>
</event>
<event>
 4    1  0.8562541E-003  0.4485265E+03  0.7818608E-02  0.1028162E+00
         21   -1    0    0  501  502  0.00000000000E+00  0.00000000000E+00  0.89884628833E+03  0.89884628833E+03  0.00000000000E+00 0.  1.
         21   -1    0    0  502  503 -0.00000000000E+00 -0.00000000000E+00 -0.22881112944E+03  0.22881112944E+03  0.00000000000E+00 0.  1.
    9000005    1    1    2  501    0 -0.20211876272E+03  0.18000380642E+02  0.41832627789E+03  0.61332934278E+03  0.40000000000E+03 0.  1.
   -9000005    1    1    2    0  503  0.20211876272E+03 -0.18000380642E+02  0.25170888101E+03  0.51432807499E+03  0.40000000000E+03 0.  1.
<mgrwt>
<rscale>  2 0.44852649E+03</rscale>
<asrwt>0</asrwt>
<pdfrwt beam="1">  1       21 0.13828404E+00 0.44852649E+03</pdfrwt>
<pdfrwt beam="2">  1       21 0.35201713E-01 0.44852649E+03</pdfrwt>
<totfact> 0.24777438E+03</totfact>
</mgrwt>
</event>
<event>
 4    1  0.8562541E-003  0.5652052E+03  0.7818608E-02  0.9980345E-01
         21   -1    0    0  503  502  0.00000000000E+00  0.00000000000E+00  0.84471542616E+03  0.84471542616E+03  0.00000000000E+00 0.  1.
         21   -1    0    0  501  503 -0.00000000000E+00 -0.00000000000E+00 -0.43505781924E+03  0.43505781924E+03  0.00000000000E+00 0. -1.
    9000005    1    1    2  501    0 -0.39277109439E+03 -0.72025900620E+02  0.43618984952E+03  0.71394568965E+03  0.40000000000E+03 0.  1.
   -9000005    1    1    2    0  502  0.39277109439E+03  0.72025900620E+02 -0.26532242599E+02  0.56582755575E+03  0.40000000000E+03 0. -1.
<mgrwt>
<rscale>  2 0.56520515E+03</rscale>
<asrwt>0</asrwt>
<pdfrwt beam="1">  1       21 0.12995622E+00 0.56520515E+03</pdfrwt>
<pdfrwt beam="2">  1       21 0.66931972E-01 0.56520515E+03</pdfrwt>
<totfact> 0.71285292E+02</totfact>
</mgrwt>
</event>
<event>
 4    1  0.8562541E-003  0.4757502E+03  0.7818608E-02  0.1020310E+00
         21   -1    0    0  501  502  0.00000000000E+00  0.00000000000E+00  0.86386653870E+03  0.86386653870E+03  0.00000000000E+00 0. -1.
         21   -1    0    0  502  503 -0.00000000000E+00 -0.00000000000E+00 -0.26201060042E+03  0.26201060042E+03  0.00000000000E+00 0. -1.
    9000005    1    1    2  501    0  0.25241340190E+03  0.51242305943E+02  0.29859389257E+03  0.56169085097E+03  0.40000000000E+03 0. -1.
   -9000005    1    1    2    0  503 -0.25241340190E+03 -0.51242305943E+02  0.30326204571E+03  0.56418628816E+03  0.40000000000E+03 0. -1.
<mgrwt>
<rscale>  2 0.47575025E+03</rscale>
<asrwt>0</asrwt>
<pdfrwt beam="1">  1       21 0.13290254E+00 0.47575025E+03</pdfrwt>
<pdfrwt beam="2">  1       21 0.40309324E-01 0.47575025E+03</pdfrwt>
<totfact> 0.20636927E+03</totfact>
</mgrwt>
</event>
<event>
 4    1  0.8562541E-003  0.5320695E+03  0.7818608E-02  0.1005731E+00
         21   -1    0    0  501  502  0.00000000000E+00  0.00000000000E+00  0.84288502572E+03  0.84288502572E+03  0.00000000000E+00 0. -1.
         21   -1    0    0  502  503 -0.00000000000E+00 -0.00000000000E+00 -0.34680820235E+03  0.34680820235E+03  0.00000000000E+00 0.  1.
    9000005    1    1    2  501    0  0.16968038360E+03 -0.30709366389E+03  0.35369015905E+03  0.63890115009E+03  0.40000000000E+03 0. -1.
   -9000005    1    1    2    0  503 -0.16968038360E+03  0.30709366389E+03  0.14238666432E+03  0.55079207797E+03  0.40000000000E+03 0. -1.
<mgrwt>
<rscale>  2 0.53206950E+03</rscale>
<asrwt>0</asrwt>
<pdfrwt beam="1">  1       21 0.12967462E+00 0.53206950E+03</pdfrwt>
<pdfrwt beam="2">  1       21 0.53355108E-01 0.53206950E+03</pdfrwt>
<totfact> 0.11939661E+03</totfact>
</mgrwt>
</event>
<event>
 4    1  0.8562541E-003  0.6395985E+03  0.7818608E-02  0.9826495E-01
         21   -1    0    0  503  502  0.00000000000E+00  0.00000000000E+00  0.52196924485E+03  0.52196924485E+03  0.00000000000E+00 0.  1.
         21   -1    0    0  501  503 -0.00000000000E+00 -0.00000000000E+00 -0.82842402631E+03  0.82842402631E+03  0.00000000000E+00 0.  1.
    9000005    1    1    2  501    0 -0.45885133448E+03 -0.19632023119E+03 -0.31004638160E+03  0.71078473469E+03  0.40000000000E+03 0.  1.
   -9000005    1    1    2    0  502  0.45885133448E+03  0.19632023119E+03  0.35916001429E+01  0.63960853647E+03  0.40000000000E+03 0.  1.
<mgrwt>
<rscale>  2 0.63959845E+03</rscale>
<asrwt>0</asrwt>
<pdfrwt beam="1">  1       21 0.80302961E-01 0.63959845E+03</pdfrwt>
<pdfrwt beam="2">  1       21 0.12744985E+00 0.63959845E+03</pdfrwt>
<totfact> 0.48268873E+02</totfact>
</mgrwt>
</event>
<event>
 4    1  0.8562541E-003  0.4579946E+03  0.7818608E-02  0.1025364E+00
         21   -1    0    0  501  502  0.00000000000E+00  0.00000000000E+00  0.47246605314E+03  0.47246605314E+03  0.00000000000E+00 0. -1.
         21   -1    0    0  502  503 -0.00000000000E+00 -0.00000000000E+00 -0.70370639279E+03  0.70370639279E+03  0.00000000000E+00 0. -1.
    9000005    1    1    2  501    0 -0.18310676592E+03  0.12740070690E+03  0.24166477243E+03  0.51784253406E+03  0.40000000000E+03 0. -1.
   -9000005    1    1    2    0  503  0.18310676592E+03 -0.12740070690E+03 -0.47290511208E+03  0.65832991188E+03  0.40000000000E+03 0. -1.
<mgrwt>
<rscale>  2 0.45799457E+03</rscale>
<asrwt>0</asrwt>
<pdfrwt beam="1">  1       21 0.72687085E-01 0.45799457E+03</pdfrwt>
<pdfrwt beam="2">  1       21 0.10826252E+00 0.45799457E+03</pdfrwt>
<totfact> 0.97950194E+02</totfact>
</mgrwt>
</event>
<event>
 4    1  0.8562541E-003  0.5557112E+03  0.7818608E-02  0.1000181E+00
         21   -1    0    0  503  502  0.00000000000E+00  0.00000000000E+00  0.42400860497E+03  0.42400860497E+03  0.00000000000E+00 0. -1.
         21   -1    0    0  501  503 -0.00000000000E+00 -0.00000000000E+00 -0.76556481455E+03  0.76556481455E+03  0.00000000000E+00 0. -1.
    9000005    1    1    2  501    0 -0.18282330948E+03  0.33969183924E+03 -0.30196485309E+03  0.63245369841E+03  0.40000000000E+03 0. -1.
   -9000005    1    1    2    0  502  0.18282330948E+03 -0.33969183924E+03 -0.39591356484E+02  0.55711972110E+03  0.40000000000E+03 0. -1.
<mgrwt>
<rscale>  2 0.55571117E+03</rscale>
<asrwt>0</asrwt>
<pdfrwt beam="1">  1       21 0.65232095E-01 0.55571117E+03</pdfrwt>
<pdfrwt beam="2">  1       21 0.11777920E+00 0.55571117E+03</pdfrwt>
<totfact> 0.97655408E+02</totfact>
</mgrwt>
</event>
<event>
 4    1  0.8562541E-003  0.6259124E+03  0.7818608E-02  0.9853058E-01
         21   -1    0    0  503  502  0.00000000000E+00  0.00000000000E+00  0.99788747432E+03  0.99788747432E+03  0.00000000000E+00 0.  1.
         21   -1    0    0  501  503 -0.00000000000E+00 -0.00000000000E+00 -0.41583238377E+03  0.41583238377E+03  0.00000000000E+00 0. -1.
    9000005    1    1    2  501    0  0.45723437289E+03 -0.15067555646E+03  0.45812148060E+03  0.77565564915E+03  0.40000000000E+03 0.  1.
   -9000005    1    1    2    0  502 -0.45723437289E+03  0.15067555646E+03  0.12393360994E+03  0.63806420895E+03  0.40000000000E+03 0. -1.
<mgrwt>
<rscale>  2 0.62591245E+03</rscale>
<asrwt>0</asrwt>
<pdfrwt beam="1">  1       21 0.15352115E+00 0.62591245E+03</pdfrwt>
<pdfrwt beam="2">  1       21 0.63974213E-01 0.62591245E+03</pdfrwt>
<totfact> 0.49387088E+02</totfact>
</mgrwt>
</event>
<event>
 4    1  0.8562541E-003  0.4617575E+03  0.7818608E-02  0.1024273E+00
         21   -1    0    0  501  502  0.00000000000E+00  0.00000000000E+00  0.34404585810E+03  0.34404585810E+03  0.00000000000E+00 0. -1.
         21   -1    0    0  502  503 -0.00000000000E+00 -0.00000000000E+00 -0.61989078850E+03  0.61989078850E+03  0.00000000000E+00 0. -1.
    9000005    1    1    2  501    0  0.13406082395E+03 -0.18774377066E+03 -0.14536317113E+03  0.48409759291E+03  0.40000000000E+03 0. -1.
   -9000005    1    1    2    0  503 -0.13406082395E+03  0.18774377066E+03 -0.13048175927E+03  0.47983905369E+03  0.40000000000E+03 0. -1.
<mgrwt>
<rscale>  2 0.46175754E+03</rscale>
<asrwt>0</asrwt>
<pdfrwt beam="1">  1       21 0.52930133E-01 0.46175754E+03</pdfrwt>
<pdfrwt beam="2">  1       21 0.95367812E-01 0.46175754E+03</pdfrwt>
<totfact> 0.26835960E+03</totfact>
</mgrwt>
</event>
<event>
 4    1  0.8562541E-003  0.4340360E+03  0.7818608E-02  0.1032593E+00
         21   -1    0    0  501  502  0.00000000000E+00  0.00000000000E+00  0.55031531559E+03  0.55031531559E+03  0.00000000000E+00 0. -1.
         21   -1    0    0  502  503 -0.00000000000E+00 -0.00000000000E+00 -0.34243918813E+03  0.34243918813E+03  0.00000000000E+00 0. -1.
    9000005    1    1    2  501    0 -0.10169019549E+03  0.13433686844E+03  0.95825864057E+02  0.44448834215E+03  0.40000000000E+03 0. -1.
   -9000005    1    1    2    0  503  0.10169019549E+03 -0.13433686844E+03  0.11205026340E+03  0.44826616157E+03  0.40000000000E+03 0. -1.
<mgrwt>
<rscale>  2 0.43403605E+03</rscale>
<asrwt>0</asrwt>
<pdfrwt beam="1">  1       21 0.84663895E-01 0.43403605E+03</pdfrwt>
<pdfrwt beam="2">  1       21 0.52682952E-01 0.43403605E+03</pdfrwt>
<totfact> 0.36288861E+03</totfact>
</mgrwt>
</event>
<event>
 4    1  0.8562541E-003  0.5420762E+03  0.7818608E-02  0.1003345E+00
         21   -1    0    0  501  502  0.00000000000E+00  0.00000000000E+00  0.89179197968E+02  0.89179197968E+02  0.00000000000E+00 0.  1.
         21   -1    0    0  502  503 -0.00000000000E+00 -0.00000000000E+00 -0.34244423461E+04  0.34244423461E+04  0.00000000000E+00 0. -1.
    9000005    1    1    2  501    0 -0.17080133408E+03 -0.32353294207E+03 -0.20091747502E+04  0.20810165394E+04  0.40000000000E+03 0. -1.
   -9000005    1    1    2    0  503  0.17080133408E+03  0.32353294207E+03 -0.13260883979E+04  0.14326050047E+04  0.40000000000E+03 0.  1.
<mgrwt>
<rscale>  2 0.54207625E+03</rscale>
<asrwt>0</asrwt>
<pdfrwt beam="1">  1       21 0.13719876E-01 0.54207625E+03</pdfrwt>
<pdfrwt beam="2">  1       21 0.52683731E+00 0.54207625E+03</pdfrwt>
<totfact> 0.39119441E+01</totfact>
</mgrwt>
</event>
<event>
 4    1  0.8562541E-003  0.4668983E+03  0.7818608E-02  0.1022799E+00
         21   -1    0    0  503  502  0.00000000000E+00  0.00000000000E+00  0.40564744381E+03  0.40564744381E+03  0.00000000000E+00 0.  1.
         21   -1    0    0  501  503 -0.00000000000E+00 -0.00000000000E+00 -0.61328911381E+03  0.61328911381E+03  0.00000000000E+00 0. -1.
    9000005    1    1    2  501    0 -0.46768235606E+02 -0.23623456930E+03 -0.28303840586E+03  0.54598972407E+03  0.40000000000E+03 0. -1.
   -9000005    1    1    2    0  502  0.46768235606E+02  0.23623456930E+03  0.75396735855E+02  0.47294683356E+03  0.40000000000E+03 0. -1.
<mgrwt>
<rscale>  2 0.46689832E+03</rscale>
<asrwt>0</asrwt>
<pdfrwt beam="1">  1       21 0.62407299E-01 0.46689832E+03</pdfrwt>
<pdfrwt beam="2">  1       21 0.94352171E-01 0.46689832E+03</pdfrwt>
<totfact> 0.19201438E+03</totfact>
</mgrwt>
</event>
<event>
 4    1  0.8562541E-003  0.4573374E+03  0.7818608E-02  0.1025556E+00
         21   -1    0    0  503  502  0.00000000000E+00  0.00000000000E+00  0.10566804276E+04  0.10566804276E+04  0.00000000000E+00 0.  1.
         21   -1    0    0  501  503 -0.00000000000E+00 -0.00000000000E+00 -0.19793970936E+03  0.19793970936E+03  0.00000000000E+00 0. -1.
    9000005    1    1    2  501    0  0.15056214046E+03 -0.16275292907E+03  0.42766670967E+03  0.62614398394E+03  0.40000000000E+03 0. -1.
   -9000005    1    1    2    0  502 -0.15056214046E+03  0.16275292907E+03  0.43107400858E+03  0.62847615303E+03  0.40000000000E+03 0.  1.
<mgrwt>
<rscale>  2 0.45733737E+03</rscale>
<asrwt>0</asrwt>
<pdfrwt beam="1">  1       21 0.16256622E+00 0.45733737E+03</pdfrwt>
<pdfrwt beam="2">  1       21 0.30452264E-01 0.45733737E+03</pdfrwt>
<totfact> 0.21268958E+03</totfact>
</mgrwt>
</event>
<event>
 4    1  0.8562541E-003  0.4297192E+03  0.7818608E-02  0.1033949E+00
         21   -1    0    0  501  502  0.00000000000E+00  0.00000000000E+00  0.40630363781E+03  0.40630363781E+03  0.00000000000E+00 0.  1.
         21   -1    0    0  502  503 -0.00000000000E+00 -0.00000000000E+00 -0.97064925544E+03  0.97064925544E+03  0.00000000000E+00 0.  1.
    9000005    1    1    2  501    0  0.10746056941E+03 -0.11450240507E+03  0.21988327414E+03  0.48270822346E+03  0.40000000000E+03 0.  1.
   -9000005    1    1    2    0  503 -0.10746056941E+03  0.11450240507E+03 -0.78422889178E+03  0.89424466979E+03  0.40000000000E+03 0.  1.
<mgrwt>
<rscale>  2 0.42971918E+03</rscale>
<asrwt>0</asrwt>
<pdfrwt beam="1">  1       21 0.62508253E-01 0.42971918E+03</pdfrwt>
<pdfrwt beam="2">  1       21 0.14933065E+00 0.42971918E+03</pdfrwt>
<totfact> 0.60560595E+02</totfact>
</mgrwt>
</event>
<event>
 4    1  0.8562541E-003  0.4482569E+03  0.7818608E-02  0.1028243E+00
         21   -1    0    0  501  502  0.00000000000E+00  0.00000000000E+00  0.65416406258E+03  0.65416406258E+03  0.00000000000E+00 0.  1.
         21   -1    0    0  502  503 -0.00000000000E+00 -0.00000000000E+00 -0.46362072590E+03  0.46362072590E+03  0.00000000000E+00 0.  1.
    9000005    1    1    2  501    0  0.12434414488E+03 -0.15960191937E+03  0.41994520430E+03  0.61423791290E+03  0.40000000000E+03 0.  1.
   -9000005    1    1    2    0  503 -0.12434414488E+03  0.15960191937E+03 -0.22940186762E+03  0.50354687557E+03  0.40000000000E+03 0.  1.
<mgrwt>
<rscale>  2 0.44825689E+03</rscale>
<asrwt>0</asrwt>
<pdfrwt beam="1">  1       21 0.10064063E+00 0.44825689E+03</pdfrwt>
<pdfrwt beam="2">  1       21 0.71326265E-01 0.44825689E+03</pdfrwt>
<totfact> 0.12281570E+03</totfact>
</mgrwt>
</event>
<event>
 4    1  0.8562541E-003  0.4777892E+03  0.7818608E-02  0.1019745E+00
         21   -1    0    0  503  502  0.00000000000E+00  0.00000000000E+00  0.20664331409E+03  0.20664331409E+03  0.00000000000E+00 0.  1.
         21   -1    0    0  501  503 -0.00000000000E+00 -0.00000000000E+00 -0.11910577561E+04  0.11910577561E+04  0.00000000000E+00 0.  1.
    9000005    1    1    2  501    0 -0.26025100472E+03  0.23493517385E+02 -0.30404865092E+03  0.56632862628E+03  0.40000000000E+03 0.  1.
   -9000005    1    1    2    0  502  0.26025100472E+03 -0.23493517385E+02 -0.68036579108E+03  0.83137244391E+03  0.40000000000E+03 0.  1.
<mgrwt>
<rscale>  2 0.47778921E+03</rscale>
<asrwt>0</asrwt>
<pdfrwt beam="1">  1       21 0.31791279E-01 0.47778921E+03</pdfrwt>
<pdfrwt beam="2">  1       21 0.18323966E+00 0.47778921E+03</pdfrwt>
<totfact> 0.13722797E+03</totfact>
</mgrwt>
</event>
<event>
 4    1  0.8562541E-003  0.4786597E+03  0.7818608E-02  0.1019504E+00
         21   -1    0    0  501  502  0.00000000000E+00  0.00000000000E+00  0.58045534908E+03  0.58045534908E+03  0.00000000000E+00 0.  1.
         21   -1    0    0  502  503 -0.00000000000E+00 -0.00000000000E+00 -0.39529351493E+03  0.39529351493E+03  0.00000000000E+00 0.  1.
    9000005    1    1    2  501    0 -0.26137169405E+03 -0.28283205097E+02  0.11122634852E+03  0.49141266035E+03  0.40000000000E+03 0.  1.
   -9000005    1    1    2    0  503  0.26137169405E+03  0.28283205097E+02  0.73935485635E+02  0.48433620366E+03  0.40000000000E+03 0.  1.
<mgrwt>
<rscale>  2 0.47865969E+03</rscale>
<asrwt>0</asrwt>
<pdfrwt beam="1">  1       21 0.89300823E-01 0.47865969E+03</pdfrwt>
<pdfrwt beam="2">  1       21 0.60814387E-01 0.47865969E+03</pdfrwt>
<totfact> 0.23076903E+03</totfact>
</mgrwt>
</event>
<event>
 4    1  0.8562541E-003  0.4000995E+03  0.7818608E-02  0.1043745E+00
         21   -1    0    0  501  502  0.00000000000E+00  0.00000000000E+00  0.23163903986E+03  0.23163903986E+03  0.00000000000E+00 0.  1.
         21   -1    0    0  502  503 -0.00000000000E+00 -0.00000000000E+00 -0.69148775789E+03  0.69148775789E+03  0.00000000000E+00 0.  1.
    9000005    1    1    2  501    0  0.13331799509E+01  0.88225352413E+01 -0.21862779781E+03  0.45593610130E+03  0.40000000000E+03 0.  1.
   -9000005    1    1    2    0  503 -0.13331799509E+01 -0.88225352413E+01 -0.24122092021E+03  0.46719069644E+03  0.40000000000E+03 0.  1.
<mgrwt>
<rscale>  2 0.40009951E+03</rscale>
<asrwt>0</asrwt>
<pdfrwt beam="1">  1       21 0.35636776E-01 0.40009951E+03</pdfrwt>
<pdfrwt beam="2">  1       21 0.10638273E+00 0.40009951E+03</pdfrwt>
<totfact> 0.47967366E+03</totfact>
</mgrwt>
</event>
<event>
 4    1  0.8562541E-003  0.5243286E+03  0.7818608E-02  0.1007617E+00
         21   -1    0    0  503  502  0.00000000000E+00  0.00000000000E+00  0.28776554803E+03  0.28776554803E+03  0.00000000000E+00 0. -1.
         21   -1    0    0  501  503 -0.00000000000E+00 -0.00000000000E+00 -0.15985992287E+04  0.15985992287E+04  0.00000000000E+00 0. -1.
    9000005    1    1    2  501    0 -0.83702139374E+02  0.32850331878E+03 -0.12537061240E+04  0.13589332302E+04  0.40000000000E+03 0. -1.
   -9000005    1    1    2    0  502  0.83702139374E+02 -0.32850331878E+03 -0.57127556623E+02  0.52743154657E+03  0.40000000000E+03 0. -1.
<mgrwt>
<rscale>  2 0.52432860E+03</rscale>
<asrwt>0</asrwt>
<pdfrwt beam="1">  1       21 0.44271622E-01 0.52432860E+03</pdfrwt>
<pdfrwt beam="2">  1       21 0.24593835E+00 0.52432860E+03</pdfrwt>
<totfact> 0.26597862E+02</totfact>
</mgrwt>
</event>
<event>
 4    1  0.8562541E-003  0.5568181E+03  0.7818608E-02  0.9999280E-01
         21   -1    0    0  503  502  0.00000000000E+00  0.00000000000E+00  0.36716719565E+03  0.36716719565E+03  0.00000000000E+00 0. -1.
         21   -1    0    0  501  503 -0.00000000000E+00 -0.00000000000E+00 -0.92262254304E+03  0.92262254304E+03  0.00000000000E+00 0. -1.
    9000005    1    1    2  501    0  0.38019015393E+03 -0.74174326466E+02 -0.89984488195E+02  0.56404218988E+03  0.40000000000E+03 0. -1.
   -9000005    1    1    2    0  502 -0.38019015393E+03  0.74174326466E+02 -0.46547085919E+03  0.72574754881E+03  0.40000000000E+03 0. -1.
<mgrwt>
<rscale>  2 0.55681809E+03</rscale>
<asrwt>0</asrwt>
<pdfrwt beam="1">  1       21 0.56487262E-01 0.55681809E+03</pdfrwt>
<pdfrwt beam="2">  1       21 0.14194193E+00 0.55681809E+03</pdfrwt>
<totfact> 0.82369433E+02</totfact>
</mgrwt>
</event>
<event>
 4    1  0.8562541E-003  0.4480703E+03  0.7818608E-02  0.1028299E+00
         21   -1    0    0  503  502  0.00000000000E+00  0.00000000000E+00  0.20926377305E+03  0.20926377305E+03  0.00000000000E+00 0.  1.
         21   -1    0    0  501  503 -0.00000000000E+00 -0.00000000000E+00 -0.10051927840E+04  0.10051927840E+04  0.00000000000E+00 0. -1.
    9000005    1    1    2  501    0  0.18846286772E+03  0.72448311739E+02 -0.26835387043E+03  0.52228422354E+03  0.40000000000E+03 0.  1.
   -9000005    1    1    2    0  502 -0.18846286772E+03 -0.72448311739E+02 -0.52757514050E+03  0.69217233350E+03  0.40000000000E+03 0.  1.
<mgrwt>
<rscale>  2 0.44807032E+03</rscale>
<asrwt>0</asrwt>
<pdfrwt beam="1">  1       21 0.32194427E-01 0.44807032E+03</pdfrwt>
<pdfrwt beam="2">  1       21 0.15464504E+00 0.44807032E+03</pdfrwt>
<totfact> 0.21945640E+03</totfact>
</mgrwt>
</event>
<event>
 4    1  0.8562541E-003  0.5400999E+03  0.7818608E-02  0.1003812E+00
         21   -1    0    0  501  502  0.00000000000E+00  0.00000000000E+00  0.48954101162E+03  0.48954101162E+03  0.00000000000E+00 0. -1.
         21   -1    0    0  502  503 -0.00000000000E+00 -0.00000000000E+00 -0.68248293527E+03  0.68248293527E+03  0.00000000000E+00 0.  1.
    9000005    1    1    2  501    0  0.35954920178E+03  0.49318154026E+02  0.11227871773E+03  0.55164700604E+03  0.40000000000E+03 0.  1.
   -9000005    1    1    2    0  503 -0.35954920178E+03 -0.49318154026E+02 -0.30522064138E+03  0.62037694085E+03  0.40000000000E+03 0. -1.
<mgrwt>
<rscale>  2 0.54009991E+03</rscale>
<asrwt>0</asrwt>
<pdfrwt beam="1">  1       21 0.75314002E-01 0.54009991E+03</pdfrwt>
<pdfrwt beam="2">  1       21 0.10499737E+00 0.54009991E+03</pdfrwt>
<totfact> 0.94505252E+02</totfact>
</mgrwt>
</event>
<event>
 4    1  0.8562541E-003  0.4451924E+03  0.7818608E-02  0.1029165E+00
         21   -1    0    0  501  502  0.00000000000E+00  0.00000000000E+00  0.24427113667E+03  0.24427113667E+03  0.00000000000E+00 0.  1.
         21   -1    0    0  502  503 -0.00000000000E+00 -0.00000000000E+00 -0.81154458266E+03  0.81154458266E+03  0.00000000000E+00 0.  1.
    9000005    1    1    2  501    0 -0.14858080641E+03 -0.12696451545E+03 -0.27607498995E+03  0.52384505753E+03  0.40000000000E+03 0.  1.
   -9000005    1    1    2    0  503  0.14858080641E+03  0.12696451545E+03 -0.29119845603E+03  0.53197066180E+03  0.40000000000E+03 0.  1.
<mgrwt>
<rscale>  2 0.44519237E+03</rscale>
<asrwt>0</asrwt>
<pdfrwt beam="1">  1       21 0.37580175E-01 0.44519237E+03</pdfrwt>
<pdfrwt beam="2">  1       21 0.12485301E+00 0.44519237E+03</pdfrwt>
<totfact> 0.28337811E+03</totfact>
</mgrwt>
</event>
<event>
 4    1  0.8562541E-003  0.4676747E+03  0.7818608E-02  0.1022579E+00
         21   -1    0    0  503  502  0.00000000000E+00  0.00000000000E+00  0.23538388900E+04  0.23538388900E+04  0.00000000000E+00 0.  1.
         21   -1    0    0  501  503 -0.00000000000E+00 -0.00000000000E+00 -0.11963423000E+03  0.11963423000E+03  0.00000000000E+00 0.  1.
    9000005    1    1    2  501    0 -0.24232129214E+03 -0.16000234989E+00  0.53269237178E+03  0.70885879918E+03  0.40000000000E+03 0.  1.
   -9000005    1    1    2    0  502  0.24232129214E+03  0.16000234989E+00  0.17015122882E+04  0.17646143208E+04  0.40000000000E+03 0.  1.
<mgrwt>
<rscale>  2 0.46767471E+03</rscale>
<asrwt>0</asrwt>
<pdfrwt beam="1">  1       21 0.36212903E+00 0.46767471E+03</pdfrwt>
<pdfrwt beam="2">  1       21 0.18405268E-01 0.46767471E+03</pdfrwt>
<totfact> 0.30616473E+02</totfact>
</mgrwt>
</event>
<event>
 4    1  0.8562541E-003  0.4961290E+03  0.7818608E-02  0.1014794E+00
         21   -1    0    0  501  502  0.00000000000E+00  0.00000000000E+00  0.36658818588E+03  0.36658818588E+03  0.00000000000E+00 0.  1.
         21   -1    0    0  502  503 -0.00000000000E+00 -0.00000000000E+00 -0.68426808906E+03  0.68426808906E+03  0.00000000000E+00 0. -1.
    9000005    1    1    2  501    0 -0.29346203273E+03 -0.48998958023E+01 -0.86913489714E+02  0.50368435386E+03  0.40000000000E+03 0.  1.
   -9000005    1    1    2    0  503  0.29346203273E+03  0.48998958023E+01 -0.23076641347E+03  0.54717192108E+03  0.40000000000E+03 0.  1.
<mgrwt>
<rscale>  2 0.49612899E+03</rscale>
<asrwt>0</asrwt>
<pdfrwt beam="1">  1       21 0.56398183E-01 0.49612899E+03</pdfrwt>
<pdfrwt beam="2">  1       21 0.10527201E+00 0.49612899E+03</pdfrwt>
<totfact> 0.18173229E+03</totfact>
</mgrwt>
</event>
<event>
 4    1  0.8562541E-003  0.4467670E+03  0.7818608E-02  0.1028691E+00
         21   -1    0    0  501  502  0.00000000000E+00  0.00000000000E+00  0.24378389580E+03  0.24378389580E+03  0.00000000000E+00 0.  1.
         21   -1    0    0  502  503 -0.00000000000E+00 -0.00000000000E+00 -0.83426903822E+03  0.83426903822E+03  0.00000000000E+00 0.  1.
    9000005    1    1    2  501    0  0.14047742009E+03 -0.14094981986E+03 -0.22175145753E+03  0.49877296056E+03  0.40000000000E+03 0.  1.
   -9000005    1    1    2    0  503 -0.14047742009E+03  0.14094981986E+03 -0.36873368489E+03  0.57927997346E+03  0.40000000000E+03 0.  1.
<mgrwt>
<rscale>  2 0.44676701E+03</rscale>
<asrwt>0</asrwt>
<pdfrwt beam="1">  1       21 0.37505215E-01 0.44676701E+03</pdfrwt>
<pdfrwt beam="2">  1       21 0.12834908E+00 0.44676701E+03</pdfrwt>
<totfact> 0.26482325E+03</totfact>
</mgrwt>
</event>
<event>
 4    1  0.8562541E-003  0.5636266E+03  0.7818608E-02  0.9983882E-01
         21   -1    0    0  501  502  0.00000000000E+00  0.00000000000E+00  0.85530742900E+02  0.85530742900E+02  0.00000000000E+00 0.  1.
         21   -1    0    0  502  503 -0.00000000000E+00 -0.00000000000E+00 -0.38052211580E+04  0.38052211580E+04  0.00000000000E+00 0. -1.
    9000005    1    1    2  501    0 -0.18044962015E+03 -0.35371302218E+03 -0.15589070262E+04  0.16576688703E+04  0.40000000000E+03 0.  1.
   -9000005    1    1    2    0  503  0.18044962015E+03  0.35371302218E+03 -0.21607833889E+04  0.22330830306E+04  0.40000000000E+03 0. -1.
<mgrwt>
<rscale>  2 0.56362662E+03</rscale>
<asrwt>0</asrwt>
<pdfrwt beam="1">  1       21 0.13158577E-01 0.56362662E+03</pdfrwt>
<pdfrwt beam="2">  1       21 0.58541860E+00 0.56362662E+03</pdfrwt>
<totfact> 0.15083979E+01</totfact>
</mgrwt>
</event>
<event>
 4    1  0.8562541E-003  0.4466955E+03  0.7818608E-02  0.1028712E+00
         21   -1    0    0  501  502  0.00000000000E+00  0.00000000000E+00  0.29568756588E+03  0.29568756588E+03  0.00000000000E+00 0. -1.
         21   -1    0    0  502  503 -0.00000000000E+00 -0.00000000000E+00 -0.83709667391E+03  0.83709667391E+03  0.00000000000E+00 0. -1.
    9000005    1    1    2  501    0  0.14043915091E+03 -0.14076105739E+03 -0.21329414123E+02  0.44720439879E+03  0.40000000000E+03 0. -1.
   -9000005    1    1    2    0  503 -0.14043915091E+03  0.14076105739E+03 -0.52007969391E+03  0.68557984101E+03  0.40000000000E+03 0. -1.
<mgrwt>
<rscale>  2 0.44669546E+03</rscale>
<asrwt>0</asrwt>
<pdfrwt beam="1">  1       21 0.45490395E-01 0.44669546E+03</pdfrwt>
<pdfrwt beam="2">  1       21 0.12878410E+00 0.44669546E+03</pdfrwt>
<totfact> 0.17607621E+03</totfact>
</mgrwt>
</event>
<event>
 4    1  0.8562541E-003  0.4064107E+03  0.7818608E-02  0.1041582E+00
         21   -1    0    0  501  502  0.00000000000E+00  0.00000000000E+00  0.10394729699E+04  0.10394729699E+04  0.00000000000E+00 0.  1.
         21   -1    0    0  502  503 -0.00000000000E+00 -0.00000000000E+00 -0.15905207658E+03  0.15905207658E+03  0.00000000000E+00 0.  1.
    9000005    1    1    2  501    0  0.53354774416E+02 -0.48196448791E+02  0.45889381853E+03  0.61298708495E+03  0.40000000000E+03 0.  1.
   -9000005    1    1    2    0  503 -0.53354774416E+02  0.48196448791E+02  0.42152707481E+03  0.58553796156E+03  0.40000000000E+03 0.  1.
<mgrwt>
<rscale>  2 0.40641067E+03</rscale>
<asrwt>0</asrwt>
<pdfrwt beam="1">  1       21 0.15991891E+00 0.40641067E+03</pdfrwt>
<pdfrwt beam="2">  1       21 0.24469551E-01 0.40641067E+03</pdfrwt>
<totfact> 0.34923103E+03</totfact>
</mgrwt>
</event>
<event>
 4    1  0.8562541E-003  0.4837838E+03  0.7818608E-02  0.1018100E+00
         21   -1    0    0  501  502  0.00000000000E+00  0.00000000000E+00  0.58185515779E+03  0.58185515779E+03  0.00000000000E+00 0.  1.
         21   -1    0    0  502  503 -0.00000000000E+00 -0.00000000000E+00 -0.40300819280E+03  0.40300819280E+03  0.00000000000E+00 0.  1.
    9000005    1    1    2  501    0  0.16921354367E+03 -0.21310463860E+03  0.67957686092E+02  0.48853357863E+03  0.40000000000E+03 0.  1.
   -9000005    1    1    2    0  503 -0.16921354367E+03  0.21310463860E+03  0.11088927890E+03  0.49632977195E+03  0.40000000000E+03 0.  1.
<mgrwt>
<rscale>  2 0.48378385E+03</rscale>
<asrwt>0</asrwt>
<pdfrwt beam="1">  1       21 0.89516178E-01 0.48378385E+03</pdfrwt>
<pdfrwt beam="2">  1       21 0.62001260E-01 0.48378385E+03</pdfrwt>
<totfact> 0.21949612E+03</totfact>
</mgrwt>
</event>
<event>
 4    1  0.8562541E-003  0.5314354E+03  0.7818608E-02  0.1005885E+00
         21   -1    0    0  501  502  0.00000000000E+00  0.00000000000E+00  0.25297912687E+03  0.25297912687E+03  0.00000000000E+00 0.  1.
         21   -1    0    0  502  503 -0.00000000000E+00 -0.00000000000E+00 -0.14716803224E+04  0.14716803224E+04  0.00000000000E+00 0.  1.
    9000005    1    1    2  501    0 -0.18192372378E+03 -0.29887677170E+03 -0.18565122164E+03  0.56292978428E+03  0.40000000000E+03 0.  1.
   -9000005    1    1    2    0  503  0.18192372378E+03  0.29887677170E+03 -0.10330499739E+04  0.11617296650E+04  0.40000000000E+03 0.  1.
<mgrwt>
<rscale>  2 0.53143538E+03</rscale>
<asrwt>0</asrwt>
<pdfrwt beam="1">  1       21 0.38919866E-01 0.53143538E+03</pdfrwt>
<pdfrwt beam="2">  1       21 0.22641236E+00 0.53143538E+03</pdfrwt>
<totfact> 0.45971771E+02</totfact>
</mgrwt>
</event>
<event>
 4    1  0.8562541E-003  0.4255411E+03  0.7818608E-02  0.1035278E+00
         21   -1    0    0  503  502  0.00000000000E+00  0.00000000000E+00  0.73603417301E+03  0.73603417301E+03  0.00000000000E+00 0.  1.
         21   -1    0    0  501  503 -0.00000000000E+00 -0.00000000000E+00 -0.28928905470E+03  0.28928905470E+03  0.00000000000E+00 0.  1.
    9000005    1    1    2  501    0 -0.13630809383E+03  0.50053700241E+02  0.25123278673E+02  0.42628212311E+03  0.40000000000E+03 0.  1.
   -9000005    1    1    2    0  502  0.13630809383E+03 -0.50053700241E+02  0.42162183963E+03  0.59904110461E+03  0.40000000000E+03 0.  1.
<mgrwt>
<rscale>  2 0.42554115E+03</rscale>
<asrwt>0</asrwt>
<pdfrwt beam="1">  1       21 0.11323603E+00 0.42554115E+03</pdfrwt>
<pdfrwt beam="2">  1       21 0.44506009E-01 0.42554115E+03</pdfrwt>
<totfact> 0.25774843E+03</totfact>
</mgrwt>
</event>
<event>
 4    1  0.8562541E-003  0.4289963E+03  0.7818608E-02  0.1034177E+00
         21   -1    0    0  501  502  0.00000000000E+00  0.00000000000E+00  0.51975534628E+03  0.51975534628E+03  0.00000000000E+00 0.  1.
         21   -1    0    0  502  503 -0.00000000000E+00 -0.00000000000E+00 -0.35924443980E+03  0.35924443980E+03  0.00000000000E+00 0. -1.
    9000005    1    1    2  501    0  0.32493044114E+02  0.15159828378E+03  0.13292304963E+03  0.44911732842E+03  0.40000000000E+03 0. -1.
   -9000005    1    1    2    0  503 -0.32493044114E+02 -0.15159828378E+03  0.27587856853E+02  0.42988245766E+03  0.40000000000E+03 0.  1.
<mgrwt>
<rscale>  2 0.42899631E+03</rscale>
<asrwt>0</asrwt>
<pdfrwt beam="1">  1       21 0.79962361E-01 0.42899631E+03</pdfrwt>
<pdfrwt beam="2">  1       21 0.55268375E-01 0.42899631E+03</pdfrwt>
<totfact> 0.37447014E+03</totfact>
</mgrwt>
</event>
<event>
 4    1  0.8562541E-003  0.4493284E+03  0.7818608E-02  0.1027923E+00
         21   -1    0    0  501  502  0.00000000000E+00  0.00000000000E+00  0.55132319457E+03  0.55132319457E+03  0.00000000000E+00 0.  1.
         21   -1    0    0  502  503 -0.00000000000E+00 -0.00000000000E+00 -0.46072839635E+03  0.46072839635E+03  0.00000000000E+00 0.  1.
    9000005    1    1    2  501    0 -0.10714460430E+03  0.17440202103E+03  0.27450296299E+03  0.52654335800E+03  0.40000000000E+03 0.  1.
   -9000005    1    1    2    0  503  0.10714460430E+03 -0.17440202103E+03 -0.18390816477E+03  0.48550823292E+03  0.40000000000E+03 0.  1.
<mgrwt>
<rscale>  2 0.44932842E+03</rscale>
<asrwt>0</asrwt>
<pdfrwt beam="1">  1       21 0.84818952E-01 0.44932842E+03</pdfrwt>
<pdfrwt beam="2">  1       21 0.70881292E-01 0.44932842E+03</pdfrwt>
<totfact> 0.18716116E+03</totfact>
</mgrwt>
</event>
<event>
 4    1  0.8562541E-003  0.5467262E+03  0.7818608E-02  0.1002255E+00
         21   -1    0    0  503  502  0.00000000000E+00  0.00000000000E+00  0.74556975380E+03  0.74556975380E+03  0.00000000000E+00 0.  1.
         21   -1    0    0  501  503 -0.00000000000E+00 -0.00000000000E+00 -0.46729582535E+03  0.46729582535E+03  0.00000000000E+00 0.  1.
    9000005    1    1    2  501    0 -0.36974439909E+03 -0.46889279862E+02 -0.89428474288E+02  0.55399185665E+03  0.40000000000E+03 0.  1.
   -9000005    1    1    2    0  502  0.36974439909E+03  0.46889279862E+02  0.36770240273E+03  0.65887372250E+03  0.40000000000E+03 0.  1.
<mgrwt>
<rscale>  2 0.54672619E+03</rscale>
<asrwt>0</asrwt>
<pdfrwt beam="1">  1       21 0.11470304E+00 0.54672619E+03</pdfrwt>
<pdfrwt beam="2">  1       21 0.71891665E-01 0.54672619E+03</pdfrwt>
<totfact> 0.84110072E+02</totfact>
</mgrwt>
</event>
<event>
 4    1  0.8562541E-003  0.5635649E+03  0.7818608E-02  0.9984021E-01
         21   -1    0    0  501  502  0.00000000000E+00  0.00000000000E+00  0.40453624874E+03  0.40453624874E+03  0.00000000000E+00 0.  1.
         21   -1    0    0  502  503 -0.00000000000E+00 -0.00000000000E+00 -0.79718542839E+03  0.79718542839E+03  0.00000000000E+00 0.  1.
    9000005    1    1    2  501    0 -0.15801726470E+03 -0.36419218392E+03 -0.12237295393E+03  0.57669796482E+03  0.40000000000E+03 0.  1.
   -9000005    1    1    2    0  503  0.15801726470E+03  0.36419218392E+03 -0.27027622572E+03  0.62502371232E+03  0.40000000000E+03 0.  1.
<mgrwt>
<rscale>  2 0.56356491E+03</rscale>
<asrwt>0</asrwt>
<pdfrwt beam="1">  1       21 0.62236346E-01 0.56356491E+03</pdfrwt>
<pdfrwt beam="2">  1       21 0.12264391E+00 0.56356491E+03</pdfrwt>
<totfact> 0.97493505E+02</totfact>
</mgrwt>
</event>
<event>
 4    1  0.8562541E-003  0.4335382E+03  0.7818608E-02  0.1032748E+00
         21   -1    0    0  503  502  0.00000000000E+00  0.00000000000E+00  0.13311032837E+03  0.13311032837E+03  0.00000000000E+00 0.  1.
         21   -1    0    0  501  503 -0.00000000000E+00 -0.00000000000E+00 -0.22958250197E+04  0.22958250197E+04  0.00000000000E+00 0.  1.
    9000005    1    1    2  501    0  0.10256066326E+03 -0.13204816673E+03 -0.18348742909E+04  0.18853962638E+04  0.40000000000E+03 0.  1.
   -9000005    1    1    2    0  502 -0.10256066326E+03  0.13204816673E+03 -0.32784040036E+03  0.54353908424E+03  0.40000000000E+03 0.  1.
<mgrwt>
<rscale>  2 0.43353824E+03</rscale>
<asrwt>0</asrwt>
<pdfrwt beam="1">  1       21 0.20478514E-01 0.43353824E+03</pdfrwt>
<pdfrwt beam="2">  1       21 0.35320382E+00 0.43353824E+03</pdfrwt>
<totfact> 0.29003215E+02</totfact>
</mgrwt>
</event>
<event>
 4    1  0.8562541E-003  0.6522516E+03  0.7818608E-02  0.9802563E-01
         21   -1    0    0  503  502  0.00000000000E+00  0.00000000000E+00  0.67578826567E+03  0.67578826567E+03  0.00000000000E+00 0.  1.
         21   -1    0    0  501  503 -0.00000000000E+00 -0.00000000000E+00 -0.12530172039E+04  0.12530172039E+04  0.00000000000E+00 0. -1.
    9000005    1    1    2  501    0 -0.40832460508E+03  0.31417058897E+03 -0.96890129790E+03  0.11679905253E+04  0.40000000000E+03 0.  1.
   -9000005    1    1    2    0  502  0.40832460508E+03 -0.31417058897E+03  0.39167235968E+03  0.76081494427E+03  0.40000000000E+03 0.  1.
<mgrwt>
<rscale>  2 0.65225159E+03</rscale>
<asrwt>0</asrwt>
<pdfrwt beam="1">  1       21 0.10396743E+00 0.65225159E+03</pdfrwt>
<pdfrwt beam="2">  1       21 0.19277187E+00 0.65225159E+03</pdfrwt>
<totfact> 0.80888262E+01</totfact>
</mgrwt>
</event>
<event>
 4    1  0.8562541E-003  0.5533336E+03  0.7818608E-02  0.1000725E+00
         21   -1    0    0  503  502  0.00000000000E+00  0.00000000000E+00  0.18689136405E+04  0.18689136405E+04  0.00000000000E+00 0. -1.
         21   -1    0    0  501  503 -0.00000000000E+00 -0.00000000000E+00 -0.17480299649E+03  0.17480299649E+03  0.00000000000E+00 0.  1.
    9000005    1    1    2  501    0 -0.29230149825E+03  0.24645054065E+03  0.59099439692E+03  0.80960015567E+03  0.40000000000E+03 0.  1.
   -9000005    1    1    2    0  502  0.29230149825E+03 -0.24645054065E+03  0.11031162471E+04  0.12341164813E+04  0.40000000000E+03 0. -1.
<mgrwt>
<rscale>  2 0.55333357E+03</rscale>
<asrwt>0</asrwt>
<pdfrwt beam="1">  1       21 0.28752516E+00 0.55333357E+03</pdfrwt>
<pdfrwt beam="2">  1       21 0.26892770E-01 0.55333357E+03</pdfrwt>
<totfact> 0.40165260E+02</totfact>
</mgrwt>
</event>
<event>
 4    1  0.8562541E-003  0.5068732E+03  0.7818608E-02  0.1012000E+00
         21   -1    0    0  501  502  0.00000000000E+00  0.00000000000E+00  0.10072349498E+04  0.10072349498E+04  0.00000000000E+00 0. -1.
         21   -1    0    0  502  503 -0.00000000000E+00 -0.00000000000E+00 -0.31153249915E+03  0.31153249915E+03  0.00000000000E+00 0. -1.
    9000005    1    1    2  501    0 -0.22110431388E+03  0.21916513780E+03  0.67148076736E+02  0.51130161300E+03  0.40000000000E+03 0. -1.
   -9000005    1    1    2    0  503  0.22110431388E+03 -0.21916513780E+03  0.62855437387E+03  0.80746583591E+03  0.40000000000E+03 0. -1.
<mgrwt>
<rscale>  2 0.50687323E+03</rscale>
<asrwt>0</asrwt>
<pdfrwt beam="1">  1       21 0.15495922E+00 0.50687323E+03</pdfrwt>
<pdfrwt beam="2">  1       21 0.47928077E-01 0.50687323E+03</pdfrwt>
<totfact> 0.94013105E+02</totfact>
</mgrwt>
</event>
<event>
 4    1  0.8562541E-003  0.4063481E+03  0.7818608E-02  0.1041603E+00
         21   -1    0    0  501  502  0.00000000000E+00  0.00000000000E+00  0.41766526012E+03  0.41766526012E+03  0.00000000000E+00 0. -1.
         21   -1    0    0  502  503 -0.00000000000E+00 -0.00000000000E+00 -0.39539027870E+03  0.39539027870E+03  0.00000000000E+00 0. -1.
    9000005    1    1    2  501    0 -0.53876655835E+02 -0.47075210018E+02  0.64438039028E+01  0.40639917821E+03  0.40000000000E+03 0. -1.
   -9000005    1    1    2    0  503  0.53876655835E+02  0.47075210018E+02  0.15831177524E+02  0.40665636061E+03  0.40000000000E+03 0. -1.
<mgrwt>
<rscale>  2 0.40634809E+03</rscale>
<asrwt>0</asrwt>
<pdfrwt beam="1">  1       21 0.64256194E-01 0.40634809E+03</pdfrwt>
<pdfrwt beam="2">  1       21 0.60829274E-01 0.40634809E+03</pdfrwt>
<totfact> 0.50223094E+03</totfact>
</mgrwt>
</event>
<event>
 4    1  0.8562541E-003  0.4272002E+03  0.7818608E-02  0.1034748E+00
         21   -1    0    0  501  502  0.00000000000E+00  0.00000000000E+00  0.15403940527E+03  0.15403940527E+03  0.00000000000E+00 0. -1.
         21   -1    0    0  502  503 -0.00000000000E+00 -0.00000000000E+00 -0.11922751302E+04  0.11922751302E+04  0.00000000000E+00 0. -1.
    9000005    1    1    2  501    0  0.53367617558E+02  0.14018522598E+03 -0.46568049281E+03  0.63194803708E+03  0.40000000000E+03 0. -1.
   -9000005    1    1    2    0  503 -0.53367617558E+02 -0.14018522598E+03 -0.57255523208E+03  0.71436649835E+03  0.40000000000E+03 0. -1.
<mgrwt>
<rscale>  2 0.42720019E+03</rscale>
<asrwt>0</asrwt>
<pdfrwt beam="1">  1       21 0.23698370E-01 0.42720019E+03</pdfrwt>
<pdfrwt beam="2">  1       21 0.18342694E+00 0.42720019E+03</pdfrwt>
<totfact> 0.24905296E+03</totfact>
</mgrwt>
</event>
<event>
 4    1  0.8562541E-003  0.4320778E+03  0.7818608E-02  0.1033206E+00
         21   -1    0    0  503  502  0.00000000000E+00  0.00000000000E+00  0.33382567843E+03  0.33382567843E+03  0.00000000000E+00 0. -1.
         21   -1    0    0  501  503 -0.00000000000E+00 -0.00000000000E+00 -0.56413029509E+03  0.56413029509E+03  0.00000000000E+00 0.  1.
    9000005    1    1    2  501    0 -0.16135074165E+03  0.25635881518E+02 -0.15692172163E+03  0.45969086022E+03  0.40000000000E+03 0.  1.
   -9000005    1    1    2    0  502  0.16135074165E+03 -0.25635881518E+02 -0.73382895033E+02  0.43826511330E+03  0.40000000000E+03 0.  1.
<mgrwt>
<rscale>  2 0.43207784E+03</rscale>
<asrwt>0</asrwt>
<pdfrwt beam="1">  1       21 0.51357797E-01 0.43207784E+03</pdfrwt>
<pdfrwt beam="2">  1       21 0.86789275E-01 0.43207784E+03</pdfrwt>
<totfact> 0.36184121E+03</totfact>
</mgrwt>
</event>
<event>
 4    1  0.8562541E-003  0.9917038E+03  0.7818608E-02  0.9317691E-01
         21   -1    0    0  503  502  0.00000000000E+00  0.00000000000E+00  0.65412703301E+03  0.65412703301E+03  0.00000000000E+00 0.  1.
         21   -1    0    0  501  503 -0.00000000000E+00 -0.00000000000E+00 -0.19161193159E+04  0.19161193159E+04  0.00000000000E+00 0.  1.
    9000005    1    1    2  501    0 -0.67365245763E+03 -0.60800395760E+03 -0.34632562259E+02  0.99230834951E+03  0.40000000000E+03 0.  1.
   -9000005    1    1    2    0  502  0.67365245763E+03  0.60800395760E+03 -0.12273597206E+04  0.15779379994E+04  0.40000000000E+03 0.  1.
<mgrwt>
<rscale>  2 0.99170381E+03</rscale>
<asrwt>0</asrwt>
<pdfrwt beam="1">  1       21 0.10063493E+00 0.99170381E+03</pdfrwt>
<pdfrwt beam="2">  1       21 0.29478759E+00 0.99170381E+03</pdfrwt>
<totfact> 0.17332055E+01</totfact>
</mgrwt>
</event>
<event>
 4    1  0.8562541E-003  0.4045099E+03  0.7818608E-02  0.1042229E+00
         21   -1    0    0  501  502  0.00000000000E+00  0.00000000000E+00  0.44141027593E+03  0.44141027593E+03  0.00000000000E+00 0.  1.
         21   -1    0    0  502  503 -0.00000000000E+00 -0.00000000000E+00 -0.61092033361E+03  0.61092033361E+03  0.00000000000E+00 0.  1.
    9000005    1    1    2  501    0  0.60167491631E+02 -0.28528259819E+01  0.24518876831E+03  0.47301775629E+03  0.40000000000E+03 0.  1.
   -9000005    1    1    2    0  503 -0.60167491631E+02  0.28528259819E+01 -0.41469882598E+03  0.57931285324E+03  0.40000000000E+03 0.  1.
<mgrwt>
<rscale>  2 0.40450991E+03</rscale>
<asrwt>0</asrwt>
<pdfrwt beam="1">  1       21 0.67909274E-01 0.40450991E+03</pdfrwt>
<pdfrwt beam="2">  1       21 0.93987743E-01 0.40450991E+03</pdfrwt>
<totfact> 0.16465558E+03</totfact>
</mgrwt>
</event>
<event>
 4    1  0.8562541E-003  0.4797300E+03  0.7818608E-02  0.1019209E+00
         21   -1    0    0  501  502  0.00000000000E+00  0.00000000000E+00  0.10568661359E+04  0.10568661359E+04  0.00000000000E+00 0. -1.
         21   -1    0    0  502  503 -0.00000000000E+00 -0.00000000000E+00 -0.24319376215E+03  0.24319376215E+03  0.00000000000E+00 0. -1.
    9000005    1    1    2  501    0 -0.89895458612E+02 -0.24911776102E+03  0.61705964401E+03  0.78160313241E+03  0.40000000000E+03 0. -1.
   -9000005    1    1    2    0  503  0.89895458612E+02  0.24911776102E+03  0.19661272974E+03  0.51845676563E+03  0.40000000000E+03 0. -1.
<mgrwt>
<rscale>  2 0.47972998E+03</rscale>
<asrwt>0</asrwt>
<pdfrwt beam="1">  1       21 0.16259479E+00 0.47972998E+03</pdfrwt>
<pdfrwt beam="2">  1       21 0.37414426E-01 0.47972998E+03</pdfrwt>
<totfact> 0.13910542E+03</totfact>
</mgrwt>
</event>
<event>
 4    1  0.8562541E-003  0.4991835E+03  0.7818608E-02  0.1013992E+00
         21   -1    0    0  501  502  0.00000000000E+00  0.00000000000E+00  0.22397578924E+03  0.22397578924E+03  0.00000000000E+00 0.  1.
         21   -1    0    0  502  503 -0.00000000000E+00 -0.00000000000E+00 -0.12907856320E+04  0.12907856320E+04  0.00000000000E+00 0. -1.
    9000005    1    1    2  501    0  0.28069830296E+03  0.10194421533E+03 -0.25196544784E+03  0.55916969448E+03  0.40000000000E+03 0.  1.
   -9000005    1    1    2    0  503 -0.28069830296E+03 -0.10194421533E+03 -0.81484439496E+03  0.95559172680E+03  0.40000000000E+03 0. -1.
<mgrwt>
<rscale>  2 0.49918349E+03</rscale>
<asrwt>0</asrwt>
<pdfrwt beam="1">  1       21 0.34457813E-01 0.49918349E+03</pdfrwt>
<pdfrwt beam="2">  1       21 0.19858241E+00 0.49918349E+03</pdfrwt>
<totfact> 0.90791963E+02</totfact>
</mgrwt>
</event>
<event>
 4    1  0.8562541E-003  0.4872794E+03  0.7818608E-02  0.1017154E+00
         21   -1    0    0  503  502  0.00000000000E+00  0.00000000000E+00  0.67895011749E+03  0.67895011749E+03  0.00000000000E+00 0. -1.
         21   -1    0    0  501  503 -0.00000000000E+00 -0.00000000000E+00 -0.40387183370E+03  0.40387183370E+03  0.00000000000E+00 0. -1.
    9000005    1    1    2  501    0  0.27828255681E+03  0.25467691061E+00 -0.60713451584E+02  0.49104721717E+03  0.40000000000E+03 0. -1.
   -9000005    1    1    2    0  502 -0.27828255681E+03 -0.25467691061E+00  0.33579173537E+03  0.59177473403E+03  0.40000000000E+03 0. -1.
<mgrwt>
<rscale>  2 0.48727943E+03</rscale>
<asrwt>0</asrwt>
<pdfrwt beam="1">  1       21 0.10445386E+00 0.48727943E+03</pdfrwt>
<pdfrwt beam="2">  1       21 0.62134128E-01 0.48727943E+03</pdfrwt>
<totfact> 0.15031038E+03</totfact>
</mgrwt>
</event>
<event>
 4    1  0.8562541E-003  0.4440438E+03  0.7818608E-02  0.1029513E+00
         21   -1    0    0  501  502  0.00000000000E+00  0.00000000000E+00  0.35110418775E+03  0.35110418775E+03  0.00000000000E+00 0.  1.
         21   -1    0    0  502  503 -0.00000000000E+00 -0.00000000000E+00 -0.56236711108E+03  0.56236711108E+03  0.00000000000E+00 0.  1.
    9000005    1    1    2  501    0 -0.85674911224E+02  0.17272718733E+03 -0.12266356621E+03  0.46067474657E+03  0.40000000000E+03 0.  1.
   -9000005    1    1    2    0  503  0.85674911224E+02 -0.17272718733E+03 -0.88599357112E+02  0.45279655226E+03  0.40000000000E+03 0.  1.
<mgrwt>
<rscale>  2 0.44404377E+03</rscale>
<asrwt>0</asrwt>
<pdfrwt beam="1">  1       21 0.54016029E-01 0.44404377E+03</pdfrwt>
<pdfrwt beam="2">  1       21 0.86518017E-01 0.44404377E+03</pdfrwt>
<totfact> 0.32575300E+03</totfact>
</mgrwt>
</event>
<event>
 4    1  0.8562541E-003  0.4027997E+03  0.7818608E-02  0.1042815E+00
         21   -1    0    0  501  502  0.00000000000E+00  0.00000000000E+00  0.23732038566E+03  0.23732038566E+03  0.00000000000E+00 0. -1.
         21   -1    0    0  502  503 -0.00000000000E+00 -0.00000000000E+00 -0.86152962272E+03  0.86152962272E+03  0.00000000000E+00 0. -1.
    9000005    1    1    2  501    0  0.23211554911E+01 -0.47352181409E+02 -0.62462288652E+02  0.40761397713E+03  0.40000000000E+03 0. -1.
   -9000005    1    1    2    0  503 -0.23211554911E+01  0.47352181409E+02 -0.56174694841E+03  0.69123603125E+03  0.40000000000E+03 0. -1.
<mgrwt>
<rscale>  2 0.40279972E+03</rscale>
<asrwt>0</asrwt>
<pdfrwt beam="1">  1       21 0.36510829E-01 0.40279972E+03</pdfrwt>
<pdfrwt beam="2">  1       21 0.13254302E+00 0.40279972E+03</pdfrwt>
<totfact> 0.26187953E+03</totfact>
</mgrwt>
</event>
<event>
 4    1  0.8562541E-003  0.4881266E+03  0.7818608E-02  0.1016925E+00
         21   -1    0    0  501  502  0.00000000000E+00  0.00000000000E+00  0.92950892456E+03  0.92950892456E+03  0.00000000000E+00 0. -1.
         21   -1    0    0  502  503 -0.00000000000E+00 -0.00000000000E+00 -0.30037130219E+03  0.30037130219E+03  0.00000000000E+00 0.  1.
    9000005    1    1    2  501    0  0.20860835197E+03 -0.18641395250E+03  0.79118778203E+02  0.49449710541E+03  0.40000000000E+03 0.  1.
   -9000005    1    1    2    0  503 -0.20860835197E+03  0.18641395250E+03  0.55001884417E+03  0.73538312133E+03  0.40000000000E+03 0. -1.
<mgrwt>
<rscale>  2 0.48812663E+03</rscale>
<asrwt>0</asrwt>
<pdfrwt beam="1">  1       21 0.14300137E+00 0.48812663E+03</pdfrwt>
<pdfrwt beam="2">  1       21 0.46210970E-01 0.48812663E+03</pdfrwt>
<totfact> 0.12722475E+03</totfact>
</mgrwt>
</event>
<event>
 4    1  0.8562541E-003  0.4221943E+03  0.7818608E-02  0.1036354E+00
         21   -1    0    0  501  502  0.00000000000E+00  0.00000000000E+00  0.25912181629E+03  0.25912181629E+03  0.00000000000E+00 0. -1.
         21   -1    0    0  502  503 -0.00000000000E+00 -0.00000000000E+00 -0.71630695527E+03  0.71630695527E+03  0.00000000000E+00 0. -1.
    9000005    1    1    2  501    0  0.87383195365E+02  0.10301564725E+03 -0.13145596366E+03  0.44218629195E+03  0.40000000000E+03 0. -1.
   -9000005    1    1    2    0  503 -0.87383195365E+02 -0.10301564725E+03 -0.32572917532E+03  0.53324247961E+03  0.40000000000E+03 0. -1.
<mgrwt>
<rscale>  2 0.42219432E+03</rscale>
<asrwt>0</asrwt>
<pdfrwt beam="1">  1       21 0.39864895E-01 0.42219432E+03</pdfrwt>
<pdfrwt beam="2">  1       21 0.11020107E+00 0.42219432E+03</pdfrwt>
<totfact> 0.34689717E+03</totfact>
</mgrwt>
</event>
<event>
 4    1  0.8562541E-003  0.5860229E+03  0.7818608E-02  0.9934836E-01
         21   -1    0    0  503  502  0.00000000000E+00  0.00000000000E+00  0.20913285308E+04  0.20913285308E+04  0.00000000000E+00 0. -1.
         21   -1    0    0  501  503 -0.00000000000E+00 -0.00000000000E+00 -0.16497014520E+03  0.16497014520E+03  0.00000000000E+00 0. -1.
    9000005    1    1    2  501    0  0.63867776139E+02 -0.42349002012E+03  0.88674034806E+03  0.10628882043E+04  0.40000000000E+03 0. -1.
   -9000005    1    1    2    0  502 -0.63867776139E+02  0.42349002012E+03  0.10396180375E+04  0.11934104717E+04  0.40000000000E+03 0. -1.
<mgrwt>
<rscale>  2 0.58602294E+03</rscale>
<asrwt>0</asrwt>
<pdfrwt beam="1">  1       21 0.32174283E+00 0.58602294E+03</pdfrwt>
<pdfrwt beam="2">  1       21 0.25380024E-01 0.58602294E+03</pdfrwt>
<totfact> 0.27451340E+02</totfact>
</mgrwt>
</event>
<event>
 4    1  0.8562541E-003  0.5436055E+03  0.7818608E-02  0.1002985E+00
         21   -1    0    0  501  502  0.00000000000E+00  0.00000000000E+00  0.63840305453E+03  0.63840305453E+03  0.00000000000E+00 0.  1.
         21   -1    0    0  502  503 -0.00000000000E+00 -0.00000000000E+00 -0.49707483950E+03  0.49707483950E+03  0.00000000000E+00 0. -1.
    9000005    1    1    2  501    0  0.35453704657E+03 -0.99047545543E+02 -0.78233924319E+02  0.54920622773E+03  0.40000000000E+03 0.  1.
   -9000005    1    1    2    0  503 -0.35453704657E+03  0.99047545543E+02  0.21956213934E+03  0.58627166630E+03  0.40000000000E+03 0.  1.
<mgrwt>
<rscale>  2 0.54360549E+03</rscale>
<asrwt>0</asrwt>
<pdfrwt beam="1">  1       21 0.98215855E-01 0.54360549E+03</pdfrwt>
<pdfrwt beam="2">  1       21 0.76473052E-01 0.54360549E+03</pdfrwt>
<totfact> 0.10736279E+03</totfact>
</mgrwt>
</event>
<event>
 4    1  0.8562541E-003  0.4647809E+03  0.7818608E-02  0.1023404E+00
         21   -1    0    0  503  502  0.00000000000E+00  0.00000000000E+00  0.32119392550E+03  0.32119392550E+03  0.00000000000E+00 0. -1.
         21   -1    0    0  501  503 -0.00000000000E+00 -0.00000000000E+00 -0.74588144287E+03  0.74588144287E+03  0.00000000000E+00 0. -1.
    9000005    1    1    2  501    0 -0.69572597441E+02 -0.22623194632E+03 -0.37962776787E+03  0.60011539056E+03  0.40000000000E+03 0. -1.
   -9000005    1    1    2    0  502  0.69572597441E+02  0.22623194632E+03 -0.45059749501E+02  0.46695997781E+03  0.40000000000E+03 0. -1.
<mgrwt>
<rscale>  2 0.46478085E+03</rscale>
<asrwt>0</asrwt>
<pdfrwt beam="1">  1       21 0.49414451E-01 0.46478085E+03</pdfrwt>
<pdfrwt beam="2">  1       21 0.11475099E+00 0.46478085E+03</pdfrwt>
<totfact> 0.19705732E+03</totfact>
</mgrwt>
</event>
<event>
 4    1  0.8562541E-003  0.4836559E+03  0.7818608E-02  0.1018135E+00
         21   -1    0    0  503  502  0.00000000000E+00  0.00000000000E+00  0.48478751736E+03  0.48478751736E+03  0.00000000000E+00 0.  1.
         21   -1    0    0  501  503 -0.00000000000E+00 -0.00000000000E+00 -0.65617730411E+03  0.65617730411E+03  0.00000000000E+00 0.  1.
    9000005    1    1    2  501    0 -0.26643387930E+03 -0.54185282108E+02 -0.37916877412E+03  0.61456652699E+03  0.40000000000E+03 0.  1.
   -9000005    1    1    2    0  502  0.26643387930E+03  0.54185282108E+02  0.20777898736E+03  0.52639829447E+03  0.40000000000E+03 0.  1.
<mgrwt>
<rscale>  2 0.48365593E+03</rscale>
<asrwt>0</asrwt>
<pdfrwt beam="1">  1       21 0.74582695E-01 0.48365593E+03</pdfrwt>
<pdfrwt beam="2">  1       21 0.10095035E+00 0.48365593E+03</pdfrwt>
<totfact> 0.10862209E+03</totfact>
</mgrwt>
</event>
<event>
 4    1  0.8562541E-003  0.4763886E+03  0.7818608E-02  0.1020132E+00
         21   -1    0    0  501  502  0.00000000000E+00  0.00000000000E+00  0.19467549938E+03  0.19467549938E+03  0.00000000000E+00 0.  1.
         21   -1    0    0  502  503 -0.00000000000E+00 -0.00000000000E+00 -0.11941469798E+04  0.11941469798E+04  0.00000000000E+00 0. -1.
    9000005    1    1    2  501    0 -0.19259358018E+03 -0.17278247929E+03 -0.39268201728E+03  0.61736961293E+03  0.40000000000E+03 0.  1.
   -9000005    1    1    2    0  503  0.19259358018E+03  0.17278247929E+03 -0.60678946318E+03  0.77145286629E+03  0.40000000000E+03 0.  1.
<mgrwt>
<rscale>  2 0.47638857E+03</rscale>
<asrwt>0</asrwt>
<pdfrwt beam="1">  1       21 0.29950077E-01 0.47638857E+03</pdfrwt>
<pdfrwt beam="2">  1       21 0.18371492E+00 0.47638857E+03</pdfrwt>
<totfact> 0.15349160E+03</totfact>
</mgrwt>
</event>
<event>
 4    1  0.8562541E-003  0.4629530E+03  0.7818608E-02  0.1023928E+00
         21   -1    0    0  503  502  0.00000000000E+00  0.00000000000E+00  0.76513713209E+03  0.76513713209E+03  0.00000000000E+00 0.  1.
         21   -1    0    0  501  503 -0.00000000000E+00 -0.00000000000E+00 -0.28603350420E+03  0.28603350420E+03  0.00000000000E+00 0.  1.
    9000005    1    1    2  501    0 -0.18404824698E+03 -0.14300937084E+03  0.16394058104E+03  0.49112315307E+03  0.40000000000E+03 0.  1.
   -9000005    1    1    2    0  502  0.18404824698E+03  0.14300937084E+03  0.31516304684E+03  0.56004748322E+03  0.40000000000E+03 0.  1.
<mgrwt>
<rscale>  2 0.46295295E+03</rscale>
<asrwt>0</asrwt>
<pdfrwt beam="1">  1       21 0.11771340E+00 0.46295295E+03</pdfrwt>
<pdfrwt beam="2">  1       21 0.44005155E-01 0.46295295E+03</pdfrwt>
<totfact> 0.23616248E+03</totfact>
</mgrwt>
</event>
<event>
 4    1  0.8562541E-003  0.4239254E+03  0.7818608E-02  0.1035796E+00
         21   -1    0    0  501  502  0.00000000000E+00  0.00000000000E+00  0.41645787165E+03  0.41645787165E+03  0.00000000000E+00 0.  1.
         21   -1    0    0  502  503 -0.00000000000E+00 -0.00000000000E+00 -0.44216503274E+03  0.44216503274E+03  0.00000000000E+00 0.  1.
    9000005    1    1    2  501    0  0.14038783372E+03  0.19944185609E+01  0.53737423859E+02  0.42731771820E+03  0.40000000000E+03 0.  1.
   -9000005    1    1    2    0  503 -0.14038783372E+03 -0.19944185609E+01 -0.79444584950E+02  0.43130518620E+03  0.40000000000E+03 0.  1.
<mgrwt>
<rscale>  2 0.42392537E+03</rscale>
<asrwt>0</asrwt>
<pdfrwt beam="1">  1       21 0.64070442E-01 0.42392537E+03</pdfrwt>
<pdfrwt beam="2">  1       21 0.68025389E-01 0.42392537E+03</pdfrwt>
<totfact> 0.39210555E+03</totfact>
</mgrwt>
</event>
<event>
 4    1  0.8562541E-003  0.4776030E+03  0.7818608E-02  0.1019796E+00
         21   -1    0    0  501  502  0.00000000000E+00  0.00000000000E+00  0.35657754595E+03  0.35657754595E+03  0.00000000000E+00 0. -1.
         21   -1    0    0  502  503 -0.00000000000E+00 -0.00000000000E+00 -0.81349497849E+03  0.81349497849E+03  0.00000000000E+00 0.  1.
    9000005    1    1    2  501    0 -0.25910420405E+03 -0.31138583709E+02  0.41947797069E+02  0.47944156852E+03  0.40000000000E+03 0. -1.
   -9000005    1    1    2    0  503  0.25910420405E+03  0.31138583709E+02 -0.49886522961E+03  0.69063095591E+03  0.40000000000E+03 0.  1.
<mgrwt>
<rscale>  2 0.47760297E+03</rscale>
<asrwt>0</asrwt>
<pdfrwt beam="1">  1       21 0.54858085E-01 0.47760297E+03</pdfrwt>
<pdfrwt beam="2">  1       21 0.12515307E+00 0.47760297E+03</pdfrwt>
<totfact> 0.12573132E+03</totfact>
</mgrwt>
</event>
<event>
 4    1  0.8562541E-003  0.5099398E+03  0.7818608E-02  0.1011217E+00
         21   -1    0    0  503  502  0.00000000000E+00  0.00000000000E+00  0.97743518818E+03  0.97743518818E+03  0.00000000000E+00 0.  1.
         21   -1    0    0  501  503 -0.00000000000E+00 -0.00000000000E+00 -0.30130399968E+03  0.30130399968E+03  0.00000000000E+00 0.  1.
    9000005    1    1    2  501    0 -0.31176062165E+03 -0.53328744314E+02  0.55679344411E+03  0.75502157558E+03  0.40000000000E+03 0.  1.
   -9000005    1    1    2    0  502  0.31176062165E+03  0.53328744314E+02  0.11933774438E+03  0.52371761228E+03  0.40000000000E+03 0.  1.
<mgrwt>
<rscale>  2 0.50993984E+03</rscale>
<asrwt>0</asrwt>
<pdfrwt beam="1">  1       21 0.15037464E+00 0.50993984E+03</pdfrwt>
<pdfrwt beam="2">  1       21 0.46354462E-01 0.50993984E+03</pdfrwt>
<totfact> 0.10941975E+03</totfact>
</mgrwt>
</event>
<event>
 4    1  0.8562541E-003  0.4128282E+03  0.7818608E-02  0.1039426E+00
         21   -1    0    0  501  502  0.00000000000E+00  0.00000000000E+00  0.22318421353E+03  0.22318421353E+03  0.00000000000E+00 0. -1.
         21   -1    0    0  502  503 -0.00000000000E+00 -0.00000000000E+00 -0.77542041554E+03  0.77542041554E+03  0.00000000000E+00 0. -1.
    9000005    1    1    2  501    0  0.14539829959E+02 -0.10107274631E+03 -0.33772245586E+03  0.53337000656E+03  0.40000000000E+03 0. -1.
   -9000005    1    1    2    0  503 -0.14539829959E+02  0.10107274631E+03 -0.21451374615E+03  0.46523462252E+03  0.40000000000E+03 0. -1.
<mgrwt>
<rscale>  2 0.41282818E+03</rscale>
<asrwt>0</asrwt>
<pdfrwt beam="1">  1       21 0.34336034E-01 0.41282818E+03</pdfrwt>
<pdfrwt beam="2">  1       21 0.11929545E+00 0.41282818E+03</pdfrwt>
<totfact> 0.38698417E+03</totfact>
</mgrwt>
</event>
<event>
 4    1  0.8562541E-003  0.4101962E+03  0.7818608E-02  0.1040305E+00
         21   -1    0    0  503  502  0.00000000000E+00  0.00000000000E+00  0.18552913174E+03  0.18552913174E+03  0.00000000000E+00 0.  1.
         21   -1    0    0  501  503 -0.00000000000E+00 -0.00000000000E+00 -0.10427933123E+04  0.10427933123E+04  0.00000000000E+00 0.  1.
    9000005    1    1    2  501    0  0.62850289112E+02  0.65656429901E+02 -0.65032054258E+03  0.76888083195E+03  0.40000000000E+03 0.  1.
   -9000005    1    1    2    0  502 -0.62850289112E+02 -0.65656429901E+02 -0.20694363797E+03  0.45944161210E+03  0.40000000000E+03 0.  1.
<mgrwt>
<rscale>  2 0.41019620E+03</rscale>
<asrwt>0</asrwt>
<pdfrwt beam="1">  1       21 0.28542943E-01 0.41019620E+03</pdfrwt>
<pdfrwt beam="2">  1       21 0.16042974E+00 0.41019620E+03</pdfrwt>
<totfact> 0.25579253E+03</totfact>
</mgrwt>
</event>
<event>
 4    1  0.8562541E-003  0.4121289E+03  0.7818608E-02  0.1039659E+00
         21   -1    0    0  503  502  0.00000000000E+00  0.00000000000E+00  0.83933924274E+03  0.83933924274E+03  0.00000000000E+00 0. -1.
         21   -1    0    0  501  503 -0.00000000000E+00 -0.00000000000E+00 -0.20691872258E+03  0.20691872258E+03  0.00000000000E+00 0. -1.
    9000005    1    1    2  501    0 -0.28834759213E+02 -0.94967449914E+02  0.23857816419E+03  0.47620352824E+03  0.40000000000E+03 0. -1.
   -9000005    1    1    2    0  502  0.28834759213E+02  0.94967449914E+02  0.39384235597E+03  0.57005443708E+03  0.40000000000E+03 0. -1.
<mgrwt>
<rscale>  2 0.41212894E+03</rscale>
<asrwt>0</asrwt>
<pdfrwt beam="1">  1       21 0.12912911E+00 0.41212894E+03</pdfrwt>
<pdfrwt beam="2">  1       21 0.31833650E-01 0.41212894E+03</pdfrwt>
<totfact> 0.36782642E+03</totfact>
</mgrwt>
</event>
<event>
 4    1  0.8562541E-003  0.5055424E+03  0.7818608E-02  0.1012342E+00
         21   -1    0    0  501  502  0.00000000000E+00  0.00000000000E+00  0.36596862833E+03  0.36596862833E+03  0.00000000000E+00 0. -1.
         21   -1    0    0  502  503 -0.00000000000E+00 -0.00000000000E+00 -0.76873566549E+03  0.76873566549E+03  0.00000000000E+00 0. -1.
    9000005    1    1    2  501    0 -0.22526727641E+03  0.21172576385E+03 -0.29705330387E+02  0.50641440693E+03  0.40000000000E+03 0. -1.
   -9000005    1    1    2    0  503  0.22526727641E+03 -0.21172576385E+03 -0.37306170677E+03  0.62828988688E+03  0.40000000000E+03 0. -1.
<mgrwt>
<rscale>  2 0.50554243E+03</rscale>
<asrwt>0</asrwt>
<pdfrwt beam="1">  1       21 0.56302866E-01 0.50554243E+03</pdfrwt>
<pdfrwt beam="2">  1       21 0.11826702E+00 0.50554243E+03</pdfrwt>
<totfact> 0.13598155E+03</totfact>
</mgrwt>
</event>
<event>
 4    1  0.8562541E-003  0.5488990E+03  0.7818608E-02  0.1001749E+00
         21   -1    0    0  501  502  0.00000000000E+00  0.00000000000E+00  0.59935731387E+03  0.59935731387E+03  0.00000000000E+00 0. -1.
         21   -1    0    0  502  503 -0.00000000000E+00 -0.00000000000E+00 -0.53342203778E+03  0.53342203778E+03  0.00000000000E+00 0. -1.
    9000005    1    1    2  501    0  0.26046227993E+03  0.27101573475E+03  0.16891943923E+03  0.57430297291E+03  0.40000000000E+03 0. -1.
   -9000005    1    1    2    0  503 -0.26046227993E+03 -0.27101573475E+03 -0.10298416313E+03  0.55847637873E+03  0.40000000000E+03 0. -1.
<mgrwt>
<rscale>  2 0.54889901E+03</rscale>
<asrwt>0</asrwt>
<pdfrwt beam="1">  1       21 0.92208818E-01 0.54889901E+03</pdfrwt>
<pdfrwt beam="2">  1       21 0.82064929E-01 0.54889901E+03</pdfrwt>
<totfact> 0.10596186E+03</totfact>
</mgrwt>
</event>
<event>
 4    1  0.8562541E-003  0.4151012E+03  0.7818608E-02  0.1038673E+00
         21   -1    0    0  503  502  0.00000000000E+00  0.00000000000E+00  0.33005984625E+03  0.33005984625E+03  0.00000000000E+00 0. -1.
         21   -1    0    0  501  503 -0.00000000000E+00 -0.00000000000E+00 -0.53638461560E+03  0.53638461560E+03  0.00000000000E+00 0. -1.
    9000005    1    1    2  501    0 -0.54388160624E+02 -0.96700056790E+02 -0.32350014348E+02  0.41635981606E+03  0.40000000000E+03 0. -1.
   -9000005    1    1    2    0  502  0.54388160624E+02  0.96700056790E+02 -0.17397475501E+03  0.45008464579E+03  0.40000000000E+03 0. -1.
<mgrwt>
<rscale>  2 0.41510116E+03</rscale>
<asrwt>0</asrwt>
<pdfrwt beam="1">  1       21 0.50778438E-01 0.41510116E+03</pdfrwt>
<pdfrwt beam="2">  1       21 0.82520711E-01 0.41510116E+03</pdfrwt>
<totfact> 0.41958086E+03</totfact>
</mgrwt>
</event>
<event>
 4    1  0.8562541E-003  0.4564156E+03  0.7818608E-02  0.1025826E+00
         21   -1    0    0  501  502  0.00000000000E+00  0.00000000000E+00  0.10079700010E+03  0.10079700010E+03  0.00000000000E+00 0. -1.
         21   -1    0    0  502  503 -0.00000000000E+00 -0.00000000000E+00 -0.20982444826E+04  0.20982444826E+04  0.00000000000E+00 0.  1.
    9000005    1    1    2  501    0  0.21916384577E+03 -0.16805327281E+02 -0.11335797193E+04  0.12220139894E+04  0.40000000000E+03 0. -1.
   -9000005    1    1    2    0  503 -0.21916384577E+03  0.16805327281E+02 -0.86386776315E+03  0.97702749323E+03  0.40000000000E+03 0. -1.
<mgrwt>
<rscale>  2 0.45641561E+03</rscale>
<asrwt>0</asrwt>
<pdfrwt beam="1">  1       21 0.15507233E-01 0.45641561E+03</pdfrwt>
<pdfrwt beam="2">  1       21 0.32280679E+00 0.45641561E+03</pdfrwt>
<totfact> 0.73932114E+02</totfact>
</mgrwt>
</event>
<event>
 4    1  0.8562541E-003  0.5810642E+03  0.7818608E-02  0.9945490E-01
         21   -1    0    0  501  502  0.00000000000E+00  0.00000000000E+00  0.39177228895E+03  0.39177228895E+03  0.00000000000E+00 0. -1.
         21   -1    0    0  502  503 -0.00000000000E+00 -0.00000000000E+00 -0.98926767917E+03  0.98926767917E+03  0.00000000000E+00 0.  1.
    9000005    1    1    2  501    0  0.36278359141E+03  0.21453123594E+03 -0.50895766083E+02  0.58328892017E+03  0.40000000000E+03 0. -1.
   -9000005    1    1    2    0  503 -0.36278359141E+03 -0.21453123594E+03 -0.54659962414E+03  0.79775104795E+03  0.40000000000E+03 0. -1.
<mgrwt>
<rscale>  2 0.58106418E+03</rscale>
<asrwt>0</asrwt>
<pdfrwt beam="1">  1       21 0.60272659E-01 0.58106418E+03</pdfrwt>
<pdfrwt beam="2">  1       21 0.15219503E+00 0.58106418E+03</pdfrwt>
<totfact> 0.58606062E+02</totfact>
</mgrwt>
</event>
<event>
 4    1  0.8562541E-003  0.4201151E+03  0.7818608E-02  0.1037029E+00
         21   -1    0    0  501  502  0.00000000000E+00  0.00000000000E+00  0.92866636831E+03  0.92866636831E+03  0.00000000000E+00 0.  1.
         21   -1    0    0  502  503 -0.00000000000E+00 -0.00000000000E+00 -0.19268626301E+03  0.19268626301E+03  0.00000000000E+00 0.  1.
    9000005    1    1    2  501    0 -0.29121375469E+02  0.12509443320E+03  0.30245719072E+03  0.51766497268E+03  0.40000000000E+03 0.  1.
   -9000005    1    1    2    0  503  0.29121375469E+02 -0.12509443320E+03  0.43352291458E+03  0.60368765864E+03  0.40000000000E+03 0.  1.
<mgrwt>
<rscale>  2 0.42011507E+03</rscale>
<asrwt>0</asrwt>
<pdfrwt beam="1">  1       21 0.14287175E+00 0.42011507E+03</pdfrwt>
<pdfrwt beam="2">  1       21 0.29644041E-01 0.42011507E+03</pdfrwt>
<totfact> 0.32402362E+03</totfact>
</mgrwt>
</event>
<event>
 4    1  0.8562541E-003  0.4560929E+03  0.7818608E-02  0.1025921E+00
         21   -1    0    0  501  502  0.00000000000E+00  0.00000000000E+00  0.96787217081E+02  0.96787217081E+02  0.00000000000E+00 0.  1.
         21   -1    0    0  502  503 -0.00000000000E+00 -0.00000000000E+00 -0.25548293009E+04  0.25548293009E+04  0.00000000000E+00 0.  1.
    9000005    1    1    2  501    0 -0.21344476998E+03  0.49619395579E+02 -0.70077884913E+03  0.83612902691E+03  0.40000000000E+03 0. -1.
   -9000005    1    1    2    0  503  0.21344476998E+03 -0.49619395579E+02 -0.17572632346E+04  0.18154874910E+04  0.40000000000E+03 0. -1.
<mgrwt>
<rscale>  2 0.45609292E+03</rscale>
<asrwt>0</asrwt>
<pdfrwt beam="1">  1       21 0.14890342E-01 0.45609292E+03</pdfrwt>
<pdfrwt beam="2">  1       21 0.39305064E+00 0.45609292E+03</pdfrwt>
<totfact> 0.29311620E+02</totfact>
</mgrwt>
</event>
<event>
 4    1  0.8562541E-003  0.4274549E+03  0.7818608E-02  0.1034667E+00
         21   -1    0    0  503  502  0.00000000000E+00  0.00000000000E+00  0.41634163936E+03  0.41634163936E+03  0.00000000000E+00 0.  1.
         21   -1    0    0  501  503 -0.00000000000E+00 -0.00000000000E+00 -0.67789627182E+03  0.67789627182E+03  0.00000000000E+00 0.  1.
    9000005    1    1    2  501    0  0.66591026371E+02  0.13521569760E+03 -0.45566090241E+03  0.62477556583E+03  0.40000000000E+03 0.  1.
   -9000005    1    1    2    0  502 -0.66591026371E+02 -0.13521569760E+03  0.19410626994E+03  0.46946234535E+03  0.40000000000E+03 0.  1.
<mgrwt>
<rscale>  2 0.42745485E+03</rscale>
<asrwt>0</asrwt>
<pdfrwt beam="1">  1       21 0.64052561E-01 0.42745485E+03</pdfrwt>
<pdfrwt beam="2">  1       21 0.10429173E+00 0.42745485E+03</pdfrwt>
<totfact> 0.14439229E+03</totfact>
</mgrwt>
</event>
<event>
 4    1  0.8562541E-003  0.4159352E+03  0.7818608E-02  0.1038397E+00
         21   -1    0    0  503  502  0.00000000000E+00  0.00000000000E+00  0.24602282026E+03  0.24602282026E+03  0.00000000000E+00 0.  1.
         21   -1    0    0  501  503 -0.00000000000E+00 -0.00000000000E+00 -0.77892855173E+03  0.77892855173E+03  0.00000000000E+00 0.  1.
    9000005    1    1    2  501    0  0.66253505604E+02 -0.92803841699E+02 -0.42624959379E+03  0.59555922984E+03  0.40000000000E+03 0.  1.
   -9000005    1    1    2    0  502 -0.66253505604E+02  0.92803841699E+02 -0.10665613768E+03  0.42939214215E+03  0.40000000000E+03 0.  1.
<mgrwt>
<rscale>  2 0.41593519E+03</rscale>
<asrwt>0</asrwt>
<pdfrwt beam="1">  1       21 0.37849666E-01 0.41593519E+03</pdfrwt>
<pdfrwt beam="2">  1       21 0.11983516E+00 0.41593519E+03</pdfrwt>
<totfact> 0.31361620E+03</totfact>
</mgrwt>
</event>
<event>
 4    1  0.8562541E-003  0.6720641E+03  0.7818608E-02  0.9766236E-01
         21   -1    0    0  501  502  0.00000000000E+00  0.00000000000E+00  0.66350846125E+03  0.66350846125E+03  0.00000000000E+00 0.  1.
         21   -1    0    0  502  503 -0.00000000000E+00 -0.00000000000E+00 -0.68075720002E+03  0.68075720002E+03  0.00000000000E+00 0.  1.
    9000005    1    1    2  501    0  0.53952144428E+03  0.24224555485E+02 -0.43879435415E+01  0.67207847159E+03  0.40000000000E+03 0.  1.
   -9000005    1    1    2    0  503 -0.53952144428E+03 -0.24224555485E+02 -0.12860795236E+02  0.67218718968E+03  0.40000000000E+03 0.  1.
<mgrwt>
<rscale>  2 0.67206415E+03</rscale>
<asrwt>0</asrwt>
<pdfrwt beam="1">  1       21 0.10207823E+00 0.67206415E+03</pdfrwt>
<pdfrwt beam="2">  1       21 0.10473188E+00 0.67206415E+03</pdfrwt>
<totfact> 0.44301676E+02</totfact>
</mgrwt>
</event>
<event>
 4    1  0.8562541E-003  0.4595186E+03  0.7818608E-02  0.1024921E+00
         21   -1    0    0  503  502  0.00000000000E+00  0.00000000000E+00  0.81978907893E+03  0.81978907893E+03  0.00000000000E+00 0.  1.
         21   -1    0    0  501  503 -0.00000000000E+00 -0.00000000000E+00 -0.28294095386E+03  0.28294095386E+03  0.00000000000E+00 0.  1.
    9000005    1    1    2  501    0  0.84396855102E+02 -0.20984412246E+03  0.10333637791E+03  0.47099447118E+03  0.40000000000E+03 0. -1.
   -9000005    1    1    2    0  502 -0.84396855102E+02  0.20984412246E+03  0.43351174715E+03  0.63173556161E+03  0.40000000000E+03 0. -1.
<mgrwt>
<rscale>  2 0.45951864E+03</rscale>
<asrwt>0</asrwt>
<pdfrwt beam="1">  1       21 0.12612140E+00 0.45951864E+03</pdfrwt>
<pdfrwt beam="2">  1       21 0.43529378E-01 0.45951864E+03</pdfrwt>
<totfact> 0.20277750E+03</totfact>
</mgrwt>
</event>
<event>
 4    1  0.8562541E-003  0.4902024E+03  0.7818608E-02  0.1016368E+00
         21   -1    0    0  501  502  0.00000000000E+00  0.00000000000E+00  0.21382973112E+03  0.21382973112E+03  0.00000000000E+00 0. -1.
         21   -1    0    0  502  503 -0.00000000000E+00 -0.00000000000E+00 -0.12225183691E+04  0.12225183691E+04  0.00000000000E+00 0. -1.
    9000005    1    1    2  501    0 -0.11352826084E+03  0.25963387719E+03 -0.30024745231E+03  0.57484515203E+03  0.40000000000E+03 0.  1.
   -9000005    1    1    2    0  503  0.11352826084E+03 -0.25963387719E+03 -0.70844118569E+03  0.86150294821E+03  0.40000000000E+03 0.  1.
<mgrwt>
<rscale>  2 0.49020242E+03</rscale>
<asrwt>0</asrwt>
<pdfrwt beam="1">  1       21 0.32896882E-01 0.49020242E+03</pdfrwt>
<pdfrwt beam="2">  1       21 0.18807975E+00 0.49020242E+03</pdfrwt>
<totfact> 0.11797907E+03</totfact>
</mgrwt>
</event>
<event>
 4    1  0.8562541E-003  0.5255742E+03  0.7818608E-02  0.1007311E+00
         21   -1    0    0  503  502  0.00000000000E+00  0.00000000000E+00  0.46200157128E+03  0.46200157128E+03  0.00000000000E+00 0.  1.
         21   -1    0    0  501  503 -0.00000000000E+00 -0.00000000000E+00 -0.62947995444E+03  0.62947995444E+03  0.00000000000E+00 0.  1.
    9000005    1    1    2  501    0  0.32341205873E+03  0.10785576461E+03 -0.20598630158E+03  0.56449852270E+03  0.40000000000E+03 0.  1.
   -9000005    1    1    2    0  502 -0.32341205873E+03 -0.10785576461E+03  0.38507918425E+02  0.52698300302E+03  0.40000000000E+03 0.  1.
<mgrwt>
<rscale>  2 0.52557419E+03</rscale>
<asrwt>0</asrwt>
<pdfrwt beam="1">  1       21 0.71077165E-01 0.52557419E+03</pdfrwt>
<pdfrwt beam="2">  1       21 0.96843070E-01 0.52557419E+03</pdfrwt>
<totfact> 0.13207505E+03</totfact>
</mgrwt>
</event>
<event>
 4    1  0.8562541E-003  0.5251342E+03  0.7818608E-02  0.1007419E+00
         21   -1    0    0  501  502  0.00000000000E+00  0.00000000000E+00  0.34640074548E+03  0.34640074548E+03  0.00000000000E+00 0.  1.
         21   -1    0    0  502  503 -0.00000000000E+00 -0.00000000000E+00 -0.82563611567E+03  0.82563611567E+03  0.00000000000E+00 0. -1.
    9000005    1    1    2  501    0  0.21433395251E+03  0.26424768127E+03 -0.12875809539E+03  0.54068893773E+03  0.40000000000E+03 0.  1.
   -9000005    1    1    2    0  503 -0.21433395251E+03 -0.26424768127E+03 -0.35047727480E+03  0.63134792342E+03  0.40000000000E+03 0. -1.
<mgrwt>
<rscale>  2 0.52513415E+03</rscale>
<asrwt>0</asrwt>
<pdfrwt beam="1">  1       21 0.53292423E-01 0.52513415E+03</pdfrwt>
<pdfrwt beam="2">  1       21 0.12702094E+00 0.52513415E+03</pdfrwt>
<totfact> 0.12660995E+03</totfact>
</mgrwt>
</event>
<event>
 4    1  0.8562541E-003  0.4170203E+03  0.7818608E-02  0.1038040E+00
         21   -1    0    0  503  502  0.00000000000E+00  0.00000000000E+00  0.15308678509E+04  0.15308678509E+04  0.00000000000E+00 0. -1.
         21   -1    0    0  501  503 -0.00000000000E+00 -0.00000000000E+00 -0.11373229439E+03  0.11373229439E+03  0.00000000000E+00 0. -1.
    9000005    1    1    2  501    0  0.32106863172E+02 -0.11346854244E+03  0.73665640118E+03  0.84650375911E+03  0.40000000000E+03 0. -1.
   -9000005    1    1    2    0  502 -0.32106863172E+02  0.11346854244E+03  0.68047915532E+03  0.79809638617E+03  0.40000000000E+03 0. -1.
<mgrwt>
<rscale>  2 0.41702034E+03</rscale>
<asrwt>0</asrwt>
<pdfrwt beam="1">  1       21 0.23551812E+00 0.41702034E+03</pdfrwt>
<pdfrwt beam="2">  1       21 0.17497277E-01 0.41702034E+03</pdfrwt>
<totfact> 0.20355937E+03</totfact>
</mgrwt>
</event>
<event>
 4    1  0.8562541E-003  0.4333157E+03  0.7818608E-02  0.1032818E+00
         21   -1    0    0  503  502  0.00000000000E+00  0.00000000000E+00  0.34102522521E+03  0.34102522521E+03  0.00000000000E+00 0. -1.
         21   -1    0    0  501  503 -0.00000000000E+00 -0.00000000000E+00 -0.57415743261E+03  0.57415743261E+03  0.00000000000E+00 0. -1.
    9000005    1    1    2  501    0  0.16628082472E+03  0.10640661682E+02 -0.20928902534E+03  0.48121142181E+03  0.40000000000E+03 0.  1.
   -9000005    1    1    2    0  502 -0.16628082472E+03 -0.10640661682E+02 -0.23843182061E+02  0.43397123601E+03  0.40000000000E+03 0.  1.
<mgrwt>
<rscale>  2 0.43331575E+03</rscale>
<asrwt>0</asrwt>
<pdfrwt beam="1">  1       21 0.52465420E-01 0.43331575E+03</pdfrwt>
<pdfrwt beam="2">  1       21 0.88331911E-01 0.43331575E+03</pdfrwt>
<totfact> 0.33152593E+03</totfact>
</mgrwt>
</event>
<event>
 4    1  0.8562541E-003  0.5102314E+03  0.7818608E-02  0.1011142E+00
         21   -1    0    0  501  502  0.00000000000E+00  0.00000000000E+00  0.10283619852E+04  0.10283619852E+04  0.00000000000E+00 0. -1.
         21   -1    0    0  502  503 -0.00000000000E+00 -0.00000000000E+00 -0.26117539833E+03  0.26117539833E+03  0.00000000000E+00 0.  1.
    9000005    1    1    2  501    0 -0.11164175990E+03 -0.29643243021E+03  0.49657472716E+03  0.71198492111E+03  0.40000000000E+03 0. -1.
   -9000005    1    1    2    0  503  0.11164175990E+03  0.29643243021E+03  0.27061185972E+03  0.57755246243E+03  0.40000000000E+03 0.  1.
<mgrwt>
<rscale>  2 0.51023139E+03</rscale>
<asrwt>0</asrwt>
<pdfrwt beam="1">  1       21 0.15820953E+00 0.51023139E+03</pdfrwt>
<pdfrwt beam="2">  1       21 0.40180831E-01 0.51023139E+03</pdfrwt>
<totfact> 0.12819783E+03</totfact>
</mgrwt>
</event>
<event>
 4    1  0.8562541E-003  0.4747881E+03  0.7818608E-02  0.1020577E+00
         21   -1    0    0  501  502  0.00000000000E+00  0.00000000000E+00  0.12428642985E+04  0.12428642985E+04  0.00000000000E+00 0. -1.
         21   -1    0    0  502  503 -0.00000000000E+00 -0.00000000000E+00 -0.19581360768E+03  0.19581360768E+03  0.00000000000E+00 0. -1.
    9000005    1    1    2  501    0 -0.22011500796E+03 -0.13028105987E+03  0.71886200943E+03  0.86150238531E+03  0.40000000000E+03 0. -1.
   -9000005    1    1    2    0  503  0.22011500796E+03  0.13028105987E+03  0.32818868136E+03  0.57717552085E+03  0.40000000000E+03 0. -1.
<mgrwt>
<rscale>  2 0.47478813E+03</rscale>
<asrwt>0</asrwt>
<pdfrwt beam="1">  1       21 0.19120989E+00 0.47478813E+03</pdfrwt>
<pdfrwt beam="2">  1       21 0.30125171E-01 0.47478813E+03</pdfrwt>
<totfact> 0.13477231E+03</totfact>
</mgrwt>
</event>
<event>
 4    1  0.8562541E-003  0.5824603E+03  0.7818608E-02  0.9942479E-01
         21   -1    0    0  503  502  0.00000000000E+00  0.00000000000E+00  0.56532687843E+03  0.56532687843E+03  0.00000000000E+00 0. -1.
         21   -1    0    0  501  503 -0.00000000000E+00 -0.00000000000E+00 -0.71457117975E+03  0.71457117975E+03  0.00000000000E+00 0. -1.
    9000005    1    1    2  501    0  0.32635301148E+03  0.26972889526E+03 -0.33074374783E+03  0.66981444578E+03  0.40000000000E+03 0. -1.
   -9000005    1    1    2    0  502 -0.32635301148E+03 -0.26972889526E+03  0.18149944651E+03  0.61008361241E+03  0.40000000000E+03 0. -1.
<mgrwt>
<rscale>  2 0.58246027E+03</rscale>
<asrwt>0</asrwt>
<pdfrwt beam="1">  1       21 0.86973366E-01 0.58246027E+03</pdfrwt>
<pdfrwt beam="2">  1       21 0.10993403E+00 0.58246027E+03</pdfrwt>
<totfact> 0.59435815E+02</totfact>
</mgrwt>
</event>
<event>
 4    1  0.8562541E-003  0.6260139E+03  0.7818608E-02  0.9852858E-01
         21   -1    0    0  501  502  0.00000000000E+00  0.00000000000E+00  0.12751885543E+04  0.12751885543E+04  0.00000000000E+00 0.  1.
         21   -1    0    0  502  503 -0.00000000000E+00 -0.00000000000E+00 -0.33211945688E+03  0.33211945688E+03  0.00000000000E+00 0. -1.
    9000005    1    1    2  501    0 -0.47527349157E+03 -0.77514423982E+02  0.25193757826E+03  0.67480806238E+03  0.40000000000E+03 0. -1.
   -9000005    1    1    2    0  503  0.47527349157E+03  0.77514423982E+02  0.69113151913E+03  0.93249994877E+03  0.40000000000E+03 0.  1.
<mgrwt>
<rscale>  2 0.62601388E+03</rscale>
<asrwt>0</asrwt>
<pdfrwt beam="1">  1       21 0.19618285E+00 0.62601388E+03</pdfrwt>
<pdfrwt beam="2">  1       21 0.51095302E-01 0.62601388E+03</pdfrwt>
<totfact> 0.39522542E+02</totfact>
</mgrwt>
</event>
<event>
 4    1  0.8562541E-003  0.4279245E+03  0.7818608E-02  0.1034518E+00
         21   -1    0    0  503  502  0.00000000000E+00  0.00000000000E+00  0.44461675934E+03  0.44461675934E+03  0.00000000000E+00 0. -1.
         21   -1    0    0  501  503 -0.00000000000E+00 -0.00000000000E+00 -0.41239400192E+03  0.41239400192E+03  0.00000000000E+00 0. -1.
    9000005    1    1    2  501    0 -0.13088541354E+03 -0.77384637545E+02  0.67609741288E+00  0.42792502931E+03  0.40000000000E+03 0. -1.
   -9000005    1    1    2    0  502  0.13088541354E+03  0.77384637545E+02  0.31546660003E+02  0.42908573195E+03  0.40000000000E+03 0. -1.
<mgrwt>
<rscale>  2 0.42792450E+03</rscale>
<asrwt>0</asrwt>
<pdfrwt beam="1">  1       21 0.68402578E-01 0.42792450E+03</pdfrwt>
<pdfrwt beam="2">  1       21 0.63445231E-01 0.42792450E+03</pdfrwt>
<totfact> 0.39520806E+03</totfact>
</mgrwt>
</event>
<event>
 4    1  0.8562541E-003  0.5193563E+03  0.7818608E-02  0.1008847E+00
         21   -1    0    0  501  502  0.00000000000E+00  0.00000000000E+00  0.62491386160E+03  0.62491386160E+03  0.00000000000E+00 0.  1.
         21   -1    0    0  502  503 -0.00000000000E+00 -0.00000000000E+00 -0.43241893959E+03  0.43241893959E+03  0.00000000000E+00 0. -1.
    9000005    1    1    2  501    0 -0.11709287220E+03 -0.30987123370E+03  0.11884371250E+03  0.53278020815E+03  0.40000000000E+03 0. -1.
   -9000005    1    1    2    0  503  0.11709287220E+03  0.30987123370E+03  0.73651209513E+02  0.52455259303E+03  0.40000000000E+03 0. -1.
<mgrwt>
<rscale>  2 0.51935626E+03</rscale>
<asrwt>0</asrwt>
<pdfrwt beam="1">  1       21 0.96140594E-01 0.51935626E+03</pdfrwt>
<pdfrwt beam="2">  1       21 0.66525990E-01 0.51935626E+03</pdfrwt>
<totfact> 0.15634507E+03</totfact>
</mgrwt>
</event>
<event>
 4    1  0.8562541E-003  0.4221312E+03  0.7818608E-02  0.1036375E+00
         21   -1    0    0  501  502  0.00000000000E+00  0.00000000000E+00  0.60318943702E+03  0.60318943702E+03  0.00000000000E+00 0.  1.
         21   -1    0    0  502  503 -0.00000000000E+00 -0.00000000000E+00 -0.38380925629E+03  0.38380925629E+03  0.00000000000E+00 0.  1.
    9000005    1    1    2  501    0  0.10415493042E+01  0.13488391022E+03  0.34651448658E+03  0.54613830068E+03  0.40000000000E+03 0.  1.
   -9000005    1    1    2    0  503 -0.10415493042E+01 -0.13488391022E+03 -0.12713430585E+03  0.44086039263E+03  0.40000000000E+03 0.  1.
<mgrwt>
<rscale>  2 0.42213120E+03</rscale>
<asrwt>0</asrwt>
<pdfrwt beam="1">  1       21 0.92798375E-01 0.42213120E+03</pdfrwt>
<pdfrwt beam="2">  1       21 0.59047578E-01 0.42213120E+03</pdfrwt>
<totfact> 0.22944796E+03</totfact>
</mgrwt>
</event>
<event>
 4    1  0.8562541E-003  0.6127247E+03  0.7818608E-02  0.9879352E-01
         21   -1    0    0  503  502  0.00000000000E+00  0.00000000000E+00  0.23905155396E+04  0.23905155396E+04  0.00000000000E+00 0.  1.
         21   -1    0    0  501  503 -0.00000000000E+00 -0.00000000000E+00 -0.20023280803E+03  0.20023280803E+03  0.00000000000E+00 0. -1.
    9000005    1    1    2  501    0 -0.39795488119E+03  0.23887967938E+03  0.49357895331E+03  0.78679843152E+03  0.40000000000E+03 0. -1.
   -9000005    1    1    2    0  502  0.39795488119E+03 -0.23887967938E+03  0.16967037783E+04  0.18039499161E+04  0.40000000000E+03 0.  1.
<mgrwt>
<rscale>  2 0.61272473E+03</rscale>
<asrwt>0</asrwt>
<pdfrwt beam="1">  1       21 0.36777160E+00 0.61272473E+03</pdfrwt>
<pdfrwt beam="2">  1       21 0.30805049E-01 0.61272473E+03</pdfrwt>
<totfact> 0.95808598E+01</totfact>
</mgrwt>
</event>
<event>
 4    1  0.8562541E-003  0.4530169E+03  0.7818608E-02  0.1026826E+00
         21   -1    0    0  501  502  0.00000000000E+00  0.00000000000E+00  0.36263113024E+03  0.36263113024E+03  0.00000000000E+00 0.  1.
         21   -1    0    0  502  503 -0.00000000000E+00 -0.00000000000E+00 -0.56905137785E+03  0.56905137785E+03  0.00000000000E+00 0.  1.
    9000005    1    1    2  501    0 -0.35899712945E+02 -0.20960801030E+03 -0.68716021862E+02  0.45819886407E+03  0.40000000000E+03 0.  1.
   -9000005    1    1    2    0  503  0.35899712945E+02  0.20960801030E+03 -0.13770422574E+03  0.47348364402E+03  0.40000000000E+03 0.  1.
<mgrwt>
<rscale>  2 0.45301690E+03</rscale>
<asrwt>0</asrwt>
<pdfrwt beam="1">  1       21 0.55789405E-01 0.45301690E+03</pdfrwt>
<pdfrwt beam="2">  1       21 0.87546365E-01 0.45301690E+03</pdfrwt>
<totfact> 0.29455524E+03</totfact>
</mgrwt>
</event>
<event>
 4    1  0.8562541E-003  0.5663176E+03  0.7818608E-02  0.9977860E-01
         21   -1    0    0  503  502  0.00000000000E+00  0.00000000000E+00  0.35523984692E+03  0.35523984692E+03  0.00000000000E+00 0.  1.
         21   -1    0    0  501  503 -0.00000000000E+00 -0.00000000000E+00 -0.94093951834E+03  0.94093951834E+03  0.00000000000E+00 0.  1.
    9000005    1    1    2  501    0  0.19344860401E+03 -0.35113147243E+03 -0.42330445676E+03  0.70703771925E+03  0.40000000000E+03 0.  1.
   -9000005    1    1    2    0  502 -0.19344860401E+03  0.35113147243E+03 -0.16239521466E+03  0.58914164601E+03  0.40000000000E+03 0.  1.
<mgrwt>
<rscale>  2 0.56631764E+03</rscale>
<asrwt>0</asrwt>
<pdfrwt beam="1">  1       21 0.54652285E-01 0.56631764E+03</pdfrwt>
<pdfrwt beam="2">  1       21 0.14475992E+00 0.56631764E+03</pdfrwt>
<totfact> 0.83648813E+02</totfact>
</mgrwt>
</event>
<event>
 4    1  0.8562541E-003  0.4519595E+03  0.7818608E-02  0.1027139E+00
         21   -1    0    0  501  502  0.00000000000E+00  0.00000000000E+00  0.16221162717E+03  0.16221162717E+03  0.00000000000E+00 0.  1.
         21   -1    0    0  502  503 -0.00000000000E+00 -0.00000000000E+00 -0.12716098685E+04  0.12716098685E+04  0.00000000000E+00 0. -1.
    9000005    1    1    2  501    0 -0.75321371817E+02 -0.19645381627E+03 -0.62533622170E+03  0.77156516326E+03  0.40000000000E+03 0.  1.
   -9000005    1    1    2    0  503  0.75321371817E+02  0.19645381627E+03 -0.48406201966E+03  0.66225633244E+03  0.40000000000E+03 0. -1.
<mgrwt>
<rscale>  2 0.45195952E+03</rscale>
<asrwt>0</asrwt>
<pdfrwt beam="1">  1       21 0.24955634E-01 0.45195952E+03</pdfrwt>
<pdfrwt beam="2">  1       21 0.19563229E+00 0.45195952E+03</pdfrwt>
<totfact> 0.18391344E+03</totfact>
</mgrwt>
</event>
<event>
 4    1  0.8562541E-003  0.4418067E+03  0.7818608E-02  0.1030194E+00
         21   -1    0    0  501  502  0.00000000000E+00  0.00000000000E+00  0.21866760877E+03  0.21866760877E+03  0.00000000000E+00 0.  1.
         21   -1    0    0  502  503 -0.00000000000E+00 -0.00000000000E+00 -0.98725976833E+03  0.98725976833E+03  0.00000000000E+00 0.  1.
    9000005    1    1    2  501    0 -0.16808473195E+03 -0.83310664848E+02 -0.19763720431E+03  0.48399752946E+03  0.40000000000E+03 0.  1.
   -9000005    1    1    2    0  503  0.16808473195E+03  0.83310664848E+02 -0.57095495526E+03  0.72192984765E+03  0.40000000000E+03 0.  1.
<mgrwt>
<rscale>  2 0.44180668E+03</rscale>
<asrwt>0</asrwt>
<pdfrwt beam="1">  1       21 0.33641171E-01 0.44180668E+03</pdfrwt>
<pdfrwt beam="2">  1       21 0.15188612E+00 0.44180668E+03</pdfrwt>
<totfact> 0.21156917E+03</totfact>
</mgrwt>
</event>
<event>
 4    1  0.8562541E-003  0.5195297E+03  0.7818608E-02  0.1008803E+00
         21   -1    0    0  503  502  0.00000000000E+00  0.00000000000E+00  0.27654812409E+03  0.27654812409E+03  0.00000000000E+00 0.  1.
         21   -1    0    0  501  503 -0.00000000000E+00 -0.00000000000E+00 -0.14071462090E+04  0.14071462090E+04  0.00000000000E+00 0.  1.
    9000005    1    1    2  501    0  0.33121547441E+03  0.14403240612E+02 -0.10312879832E+04  0.11547580041E+04  0.40000000000E+03 0.  1.
   -9000005    1    1    2    0  502 -0.33121547441E+03 -0.14403240612E+02 -0.99310101767E+02  0.52893632901E+03  0.40000000000E+03 0.  1.
<mgrwt>
<rscale>  2 0.51952973E+03</rscale>
<asrwt>0</asrwt>
<pdfrwt beam="1">  1       21 0.42545866E-01 0.51952973E+03</pdfrwt>
<pdfrwt beam="2">  1       21 0.21648403E+00 0.51952973E+03</pdfrwt>
<totfact> 0.44493984E+02</totfact>
</mgrwt>
</event>
<event>
 4    1  0.8562541E-003  0.5980920E+03  0.7818608E-02  0.9909372E-01
         21   -1    0    0  503  502  0.00000000000E+00  0.00000000000E+00  0.11671818690E+04  0.11671818690E+04  0.00000000000E+00 0. -1.
         21   -1    0    0  501  503 -0.00000000000E+00 -0.00000000000E+00 -0.31933181888E+03  0.31933181888E+03  0.00000000000E+00 0. -1.
    9000005    1    1    2  501    0 -0.14261255132E+03  0.42115998458E+03  0.27479829061E+03  0.65820070869E+03  0.40000000000E+03 0. -1.
   -9000005    1    1    2    0  502  0.14261255132E+03 -0.42115998458E+03  0.57305175948E+03  0.82831297916E+03  0.40000000000E+03 0. -1.
<mgrwt>
<rscale>  2 0.59809203E+03</rscale>
<asrwt>0</asrwt>
<pdfrwt beam="1">  1       21 0.17956644E+00 0.59809203E+03</pdfrwt>
<pdfrwt beam="2">  1       21 0.49127973E-01 0.59809203E+03</pdfrwt>
<totfact> 0.56668201E+02</totfact>
</mgrwt>
</event>
<event>
 4    1  0.8562541E-003  0.4972061E+03  0.7818608E-02  0.1014511E+00
         21   -1    0    0  501  502  0.00000000000E+00  0.00000000000E+00  0.64894390462E+03  0.64894390462E+03  0.00000000000E+00 0. -1.
         21   -1    0    0  502  503 -0.00000000000E+00 -0.00000000000E+00 -0.40772010265E+03  0.40772010265E+03  0.00000000000E+00 0. -1.
    9000005    1    1    2  501    0 -0.24744570549E+03  0.16119726440E+03  0.25599561974E+03  0.55923849344E+03  0.40000000000E+03 0. -1.
   -9000005    1    1    2    0  503  0.24744570549E+03 -0.16119726440E+03 -0.14771817774E+02  0.49742551384E+03  0.40000000000E+03 0. -1.
<mgrwt>
<rscale>  2 0.49720613E+03</rscale>
<asrwt>0</asrwt>
<pdfrwt beam="1">  1       21 0.99837524E-01 0.49720613E+03</pdfrwt>
<pdfrwt beam="2">  1       21 0.62726170E-01 0.49720613E+03</pdfrwt>
<totfact> 0.16387137E+03</totfact>
</mgrwt>
</event>
<event>
 4    1  0.8562541E-003  0.4532507E+03  0.7818608E-02  0.1026757E+00
         21   -1    0    0  501  502  0.00000000000E+00  0.00000000000E+00  0.21005944185E+04  0.21005944185E+04  0.00000000000E+00 0.  1.
         21   -1    0    0  502  503 -0.00000000000E+00 -0.00000000000E+00 -0.98091468292E+02  0.98091468292E+02  0.00000000000E+00 0. -1.
    9000005    1    1    2  501    0  0.20480689659E+03 -0.59078730792E+02  0.10612736597E+04  0.11540095070E+04  0.40000000000E+03 0. -1.
   -9000005    1    1    2    0  503 -0.20480689659E+03  0.59078730792E+02  0.94122929051E+03  0.10446763799E+04  0.40000000000E+03 0. -1.
<mgrwt>
<rscale>  2 0.45325066E+03</rscale>
<asrwt>0</asrwt>
<pdfrwt beam="1">  1       21 0.32316834E+00 0.45325066E+03</pdfrwt>
<pdfrwt beam="2">  1       21 0.15090997E-01 0.45325066E+03</pdfrwt>
<totfact> 0.77514369E+02</totfact>
</mgrwt>
</event>
<event>
 4    1  0.8562541E-003  0.4434896E+03  0.7818608E-02  0.1029681E+00
         21   -1    0    0  503  502  0.00000000000E+00  0.00000000000E+00  0.79372031789E+03  0.79372031789E+03  0.00000000000E+00 0.  1.
         21   -1    0    0  501  503 -0.00000000000E+00 -0.00000000000E+00 -0.27535012901E+03  0.27535012901E+03  0.00000000000E+00 0. -1.
    9000005    1    1    2  501    0  0.99994661591E+01 -0.19126682094E+03  0.90100310128E+02  0.45254950227E+03  0.40000000000E+03 0.  1.
   -9000005    1    1    2    0  502 -0.99994661591E+01  0.19126682094E+03  0.42826987875E+03  0.61652094463E+03  0.40000000000E+03 0.  1.
<mgrwt>
<rscale>  2 0.44348956E+03</rscale>
<asrwt>0</asrwt>
<pdfrwt beam="1">  1       21 0.12211082E+00 0.44348956E+03</pdfrwt>
<pdfrwt beam="2">  1       21 0.42361558E-01 0.44348956E+03</pdfrwt>
<totfact> 0.23457502E+03</totfact>
</mgrwt>
</event>
<event>
 4    1  0.8562541E-003  0.4598142E+03  0.7818608E-02  0.1024835E+00
         21   -1    0    0  503  502  0.00000000000E+00  0.00000000000E+00  0.27205262737E+03  0.27205262737E+03  0.00000000000E+00 0. -1.
         21   -1    0    0  501  503 -0.00000000000E+00 -0.00000000000E+00 -0.91723206551E+03  0.91723206551E+03  0.00000000000E+00 0. -1.
    9000005    1    1    2  501    0  0.21783360733E+02 -0.22573127077E+03 -0.55496396204E+03  0.72070390631E+03  0.40000000000E+03 0. -1.
   -9000005    1    1    2    0  502 -0.21783360733E+02  0.22573127077E+03 -0.90215476097E+02  0.46858078656E+03  0.40000000000E+03 0. -1.
<mgrwt>
<rscale>  2 0.45981422E+03</rscale>
<asrwt>0</asrwt>
<pdfrwt beam="1">  1       21 0.41854250E-01 0.45981422E+03</pdfrwt>
<pdfrwt beam="2">  1       21 0.14111263E+00 0.45981422E+03</pdfrwt>
<totfact> 0.16395345E+03</totfact>
</mgrwt>
</event>
<event>
 4    1  0.8562541E-003  0.6218643E+03  0.7818608E-02  0.9861055E-01
         21   -1    0    0  501  502  0.00000000000E+00  0.00000000000E+00  0.76487972350E+03  0.76487972350E+03  0.00000000000E+00 0. -1.
         21   -1    0    0  502  503 -0.00000000000E+00 -0.00000000000E+00 -0.65258861547E+03  0.65258861547E+03  0.00000000000E+00 0.  1.
    9000005    1    1    2  501    0 -0.42841719821E+03  0.20778347839E+03  0.39251827482E+03  0.73538144230E+03  0.40000000000E+03 0. -1.
   -9000005    1    1    2    0  503  0.42841719821E+03 -0.20778347839E+03 -0.28022716679E+03  0.68208689668E+03  0.40000000000E+03 0.  1.
<mgrwt>
<rscale>  2 0.62186435E+03</rscale>
<asrwt>0</asrwt>
<pdfrwt beam="1">  1       21 0.11767380E+00 0.62186435E+03</pdfrwt>
<pdfrwt beam="2">  1       21 0.10039825E+00 0.62186435E+03</pdfrwt>
<totfact> 0.34994888E+02</totfact>
</mgrwt>
</event>
<event>
 4    1  0.8562541E-003  0.4527384E+03  0.7818608E-02  0.1026909E+00
         21   -1    0    0  501  502  0.00000000000E+00  0.00000000000E+00  0.10085325658E+03  0.10085325658E+03  0.00000000000E+00 0. -1.
         21   -1    0    0  502  503 -0.00000000000E+00 -0.00000000000E+00 -0.20326274824E+04  0.20326274824E+04  0.00000000000E+00 0. -1.
    9000005    1    1    2  501    0  0.17986398502E+03  0.11234305760E+03 -0.97768745504E+03  0.10774250672E+04  0.40000000000E+03 0. -1.
   -9000005    1    1    2    0  503 -0.17986398502E+03 -0.11234305760E+03 -0.95408677076E+03  0.10560556717E+04  0.40000000000E+03 0. -1.
<mgrwt>
<rscale>  2 0.45273835E+03</rscale>
<asrwt>0</asrwt>
<pdfrwt beam="1">  1       21 0.15515885E-01 0.45273835E+03</pdfrwt>
<pdfrwt beam="2">  1       21 0.31271192E+00 0.45273835E+03</pdfrwt>
<totfact> 0.85150879E+02</totfact>
</mgrwt>
</event>
<event>
 4    1  0.8562541E-003  0.5240014E+03  0.7818608E-02  0.1007697E+00
         21   -1    0    0  501  502  0.00000000000E+00  0.00000000000E+00  0.52135466245E+03  0.52135466245E+03  0.00000000000E+00 0.  1.
         21   -1    0    0  502  503 -0.00000000000E+00 -0.00000000000E+00 -0.52802536228E+03  0.52802536228E+03  0.00000000000E+00 0.  1.
    9000005    1    1    2  501    0 -0.73748757973E+02 -0.33036131369E+03 -0.30000614908E+02  0.52485951814E+03  0.40000000000E+03 0.  1.
   -9000005    1    1    2    0  503  0.73748757973E+02  0.33036131369E+03  0.23329915080E+02  0.52452050658E+03  0.40000000000E+03 0.  1.
<mgrwt>
<rscale>  2 0.52400141E+03</rscale>
<asrwt>0</asrwt>
<pdfrwt beam="1">  1       21 0.80208409E-01 0.52400141E+03</pdfrwt>
<pdfrwt beam="2">  1       21 0.81234672E-01 0.52400141E+03</pdfrwt>
<totfact> 0.15193346E+03</totfact>
</mgrwt>
</event>
<event>
 4    1  0.8562541E-003  0.4478822E+03  0.7818608E-02  0.1028355E+00
         21   -1    0    0  503  502  0.00000000000E+00  0.00000000000E+00  0.94202442206E+03  0.94202442206E+03  0.00000000000E+00 0.  1.
         21   -1    0    0  501  503 -0.00000000000E+00 -0.00000000000E+00 -0.23027395126E+03  0.23027395126E+03  0.00000000000E+00 0. -1.
    9000005    1    1    2  501    0  0.88858104288E+02  0.18083895412E+03  0.19507603719E+03  0.48852139186E+03  0.40000000000E+03 0. -1.
   -9000005    1    1    2    0  502 -0.88858104288E+02 -0.18083895412E+03  0.51667443362E+03  0.68377698146E+03  0.40000000000E+03 0. -1.
<mgrwt>
<rscale>  2 0.44788223E+03</rscale>
<asrwt>0</asrwt>
<pdfrwt beam="1">  1       21 0.14492683E+00 0.44788223E+03</pdfrwt>
<pdfrwt beam="2">  1       21 0.35426762E-01 0.44788223E+03</pdfrwt>
<totfact> 0.21584689E+03</totfact>
</mgrwt>
</event>
<event>
 4    1  0.8562541E-003  0.4009467E+03  0.7818608E-02  0.1043452E+00
         21   -1    0    0  501  502  0.00000000000E+00  0.00000000000E+00  0.63969662414E+02  0.63969662414E+02  0.00000000000E+00 0.  1.
         21   -1    0    0  502  503 -0.00000000000E+00 -0.00000000000E+00 -0.25468765589E+04  0.25468765589E+04  0.00000000000E+00 0.  1.
    9000005    1    1    2  501    0 -0.19028941984E+02 -0.19902965455E+02 -0.10909835423E+04  0.11623266831E+04  0.40000000000E+03 0. -1.
   -9000005    1    1    2    0  503  0.19028941984E+02  0.19902965455E+02 -0.13919233542E+04  0.14485195382E+04  0.40000000000E+03 0. -1.
<mgrwt>
<rscale>  2 0.40094667E+03</rscale>
<asrwt>0</asrwt>
<pdfrwt beam="1">  1       21 0.98414885E-02 0.40094667E+03</pdfrwt>
<pdfrwt beam="2">  1       21 0.39182708E+00 0.40094667E+03</pdfrwt>
<totfact> 0.65848878E+02</totfact>
</mgrwt>
</event>
<event>
 4    1  0.8562541E-003  0.4369826E+03  0.7818608E-02  0.1031677E+00
         21   -1    0    0  501  502  0.00000000000E+00  0.00000000000E+00  0.55494450927E+03  0.55494450927E+03  0.00000000000E+00 0.  1.
         21   -1    0    0  502  503 -0.00000000000E+00 -0.00000000000E+00 -0.38408945895E+03  0.38408945895E+03  0.00000000000E+00 0.  1.
    9000005    1    1    2  501    0 -0.12616222018E+03  0.12262494424E+03  0.23693481866E+03  0.49708338440E+03  0.40000000000E+03 0.  1.
   -9000005    1    1    2    0  503  0.12616222018E+03 -0.12262494424E+03 -0.66079768338E+02  0.44195058382E+03  0.40000000000E+03 0.  1.
<mgrwt>
<rscale>  2 0.43698259E+03</rscale>
<asrwt>0</asrwt>
<pdfrwt beam="1">  1       21 0.85376078E-01 0.43698259E+03</pdfrwt>
<pdfrwt beam="2">  1       21 0.59090686E-01 0.43698259E+03</pdfrwt>
<totfact> 0.27732425E+03</totfact>
</mgrwt>
</event>
<event>
 4    1  0.8562541E-003  0.4354901E+03  0.7818608E-02  0.1032140E+00
         21   -1    0    0  501  502  0.00000000000E+00  0.00000000000E+00  0.12545626972E+03  0.12545626972E+03  0.00000000000E+00 0. -1.
         21   -1    0    0  502  503 -0.00000000000E+00 -0.00000000000E+00 -0.15196081189E+04  0.15196081189E+04  0.00000000000E+00 0. -1.
    9000005    1    1    2  501    0  0.47468332729E+02 -0.16552447439E+03 -0.75643206246E+03  0.87283506996E+03  0.40000000000E+03 0. -1.
   -9000005    1    1    2    0  503 -0.47468332729E+02  0.16552447439E+03 -0.63771978677E+03  0.77222931871E+03  0.40000000000E+03 0. -1.
<mgrwt>
<rscale>  2 0.43549006E+03</rscale>
<asrwt>0</asrwt>
<pdfrwt beam="1">  1       21 0.19300965E-01 0.43549006E+03</pdfrwt>
<pdfrwt beam="2">  1       21 0.23378586E+00 0.43549006E+03</pdfrwt>
<totfact> 0.17191311E+03</totfact>
</mgrwt>
</event>
<event>
 4    1  0.8562541E-003  0.5889380E+03  0.7818608E-02  0.9928626E-01
         21   -1    0    0  501  502  0.00000000000E+00  0.00000000000E+00  0.45184081848E+03  0.45184081848E+03  0.00000000000E+00 0.  1.
         21   -1    0    0  502  503 -0.00000000000E+00 -0.00000000000E+00 -0.77248857310E+03  0.77248857310E+03  0.00000000000E+00 0. -1.
    9000005    1    1    2  501    0 -0.13829983511E+03 -0.40953769203E+03 -0.20885700524E+03  0.62487535895E+03  0.40000000000E+03 0. -1.
   -9000005    1    1    2    0  503  0.13829983511E+03  0.40953769203E+03 -0.11179074937E+03  0.59945403263E+03  0.40000000000E+03 0. -1.
<mgrwt>
<rscale>  2 0.58893800E+03</rscale>
<asrwt>0</asrwt>
<pdfrwt beam="1">  1       21 0.69513972E-01 0.58893800E+03</pdfrwt>
<pdfrwt beam="2">  1       21 0.11884440E+00 0.58893800E+03</pdfrwt>
<totfact> 0.81834896E+02</totfact>
</mgrwt>
</event>
<event>
 4    1  0.8562541E-003  0.4953690E+03  0.7818608E-02  0.1014995E+00
         21   -1    0    0  501  502  0.00000000000E+00  0.00000000000E+00  0.65642669000E+03  0.65642669000E+03  0.00000000000E+00 0. -1.
         21   -1    0    0  502  503 -0.00000000000E+00 -0.00000000000E+00 -0.60688790250E+03  0.60688790250E+03  0.00000000000E+00 0.  1.
    9000005    1    1    2  501    0 -0.24832305643E+03 -0.15403277870E+03  0.41620596336E+03  0.64700683242E+03  0.40000000000E+03 0. -1.
   -9000005    1    1    2    0  503  0.24832305643E+03  0.15403277870E+03 -0.36666717586E+03  0.61630776007E+03  0.40000000000E+03 0.  1.
<mgrwt>
<rscale>  2 0.49536899E+03</rscale>
<asrwt>0</asrwt>
<pdfrwt beam="1">  1       21 0.10098872E+00 0.49536899E+03</pdfrwt>
<pdfrwt beam="2">  1       21 0.93367370E-01 0.49536899E+03</pdfrwt>
<totfact> 0.63915210E+02</totfact>
</mgrwt>
</event>
<event>
 4    1  0.8562541E-003  0.5329744E+03  0.7818608E-02  0.1005513E+00
         21   -1    0    0  501  502  0.00000000000E+00  0.00000000000E+00  0.26746230885E+04  0.26746230885E+04  0.00000000000E+00 0.  1.
         21   -1    0    0  502  503 -0.00000000000E+00 -0.00000000000E+00 -0.11432180452E+03  0.11432180452E+03  0.00000000000E+00 0. -1.
    9000005    1    1    2  501    0  0.29343463216E+03  0.19482771771E+03  0.16516894268E+04  0.17355516949E+04  0.40000000000E+03 0.  1.
   -9000005    1    1    2    0  503 -0.29343463216E+03 -0.19482771771E+03  0.90861185722E+03  0.10533931982E+04  0.40000000000E+03 0. -1.
<mgrwt>
<rscale>  2 0.53297441E+03</rscale>
<asrwt>0</asrwt>
<pdfrwt beam="1">  1       21 0.41148043E+00 0.53297441E+03</pdfrwt>
<pdfrwt beam="2">  1       21 0.17587972E-01 0.53297441E+03</pdfrwt>
<totfact> 0.15588788E+02</totfact>
</mgrwt>
</event>
<event>
 4    1  0.8562541E-003  0.4441267E+03  0.7818608E-02  0.1029488E+00
         21   -1    0    0  501  502  0.00000000000E+00  0.00000000000E+00  0.10498763181E+03  0.10498763181E+03  0.00000000000E+00 0.  1.
         21   -1    0    0  502  503 -0.00000000000E+00 -0.00000000000E+00 -0.19327439945E+04  0.19327439945E+04  0.00000000000E+00 0.  1.
    9000005    1    1    2  501    0 -0.17813189497E+03 -0.74280398137E+02 -0.74362853729E+03  0.86615931042E+03  0.40000000000E+03 0.  1.
   -9000005    1    1    2    0  503  0.17813189497E+03  0.74280398137E+02 -0.10841278254E+04  0.11715723159E+04  0.40000000000E+03 0.  1.
<mgrwt>
<rscale>  2 0.44412673E+03</rscale>
<asrwt>0</asrwt>
<pdfrwt beam="1">  1       21 0.16151945E-01 0.44412673E+03</pdfrwt>
<pdfrwt beam="2">  1       21 0.29734519E+00 0.44412673E+03</pdfrwt>
<totfact> 0.98211327E+02</totfact>
</mgrwt>
</event>
<event>
 4    1  0.8562541E-003  0.4244261E+03  0.7818608E-02  0.1035635E+00
         21   -1    0    0  501  502  0.00000000000E+00  0.00000000000E+00  0.34802581617E+03  0.34802581617E+03  0.00000000000E+00 0.  1.
         21   -1    0    0  502  503 -0.00000000000E+00 -0.00000000000E+00 -0.51935694419E+03  0.51935694419E+03  0.00000000000E+00 0.  1.
    9000005    1    1    2  501    0  0.12156670421E+03  0.73205767565E+02 -0.11090298121E+03  0.43867644024E+03  0.40000000000E+03 0.  1.
   -9000005    1    1    2    0  503 -0.12156670421E+03 -0.73205767565E+02 -0.60428146812E+02  0.42870632011E+03  0.40000000000E+03 0.  1.
<mgrwt>
<rscale>  2 0.42442614E+03</rscale>
<asrwt>0</asrwt>
<pdfrwt beam="1">  1       21 0.53542434E-01 0.42442614E+03</pdfrwt>
<pdfrwt beam="2">  1       21 0.79901068E-01 0.42442614E+03</pdfrwt>
<totfact> 0.40230498E+03</totfact>
</mgrwt>
</event>
<event>
 4    1  0.8562541E-003  0.4082691E+03  0.7818608E-02  0.1040953E+00
         21   -1    0    0  501  502  0.00000000000E+00  0.00000000000E+00  0.24910329253E+03  0.24910329253E+03  0.00000000000E+00 0. -1.
         21   -1    0    0  502  503 -0.00000000000E+00 -0.00000000000E+00 -0.68854015665E+03  0.68854015665E+03  0.00000000000E+00 0. -1.
    9000005    1    1    2  501    0 -0.32375040940E+02 -0.75070279505E+02 -0.14101321296E+03  0.43193566230E+03  0.40000000000E+03 0. -1.
   -9000005    1    1    2    0  503  0.32375040940E+02  0.75070279505E+02 -0.29842365115E+03  0.50570778688E+03  0.40000000000E+03 0. -1.
<mgrwt>
<rscale>  2 0.40826914E+03</rscale>
<asrwt>0</asrwt>
<pdfrwt beam="1">  1       21 0.38323583E-01 0.40826914E+03</pdfrwt>
<pdfrwt beam="2">  1       21 0.10592926E+00 0.40826914E+03</pdfrwt>
<totfact> 0.41682993E+03</totfact>
</mgrwt>
</event>
<event>
 4    1  0.8562541E-003  0.5523597E+03  0.7818608E-02  0.1000949E+00
         21   -1    0    0  501  502  0.00000000000E+00  0.00000000000E+00  0.79645574993E+03  0.79645574993E+03  0.00000000000E+00 0.  1.
         21   -1    0    0  502  503 -0.00000000000E+00 -0.00000000000E+00 -0.45525742594E+03  0.45525742594E+03  0.00000000000E+00 0. -1.
    9000005    1    1    2  501    0  0.14687408375E+03 -0.35146721070E+03  0.41980956173E+03  0.69378762226E+03  0.40000000000E+03 0.  1.
   -9000005    1    1    2    0  503 -0.14687408375E+03  0.35146721070E+03 -0.78611237746E+02  0.55792555361E+03  0.40000000000E+03 0.  1.
<mgrwt>
<rscale>  2 0.55235966E+03</rscale>
<asrwt>0</asrwt>
<pdfrwt beam="1">  1       21 0.12253165E+00 0.55235966E+03</pdfrwt>
<pdfrwt beam="2">  1       21 0.70039604E-01 0.55235966E+03</pdfrwt>
<totfact> 0.75295722E+02</totfact>
</mgrwt>
</event>
<event>
 4    1  0.8562541E-003  0.4096081E+03  0.7818608E-02  0.1040503E+00
         21   -1    0    0  501  502  0.00000000000E+00  0.00000000000E+00  0.58103140069E+03  0.58103140069E+03  0.00000000000E+00 0. -1.
         21   -1    0    0  502  503 -0.00000000000E+00 -0.00000000000E+00 -0.29455649825E+03  0.29455649825E+03  0.00000000000E+00 0. -1.
    9000005    1    1    2  501    0 -0.79737516055E+02  0.37692120778E+02  0.20465030343E+03  0.45788701022E+03  0.40000000000E+03 0.  1.
   -9000005    1    1    2    0  503  0.79737516055E+02 -0.37692120778E+02  0.81824599019E+02  0.41770088872E+03  0.40000000000E+03 0.  1.
<mgrwt>
<rscale>  2 0.40960807E+03</rscale>
<asrwt>0</asrwt>
<pdfrwt beam="1">  1       21 0.89389446E-01 0.40960807E+03</pdfrwt>
<pdfrwt beam="2">  1       21 0.45316385E-01 0.40960807E+03</pdfrwt>
<totfact> 0.44334002E+03</totfact>
</mgrwt>
</event>
<event>
 4    1  0.8562541E-003  0.4413729E+03  0.7818608E-02  0.1030326E+00
         21   -1    0    0  503  502  0.00000000000E+00  0.00000000000E+00  0.25199823169E+03  0.25199823169E+03  0.00000000000E+00 0. -1.
         21   -1    0    0  501  503 -0.00000000000E+00 -0.00000000000E+00 -0.77786882477E+03  0.77786882477E+03  0.00000000000E+00 0. -1.
    9000005    1    1    2  501    0  0.95160383653E+02  0.16048220277E+03 -0.30341774206E+03  0.53560466971E+03  0.40000000000E+03 0. -1.
   -9000005    1    1    2    0  502 -0.95160383653E+02 -0.16048220277E+03 -0.22245285103E+03  0.49426238675E+03  0.40000000000E+03 0. -1.
<mgrwt>
<rscale>  2 0.44137290E+03</rscale>
<asrwt>0</asrwt>
<pdfrwt beam="1">  1       21 0.38768959E-01 0.44137290E+03</pdfrwt>
<pdfrwt beam="2">  1       21 0.11967213E+00 0.44137290E+03</pdfrwt>
<totfact> 0.29674999E+03</totfact>
</mgrwt>
</event>
<event>
 4    1  0.8562541E-003  0.5787764E+03  0.7818608E-02  0.9950444E-01
         21   -1    0    0  501  502  0.00000000000E+00  0.00000000000E+00  0.22563890130E+03  0.22563890130E+03  0.00000000000E+00 0. -1.
         21   -1    0    0  502  503 -0.00000000000E+00 -0.00000000000E+00 -0.18113638186E+04  0.18113638186E+04  0.00000000000E+00 0. -1.
    9000005    1    1    2  501    0 -0.38228047956E+03  0.16983438147E+03 -0.36026898435E+03  0.68174469068E+03  0.40000000000E+03 0. -1.
   -9000005    1    1    2    0  503  0.38228047956E+03 -0.16983438147E+03 -0.12254559329E+04  0.13552580292E+04  0.40000000000E+03 0. -1.
<mgrwt>
<rscale>  2 0.57877637E+03</rscale>
<asrwt>0</asrwt>
<pdfrwt beam="1">  1       21 0.34713677E-01 0.57877637E+03</pdfrwt>
<pdfrwt beam="2">  1       21 0.27867136E+00 0.57877637E+03</pdfrwt>
<totfact> 0.26972378E+02</totfact>
</mgrwt>
</event>
<event>
 4    1  0.8562541E-003  0.5037479E+03  0.7818608E-02  0.1012805E+00
         21   -1    0    0  501  502  0.00000000000E+00  0.00000000000E+00  0.33519729726E+03  0.33519729726E+03  0.00000000000E+00 0.  1.
         21   -1    0    0  502  503 -0.00000000000E+00 -0.00000000000E+00 -0.77200033457E+03  0.77200033457E+03  0.00000000000E+00 0. -1.
    9000005    1    1    2  501    0 -0.19879077903E+03 -0.23290370640E+03 -0.29543461464E+03  0.58398931652E+03  0.40000000000E+03 0. -1.
   -9000005    1    1    2    0  503  0.19879077903E+03  0.23290370640E+03 -0.14136842267E+03  0.52320831531E+03  0.40000000000E+03 0.  1.
<mgrwt>
<rscale>  2 0.50374786E+03</rscale>
<asrwt>0</asrwt>
<pdfrwt beam="1">  1       21 0.51568815E-01 0.50374786E+03</pdfrwt>
<pdfrwt beam="2">  1       21 0.11876928E+00 0.50374786E+03</pdfrwt>
<totfact> 0.16268712E+03</totfact>
</mgrwt>
</event>
<event>
 4    1  0.8562541E-003  0.4905631E+03  0.7818608E-02  0.1016272E+00
         21   -1    0    0  503  502  0.00000000000E+00  0.00000000000E+00  0.75470903493E+03  0.75470903493E+03  0.00000000000E+00 0.  1.
         21   -1    0    0  501  503 -0.00000000000E+00 -0.00000000000E+00 -0.76011246642E+03  0.76011246642E+03  0.00000000000E+00 0.  1.
    9000005    1    1    2  501    0  0.27328810926E+03  0.77238342305E+02 -0.57977695434E+03  0.75946920212E+03  0.40000000000E+03 0.  1.
   -9000005    1    1    2    0  502 -0.27328810926E+03 -0.77238342305E+02  0.57437352286E+03  0.75535229923E+03  0.40000000000E+03 0.  1.
<mgrwt>
<rscale>  2 0.49056310E+03</rscale>
<asrwt>0</asrwt>
<pdfrwt beam="1">  1       21 0.11610908E+00 0.49056310E+03</pdfrwt>
<pdfrwt beam="2">  1       21 0.11694038E+00 0.49056310E+03</pdfrwt>
<totfact> 0.26046437E+02</totfact>
</mgrwt>
</event>
<event>
 4    1  0.8562541E-003  0.4188483E+03  0.7818608E-02  0.1037442E+00
         21   -1    0    0  501  502  0.00000000000E+00  0.00000000000E+00  0.50473057965E+03  0.50473057965E+03  0.00000000000E+00 0.  1.
         21   -1    0    0  502  503 -0.00000000000E+00 -0.00000000000E+00 -0.40318698328E+03  0.40318698328E+03  0.00000000000E+00 0.  1.
    9000005    1    1    2  501    0 -0.25638815574E+02 -0.12155877861E+03  0.21936136523E+03  0.47281422787E+03  0.40000000000E+03 0.  1.
   -9000005    1    1    2    0  503  0.25638815574E+02  0.12155877861E+03 -0.11781776886E+03  0.43510333506E+03  0.40000000000E+03 0.  1.
<mgrwt>
<rscale>  2 0.41884828E+03</rscale>
<asrwt>0</asrwt>
<pdfrwt beam="1">  1       21 0.77650859E-01 0.41884828E+03</pdfrwt>
<pdfrwt beam="2">  1       21 0.62028766E-01 0.41884828E+03</pdfrwt>
<totfact> 0.31268634E+03</totfact>
</mgrwt>
</event>
