<event>
 3    1  0.1628330E-001  0.1250000E+03  0.7546771E-02  0.1235069E+00
         21   -1    0    0  502  501  0.00000000000E+00  0.00000000000E+00  0.25844932008E+02  0.25844932008E+02  0.00000000000E+00 0.  1.
         21   -1    0    0  501  502 -0.00000000000E+00 -0.00000000000E+00 -0.15114181762E+03  0.15114181762E+03  0.00000000000E+00 0.  1.
         25    1    1    2    0    0  0.00000000000E+00  0.00000000000E+00 -0.12529688562E+03  0.17698674963E+03  0.12500000000E+03 0.  0.
<mgrwt>
<rscale>  0 0.12500000E+03</rscale>
<asrwt>0</asrwt>
<pdfrwt beam="1">  1       21 0.39761433E-02 0.12500000E+03</pdfrwt>
<pdfrwt beam="2">  1       21 0.23252588E-01 0.12500000E+03</pdfrwt>
<totfact> 0.67498899E+06</totfact>
</mgrwt>
</event>
<event>
 3    1  0.1628330E-001  0.1250000E+03  0.7546771E-02  0.1235069E+00
         21   -1    0    0  502  501  0.00000000000E+00  0.00000000000E+00  0.87102112872E+02  0.87102112872E+02  0.00000000000E+00 0.  1.
         21   -1    0    0  501  502 -0.00000000000E+00 -0.00000000000E+00 -0.44846788111E+02  0.44846788111E+02  0.00000000000E+00 0.  1.
         25    1    1    2    0    0  0.00000000000E+00  0.00000000000E+00  0.42255324760E+02  0.13194890098E+03  0.12500000000E+03 0.  0.
<mgrwt>
<rscale>  0 0.12500000E+03</rscale>
<asrwt>0</asrwt>
<pdfrwt beam="1">  1       21 0.13400325E-01 0.12500000E+03</pdfrwt>
<pdfrwt beam="2">  1       21 0.68995059E-02 0.12500000E+03</pdfrwt>
<totfact> 0.73103084E+06</totfact>
</mgrwt>
</event>
<event>
 3    1  0.1628330E-001  0.1250000E+03  0.7546771E-02  0.1235069E+00
         21   -1    0    0  502  501  0.00000000000E+00  0.00000000000E+00  0.78190066978E+02  0.78190066978E+02  0.00000000000E+00 0. -1.
         21   -1    0    0  501  502 -0.00000000000E+00 -0.00000000000E+00 -0.49958391788E+02  0.49958391788E+02  0.00000000000E+00 0. -1.
         25    1    1    2    0    0  0.00000000000E+00  0.00000000000E+00  0.28231675190E+02  0.12814845877E+03  0.12500000000E+03 0.  0.
<mgrwt>
<rscale>  0 0.12500000E+03</rscale>
<asrwt>0</asrwt>
<pdfrwt beam="1">  1       21 0.12029241E-01 0.12500000E+03</pdfrwt>
<pdfrwt beam="2">  1       21 0.76859064E-02 0.12500000E+03</pdfrwt>
<totfact> 0.73613514E+06</totfact>
</mgrwt>
</event>
<event>
 3    1  0.1628330E-001  0.1250000E+03  0.7546771E-02  0.1235069E+00
         21   -1    0    0  502  501  0.00000000000E+00  0.00000000000E+00  0.15968356915E+04  0.15968356915E+04  0.00000000000E+00 0. -1.
         21   -1    0    0  501  502 -0.00000000000E+00 -0.00000000000E+00 -0.24462441695E+01  0.24462441695E+01  0.00000000000E+00 0. -1.
         25    1    1    2    0    0  0.00000000000E+00  0.00000000000E+00  0.15943894474E+04  0.15992819357E+04  0.12500000000E+03 0.  0.
<mgrwt>
<rscale>  0 0.12500000E+03</rscale>
<asrwt>0</asrwt>
<pdfrwt beam="1">  1       21 0.24566620E+00 0.12500000E+03</pdfrwt>
<pdfrwt beam="2">  1       21 0.37634653E-03 0.12500000E+03</pdfrwt>
<totfact> 0.12583544E+06</totfact>
</mgrwt>
</event>
<event>
 3    1  0.1628330E-001  0.1250000E+03  0.7546771E-02  0.1235069E+00
         21   -1    0    0  502  501  0.00000000000E+00  0.00000000000E+00  0.22710345057E+02  0.22710345057E+02  0.00000000000E+00 0. -1.
         21   -1    0    0  501  502 -0.00000000000E+00 -0.00000000000E+00 -0.17200311093E+03  0.17200311093E+03  0.00000000000E+00 0. -1.
         25    1    1    2    0    0  0.00000000000E+00  0.00000000000E+00 -0.14929276587E+03  0.19471345598E+03  0.12500000000E+03 0.  0.
<mgrwt>
<rscale>  0 0.12500000E+03</rscale>
<asrwt>0</asrwt>
<pdfrwt beam="1">  1       21 0.34938992E-02 0.12500000E+03</pdfrwt>
<pdfrwt beam="2">  1       21 0.26462017E-01 0.12500000E+03</pdfrwt>
<totfact> 0.65502397E+06</totfact>
</mgrwt>
</event>
<event>
 3    1  0.1628330E-001  0.1250000E+03  0.7546771E-02  0.1235069E+00
         21   -1    0    0  502  501  0.00000000000E+00  0.00000000000E+00  0.29608547937E+02  0.29608547937E+02  0.00000000000E+00 0.  1.
         21   -1    0    0  501  502 -0.00000000000E+00 -0.00000000000E+00 -0.13192980650E+03  0.13192980650E+03  0.00000000000E+00 0.  1.
         25    1    1    2    0    0  0.00000000000E+00  0.00000000000E+00 -0.10232125856E+03  0.16153835444E+03  0.12500000000E+03 0.  0.
<mgrwt>
<rscale>  0 0.12500000E+03</rscale>
<asrwt>0</asrwt>
<pdfrwt beam="1">  1       21 0.45551612E-02 0.12500000E+03</pdfrwt>
<pdfrwt beam="2">  1       21 0.20296893E-01 0.12500000E+03</pdfrwt>
<totfact> 0.69332012E+06</totfact>
</mgrwt>
</event>
<event>
 3    1  0.1628330E-001  0.1250000E+03  0.7546771E-02  0.1235069E+00
         21   -1    0    0  502  501  0.00000000000E+00  0.00000000000E+00  0.71293661334E+02  0.71293661334E+02  0.00000000000E+00 0.  1.
         21   -1    0    0  501  502 -0.00000000000E+00 -0.00000000000E+00 -0.54790986000E+02  0.54790986000E+02  0.00000000000E+00 0.  1.
         25    1    1    2    0    0  0.00000000000E+00  0.00000000000E+00  0.16502675334E+02  0.12608464733E+03  0.12500000000E+03 0.  0.
<mgrwt>
<rscale>  0 0.12500000E+03</rscale>
<asrwt>0</asrwt>
<pdfrwt beam="1">  1       21 0.10968256E-01 0.12500000E+03</pdfrwt>
<pdfrwt beam="2">  1       21 0.84293825E-02 0.12500000E+03</pdfrwt>
<totfact> 0.73894376E+06</totfact>
</mgrwt>
</event>
<event>
 3    1  0.1628330E-001  0.1250000E+03  0.7546771E-02  0.1235069E+00
         21   -1    0    0  502  501  0.00000000000E+00  0.00000000000E+00  0.15315682548E+03  0.15315682548E+03  0.00000000000E+00 0. -1.
         21   -1    0    0  501  502 -0.00000000000E+00 -0.00000000000E+00 -0.25504903145E+02  0.25504903145E+02  0.00000000000E+00 0. -1.
         25    1    1    2    0    0  0.00000000000E+00  0.00000000000E+00  0.12765192234E+03  0.17866172863E+03  0.12500000000E+03 0.  0.
<mgrwt>
<rscale>  0 0.12500000E+03</rscale>
<asrwt>0</asrwt>
<pdfrwt beam="1">  1       21 0.23562588E-01 0.12500000E+03</pdfrwt>
<pdfrwt beam="2">  1       21 0.39238314E-02 0.12500000E+03</pdfrwt>
<totfact> 0.67305391E+06</totfact>
</mgrwt>
</event>
<event>
 3    1  0.1628330E-001  0.1250000E+03  0.7546771E-02  0.1235069E+00
         21   -1    0    0  502  501  0.00000000000E+00  0.00000000000E+00  0.11975523634E+03  0.11975523634E+03  0.00000000000E+00 0. -1.
         21   -1    0    0  501  502 -0.00000000000E+00 -0.00000000000E+00 -0.32618615431E+02  0.32618615431E+02  0.00000000000E+00 0. -1.
         25    1    1    2    0    0  0.00000000000E+00  0.00000000000E+00  0.87136620908E+02  0.15237385177E+03  0.12500000000E+03 0.  0.
<mgrwt>
<rscale>  0 0.12500000E+03</rscale>
<asrwt>0</asrwt>
<pdfrwt beam="1">  1       21 0.18423882E-01 0.12500000E+03</pdfrwt>
<pdfrwt beam="2">  1       21 0.50182486E-02 0.12500000E+03</pdfrwt>
<totfact> 0.70462261E+06</totfact>
</mgrwt>
</event>
<event>
 3    1  0.1628330E-001  0.1250000E+03  0.7546771E-02  0.1235069E+00
         21   -1    0    0  502  501  0.00000000000E+00  0.00000000000E+00  0.54630695264E+03  0.54630695264E+03  0.00000000000E+00 0.  1.
         21   -1    0    0  501  502 -0.00000000000E+00 -0.00000000000E+00 -0.71502842516E+01  0.71502842516E+01  0.00000000000E+00 0.  1.
         25    1    1    2    0    0  0.00000000000E+00  0.00000000000E+00  0.53915666839E+03  0.55345723689E+03  0.12500000000E+03 0.  0.
<mgrwt>
<rscale>  0 0.12500000E+03</rscale>
<asrwt>0</asrwt>
<pdfrwt beam="1">  1       21 0.84047190E-01 0.12500000E+03</pdfrwt>
<pdfrwt beam="2">  1       21 0.11000442E-02 0.12500000E+03</pdfrwt>
<totfact> 0.39285794E+06</totfact>
</mgrwt>
</event>
<event>
 3    1  0.1628330E-001  0.1250000E+03  0.7546771E-02  0.1235069E+00
         21   -1    0    0  502  501  0.00000000000E+00  0.00000000000E+00  0.27846820930E+02  0.27846820930E+02  0.00000000000E+00 0.  1.
         21   -1    0    0  501  502 -0.00000000000E+00 -0.00000000000E+00 -0.14027633567E+03  0.14027633567E+03  0.00000000000E+00 0.  1.
         25    1    1    2    0    0  0.00000000000E+00  0.00000000000E+00 -0.11242951474E+03  0.16812315660E+03  0.12500000000E+03 0.  0.
<mgrwt>
<rscale>  0 0.12500000E+03</rscale>
<asrwt>0</asrwt>
<pdfrwt beam="1">  1       21 0.42841264E-02 0.12500000E+03</pdfrwt>
<pdfrwt beam="2">  1       21 0.21580974E-01 0.12500000E+03</pdfrwt>
<totfact> 0.68540304E+06</totfact>
</mgrwt>
</event>
<event>
 3    1  0.1628330E-001  0.1250000E+03  0.7546771E-02  0.1235069E+00
         21   -1    0    0  502  501  0.00000000000E+00  0.00000000000E+00  0.53845998466E+03  0.53845998466E+03  0.00000000000E+00 0.  1.
         21   -1    0    0  501  502 -0.00000000000E+00 -0.00000000000E+00 -0.72544852195E+01  0.72544852195E+01  0.00000000000E+00 0.  1.
         25    1    1    2    0    0  0.00000000000E+00  0.00000000000E+00  0.53120549944E+03  0.54571446988E+03  0.12500000000E+03 0.  0.
<mgrwt>
<rscale>  0 0.12500000E+03</rscale>
<asrwt>0</asrwt>
<pdfrwt beam="1">  1       21 0.82839966E-01 0.12500000E+03</pdfrwt>
<pdfrwt beam="2">  1       21 0.11160751E-02 0.12500000E+03</pdfrwt>
<totfact> 0.39668659E+06</totfact>
</mgrwt>
</event>
<event>
 3    1  0.1628330E-001  0.1250000E+03  0.7546771E-02  0.1235069E+00
         21   -1    0    0  502  501  0.00000000000E+00  0.00000000000E+00  0.31221148340E+03  0.31221148340E+03  0.00000000000E+00 0.  1.
         21   -1    0    0  501  502 -0.00000000000E+00 -0.00000000000E+00 -0.12511551329E+02  0.12511551329E+02  0.00000000000E+00 0.  1.
         25    1    1    2    0    0  0.00000000000E+00  0.00000000000E+00  0.29969993207E+03  0.32472303473E+03  0.12500000000E+03 0.  0.
<mgrwt>
<rscale>  0 0.12500000E+03</rscale>
<asrwt>0</asrwt>
<pdfrwt beam="1">  1       21 0.48032530E-01 0.12500000E+03</pdfrwt>
<pdfrwt beam="2">  1       21 0.19248543E-02 0.12500000E+03</pdfrwt>
<totfact> 0.53461178E+06</totfact>
</mgrwt>
</event>
<event>
 3    1  0.1628330E-001  0.1250000E+03  0.7546771E-02  0.1235069E+00
         21   -1    0    0  502  501  0.00000000000E+00  0.00000000000E+00  0.59774150715E+01  0.59774150715E+01  0.00000000000E+00 0. -1.
         21   -1    0    0  501  502 -0.00000000000E+00 -0.00000000000E+00 -0.65350154763E+03  0.65350154763E+03  0.00000000000E+00 0. -1.
         25    1    1    2    0    0  0.00000000000E+00  0.00000000000E+00 -0.64752413256E+03  0.65947896270E+03  0.12500000000E+03 0.  0.
<mgrwt>
<rscale>  0 0.12500000E+03</rscale>
<asrwt>0</asrwt>
<pdfrwt beam="1">  1       21 0.91960220E-03 0.12500000E+03</pdfrwt>
<pdfrwt beam="2">  1       21 0.10053871E+00 0.12500000E+03</pdfrwt>
<totfact> 0.34531496E+06</totfact>
</mgrwt>
</event>
<event>
 3    1  0.1628330E-001  0.1250000E+03  0.7546771E-02  0.1235069E+00
         21   -1    0    0  502  501  0.00000000000E+00  0.00000000000E+00  0.10044502963E+03  0.10044502963E+03  0.00000000000E+00 0. -1.
         21   -1    0    0  501  502 -0.00000000000E+00 -0.00000000000E+00 -0.38889430510E+02  0.38889430510E+02  0.00000000000E+00 0. -1.
         25    1    1    2    0    0  0.00000000000E+00  0.00000000000E+00  0.61555599125E+02  0.13933446014E+03  0.12500000000E+03 0.  0.
<mgrwt>
<rscale>  0 0.12500000E+03</rscale>
<asrwt>0</asrwt>
<pdfrwt beam="1">  1       21 0.15453081E-01 0.12500000E+03</pdfrwt>
<pdfrwt beam="2">  1       21 0.59829893E-02 0.12500000E+03</pdfrwt>
<totfact> 0.72126312E+06</totfact>
</mgrwt>
</event>
<event>
 3    1  0.1628330E-001  0.1250000E+03  0.7546771E-02  0.1235069E+00
         21   -1    0    0  502  501  0.00000000000E+00  0.00000000000E+00  0.64951288219E+02  0.64951288219E+02  0.00000000000E+00 0.  1.
         21   -1    0    0  501  502 -0.00000000000E+00 -0.00000000000E+00 -0.60141224403E+02  0.60141224403E+02  0.00000000000E+00 0.  1.
         25    1    1    2    0    0  0.00000000000E+00  0.00000000000E+00  0.48100638157E+01  0.12509251262E+03  0.12500000000E+03 0.  0.
<mgrwt>
<rscale>  0 0.12500000E+03</rscale>
<asrwt>0</asrwt>
<pdfrwt beam="1">  1       21 0.99925059E-02 0.12500000E+03</pdfrwt>
<pdfrwt beam="2">  1       21 0.92524960E-02 0.12500000E+03</pdfrwt>
<totfact> 0.74031086E+06</totfact>
</mgrwt>
</event>
<event>
 3    1  0.1628330E-001  0.1250000E+03  0.7546771E-02  0.1235069E+00
         21   -1    0    0  502  501  0.00000000000E+00  0.00000000000E+00  0.17205821062E+02  0.17205821062E+02  0.00000000000E+00 0.  1.
         21   -1    0    0  501  502 -0.00000000000E+00 -0.00000000000E+00 -0.22703072325E+03  0.22703072325E+03  0.00000000000E+00 0.  1.
         25    1    1    2    0    0  0.00000000000E+00  0.00000000000E+00 -0.20982490219E+03  0.24423654432E+03  0.12500000000E+03 0.  0.
<mgrwt>
<rscale>  0 0.12500000E+03</rscale>
<asrwt>0</asrwt>
<pdfrwt beam="1">  1       21 0.26470495E-02 0.12500000E+03</pdfrwt>
<pdfrwt beam="2">  1       21 0.34927802E-01 0.12500000E+03</pdfrwt>
<totfact> 0.60425095E+06</totfact>
</mgrwt>
</event>
<event>
 3    1  0.1628330E-001  0.1250000E+03  0.7546771E-02  0.1235069E+00
         21   -1    0    0  502  501  0.00000000000E+00  0.00000000000E+00  0.54094117140E+01  0.54094117140E+01  0.00000000000E+00 0. -1.
         21   -1    0    0  501  502 -0.00000000000E+00 -0.00000000000E+00 -0.72212103765E+03  0.72212103765E+03  0.00000000000E+00 0. -1.
         25    1    1    2    0    0  0.00000000000E+00  0.00000000000E+00 -0.71671162594E+03  0.72753044936E+03  0.12500000000E+03 0.  0.
<mgrwt>
<rscale>  0 0.12500000E+03</rscale>
<asrwt>0</asrwt>
<pdfrwt beam="1">  1       21 0.83221721E-03 0.12500000E+03</pdfrwt>
<pdfrwt beam="2">  1       21 0.11109554E+00 0.12500000E+03</pdfrwt>
<totfact> 0.31875384E+06</totfact>
</mgrwt>
</event>
<event>
 3    1  0.1628330E-001  0.1250000E+03  0.7546771E-02  0.1235069E+00
         21   -1    0    0  502  501  0.00000000000E+00  0.00000000000E+00  0.16318537893E+02  0.16318537893E+02  0.00000000000E+00 0.  1.
         21   -1    0    0  501  502 -0.00000000000E+00 -0.00000000000E+00 -0.23937499951E+03  0.23937499951E+03  0.00000000000E+00 0.  1.
         25    1    1    2    0    0  0.00000000000E+00  0.00000000000E+00 -0.22305646162E+03  0.25569353740E+03  0.12500000000E+03 0.  0.
<mgrwt>
<rscale>  0 0.12500000E+03</rscale>
<asrwt>0</asrwt>
<pdfrwt beam="1">  1       21 0.25105443E-02 0.12500000E+03</pdfrwt>
<pdfrwt beam="2">  1       21 0.36826924E-01 0.12500000E+03</pdfrwt>
<totfact> 0.59346254E+06</totfact>
</mgrwt>
</event>
<event>
 3    1  0.1628330E-001  0.1250000E+03  0.7546771E-02  0.1235069E+00
         21   -1    0    0  502  501  0.00000000000E+00  0.00000000000E+00  0.30714828248E+03  0.30714828248E+03  0.00000000000E+00 0.  1.
         21   -1    0    0  501  502 -0.00000000000E+00 -0.00000000000E+00 -0.12717798610E+02  0.12717798610E+02  0.00000000000E+00 0.  1.
         25    1    1    2    0    0  0.00000000000E+00  0.00000000000E+00  0.29443048387E+03  0.31986608109E+03  0.12500000000E+03 0.  0.
<mgrwt>
<rscale>  0 0.12500000E+03</rscale>
<asrwt>0</asrwt>
<pdfrwt beam="1">  1       21 0.47253577E-01 0.12500000E+03</pdfrwt>
<pdfrwt beam="2">  1       21 0.19565846E-02 0.12500000E+03</pdfrwt>
<totfact> 0.53843959E+06</totfact>
</mgrwt>
</event>
<event>
 3    1  0.1628330E-001  0.1250000E+03  0.7546771E-02  0.1235069E+00
         21   -1    0    0  502  501  0.00000000000E+00  0.00000000000E+00  0.96331121853E+01  0.96331121853E+01  0.00000000000E+00 0. -1.
         21   -1    0    0  501  502 -0.00000000000E+00 -0.00000000000E+00 -0.40550238852E+03  0.40550238852E+03  0.00000000000E+00 0. -1.
         25    1    1    2    0    0  0.00000000000E+00  0.00000000000E+00 -0.39586927633E+03  0.41513550070E+03  0.12500000000E+03 0.  0.
<mgrwt>
<rscale>  0 0.12500000E+03</rscale>
<asrwt>0</asrwt>
<pdfrwt beam="1">  1       21 0.14820174E-02 0.12500000E+03</pdfrwt>
<pdfrwt beam="2">  1       21 0.62384977E-01 0.12500000E+03</pdfrwt>
<totfact> 0.47053373E+06</totfact>
</mgrwt>
</event>
<event>
 3    1  0.1628330E-001  0.1250000E+03  0.7546771E-02  0.1235069E+00
         21   -1    0    0  502  501  0.00000000000E+00  0.00000000000E+00  0.10640179924E+02  0.10640179924E+02  0.00000000000E+00 0.  1.
         21   -1    0    0  501  502 -0.00000000000E+00 -0.00000000000E+00 -0.36712255129E+03  0.36712255129E+03  0.00000000000E+00 0.  1.
         25    1    1    2    0    0  0.00000000000E+00  0.00000000000E+00 -0.35648237137E+03  0.37776273121E+03  0.12500000000E+03 0.  0.
<mgrwt>
<rscale>  0 0.12500000E+03</rscale>
<asrwt>0</asrwt>
<pdfrwt beam="1">  1       21 0.16369510E-02 0.12500000E+03</pdfrwt>
<pdfrwt beam="2">  1       21 0.56480385E-01 0.12500000E+03</pdfrwt>
<totfact> 0.49551192E+06</totfact>
</mgrwt>
</event>
<event>
 3    1  0.1628330E-001  0.1250000E+03  0.7546771E-02  0.1235069E+00
         21   -1    0    0  502  501  0.00000000000E+00  0.00000000000E+00  0.10541989059E+02  0.10541989059E+02  0.00000000000E+00 0. -1.
         21   -1    0    0  501  502 -0.00000000000E+00 -0.00000000000E+00 -0.37054202753E+03  0.37054202753E+03  0.00000000000E+00 0. -1.
         25    1    1    2    0    0  0.00000000000E+00  0.00000000000E+00 -0.36000003848E+03  0.38108401659E+03  0.12500000000E+03 0.  0.
<mgrwt>
<rscale>  0 0.12500000E+03</rscale>
<asrwt>0</asrwt>
<pdfrwt beam="1">  1       21 0.16218444E-02 0.12500000E+03</pdfrwt>
<pdfrwt beam="2">  1       21 0.57006467E-01 0.12500000E+03</pdfrwt>
<totfact> 0.49321579E+06</totfact>
</mgrwt>
</event>
<event>
 3    1  0.1628330E-001  0.1250000E+03  0.7546771E-02  0.1235069E+00
         21   -1    0    0  502  501  0.00000000000E+00  0.00000000000E+00  0.26533215788E+01  0.26533215788E+01  0.00000000000E+00 0.  1.
         21   -1    0    0  501  502 -0.00000000000E+00 -0.00000000000E+00 -0.14722112959E+04  0.14722112959E+04  0.00000000000E+00 0.  1.
         25    1    1    2    0    0  0.00000000000E+00  0.00000000000E+00 -0.14695579743E+04  0.14748646175E+04  0.12500000000E+03 0.  0.
<mgrwt>
<rscale>  0 0.12500000E+03</rscale>
<asrwt>0</asrwt>
<pdfrwt beam="1">  1       21 0.40820268E-03 0.12500000E+03</pdfrwt>
<pdfrwt beam="2">  1       21 0.22649440E+00 0.12500000E+03</pdfrwt>
<totfact> 0.14369777E+06</totfact>
</mgrwt>
</event>
<event>
 3    1  0.1628330E-001  0.1250000E+03  0.7546771E-02  0.1235069E+00
         21   -1    0    0  502  501  0.00000000000E+00  0.00000000000E+00  0.86381485623E+01  0.86381485623E+01  0.00000000000E+00 0. -1.
         21   -1    0    0  501  502 -0.00000000000E+00 -0.00000000000E+00 -0.45220917096E+03  0.45220917096E+03  0.00000000000E+00 0. -1.
         25    1    1    2    0    0  0.00000000000E+00  0.00000000000E+00 -0.44357102240E+03  0.46084731953E+03  0.12500000000E+03 0.  0.
<mgrwt>
<rscale>  0 0.12500000E+03</rscale>
<asrwt>0</asrwt>
<pdfrwt beam="1">  1       21 0.13289455E-02 0.12500000E+03</pdfrwt>
<pdfrwt beam="2">  1       21 0.69570662E-01 0.12500000E+03</pdfrwt>
<totfact> 0.44250217E+06</totfact>
</mgrwt>
</event>
<event>
 3    1  0.1628330E-001  0.1250000E+03  0.7546771E-02  0.1235069E+00
         21   -1    0    0  502  501  0.00000000000E+00  0.00000000000E+00  0.68565447268E+01  0.68565447268E+01  0.00000000000E+00 0.  1.
         21   -1    0    0  501  502 -0.00000000000E+00 -0.00000000000E+00 -0.56971115273E+03  0.56971115273E+03  0.00000000000E+00 0.  1.
         25    1    1    2    0    0  0.00000000000E+00  0.00000000000E+00 -0.56285460800E+03  0.57656769745E+03  0.12500000000E+03 0.  0.
<mgrwt>
<rscale>  0 0.12500000E+03</rscale>
<asrwt>0</asrwt>
<pdfrwt beam="1">  1       21 0.10548529E-02 0.12500000E+03</pdfrwt>
<pdfrwt beam="2">  1       21 0.87647878E-01 0.12500000E+03</pdfrwt>
<totfact> 0.38174228E+06</totfact>
</mgrwt>
</event>
<event>
 3    1  0.1628330E-001  0.1250000E+03  0.7546771E-02  0.1235069E+00
         21   -1    0    0  502  501  0.00000000000E+00  0.00000000000E+00  0.19547610770E+02  0.19547610770E+02  0.00000000000E+00 0.  1.
         21   -1    0    0  501  502 -0.00000000000E+00 -0.00000000000E+00 -0.19983260593E+03  0.19983260593E+03  0.00000000000E+00 0.  1.
         25    1    1    2    0    0  0.00000000000E+00  0.00000000000E+00 -0.18028499516E+03  0.21938021670E+03  0.12500000000E+03 0.  0.
<mgrwt>
<rscale>  0 0.12500000E+03</rscale>
<asrwt>0</asrwt>
<pdfrwt beam="1">  1       21 0.30073249E-02 0.12500000E+03</pdfrwt>
<pdfrwt beam="2">  1       21 0.30743477E-01 0.12500000E+03</pdfrwt>
<totfact> 0.62885942E+06</totfact>
</mgrwt>
</event>
<event>
 3    1  0.1628330E-001  0.1250000E+03  0.7546771E-02  0.1235069E+00
         21   -1    0    0  502  501  0.00000000000E+00  0.00000000000E+00  0.15086899591E+03  0.15086899591E+03  0.00000000000E+00 0. -1.
         21   -1    0    0  501  502 -0.00000000000E+00 -0.00000000000E+00 -0.25891668307E+02  0.25891668307E+02  0.00000000000E+00 0. -1.
         25    1    1    2    0    0  0.00000000000E+00  0.00000000000E+00  0.12497732761E+03  0.17676066422E+03  0.12500000000E+03 0.  0.
<mgrwt>
<rscale>  0 0.12500000E+03</rscale>
<asrwt>0</asrwt>
<pdfrwt beam="1">  1       21 0.23210614E-01 0.12500000E+03</pdfrwt>
<pdfrwt beam="2">  1       21 0.39833337E-02 0.12500000E+03</pdfrwt>
<totfact> 0.67525100E+06</totfact>
</mgrwt>
</event>
<event>
 3    1  0.1628330E-001  0.1250000E+03  0.7546771E-02  0.1235069E+00
         21   -1    0    0  502  501  0.00000000000E+00  0.00000000000E+00  0.55617691641E+03  0.55617691641E+03  0.00000000000E+00 0. -1.
         21   -1    0    0  501  502 -0.00000000000E+00 -0.00000000000E+00 -0.70233946874E+01  0.70233946874E+01  0.00000000000E+00 0. -1.
         25    1    1    2    0    0  0.00000000000E+00  0.00000000000E+00  0.54915352173E+03  0.56320031110E+03  0.12500000000E+03 0.  0.
<mgrwt>
<rscale>  0 0.12500000E+03</rscale>
<asrwt>0</asrwt>
<pdfrwt beam="1">  1       21 0.85565645E-01 0.12500000E+03</pdfrwt>
<pdfrwt beam="2">  1       21 0.10805227E-02 0.12500000E+03</pdfrwt>
<totfact> 0.38811564E+06</totfact>
</mgrwt>
</event>
<event>
 3    1  0.1628330E-001  0.1250000E+03  0.7546771E-02  0.1235069E+00
         21   -1    0    0  502  501  0.00000000000E+00  0.00000000000E+00  0.18997920170E+03  0.18997920170E+03  0.00000000000E+00 0. -1.
         21   -1    0    0  501  502 -0.00000000000E+00 -0.00000000000E+00 -0.20561461281E+02  0.20561461281E+02  0.00000000000E+00 0. -1.
         25    1    1    2    0    0  0.00000000000E+00  0.00000000000E+00  0.16941774042E+03  0.21054066299E+03  0.12500000000E+03 0.  0.
<mgrwt>
<rscale>  0 0.12500000E+03</rscale>
<asrwt>0</asrwt>
<pdfrwt beam="1">  1       21 0.29227568E-01 0.12500000E+03</pdfrwt>
<pdfrwt beam="2">  1       21 0.31633019E-02 0.12500000E+03</pdfrwt>
<totfact> 0.63802697E+06</totfact>
</mgrwt>
</event>
<event>
 3    1  0.1628330E-001  0.1250000E+03  0.7546771E-02  0.1235069E+00
         21   -1    0    0  502  501  0.00000000000E+00  0.00000000000E+00  0.16553851342E+02  0.16553851342E+02  0.00000000000E+00 0. -1.
         21   -1    0    0  501  502 -0.00000000000E+00 -0.00000000000E+00 -0.23597227734E+03  0.23597227734E+03  0.00000000000E+00 0. -1.
         25    1    1    2    0    0  0.00000000000E+00  0.00000000000E+00 -0.21941842600E+03  0.25252612868E+03  0.12500000000E+03 0.  0.
<mgrwt>
<rscale>  0 0.12500000E+03</rscale>
<asrwt>0</asrwt>
<pdfrwt beam="1">  1       21 0.25467464E-02 0.12500000E+03</pdfrwt>
<pdfrwt beam="2">  1       21 0.36303427E-01 0.12500000E+03</pdfrwt>
<totfact> 0.59641170E+06</totfact>
</mgrwt>
</event>
<event>
 3    1  0.1628330E-001  0.1250000E+03  0.7546771E-02  0.1235069E+00
         21   -1    0    0  502  501  0.00000000000E+00  0.00000000000E+00  0.18847084489E+04  0.18847084489E+04  0.00000000000E+00 0. -1.
         21   -1    0    0  501  502 -0.00000000000E+00 -0.00000000000E+00 -0.20726017344E+01  0.20726017344E+01  0.00000000000E+00 0. -1.
         25    1    1    2    0    0  0.00000000000E+00  0.00000000000E+00  0.18826358471E+04  0.18867810506E+04  0.12500000000E+03 0.  0.
<mgrwt>
<rscale>  0 0.12500000E+03</rscale>
<asrwt>0</asrwt>
<pdfrwt beam="1">  1       21 0.28995377E+00 0.12500000E+03</pdfrwt>
<pdfrwt beam="2">  1       21 0.31886331E-03 0.12500000E+03</pdfrwt>
<totfact> 0.91060196E+05</totfact>
</mgrwt>
</event>
<event>
 3    1  0.1628330E-001  0.1250000E+03  0.7546771E-02  0.1235069E+00
         21   -1    0    0  502  501  0.00000000000E+00  0.00000000000E+00  0.14955666722E+04  0.14955666722E+04  0.00000000000E+00 0.  1.
         21   -1    0    0  501  502 -0.00000000000E+00 -0.00000000000E+00 -0.26118862319E+01  0.26118862319E+01  0.00000000000E+00 0.  1.
         25    1    1    2    0    0  0.00000000000E+00  0.00000000000E+00  0.14929547860E+04  0.14981785584E+04  0.12500000000E+03 0.  0.
<mgrwt>
<rscale>  0 0.12500000E+03</rscale>
<asrwt>0</asrwt>
<pdfrwt beam="1">  1       21 0.23008650E+00 0.12500000E+03</pdfrwt>
<pdfrwt beam="2">  1       21 0.40182985E-03 0.12500000E+03</pdfrwt>
<totfact> 0.14020204E+06</totfact>
</mgrwt>
</event>
<event>
 3    1  0.1628330E-001  0.1250000E+03  0.7546771E-02  0.1235069E+00
         21   -1    0    0  502  501  0.00000000000E+00  0.00000000000E+00  0.24552356754E+04  0.24552356754E+04  0.00000000000E+00 0.  1.
         21   -1    0    0  501  502 -0.00000000000E+00 -0.00000000000E+00 -0.15909877977E+01  0.15909877977E+01  0.00000000000E+00 0.  1.
         25    1    1    2    0    0  0.00000000000E+00  0.00000000000E+00  0.24536446876E+04  0.24568266632E+04  0.12500000000E+03 0.  0.
<mgrwt>
<rscale>  0 0.12500000E+03</rscale>
<asrwt>0</asrwt>
<pdfrwt beam="1">  1       21 0.37772553E+00 0.12500000E+03</pdfrwt>
<pdfrwt beam="2">  1       21 0.24476932E-03 0.12500000E+03</pdfrwt>
<totfact> 0.42913002E+05</totfact>
</mgrwt>
</event>
<event>
 3    1  0.1628330E-001  0.1250000E+03  0.7546771E-02  0.1235069E+00
         21   -1    0    0  502  501  0.00000000000E+00  0.00000000000E+00  0.25476747333E+03  0.25476747333E+03  0.00000000000E+00 0.  1.
         21   -1    0    0  501  502 -0.00000000000E+00 -0.00000000000E+00 -0.15332608786E+02  0.15332608786E+02  0.00000000000E+00 0.  1.
         25    1    1    2    0    0  0.00000000000E+00  0.00000000000E+00  0.23943486455E+03  0.27010008212E+03  0.12500000000E+03 0.  0.
<mgrwt>
<rscale>  0 0.12500000E+03</rscale>
<asrwt>0</asrwt>
<pdfrwt beam="1">  1       21 0.39194993E-01 0.12500000E+03</pdfrwt>
<pdfrwt beam="2">  1       21 0.23588631E-02 0.12500000E+03</pdfrwt>
<totfact> 0.58035731E+06</totfact>
</mgrwt>
</event>
<event>
 3    1  0.1628330E-001  0.1250000E+03  0.7546771E-02  0.1235069E+00
         21   -1    0    0  502  501  0.00000000000E+00  0.00000000000E+00  0.10401728205E+04  0.10401728205E+04  0.00000000000E+00 0.  1.
         21   -1    0    0  501  502 -0.00000000000E+00 -0.00000000000E+00 -0.37553855697E+01  0.37553855697E+01  0.00000000000E+00 0.  1.
         25    1    1    2    0    0  0.00000000000E+00  0.00000000000E+00  0.10364174349E+04  0.10439282060E+04  0.12500000000E+03 0.  0.
<mgrwt>
<rscale>  0 0.12500000E+03</rscale>
<asrwt>0</asrwt>
<pdfrwt beam="1">  1       21 0.16002636E+00 0.12500000E+03</pdfrwt>
<pdfrwt beam="2">  1       21 0.57775245E-03 0.12500000E+03</pdfrwt>
<totfact> 0.22543443E+06</totfact>
</mgrwt>
</event>
<event>
 3    1  0.1628330E-001  0.1250000E+03  0.7546771E-02  0.1235069E+00
         21   -1    0    0  502  501  0.00000000000E+00  0.00000000000E+00  0.17089373658E+02  0.17089373658E+02  0.00000000000E+00 0. -1.
         21   -1    0    0  501  502 -0.00000000000E+00 -0.00000000000E+00 -0.22857771608E+03  0.22857771608E+03  0.00000000000E+00 0. -1.
         25    1    1    2    0    0  0.00000000000E+00  0.00000000000E+00 -0.21148834242E+03  0.24566708974E+03  0.12500000000E+03 0.  0.
<mgrwt>
<rscale>  0 0.12500000E+03</rscale>
<asrwt>0</asrwt>
<pdfrwt beam="1">  1       21 0.26291344E-02 0.12500000E+03</pdfrwt>
<pdfrwt beam="2">  1       21 0.35165803E-01 0.12500000E+03</pdfrwt>
<totfact> 0.60288541E+06</totfact>
</mgrwt>
</event>
<event>
 3    1  0.1628330E-001  0.1250000E+03  0.7546771E-02  0.1235069E+00
         21   -1    0    0  502  501  0.00000000000E+00  0.00000000000E+00  0.22062116947E+03  0.22062116947E+03  0.00000000000E+00 0. -1.
         21   -1    0    0  501  502 -0.00000000000E+00 -0.00000000000E+00 -0.17705689845E+02  0.17705689845E+02  0.00000000000E+00 0. -1.
         25    1    1    2    0    0  0.00000000000E+00  0.00000000000E+00  0.20291547963E+03  0.23832685932E+03  0.12500000000E+03 0.  0.
<mgrwt>
<rscale>  0 0.12500000E+03</rscale>
<asrwt>0</asrwt>
<pdfrwt beam="1">  1       21 0.33941717E-01 0.12500000E+03</pdfrwt>
<pdfrwt beam="2">  1       21 0.27239524E-02 0.12500000E+03</pdfrwt>
<totfact> 0.60994946E+06</totfact>
</mgrwt>
</event>
<event>
 3    1  0.1628330E-001  0.1250000E+03  0.7546771E-02  0.1235069E+00
         21   -1    0    0  502  501  0.00000000000E+00  0.00000000000E+00  0.23541728890E+02  0.23541728890E+02  0.00000000000E+00 0. -1.
         21   -1    0    0  501  502 -0.00000000000E+00 -0.00000000000E+00 -0.16592876497E+03  0.16592876497E+03  0.00000000000E+00 0. -1.
         25    1    1    2    0    0  0.00000000000E+00  0.00000000000E+00 -0.14238703608E+03  0.18947049386E+03  0.12500000000E+03 0.  0.
<mgrwt>
<rscale>  0 0.12500000E+03</rscale>
<asrwt>0</asrwt>
<pdfrwt beam="1">  1       21 0.36218046E-02 0.12500000E+03</pdfrwt>
<pdfrwt beam="2">  1       21 0.25527501E-01 0.12500000E+03</pdfrwt>
<totfact> 0.66081362E+06</totfact>
</mgrwt>
</event>
<event>
 3    1  0.1628330E-001  0.1250000E+03  0.7546771E-02  0.1235069E+00
         21   -1    0    0  502  501  0.00000000000E+00  0.00000000000E+00  0.29706952868E+02  0.29706952868E+02  0.00000000000E+00 0.  1.
         21   -1    0    0  501  502 -0.00000000000E+00 -0.00000000000E+00 -0.13149278613E+03  0.13149278613E+03  0.00000000000E+00 0.  1.
         25    1    1    2    0    0  0.00000000000E+00  0.00000000000E+00 -0.10178583326E+03  0.16119973900E+03  0.12500000000E+03 0.  0.
<mgrwt>
<rscale>  0 0.12500000E+03</rscale>
<asrwt>0</asrwt>
<pdfrwt beam="1">  1       21 0.45703004E-02 0.12500000E+03</pdfrwt>
<pdfrwt beam="2">  1       21 0.20229659E-01 0.12500000E+03</pdfrwt>
<totfact> 0.69373197E+06</totfact>
</mgrwt>
</event>
<event>
 3    1  0.1628330E-001  0.1250000E+03  0.7546771E-02  0.1235069E+00
         21   -1    0    0  502  501  0.00000000000E+00  0.00000000000E+00  0.10054338497E+02  0.10054338497E+02  0.00000000000E+00 0.  1.
         21   -1    0    0  501  502 -0.00000000000E+00 -0.00000000000E+00 -0.38851387401E+03  0.38851387401E+03  0.00000000000E+00 0.  1.
         25    1    1    2    0    0  0.00000000000E+00  0.00000000000E+00 -0.37845953551E+03  0.39856821250E+03  0.12500000000E+03 0.  0.
<mgrwt>
<rscale>  0 0.12500000E+03</rscale>
<asrwt>0</asrwt>
<pdfrwt beam="1">  1       21 0.15468213E-02 0.12500000E+03</pdfrwt>
<pdfrwt beam="2">  1       21 0.59771365E-01 0.12500000E+03</pdfrwt>
<totfact> 0.48136465E+06</totfact>
</mgrwt>
</event>
<event>
 3    1  0.1628330E-001  0.1250000E+03  0.7546771E-02  0.1235069E+00
         21   -1    0    0  502  501  0.00000000000E+00  0.00000000000E+00  0.54276780872E+02  0.54276780872E+02  0.00000000000E+00 0. -1.
         21   -1    0    0  501  502 -0.00000000000E+00 -0.00000000000E+00 -0.71969080281E+02  0.71969080281E+02  0.00000000000E+00 0. -1.
         25    1    1    2    0    0  0.00000000000E+00  0.00000000000E+00 -0.17692299409E+02  0.12624586115E+03  0.12500000000E+03 0.  0.
<mgrwt>
<rscale>  0 0.12500000E+03</rscale>
<asrwt>0</asrwt>
<pdfrwt beam="1">  1       21 0.83502740E-02 0.12500000E+03</pdfrwt>
<pdfrwt beam="2">  1       21 0.11072166E-01 0.12500000E+03</pdfrwt>
<totfact> 0.73872210E+06</totfact>
</mgrwt>
</event>
<event>
 3    1  0.1628330E-001  0.1250000E+03  0.7546771E-02  0.1235069E+00
         21   -1    0    0  502  501  0.00000000000E+00  0.00000000000E+00  0.96577792215E+01  0.96577792215E+01  0.00000000000E+00 0. -1.
         21   -1    0    0  501  502 -0.00000000000E+00 -0.00000000000E+00 -0.40446669057E+03  0.40446669057E+03  0.00000000000E+00 0. -1.
         25    1    1    2    0    0  0.00000000000E+00  0.00000000000E+00 -0.39480891135E+03  0.41412446980E+03  0.12500000000E+03 0.  0.
<mgrwt>
<rscale>  0 0.12500000E+03</rscale>
<asrwt>0</asrwt>
<pdfrwt beam="1">  1       21 0.14858123E-02 0.12500000E+03</pdfrwt>
<pdfrwt beam="2">  1       21 0.62225642E-01 0.12500000E+03</pdfrwt>
<totfact> 0.47118389E+06</totfact>
</mgrwt>
</event>
<event>
 3    1  0.1628330E-001  0.1250000E+03  0.7546771E-02  0.1235069E+00
         21   -1    0    0  502  501  0.00000000000E+00  0.00000000000E+00  0.15616607781E+03  0.15616607781E+03  0.00000000000E+00 0. -1.
         21   -1    0    0  501  502 -0.00000000000E+00 -0.00000000000E+00 -0.25013434766E+02  0.25013434766E+02  0.00000000000E+00 0. -1.
         25    1    1    2    0    0  0.00000000000E+00  0.00000000000E+00  0.13115264304E+03  0.18117951258E+03  0.12500000000E+03 0.  0.
<mgrwt>
<rscale>  0 0.12500000E+03</rscale>
<asrwt>0</asrwt>
<pdfrwt beam="1">  1       21 0.24025550E-01 0.12500000E+03</pdfrwt>
<pdfrwt beam="2">  1       21 0.38482208E-02 0.12500000E+03</pdfrwt>
<totfact> 0.67016484E+06</totfact>
</mgrwt>
</event>
<event>
 3    1  0.1628330E-001  0.1250000E+03  0.7546771E-02  0.1235069E+00
         21   -1    0    0  502  501  0.00000000000E+00  0.00000000000E+00  0.45580116851E+02  0.45580116851E+02  0.00000000000E+00 0.  1.
         21   -1    0    0  501  502 -0.00000000000E+00 -0.00000000000E+00 -0.85700745629E+02  0.85700745629E+02  0.00000000000E+00 0.  1.
         25    1    1    2    0    0  0.00000000000E+00  0.00000000000E+00 -0.40120628778E+02  0.13128086248E+03  0.12500000000E+03 0.  0.
<mgrwt>
<rscale>  0 0.12500000E+03</rscale>
<asrwt>0</asrwt>
<pdfrwt beam="1">  1       21 0.70123257E-02 0.12500000E+03</pdfrwt>
<pdfrwt beam="2">  1       21 0.13184730E-01 0.12500000E+03</pdfrwt>
<totfact> 0.73192848E+06</totfact>
</mgrwt>
</event>
<event>
 3    1  0.1628330E-001  0.1250000E+03  0.7546771E-02  0.1235069E+00
         21   -1    0    0  502  501  0.00000000000E+00  0.00000000000E+00  0.14934272639E+03  0.14934272639E+03  0.00000000000E+00 0.  1.
         21   -1    0    0  501  502 -0.00000000000E+00 -0.00000000000E+00 -0.26156278879E+02  0.26156278879E+02  0.00000000000E+00 0.  1.
         25    1    1    2    0    0  0.00000000000E+00  0.00000000000E+00  0.12318644751E+03  0.17549900527E+03  0.12500000000E+03 0.  0.
<mgrwt>
<rscale>  0 0.12500000E+03</rscale>
<asrwt>0</asrwt>
<pdfrwt beam="1">  1       21 0.22975804E-01 0.12500000E+03</pdfrwt>
<pdfrwt beam="2">  1       21 0.40240430E-02 0.12500000E+03</pdfrwt>
<totfact> 0.67671665E+06</totfact>
</mgrwt>
</event>
<event>
 3    1  0.1628330E-001  0.1250000E+03  0.7546771E-02  0.1235069E+00
         21   -1    0    0  502  501  0.00000000000E+00  0.00000000000E+00  0.47960714023E+02  0.47960714023E+02  0.00000000000E+00 0. -1.
         21   -1    0    0  501  502 -0.00000000000E+00 -0.00000000000E+00 -0.81446869163E+02  0.81446869163E+02  0.00000000000E+00 0. -1.
         25    1    1    2    0    0  0.00000000000E+00  0.00000000000E+00 -0.33486155140E+02  0.12940758319E+03  0.12500000000E+03 0.  0.
<mgrwt>
<rscale>  0 0.12500000E+03</rscale>
<asrwt>0</asrwt>
<pdfrwt beam="1">  1       21 0.73785715E-02 0.12500000E+03</pdfrwt>
<pdfrwt beam="2">  1       21 0.12530287E-01 0.12500000E+03</pdfrwt>
<totfact> 0.73444200E+06</totfact>
</mgrwt>
</event>
<event>
 3    1  0.1628330E-001  0.1250000E+03  0.7546771E-02  0.1235069E+00
         21   -1    0    0  502  501  0.00000000000E+00  0.00000000000E+00  0.19499560023E+03  0.19499560023E+03  0.00000000000E+00 0. -1.
         21   -1    0    0  501  502 -0.00000000000E+00 -0.00000000000E+00 -0.20032503274E+02  0.20032503274E+02  0.00000000000E+00 0. -1.
         25    1    1    2    0    0  0.00000000000E+00  0.00000000000E+00  0.17496309696E+03  0.21502810350E+03  0.12500000000E+03 0.  0.
<mgrwt>
<rscale>  0 0.12500000E+03</rscale>
<asrwt>0</asrwt>
<pdfrwt beam="1">  1       21 0.29999322E-01 0.12500000E+03</pdfrwt>
<pdfrwt beam="2">  1       21 0.30819237E-02 0.12500000E+03</pdfrwt>
<totfact> 0.63334375E+06</totfact>
</mgrwt>
</event>
<event>
 3    1  0.1628330E-001  0.1250000E+03  0.7546771E-02  0.1235069E+00
         21   -1    0    0  502  501  0.00000000000E+00  0.00000000000E+00  0.10549546672E+02  0.10549546672E+02  0.00000000000E+00 0.  1.
         21   -1    0    0  501  502 -0.00000000000E+00 -0.00000000000E+00 -0.37027657409E+03  0.37027657409E+03  0.00000000000E+00 0.  1.
         25    1    1    2    0    0  0.00000000000E+00  0.00000000000E+00 -0.35972702741E+03  0.38082612076E+03  0.12500000000E+03 0.  0.
<mgrwt>
<rscale>  0 0.12500000E+03</rscale>
<asrwt>0</asrwt>
<pdfrwt beam="1">  1       21 0.16230071E-02 0.12500000E+03</pdfrwt>
<pdfrwt beam="2">  1       21 0.56965628E-01 0.12500000E+03</pdfrwt>
<totfact> 0.49339348E+06</totfact>
</mgrwt>
</event>
<event>
 3    1  0.1628330E-001  0.1250000E+03  0.7546771E-02  0.1235069E+00
         21   -1    0    0  502  501  0.00000000000E+00  0.00000000000E+00  0.63709087661E+03  0.63709087661E+03  0.00000000000E+00 0. -1.
         21   -1    0    0  501  502 -0.00000000000E+00 -0.00000000000E+00 -0.61313858719E+01  0.61313858719E+01  0.00000000000E+00 0. -1.
         25    1    1    2    0    0  0.00000000000E+00  0.00000000000E+00  0.63095949074E+03  0.64322226248E+03  0.12500000000E+03 0.  0.
<mgrwt>
<rscale>  0 0.12500000E+03</rscale>
<asrwt>0</asrwt>
<pdfrwt beam="1">  1       21 0.98013929E-01 0.12500000E+03</pdfrwt>
<pdfrwt beam="2">  1       21 0.94329064E-03 0.12500000E+03</pdfrwt>
<totfact> 0.35208008E+06</totfact>
</mgrwt>
</event>
<event>
 3    1  0.1628330E-001  0.1250000E+03  0.7546771E-02  0.1235069E+00
         21   -1    0    0  502  501  0.00000000000E+00  0.00000000000E+00  0.11358687301E+03  0.11358687301E+03  0.00000000000E+00 0.  1.
         21   -1    0    0  501  502 -0.00000000000E+00 -0.00000000000E+00 -0.34389977438E+02  0.34389977438E+02  0.00000000000E+00 0.  1.
         25    1    1    2    0    0  0.00000000000E+00  0.00000000000E+00  0.79196895572E+02  0.14797685045E+03  0.12500000000E+03 0.  0.
<mgrwt>
<rscale>  0 0.12500000E+03</rscale>
<asrwt>0</asrwt>
<pdfrwt beam="1">  1       21 0.17474903E-01 0.12500000E+03</pdfrwt>
<pdfrwt beam="2">  1       21 0.52907658E-02 0.12500000E+03</pdfrwt>
<totfact> 0.71014280E+06</totfact>
</mgrwt>
</event>
<event>
 3    1  0.1628330E-001  0.1250000E+03  0.7546771E-02  0.1235069E+00
         21   -1    0    0  502  501  0.00000000000E+00  0.00000000000E+00  0.37337315981E+03  0.37337315981E+03  0.00000000000E+00 0. -1.
         21   -1    0    0  501  502 -0.00000000000E+00 -0.00000000000E+00 -0.10462053571E+02  0.10462053571E+02  0.00000000000E+00 0. -1.
         25    1    1    2    0    0  0.00000000000E+00  0.00000000000E+00  0.36291110624E+03  0.38383521338E+03  0.12500000000E+03 0.  0.
<mgrwt>
<rscale>  0 0.12500000E+03</rscale>
<asrwt>0</asrwt>
<pdfrwt beam="1">  1       21 0.57442014E-01 0.12500000E+03</pdfrwt>
<pdfrwt beam="2">  1       21 0.16095470E-02 0.12500000E+03</pdfrwt>
<totfact> 0.49132359E+06</totfact>
</mgrwt>
</event>
<event>
 3    1  0.1628330E-001  0.1250000E+03  0.7546771E-02  0.1235069E+00
         21   -1    0    0  502  501  0.00000000000E+00  0.00000000000E+00  0.14403007497E+03  0.14403007497E+03  0.00000000000E+00 0. -1.
         21   -1    0    0  501  502 -0.00000000000E+00 -0.00000000000E+00 -0.27121071768E+02  0.27121071768E+02  0.00000000000E+00 0. -1.
         25    1    1    2    0    0  0.00000000000E+00  0.00000000000E+00  0.11690900320E+03  0.17115114674E+03  0.12500000000E+03 0.  0.
<mgrwt>
<rscale>  0 0.12500000E+03</rscale>
<asrwt>0</asrwt>
<pdfrwt beam="1">  1       21 0.22158473E-01 0.12500000E+03</pdfrwt>
<pdfrwt beam="2">  1       21 0.41724727E-02 0.12500000E+03</pdfrwt>
<totfact> 0.68181435E+06</totfact>
</mgrwt>
</event>
<event>
 3    1  0.1628330E-001  0.1250000E+03  0.7546771E-02  0.1235069E+00
         21   -1    0    0  502  501  0.00000000000E+00  0.00000000000E+00  0.16558254635E+02  0.16558254635E+02  0.00000000000E+00 0.  1.
         21   -1    0    0  501  502 -0.00000000000E+00 -0.00000000000E+00 -0.23590952586E+03  0.23590952586E+03  0.00000000000E+00 0.  1.
         25    1    1    2    0    0  0.00000000000E+00  0.00000000000E+00 -0.21935127123E+03  0.25246778050E+03  0.12500000000E+03 0.  0.
<mgrwt>
<rscale>  0 0.12500000E+03</rscale>
<asrwt>0</asrwt>
<pdfrwt beam="1">  1       21 0.25474242E-02 0.12500000E+03</pdfrwt>
<pdfrwt beam="2">  1       21 0.36293768E-01 0.12500000E+03</pdfrwt>
<totfact> 0.59646629E+06</totfact>
</mgrwt>
</event>
<event>
 3    1  0.1628330E-001  0.1250000E+03  0.7546771E-02  0.1235069E+00
         21   -1    0    0  502  501  0.00000000000E+00  0.00000000000E+00  0.32118435216E+03  0.32118435216E+03  0.00000000000E+00 0.  1.
         21   -1    0    0  501  502 -0.00000000000E+00 -0.00000000000E+00 -0.12162018398E+02  0.12162018398E+02  0.00000000000E+00 0.  1.
         25    1    1    2    0    0  0.00000000000E+00  0.00000000000E+00  0.30902233376E+03  0.33334637056E+03  0.12500000000E+03 0.  0.
<mgrwt>
<rscale>  0 0.12500000E+03</rscale>
<asrwt>0</asrwt>
<pdfrwt beam="1">  1       21 0.49412971E-01 0.12500000E+03</pdfrwt>
<pdfrwt beam="2">  1       21 0.18710800E-02 0.12500000E+03</pdfrwt>
<totfact> 0.52792376E+06</totfact>
</mgrwt>
</event>
<event>
 3    1  0.1628330E-001  0.1250000E+03  0.7546771E-02  0.1235069E+00
         21   -1    0    0  502  501  0.00000000000E+00  0.00000000000E+00  0.17045090212E+02  0.17045090212E+02  0.00000000000E+00 0. -1.
         21   -1    0    0  501  502 -0.00000000000E+00 -0.00000000000E+00 -0.22917156503E+03  0.22917156503E+03  0.00000000000E+00 0. -1.
         25    1    1    2    0    0  0.00000000000E+00  0.00000000000E+00 -0.21212647481E+03  0.24621665524E+03  0.12500000000E+03 0.  0.
<mgrwt>
<rscale>  0 0.12500000E+03</rscale>
<asrwt>0</asrwt>
<pdfrwt beam="1">  1       21 0.26223216E-02 0.12500000E+03</pdfrwt>
<pdfrwt beam="2">  1       21 0.35257164E-01 0.12500000E+03</pdfrwt>
<totfact> 0.60236225E+06</totfact>
</mgrwt>
</event>
<event>
 3    1  0.1628330E-001  0.1250000E+03  0.7546771E-02  0.1235069E+00
         21   -1    0    0  502  501  0.00000000000E+00  0.00000000000E+00  0.21666163436E+02  0.21666163436E+02  0.00000000000E+00 0.  1.
         21   -1    0    0  501  502 -0.00000000000E+00 -0.00000000000E+00 -0.18029264902E+03  0.18029264902E+03  0.00000000000E+00 0.  1.
         25    1    1    2    0    0  0.00000000000E+00  0.00000000000E+00 -0.15862648559E+03  0.20195881246E+03  0.12500000000E+03 0.  0.
<mgrwt>
<rscale>  0 0.12500000E+03</rscale>
<asrwt>0</asrwt>
<pdfrwt beam="1">  1       21 0.33332559E-02 0.12500000E+03</pdfrwt>
<pdfrwt beam="2">  1       21 0.27737331E-01 0.12500000E+03</pdfrwt>
<totfact> 0.64715618E+06</totfact>
</mgrwt>
</event>
<event>
 3    1  0.1628330E-001  0.1250000E+03  0.7546771E-02  0.1235069E+00
         21   -1    0    0  502  501  0.00000000000E+00  0.00000000000E+00  0.55637043162E+02  0.55637043162E+02  0.00000000000E+00 0.  1.
         21   -1    0    0  501  502 -0.00000000000E+00 -0.00000000000E+00 -0.70209518299E+02  0.70209518299E+02  0.00000000000E+00 0.  1.
         25    1    1    2    0    0  0.00000000000E+00  0.00000000000E+00 -0.14572475137E+02  0.12584656146E+03  0.12500000000E+03 0.  0.
<mgrwt>
<rscale>  0 0.12500000E+03</rscale>
<asrwt>0</asrwt>
<pdfrwt beam="1">  1       21 0.85595451E-02 0.12500000E+03</pdfrwt>
<pdfrwt beam="2">  1       21 0.10801464E-01 0.12500000E+03</pdfrwt>
<totfact> 0.73927228E+06</totfact>
</mgrwt>
</event>
<event>
 3    1  0.1628330E-001  0.1250000E+03  0.7546771E-02  0.1235069E+00
         21   -1    0    0  502  501  0.00000000000E+00  0.00000000000E+00  0.12504636874E+02  0.12504636874E+02  0.00000000000E+00 0.  1.
         21   -1    0    0  501  502 -0.00000000000E+00 -0.00000000000E+00 -0.31238412113E+03  0.31238412113E+03  0.00000000000E+00 0.  1.
         25    1    1    2    0    0  0.00000000000E+00  0.00000000000E+00 -0.29987948425E+03  0.32488875800E+03  0.12500000000E+03 0.  0.
<mgrwt>
<rscale>  0 0.12500000E+03</rscale>
<asrwt>0</asrwt>
<pdfrwt beam="1">  1       21 0.19237904E-02 0.12500000E+03</pdfrwt>
<pdfrwt beam="2">  1       21 0.48059092E-01 0.12500000E+03</pdfrwt>
<totfact> 0.53448195E+06</totfact>
</mgrwt>
</event>
<event>
 3    1  0.1628330E-001  0.1250000E+03  0.7546771E-02  0.1235069E+00
         21   -1    0    0  502  501  0.00000000000E+00  0.00000000000E+00  0.45135239934E+01  0.45135239934E+01  0.00000000000E+00 0.  1.
         21   -1    0    0  501  502 -0.00000000000E+00 -0.00000000000E+00 -0.86545457733E+03  0.86545457733E+03  0.00000000000E+00 0.  1.
         25    1    1    2    0    0  0.00000000000E+00  0.00000000000E+00 -0.86094105333E+03  0.86996810132E+03  0.12500000000E+03 0.  0.
<mgrwt>
<rscale>  0 0.12500000E+03</rscale>
<asrwt>0</asrwt>
<pdfrwt beam="1">  1       21 0.69438836E-03 0.12500000E+03</pdfrwt>
<pdfrwt beam="2">  1       21 0.13314685E+00 0.12500000E+03</pdfrwt>
<totfact> 0.27171275E+06</totfact>
</mgrwt>
</event>
<event>
 3    1  0.1628330E-001  0.1250000E+03  0.7546771E-02  0.1235069E+00
         21   -1    0    0  502  501  0.00000000000E+00  0.00000000000E+00  0.12452665490E+03  0.12452665490E+03  0.00000000000E+00 0.  1.
         21   -1    0    0  501  502 -0.00000000000E+00 -0.00000000000E+00 -0.31368786091E+02  0.31368786091E+02  0.00000000000E+00 0.  1.
         25    1    1    2    0    0  0.00000000000E+00  0.00000000000E+00  0.93157868805E+02  0.15589544099E+03  0.12500000000E+03 0.  0.
<mgrwt>
<rscale>  0 0.12500000E+03</rscale>
<asrwt>0</asrwt>
<pdfrwt beam="1">  1       21 0.19157947E-01 0.12500000E+03</pdfrwt>
<pdfrwt beam="2">  1       21 0.48259672E-02 0.12500000E+03</pdfrwt>
<totfact> 0.70024538E+06</totfact>
</mgrwt>
</event>
<event>
 3    1  0.1628330E-001  0.1250000E+03  0.7546771E-02  0.1235069E+00
         21   -1    0    0  502  501  0.00000000000E+00  0.00000000000E+00  0.13954062484E+03  0.13954062484E+03  0.00000000000E+00 0. -1.
         21   -1    0    0  501  502 -0.00000000000E+00 -0.00000000000E+00 -0.27993639878E+02  0.27993639878E+02  0.00000000000E+00 0. -1.
         25    1    1    2    0    0  0.00000000000E+00  0.00000000000E+00  0.11154698496E+03  0.16753426471E+03  0.12500000000E+03 0.  0.
<mgrwt>
<rscale>  0 0.12500000E+03</rscale>
<asrwt>0</asrwt>
<pdfrwt beam="1">  1       21 0.21467788E-01 0.12500000E+03</pdfrwt>
<pdfrwt beam="2">  1       21 0.43067139E-02 0.12500000E+03</pdfrwt>
<totfact> 0.68610408E+06</totfact>
</mgrwt>
</event>
<event>
 3    1  0.1628330E-001  0.1250000E+03  0.7546771E-02  0.1235069E+00
         21   -1    0    0  502  501  0.00000000000E+00  0.00000000000E+00  0.41080637857E+02  0.41080637857E+02  0.00000000000E+00 0.  1.
         21   -1    0    0  501  502 -0.00000000000E+00 -0.00000000000E+00 -0.95087374584E+02  0.95087374584E+02  0.00000000000E+00 0.  1.
         25    1    1    2    0    0  0.00000000000E+00  0.00000000000E+00 -0.54006736727E+02  0.13616801244E+03  0.12500000000E+03 0.  0.
<mgrwt>
<rscale>  0 0.12500000E+03</rscale>
<asrwt>0</asrwt>
<pdfrwt beam="1">  1       21 0.63200983E-02 0.12500000E+03</pdfrwt>
<pdfrwt beam="2">  1       21 0.14628827E-01 0.12500000E+03</pdfrwt>
<totfact> 0.72542187E+06</totfact>
</mgrwt>
</event>
<event>
 3    1  0.1628330E-001  0.1250000E+03  0.7546771E-02  0.1235069E+00
         21   -1    0    0  502  501  0.00000000000E+00  0.00000000000E+00  0.14842598499E+03  0.14842598499E+03  0.00000000000E+00 0.  1.
         21   -1    0    0  501  502 -0.00000000000E+00 -0.00000000000E+00 -0.26317831075E+02  0.26317831075E+02  0.00000000000E+00 0.  1.
         25    1    1    2    0    0  0.00000000000E+00  0.00000000000E+00  0.12210815391E+03  0.17474381606E+03  0.12500000000E+03 0.  0.
<mgrwt>
<rscale>  0 0.12500000E+03</rscale>
<asrwt>0</asrwt>
<pdfrwt beam="1">  1       21 0.22834766E-01 0.12500000E+03</pdfrwt>
<pdfrwt beam="2">  1       21 0.40488972E-02 0.12500000E+03</pdfrwt>
<totfact> 0.67759685E+06</totfact>
</mgrwt>
</event>
<event>
 3    1  0.1628330E-001  0.1250000E+03  0.7546771E-02  0.1235069E+00
         21   -1    0    0  502  501  0.00000000000E+00  0.00000000000E+00  0.63261074215E+02  0.63261074215E+02  0.00000000000E+00 0. -1.
         21   -1    0    0  501  502 -0.00000000000E+00 -0.00000000000E+00 -0.61748082031E+02  0.61748082031E+02  0.00000000000E+00 0. -1.
         25    1    1    2    0    0  0.00000000000E+00  0.00000000000E+00  0.15129921847E+01  0.12500915625E+03  0.12500000000E+03 0.  0.
<mgrwt>
<rscale>  0 0.12500000E+03</rscale>
<asrwt>0</asrwt>
<pdfrwt beam="1">  1       21 0.97324729E-02 0.12500000E+03</pdfrwt>
<pdfrwt beam="2">  1       21 0.94997049E-02 0.12500000E+03</pdfrwt>
<totfact> 0.74042345E+06</totfact>
</mgrwt>
</event>
<event>
 3    1  0.1628330E-001  0.1250000E+03  0.7546771E-02  0.1235069E+00
         21   -1    0    0  502  501  0.00000000000E+00  0.00000000000E+00  0.10026430734E+03  0.10026430734E+03  0.00000000000E+00 0.  1.
         21   -1    0    0  501  502 -0.00000000000E+00 -0.00000000000E+00 -0.38959527109E+02  0.38959527109E+02  0.00000000000E+00 0.  1.
         25    1    1    2    0    0  0.00000000000E+00  0.00000000000E+00  0.61304780235E+02  0.13922383445E+03  0.12500000000E+03 0.  0.
<mgrwt>
<rscale>  0 0.12500000E+03</rscale>
<asrwt>0</asrwt>
<pdfrwt beam="1">  1       21 0.15425278E-01 0.12500000E+03</pdfrwt>
<pdfrwt beam="2">  1       21 0.59937735E-02 0.12500000E+03</pdfrwt>
<totfact> 0.72140797E+06</totfact>
</mgrwt>
</event>
<event>
 3    1  0.1628330E-001  0.1250000E+03  0.7546771E-02  0.1235069E+00
         21   -1    0    0  502  501  0.00000000000E+00  0.00000000000E+00  0.28937338027E+01  0.28937338027E+01  0.00000000000E+00 0. -1.
         21   -1    0    0  501  502 -0.00000000000E+00 -0.00000000000E+00 -0.13498995645E+04  0.13498995645E+04  0.00000000000E+00 0. -1.
         25    1    1    2    0    0  0.00000000000E+00  0.00000000000E+00 -0.13470058307E+04  0.13527932983E+04  0.12500000000E+03 0.  0.
<mgrwt>
<rscale>  0 0.12500000E+03</rscale>
<asrwt>0</asrwt>
<pdfrwt beam="1">  1       21 0.44518974E-03 0.12500000E+03</pdfrwt>
<pdfrwt beam="2">  1       21 0.20767689E+00 0.12500000E+03</pdfrwt>
<totfact> 0.16330256E+06</totfact>
</mgrwt>
</event>
<event>
 3    1  0.1628330E-001  0.1250000E+03  0.7546771E-02  0.1235069E+00
         21   -1    0    0  502  501  0.00000000000E+00  0.00000000000E+00  0.53088114087E+02  0.53088114087E+02  0.00000000000E+00 0. -1.
         21   -1    0    0  501  502 -0.00000000000E+00 -0.00000000000E+00 -0.73580500403E+02  0.73580500403E+02  0.00000000000E+00 0. -1.
         25    1    1    2    0    0  0.00000000000E+00  0.00000000000E+00 -0.20492386316E+02  0.12666861449E+03  0.12500000000E+03 0.  0.
<mgrwt>
<rscale>  0 0.12500000E+03</rscale>
<asrwt>0</asrwt>
<pdfrwt beam="1">  1       21 0.81674022E-02 0.12500000E+03</pdfrwt>
<pdfrwt beam="2">  1       21 0.11320077E-01 0.12500000E+03</pdfrwt>
<totfact> 0.73814321E+06</totfact>
</mgrwt>
</event>
<event>
 3    1  0.1628330E-001  0.1250000E+03  0.7546771E-02  0.1235069E+00
         21   -1    0    0  502  501  0.00000000000E+00  0.00000000000E+00  0.69351981537E+03  0.69351981537E+03  0.00000000000E+00 0. -1.
         21   -1    0    0  501  502 -0.00000000000E+00 -0.00000000000E+00 -0.56324994808E+01  0.56324994808E+01  0.00000000000E+00 0. -1.
         25    1    1    2    0    0  0.00000000000E+00  0.00000000000E+00  0.68788731589E+03  0.69915231485E+03  0.12500000000E+03 0.  0.
<mgrwt>
<rscale>  0 0.12500000E+03</rscale>
<asrwt>0</asrwt>
<pdfrwt beam="1">  1       21 0.10669529E+00 0.12500000E+03</pdfrwt>
<pdfrwt beam="2">  1       21 0.86653893E-03 0.12500000E+03</pdfrwt>
<totfact> 0.32942863E+06</totfact>
</mgrwt>
</event>
<event>
 3    1  0.1628330E-001  0.1250000E+03  0.7546771E-02  0.1235069E+00
         21   -1    0    0  502  501  0.00000000000E+00  0.00000000000E+00  0.16583606090E+02  0.16583606090E+02  0.00000000000E+00 0. -1.
         21   -1    0    0  501  502 -0.00000000000E+00 -0.00000000000E+00 -0.23554888960E+03  0.23554888960E+03  0.00000000000E+00 0. -1.
         25    1    1    2    0    0  0.00000000000E+00  0.00000000000E+00 -0.21896528351E+03  0.25213249569E+03  0.12500000000E+03 0.  0.
<mgrwt>
<rscale>  0 0.12500000E+03</rscale>
<asrwt>0</asrwt>
<pdfrwt beam="1">  1       21 0.25513241E-02 0.12500000E+03</pdfrwt>
<pdfrwt beam="2">  1       21 0.36238290E-01 0.12500000E+03</pdfrwt>
<totfact> 0.59677997E+06</totfact>
</mgrwt>
</event>
<event>
 3    1  0.1628330E-001  0.1250000E+03  0.7546771E-02  0.1235069E+00
         21   -1    0    0  502  501  0.00000000000E+00  0.00000000000E+00  0.39994301839E+02  0.39994301839E+02  0.00000000000E+00 0. -1.
         21   -1    0    0  501  502 -0.00000000000E+00 -0.00000000000E+00 -0.97670163507E+02  0.97670163507E+02  0.00000000000E+00 0. -1.
         25    1    1    2    0    0  0.00000000000E+00  0.00000000000E+00 -0.57675861668E+02  0.13766446535E+03  0.12500000000E+03 0.  0.
<mgrwt>
<rscale>  0 0.12500000E+03</rscale>
<asrwt>0</asrwt>
<pdfrwt beam="1">  1       21 0.61529695E-02 0.12500000E+03</pdfrwt>
<pdfrwt beam="2">  1       21 0.15026179E-01 0.12500000E+03</pdfrwt>
<totfact> 0.72345563E+06</totfact>
</mgrwt>
</event>
<event>
 3    1  0.1628330E-001  0.1250000E+03  0.7546771E-02  0.1235069E+00
         21   -1    0    0  502  501  0.00000000000E+00  0.00000000000E+00  0.30201941333E+02  0.30201941333E+02  0.00000000000E+00 0.  1.
         21   -1    0    0  501  502 -0.00000000000E+00 -0.00000000000E+00 -0.12933771233E+03  0.12933771233E+03  0.00000000000E+00 0.  1.
         25    1    1    2    0    0  0.00000000000E+00  0.00000000000E+00 -0.99135771001E+02  0.15953965367E+03  0.12500000000E+03 0.  0.
<mgrwt>
<rscale>  0 0.12500000E+03</rscale>
<asrwt>0</asrwt>
<pdfrwt beam="1">  1       21 0.46464524E-02 0.12500000E+03</pdfrwt>
<pdfrwt beam="2">  1       21 0.19898110E-01 0.12500000E+03</pdfrwt>
<totfact> 0.69575789E+06</totfact>
</mgrwt>
</event>
<event>
 3    1  0.1628330E-001  0.1250000E+03  0.7546771E-02  0.1235069E+00
         21   -1    0    0  502  501  0.00000000000E+00  0.00000000000E+00  0.81308162615E+01  0.81308162615E+01  0.00000000000E+00 0.  1.
         21   -1    0    0  501  502 -0.00000000000E+00 -0.00000000000E+00 -0.48042531947E+03  0.48042531947E+03  0.00000000000E+00 0.  1.
         25    1    1    2    0    0  0.00000000000E+00  0.00000000000E+00 -0.47229450321E+03  0.48855613573E+03  0.12500000000E+03 0.  0.
<mgrwt>
<rscale>  0 0.12500000E+03</rscale>
<asrwt>0</asrwt>
<pdfrwt beam="1">  1       21 0.12508948E-02 0.12500000E+03</pdfrwt>
<pdfrwt beam="2">  1       21 0.73911589E-01 0.12500000E+03</pdfrwt>
<totfact> 0.42671575E+06</totfact>
</mgrwt>
</event>
<event>
 3    1  0.1628330E-001  0.1250000E+03  0.7546771E-02  0.1235069E+00
         21   -1    0    0  502  501  0.00000000000E+00  0.00000000000E+00  0.37476582822E+03  0.37476582822E+03  0.00000000000E+00 0. -1.
         21   -1    0    0  501  502 -0.00000000000E+00 -0.00000000000E+00 -0.10423175503E+02  0.10423175503E+02  0.00000000000E+00 0. -1.
         25    1    1    2    0    0  0.00000000000E+00  0.00000000000E+00  0.36434265271E+03  0.38518900372E+03  0.12500000000E+03 0.  0.
<mgrwt>
<rscale>  0 0.12500000E+03</rscale>
<asrwt>0</asrwt>
<pdfrwt beam="1">  1       21 0.57656271E-01 0.12500000E+03</pdfrwt>
<pdfrwt beam="2">  1       21 0.16035658E-02 0.12500000E+03</pdfrwt>
<totfact> 0.49039521E+06</totfact>
</mgrwt>
</event>
<event>
 3    1  0.1628330E-001  0.1250000E+03  0.7546771E-02  0.1235069E+00
         21   -1    0    0  502  501  0.00000000000E+00  0.00000000000E+00  0.15679474725E+02  0.15679474725E+02  0.00000000000E+00 0.  1.
         21   -1    0    0  501  502 -0.00000000000E+00 -0.00000000000E+00 -0.24913143256E+03  0.24913143256E+03  0.00000000000E+00 0.  1.
         25    1    1    2    0    0  0.00000000000E+00  0.00000000000E+00 -0.23345195783E+03  0.26481090728E+03  0.12500000000E+03 0.  0.
<mgrwt>
<rscale>  0 0.12500000E+03</rscale>
<asrwt>0</asrwt>
<pdfrwt beam="1">  1       21 0.24122270E-02 0.12500000E+03</pdfrwt>
<pdfrwt beam="2">  1       21 0.38327911E-01 0.12500000E+03</pdfrwt>
<totfact> 0.58511114E+06</totfact>
</mgrwt>
</event>
<event>
 3    1  0.1628330E-001  0.1250000E+03  0.7546771E-02  0.1235069E+00
         21   -1    0    0  502  501  0.00000000000E+00  0.00000000000E+00  0.50710687286E+02  0.50710687286E+02  0.00000000000E+00 0.  1.
         21   -1    0    0  501  502 -0.00000000000E+00 -0.00000000000E+00 -0.77030113553E+02  0.77030113553E+02  0.00000000000E+00 0.  1.
         25    1    1    2    0    0  0.00000000000E+00  0.00000000000E+00 -0.26319426266E+02  0.12774080084E+03  0.12500000000E+03 0.  0.
<mgrwt>
<rscale>  0 0.12500000E+03</rscale>
<asrwt>0</asrwt>
<pdfrwt beam="1">  1       21 0.78016442E-02 0.12500000E+03</pdfrwt>
<pdfrwt beam="2">  1       21 0.11850787E-01 0.12500000E+03</pdfrwt>
<totfact> 0.73668604E+06</totfact>
</mgrwt>
</event>
<event>
 3    1  0.1628330E-001  0.1250000E+03  0.7546771E-02  0.1235069E+00
         21   -1    0    0  502  501  0.00000000000E+00  0.00000000000E+00  0.13861964309E+03  0.13861964309E+03  0.00000000000E+00 0.  1.
         21   -1    0    0  501  502 -0.00000000000E+00 -0.00000000000E+00 -0.28179628174E+02  0.28179628174E+02  0.00000000000E+00 0.  1.
         25    1    1    2    0    0  0.00000000000E+00  0.00000000000E+00  0.11044001492E+03  0.16679927127E+03  0.12500000000E+03 0.  0.
<mgrwt>
<rscale>  0 0.12500000E+03</rscale>
<asrwt>0</asrwt>
<pdfrwt beam="1">  1       21 0.21326099E-01 0.12500000E+03</pdfrwt>
<pdfrwt beam="2">  1       21 0.43353275E-02 0.12500000E+03</pdfrwt>
<totfact> 0.68698095E+06</totfact>
</mgrwt>
</event>
<event>
 3    1  0.1628330E-001  0.1250000E+03  0.7546771E-02  0.1235069E+00
         21   -1    0    0  502  501  0.00000000000E+00  0.00000000000E+00  0.59602609665E+02  0.59602609665E+02  0.00000000000E+00 0.  1.
         21   -1    0    0  501  502 -0.00000000000E+00 -0.00000000000E+00 -0.65538237704E+02  0.65538237704E+02  0.00000000000E+00 0.  1.
         25    1    1    2    0    0  0.00000000000E+00  0.00000000000E+00 -0.59356280389E+01  0.12514084737E+03  0.12500000000E+03 0.  0.
<mgrwt>
<rscale>  0 0.12500000E+03</rscale>
<asrwt>0</asrwt>
<pdfrwt beam="1">  1       21 0.91696322E-02 0.12500000E+03</pdfrwt>
<pdfrwt beam="2">  1       21 0.10082806E-01 0.12500000E+03</pdfrwt>
<totfact> 0.74024559E+06</totfact>
</mgrwt>
</event>
<event>
 3    1  0.1628330E-001  0.1250000E+03  0.7546771E-02  0.1235069E+00
         21   -1    0    0  502  501  0.00000000000E+00  0.00000000000E+00  0.15747157937E+02  0.15747157937E+02  0.00000000000E+00 0. -1.
         21   -1    0    0  501  502 -0.00000000000E+00 -0.00000000000E+00 -0.24806063517E+03  0.24806063517E+03  0.00000000000E+00 0. -1.
         25    1    1    2    0    0  0.00000000000E+00  0.00000000000E+00 -0.23231347723E+03  0.26380779311E+03  0.12500000000E+03 0.  0.
<mgrwt>
<rscale>  0 0.12500000E+03</rscale>
<asrwt>0</asrwt>
<pdfrwt beam="1">  1       21 0.24226398E-02 0.12500000E+03</pdfrwt>
<pdfrwt beam="2">  1       21 0.38163173E-01 0.12500000E+03</pdfrwt>
<totfact> 0.58602016E+06</totfact>
</mgrwt>
</event>
<event>
 3    1  0.1628330E-001  0.1250000E+03  0.7546771E-02  0.1235069E+00
         21   -1    0    0  502  501  0.00000000000E+00  0.00000000000E+00  0.33306184805E+02  0.33306184805E+02  0.00000000000E+00 0.  1.
         21   -1    0    0  501  502 -0.00000000000E+00 -0.00000000000E+00 -0.11728302184E+03  0.11728302184E+03  0.00000000000E+00 0.  1.
         25    1    1    2    0    0  0.00000000000E+00  0.00000000000E+00 -0.83976837040E+02  0.15058920665E+03  0.12500000000E+03 0.  0.
<mgrwt>
<rscale>  0 0.12500000E+03</rscale>
<asrwt>0</asrwt>
<pdfrwt beam="1">  1       21 0.51240284E-02 0.12500000E+03</pdfrwt>
<pdfrwt beam="2">  1       21 0.18043542E-01 0.12500000E+03</pdfrwt>
<totfact> 0.70685264E+06</totfact>
</mgrwt>
</event>
<event>
 3    1  0.1628330E-001  0.1250000E+03  0.7546771E-02  0.1235069E+00
         21   -1    0    0  502  501  0.00000000000E+00  0.00000000000E+00  0.13632173167E+03  0.13632173167E+03  0.00000000000E+00 0.  1.
         21   -1    0    0  501  502 -0.00000000000E+00 -0.00000000000E+00 -0.28654638934E+02  0.28654638934E+02  0.00000000000E+00 0.  1.
         25    1    1    2    0    0  0.00000000000E+00  0.00000000000E+00  0.10766709274E+03  0.16497637061E+03  0.12500000000E+03 0.  0.
<mgrwt>
<rscale>  0 0.12500000E+03</rscale>
<asrwt>0</asrwt>
<pdfrwt beam="1">  1       21 0.20972574E-01 0.12500000E+03</pdfrwt>
<pdfrwt beam="2">  1       21 0.44084061E-02 0.12500000E+03</pdfrwt>
<totfact> 0.68916492E+06</totfact>
</mgrwt>
</event>
<event>
 3    1  0.1628330E-001  0.1250000E+03  0.7546771E-02  0.1235069E+00
         21   -1    0    0  502  501  0.00000000000E+00  0.00000000000E+00  0.36819702004E+01  0.36819702004E+01  0.00000000000E+00 0. -1.
         21   -1    0    0  501  502 -0.00000000000E+00 -0.00000000000E+00 -0.10609129861E+04  0.10609129861E+04  0.00000000000E+00 0. -1.
         25    1    1    2    0    0  0.00000000000E+00  0.00000000000E+00 -0.10572310159E+04  0.10645949563E+04  0.12500000000E+03 0.  0.
<mgrwt>
<rscale>  0 0.12500000E+03</rscale>
<asrwt>0</asrwt>
<pdfrwt beam="1">  1       21 0.56645605E-03 0.12500000E+03</pdfrwt>
<pdfrwt beam="2">  1       21 0.16321764E+00 0.12500000E+03</pdfrwt>
<totfact> 0.22056447E+06</totfact>
</mgrwt>
</event>
<event>
 3    1  0.1628330E-001  0.1250000E+03  0.7546771E-02  0.1235069E+00
         21   -1    0    0  502  501  0.00000000000E+00  0.00000000000E+00  0.17837192294E+03  0.17837192294E+03  0.00000000000E+00 0.  1.
         21   -1    0    0  501  502 -0.00000000000E+00 -0.00000000000E+00 -0.21899466775E+02  0.21899466775E+02  0.00000000000E+00 0.  1.
         25    1    1    2    0    0  0.00000000000E+00  0.00000000000E+00  0.15647245617E+03  0.20027138972E+03  0.12500000000E+03 0.  0.
<mgrwt>
<rscale>  0 0.12500000E+03</rscale>
<asrwt>0</asrwt>
<pdfrwt beam="1">  1       21 0.27441833E-01 0.12500000E+03</pdfrwt>
<pdfrwt beam="2">  1       21 0.33691489E-02 0.12500000E+03</pdfrwt>
<totfact> 0.64897858E+06</totfact>
</mgrwt>
</event>
<event>
 3    1  0.1628330E-001  0.1250000E+03  0.7546771E-02  0.1235069E+00
         21   -1    0    0  502  501  0.00000000000E+00  0.00000000000E+00  0.16291647818E+02  0.16291647818E+02  0.00000000000E+00 0. -1.
         21   -1    0    0  501  502 -0.00000000000E+00 -0.00000000000E+00 -0.23977009838E+03  0.23977009838E+03  0.00000000000E+00 0. -1.
         25    1    1    2    0    0  0.00000000000E+00  0.00000000000E+00 -0.22347845056E+03  0.25606174619E+03  0.12500000000E+03 0.  0.
<mgrwt>
<rscale>  0 0.12500000E+03</rscale>
<asrwt>0</asrwt>
<pdfrwt beam="1">  1       21 0.25064074E-02 0.12500000E+03</pdfrwt>
<pdfrwt beam="2">  1       21 0.36887707E-01 0.12500000E+03</pdfrwt>
<totfact> 0.59312133E+06</totfact>
</mgrwt>
</event>
<event>
 3    1  0.1628330E-001  0.1250000E+03  0.7546771E-02  0.1235069E+00
         21   -1    0    0  502  501  0.00000000000E+00  0.00000000000E+00  0.21536103719E+03  0.21536103719E+03  0.00000000000E+00 0.  1.
         21   -1    0    0  501  502 -0.00000000000E+00 -0.00000000000E+00 -0.18138146301E+02  0.18138146301E+02  0.00000000000E+00 0.  1.
         25    1    1    2    0    0  0.00000000000E+00  0.00000000000E+00  0.19722289089E+03  0.23349918349E+03  0.12500000000E+03 0.  0.
<mgrwt>
<rscale>  0 0.12500000E+03</rscale>
<asrwt>0</asrwt>
<pdfrwt beam="1">  1       21 0.33132465E-01 0.12500000E+03</pdfrwt>
<pdfrwt beam="2">  1       21 0.27904842E-02 0.12500000E+03</pdfrwt>
<totfact> 0.61467465E+06</totfact>
</mgrwt>
</event>
<event>
 3    1  0.1628330E-001  0.1250000E+03  0.7546771E-02  0.1235069E+00
         21   -1    0    0  502  501  0.00000000000E+00  0.00000000000E+00  0.13528731587E+03  0.13528731587E+03  0.00000000000E+00 0. -1.
         21   -1    0    0  501  502 -0.00000000000E+00 -0.00000000000E+00 -0.28873734208E+02  0.28873734208E+02  0.00000000000E+00 0. -1.
         25    1    1    2    0    0  0.00000000000E+00  0.00000000000E+00  0.10641358166E+03  0.16416105007E+03  0.12500000000E+03 0.  0.
<mgrwt>
<rscale>  0 0.12500000E+03</rscale>
<asrwt>0</asrwt>
<pdfrwt beam="1">  1       21 0.20813433E-01 0.12500000E+03</pdfrwt>
<pdfrwt beam="2">  1       21 0.44421130E-02 0.12500000E+03</pdfrwt>
<totfact> 0.69014602E+06</totfact>
</mgrwt>
</event>
<event>
 3    1  0.1628330E-001  0.1250000E+03  0.7546771E-02  0.1235069E+00
         21   -1    0    0  502  501  0.00000000000E+00  0.00000000000E+00  0.17681223837E+03  0.17681223837E+03  0.00000000000E+00 0.  1.
         21   -1    0    0  501  502 -0.00000000000E+00 -0.00000000000E+00 -0.22092644921E+02  0.22092644921E+02  0.00000000000E+00 0.  1.
         25    1    1    2    0    0  0.00000000000E+00  0.00000000000E+00  0.15471959345E+03  0.19890488329E+03  0.12500000000E+03 0.  0.
<mgrwt>
<rscale>  0 0.12500000E+03</rscale>
<asrwt>0</asrwt>
<pdfrwt beam="1">  1       21 0.27201882E-01 0.12500000E+03</pdfrwt>
<pdfrwt beam="2">  1       21 0.33988686E-02 0.12500000E+03</pdfrwt>
<totfact> 0.65046109E+06</totfact>
</mgrwt>
</event>
<event>
 3    1  0.1628330E-001  0.1250000E+03  0.7546771E-02  0.1235069E+00
         21   -1    0    0  502  501  0.00000000000E+00  0.00000000000E+00  0.10943760987E+02  0.10943760987E+02  0.00000000000E+00 0.  1.
         21   -1    0    0  501  502 -0.00000000000E+00 -0.00000000000E+00 -0.35693853373E+03  0.35693853373E+03  0.00000000000E+00 0.  1.
         25    1    1    2    0    0  0.00000000000E+00  0.00000000000E+00 -0.34599477274E+03  0.36788229471E+03  0.12500000000E+03 0.  0.
<mgrwt>
<rscale>  0 0.12500000E+03</rscale>
<asrwt>0</asrwt>
<pdfrwt beam="1">  1       21 0.16836559E-02 0.12500000E+03</pdfrwt>
<pdfrwt beam="2">  1       21 0.54913610E-01 0.12500000E+03</pdfrwt>
<totfact> 0.50244290E+06</totfact>
</mgrwt>
</event>
<event>
 3    1  0.1628330E-001  0.1250000E+03  0.7546771E-02  0.1235069E+00
         21   -1    0    0  502  501  0.00000000000E+00  0.00000000000E+00  0.24201199426E+02  0.24201199426E+02  0.00000000000E+00 0. -1.
         21   -1    0    0  501  502 -0.00000000000E+00 -0.00000000000E+00 -0.16140728942E+03  0.16140728942E+03  0.00000000000E+00 0. -1.
         25    1    1    2    0    0  0.00000000000E+00  0.00000000000E+00 -0.13720608999E+03  0.18560848884E+03  0.12500000000E+03 0.  0.
<mgrwt>
<rscale>  0 0.12500000E+03</rscale>
<asrwt>0</asrwt>
<pdfrwt beam="1">  1       21 0.37232614E-02 0.12500000E+03</pdfrwt>
<pdfrwt beam="2">  1       21 0.24831891E-01 0.12500000E+03</pdfrwt>
<totfact> 0.66513899E+06</totfact>
</mgrwt>
</event>
<event>
 3    1  0.1628330E-001  0.1250000E+03  0.7546771E-02  0.1235069E+00
         21   -1    0    0  502  501  0.00000000000E+00  0.00000000000E+00  0.49233721521E+02  0.49233721521E+02  0.00000000000E+00 0. -1.
         21   -1    0    0  501  502 -0.00000000000E+00 -0.00000000000E+00 -0.79340945175E+02  0.79340945175E+02  0.00000000000E+00 0. -1.
         25    1    1    2    0    0  0.00000000000E+00  0.00000000000E+00 -0.30107223654E+02  0.12857466670E+03  0.12500000000E+03 0.  0.
<mgrwt>
<rscale>  0 0.12500000E+03</rscale>
<asrwt>0</asrwt>
<pdfrwt beam="1">  1       21 0.75744187E-02 0.12500000E+03</pdfrwt>
<pdfrwt beam="2">  1       21 0.12206299E-01 0.12500000E+03</pdfrwt>
<totfact> 0.73556069E+06</totfact>
</mgrwt>
</event>
<event>
 3    1  0.1628330E-001  0.1250000E+03  0.7546771E-02  0.1235069E+00
         21   -1    0    0  502  501  0.00000000000E+00  0.00000000000E+00  0.51253368121E+02  0.51253368121E+02  0.00000000000E+00 0. -1.
         21   -1    0    0  501  502 -0.00000000000E+00 -0.00000000000E+00 -0.76214503422E+02  0.76214503422E+02  0.00000000000E+00 0. -1.
         25    1    1    2    0    0  0.00000000000E+00  0.00000000000E+00 -0.24961135301E+02  0.12746787154E+03  0.12500000000E+03 0.  0.
<mgrwt>
<rscale>  0 0.12500000E+03</rscale>
<asrwt>0</asrwt>
<pdfrwt beam="1">  1       21 0.78851336E-02 0.12500000E+03</pdfrwt>
<pdfrwt beam="2">  1       21 0.11725308E-01 0.12500000E+03</pdfrwt>
<totfact> 0.73705574E+06</totfact>
</mgrwt>
</event>
<event>
 3    1  0.1628330E-001  0.1250000E+03  0.7546771E-02  0.1235069E+00
         21   -1    0    0  502  501  0.00000000000E+00  0.00000000000E+00  0.14612660666E+02  0.14612660666E+02  0.00000000000E+00 0.  1.
         21   -1    0    0  501  502 -0.00000000000E+00 -0.00000000000E+00 -0.26731955865E+03  0.26731955865E+03  0.00000000000E+00 0.  1.
         25    1    1    2    0    0  0.00000000000E+00  0.00000000000E+00 -0.25270689798E+03  0.28193221931E+03  0.12500000000E+03 0.  0.
<mgrwt>
<rscale>  0 0.12500000E+03</rscale>
<asrwt>0</asrwt>
<pdfrwt beam="1">  1       21 0.22481017E-02 0.12500000E+03</pdfrwt>
<pdfrwt beam="2">  1       21 0.41126085E-01 0.12500000E+03</pdfrwt>
<totfact> 0.56991917E+06</totfact>
</mgrwt>
</event>
<event>
 3    1  0.1628330E-001  0.1250000E+03  0.7546771E-02  0.1235069E+00
         21   -1    0    0  502  501  0.00000000000E+00  0.00000000000E+00  0.13482718644E+03  0.13482718644E+03  0.00000000000E+00 0.  1.
         21   -1    0    0  501  502 -0.00000000000E+00 -0.00000000000E+00 -0.28972272604E+02  0.28972272604E+02  0.00000000000E+00 0.  1.
         25    1    1    2    0    0  0.00000000000E+00  0.00000000000E+00  0.10585491384E+03  0.16379945905E+03  0.12500000000E+03 0.  0.
<mgrwt>
<rscale>  0 0.12500000E+03</rscale>
<asrwt>0</asrwt>
<pdfrwt beam="1">  1       21 0.20742644E-01 0.12500000E+03</pdfrwt>
<pdfrwt beam="2">  1       21 0.44572728E-02 0.12500000E+03</pdfrwt>
<totfact> 0.69058198E+06</totfact>
</mgrwt>
</event>
<event>
 3    1  0.1628330E-001  0.1250000E+03  0.7546771E-02  0.1235069E+00
         21   -1    0    0  502  501  0.00000000000E+00  0.00000000000E+00  0.38324627626E+03  0.38324627626E+03  0.00000000000E+00 0. -1.
         21   -1    0    0  501  502 -0.00000000000E+00 -0.00000000000E+00 -0.10192532171E+02  0.10192532171E+02  0.00000000000E+00 0. -1.
         25    1    1    2    0    0  0.00000000000E+00  0.00000000000E+00  0.37305374409E+03  0.39343880843E+03  0.12500000000E+03 0.  0.
<mgrwt>
<rscale>  0 0.12500000E+03</rscale>
<asrwt>0</asrwt>
<pdfrwt beam="1">  1       21 0.58960955E-01 0.12500000E+03</pdfrwt>
<pdfrwt beam="2">  1       21 0.15680822E-02 0.12500000E+03</pdfrwt>
<totfact> 0.48479618E+06</totfact>
</mgrwt>
</event>
<event>
 3    1  0.1628330E-001  0.1250000E+03  0.7546771E-02  0.1235069E+00
         21   -1    0    0  502  501  0.00000000000E+00  0.00000000000E+00  0.50714125892E+03  0.50714125892E+03  0.00000000000E+00 0.  1.
         21   -1    0    0  501  502 -0.00000000000E+00 -0.00000000000E+00 -0.77024890625E+01  0.77024890625E+01  0.00000000000E+00 0.  1.
         25    1    1    2    0    0  0.00000000000E+00  0.00000000000E+00  0.49943876986E+03  0.51484374798E+03  0.12500000000E+03 0.  0.
<mgrwt>
<rscale>  0 0.12500000E+03</rscale>
<asrwt>0</asrwt>
<pdfrwt beam="1">  1       21 0.78021706E-01 0.12500000E+03</pdfrwt>
<pdfrwt beam="2">  1       21 0.11849987E-02 0.12500000E+03</pdfrwt>
<totfact> 0.41250344E+06</totfact>
</mgrwt>
</event>
<event>
 3    1  0.1628330E-001  0.1250000E+03  0.7546771E-02  0.1235069E+00
         21   -1    0    0  502  501  0.00000000000E+00  0.00000000000E+00  0.43071828596E+03  0.43071828596E+03  0.00000000000E+00 0. -1.
         21   -1    0    0  501  502 -0.00000000000E+00 -0.00000000000E+00 -0.90691529182E+01  0.90691529182E+01  0.00000000000E+00 0. -1.
         25    1    1    2    0    0  0.00000000000E+00  0.00000000000E+00  0.42164913304E+03  0.43978743887E+03  0.12500000000E+03 0.  0.
<mgrwt>
<rscale>  0 0.12500000E+03</rscale>
<asrwt>0</asrwt>
<pdfrwt beam="1">  1       21 0.66264336E-01 0.12500000E+03</pdfrwt>
<pdfrwt beam="2">  1       21 0.13952546E-02 0.12500000E+03</pdfrwt>
<totfact> 0.45509604E+06</totfact>
</mgrwt>
</event>
<event>
 3    1  0.1628330E-001  0.1250000E+03  0.7546771E-02  0.1235069E+00
         21   -1    0    0  502  501  0.00000000000E+00  0.00000000000E+00  0.38611995467E+01  0.38611995467E+01  0.00000000000E+00 0.  1.
         21   -1    0    0  501  502 -0.00000000000E+00 -0.00000000000E+00 -0.10116674761E+04  0.10116674761E+04  0.00000000000E+00 0.  1.
         25    1    1    2    0    0  0.00000000000E+00  0.00000000000E+00 -0.10078062765E+04  0.10155286756E+04  0.12500000000E+03 0.  0.
<mgrwt>
<rscale>  0 0.12500000E+03</rscale>
<asrwt>0</asrwt>
<pdfrwt beam="1">  1       21 0.59403020E-03 0.12500000E+03</pdfrwt>
<pdfrwt beam="2">  1       21 0.15564128E+00 0.12500000E+03</pdfrwt>
<totfact> 0.23233784E+06</totfact>
</mgrwt>
</event>
<event>
 3    1  0.1628330E-001  0.1250000E+03  0.7546771E-02  0.1235069E+00
         21   -1    0    0  502  501  0.00000000000E+00  0.00000000000E+00  0.73033439686E+01  0.73033439686E+01  0.00000000000E+00 0. -1.
         21   -1    0    0  501  502 -0.00000000000E+00 -0.00000000000E+00 -0.53485773322E+03  0.53485773322E+03  0.00000000000E+00 0. -1.
         25    1    1    2    0    0  0.00000000000E+00  0.00000000000E+00 -0.52755438925E+03  0.54216107719E+03  0.12500000000E+03 0.  0.
<mgrwt>
<rscale>  0 0.12500000E+03</rscale>
<asrwt>0</asrwt>
<pdfrwt beam="1">  1       21 0.11235910E-02 0.12500000E+03</pdfrwt>
<pdfrwt beam="2">  1       21 0.82285830E-01 0.12500000E+03</pdfrwt>
<totfact> 0.39846144E+06</totfact>
</mgrwt>
</event>
<event>
 3    1  0.1628330E-001  0.1250000E+03  0.7546771E-02  0.1235069E+00
         21   -1    0    0  502  501  0.00000000000E+00  0.00000000000E+00  0.13692328582E+02  0.13692328582E+02  0.00000000000E+00 0.  1.
         21   -1    0    0  501  502 -0.00000000000E+00 -0.00000000000E+00 -0.28528748610E+03  0.28528748610E+03  0.00000000000E+00 0.  1.
         25    1    1    2    0    0  0.00000000000E+00  0.00000000000E+00 -0.27159515752E+03  0.29897981469E+03  0.12500000000E+03 0.  0.
<mgrwt>
<rscale>  0 0.12500000E+03</rscale>
<asrwt>0</asrwt>
<pdfrwt beam="1">  1       21 0.21065120E-02 0.12500000E+03</pdfrwt>
<pdfrwt beam="2">  1       21 0.43890384E-01 0.12500000E+03</pdfrwt>
<totfact> 0.55541060E+06</totfact>
</mgrwt>
</event>
<event>
 3    1  0.1628330E-001  0.1250000E+03  0.7546771E-02  0.1235069E+00
         21   -1    0    0  502  501  0.00000000000E+00  0.00000000000E+00  0.18892586274E+03  0.18892586274E+03  0.00000000000E+00 0. -1.
         21   -1    0    0  501  502 -0.00000000000E+00 -0.00000000000E+00 -0.20676099838E+02  0.20676099838E+02  0.00000000000E+00 0. -1.
         25    1    1    2    0    0  0.00000000000E+00  0.00000000000E+00  0.16824976290E+03  0.20960196258E+03  0.12500000000E+03 0.  0.
<mgrwt>
<rscale>  0 0.12500000E+03</rscale>
<asrwt>0</asrwt>
<pdfrwt beam="1">  1       21 0.29065516E-01 0.12500000E+03</pdfrwt>
<pdfrwt beam="2">  1       21 0.31809386E-02 0.12500000E+03</pdfrwt>
<totfact> 0.63901439E+06</totfact>
</mgrwt>
</event>
<event>
 3    1  0.1628330E-001  0.1250000E+03  0.7546771E-02  0.1235069E+00
         21   -1    0    0  502  501  0.00000000000E+00  0.00000000000E+00  0.22954208509E+04  0.22954208509E+04  0.00000000000E+00 0.  1.
         21   -1    0    0  501  502 -0.00000000000E+00 -0.00000000000E+00 -0.17017576531E+01  0.17017576531E+01  0.00000000000E+00 0.  1.
         25    1    1    2    0    0  0.00000000000E+00  0.00000000000E+00  0.22937190932E+04  0.22971226085E+04  0.12500000000E+03 0.  0.
<mgrwt>
<rscale>  0 0.12500000E+03</rscale>
<asrwt>0</asrwt>
<pdfrwt beam="1">  1       21 0.35313919E+00 0.12500000E+03</pdfrwt>
<pdfrwt beam="2">  1       21 0.26181071E-03 0.12500000E+03</pdfrwt>
<totfact> 0.53967200E+05</totfact>
</mgrwt>
</event>
<event>
 3    1  0.1628330E-001  0.1250000E+03  0.7546771E-02  0.1235069E+00
         21   -1    0    0  502  501  0.00000000000E+00  0.00000000000E+00  0.10368422218E+03  0.10368422218E+03  0.00000000000E+00 0.  1.
         21   -1    0    0  501  502 -0.00000000000E+00 -0.00000000000E+00 -0.37674488153E+02  0.37674488153E+02  0.00000000000E+00 0.  1.
         25    1    1    2    0    0  0.00000000000E+00  0.00000000000E+00  0.66009734022E+02  0.14135871033E+03  0.12500000000E+03 0.  0.
<mgrwt>
<rscale>  0 0.12500000E+03</rscale>
<asrwt>0</asrwt>
<pdfrwt beam="1">  1       21 0.15951419E-01 0.12500000E+03</pdfrwt>
<pdfrwt beam="2">  1       21 0.57960751E-02 0.12500000E+03</pdfrwt>
<totfact> 0.71862425E+06</totfact>
</mgrwt>
</event>
<event>
 3    1  0.1628330E-001  0.1250000E+03  0.7546771E-02  0.1235069E+00
         21   -1    0    0  502  501  0.00000000000E+00  0.00000000000E+00  0.89943719023E+02  0.89943719023E+02  0.00000000000E+00 0. -1.
         21   -1    0    0  501  502 -0.00000000000E+00 -0.00000000000E+00 -0.43429936436E+02  0.43429936436E+02  0.00000000000E+00 0. -1.
         25    1    1    2    0    0  0.00000000000E+00  0.00000000000E+00  0.46513782588E+02  0.13337365546E+03  0.12500000000E+03 0.  0.
<mgrwt>
<rscale>  0 0.12500000E+03</rscale>
<asrwt>0</asrwt>
<pdfrwt beam="1">  1       21 0.13837495E-01 0.12500000E+03</pdfrwt>
<pdfrwt beam="2">  1       21 0.66815287E-02 0.12500000E+03</pdfrwt>
<totfact> 0.72912543E+06</totfact>
</mgrwt>
</event>
<event>
 3    1  0.1628330E-001  0.1250000E+03  0.7546771E-02  0.1235069E+00
         21   -1    0    0  502  501  0.00000000000E+00  0.00000000000E+00  0.67399138277E+02  0.67399138277E+02  0.00000000000E+00 0.  1.
         21   -1    0    0  501  502 -0.00000000000E+00 -0.00000000000E+00 -0.57956972446E+02  0.57956972446E+02  0.00000000000E+00 0.  1.
         25    1    1    2    0    0  0.00000000000E+00  0.00000000000E+00  0.94421658317E+01  0.12535611072E+03  0.12500000000E+03 0.  0.
<mgrwt>
<rscale>  0 0.12500000E+03</rscale>
<asrwt>0</asrwt>
<pdfrwt beam="1">  1       21 0.10369098E-01 0.12500000E+03</pdfrwt>
<pdfrwt beam="2">  1       21 0.89164573E-02 0.12500000E+03</pdfrwt>
<totfact> 0.73995498E+06</totfact>
</mgrwt>
</event>
<event>
 3    1  0.1628330E-001  0.1250000E+03  0.7546771E-02  0.1235069E+00
         21   -1    0    0  502  501  0.00000000000E+00  0.00000000000E+00  0.40825099981E+01  0.40825099981E+01  0.00000000000E+00 0.  1.
         21   -1    0    0  501  502 -0.00000000000E+00 -0.00000000000E+00 -0.95682558080E+03  0.95682558080E+03  0.00000000000E+00 0.  1.
         25    1    1    2    0    0  0.00000000000E+00  0.00000000000E+00 -0.95274307080E+03  0.96090809080E+03  0.12500000000E+03 0.  0.
<mgrwt>
<rscale>  0 0.12500000E+03</rscale>
<asrwt>0</asrwt>
<pdfrwt beam="1">  1       21 0.62807888E-03 0.12500000E+03</pdfrwt>
<pdfrwt beam="2">  1       21 0.14720384E+00 0.12500000E+03</pdfrwt>
<totfact> 0.24621627E+06</totfact>
</mgrwt>
</event>
<event>
 3    1  0.1628330E-001  0.1250000E+03  0.7546771E-02  0.1235069E+00
         21   -1    0    0  502  501  0.00000000000E+00  0.00000000000E+00  0.19736801278E+02  0.19736801278E+02  0.00000000000E+00 0. -1.
         21   -1    0    0  501  502 -0.00000000000E+00 -0.00000000000E+00 -0.19791707607E+03  0.19791707607E+03  0.00000000000E+00 0. -1.
         25    1    1    2    0    0  0.00000000000E+00  0.00000000000E+00 -0.17818027480E+03  0.21765387735E+03  0.12500000000E+03 0.  0.
<mgrwt>
<rscale>  0 0.12500000E+03</rscale>
<asrwt>0</asrwt>
<pdfrwt beam="1">  1       21 0.30364309E-02 0.12500000E+03</pdfrwt>
<pdfrwt beam="2">  1       21 0.30448781E-01 0.12500000E+03</pdfrwt>
<totfact> 0.63063148E+06</totfact>
</mgrwt>
</event>
<event>
 3    1  0.1628330E-001  0.1250000E+03  0.7546771E-02  0.1235069E+00
         21   -1    0    0  502  501  0.00000000000E+00  0.00000000000E+00  0.20222119583E+03  0.20222119583E+03  0.00000000000E+00 0. -1.
         21   -1    0    0  501  502 -0.00000000000E+00 -0.00000000000E+00 -0.19316718923E+02  0.19316718923E+02  0.00000000000E+00 0. -1.
         25    1    1    2    0    0  0.00000000000E+00  0.00000000000E+00  0.18290447691E+03  0.22153791475E+03  0.12500000000E+03 0.  0.
<mgrwt>
<rscale>  0 0.12500000E+03</rscale>
<asrwt>0</asrwt>
<pdfrwt beam="1">  1       21 0.31110952E-01 0.12500000E+03</pdfrwt>
<pdfrwt beam="2">  1       21 0.29718031E-02 0.12500000E+03</pdfrwt>
<totfact> 0.62665686E+06</totfact>
</mgrwt>
</event>
<event>
 3    1  0.1628330E-001  0.1250000E+03  0.7546771E-02  0.1235069E+00
         21   -1    0    0  502  501  0.00000000000E+00  0.00000000000E+00  0.13053361590E+04  0.13053361590E+04  0.00000000000E+00 0. -1.
         21   -1    0    0  501  502 -0.00000000000E+00 -0.00000000000E+00 -0.29925241656E+01  0.29925241656E+01  0.00000000000E+00 0. -1.
         25    1    1    2    0    0  0.00000000000E+00  0.00000000000E+00  0.13023436348E+04  0.13083286832E+04  0.12500000000E+03 0.  0.
<mgrwt>
<rscale>  0 0.12500000E+03</rscale>
<asrwt>0</asrwt>
<pdfrwt beam="1">  1       21 0.20082049E+00 0.12500000E+03</pdfrwt>
<pdfrwt beam="2">  1       21 0.46038938E-03 0.12500000E+03</pdfrwt>
<totfact> 0.17103506E+06</totfact>
</mgrwt>
</event>
<event>
 3    1  0.1628330E-001  0.1250000E+03  0.7546771E-02  0.1235069E+00
         21   -1    0    0  502  501  0.00000000000E+00  0.00000000000E+00  0.36526226697E+02  0.36526226697E+02  0.00000000000E+00 0. -1.
         21   -1    0    0  501  502 -0.00000000000E+00 -0.00000000000E+00 -0.10694370465E+03  0.10694370465E+03  0.00000000000E+00 0. -1.
         25    1    1    2    0    0  0.00000000000E+00  0.00000000000E+00 -0.70417477956E+02  0.14346993135E+03  0.12500000000E+03 0.  0.
<mgrwt>
<rscale>  0 0.12500000E+03</rscale>
<asrwt>0</asrwt>
<pdfrwt beam="1">  1       21 0.56194195E-02 0.12500000E+03</pdfrwt>
<pdfrwt beam="2">  1       21 0.16452878E-01 0.12500000E+03</pdfrwt>
<totfact> 0.71589490E+06</totfact>
</mgrwt>
</event>
<event>
 3    1  0.1628330E-001  0.1250000E+03  0.7546771E-02  0.1235069E+00
         21   -1    0    0  502  501  0.00000000000E+00  0.00000000000E+00  0.19615942973E+04  0.19615942973E+04  0.00000000000E+00 0.  1.
         21   -1    0    0  501  502 -0.00000000000E+00 -0.00000000000E+00 -0.19913648839E+01  0.19913648839E+01  0.00000000000E+00 0.  1.
         25    1    1    2    0    0  0.00000000000E+00  0.00000000000E+00  0.19596029324E+04  0.19635856622E+04  0.12500000000E+03 0.  0.
<mgrwt>
<rscale>  0 0.12500000E+03</rscale>
<asrwt>0</asrwt>
<pdfrwt beam="1">  1       21 0.30178219E+00 0.12500000E+03</pdfrwt>
<pdfrwt beam="2">  1       21 0.30636540E-03 0.12500000E+03</pdfrwt>
<totfact> 0.83087363E+05</totfact>
</mgrwt>
</event>
<event>
 3    1  0.1628330E-001  0.1250000E+03  0.7546771E-02  0.1235069E+00
         21   -1    0    0  502  501  0.00000000000E+00  0.00000000000E+00  0.96428412280E+03  0.96428412280E+03  0.00000000000E+00 0.  1.
         21   -1    0    0  501  502 -0.00000000000E+00 -0.00000000000E+00 -0.40509326117E+01  0.40509326117E+01  0.00000000000E+00 0.  1.
         25    1    1    2    0    0  0.00000000000E+00  0.00000000000E+00  0.96023319019E+03  0.96833505542E+03  0.12500000000E+03 0.  0.
<mgrwt>
<rscale>  0 0.12500000E+03</rscale>
<asrwt>0</asrwt>
<pdfrwt beam="1">  1       21 0.14835122E+00 0.12500000E+03</pdfrwt>
<pdfrwt beam="2">  1       21 0.62322117E-03 0.12500000E+03</pdfrwt>
<totfact> 0.24426882E+06</totfact>
</mgrwt>
</event>
<event>
 3    1  0.1628330E-001  0.1250000E+03  0.7546771E-02  0.1235069E+00
         21   -1    0    0  502  501  0.00000000000E+00  0.00000000000E+00  0.59076813274E+01  0.59076813274E+01  0.00000000000E+00 0. -1.
         21   -1    0    0  501  502 -0.00000000000E+00 -0.00000000000E+00 -0.66121542167E+03  0.66121542167E+03  0.00000000000E+00 0. -1.
         25    1    1    2    0    0  0.00000000000E+00  0.00000000000E+00 -0.65530774034E+03  0.66712310300E+03  0.12500000000E+03 0.  0.
<mgrwt>
<rscale>  0 0.12500000E+03</rscale>
<asrwt>0</asrwt>
<pdfrwt beam="1">  1       21 0.90887406E-03 0.12500000E+03</pdfrwt>
<pdfrwt beam="2">  1       21 0.10172545E+00 0.12500000E+03</pdfrwt>
<totfact> 0.34216555E+06</totfact>
</mgrwt>
</event>
<event>
 3    1  0.1628330E-001  0.1250000E+03  0.7546771E-02  0.1235069E+00
         21   -1    0    0  502  501  0.00000000000E+00  0.00000000000E+00  0.10668145717E+03  0.10668145717E+03  0.00000000000E+00 0.  1.
         21   -1    0    0  501  502 -0.00000000000E+00 -0.00000000000E+00 -0.36616016538E+02  0.36616016538E+02  0.00000000000E+00 0.  1.
         25    1    1    2    0    0  0.00000000000E+00  0.00000000000E+00  0.70065440632E+02  0.14329747371E+03  0.12500000000E+03 0.  0.
<mgrwt>
<rscale>  0 0.12500000E+03</rscale>
<asrwt>0</asrwt>
<pdfrwt beam="1">  1       21 0.16412532E-01 0.12500000E+03</pdfrwt>
<pdfrwt beam="2">  1       21 0.56332334E-02 0.12500000E+03</pdfrwt>
<totfact> 0.71611699E+06</totfact>
</mgrwt>
</event>
<event>
 3    1  0.1628330E-001  0.1250000E+03  0.7546771E-02  0.1235069E+00
         21   -1    0    0  502  501  0.00000000000E+00  0.00000000000E+00  0.40936772873E+02  0.40936772873E+02  0.00000000000E+00 0. -1.
         21   -1    0    0  501  502 -0.00000000000E+00 -0.00000000000E+00 -0.95421542195E+02  0.95421542195E+02  0.00000000000E+00 0. -1.
         25    1    1    2    0    0  0.00000000000E+00  0.00000000000E+00 -0.54484769323E+02  0.13635831507E+03  0.12500000000E+03 0.  0.
<mgrwt>
<rscale>  0 0.12500000E+03</rscale>
<asrwt>0</asrwt>
<pdfrwt beam="1">  1       21 0.62979651E-02 0.12500000E+03</pdfrwt>
<pdfrwt beam="2">  1       21 0.14680237E-01 0.12500000E+03</pdfrwt>
<totfact> 0.72517118E+06</totfact>
</mgrwt>
</event>
<event>
 3    1  0.1628330E-001  0.1250000E+03  0.7546771E-02  0.1235069E+00
         21   -1    0    0  502  501  0.00000000000E+00  0.00000000000E+00  0.58447335740E+02  0.58447335740E+02  0.00000000000E+00 0. -1.
         21   -1    0    0  501  502 -0.00000000000E+00 -0.00000000000E+00 -0.66833670869E+02  0.66833670869E+02  0.00000000000E+00 0. -1.
         25    1    1    2    0    0  0.00000000000E+00  0.00000000000E+00 -0.83863351284E+01  0.12528100661E+03  0.12500000000E+03 0.  0.
<mgrwt>
<rscale>  0 0.12500000E+03</rscale>
<asrwt>0</asrwt>
<pdfrwt beam="1">  1       21 0.89918978E-02 0.12500000E+03</pdfrwt>
<pdfrwt beam="2">  1       21 0.10282103E-01 0.12500000E+03</pdfrwt>
<totfact> 0.74005635E+06</totfact>
</mgrwt>
</event>
<event>
 3    1  0.1628330E-001  0.1250000E+03  0.7546771E-02  0.1235069E+00
         21   -1    0    0  502  501  0.00000000000E+00  0.00000000000E+00  0.14140321133E+02  0.14140321133E+02  0.00000000000E+00 0.  1.
         21   -1    0    0  501  502 -0.00000000000E+00 -0.00000000000E+00 -0.27624903023E+03  0.27624903023E+03  0.00000000000E+00 0.  1.
         25    1    1    2    0    0  0.00000000000E+00  0.00000000000E+00 -0.26210870910E+03  0.29038935136E+03  0.12500000000E+03 0.  0.
<mgrwt>
<rscale>  0 0.12500000E+03</rscale>
<asrwt>0</asrwt>
<pdfrwt beam="1">  1       21 0.21754342E-02 0.12500000E+03</pdfrwt>
<pdfrwt beam="2">  1       21 0.42499847E-01 0.12500000E+03</pdfrwt>
<totfact> 0.56264436E+06</totfact>
</mgrwt>
</event>
<event>
 3    1  0.1628330E-001  0.1250000E+03  0.7546771E-02  0.1235069E+00
         21   -1    0    0  502  501  0.00000000000E+00  0.00000000000E+00  0.54628604950E+02  0.54628604950E+02  0.00000000000E+00 0. -1.
         21   -1    0    0  501  502 -0.00000000000E+00 -0.00000000000E+00 -0.71505578507E+02  0.71505578507E+02  0.00000000000E+00 0. -1.
         25    1    1    2    0    0  0.00000000000E+00  0.00000000000E+00 -0.16876973558E+02  0.12613418346E+03  0.12500000000E+03 0.  0.
<mgrwt>
<rscale>  0 0.12500000E+03</rscale>
<asrwt>0</asrwt>
<pdfrwt beam="1">  1       21 0.84044008E-02 0.12500000E+03</pdfrwt>
<pdfrwt beam="2">  1       21 0.11000858E-01 0.12500000E+03</pdfrwt>
<totfact> 0.73887559E+06</totfact>
</mgrwt>
</event>
<event>
 3    1  0.1628330E-001  0.1250000E+03  0.7546771E-02  0.1235069E+00
         21   -1    0    0  502  501  0.00000000000E+00  0.00000000000E+00  0.27285569528E+02  0.27285569528E+02  0.00000000000E+00 0.  1.
         21   -1    0    0  501  502 -0.00000000000E+00 -0.00000000000E+00 -0.14316175427E+03  0.14316175427E+03  0.00000000000E+00 0.  1.
         25    1    1    2    0    0  0.00000000000E+00  0.00000000000E+00 -0.11587618475E+03  0.17044732380E+03  0.12500000000E+03 0.  0.
<mgrwt>
<rscale>  0 0.12500000E+03</rscale>
<asrwt>0</asrwt>
<pdfrwt beam="1">  1       21 0.41977800E-02 0.12500000E+03</pdfrwt>
<pdfrwt beam="2">  1       21 0.22024885E-01 0.12500000E+03</pdfrwt>
<totfact> 0.68264647E+06</totfact>
</mgrwt>
</event>
<event>
 3    1  0.1628330E-001  0.1250000E+03  0.7546771E-02  0.1235069E+00
         21   -1    0    0  502  501  0.00000000000E+00  0.00000000000E+00  0.14506004855E+03  0.14506004855E+03  0.00000000000E+00 0. -1.
         21   -1    0    0  501  502 -0.00000000000E+00 -0.00000000000E+00 -0.26928503328E+02  0.26928503328E+02  0.00000000000E+00 0. -1.
         25    1    1    2    0    0  0.00000000000E+00  0.00000000000E+00  0.11813154522E+03  0.17198855187E+03  0.12500000000E+03 0.  0.
<mgrwt>
<rscale>  0 0.12500000E+03</rscale>
<asrwt>0</asrwt>
<pdfrwt beam="1">  1       21 0.22316930E-01 0.12500000E+03</pdfrwt>
<pdfrwt beam="2">  1       21 0.41428467E-02 0.12500000E+03</pdfrwt>
<totfact> 0.68082683E+06</totfact>
</mgrwt>
</event>
<event>
 3    1  0.1628330E-001  0.1250000E+03  0.7546771E-02  0.1235069E+00
         21   -1    0    0  502  501  0.00000000000E+00  0.00000000000E+00  0.32055109138E+02  0.32055109138E+02  0.00000000000E+00 0. -1.
         21   -1    0    0  501  502 -0.00000000000E+00 -0.00000000000E+00 -0.12186044924E+03  0.12186044924E+03  0.00000000000E+00 0. -1.
         25    1    1    2    0    0  0.00000000000E+00  0.00000000000E+00 -0.89805340103E+02  0.15391555838E+03  0.12500000000E+03 0.  0.
<mgrwt>
<rscale>  0 0.12500000E+03</rscale>
<asrwt>0</asrwt>
<pdfrwt beam="1">  1       21 0.49315552E-02 0.12500000E+03</pdfrwt>
<pdfrwt beam="2">  1       21 0.18747762E-01 0.12500000E+03</pdfrwt>
<totfact> 0.70270692E+06</totfact>
</mgrwt>
</event>
<event>
 3    1  0.1628330E-001  0.1250000E+03  0.7546771E-02  0.1235069E+00
         21   -1    0    0  502  501  0.00000000000E+00  0.00000000000E+00  0.20016071777E+03  0.20016071777E+03  0.00000000000E+00 0.  1.
         21   -1    0    0  501  502 -0.00000000000E+00 -0.00000000000E+00 -0.19515567507E+02  0.19515567507E+02  0.00000000000E+00 0.  1.
         25    1    1    2    0    0  0.00000000000E+00  0.00000000000E+00  0.18064515027E+03  0.21967628528E+03  0.12500000000E+03 0.  0.
<mgrwt>
<rscale>  0 0.12500000E+03</rscale>
<asrwt>0</asrwt>
<pdfrwt beam="1">  1       21 0.30793955E-01 0.12500000E+03</pdfrwt>
<pdfrwt beam="2">  1       21 0.30023951E-02 0.12500000E+03</pdfrwt>
<totfact> 0.62855639E+06</totfact>
</mgrwt>
</event>
<event>
 3    1  0.1628330E-001  0.1250000E+03  0.7546771E-02  0.1235069E+00
         21   -1    0    0  502  501  0.00000000000E+00  0.00000000000E+00  0.17812373734E+02  0.17812373734E+02  0.00000000000E+00 0.  1.
         21   -1    0    0  501  502 -0.00000000000E+00 -0.00000000000E+00 -0.21929980014E+03  0.21929980014E+03  0.00000000000E+00 0.  1.
         25    1    1    2    0    0  0.00000000000E+00  0.00000000000E+00 -0.20148742641E+03  0.23711217387E+03  0.12500000000E+03 0.  0.
<mgrwt>
<rscale>  0 0.12500000E+03</rscale>
<asrwt>0</asrwt>
<pdfrwt beam="1">  1       21 0.27403653E-02 0.12500000E+03</pdfrwt>
<pdfrwt beam="2">  1       21 0.33738430E-01 0.12500000E+03</pdfrwt>
<totfact> 0.61113236E+06</totfact>
</mgrwt>
</event>
<event>
 3    1  0.1628330E-001  0.1250000E+03  0.7546771E-02  0.1235069E+00
         21   -1    0    0  502  501  0.00000000000E+00  0.00000000000E+00  0.42529081485E+02  0.42529081485E+02  0.00000000000E+00 0.  1.
         21   -1    0    0  501  502 -0.00000000000E+00 -0.00000000000E+00 -0.91848915227E+02  0.91848915227E+02  0.00000000000E+00 0.  1.
         25    1    1    2    0    0  0.00000000000E+00  0.00000000000E+00 -0.49319833741E+02  0.13437799671E+03  0.12500000000E+03 0.  0.
<mgrwt>
<rscale>  0 0.12500000E+03</rscale>
<asrwt>0</asrwt>
<pdfrwt beam="1">  1       21 0.65429356E-02 0.12500000E+03</pdfrwt>
<pdfrwt beam="2">  1       21 0.14130602E-01 0.12500000E+03</pdfrwt>
<totfact> 0.72778935E+06</totfact>
</mgrwt>
</event>
<event>
 3    1  0.1628330E-001  0.1250000E+03  0.7546771E-02  0.1235069E+00
         21   -1    0    0  502  501  0.00000000000E+00  0.00000000000E+00  0.10593591111E+02  0.10593591111E+02  0.00000000000E+00 0.  1.
         21   -1    0    0  501  502 -0.00000000000E+00 -0.00000000000E+00 -0.36873709387E+03  0.36873709387E+03  0.00000000000E+00 0.  1.
         25    1    1    2    0    0  0.00000000000E+00  0.00000000000E+00 -0.35814350276E+03  0.37933068498E+03  0.12500000000E+03 0.  0.
<mgrwt>
<rscale>  0 0.12500000E+03</rscale>
<asrwt>0</asrwt>
<pdfrwt beam="1">  1       21 0.16297835E-02 0.12500000E+03</pdfrwt>
<pdfrwt beam="2">  1       21 0.56728775E-01 0.12500000E+03</pdfrwt>
<totfact> 0.49442587E+06</totfact>
</mgrwt>
</event>
<event>
 3    1  0.1628330E-001  0.1250000E+03  0.7546771E-02  0.1235069E+00
         21   -1    0    0  502  501  0.00000000000E+00  0.00000000000E+00  0.26413606992E+03  0.26413606992E+03  0.00000000000E+00 0. -1.
         21   -1    0    0  501  502 -0.00000000000E+00 -0.00000000000E+00 -0.14788779136E+02  0.14788779136E+02  0.00000000000E+00 0. -1.
         25    1    1    2    0    0  0.00000000000E+00  0.00000000000E+00  0.24934729078E+03  0.27892484906E+03  0.12500000000E+03 0.  0.
<mgrwt>
<rscale>  0 0.12500000E+03</rscale>
<asrwt>0</asrwt>
<pdfrwt beam="1">  1       21 0.40636315E-01 0.12500000E+03</pdfrwt>
<pdfrwt beam="2">  1       21 0.22751970E-02 0.12500000E+03</pdfrwt>
<totfact> 0.57254378E+06</totfact>
</mgrwt>
</event>
<event>
 3    1  0.1628330E-001  0.1250000E+03  0.7546771E-02  0.1235069E+00
         21   -1    0    0  502  501  0.00000000000E+00  0.00000000000E+00  0.16566776696E+03  0.16566776696E+03  0.00000000000E+00 0. -1.
         21   -1    0    0  501  502 -0.00000000000E+00 -0.00000000000E+00 -0.23578817241E+02  0.23578817241E+02  0.00000000000E+00 0. -1.
         25    1    1    2    0    0  0.00000000000E+00  0.00000000000E+00  0.14208894972E+03  0.18924658420E+03  0.12500000000E+03 0.  0.
<mgrwt>
<rscale>  0 0.12500000E+03</rscale>
<asrwt>0</asrwt>
<pdfrwt beam="1">  1       21 0.25487348E-01 0.12500000E+03</pdfrwt>
<pdfrwt beam="2">  1       21 0.36275105E-02 0.12500000E+03</pdfrwt>
<totfact> 0.66106297E+06</totfact>
</mgrwt>
</event>
<event>
 3    1  0.1628330E-001  0.1250000E+03  0.7546771E-02  0.1235069E+00
         21   -1    0    0  502  501  0.00000000000E+00  0.00000000000E+00  0.11895026307E+03  0.11895026307E+03  0.00000000000E+00 0.  1.
         21   -1    0    0  501  502 -0.00000000000E+00 -0.00000000000E+00 -0.32839355705E+02  0.32839355705E+02  0.00000000000E+00 0.  1.
         25    1    1    2    0    0  0.00000000000E+00  0.00000000000E+00  0.86110907361E+02  0.15178961877E+03  0.12500000000E+03 0.  0.
<mgrwt>
<rscale>  0 0.12500000E+03</rscale>
<asrwt>0</asrwt>
<pdfrwt beam="1">  1       21 0.18300040E-01 0.12500000E+03</pdfrwt>
<pdfrwt beam="2">  1       21 0.50522086E-02 0.12500000E+03</pdfrwt>
<totfact> 0.70535110E+06</totfact>
</mgrwt>
</event>
<event>
 3    1  0.1628330E-001  0.1250000E+03  0.7546771E-02  0.1235069E+00
         21   -1    0    0  502  501  0.00000000000E+00  0.00000000000E+00  0.44373788389E+02  0.44373788389E+02  0.00000000000E+00 0.  1.
         21   -1    0    0  501  502 -0.00000000000E+00 -0.00000000000E+00 -0.88030572594E+02  0.88030572594E+02  0.00000000000E+00 0.  1.
         25    1    1    2    0    0  0.00000000000E+00  0.00000000000E+00 -0.43656784205E+02  0.13240436098E+03  0.12500000000E+03 0.  0.
<mgrwt>
<rscale>  0 0.12500000E+03</rscale>
<asrwt>0</asrwt>
<pdfrwt beam="1">  1       21 0.68267367E-02 0.12500000E+03</pdfrwt>
<pdfrwt beam="2">  1       21 0.13543165E-01 0.12500000E+03</pdfrwt>
<totfact> 0.73042041E+06</totfact>
</mgrwt>
</event>
<event>
 3    1  0.1628330E-001  0.1250000E+03  0.7546771E-02  0.1235069E+00
         21   -1    0    0  502  501  0.00000000000E+00  0.00000000000E+00  0.20959120905E+02  0.20959120905E+02  0.00000000000E+00 0. -1.
         21   -1    0    0  501  502 -0.00000000000E+00 -0.00000000000E+00 -0.18637470616E+03  0.18637470616E+03  0.00000000000E+00 0. -1.
         25    1    1    2    0    0  0.00000000000E+00  0.00000000000E+00 -0.16541558526E+03  0.20733382707E+03  0.12500000000E+03 0.  0.
<mgrwt>
<rscale>  0 0.12500000E+03</rscale>
<asrwt>0</asrwt>
<pdfrwt beam="1">  1       21 0.32244800E-02 0.12500000E+03</pdfrwt>
<pdfrwt beam="2">  1       21 0.28673033E-01 0.12500000E+03</pdfrwt>
<totfact> 0.64141143E+06</totfact>
</mgrwt>
</event>
<event>
 3    1  0.1628330E-001  0.1250000E+03  0.7546771E-02  0.1235069E+00
         21   -1    0    0  502  501  0.00000000000E+00  0.00000000000E+00  0.38539951174E+03  0.38539951174E+03  0.00000000000E+00 0.  1.
         21   -1    0    0  501  502 -0.00000000000E+00 -0.00000000000E+00 -0.10135586271E+02  0.10135586271E+02  0.00000000000E+00 0.  1.
         25    1    1    2    0    0  0.00000000000E+00  0.00000000000E+00  0.37526392547E+03  0.39553509801E+03  0.12500000000E+03 0.  0.
<mgrwt>
<rscale>  0 0.12500000E+03</rscale>
<asrwt>0</asrwt>
<pdfrwt beam="1">  1       21 0.59292221E-01 0.12500000E+03</pdfrwt>
<pdfrwt beam="2">  1       21 0.15593213E-02 0.12500000E+03</pdfrwt>
<totfact> 0.48338924E+06</totfact>
</mgrwt>
</event>
<event>
 3    1  0.1628330E-001  0.1250000E+03  0.7546771E-02  0.1235069E+00
         21   -1    0    0  502  501  0.00000000000E+00  0.00000000000E+00  0.53014763906E+02  0.53014763906E+02  0.00000000000E+00 0. -1.
         21   -1    0    0  501  502 -0.00000000000E+00 -0.00000000000E+00 -0.73682304932E+02  0.73682304932E+02  0.00000000000E+00 0. -1.
         25    1    1    2    0    0  0.00000000000E+00  0.00000000000E+00 -0.20667541027E+02  0.12669706884E+03  0.12500000000E+03 0.  0.
<mgrwt>
<rscale>  0 0.12500000E+03</rscale>
<asrwt>0</asrwt>
<pdfrwt beam="1">  1       21 0.81561175E-02 0.12500000E+03</pdfrwt>
<pdfrwt beam="2">  1       21 0.11335739E-01 0.12500000E+03</pdfrwt>
<totfact> 0.73810435E+06</totfact>
</mgrwt>
</event>
<event>
 3    1  0.1628330E-001  0.1250000E+03  0.7546771E-02  0.1235069E+00
         21   -1    0    0  502  501  0.00000000000E+00  0.00000000000E+00  0.11763550981E+03  0.11763550981E+03  0.00000000000E+00 0. -1.
         21   -1    0    0  501  502 -0.00000000000E+00 -0.00000000000E+00 -0.33206384758E+02  0.33206384758E+02  0.00000000000E+00 0. -1.
         25    1    1    2    0    0  0.00000000000E+00  0.00000000000E+00  0.84429125055E+02  0.15084189457E+03  0.12500000000E+03 0.  0.
<mgrwt>
<rscale>  0 0.12500000E+03</rscale>
<asrwt>0</asrwt>
<pdfrwt beam="1">  1       21 0.18097771E-01 0.12500000E+03</pdfrwt>
<pdfrwt beam="2">  1       21 0.51086746E-02 0.12500000E+03</pdfrwt>
<totfact> 0.70653604E+06</totfact>
</mgrwt>
</event>
<event>
 3    1  0.1628330E-001  0.1250000E+03  0.7546771E-02  0.1235069E+00
         21   -1    0    0  502  501  0.00000000000E+00  0.00000000000E+00  0.21909343776E+03  0.21909343776E+03  0.00000000000E+00 0.  1.
         21   -1    0    0  501  502 -0.00000000000E+00 -0.00000000000E+00 -0.17829151069E+02  0.17829151069E+02  0.00000000000E+00 0.  1.
         25    1    1    2    0    0  0.00000000000E+00  0.00000000000E+00  0.20126428669E+03  0.23692258883E+03  0.12500000000E+03 0.  0.
<mgrwt>
<rscale>  0 0.12500000E+03</rscale>
<asrwt>0</asrwt>
<pdfrwt beam="1">  1       21 0.33706681E-01 0.12500000E+03</pdfrwt>
<pdfrwt beam="2">  1       21 0.27429465E-02 0.12500000E+03</pdfrwt>
<totfact> 0.61131735E+06</totfact>
</mgrwt>
</event>
<event>
 3    1  0.1628330E-001  0.1250000E+03  0.7546771E-02  0.1235069E+00
         21   -1    0    0  502  501  0.00000000000E+00  0.00000000000E+00  0.23695759538E+02  0.23695759538E+02  0.00000000000E+00 0. -1.
         21   -1    0    0  501  502 -0.00000000000E+00 -0.00000000000E+00 -0.16485017050E+03  0.16485017050E+03  0.00000000000E+00 0. -1.
         25    1    1    2    0    0  0.00000000000E+00  0.00000000000E+00 -0.14115441097E+03  0.18854593004E+03  0.12500000000E+03 0.  0.
<mgrwt>
<rscale>  0 0.12500000E+03</rscale>
<asrwt>0</asrwt>
<pdfrwt beam="1">  1       21 0.36455014E-02 0.12500000E+03</pdfrwt>
<pdfrwt beam="2">  1       21 0.25361565E-01 0.12500000E+03</pdfrwt>
<totfact> 0.66184435E+06</totfact>
</mgrwt>
</event>
<event>
 3    1  0.1628330E-001  0.1250000E+03  0.7546771E-02  0.1235069E+00
         21   -1    0    0  502  501  0.00000000000E+00  0.00000000000E+00  0.25316348856E+03  0.25316348856E+03  0.00000000000E+00 0. -1.
         21   -1    0    0  501  502 -0.00000000000E+00 -0.00000000000E+00 -0.15429752616E+02  0.15429752616E+02  0.00000000000E+00 0. -1.
         25    1    1    2    0    0  0.00000000000E+00  0.00000000000E+00  0.23773373594E+03  0.26859324118E+03  0.12500000000E+03 0.  0.
<mgrwt>
<rscale>  0 0.12500000E+03</rscale>
<asrwt>0</asrwt>
<pdfrwt beam="1">  1       21 0.38948226E-01 0.12500000E+03</pdfrwt>
<pdfrwt beam="2">  1       21 0.23738083E-02 0.12500000E+03</pdfrwt>
<totfact> 0.58170498E+06</totfact>
</mgrwt>
</event>
<event>
 3    1  0.1628330E-001  0.1250000E+03  0.7546771E-02  0.1235069E+00
         21   -1    0    0  502  501  0.00000000000E+00  0.00000000000E+00  0.19188117256E+02  0.19188117256E+02  0.00000000000E+00 0.  1.
         21   -1    0    0  501  502 -0.00000000000E+00 -0.00000000000E+00 -0.20357651289E+03  0.20357651289E+03  0.00000000000E+00 0.  1.
         25    1    1    2    0    0  0.00000000000E+00  0.00000000000E+00 -0.18438839563E+03  0.22276463015E+03  0.12500000000E+03 0.  0.
<mgrwt>
<rscale>  0 0.12500000E+03</rscale>
<asrwt>0</asrwt>
<pdfrwt beam="1">  1       21 0.29520180E-02 0.12500000E+03</pdfrwt>
<pdfrwt beam="2">  1       21 0.31319464E-01 0.12500000E+03</pdfrwt>
<totfact> 0.62541066E+06</totfact>
</mgrwt>
</event>
<event>
 3    1  0.1628330E-001  0.1250000E+03  0.7546771E-02  0.1235069E+00
         21   -1    0    0  502  501  0.00000000000E+00  0.00000000000E+00  0.41995412948E+01  0.41995412948E+01  0.00000000000E+00 0.  1.
         21   -1    0    0  501  502 -0.00000000000E+00 -0.00000000000E+00 -0.93016111184E+03  0.93016111184E+03  0.00000000000E+00 0.  1.
         25    1    1    2    0    0  0.00000000000E+00  0.00000000000E+00 -0.92596157055E+03  0.93436065314E+03  0.12500000000E+03 0.  0.
<mgrwt>
<rscale>  0 0.12500000E+03</rscale>
<asrwt>0</asrwt>
<pdfrwt beam="1">  1       21 0.64608408E-03 0.12500000E+03</pdfrwt>
<pdfrwt beam="2">  1       21 0.14310153E+00 0.12500000E+03</pdfrwt>
<totfact> 0.25334889E+06</totfact>
</mgrwt>
</event>
<event>
 3    1  0.1628330E-001  0.1250000E+03  0.7546771E-02  0.1235069E+00
         21   -1    0    0  502  501  0.00000000000E+00  0.00000000000E+00  0.27124538987E+03  0.27124538987E+03  0.00000000000E+00 0.  1.
         21   -1    0    0  501  502 -0.00000000000E+00 -0.00000000000E+00 -0.14401166419E+02  0.14401166419E+02  0.00000000000E+00 0.  1.
         25    1    1    2    0    0  0.00000000000E+00  0.00000000000E+00  0.25684422345E+03  0.28564655629E+03  0.12500000000E+03 0.  0.
<mgrwt>
<rscale>  0 0.12500000E+03</rscale>
<asrwt>0</asrwt>
<pdfrwt beam="1">  1       21 0.41730056E-01 0.12500000E+03</pdfrwt>
<pdfrwt beam="2">  1       21 0.22155643E-02 0.12500000E+03</pdfrwt>
<totfact> 0.56670504E+06</totfact>
</mgrwt>
</event>
<event>
 3    1  0.1628330E-001  0.1250000E+03  0.7546771E-02  0.1235069E+00
         21   -1    0    0  502  501  0.00000000000E+00  0.00000000000E+00  0.61165553535E+02  0.61165553535E+02  0.00000000000E+00 0.  1.
         21   -1    0    0  501  502 -0.00000000000E+00 -0.00000000000E+00 -0.63863560031E+02  0.63863560031E+02  0.00000000000E+00 0.  1.
         25    1    1    2    0    0  0.00000000000E+00  0.00000000000E+00 -0.26980064958E+01  0.12502911357E+03  0.12500000000E+03 0.  0.
<mgrwt>
<rscale>  0 0.12500000E+03</rscale>
<asrwt>0</asrwt>
<pdfrwt beam="1">  1       21 0.94100851E-02 0.12500000E+03</pdfrwt>
<pdfrwt beam="2">  1       21 0.98251631E-02 0.12500000E+03</pdfrwt>
<totfact> 0.74039649E+06</totfact>
</mgrwt>
</event>
<event>
 3    1  0.1628330E-001  0.1250000E+03  0.7546771E-02  0.1235069E+00
         21   -1    0    0  502  501  0.00000000000E+00  0.00000000000E+00  0.57414081808E+02  0.57414081808E+02  0.00000000000E+00 0. -1.
         21   -1    0    0  501  502 -0.00000000000E+00 -0.00000000000E+00 -0.68036444666E+02  0.68036444666E+02  0.00000000000E+00 0. -1.
         25    1    1    2    0    0  0.00000000000E+00  0.00000000000E+00 -0.10622362857E+02  0.12545052647E+03  0.12500000000E+03 0.  0.
<mgrwt>
<rscale>  0 0.12500000E+03</rscale>
<asrwt>0</asrwt>
<pdfrwt beam="1">  1       21 0.88329357E-02 0.12500000E+03</pdfrwt>
<pdfrwt beam="2">  1       21 0.10467145E-01 0.12500000E+03</pdfrwt>
<totfact> 0.73982322E+06</totfact>
</mgrwt>
</event>
<event>
 3    1  0.1628330E-001  0.1250000E+03  0.7546771E-02  0.1235069E+00
         21   -1    0    0  502  501  0.00000000000E+00  0.00000000000E+00  0.67201440207E+01  0.67201440207E+01  0.00000000000E+00 0. -1.
         21   -1    0    0  501  502 -0.00000000000E+00 -0.00000000000E+00 -0.58127474471E+03  0.58127474471E+03  0.00000000000E+00 0. -1.
         25    1    1    2    0    0  0.00000000000E+00  0.00000000000E+00 -0.57455460069E+03  0.58799488873E+03  0.12500000000E+03 0.  0.
<mgrwt>
<rscale>  0 0.12500000E+03</rscale>
<asrwt>0</asrwt>
<pdfrwt beam="1">  1       21 0.10338680E-02 0.12500000E+03</pdfrwt>
<pdfrwt beam="2">  1       21 0.89426910E-01 0.12500000E+03</pdfrwt>
<totfact> 0.37641227E+06</totfact>
</mgrwt>
</event>
<event>
 3    1  0.1628330E-001  0.1250000E+03  0.7546771E-02  0.1235069E+00
         21   -1    0    0  502  501  0.00000000000E+00  0.00000000000E+00  0.60679519663E+02  0.60679519663E+02  0.00000000000E+00 0.  1.
         21   -1    0    0  501  502 -0.00000000000E+00 -0.00000000000E+00 -0.64375097589E+02  0.64375097589E+02  0.00000000000E+00 0.  1.
         25    1    1    2    0    0  0.00000000000E+00  0.00000000000E+00 -0.36955779257E+01  0.12505461725E+03  0.12500000000E+03 0.  0.
<mgrwt>
<rscale>  0 0.12500000E+03</rscale>
<asrwt>0</asrwt>
<pdfrwt beam="1">  1       21 0.93353107E-02 0.12500000E+03</pdfrwt>
<pdfrwt beam="2">  1       21 0.99038612E-02 0.12500000E+03</pdfrwt>
<totfact> 0.74036204E+06</totfact>
</mgrwt>
</event>
<event>
 3    1  0.1628330E-001  0.1250000E+03  0.7546771E-02  0.1235069E+00
         21   -1    0    0  502  501  0.00000000000E+00  0.00000000000E+00  0.46878811183E+02  0.46878811183E+02  0.00000000000E+00 0. -1.
         21   -1    0    0  501  502 -0.00000000000E+00 -0.00000000000E+00 -0.83326558447E+02  0.83326558447E+02  0.00000000000E+00 0. -1.
         25    1    1    2    0    0  0.00000000000E+00  0.00000000000E+00 -0.36447747264E+02  0.13020536963E+03  0.12500000000E+03 0.  0.
<mgrwt>
<rscale>  0 0.12500000E+03</rscale>
<asrwt>0</asrwt>
<pdfrwt beam="1">  1       21 0.72121249E-02 0.12500000E+03</pdfrwt>
<pdfrwt beam="2">  1       21 0.12819470E-01 0.12500000E+03</pdfrwt>
<totfact> 0.73337480E+06</totfact>
</mgrwt>
</event>
<event>
 3    1  0.1628330E-001  0.1250000E+03  0.7546771E-02  0.1235069E+00
         21   -1    0    0  502  501  0.00000000000E+00  0.00000000000E+00  0.55111133088E+01  0.55111133088E+01  0.00000000000E+00 0. -1.
         21   -1    0    0  501  502 -0.00000000000E+00 -0.00000000000E+00 -0.70879508025E+03  0.70879508025E+03  0.00000000000E+00 0. -1.
         25    1    1    2    0    0  0.00000000000E+00  0.00000000000E+00 -0.70328396694E+03  0.71430619356E+03  0.12500000000E+03 0.  0.
<mgrwt>
<rscale>  0 0.12500000E+03</rscale>
<asrwt>0</asrwt>
<pdfrwt beam="1">  1       21 0.84786427E-03 0.12500000E+03</pdfrwt>
<pdfrwt beam="2">  1       21 0.10904531E+00 0.12500000E+03</pdfrwt>
<totfact> 0.32365859E+06</totfact>
</mgrwt>
</event>
<event>
 3    1  0.1628330E-001  0.1250000E+03  0.7546771E-02  0.1235069E+00
         21   -1    0    0  502  501  0.00000000000E+00  0.00000000000E+00  0.18677936572E+02  0.18677936572E+02  0.00000000000E+00 0. -1.
         21   -1    0    0  501  502 -0.00000000000E+00 -0.00000000000E+00 -0.20913712737E+03  0.20913712737E+03  0.00000000000E+00 0. -1.
         25    1    1    2    0    0  0.00000000000E+00  0.00000000000E+00 -0.19045919080E+03  0.22781506394E+03  0.12500000000E+03 0.  0.
<mgrwt>
<rscale>  0 0.12500000E+03</rscale>
<asrwt>0</asrwt>
<pdfrwt beam="1">  1       21 0.28735286E-02 0.12500000E+03</pdfrwt>
<pdfrwt beam="2">  1       21 0.32174944E-01 0.12500000E+03</pdfrwt>
<totfact> 0.62032092E+06</totfact>
</mgrwt>
</event>
<event>
 3    1  0.1628330E-001  0.1250000E+03  0.7546771E-02  0.1235069E+00
         21   -1    0    0  502  501  0.00000000000E+00  0.00000000000E+00  0.75439546002E+03  0.75439546002E+03  0.00000000000E+00 0.  1.
         21   -1    0    0  501  502 -0.00000000000E+00 -0.00000000000E+00 -0.51779871527E+01  0.51779871527E+01  0.00000000000E+00 0.  1.
         25    1    1    2    0    0  0.00000000000E+00  0.00000000000E+00  0.74921747287E+03  0.75957344717E+03  0.12500000000E+03 0.  0.
<mgrwt>
<rscale>  0 0.12500000E+03</rscale>
<asrwt>0</asrwt>
<pdfrwt beam="1">  1       21 0.11606075E+00 0.12500000E+03</pdfrwt>
<pdfrwt beam="2">  1       21 0.79661401E-03 0.12500000E+03</pdfrwt>
<totfact> 0.30734997E+06</totfact>
</mgrwt>
</event>
<event>
 3    1  0.1628330E-001  0.1250000E+03  0.7546771E-02  0.1235069E+00
         21   -1    0    0  502  501  0.00000000000E+00  0.00000000000E+00  0.53589985005E+03  0.53589985005E+03  0.00000000000E+00 0. -1.
         21   -1    0    0  501  502 -0.00000000000E+00 -0.00000000000E+00 -0.72891418044E+01  0.72891418044E+01  0.00000000000E+00 0. -1.
         25    1    1    2    0    0  0.00000000000E+00  0.00000000000E+00  0.52861070825E+03  0.54318899186E+03  0.12500000000E+03 0.  0.
<mgrwt>
<rscale>  0 0.12500000E+03</rscale>
<asrwt>0</asrwt>
<pdfrwt beam="1">  1       21 0.82446100E-01 0.12500000E+03</pdfrwt>
<pdfrwt beam="2">  1       21 0.11214069E-02 0.12500000E+03</pdfrwt>
<totfact> 0.39794696E+06</totfact>
</mgrwt>
</event>
<event>
 3    1  0.1628330E-001  0.1250000E+03  0.7546771E-02  0.1235069E+00
         21   -1    0    0  502  501  0.00000000000E+00  0.00000000000E+00  0.15647691838E+03  0.15647691838E+03  0.00000000000E+00 0. -1.
         21   -1    0    0  501  502 -0.00000000000E+00 -0.00000000000E+00 -0.24963745711E+02  0.24963745711E+02  0.00000000000E+00 0. -1.
         25    1    1    2    0    0  0.00000000000E+00  0.00000000000E+00  0.13151317267E+03  0.18144066409E+03  0.12500000000E+03 0.  0.
<mgrwt>
<rscale>  0 0.12500000E+03</rscale>
<asrwt>0</asrwt>
<pdfrwt beam="1">  1       21 0.24073371E-01 0.12500000E+03</pdfrwt>
<pdfrwt beam="2">  1       21 0.38405764E-02 0.12500000E+03</pdfrwt>
<totfact> 0.66986652E+06</totfact>
</mgrwt>
</event>
<event>
 3    1  0.1628330E-001  0.1250000E+03  0.7546771E-02  0.1235069E+00
         21   -1    0    0  502  501  0.00000000000E+00  0.00000000000E+00  0.23889321808E+02  0.23889321808E+02  0.00000000000E+00 0.  1.
         21   -1    0    0  501  502 -0.00000000000E+00 -0.00000000000E+00 -0.16351447862E+03  0.16351447862E+03  0.00000000000E+00 0.  1.
         25    1    1    2    0    0  0.00000000000E+00  0.00000000000E+00 -0.13962515681E+03  0.18740380043E+03  0.12500000000E+03 0.  0.
<mgrwt>
<rscale>  0 0.12500000E+03</rscale>
<asrwt>0</asrwt>
<pdfrwt beam="1">  1       21 0.36752804E-02 0.12500000E+03</pdfrwt>
<pdfrwt beam="2">  1       21 0.25156073E-01 0.12500000E+03</pdfrwt>
<totfact> 0.66312177E+06</totfact>
</mgrwt>
</event>
<event>
 3    1  0.1628330E-001  0.1250000E+03  0.7546771E-02  0.1235069E+00
         21   -1    0    0  502  501  0.00000000000E+00  0.00000000000E+00  0.83415790717E+01  0.83415790717E+01  0.00000000000E+00 0. -1.
         21   -1    0    0  501  502 -0.00000000000E+00 -0.00000000000E+00 -0.46828663571E+03  0.46828663571E+03  0.00000000000E+00 0. -1.
         25    1    1    2    0    0  0.00000000000E+00  0.00000000000E+00 -0.45994505664E+03  0.47662821478E+03  0.12500000000E+03 0.  0.
<mgrwt>
<rscale>  0 0.12500000E+03</rscale>
<asrwt>0</asrwt>
<pdfrwt beam="1">  1       21 0.12833200E-02 0.12500000E+03</pdfrwt>
<pdfrwt beam="2">  1       21 0.72044090E-01 0.12500000E+03</pdfrwt>
<totfact> 0.43340615E+06</totfact>
</mgrwt>
</event>
<event>
 3    1  0.1628330E-001  0.1250000E+03  0.7546771E-02  0.1235069E+00
         21   -1    0    0  502  501  0.00000000000E+00  0.00000000000E+00  0.64757988674E+01  0.64757988674E+01  0.00000000000E+00 0.  1.
         21   -1    0    0  501  502 -0.00000000000E+00 -0.00000000000E+00 -0.60320743124E+03  0.60320743124E+03  0.00000000000E+00 0.  1.
         25    1    1    2    0    0  0.00000000000E+00  0.00000000000E+00 -0.59673163237E+03  0.60968323010E+03  0.12500000000E+03 0.  0.
<mgrwt>
<rscale>  0 0.12500000E+03</rscale>
<asrwt>0</asrwt>
<pdfrwt beam="1">  1       21 0.99627660E-03 0.12500000E+03</pdfrwt>
<pdfrwt beam="2">  1       21 0.92801157E-01 0.12500000E+03</pdfrwt>
<totfact> 0.36658345E+06</totfact>
</mgrwt>
</event>
<event>
 3    1  0.1628330E-001  0.1250000E+03  0.7546771E-02  0.1235069E+00
         21   -1    0    0  502  501  0.00000000000E+00  0.00000000000E+00  0.45144815623E+02  0.45144815623E+02  0.00000000000E+00 0.  1.
         21   -1    0    0  501  502 -0.00000000000E+00 -0.00000000000E+00 -0.86527100533E+02  0.86527100533E+02  0.00000000000E+00 0.  1.
         25    1    1    2    0    0  0.00000000000E+00  0.00000000000E+00 -0.41382284910E+02  0.13167191616E+03  0.12500000000E+03 0.  0.
<mgrwt>
<rscale>  0 0.12500000E+03</rscale>
<asrwt>0</asrwt>
<pdfrwt beam="1">  1       21 0.69453562E-02 0.12500000E+03</pdfrwt>
<pdfrwt beam="2">  1       21 0.13311862E-01 0.12500000E+03</pdfrwt>
<totfact> 0.73140268E+06</totfact>
</mgrwt>
</event>
<event>
 3    1  0.1628330E-001  0.1250000E+03  0.7546771E-02  0.1235069E+00
         21   -1    0    0  502  501  0.00000000000E+00  0.00000000000E+00  0.19539311272E+03  0.19539311272E+03  0.00000000000E+00 0. -1.
         21   -1    0    0  501  502 -0.00000000000E+00 -0.00000000000E+00 -0.19991748663E+02  0.19991748663E+02  0.00000000000E+00 0. -1.
         25    1    1    2    0    0  0.00000000000E+00  0.00000000000E+00  0.17540136406E+03  0.21538486138E+03  0.12500000000E+03 0.  0.
<mgrwt>
<rscale>  0 0.12500000E+03</rscale>
<asrwt>0</asrwt>
<pdfrwt beam="1">  1       21 0.30060477E-01 0.12500000E+03</pdfrwt>
<pdfrwt beam="2">  1       21 0.30756538E-02 0.12500000E+03</pdfrwt>
<totfact> 0.63297403E+06</totfact>
</mgrwt>
</event>
<event>
 3    1  0.1628330E-001  0.1250000E+03  0.7546771E-02  0.1235069E+00
         21   -1    0    0  502  501  0.00000000000E+00  0.00000000000E+00  0.54794299458E+03  0.54794299458E+03  0.00000000000E+00 0. -1.
         21   -1    0    0  501  502 -0.00000000000E+00 -0.00000000000E+00 -0.71289350145E+01  0.71289350145E+01  0.00000000000E+00 0. -1.
         25    1    1    2    0    0  0.00000000000E+00  0.00000000000E+00  0.54081405957E+03  0.55507192960E+03  0.12500000000E+03 0.  0.
<mgrwt>
<rscale>  0 0.12500000E+03</rscale>
<asrwt>0</asrwt>
<pdfrwt beam="1">  1       21 0.84298889E-01 0.12500000E+03</pdfrwt>
<pdfrwt beam="2">  1       21 0.10967597E-02 0.12500000E+03</pdfrwt>
<totfact> 0.39206624E+06</totfact>
</mgrwt>
</event>
<event>
 3    1  0.1628330E-001  0.1250000E+03  0.7546771E-02  0.1235069E+00
         21   -1    0    0  502  501  0.00000000000E+00  0.00000000000E+00  0.25249051486E+01  0.25249051486E+01  0.00000000000E+00 0.  1.
         21   -1    0    0  501  502 -0.00000000000E+00 -0.00000000000E+00 -0.15470878192E+04  0.15470878192E+04  0.00000000000E+00 0.  1.
         25    1    1    2    0    0  0.00000000000E+00  0.00000000000E+00 -0.15445629140E+04  0.15496127243E+04  0.12500000000E+03 0.  0.
<mgrwt>
<rscale>  0 0.12500000E+03</rscale>
<asrwt>0</asrwt>
<pdfrwt beam="1">  1       21 0.38844659E-03 0.12500000E+03</pdfrwt>
<pdfrwt beam="2">  1       21 0.23801373E+00 0.12500000E+03</pdfrwt>
<totfact> 0.13272923E+06</totfact>
</mgrwt>
</event>
<event>
 3    1  0.1628330E-001  0.1250000E+03  0.7546771E-02  0.1235069E+00
         21   -1    0    0  502  501  0.00000000000E+00  0.00000000000E+00  0.28454743476E+03  0.28454743476E+03  0.00000000000E+00 0. -1.
         21   -1    0    0  501  502 -0.00000000000E+00 -0.00000000000E+00 -0.13727939608E+02  0.13727939608E+02  0.00000000000E+00 0. -1.
         25    1    1    2    0    0  0.00000000000E+00  0.00000000000E+00  0.27081949515E+03  0.29827537436E+03  0.12500000000E+03 0.  0.
<mgrwt>
<rscale>  0 0.12500000E+03</rscale>
<asrwt>0</asrwt>
<pdfrwt beam="1">  1       21 0.43776524E-01 0.12500000E+03</pdfrwt>
<pdfrwt beam="2">  1       21 0.21119909E-02 0.12500000E+03</pdfrwt>
<totfact> 0.55599804E+06</totfact>
</mgrwt>
</event>
<event>
 3    1  0.1628330E-001  0.1250000E+03  0.7546771E-02  0.1235069E+00
         21   -1    0    0  502  501  0.00000000000E+00  0.00000000000E+00  0.13394630803E+02  0.13394630803E+02  0.00000000000E+00 0.  1.
         21   -1    0    0  501  502 -0.00000000000E+00 -0.00000000000E+00 -0.29162804541E+03  0.29162804541E+03  0.00000000000E+00 0.  1.
         25    1    1    2    0    0  0.00000000000E+00  0.00000000000E+00 -0.27823341460E+03  0.30502267621E+03  0.12500000000E+03 0.  0.
<mgrwt>
<rscale>  0 0.12500000E+03</rscale>
<asrwt>0</asrwt>
<pdfrwt beam="1">  1       21 0.20607129E-02 0.12500000E+03</pdfrwt>
<pdfrwt beam="2">  1       21 0.44865843E-01 0.12500000E+03</pdfrwt>
<totfact> 0.55041340E+06</totfact>
</mgrwt>
</event>
<event>
 3    1  0.1628330E-001  0.1250000E+03  0.7546771E-02  0.1235069E+00
         21   -1    0    0  502  501  0.00000000000E+00  0.00000000000E+00  0.66831548274E+02  0.66831548274E+02  0.00000000000E+00 0. -1.
         21   -1    0    0  501  502 -0.00000000000E+00 -0.00000000000E+00 -0.58449192049E+02  0.58449192049E+02  0.00000000000E+00 0. -1.
         25    1    1    2    0    0  0.00000000000E+00  0.00000000000E+00  0.83823562247E+01  0.12528074032E+03  0.12500000000E+03 0.  0.
<mgrwt>
<rscale>  0 0.12500000E+03</rscale>
<asrwt>0</asrwt>
<pdfrwt beam="1">  1       21 0.10281777E-01 0.12500000E+03</pdfrwt>
<pdfrwt beam="2">  1       21 0.89921834E-02 0.12500000E+03</pdfrwt>
<totfact> 0.74005671E+06</totfact>
</mgrwt>
</event>
<event>
 3    1  0.1628330E-001  0.1250000E+03  0.7546771E-02  0.1235069E+00
         21   -1    0    0  502  501  0.00000000000E+00  0.00000000000E+00  0.13015073319E+03  0.13015073319E+03  0.00000000000E+00 0.  1.
         21   -1    0    0  501  502 -0.00000000000E+00 -0.00000000000E+00 -0.30013276946E+02  0.30013276946E+02  0.00000000000E+00 0.  1.
         25    1    1    2    0    0  0.00000000000E+00  0.00000000000E+00  0.10013745624E+03  0.16016401014E+03  0.12500000000E+03 0.  0.
<mgrwt>
<rscale>  0 0.12500000E+03</rscale>
<asrwt>0</asrwt>
<pdfrwt beam="1">  1       21 0.20023189E-01 0.12500000E+03</pdfrwt>
<pdfrwt beam="2">  1       21 0.46174273E-02 0.12500000E+03</pdfrwt>
<totfact> 0.69499461E+06</totfact>
</mgrwt>
</event>
<event>
 3    1  0.1628330E-001  0.1250000E+03  0.7546771E-02  0.1235069E+00
         21   -1    0    0  502  501  0.00000000000E+00  0.00000000000E+00  0.94717179786E+01  0.94717179786E+01  0.00000000000E+00 0. -1.
         21   -1    0    0  501  502 -0.00000000000E+00 -0.00000000000E+00 -0.41241198364E+03  0.41241198364E+03  0.00000000000E+00 0. -1.
         25    1    1    2    0    0  0.00000000000E+00  0.00000000000E+00 -0.40294026566E+03  0.42188370162E+03  0.12500000000E+03 0.  0.
<mgrwt>
<rscale>  0 0.12500000E+03</rscale>
<asrwt>0</asrwt>
<pdfrwt beam="1">  1       21 0.14571873E-02 0.12500000E+03</pdfrwt>
<pdfrwt beam="2">  1       21 0.63448000E-01 0.12500000E+03</pdfrwt>
<totfact> 0.46622911E+06</totfact>
</mgrwt>
</event>
<event>
 3    1  0.1628330E-001  0.1250000E+03  0.7546771E-02  0.1235069E+00
         21   -1    0    0  502  501  0.00000000000E+00  0.00000000000E+00  0.90723530212E+01  0.90723530212E+01  0.00000000000E+00 0.  1.
         21   -1    0    0  501  502 -0.00000000000E+00 -0.00000000000E+00 -0.43056635813E+03  0.43056635813E+03  0.00000000000E+00 0.  1.
         25    1    1    2    0    0  0.00000000000E+00  0.00000000000E+00 -0.42149400511E+03  0.43963871115E+03  0.12500000000E+03 0.  0.
<mgrwt>
<rscale>  0 0.12500000E+03</rscale>
<asrwt>0</asrwt>
<pdfrwt beam="1">  1       21 0.13957469E-02 0.12500000E+03</pdfrwt>
<pdfrwt beam="2">  1       21 0.66240966E-01 0.12500000E+03</pdfrwt>
<totfact> 0.45518684E+06</totfact>
</mgrwt>
</event>
<event>
 3    1  0.1628330E-001  0.1250000E+03  0.7546771E-02  0.1235069E+00
         21   -1    0    0  502  501  0.00000000000E+00  0.00000000000E+00  0.83955013567E+02  0.83955013567E+02  0.00000000000E+00 0. -1.
         21   -1    0    0  501  502 -0.00000000000E+00 -0.00000000000E+00 -0.46527894333E+02  0.46527894333E+02  0.00000000000E+00 0. -1.
         25    1    1    2    0    0  0.00000000000E+00  0.00000000000E+00  0.37427119233E+02  0.13048290790E+03  0.12500000000E+03 0.  0.
<mgrwt>
<rscale>  0 0.12500000E+03</rscale>
<asrwt>0</asrwt>
<pdfrwt beam="1">  1       21 0.12916156E-01 0.12500000E+03</pdfrwt>
<pdfrwt beam="2">  1       21 0.71581376E-02 0.12500000E+03</pdfrwt>
<totfact> 0.73300441E+06</totfact>
</mgrwt>
</event>
<event>
 3    1  0.1628330E-001  0.1250000E+03  0.7546771E-02  0.1235069E+00
         21   -1    0    0  502  501  0.00000000000E+00  0.00000000000E+00  0.62095239249E+02  0.62095239249E+02  0.00000000000E+00 0.  1.
         21   -1    0    0  501  502 -0.00000000000E+00 -0.00000000000E+00 -0.62907399137E+02  0.62907399137E+02  0.00000000000E+00 0.  1.
         25    1    1    2    0    0  0.00000000000E+00  0.00000000000E+00 -0.81215988799E+00  0.12500263839E+03  0.12500000000E+03 0.  0.
<mgrwt>
<rscale>  0 0.12500000E+03</rscale>
<asrwt>0</asrwt>
<pdfrwt beam="1">  1       21 0.95531138E-02 0.12500000E+03</pdfrwt>
<pdfrwt beam="2">  1       21 0.96780613E-02 0.12500000E+03</pdfrwt>
<totfact> 0.74043225E+06</totfact>
</mgrwt>
</event>
<event>
 3    1  0.1628330E-001  0.1250000E+03  0.7546771E-02  0.1235069E+00
         21   -1    0    0  502  501  0.00000000000E+00  0.00000000000E+00  0.12992434293E+02  0.12992434293E+02  0.00000000000E+00 0.  1.
         21   -1    0    0  501  502 -0.00000000000E+00 -0.00000000000E+00 -0.30065574411E+03  0.30065574411E+03  0.00000000000E+00 0.  1.
         25    1    1    2    0    0  0.00000000000E+00  0.00000000000E+00 -0.28766330981E+03  0.31364817840E+03  0.12500000000E+03 0.  0.
<mgrwt>
<rscale>  0 0.12500000E+03</rscale>
<asrwt>0</asrwt>
<pdfrwt beam="1">  1       21 0.19988363E-02 0.12500000E+03</pdfrwt>
<pdfrwt beam="2">  1       21 0.46254724E-01 0.12500000E+03</pdfrwt>
<totfact> 0.54340564E+06</totfact>
</mgrwt>
</event>
<event>
 3    1  0.1628330E-001  0.1250000E+03  0.7546771E-02  0.1235069E+00
         21   -1    0    0  502  501  0.00000000000E+00  0.00000000000E+00  0.62008511380E+01  0.62008511380E+01  0.00000000000E+00 0.  1.
         21   -1    0    0  501  502 -0.00000000000E+00 -0.00000000000E+00 -0.62995384232E+03  0.62995384232E+03  0.00000000000E+00 0.  1.
         25    1    1    2    0    0  0.00000000000E+00  0.00000000000E+00 -0.62375299118E+03  0.63615469346E+03  0.12500000000E+03 0.  0.
<mgrwt>
<rscale>  0 0.12500000E+03</rscale>
<asrwt>0</asrwt>
<pdfrwt beam="1">  1       21 0.95397726E-03 0.12500000E+03</pdfrwt>
<pdfrwt beam="2">  1       21 0.96915959E-01 0.12500000E+03</pdfrwt>
<totfact> 0.35506991E+06</totfact>
</mgrwt>
</event>
<event>
 3    1  0.1628330E-001  0.1250000E+03  0.7546771E-02  0.1235069E+00
         21   -1    0    0  502  501  0.00000000000E+00  0.00000000000E+00  0.39595717759E+02  0.39595717759E+02  0.00000000000E+00 0. -1.
         21   -1    0    0  501  502 -0.00000000000E+00 -0.00000000000E+00 -0.98653344885E+02  0.98653344885E+02  0.00000000000E+00 0. -1.
         25    1    1    2    0    0  0.00000000000E+00  0.00000000000E+00 -0.59057627126E+02  0.13824906264E+03  0.12500000000E+03 0.  0.
<mgrwt>
<rscale>  0 0.12500000E+03</rscale>
<asrwt>0</asrwt>
<pdfrwt beam="1">  1       21 0.60916490E-02 0.12500000E+03</pdfrwt>
<pdfrwt beam="2">  1       21 0.15177437E-01 0.12500000E+03</pdfrwt>
<totfact> 0.72268722E+06</totfact>
</mgrwt>
</event>
<event>
 3    1  0.1628330E-001  0.1250000E+03  0.7546771E-02  0.1235069E+00
         21   -1    0    0  502  501  0.00000000000E+00  0.00000000000E+00  0.13325599103E+04  0.13325599103E+04  0.00000000000E+00 0. -1.
         21   -1    0    0  501  502 -0.00000000000E+00 -0.00000000000E+00 -0.29313879021E+01  0.29313879021E+01  0.00000000000E+00 0. -1.
         25    1    1    2    0    0  0.00000000000E+00  0.00000000000E+00  0.13296285224E+04  0.13354912982E+04  0.12500000000E+03 0.  0.
<mgrwt>
<rscale>  0 0.12500000E+03</rscale>
<asrwt>0</asrwt>
<pdfrwt beam="1">  1       21 0.20500873E+00 0.12500000E+03</pdfrwt>
<pdfrwt beam="2">  1       21 0.45098382E-03 0.12500000E+03</pdfrwt>
<totfact> 0.16626943E+06</totfact>
</mgrwt>
</event>
<event>
 3    1  0.1628330E-001  0.1250000E+03  0.7546771E-02  0.1235069E+00
         21   -1    0    0  502  501  0.00000000000E+00  0.00000000000E+00  0.21377294123E+02  0.21377294123E+02  0.00000000000E+00 0. -1.
         21   -1    0    0  501  502 -0.00000000000E+00 -0.00000000000E+00 -0.18272892619E+03  0.18272892619E+03  0.00000000000E+00 0. -1.
         25    1    1    2    0    0  0.00000000000E+00  0.00000000000E+00 -0.16135163207E+03  0.20410622031E+03  0.12500000000E+03 0.  0.
<mgrwt>
<rscale>  0 0.12500000E+03</rscale>
<asrwt>0</asrwt>
<pdfrwt beam="1">  1       21 0.32888144E-02 0.12500000E+03</pdfrwt>
<pdfrwt beam="2">  1       21 0.28112143E-01 0.12500000E+03</pdfrwt>
<totfact> 0.64485013E+06</totfact>
</mgrwt>
</event>
<event>
 3    1  0.1628330E-001  0.1250000E+03  0.7546771E-02  0.1235069E+00
         21   -1    0    0  502  501  0.00000000000E+00  0.00000000000E+00  0.18830713535E+03  0.18830713535E+03  0.00000000000E+00 0. -1.
         21   -1    0    0  501  502 -0.00000000000E+00 -0.00000000000E+00 -0.20744036028E+02  0.20744036028E+02  0.00000000000E+00 0. -1.
         25    1    1    2    0    0  0.00000000000E+00  0.00000000000E+00  0.16756309932E+03  0.20905117137E+03  0.12500000000E+03 0.  0.
<mgrwt>
<rscale>  0 0.12500000E+03</rscale>
<asrwt>0</asrwt>
<pdfrwt beam="1">  1       21 0.28970327E-01 0.12500000E+03</pdfrwt>
<pdfrwt beam="2">  1       21 0.31913903E-02 0.12500000E+03</pdfrwt>
<totfact> 0.63959502E+06</totfact>
</mgrwt>
</event>
<event>
 3    1  0.1628330E-001  0.1250000E+03  0.7546771E-02  0.1235069E+00
         21   -1    0    0  502  501  0.00000000000E+00  0.00000000000E+00  0.47561177616E+02  0.47561177616E+02  0.00000000000E+00 0.  1.
         21   -1    0    0  501  502 -0.00000000000E+00 -0.00000000000E+00 -0.82131061421E+02  0.82131061421E+02  0.00000000000E+00 0.  1.
         25    1    1    2    0    0  0.00000000000E+00  0.00000000000E+00 -0.34569883805E+02  0.12969223904E+03  0.12500000000E+03 0.  0.
<mgrwt>
<rscale>  0 0.12500000E+03</rscale>
<asrwt>0</asrwt>
<pdfrwt beam="1">  1       21 0.73171042E-02 0.12500000E+03</pdfrwt>
<pdfrwt beam="2">  1       21 0.12635548E-01 0.12500000E+03</pdfrwt>
<totfact> 0.73406076E+06</totfact>
</mgrwt>
</event>
<event>
 3    1  0.1628330E-001  0.1250000E+03  0.7546771E-02  0.1235069E+00
         21   -1    0    0  502  501  0.00000000000E+00  0.00000000000E+00  0.14425665429E+02  0.14425665429E+02  0.00000000000E+00 0. -1.
         21   -1    0    0  501  502 -0.00000000000E+00 -0.00000000000E+00 -0.27078473567E+03  0.27078473567E+03  0.00000000000E+00 0. -1.
         25    1    1    2    0    0  0.00000000000E+00  0.00000000000E+00 -0.25635907024E+03  0.28521040110E+03  0.12500000000E+03 0.  0.
<mgrwt>
<rscale>  0 0.12500000E+03</rscale>
<asrwt>0</asrwt>
<pdfrwt beam="1">  1       21 0.22193334E-02 0.12500000E+03</pdfrwt>
<pdfrwt beam="2">  1       21 0.41659186E-01 0.12500000E+03</pdfrwt>
<totfact> 0.56708090E+06</totfact>
</mgrwt>
</event>
<event>
 3    1  0.1628330E-001  0.1250000E+03  0.7546771E-02  0.1235069E+00
         21   -1    0    0  502  501  0.00000000000E+00  0.00000000000E+00  0.93972114420E+03  0.93972114420E+03  0.00000000000E+00 0. -1.
         21   -1    0    0  501  502 -0.00000000000E+00 -0.00000000000E+00 -0.41568182477E+01  0.41568182477E+01  0.00000000000E+00 0. -1.
         25    1    1    2    0    0  0.00000000000E+00  0.00000000000E+00  0.93556432595E+03  0.94387796245E+03  0.12500000000E+03 0.  0.
<mgrwt>
<rscale>  0 0.12500000E+03</rscale>
<asrwt>0</asrwt>
<pdfrwt beam="1">  1       21 0.14457231E+00 0.12500000E+03</pdfrwt>
<pdfrwt beam="2">  1       21 0.63951125E-03 0.12500000E+03</pdfrwt>
<totfact> 0.25076064E+06</totfact>
</mgrwt>
</event>
<event>
 3    1  0.1628330E-001  0.1250000E+03  0.7546771E-02  0.1235069E+00
         21   -1    0    0  502  501  0.00000000000E+00  0.00000000000E+00  0.44739026092E+02  0.44739026092E+02  0.00000000000E+00 0. -1.
         21   -1    0    0  501  502 -0.00000000000E+00 -0.00000000000E+00 -0.87311914031E+02  0.87311914031E+02  0.00000000000E+00 0. -1.
         25    1    1    2    0    0  0.00000000000E+00  0.00000000000E+00 -0.42572887939E+02  0.13205094012E+03  0.12500000000E+03 0.  0.
<mgrwt>
<rscale>  0 0.12500000E+03</rscale>
<asrwt>0</asrwt>
<pdfrwt beam="1">  1       21 0.68829272E-02 0.12500000E+03</pdfrwt>
<pdfrwt beam="2">  1       21 0.13432602E-01 0.12500000E+03</pdfrwt>
<totfact> 0.73089397E+06</totfact>
</mgrwt>
</event>
<event>
 3    1  0.1628330E-001  0.1250000E+03  0.7546771E-02  0.1235069E+00
         21   -1    0    0  502  501  0.00000000000E+00  0.00000000000E+00  0.94982538129E+01  0.94982538129E+01  0.00000000000E+00 0. -1.
         21   -1    0    0  501  502 -0.00000000000E+00 -0.00000000000E+00 -0.41125980385E+03  0.41125980385E+03  0.00000000000E+00 0. -1.
         25    1    1    2    0    0  0.00000000000E+00  0.00000000000E+00 -0.40176155003E+03  0.42075805766E+03  0.12500000000E+03 0.  0.
<mgrwt>
<rscale>  0 0.12500000E+03</rscale>
<asrwt>0</asrwt>
<pdfrwt beam="1">  1       21 0.14612699E-02 0.12500000E+03</pdfrwt>
<pdfrwt beam="2">  1       21 0.63270734E-01 0.12500000E+03</pdfrwt>
<totfact> 0.46694297E+06</totfact>
</mgrwt>
</event>
<event>
 3    1  0.1628330E-001  0.1250000E+03  0.7546771E-02  0.1235069E+00
         21   -1    0    0  502  501  0.00000000000E+00  0.00000000000E+00  0.10212586445E+02  0.10212586445E+02  0.00000000000E+00 0. -1.
         21   -1    0    0  501  502 -0.00000000000E+00 -0.00000000000E+00 -0.38249370235E+03  0.38249370235E+03  0.00000000000E+00 0. -1.
         25    1    1    2    0    0  0.00000000000E+00  0.00000000000E+00 -0.37228111591E+03  0.39270628880E+03  0.12500000000E+03 0.  0.
<mgrwt>
<rscale>  0 0.12500000E+03</rscale>
<asrwt>0</asrwt>
<pdfrwt beam="1">  1       21 0.15711673E-02 0.12500000E+03</pdfrwt>
<pdfrwt beam="2">  1       21 0.58845180E-01 0.12500000E+03</pdfrwt>
<totfact> 0.48528929E+06</totfact>
</mgrwt>
</event>
<event>
 3    1  0.1628330E-001  0.1250000E+03  0.7546771E-02  0.1235069E+00
         21   -1    0    0  502  501  0.00000000000E+00  0.00000000000E+00  0.32587861135E+03  0.32587861135E+03  0.00000000000E+00 0.  1.
         21   -1    0    0  501  502 -0.00000000000E+00 -0.00000000000E+00 -0.11986825351E+02  0.11986825351E+02  0.00000000000E+00 0.  1.
         25    1    1    2    0    0  0.00000000000E+00  0.00000000000E+00  0.31389178600E+03  0.33786543670E+03  0.12500000000E+03 0.  0.
<mgrwt>
<rscale>  0 0.12500000E+03</rscale>
<asrwt>0</asrwt>
<pdfrwt beam="1">  1       21 0.50135164E-01 0.12500000E+03</pdfrwt>
<pdfrwt beam="2">  1       21 0.18441272E-02 0.12500000E+03</pdfrwt>
<totfact> 0.52447286E+06</totfact>
</mgrwt>
</event>
<event>
 3    1  0.1628330E-001  0.1250000E+03  0.7546771E-02  0.1235069E+00
         21   -1    0    0  502  501  0.00000000000E+00  0.00000000000E+00  0.43382937294E+02  0.43382937294E+02  0.00000000000E+00 0.  1.
         21   -1    0    0  501  502 -0.00000000000E+00 -0.00000000000E+00 -0.90041160043E+02  0.90041160043E+02  0.00000000000E+00 0.  1.
         25    1    1    2    0    0  0.00000000000E+00  0.00000000000E+00 -0.46658222749E+02  0.13342409734E+03  0.12500000000E+03 0.  0.
<mgrwt>
<rscale>  0 0.12500000E+03</rscale>
<asrwt>0</asrwt>
<pdfrwt beam="1">  1       21 0.66742982E-02 0.12500000E+03</pdfrwt>
<pdfrwt beam="2">  1       21 0.13852486E-01 0.12500000E+03</pdfrwt>
<totfact> 0.72905819E+06</totfact>
</mgrwt>
</event>
<event>
 3    1  0.1628330E-001  0.1250000E+03  0.7546771E-02  0.1235069E+00
         21   -1    0    0  502  501  0.00000000000E+00  0.00000000000E+00  0.52474062646E+02  0.52474062646E+02  0.00000000000E+00 0.  1.
         21   -1    0    0  501  502 -0.00000000000E+00 -0.00000000000E+00 -0.74441539363E+02  0.74441539363E+02  0.00000000000E+00 0.  1.
         25    1    1    2    0    0  0.00000000000E+00  0.00000000000E+00 -0.21967476717E+02  0.12691560201E+03  0.12500000000E+03 0.  0.
<mgrwt>
<rscale>  0 0.12500000E+03</rscale>
<asrwt>0</asrwt>
<pdfrwt beam="1">  1       21 0.80729327E-02 0.12500000E+03</pdfrwt>
<pdfrwt beam="2">  1       21 0.11452544E-01 0.12500000E+03</pdfrwt>
<totfact> 0.73780630E+06</totfact>
</mgrwt>
</event>
<event>
 3    1  0.1628330E-001  0.1250000E+03  0.7546771E-02  0.1235069E+00
         21   -1    0    0  502  501  0.00000000000E+00  0.00000000000E+00  0.32113770831E+02  0.32113770831E+02  0.00000000000E+00 0.  1.
         21   -1    0    0  501  502 -0.00000000000E+00 -0.00000000000E+00 -0.12163784878E+03  0.12163784878E+03  0.00000000000E+00 0.  1.
         25    1    1    2    0    0  0.00000000000E+00  0.00000000000E+00 -0.89524077945E+02  0.15375161961E+03  0.12500000000E+03 0.  0.
<mgrwt>
<rscale>  0 0.12500000E+03</rscale>
<asrwt>0</asrwt>
<pdfrwt beam="1">  1       21 0.49405802E-02 0.12500000E+03</pdfrwt>
<pdfrwt beam="2">  1       21 0.18713515E-01 0.12500000E+03</pdfrwt>
<totfact> 0.70291049E+06</totfact>
</mgrwt>
</event>
<event>
 3    1  0.1628330E-001  0.1250000E+03  0.7546771E-02  0.1235069E+00
         21   -1    0    0  502  501  0.00000000000E+00  0.00000000000E+00  0.26543526972E+03  0.26543526972E+03  0.00000000000E+00 0. -1.
         21   -1    0    0  501  502 -0.00000000000E+00 -0.00000000000E+00 -0.14716393960E+02  0.14716393960E+02  0.00000000000E+00 0. -1.
         25    1    1    2    0    0  0.00000000000E+00  0.00000000000E+00  0.25071887576E+03  0.28015166368E+03  0.12500000000E+03 0.  0.
<mgrwt>
<rscale>  0 0.12500000E+03</rscale>
<asrwt>0</asrwt>
<pdfrwt beam="1">  1       21 0.40836192E-01 0.12500000E+03</pdfrwt>
<pdfrwt beam="2">  1       21 0.22640608E-02 0.12500000E+03</pdfrwt>
<totfact> 0.57147069E+06</totfact>
</mgrwt>
</event>
<event>
 3    1  0.1628330E-001  0.1250000E+03  0.7546771E-02  0.1235069E+00
         21   -1    0    0  502  501  0.00000000000E+00  0.00000000000E+00  0.18759532547E+03  0.18759532547E+03  0.00000000000E+00 0.  1.
         21   -1    0    0  501  502 -0.00000000000E+00 -0.00000000000E+00 -0.20822746997E+02  0.20822746997E+02  0.00000000000E+00 0.  1.
         25    1    1    2    0    0  0.00000000000E+00  0.00000000000E+00  0.16677257847E+03  0.20841807246E+03  0.12500000000E+03 0.  0.
<mgrwt>
<rscale>  0 0.12500000E+03</rscale>
<asrwt>0</asrwt>
<pdfrwt beam="1">  1       21 0.28860818E-01 0.12500000E+03</pdfrwt>
<pdfrwt beam="2">  1       21 0.32034997E-02 0.12500000E+03</pdfrwt>
<totfact> 0.64026358E+06</totfact>
</mgrwt>
</event>
<event>
 3    1  0.1628330E-001  0.1250000E+03  0.7546771E-02  0.1235069E+00
         21   -1    0    0  502  501  0.00000000000E+00  0.00000000000E+00  0.46577335738E+02  0.46577335738E+02  0.00000000000E+00 0.  1.
         21   -1    0    0  501  502 -0.00000000000E+00 -0.00000000000E+00 -0.83865896109E+02  0.83865896109E+02  0.00000000000E+00 0.  1.
         25    1    1    2    0    0  0.00000000000E+00  0.00000000000E+00 -0.37288560371E+02  0.13044323185E+03  0.12500000000E+03 0.  0.
<mgrwt>
<rscale>  0 0.12500000E+03</rscale>
<asrwt>0</asrwt>
<pdfrwt beam="1">  1       21 0.71657441E-02 0.12500000E+03</pdfrwt>
<pdfrwt beam="2">  1       21 0.12902445E-01 0.12500000E+03</pdfrwt>
<totfact> 0.73305736E+06</totfact>
</mgrwt>
</event>
<event>
 3    1  0.1628330E-001  0.1250000E+03  0.7546771E-02  0.1235069E+00
         21   -1    0    0  502  501  0.00000000000E+00  0.00000000000E+00  0.63712338456E+02  0.63712338456E+02  0.00000000000E+00 0. -1.
         21   -1    0    0  501  502 -0.00000000000E+00 -0.00000000000E+00 -0.61310730302E+02  0.61310730302E+02  0.00000000000E+00 0. -1.
         25    1    1    2    0    0  0.00000000000E+00  0.00000000000E+00  0.24016081537E+01  0.12502306876E+03  0.12500000000E+03 0.  0.
<mgrwt>
<rscale>  0 0.12500000E+03</rscale>
<asrwt>0</asrwt>
<pdfrwt beam="1">  1       21 0.98018982E-02 0.12500000E+03</pdfrwt>
<pdfrwt beam="2">  1       21 0.94324200E-02 0.12500000E+03</pdfrwt>
<totfact> 0.74040466E+06</totfact>
</mgrwt>
</event>
<event>
 3    1  0.1628330E-001  0.1250000E+03  0.7546771E-02  0.1235069E+00
         21   -1    0    0  502  501  0.00000000000E+00  0.00000000000E+00  0.33993619467E+03  0.33993619467E+03  0.00000000000E+00 0.  1.
         21   -1    0    0  501  502 -0.00000000000E+00 -0.00000000000E+00 -0.11491127045E+02  0.11491127045E+02  0.00000000000E+00 0.  1.
         25    1    1    2    0    0  0.00000000000E+00  0.00000000000E+00  0.32844506762E+03  0.35142732171E+03  0.12500000000E+03 0.  0.
<mgrwt>
<rscale>  0 0.12500000E+03</rscale>
<asrwt>0</asrwt>
<pdfrwt beam="1">  1       21 0.52297869E-01 0.12500000E+03</pdfrwt>
<pdfrwt beam="2">  1       21 0.17678660E-02 0.12500000E+03</pdfrwt>
<totfact> 0.51433196E+06</totfact>
</mgrwt>
</event>
<event>
 3    1  0.1628330E-001  0.1250000E+03  0.7546771E-02  0.1235069E+00
         21   -1    0    0  502  501  0.00000000000E+00  0.00000000000E+00  0.13907658881E+02  0.13907658881E+02  0.00000000000E+00 0.  1.
         21   -1    0    0  501  502 -0.00000000000E+00 -0.00000000000E+00 -0.28087042064E+03  0.28087042064E+03  0.00000000000E+00 0.  1.
         25    1    1    2    0    0  0.00000000000E+00  0.00000000000E+00 -0.26696276176E+03  0.29477807952E+03  0.12500000000E+03 0.  0.
<mgrwt>
<rscale>  0 0.12500000E+03</rscale>
<asrwt>0</asrwt>
<pdfrwt beam="1">  1       21 0.21396400E-02 0.12500000E+03</pdfrwt>
<pdfrwt beam="2">  1       21 0.43210830E-01 0.12500000E+03</pdfrwt>
<totfact> 0.55892949E+06</totfact>
</mgrwt>
</event>
<event>
 3    1  0.1628330E-001  0.1250000E+03  0.7546771E-02  0.1235069E+00
         21   -1    0    0  502  501  0.00000000000E+00  0.00000000000E+00  0.21416164292E+02  0.21416164292E+02  0.00000000000E+00 0. -1.
         21   -1    0    0  501  502 -0.00000000000E+00 -0.00000000000E+00 -0.18239727464E+03  0.18239727464E+03  0.00000000000E+00 0. -1.
         25    1    1    2    0    0  0.00000000000E+00  0.00000000000E+00 -0.16098111035E+03  0.20381343893E+03  0.12500000000E+03 0.  0.
<mgrwt>
<rscale>  0 0.12500000E+03</rscale>
<asrwt>0</asrwt>
<pdfrwt beam="1">  1       21 0.32947946E-02 0.12500000E+03</pdfrwt>
<pdfrwt beam="2">  1       21 0.28061118E-01 0.12500000E+03</pdfrwt>
<totfact> 0.64516369E+06</totfact>
</mgrwt>
</event>
<event>
 3    1  0.1628330E-001  0.1250000E+03  0.7546771E-02  0.1235069E+00
         21   -1    0    0  502  501  0.00000000000E+00  0.00000000000E+00  0.22030508229E+03  0.22030508229E+03  0.00000000000E+00 0. -1.
         21   -1    0    0  501  502 -0.00000000000E+00 -0.00000000000E+00 -0.17731093442E+02  0.17731093442E+02  0.00000000000E+00 0. -1.
         25    1    1    2    0    0  0.00000000000E+00  0.00000000000E+00  0.20257398885E+03  0.23803617574E+03  0.12500000000E+03 0.  0.
<mgrwt>
<rscale>  0 0.12500000E+03</rscale>
<asrwt>0</asrwt>
<pdfrwt beam="1">  1       21 0.33893088E-01 0.12500000E+03</pdfrwt>
<pdfrwt beam="2">  1       21 0.27278607E-02 0.12500000E+03</pdfrwt>
<totfact> 0.61023218E+06</totfact>
</mgrwt>
</event>
<event>
 3    1  0.1628330E-001  0.1250000E+03  0.7546771E-02  0.1235069E+00
         21   -1    0    0  502  501  0.00000000000E+00  0.00000000000E+00  0.11212501168E+03  0.11212501168E+03  0.00000000000E+00 0.  1.
         21   -1    0    0  501  502 -0.00000000000E+00 -0.00000000000E+00 -0.34838346428E+02  0.34838346428E+02  0.00000000000E+00 0.  1.
         25    1    1    2    0    0  0.00000000000E+00  0.00000000000E+00  0.77286665249E+02  0.14696335810E+03  0.12500000000E+03 0.  0.
<mgrwt>
<rscale>  0 0.12500000E+03</rscale>
<asrwt>0</asrwt>
<pdfrwt beam="1">  1       21 0.17250002E-01 0.12500000E+03</pdfrwt>
<pdfrwt beam="2">  1       21 0.53597456E-02 0.12500000E+03</pdfrwt>
<totfact> 0.71142776E+06</totfact>
</mgrwt>
</event>
<event>
 3    1  0.1628330E-001  0.1250000E+03  0.7546771E-02  0.1235069E+00
         21   -1    0    0  502  501  0.00000000000E+00  0.00000000000E+00  0.80789375818E+01  0.80789375818E+01  0.00000000000E+00 0. -1.
         21   -1    0    0  501  502 -0.00000000000E+00 -0.00000000000E+00 -0.48351035770E+03  0.48351035770E+03  0.00000000000E+00 0. -1.
         25    1    1    2    0    0  0.00000000000E+00  0.00000000000E+00 -0.47543142012E+03  0.49158929528E+03  0.12500000000E+03 0.  0.
<mgrwt>
<rscale>  0 0.12500000E+03</rscale>
<asrwt>0</asrwt>
<pdfrwt beam="1">  1       21 0.12429136E-02 0.12500000E+03</pdfrwt>
<pdfrwt beam="2">  1       21 0.74386201E-01 0.12500000E+03</pdfrwt>
<totfact> 0.42503909E+06</totfact>
</mgrwt>
</event>
<event>
 3    1  0.1628330E-001  0.1250000E+03  0.7546771E-02  0.1235069E+00
         21   -1    0    0  502  501  0.00000000000E+00  0.00000000000E+00  0.43237844535E+03  0.43237844535E+03  0.00000000000E+00 0. -1.
         21   -1    0    0  501  502 -0.00000000000E+00 -0.00000000000E+00 -0.90343310172E+01  0.90343310172E+01  0.00000000000E+00 0. -1.
         25    1    1    2    0    0  0.00000000000E+00  0.00000000000E+00  0.42334411433E+03  0.44141277637E+03  0.12500000000E+03 0.  0.
<mgrwt>
<rscale>  0 0.12500000E+03</rscale>
<asrwt>0</asrwt>
<pdfrwt beam="1">  1       21 0.66519745E-01 0.12500000E+03</pdfrwt>
<pdfrwt beam="2">  1       21 0.13898974E-02 0.12500000E+03</pdfrwt>
<totfact> 0.45410545E+06</totfact>
</mgrwt>
</event>
<event>
 3    1  0.1628330E-001  0.1250000E+03  0.7546771E-02  0.1235069E+00
         21   -1    0    0  502  501  0.00000000000E+00  0.00000000000E+00  0.22579082921E+02  0.22579082921E+02  0.00000000000E+00 0. -1.
         21   -1    0    0  501  502 -0.00000000000E+00 -0.00000000000E+00 -0.17300304063E+03  0.17300304063E+03  0.00000000000E+00 0. -1.
         25    1    1    2    0    0  0.00000000000E+00  0.00000000000E+00 -0.15042395771E+03  0.19558212355E+03  0.12500000000E+03 0.  0.
<mgrwt>
<rscale>  0 0.12500000E+03</rscale>
<asrwt>0</asrwt>
<pdfrwt beam="1">  1       21 0.34737049E-02 0.12500000E+03</pdfrwt>
<pdfrwt beam="2">  1       21 0.26615854E-01 0.12500000E+03</pdfrwt>
<totfact> 0.65407366E+06</totfact>
</mgrwt>
</event>
<event>
 3    1  0.1628330E-001  0.1250000E+03  0.7546771E-02  0.1235069E+00
         21   -1    0    0  502  501  0.00000000000E+00  0.00000000000E+00  0.10540810942E+02  0.10540810942E+02  0.00000000000E+00 0.  1.
         21   -1    0    0  501  502 -0.00000000000E+00 -0.00000000000E+00 -0.37058344197E+03  0.37058344197E+03  0.00000000000E+00 0.  1.
         25    1    1    2    0    0  0.00000000000E+00  0.00000000000E+00 -0.36004263103E+03  0.38112425292E+03  0.12500000000E+03 0.  0.
<mgrwt>
<rscale>  0 0.12500000E+03</rscale>
<asrwt>0</asrwt>
<pdfrwt beam="1">  1       21 0.16216634E-02 0.12500000E+03</pdfrwt>
<pdfrwt beam="2">  1       21 0.57012832E-01 0.12500000E+03</pdfrwt>
<totfact> 0.49318810E+06</totfact>
</mgrwt>
</event>
<event>
 3    1  0.1628330E-001  0.1250000E+03  0.7546771E-02  0.1235069E+00
         21   -1    0    0  502  501  0.00000000000E+00  0.00000000000E+00  0.11444630316E+02  0.11444630316E+02  0.00000000000E+00 0.  1.
         21   -1    0    0  501  502 -0.00000000000E+00 -0.00000000000E+00 -0.34131727212E+03  0.34131727212E+03  0.00000000000E+00 0.  1.
         25    1    1    2    0    0  0.00000000000E+00  0.00000000000E+00 -0.32987264181E+03  0.35276190244E+03  0.12500000000E+03 0.  0.
<mgrwt>
<rscale>  0 0.12500000E+03</rscale>
<asrwt>0</asrwt>
<pdfrwt beam="1">  1       21 0.17607123E-02 0.12500000E+03</pdfrwt>
<pdfrwt beam="2">  1       21 0.52510350E-01 0.12500000E+03</pdfrwt>
<totfact> 0.51335102E+06</totfact>
</mgrwt>
</event>
<event>
 3    1  0.1628330E-001  0.1250000E+03  0.7546771E-02  0.1235069E+00
         21   -1    0    0  502  501  0.00000000000E+00  0.00000000000E+00  0.13636889251E+02  0.13636889251E+02  0.00000000000E+00 0.  1.
         21   -1    0    0  501  502 -0.00000000000E+00 -0.00000000000E+00 -0.28644729220E+03  0.28644729220E+03  0.00000000000E+00 0.  1.
         25    1    1    2    0    0  0.00000000000E+00  0.00000000000E+00 -0.27281040295E+03  0.30008418146E+03  0.12500000000E+03 0.  0.
<mgrwt>
<rscale>  0 0.12500000E+03</rscale>
<asrwt>0</asrwt>
<pdfrwt beam="1">  1       21 0.20979830E-02 0.12500000E+03</pdfrwt>
<pdfrwt beam="2">  1       21 0.44068812E-01 0.12500000E+03</pdfrwt>
<totfact> 0.55449179E+06</totfact>
</mgrwt>
</event>
<event>
 3    1  0.1628330E-001  0.1250000E+03  0.7546771E-02  0.1235069E+00
         21   -1    0    0  502  501  0.00000000000E+00  0.00000000000E+00  0.70088841824E+02  0.70088841824E+02  0.00000000000E+00 0.  1.
         21   -1    0    0  501  502 -0.00000000000E+00 -0.00000000000E+00 -0.55732837044E+02  0.55732837044E+02  0.00000000000E+00 0.  1.
         25    1    1    2    0    0  0.00000000000E+00  0.00000000000E+00  0.14356004779E+02  0.12582167887E+03  0.12500000000E+03 0.  0.
<mgrwt>
<rscale>  0 0.12500000E+03</rscale>
<asrwt>0</asrwt>
<pdfrwt beam="1">  1       21 0.10782899E-01 0.12500000E+03</pdfrwt>
<pdfrwt beam="2">  1       21 0.85742826E-02 0.12500000E+03</pdfrwt>
<totfact> 0.73930671E+06</totfact>
</mgrwt>
</event>
<event>
 3    1  0.1628330E-001  0.1250000E+03  0.7546771E-02  0.1235069E+00
         21   -1    0    0  502  501  0.00000000000E+00  0.00000000000E+00  0.84067933362E+02  0.84067933362E+02  0.00000000000E+00 0. -1.
         21   -1    0    0  501  502 -0.00000000000E+00 -0.00000000000E+00 -0.46465398206E+02  0.46465398206E+02  0.00000000000E+00 0. -1.
         25    1    1    2    0    0  0.00000000000E+00  0.00000000000E+00  0.37602535156E+02  0.13053333157E+03  0.12500000000E+03 0.  0.
<mgrwt>
<rscale>  0 0.12500000E+03</rscale>
<asrwt>0</asrwt>
<pdfrwt beam="1">  1       21 0.12933528E-01 0.12500000E+03</pdfrwt>
<pdfrwt beam="2">  1       21 0.71485228E-02 0.12500000E+03</pdfrwt>
<totfact> 0.73293629E+06</totfact>
</mgrwt>
</event>
<event>
 3    1  0.1628330E-001  0.1250000E+03  0.7546771E-02  0.1235069E+00
         21   -1    0    0  502  501  0.00000000000E+00  0.00000000000E+00  0.13707597937E+03  0.13707597937E+03  0.00000000000E+00 0. -1.
         21   -1    0    0  501  502 -0.00000000000E+00 -0.00000000000E+00 -0.28496969477E+02  0.28496969477E+02  0.00000000000E+00 0. -1.
         25    1    1    2    0    0  0.00000000000E+00  0.00000000000E+00  0.10857900989E+03  0.16557294884E+03  0.12500000000E+03 0.  0.
<mgrwt>
<rscale>  0 0.12500000E+03</rscale>
<asrwt>0</asrwt>
<pdfrwt beam="1">  1       21 0.21088612E-01 0.12500000E+03</pdfrwt>
<pdfrwt beam="2">  1       21 0.43841492E-02 0.12500000E+03</pdfrwt>
<totfact> 0.68844873E+06</totfact>
</mgrwt>
</event>
<event>
 3    1  0.1628330E-001  0.1250000E+03  0.7546771E-02  0.1235069E+00
         21   -1    0    0  502  501  0.00000000000E+00  0.00000000000E+00  0.10217472594E+04  0.10217472594E+04  0.00000000000E+00 0.  1.
         21   -1    0    0  501  502 -0.00000000000E+00 -0.00000000000E+00 -0.38231078811E+01  0.38231078811E+01  0.00000000000E+00 0.  1.
         25    1    1    2    0    0  0.00000000000E+00  0.00000000000E+00  0.10179241515E+04  0.10255703673E+04  0.12500000000E+03 0.  0.
<mgrwt>
<rscale>  0 0.12500000E+03</rscale>
<asrwt>0</asrwt>
<pdfrwt beam="1">  1       21 0.15719167E+00 0.12500000E+03</pdfrwt>
<pdfrwt beam="2">  1       21 0.58817126E-03 0.12500000E+03</pdfrwt>
<totfact> 0.22986868E+06</totfact>
</mgrwt>
</event>
<event>
 3    1  0.1628330E-001  0.1250000E+03  0.7546771E-02  0.1235069E+00
         21   -1    0    0  502  501  0.00000000000E+00  0.00000000000E+00  0.10177829352E+03  0.10177829352E+03  0.00000000000E+00 0.  1.
         21   -1    0    0  501  502 -0.00000000000E+00 -0.00000000000E+00 -0.38379991105E+02  0.38379991105E+02  0.00000000000E+00 0.  1.
         25    1    1    2    0    0  0.00000000000E+00  0.00000000000E+00  0.63398302416E+02  0.14015828463E+03  0.12500000000E+03 0.  0.
<mgrwt>
<rscale>  0 0.12500000E+03</rscale>
<asrwt>0</asrwt>
<pdfrwt beam="1">  1       21 0.15658199E-01 0.12500000E+03</pdfrwt>
<pdfrwt beam="2">  1       21 0.59046141E-02 0.12500000E+03</pdfrwt>
<totfact> 0.72018651E+06</totfact>
</mgrwt>
</event>
<event>
 3    1  0.1628330E-001  0.1250000E+03  0.7546771E-02  0.1235069E+00
         21   -1    0    0  502  501  0.00000000000E+00  0.00000000000E+00  0.23935908958E+02  0.23935908958E+02  0.00000000000E+00 0.  1.
         21   -1    0    0  501  502 -0.00000000000E+00 -0.00000000000E+00 -0.16319622567E+03  0.16319622567E+03  0.00000000000E+00 0.  1.
         25    1    1    2    0    0  0.00000000000E+00  0.00000000000E+00 -0.13926031671E+03  0.18713213463E+03  0.12500000000E+03 0.  0.
<mgrwt>
<rscale>  0 0.12500000E+03</rscale>
<asrwt>0</asrwt>
<pdfrwt beam="1">  1       21 0.36824477E-02 0.12500000E+03</pdfrwt>
<pdfrwt beam="2">  1       21 0.25107110E-01 0.12500000E+03</pdfrwt>
<totfact> 0.66342628E+06</totfact>
</mgrwt>
</event>
<event>
 3    1  0.1628330E-001  0.1250000E+03  0.7546771E-02  0.1235069E+00
         21   -1    0    0  502  501  0.00000000000E+00  0.00000000000E+00  0.26509184506E+03  0.26509184506E+03  0.00000000000E+00 0. -1.
         21   -1    0    0  501  502 -0.00000000000E+00 -0.00000000000E+00 -0.14735458947E+02  0.14735458947E+02  0.00000000000E+00 0. -1.
         25    1    1    2    0    0  0.00000000000E+00  0.00000000000E+00  0.25035638612E+03  0.27982730401E+03  0.12500000000E+03 0.  0.
<mgrwt>
<rscale>  0 0.12500000E+03</rscale>
<asrwt>0</asrwt>
<pdfrwt beam="1">  1       21 0.40783357E-01 0.12500000E+03</pdfrwt>
<pdfrwt beam="2">  1       21 0.22669939E-02 0.12500000E+03</pdfrwt>
<totfact> 0.57175408E+06</totfact>
</mgrwt>
</event>
<event>
 3    1  0.1628330E-001  0.1250000E+03  0.7546771E-02  0.1235069E+00
         21   -1    0    0  502  501  0.00000000000E+00  0.00000000000E+00  0.42040245802E+02  0.42040245802E+02  0.00000000000E+00 0.  1.
         21   -1    0    0  501  502 -0.00000000000E+00 -0.00000000000E+00 -0.92916916291E+02  0.92916916291E+02  0.00000000000E+00 0.  1.
         25    1    1    2    0    0  0.00000000000E+00  0.00000000000E+00 -0.50876670489E+02  0.13495716209E+03  0.12500000000E+03 0.  0.
<mgrwt>
<rscale>  0 0.12500000E+03</rscale>
<asrwt>0</asrwt>
<pdfrwt beam="1">  1       21 0.64677301E-02 0.12500000E+03</pdfrwt>
<pdfrwt beam="2">  1       21 0.14294910E-01 0.12500000E+03</pdfrwt>
<totfact> 0.72702144E+06</totfact>
</mgrwt>
</event>
<event>
 3    1  0.1628330E-001  0.1250000E+03  0.7546771E-02  0.1235069E+00
         21   -1    0    0  502  501  0.00000000000E+00  0.00000000000E+00  0.16567095634E+02  0.16567095634E+02  0.00000000000E+00 0. -1.
         21   -1    0    0  501  502 -0.00000000000E+00 -0.00000000000E+00 -0.23578363319E+03  0.23578363319E+03  0.00000000000E+00 0. -1.
         25    1    1    2    0    0  0.00000000000E+00  0.00000000000E+00 -0.21921653755E+03  0.25235072882E+03  0.12500000000E+03 0.  0.
<mgrwt>
<rscale>  0 0.12500000E+03</rscale>
<asrwt>0</asrwt>
<pdfrwt beam="1">  1       21 0.25487840E-02 0.12500000E+03</pdfrwt>
<pdfrwt beam="2">  1       21 0.36274404E-01 0.12500000E+03</pdfrwt>
<totfact> 0.59657575E+06</totfact>
</mgrwt>
</event>
<event>
 3    1  0.1628330E-001  0.1250000E+03  0.7546771E-02  0.1235069E+00
         21   -1    0    0  502  501  0.00000000000E+00  0.00000000000E+00  0.11877071539E+03  0.11877071539E+03  0.00000000000E+00 0.  1.
         21   -1    0    0  501  502 -0.00000000000E+00 -0.00000000000E+00 -0.32888999507E+02  0.32888999507E+02  0.00000000000E+00 0.  1.
         25    1    1    2    0    0  0.00000000000E+00  0.00000000000E+00  0.85881715887E+02  0.15165971490E+03  0.12500000000E+03 0.  0.
<mgrwt>
<rscale>  0 0.12500000E+03</rscale>
<asrwt>0</asrwt>
<pdfrwt beam="1">  1       21 0.18272418E-01 0.12500000E+03</pdfrwt>
<pdfrwt beam="2">  1       21 0.50598461E-02 0.12500000E+03</pdfrwt>
<totfact> 0.70551328E+06</totfact>
</mgrwt>
</event>
<event>
 3    1  0.1628330E-001  0.1250000E+03  0.7546771E-02  0.1235069E+00
         21   -1    0    0  502  501  0.00000000000E+00  0.00000000000E+00  0.87686891141E+03  0.87686891141E+03  0.00000000000E+00 0. -1.
         21   -1    0    0  501  502 -0.00000000000E+00 -0.00000000000E+00 -0.44547707749E+01  0.44547707749E+01  0.00000000000E+00 0. -1.
         25    1    1    2    0    0  0.00000000000E+00  0.00000000000E+00  0.87241414063E+03  0.88132368218E+03  0.12500000000E+03 0.  0.
<mgrwt>
<rscale>  0 0.12500000E+03</rscale>
<asrwt>0</asrwt>
<pdfrwt beam="1">  1       21 0.13490277E+00 0.12500000E+03</pdfrwt>
<pdfrwt beam="2">  1       21 0.68535004E-03 0.12500000E+03</pdfrwt>
<totfact> 0.26838075E+06</totfact>
</mgrwt>
</event>
<event>
 3    1  0.1628330E-001  0.1250000E+03  0.7546771E-02  0.1235069E+00
         21   -1    0    0  502  501  0.00000000000E+00  0.00000000000E+00  0.47239809627E+03  0.47239809627E+03  0.00000000000E+00 0.  1.
         21   -1    0    0  501  502 -0.00000000000E+00 -0.00000000000E+00 -0.82689791319E+01  0.82689791319E+01  0.00000000000E+00 0.  1.
         25    1    1    2    0    0  0.00000000000E+00  0.00000000000E+00  0.46412911714E+03  0.48066707540E+03  0.12500000000E+03 0.  0.
<mgrwt>
<rscale>  0 0.12500000E+03</rscale>
<asrwt>0</asrwt>
<pdfrwt beam="1">  1       21 0.72676609E-01 0.12500000E+03</pdfrwt>
<pdfrwt beam="2">  1       21 0.12721510E-02 0.12500000E+03</pdfrwt>
<totfact> 0.43112333E+06</totfact>
</mgrwt>
</event>
<event>
 3    1  0.1628330E-001  0.1250000E+03  0.7546771E-02  0.1235069E+00
         21   -1    0    0  502  501  0.00000000000E+00  0.00000000000E+00  0.73173779589E+02  0.73173779589E+02  0.00000000000E+00 0.  1.
         21   -1    0    0  501  502 -0.00000000000E+00 -0.00000000000E+00 -0.53383193023E+02  0.53383193023E+02  0.00000000000E+00 0.  1.
         25    1    1    2    0    0  0.00000000000E+00  0.00000000000E+00  0.19790586566E+02  0.12655697261E+03  0.12500000000E+03 0.  0.
<mgrwt>
<rscale>  0 0.12500000E+03</rscale>
<asrwt>0</asrwt>
<pdfrwt beam="1">  1       21 0.11257505E-01 0.12500000E+03</pdfrwt>
<pdfrwt beam="2">  1       21 0.82127989E-02 0.12500000E+03</pdfrwt>
<totfact> 0.73829579E+06</totfact>
</mgrwt>
</event>
<event>
 3    1  0.1628330E-001  0.1250000E+03  0.7546771E-02  0.1235069E+00
         21   -1    0    0  502  501  0.00000000000E+00  0.00000000000E+00  0.39062279913E+02  0.39062279913E+02  0.00000000000E+00 0.  1.
         21   -1    0    0  501  502 -0.00000000000E+00 -0.00000000000E+00 -0.10000056342E+03  0.10000056342E+03  0.00000000000E+00 0.  1.
         25    1    1    2    0    0  0.00000000000E+00  0.00000000000E+00 -0.60938283511E+02  0.13906284334E+03  0.12500000000E+03 0.  0.
<mgrwt>
<rscale>  0 0.12500000E+03</rscale>
<asrwt>0</asrwt>
<pdfrwt beam="1">  1       21 0.60095816E-02 0.12500000E+03</pdfrwt>
<pdfrwt beam="2">  1       21 0.15384702E-01 0.12500000E+03</pdfrwt>
<totfact> 0.72161889E+06</totfact>
</mgrwt>
</event>
<event>
 3    1  0.1628330E-001  0.1250000E+03  0.7546771E-02  0.1235069E+00
         21   -1    0    0  502  501  0.00000000000E+00  0.00000000000E+00  0.10064996703E+02  0.10064996703E+02  0.00000000000E+00 0. -1.
         21   -1    0    0  501  502 -0.00000000000E+00 -0.00000000000E+00 -0.38810246197E+03  0.38810246197E+03  0.00000000000E+00 0. -1.
         25    1    1    2    0    0  0.00000000000E+00  0.00000000000E+00 -0.37803746527E+03  0.39816745867E+03  0.12500000000E+03 0.  0.
<mgrwt>
<rscale>  0 0.12500000E+03</rscale>
<asrwt>0</asrwt>
<pdfrwt beam="1">  1       21 0.15484615E-02 0.12500000E+03</pdfrwt>
<pdfrwt beam="2">  1       21 0.59708052E-01 0.12500000E+03</pdfrwt>
<totfact> 0.48163147E+06</totfact>
</mgrwt>
</event>
<event>
 3    1  0.1628330E-001  0.1250000E+03  0.7546771E-02  0.1235069E+00
         21   -1    0    0  502  501  0.00000000000E+00  0.00000000000E+00  0.35350119592E+01  0.35350119592E+01  0.00000000000E+00 0.  1.
         21   -1    0    0  501  502 -0.00000000000E+00 -0.00000000000E+00 -0.11050174780E+04  0.11050174780E+04  0.00000000000E+00 0.  1.
         25    1    1    2    0    0  0.00000000000E+00  0.00000000000E+00 -0.11014824661E+04  0.11085524900E+04  0.12500000000E+03 0.  0.
<mgrwt>
<rscale>  0 0.12500000E+03</rscale>
<asrwt>0</asrwt>
<pdfrwt beam="1">  1       21 0.54384788E-03 0.12500000E+03</pdfrwt>
<pdfrwt beam="2">  1       21 0.17000273E+00 0.12500000E+03</pdfrwt>
<totfact> 0.21062195E+06</totfact>
</mgrwt>
</event>
<event>
 3    1  0.1628330E-001  0.1250000E+03  0.7546771E-02  0.1235069E+00
         21   -1    0    0  502  501  0.00000000000E+00  0.00000000000E+00  0.10404669080E+03  0.10404669080E+03  0.00000000000E+00 0. -1.
         21   -1    0    0  501  502 -0.00000000000E+00 -0.00000000000E+00 -0.37543241115E+02  0.37543241115E+02  0.00000000000E+00 0. -1.
         25    1    1    2    0    0  0.00000000000E+00  0.00000000000E+00  0.66503449687E+02  0.14158993192E+03  0.12500000000E+03 0.  0.
<mgrwt>
<rscale>  0 0.12500000E+03</rscale>
<asrwt>0</asrwt>
<pdfrwt beam="1">  1       21 0.16007183E-01 0.12500000E+03</pdfrwt>
<pdfrwt beam="2">  1       21 0.57758833E-02 0.12500000E+03</pdfrwt>
<totfact> 0.71832420E+06</totfact>
</mgrwt>
</event>
<event>
 3    1  0.1628330E-001  0.1250000E+03  0.7546771E-02  0.1235069E+00
         21   -1    0    0  502  501  0.00000000000E+00  0.00000000000E+00  0.14223074161E+03  0.14223074161E+03  0.00000000000E+00 0. -1.
         21   -1    0    0  501  502 -0.00000000000E+00 -0.00000000000E+00 -0.27464175155E+02  0.27464175155E+02  0.00000000000E+00 0. -1.
         25    1    1    2    0    0  0.00000000000E+00  0.00000000000E+00  0.11476656646E+03  0.16969491677E+03  0.12500000000E+03 0.  0.
<mgrwt>
<rscale>  0 0.12500000E+03</rscale>
<asrwt>0</asrwt>
<pdfrwt beam="1">  1       21 0.21881652E-01 0.12500000E+03</pdfrwt>
<pdfrwt beam="2">  1       21 0.42252578E-02 0.12500000E+03</pdfrwt>
<totfact> 0.68353819E+06</totfact>
</mgrwt>
</event>
<event>
 3    1  0.1628330E-001  0.1250000E+03  0.7546771E-02  0.1235069E+00
         21   -1    0    0  502  501  0.00000000000E+00  0.00000000000E+00  0.17704658237E+02  0.17704658237E+02  0.00000000000E+00 0. -1.
         21   -1    0    0  501  502 -0.00000000000E+00 -0.00000000000E+00 -0.22063402455E+03  0.22063402455E+03  0.00000000000E+00 0. -1.
         25    1    1    2    0    0  0.00000000000E+00  0.00000000000E+00 -0.20292936631E+03  0.23833868278E+03  0.12500000000E+03 0.  0.
<mgrwt>
<rscale>  0 0.12500000E+03</rscale>
<asrwt>0</asrwt>
<pdfrwt beam="1">  1       21 0.27237937E-02 0.12500000E+03</pdfrwt>
<pdfrwt beam="2">  1       21 0.33943695E-01 0.12500000E+03</pdfrwt>
<totfact> 0.60993797E+06</totfact>
</mgrwt>
</event>
<event>
 3    1  0.1628330E-001  0.1250000E+03  0.7546771E-02  0.1235069E+00
         21   -1    0    0  502  501  0.00000000000E+00  0.00000000000E+00  0.34932593165E+02  0.34932593165E+02  0.00000000000E+00 0.  1.
         21   -1    0    0  501  502 -0.00000000000E+00 -0.00000000000E+00 -0.11182250288E+03  0.11182250288E+03  0.00000000000E+00 0.  1.
         25    1    1    2    0    0  0.00000000000E+00  0.00000000000E+00 -0.76889909720E+02  0.14675509605E+03  0.12500000000E+03 0.  0.
<mgrwt>
<rscale>  0 0.12500000E+03</rscale>
<asrwt>0</asrwt>
<pdfrwt beam="1">  1       21 0.53742451E-02 0.12500000E+03</pdfrwt>
<pdfrwt beam="2">  1       21 0.17203462E-01 0.12500000E+03</pdfrwt>
<totfact> 0.71169241E+06</totfact>
</mgrwt>
</event>
<event>
 3    1  0.1628330E-001  0.1250000E+03  0.7546771E-02  0.1235069E+00
         21   -1    0    0  502  501  0.00000000000E+00  0.00000000000E+00  0.39771874387E+03  0.39771874387E+03  0.00000000000E+00 0. -1.
         21   -1    0    0  501  502 -0.00000000000E+00 -0.00000000000E+00 -0.98216391864E+01  0.98216391864E+01  0.00000000000E+00 0. -1.
         25    1    1    2    0    0  0.00000000000E+00  0.00000000000E+00  0.38789710469E+03  0.40754038306E+03  0.12500000000E+03 0.  0.
<mgrwt>
<rscale>  0 0.12500000E+03</rscale>
<asrwt>0</asrwt>
<pdfrwt beam="1">  1       21 0.61187487E-01 0.12500000E+03</pdfrwt>
<pdfrwt beam="2">  1       21 0.15110217E-02 0.12500000E+03</pdfrwt>
<totfact> 0.47545200E+06</totfact>
</mgrwt>
</event>
<event>
 3    1  0.1628330E-001  0.1250000E+03  0.7546771E-02  0.1235069E+00
         21   -1    0    0  502  501  0.00000000000E+00  0.00000000000E+00  0.16923525661E+02  0.16923525661E+02  0.00000000000E+00 0. -1.
         21   -1    0    0  501  502 -0.00000000000E+00 -0.00000000000E+00 -0.23081774320E+03  0.23081774320E+03  0.00000000000E+00 0. -1.
         25    1    1    2    0    0  0.00000000000E+00  0.00000000000E+00 -0.21389421754E+03  0.24774126886E+03  0.12500000000E+03 0.  0.
<mgrwt>
<rscale>  0 0.12500000E+03</rscale>
<asrwt>0</asrwt>
<pdfrwt beam="1">  1       21 0.26036195E-02 0.12500000E+03</pdfrwt>
<pdfrwt beam="2">  1       21 0.35510420E-01 0.12500000E+03</pdfrwt>
<totfact> 0.60091500E+06</totfact>
</mgrwt>
</event>
<event>
 3    1  0.1628330E-001  0.1250000E+03  0.7546771E-02  0.1235069E+00
         21   -1    0    0  502  501  0.00000000000E+00  0.00000000000E+00  0.14068432954E+03  0.14068432954E+03  0.00000000000E+00 0. -1.
         21   -1    0    0  501  502 -0.00000000000E+00 -0.00000000000E+00 -0.27766063305E+02  0.27766063305E+02  0.00000000000E+00 0. -1.
         25    1    1    2    0    0  0.00000000000E+00  0.00000000000E+00  0.11291826623E+03  0.16845039284E+03  0.12500000000E+03 0.  0.
<mgrwt>
<rscale>  0 0.12500000E+03</rscale>
<asrwt>0</asrwt>
<pdfrwt beam="1">  1       21 0.21643743E-01 0.12500000E+03</pdfrwt>
<pdfrwt beam="2">  1       21 0.42717021E-02 0.12500000E+03</pdfrwt>
<totfact> 0.68501407E+06</totfact>
</mgrwt>
</event>
<event>
 3    1  0.1628330E-001  0.1250000E+03  0.7546771E-02  0.1235069E+00
         21   -1    0    0  502  501  0.00000000000E+00  0.00000000000E+00  0.23997800928E+02  0.23997800928E+02  0.00000000000E+00 0.  1.
         21   -1    0    0  501  502 -0.00000000000E+00 -0.00000000000E+00 -0.16277533145E+03  0.16277533145E+03  0.00000000000E+00 0.  1.
         25    1    1    2    0    0  0.00000000000E+00  0.00000000000E+00 -0.13877753052E+03  0.18677313237E+03  0.12500000000E+03 0.  0.
<mgrwt>
<rscale>  0 0.12500000E+03</rscale>
<asrwt>0</asrwt>
<pdfrwt beam="1">  1       21 0.36919694E-02 0.12500000E+03</pdfrwt>
<pdfrwt beam="2">  1       21 0.25042359E-01 0.12500000E+03</pdfrwt>
<totfact> 0.66382909E+06</totfact>
</mgrwt>
</event>
<event>
 3    1  0.1628330E-001  0.1250000E+03  0.7546771E-02  0.1235069E+00
         21   -1    0    0  502  501  0.00000000000E+00  0.00000000000E+00  0.25093121009E+02  0.25093121009E+02  0.00000000000E+00 0.  1.
         21   -1    0    0  501  502 -0.00000000000E+00 -0.00000000000E+00 -0.15567015353E+03  0.15567015353E+03  0.00000000000E+00 0.  1.
         25    1    1    2    0    0  0.00000000000E+00  0.00000000000E+00 -0.13057703252E+03  0.18076327454E+03  0.12500000000E+03 0.  0.
<mgrwt>
<rscale>  0 0.12500000E+03</rscale>
<asrwt>0</asrwt>
<pdfrwt beam="1">  1       21 0.38604801E-02 0.12500000E+03</pdfrwt>
<pdfrwt beam="2">  1       21 0.23949255E-01 0.12500000E+03</pdfrwt>
<totfact> 0.67064083E+06</totfact>
</mgrwt>
</event>
<event>
 3    1  0.1628330E-001  0.1250000E+03  0.7546771E-02  0.1235069E+00
         21   -1    0    0  502  501  0.00000000000E+00  0.00000000000E+00  0.11096509839E+02  0.11096509839E+02  0.00000000000E+00 0.  1.
         21   -1    0    0  501  502 -0.00000000000E+00 -0.00000000000E+00 -0.35202510130E+03  0.35202510130E+03  0.00000000000E+00 0.  1.
         25    1    1    2    0    0  0.00000000000E+00  0.00000000000E+00 -0.34092859146E+03  0.36312161113E+03  0.12500000000E+03 0.  0.
<mgrwt>
<rscale>  0 0.12500000E+03</rscale>
<asrwt>0</asrwt>
<pdfrwt beam="1">  1       21 0.17071550E-02 0.12500000E+03</pdfrwt>
<pdfrwt beam="2">  1       21 0.54157720E-01 0.12500000E+03</pdfrwt>
<totfact> 0.50583719E+06</totfact>
</mgrwt>
</event>
<event>
 3    1  0.1628330E-001  0.1250000E+03  0.7546771E-02  0.1235069E+00
         21   -1    0    0  502  501  0.00000000000E+00  0.00000000000E+00  0.34276527802E+03  0.34276527802E+03  0.00000000000E+00 0.  1.
         21   -1    0    0  501  502 -0.00000000000E+00 -0.00000000000E+00 -0.11396282676E+02  0.11396282676E+02  0.00000000000E+00 0.  1.
         25    1    1    2    0    0  0.00000000000E+00  0.00000000000E+00  0.33136899534E+03  0.35416156070E+03  0.12500000000E+03 0.  0.
<mgrwt>
<rscale>  0 0.12500000E+03</rscale>
<asrwt>0</asrwt>
<pdfrwt beam="1">  1       21 0.52733112E-01 0.12500000E+03</pdfrwt>
<pdfrwt beam="2">  1       21 0.17532745E-02 0.12500000E+03</pdfrwt>
<totfact> 0.51232554E+06</totfact>
</mgrwt>
</event>
<event>
 3    1  0.1628330E-001  0.1250000E+03  0.7546771E-02  0.1235069E+00
         21   -1    0    0  502  501  0.00000000000E+00  0.00000000000E+00  0.55075871776E+03  0.55075871776E+03  0.00000000000E+00 0.  1.
         21   -1    0    0  501  502 -0.00000000000E+00 -0.00000000000E+00 -0.70924887324E+01  0.70924887324E+01  0.00000000000E+00 0.  1.
         25    1    1    2    0    0  0.00000000000E+00  0.00000000000E+00  0.54366622903E+03  0.55785120649E+03  0.12500000000E+03 0.  0.
<mgrwt>
<rscale>  0 0.12500000E+03</rscale>
<asrwt>0</asrwt>
<pdfrwt beam="1">  1       21 0.84732077E-01 0.12500000E+03</pdfrwt>
<pdfrwt beam="2">  1       21 0.10911525E-02 0.12500000E+03</pdfrwt>
<totfact> 0.39070893E+06</totfact>
</mgrwt>
</event>
<event>
 3    1  0.1628330E-001  0.1250000E+03  0.7546771E-02  0.1235069E+00
         21   -1    0    0  502  501  0.00000000000E+00  0.00000000000E+00  0.27735326636E+03  0.27735326636E+03  0.00000000000E+00 0.  1.
         21   -1    0    0  501  502 -0.00000000000E+00 -0.00000000000E+00 -0.14084023784E+02  0.14084023784E+02  0.00000000000E+00 0.  1.
         25    1    1    2    0    0  0.00000000000E+00  0.00000000000E+00  0.26326924258E+03  0.29143729015E+03  0.12500000000E+03 0.  0.
<mgrwt>
<rscale>  0 0.12500000E+03</rscale>
<asrwt>0</asrwt>
<pdfrwt beam="1">  1       21 0.42669729E-01 0.12500000E+03</pdfrwt>
<pdfrwt beam="2">  1       21 0.21667731E-02 0.12500000E+03</pdfrwt>
<totfact> 0.56175363E+06</totfact>
</mgrwt>
</event>
<event>
 3    1  0.1628330E-001  0.1250000E+03  0.7546771E-02  0.1235069E+00
         21   -1    0    0  502  501  0.00000000000E+00  0.00000000000E+00  0.31003753791E+02  0.31003753791E+02  0.00000000000E+00 0. -1.
         21   -1    0    0  501  502 -0.00000000000E+00 -0.00000000000E+00 -0.12599280804E+03  0.12599280804E+03  0.00000000000E+00 0. -1.
         25    1    1    2    0    0  0.00000000000E+00  0.00000000000E+00 -0.94989054254E+02  0.15699656184E+03  0.12500000000E+03 0.  0.
<mgrwt>
<rscale>  0 0.12500000E+03</rscale>
<asrwt>0</asrwt>
<pdfrwt beam="1">  1       21 0.47698082E-02 0.12500000E+03</pdfrwt>
<pdfrwt beam="2">  1       21 0.19383509E-01 0.12500000E+03</pdfrwt>
<totfact> 0.69888358E+06</totfact>
</mgrwt>
</event>
<event>
 3    1  0.1628330E-001  0.1250000E+03  0.7546771E-02  0.1235069E+00
         21   -1    0    0  502  501  0.00000000000E+00  0.00000000000E+00  0.19838900227E+03  0.19838900227E+03  0.00000000000E+00 0.  1.
         21   -1    0    0  501  502 -0.00000000000E+00 -0.00000000000E+00 -0.19689851531E+02  0.19689851531E+02  0.00000000000E+00 0.  1.
         25    1    1    2    0    0  0.00000000000E+00  0.00000000000E+00  0.17869915074E+03  0.21807885380E+03  0.12500000000E+03 0.  0.
<mgrwt>
<rscale>  0 0.12500000E+03</rscale>
<asrwt>0</asrwt>
<pdfrwt beam="1">  1       21 0.30521384E-01 0.12500000E+03</pdfrwt>
<pdfrwt beam="2">  1       21 0.30292081E-02 0.12500000E+03</pdfrwt>
<totfact> 0.63019444E+06</totfact>
</mgrwt>
</event>
<event>
 3    1  0.1628330E-001  0.1250000E+03  0.7546771E-02  0.1235069E+00
         21   -1    0    0  502  501  0.00000000000E+00  0.00000000000E+00  0.23325715075E+03  0.23325715075E+03  0.00000000000E+00 0. -1.
         21   -1    0    0  501  502 -0.00000000000E+00 -0.00000000000E+00 -0.16746539120E+02  0.16746539120E+02  0.00000000000E+00 0. -1.
         25    1    1    2    0    0  0.00000000000E+00  0.00000000000E+00  0.21651061163E+03  0.25000368987E+03  0.12500000000E+03 0.  0.
<mgrwt>
<rscale>  0 0.12500000E+03</rscale>
<asrwt>0</asrwt>
<pdfrwt beam="1">  1       21 0.35885713E-01 0.12500000E+03</pdfrwt>
<pdfrwt beam="2">  1       21 0.25763908E-02 0.12500000E+03</pdfrwt>
<totfact> 0.59877843E+06</totfact>
</mgrwt>
</event>
<event>
 3    1  0.1628330E-001  0.1250000E+03  0.7546771E-02  0.1235069E+00
         21   -1    0    0  502  501  0.00000000000E+00  0.00000000000E+00  0.68420027026E+01  0.68420027026E+01  0.00000000000E+00 0. -1.
         21   -1    0    0  501  502 -0.00000000000E+00 -0.00000000000E+00 -0.57092201945E+03  0.57092201945E+03  0.00000000000E+00 0. -1.
         25    1    1    2    0    0  0.00000000000E+00  0.00000000000E+00 -0.56408001674E+03  0.57776402215E+03  0.12500000000E+03 0.  0.
<mgrwt>
<rscale>  0 0.12500000E+03</rscale>
<asrwt>0</asrwt>
<pdfrwt beam="1">  1       21 0.10526160E-02 0.12500000E+03</pdfrwt>
<pdfrwt beam="2">  1       21 0.87834142E-01 0.12500000E+03</pdfrwt>
<totfact> 0.38117931E+06</totfact>
</mgrwt>
</event>
<event>
 3    1  0.1628330E-001  0.1250000E+03  0.7546771E-02  0.1235069E+00
         21   -1    0    0  502  501  0.00000000000E+00  0.00000000000E+00  0.46833010672E+03  0.46833010672E+03  0.00000000000E+00 0.  1.
         21   -1    0    0  501  502 -0.00000000000E+00 -0.00000000000E+00 -0.83408047955E+01  0.83408047955E+01  0.00000000000E+00 0.  1.
         25    1    1    2    0    0  0.00000000000E+00  0.00000000000E+00  0.45998930193E+03  0.47667091152E+03  0.12500000000E+03 0.  0.
<mgrwt>
<rscale>  0 0.12500000E+03</rscale>
<asrwt>0</asrwt>
<pdfrwt beam="1">  1       21 0.72050765E-01 0.12500000E+03</pdfrwt>
<pdfrwt beam="2">  1       21 0.12832011E-02 0.12500000E+03</pdfrwt>
<totfact> 0.43338197E+06</totfact>
</mgrwt>
</event>
<event>
 3    1  0.1628330E-001  0.1250000E+03  0.7546771E-02  0.1235069E+00
         21   -1    0    0  502  501  0.00000000000E+00  0.00000000000E+00  0.25467525425E+02  0.25467525425E+02  0.00000000000E+00 0. -1.
         21   -1    0    0  501  502 -0.00000000000E+00 -0.00000000000E+00 -0.15338160794E+03  0.15338160794E+03  0.00000000000E+00 0. -1.
         25    1    1    2    0    0  0.00000000000E+00  0.00000000000E+00 -0.12791408252E+03  0.17884913337E+03  0.12500000000E+03 0.  0.
<mgrwt>
<rscale>  0 0.12500000E+03</rscale>
<asrwt>0</asrwt>
<pdfrwt beam="1">  1       21 0.39180808E-02 0.12500000E+03</pdfrwt>
<pdfrwt beam="2">  1       21 0.23597171E-01 0.12500000E+03</pdfrwt>
<totfact> 0.67283806E+06</totfact>
</mgrwt>
</event>
<event>
 3    1  0.1628330E-001  0.1250000E+03  0.7546771E-02  0.1235069E+00
         21   -1    0    0  502  501  0.00000000000E+00  0.00000000000E+00  0.62343680496E+03  0.62343680496E+03  0.00000000000E+00 0.  1.
         21   -1    0    0  501  502 -0.00000000000E+00 -0.00000000000E+00 -0.62656711457E+01  0.62656711457E+01  0.00000000000E+00 0.  1.
         25    1    1    2    0    0  0.00000000000E+00  0.00000000000E+00  0.61717113382E+03  0.62970247611E+03  0.12500000000E+03 0.  0.
<mgrwt>
<rscale>  0 0.12500000E+03</rscale>
<asrwt>0</asrwt>
<pdfrwt beam="1">  1       21 0.95913305E-01 0.12500000E+03</pdfrwt>
<pdfrwt beam="2">  1       21 0.96394990E-03 0.12500000E+03</pdfrwt>
<totfact> 0.35782929E+06</totfact>
</mgrwt>
</event>
<event>
 3    1  0.1628330E-001  0.1250000E+03  0.7546771E-02  0.1235069E+00
         21   -1    0    0  502  501  0.00000000000E+00  0.00000000000E+00  0.15575931389E+02  0.15575931389E+02  0.00000000000E+00 0.  1.
         21   -1    0    0  501  502 -0.00000000000E+00 -0.00000000000E+00 -0.25078757106E+03  0.25078757106E+03  0.00000000000E+00 0.  1.
         25    1    1    2    0    0  0.00000000000E+00  0.00000000000E+00 -0.23521163967E+03  0.26636350245E+03  0.12500000000E+03 0.  0.
<mgrwt>
<rscale>  0 0.12500000E+03</rscale>
<asrwt>0</asrwt>
<pdfrwt beam="1">  1       21 0.23962972E-02 0.12500000E+03</pdfrwt>
<pdfrwt beam="2">  1       21 0.38582702E-01 0.12500000E+03</pdfrwt>
<totfact> 0.58370888E+06</totfact>
</mgrwt>
</event>
<event>
 3    1  0.1628330E-001  0.1250000E+03  0.7546771E-02  0.1235069E+00
         21   -1    0    0  502  501  0.00000000000E+00  0.00000000000E+00  0.15260088497E+02  0.15260088497E+02  0.00000000000E+00 0.  1.
         21   -1    0    0  501  502 -0.00000000000E+00 -0.00000000000E+00 -0.25597820096E+03  0.25597820096E+03  0.00000000000E+00 0.  1.
         25    1    1    2    0    0  0.00000000000E+00  0.00000000000E+00 -0.24071811246E+03  0.27123828946E+03  0.12500000000E+03 0.  0.
<mgrwt>
<rscale>  0 0.12500000E+03</rscale>
<asrwt>0</asrwt>
<pdfrwt beam="1">  1       21 0.23477059E-02 0.12500000E+03</pdfrwt>
<pdfrwt beam="2">  1       21 0.39381262E-01 0.12500000E+03</pdfrwt>
<totfact> 0.57934279E+06</totfact>
</mgrwt>
</event>
<event>
 3    1  0.1628330E-001  0.1250000E+03  0.7546771E-02  0.1235069E+00
         21   -1    0    0  502  501  0.00000000000E+00  0.00000000000E+00  0.68313337913E+03  0.68313337913E+03  0.00000000000E+00 0. -1.
         21   -1    0    0  501  502 -0.00000000000E+00 -0.00000000000E+00 -0.57181366324E+01  0.57181366324E+01  0.00000000000E+00 0. -1.
         25    1    1    2    0    0  0.00000000000E+00  0.00000000000E+00  0.67741524249E+03  0.68885151576E+03  0.12500000000E+03 0.  0.
<mgrwt>
<rscale>  0 0.12500000E+03</rscale>
<asrwt>0</asrwt>
<pdfrwt beam="1">  1       21 0.10509738E+00 0.12500000E+03</pdfrwt>
<pdfrwt beam="2">  1       21 0.87971387E-03 0.12500000E+03</pdfrwt>
<totfact> 0.33344418E+06</totfact>
</mgrwt>
</event>
<event>
 3    1  0.1628330E-001  0.1250000E+03  0.7546771E-02  0.1235069E+00
         21   -1    0    0  502  501  0.00000000000E+00  0.00000000000E+00  0.83905643341E+02  0.83905643341E+02  0.00000000000E+00 0. -1.
         21   -1    0    0  501  502 -0.00000000000E+00 -0.00000000000E+00 -0.46555271427E+02  0.46555271427E+02  0.00000000000E+00 0. -1.
         25    1    1    2    0    0  0.00000000000E+00  0.00000000000E+00  0.37350371914E+02  0.13046091477E+03  0.12500000000E+03 0.  0.
<mgrwt>
<rscale>  0 0.12500000E+03</rscale>
<asrwt>0</asrwt>
<pdfrwt beam="1">  1       21 0.12908560E-01 0.12500000E+03</pdfrwt>
<pdfrwt beam="2">  1       21 0.71623495E-02 0.12500000E+03</pdfrwt>
<totfact> 0.73303377E+06</totfact>
</mgrwt>
</event>
<event>
 3    1  0.1628330E-001  0.1250000E+03  0.7546771E-02  0.1235069E+00
         21   -1    0    0  502  501  0.00000000000E+00  0.00000000000E+00  0.83826760007E+03  0.83826760007E+03  0.00000000000E+00 0. -1.
         21   -1    0    0  501  502 -0.00000000000E+00 -0.00000000000E+00 -0.46599081244E+01  0.46599081244E+01  0.00000000000E+00 0. -1.
         25    1    1    2    0    0  0.00000000000E+00  0.00000000000E+00  0.83360769195E+03  0.84292750820E+03  0.12500000000E+03 0.  0.
<mgrwt>
<rscale>  0 0.12500000E+03</rscale>
<asrwt>0</asrwt>
<pdfrwt beam="1">  1       21 0.12896413E+00 0.12500000E+03</pdfrwt>
<pdfrwt beam="2">  1       21 0.71690961E-03 0.12500000E+03</pdfrwt>
<totfact> 0.27989038E+06</totfact>
</mgrwt>
</event>
<event>
 3    1  0.1628330E-001  0.1250000E+03  0.7546771E-02  0.1235069E+00
         21   -1    0    0  502  501  0.00000000000E+00  0.00000000000E+00  0.39256492735E+02  0.39256492735E+02  0.00000000000E+00 0. -1.
         21   -1    0    0  501  502 -0.00000000000E+00 -0.00000000000E+00 -0.99505832739E+02  0.99505832739E+02  0.00000000000E+00 0. -1.
         25    1    1    2    0    0  0.00000000000E+00  0.00000000000E+00 -0.60249340004E+02  0.13876232547E+03  0.12500000000E+03 0.  0.
<mgrwt>
<rscale>  0 0.12500000E+03</rscale>
<asrwt>0</asrwt>
<pdfrwt beam="1">  1       21 0.60394605E-02 0.12500000E+03</pdfrwt>
<pdfrwt beam="2">  1       21 0.15308589E-01 0.12500000E+03</pdfrwt>
<totfact> 0.72201298E+06</totfact>
</mgrwt>
</event>
<event>
 3    1  0.1628330E-001  0.1250000E+03  0.7546771E-02  0.1235069E+00
         21   -1    0    0  502  501  0.00000000000E+00  0.00000000000E+00  0.20962231056E+03  0.20962231056E+03  0.00000000000E+00 0.  1.
         21   -1    0    0  501  502 -0.00000000000E+00 -0.00000000000E+00 -0.18634705387E+02  0.18634705387E+02  0.00000000000E+00 0.  1.
         25    1    1    2    0    0  0.00000000000E+00  0.00000000000E+00  0.19098760518E+03  0.22825701595E+03  0.12500000000E+03 0.  0.
<mgrwt>
<rscale>  0 0.12500000E+03</rscale>
<asrwt>0</asrwt>
<pdfrwt beam="1">  1       21 0.32249585E-01 0.12500000E+03</pdfrwt>
<pdfrwt beam="2">  1       21 0.28668779E-02 0.12500000E+03</pdfrwt>
<totfact> 0.61987866E+06</totfact>
</mgrwt>
</event>
<event>
 3    1  0.1628330E-001  0.1250000E+03  0.7546771E-02  0.1235069E+00
         21   -1    0    0  502  501  0.00000000000E+00  0.00000000000E+00  0.19245825191E+02  0.19245825191E+02  0.00000000000E+00 0.  1.
         21   -1    0    0  501  502 -0.00000000000E+00 -0.00000000000E+00 -0.20296609582E+03  0.20296609582E+03  0.00000000000E+00 0.  1.
         25    1    1    2    0    0  0.00000000000E+00  0.00000000000E+00 -0.18372027063E+03  0.22221192101E+03  0.12500000000E+03 0.  0.
<mgrwt>
<rscale>  0 0.12500000E+03</rscale>
<asrwt>0</asrwt>
<pdfrwt beam="1">  1       21 0.29608962E-02 0.12500000E+03</pdfrwt>
<pdfrwt beam="2">  1       21 0.31225553E-01 0.12500000E+03</pdfrwt>
<totfact> 0.62597161E+06</totfact>
</mgrwt>
</event>
<event>
 3    1  0.1628330E-001  0.1250000E+03  0.7546771E-02  0.1235069E+00
         21   -1    0    0  502  501  0.00000000000E+00  0.00000000000E+00  0.42086940921E+02  0.42086940921E+02  0.00000000000E+00 0. -1.
         21   -1    0    0  501  502 -0.00000000000E+00 -0.00000000000E+00 -0.92813825727E+02  0.92813825727E+02  0.00000000000E+00 0. -1.
         25    1    1    2    0    0  0.00000000000E+00  0.00000000000E+00 -0.50726884806E+02  0.13490076665E+03  0.12500000000E+03 0.  0.
<mgrwt>
<rscale>  0 0.12500000E+03</rscale>
<asrwt>0</asrwt>
<pdfrwt beam="1">  1       21 0.64749141E-02 0.12500000E+03</pdfrwt>
<pdfrwt beam="2">  1       21 0.14279050E-01 0.12500000E+03</pdfrwt>
<totfact> 0.72709614E+06</totfact>
</mgrwt>
</event>
<event>
 3    1  0.1628330E-001  0.1250000E+03  0.7546771E-02  0.1235069E+00
         21   -1    0    0  502  501  0.00000000000E+00  0.00000000000E+00  0.51679799340E+01  0.51679799340E+01  0.00000000000E+00 0.  1.
         21   -1    0    0  501  502 -0.00000000000E+00 -0.00000000000E+00 -0.75585626297E+03  0.75585626297E+03  0.00000000000E+00 0.  1.
         25    1    1    2    0    0  0.00000000000E+00  0.00000000000E+00 -0.75068828303E+03  0.76102424290E+03  0.12500000000E+03 0.  0.
<mgrwt>
<rscale>  0 0.12500000E+03</rscale>
<asrwt>0</asrwt>
<pdfrwt beam="1">  1       21 0.79507342E-03 0.12500000E+03</pdfrwt>
<pdfrwt beam="2">  1       21 0.11628564E+00 0.12500000E+03</pdfrwt>
<totfact> 0.30684851E+06</totfact>
</mgrwt>
</event>
<event>
 3    1  0.1628330E-001  0.1250000E+03  0.7546771E-02  0.1235069E+00
         21   -1    0    0  502  501  0.00000000000E+00  0.00000000000E+00  0.10849512078E+03  0.10849512078E+03  0.00000000000E+00 0.  1.
         21   -1    0    0  501  502 -0.00000000000E+00 -0.00000000000E+00 -0.36003923234E+02  0.36003923234E+02  0.00000000000E+00 0.  1.
         25    1    1    2    0    0  0.00000000000E+00  0.00000000000E+00  0.72491197550E+02  0.14449904402E+03  0.12500000000E+03 0.  0.
<mgrwt>
<rscale>  0 0.12500000E+03</rscale>
<asrwt>0</asrwt>
<pdfrwt beam="1">  1       21 0.16691557E-01 0.12500000E+03</pdfrwt>
<pdfrwt beam="2">  1       21 0.55390651E-02 0.12500000E+03</pdfrwt>
<totfact> 0.71457270E+06</totfact>
</mgrwt>
</event>
<event>
 3    1  0.1628330E-001  0.1250000E+03  0.7546771E-02  0.1235069E+00
         21   -1    0    0  502  501  0.00000000000E+00  0.00000000000E+00  0.13258702624E+02  0.13258702624E+02  0.00000000000E+00 0. -1.
         21   -1    0    0  501  502 -0.00000000000E+00 -0.00000000000E+00 -0.29461781523E+03  0.29461781523E+03  0.00000000000E+00 0. -1.
         25    1    1    2    0    0  0.00000000000E+00  0.00000000000E+00 -0.28135911261E+03  0.30787651785E+03  0.12500000000E+03 0.  0.
<mgrwt>
<rscale>  0 0.12500000E+03</rscale>
<asrwt>0</asrwt>
<pdfrwt beam="1">  1       21 0.20398004E-02 0.12500000E+03</pdfrwt>
<pdfrwt beam="2">  1       21 0.45325818E-01 0.12500000E+03</pdfrwt>
<totfact> 0.54807891E+06</totfact>
</mgrwt>
</event>
<event>
 3    1  0.1628330E-001  0.1250000E+03  0.7546771E-02  0.1235069E+00
         21   -1    0    0  502  501  0.00000000000E+00  0.00000000000E+00  0.31804056371E+03  0.31804056371E+03  0.00000000000E+00 0.  1.
         21   -1    0    0  501  502 -0.00000000000E+00 -0.00000000000E+00 -0.12282238323E+02  0.12282238323E+02  0.00000000000E+00 0.  1.
         25    1    1    2    0    0  0.00000000000E+00  0.00000000000E+00  0.30575832539E+03  0.33032280204E+03  0.12500000000E+03 0.  0.
<mgrwt>
<rscale>  0 0.12500000E+03</rscale>
<asrwt>0</asrwt>
<pdfrwt beam="1">  1       21 0.48929311E-01 0.12500000E+03</pdfrwt>
<pdfrwt beam="2">  1       21 0.18895754E-02 0.12500000E+03</pdfrwt>
<totfact> 0.53025322E+06</totfact>
</mgrwt>
</event>
<event>
 3    1  0.1628330E-001  0.1250000E+03  0.7546771E-02  0.1235069E+00
         21   -1    0    0  502  501  0.00000000000E+00  0.00000000000E+00  0.58266338819E+02  0.58266338819E+02  0.00000000000E+00 0.  1.
         21   -1    0    0  501  502 -0.00000000000E+00 -0.00000000000E+00 -0.67041281110E+02  0.67041281110E+02  0.00000000000E+00 0.  1.
         25    1    1    2    0    0  0.00000000000E+00  0.00000000000E+00 -0.87749422907E+01  0.12530761993E+03  0.12500000000E+03 0.  0.
<mgrwt>
<rscale>  0 0.12500000E+03</rscale>
<asrwt>0</asrwt>
<pdfrwt beam="1">  1       21 0.89640521E-02 0.12500000E+03</pdfrwt>
<pdfrwt beam="2">  1       21 0.10314043E-01 0.12500000E+03</pdfrwt>
<totfact> 0.74002043E+06</totfact>
</mgrwt>
</event>
<event>
 3    1  0.1628330E-001  0.1250000E+03  0.7546771E-02  0.1235069E+00
         21   -1    0    0  502  501  0.00000000000E+00  0.00000000000E+00  0.52635477640E+02  0.52635477640E+02  0.00000000000E+00 0.  1.
         21   -1    0    0  501  502 -0.00000000000E+00 -0.00000000000E+00 -0.74213252641E+02  0.74213252641E+02  0.00000000000E+00 0.  1.
         25    1    1    2    0    0  0.00000000000E+00  0.00000000000E+00 -0.21577775001E+02  0.12684873028E+03  0.12500000000E+03 0.  0.
<mgrwt>
<rscale>  0 0.12500000E+03</rscale>
<asrwt>0</asrwt>
<pdfrwt beam="1">  1       21 0.80977659E-02 0.12500000E+03</pdfrwt>
<pdfrwt beam="2">  1       21 0.11417423E-01 0.12500000E+03</pdfrwt>
<totfact> 0.73789743E+06</totfact>
</mgrwt>
</event>
<event>
 3    1  0.1628330E-001  0.1250000E+03  0.7546771E-02  0.1235069E+00
         21   -1    0    0  502  501  0.00000000000E+00  0.00000000000E+00  0.37047208978E+02  0.37047208978E+02  0.00000000000E+00 0.  1.
         21   -1    0    0  501  502 -0.00000000000E+00 -0.00000000000E+00 -0.10543979176E+03  0.10543979176E+03  0.00000000000E+00 0.  1.
         25    1    1    2    0    0  0.00000000000E+00  0.00000000000E+00 -0.68392582786E+02  0.14248700074E+03  0.12500000000E+03 0.  0.
<mgrwt>
<rscale>  0 0.12500000E+03</rscale>
<asrwt>0</asrwt>
<pdfrwt beam="1">  1       21 0.56995706E-02 0.12500000E+03</pdfrwt>
<pdfrwt beam="2">  1       21 0.16221507E-01 0.12500000E+03</pdfrwt>
<totfact> 0.71716276E+06</totfact>
</mgrwt>
</event>
<event>
 3    1  0.1628330E-001  0.1250000E+03  0.7546771E-02  0.1235069E+00
         21   -1    0    0  502  501  0.00000000000E+00  0.00000000000E+00  0.17675174843E+02  0.17675174843E+02  0.00000000000E+00 0. -1.
         21   -1    0    0  501  502 -0.00000000000E+00 -0.00000000000E+00 -0.22100205711E+03  0.22100205711E+03  0.00000000000E+00 0. -1.
         25    1    1    2    0    0  0.00000000000E+00  0.00000000000E+00 -0.20332688227E+03  0.23867723195E+03  0.12500000000E+03 0.  0.
<mgrwt>
<rscale>  0 0.12500000E+03</rscale>
<asrwt>0</asrwt>
<pdfrwt beam="1">  1       21 0.27192578E-02 0.12500000E+03</pdfrwt>
<pdfrwt beam="2">  1       21 0.34000314E-01 0.12500000E+03</pdfrwt>
<totfact> 0.60960900E+06</totfact>
</mgrwt>
</event>
<event>
 3    1  0.1628330E-001  0.1250000E+03  0.7546771E-02  0.1235069E+00
         21   -1    0    0  502  501  0.00000000000E+00  0.00000000000E+00  0.30658911960E+03  0.30658911960E+03  0.00000000000E+00 0.  1.
         21   -1    0    0  501  502 -0.00000000000E+00 -0.00000000000E+00 -0.12740993565E+02  0.12740993565E+02  0.00000000000E+00 0.  1.
         25    1    1    2    0    0  0.00000000000E+00  0.00000000000E+00  0.29384812603E+03  0.31933011316E+03  0.12500000000E+03 0.  0.
<mgrwt>
<rscale>  0 0.12500000E+03</rscale>
<asrwt>0</asrwt>
<pdfrwt beam="1">  1       21 0.47167551E-01 0.12500000E+03</pdfrwt>
<pdfrwt beam="2">  1       21 0.19601531E-02 0.12500000E+03</pdfrwt>
<totfact> 0.53886473E+06</totfact>
</mgrwt>
</event>
<event>
 3    1  0.1628330E-001  0.1250000E+03  0.7546771E-02  0.1235069E+00
         21   -1    0    0  502  501  0.00000000000E+00  0.00000000000E+00  0.41196193641E+02  0.41196193641E+02  0.00000000000E+00 0.  1.
         21   -1    0    0  501  502 -0.00000000000E+00 -0.00000000000E+00 -0.94820653433E+02  0.94820653433E+02  0.00000000000E+00 0.  1.
         25    1    1    2    0    0  0.00000000000E+00  0.00000000000E+00 -0.53624459793E+02  0.13601684707E+03  0.12500000000E+03 0.  0.
<mgrwt>
<rscale>  0 0.12500000E+03</rscale>
<asrwt>0</asrwt>
<pdfrwt beam="1">  1       21 0.63378760E-02 0.12500000E+03</pdfrwt>
<pdfrwt beam="2">  1       21 0.14587793E-01 0.12500000E+03</pdfrwt>
<totfact> 0.72562114E+06</totfact>
</mgrwt>
</event>
<event>
 3    1  0.1628330E-001  0.1250000E+03  0.7546771E-02  0.1235069E+00
         21   -1    0    0  502  501  0.00000000000E+00  0.00000000000E+00  0.16381825318E+02  0.16381825318E+02  0.00000000000E+00 0. -1.
         21   -1    0    0  501  502 -0.00000000000E+00 -0.00000000000E+00 -0.23845022908E+03  0.23845022908E+03  0.00000000000E+00 0. -1.
         25    1    1    2    0    0  0.00000000000E+00  0.00000000000E+00 -0.22206840376E+03  0.25483205440E+03  0.12500000000E+03 0.  0.
<mgrwt>
<rscale>  0 0.12500000E+03</rscale>
<asrwt>0</asrwt>
<pdfrwt beam="1">  1       21 0.25202810E-02 0.12500000E+03</pdfrwt>
<pdfrwt beam="2">  1       21 0.36684648E-01 0.12500000E+03</pdfrwt>
<totfact> 0.59426219E+06</totfact>
</mgrwt>
</event>
<event>
 3    1  0.1628330E-001  0.1250000E+03  0.7546771E-02  0.1235069E+00
         21   -1    0    0  502  501  0.00000000000E+00  0.00000000000E+00  0.58505047440E+02  0.58505047440E+02  0.00000000000E+00 0.  1.
         21   -1    0    0  501  502 -0.00000000000E+00 -0.00000000000E+00 -0.66767743484E+02  0.66767743484E+02  0.00000000000E+00 0.  1.
         25    1    1    2    0    0  0.00000000000E+00  0.00000000000E+00 -0.82626960442E+01  0.12527279092E+03  0.12500000000E+03 0.  0.
<mgrwt>
<rscale>  0 0.12500000E+03</rscale>
<asrwt>0</asrwt>
<pdfrwt beam="1">  1       21 0.90007766E-02 0.12500000E+03</pdfrwt>
<pdfrwt beam="2">  1       21 0.10271960E-01 0.12500000E+03</pdfrwt>
<totfact> 0.74006745E+06</totfact>
</mgrwt>
</event>
<event>
 3    1  0.1628330E-001  0.1250000E+03  0.7546771E-02  0.1235069E+00
         21   -1    0    0  502  501  0.00000000000E+00  0.00000000000E+00  0.35697074196E+03  0.35697074196E+03  0.00000000000E+00 0.  1.
         21   -1    0    0  501  502 -0.00000000000E+00 -0.00000000000E+00 -0.10942773569E+02  0.10942773569E+02  0.00000000000E+00 0.  1.
         25    1    1    2    0    0  0.00000000000E+00  0.00000000000E+00  0.34602796839E+03  0.36791351553E+03  0.12500000000E+03 0.  0.
<mgrwt>
<rscale>  0 0.12500000E+03</rscale>
<asrwt>0</asrwt>
<pdfrwt beam="1">  1       21 0.54918567E-01 0.12500000E+03</pdfrwt>
<pdfrwt beam="2">  1       21 0.16835039E-02 0.12500000E+03</pdfrwt>
<totfact> 0.50242075E+06</totfact>
</mgrwt>
</event>
<event>
 3    1  0.1628330E-001  0.1250000E+03  0.7546771E-02  0.1235069E+00
         21   -1    0    0  502  501  0.00000000000E+00  0.00000000000E+00  0.41564377284E+02  0.41564377284E+02  0.00000000000E+00 0.  1.
         21   -1    0    0  501  502 -0.00000000000E+00 -0.00000000000E+00 -0.93980717511E+02  0.93980717511E+02  0.00000000000E+00 0.  1.
         25    1    1    2    0    0  0.00000000000E+00  0.00000000000E+00 -0.52416340227E+02  0.13554509479E+03  0.12500000000E+03 0.  0.
<mgrwt>
<rscale>  0 0.12500000E+03</rscale>
<asrwt>0</asrwt>
<pdfrwt beam="1">  1       21 0.63945196E-02 0.12500000E+03</pdfrwt>
<pdfrwt beam="2">  1       21 0.14458572E-01 0.12500000E+03</pdfrwt>
<totfact> 0.72624378E+06</totfact>
</mgrwt>
</event>
<event>
 3    1  0.1628330E-001  0.1250000E+03  0.7546771E-02  0.1235069E+00
         21   -1    0    0  502  501  0.00000000000E+00  0.00000000000E+00  0.42649235627E+02  0.42649235627E+02  0.00000000000E+00 0. -1.
         21   -1    0    0  501  502 -0.00000000000E+00 -0.00000000000E+00 -0.91590152616E+02  0.91590152616E+02  0.00000000000E+00 0. -1.
         25    1    1    2    0    0  0.00000000000E+00  0.00000000000E+00 -0.48940916989E+02  0.13423938824E+03  0.12500000000E+03 0.  0.
<mgrwt>
<rscale>  0 0.12500000E+03</rscale>
<asrwt>0</asrwt>
<pdfrwt beam="1">  1       21 0.65614210E-02 0.12500000E+03</pdfrwt>
<pdfrwt beam="2">  1       21 0.14090793E-01 0.12500000E+03</pdfrwt>
<totfact> 0.72797340E+06</totfact>
</mgrwt>
</event>
<event>
 3    1  0.1628330E-001  0.1250000E+03  0.7546771E-02  0.1235069E+00
         21   -1    0    0  502  501  0.00000000000E+00  0.00000000000E+00  0.11191270722E+04  0.11191270722E+04  0.00000000000E+00 0. -1.
         21   -1    0    0  501  502 -0.00000000000E+00 -0.00000000000E+00 -0.34904436654E+01  0.34904436654E+01  0.00000000000E+00 0. -1.
         25    1    1    2    0    0  0.00000000000E+00  0.00000000000E+00  0.11156366285E+04  0.11226175159E+04  0.12500000000E+03 0.  0.
<mgrwt>
<rscale>  0 0.12500000E+03</rscale>
<asrwt>0</asrwt>
<pdfrwt beam="1">  1       21 0.17217311E+00 0.12500000E+03</pdfrwt>
<pdfrwt beam="2">  1       21 0.53699223E-03 0.12500000E+03</pdfrwt>
<totfact> 0.20755336E+06</totfact>
</mgrwt>
</event>
<event>
 3    1  0.1628330E-001  0.1250000E+03  0.7546771E-02  0.1235069E+00
         21   -1    0    0  502  501  0.00000000000E+00  0.00000000000E+00  0.17372344275E+03  0.17372344275E+03  0.00000000000E+00 0. -1.
         21   -1    0    0  501  502 -0.00000000000E+00 -0.00000000000E+00 -0.22485451233E+02  0.22485451233E+02  0.00000000000E+00 0. -1.
         25    1    1    2    0    0  0.00000000000E+00  0.00000000000E+00  0.15123799152E+03  0.19620889398E+03  0.12500000000E+03 0.  0.
<mgrwt>
<rscale>  0 0.12500000E+03</rscale>
<asrwt>0</asrwt>
<pdfrwt beam="1">  1       21 0.26726683E-01 0.12500000E+03</pdfrwt>
<pdfrwt beam="2">  1       21 0.34593003E-02 0.12500000E+03</pdfrwt>
<totfact> 0.65338956E+06</totfact>
</mgrwt>
</event>
<event>
 3    1  0.1628330E-001  0.1250000E+03  0.7546771E-02  0.1235069E+00
         21   -1    0    0  502  501  0.00000000000E+00  0.00000000000E+00  0.13053125189E+03  0.13053125189E+03  0.00000000000E+00 0.  1.
         21   -1    0    0  501  502 -0.00000000000E+00 -0.00000000000E+00 -0.29925783621E+02  0.29925783621E+02  0.00000000000E+00 0.  1.
         25    1    1    2    0    0  0.00000000000E+00  0.00000000000E+00  0.10060546827E+03  0.16045703552E+03  0.12500000000E+03 0.  0.
<mgrwt>
<rscale>  0 0.12500000E+03</rscale>
<asrwt>0</asrwt>
<pdfrwt beam="1">  1       21 0.20081731E-01 0.12500000E+03</pdfrwt>
<pdfrwt beam="2">  1       21 0.46039668E-02 0.12500000E+03</pdfrwt>
<totfact> 0.69463694E+06</totfact>
</mgrwt>
</event>
<event>
 3    1  0.1628330E-001  0.1250000E+03  0.7546771E-02  0.1235069E+00
         21   -1    0    0  502  501  0.00000000000E+00  0.00000000000E+00  0.13407300444E+02  0.13407300444E+02  0.00000000000E+00 0. -1.
         21   -1    0    0  501  502 -0.00000000000E+00 -0.00000000000E+00 -0.29135246252E+03  0.29135246252E+03  0.00000000000E+00 0. -1.
         25    1    1    2    0    0  0.00000000000E+00  0.00000000000E+00 -0.27794516208E+03  0.30475976296E+03  0.12500000000E+03 0.  0.
<mgrwt>
<rscale>  0 0.12500000E+03</rscale>
<asrwt>0</asrwt>
<pdfrwt beam="1">  1       21 0.20626616E-02 0.12500000E+03</pdfrwt>
<pdfrwt beam="2">  1       21 0.44823455E-01 0.12500000E+03</pdfrwt>
<totfact> 0.55062924E+06</totfact>
</mgrwt>
</event>
<event>
 3    1  0.1628330E-001  0.1250000E+03  0.7546771E-02  0.1235069E+00
         21   -1    0    0  502  501  0.00000000000E+00  0.00000000000E+00  0.68752979780E+02  0.68752979780E+02  0.00000000000E+00 0. -1.
         21   -1    0    0  501  502 -0.00000000000E+00 -0.00000000000E+00 -0.56815719297E+02  0.56815719297E+02  0.00000000000E+00 0. -1.
         25    1    1    2    0    0  0.00000000000E+00  0.00000000000E+00  0.11937260483E+02  0.12556869908E+03  0.12500000000E+03 0.  0.
<mgrwt>
<rscale>  0 0.12500000E+03</rscale>
<asrwt>0</asrwt>
<pdfrwt beam="1">  1       21 0.10577381E-01 0.12500000E+03</pdfrwt>
<pdfrwt beam="2">  1       21 0.87408799E-02 0.12500000E+03</pdfrwt>
<totfact> 0.73965805E+06</totfact>
</mgrwt>
</event>
<event>
 3    1  0.1628330E-001  0.1250000E+03  0.7546771E-02  0.1235069E+00
         21   -1    0    0  502  501  0.00000000000E+00  0.00000000000E+00  0.22820188179E+03  0.22820188179E+03  0.00000000000E+00 0.  1.
         21   -1    0    0  501  502 -0.00000000000E+00 -0.00000000000E+00 -0.17117518793E+02  0.17117518793E+02  0.00000000000E+00 0.  1.
         25    1    1    2    0    0  0.00000000000E+00  0.00000000000E+00  0.21108436299E+03  0.24531940058E+03  0.12500000000E+03 0.  0.
<mgrwt>
<rscale>  0 0.12500000E+03</rscale>
<asrwt>0</asrwt>
<pdfrwt beam="1">  1       21 0.35107980E-01 0.12500000E+03</pdfrwt>
<pdfrwt beam="2">  1       21 0.26334646E-02 0.12500000E+03</pdfrwt>
<totfact> 0.60321682E+06</totfact>
</mgrwt>
</event>
<event>
 3    1  0.1628330E-001  0.1250000E+03  0.7546771E-02  0.1235069E+00
         21   -1    0    0  502  501  0.00000000000E+00  0.00000000000E+00  0.16488686185E+03  0.16488686185E+03  0.00000000000E+00 0. -1.
         21   -1    0    0  501  502 -0.00000000000E+00 -0.00000000000E+00 -0.23690486654E+02  0.23690486654E+02  0.00000000000E+00 0. -1.
         25    1    1    2    0    0  0.00000000000E+00  0.00000000000E+00  0.14119637520E+03  0.18857734850E+03  0.12500000000E+03 0.  0.
<mgrwt>
<rscale>  0 0.12500000E+03</rscale>
<asrwt>0</asrwt>
<pdfrwt beam="1">  1       21 0.25367209E-01 0.12500000E+03</pdfrwt>
<pdfrwt beam="2">  1       21 0.36446904E-02 0.12500000E+03</pdfrwt>
<totfact> 0.66180928E+06</totfact>
</mgrwt>
</event>
<event>
 3    1  0.1628330E-001  0.1250000E+03  0.7546771E-02  0.1235069E+00
         21   -1    0    0  502  501  0.00000000000E+00  0.00000000000E+00  0.79103717696E+03  0.79103717696E+03  0.00000000000E+00 0. -1.
         21   -1    0    0  501  502 -0.00000000000E+00 -0.00000000000E+00 -0.49381370608E+01  0.49381370608E+01  0.00000000000E+00 0. -1.
         25    1    1    2    0    0  0.00000000000E+00  0.00000000000E+00  0.78609903989E+03  0.79597531402E+03  0.12500000000E+03 0.  0.
<mgrwt>
<rscale>  0 0.12500000E+03</rscale>
<asrwt>0</asrwt>
<pdfrwt beam="1">  1       21 0.12169793E+00 0.12500000E+03</pdfrwt>
<pdfrwt beam="2">  1       21 0.75971402E-03 0.12500000E+03</pdfrwt>
<totfact> 0.29496621E+06</totfact>
</mgrwt>
</event>
<event>
 3    1  0.1628330E-001  0.1250000E+03  0.7546771E-02  0.1235069E+00
         21   -1    0    0  502  501  0.00000000000E+00  0.00000000000E+00  0.33578420449E+02  0.33578420449E+02  0.00000000000E+00 0. -1.
         21   -1    0    0  501  502 -0.00000000000E+00 -0.00000000000E+00 -0.11633215463E+03  0.11633215463E+03  0.00000000000E+00 0. -1.
         25    1    1    2    0    0  0.00000000000E+00  0.00000000000E+00 -0.82753734185E+02  0.14991057508E+03  0.12500000000E+03 0.  0.
<mgrwt>
<rscale>  0 0.12500000E+03</rscale>
<asrwt>0</asrwt>
<pdfrwt beam="1">  1       21 0.51659108E-02 0.12500000E+03</pdfrwt>
<pdfrwt beam="2">  1       21 0.17897255E-01 0.12500000E+03</pdfrwt>
<totfact> 0.70770436E+06</totfact>
</mgrwt>
</event>
<event>
 3    1  0.1628330E-001  0.1250000E+03  0.7546771E-02  0.1235069E+00
         21   -1    0    0  502  501  0.00000000000E+00  0.00000000000E+00  0.24086213211E+02  0.24086213211E+02  0.00000000000E+00 0.  1.
         21   -1    0    0  501  502 -0.00000000000E+00 -0.00000000000E+00 -0.16217783866E+03  0.16217783866E+03  0.00000000000E+00 0.  1.
         25    1    1    2    0    0  0.00000000000E+00  0.00000000000E+00 -0.13809162545E+03  0.18626405187E+03  0.12500000000E+03 0.  0.
<mgrwt>
<rscale>  0 0.12500000E+03</rscale>
<asrwt>0</asrwt>
<pdfrwt beam="1">  1       21 0.37055711E-02 0.12500000E+03</pdfrwt>
<pdfrwt beam="2">  1       21 0.24950438E-01 0.12500000E+03</pdfrwt>
<totfact> 0.66440107E+06</totfact>
</mgrwt>
</event>
<event>
 3    1  0.1628330E-001  0.1250000E+03  0.7546771E-02  0.1235069E+00
         21   -1    0    0  502  501  0.00000000000E+00  0.00000000000E+00  0.29256512888E+03  0.29256512888E+03  0.00000000000E+00 0. -1.
         21   -1    0    0  501  502 -0.00000000000E+00 -0.00000000000E+00 -0.13351727921E+02  0.13351727921E+02  0.00000000000E+00 0. -1.
         25    1    1    2    0    0  0.00000000000E+00  0.00000000000E+00  0.27921340096E+03  0.30591685680E+03  0.12500000000E+03 0.  0.
<mgrwt>
<rscale>  0 0.12500000E+03</rscale>
<asrwt>0</asrwt>
<pdfrwt beam="1">  1       21 0.45010015E-01 0.12500000E+03</pdfrwt>
<pdfrwt beam="2">  1       21 0.20541122E-02 0.12500000E+03</pdfrwt>
<totfact> 0.54968019E+06</totfact>
</mgrwt>
</event>
<event>
 3    1  0.1628330E-001  0.1250000E+03  0.7546771E-02  0.1235069E+00
         21   -1    0    0  502  501  0.00000000000E+00  0.00000000000E+00  0.48532913479E+01  0.48532913479E+01  0.00000000000E+00 0.  1.
         21   -1    0    0  501  502 -0.00000000000E+00 -0.00000000000E+00 -0.80486616606E+03  0.80486616606E+03  0.00000000000E+00 0.  1.
         25    1    1    2    0    0  0.00000000000E+00  0.00000000000E+00 -0.80001287471E+03  0.80971945741E+03  0.12500000000E+03 0.  0.
<mgrwt>
<rscale>  0 0.12500000E+03</rscale>
<asrwt>0</asrwt>
<pdfrwt beam="1">  1       21 0.74666073E-03 0.12500000E+03</pdfrwt>
<pdfrwt beam="2">  1       21 0.12382548E+00 0.12500000E+03</pdfrwt>
<totfact> 0.29043322E+06</totfact>
</mgrwt>
</event>
<event>
 3    1  0.1628330E-001  0.1250000E+03  0.7546771E-02  0.1235069E+00
         21   -1    0    0  502  501  0.00000000000E+00  0.00000000000E+00  0.38210116882E+03  0.38210116882E+03  0.00000000000E+00 0. -1.
         21   -1    0    0  501  502 -0.00000000000E+00 -0.00000000000E+00 -0.10223077862E+02  0.10223077862E+02  0.00000000000E+00 0. -1.
         25    1    1    2    0    0  0.00000000000E+00  0.00000000000E+00  0.37187809096E+03  0.39232424668E+03  0.12500000000E+03 0.  0.
<mgrwt>
<rscale>  0 0.12500000E+03</rscale>
<asrwt>0</asrwt>
<pdfrwt beam="1">  1       21 0.58784784E-01 0.12500000E+03</pdfrwt>
<pdfrwt beam="2">  1       21 0.15727815E-02 0.12500000E+03</pdfrwt>
<totfact> 0.48554682E+06</totfact>
</mgrwt>
</event>
<event>
 3    1  0.1628330E-001  0.1250000E+03  0.7546771E-02  0.1235069E+00
         21   -1    0    0  502  501  0.00000000000E+00  0.00000000000E+00  0.34171668490E+03  0.34171668490E+03  0.00000000000E+00 0.  1.
         21   -1    0    0  501  502 -0.00000000000E+00 -0.00000000000E+00 -0.11431253353E+02  0.11431253353E+02  0.00000000000E+00 0.  1.
         25    1    1    2    0    0  0.00000000000E+00  0.00000000000E+00  0.33028543155E+03  0.35314793826E+03  0.12500000000E+03 0.  0.
<mgrwt>
<rscale>  0 0.12500000E+03</rscale>
<asrwt>0</asrwt>
<pdfrwt beam="1">  1       21 0.52571790E-01 0.12500000E+03</pdfrwt>
<pdfrwt beam="2">  1       21 0.17586546E-02 0.12500000E+03</pdfrwt>
<totfact> 0.51306788E+06</totfact>
</mgrwt>
</event>
<event>
 3    1  0.1628330E-001  0.1250000E+03  0.7546771E-02  0.1235069E+00
         21   -1    0    0  502  501  0.00000000000E+00  0.00000000000E+00  0.20733451627E+03  0.20733451627E+03  0.00000000000E+00 0.  1.
         21   -1    0    0  501  502 -0.00000000000E+00 -0.00000000000E+00 -0.18840326590E+02  0.18840326590E+02  0.00000000000E+00 0.  1.
         25    1    1    2    0    0  0.00000000000E+00  0.00000000000E+00  0.18849418968E+03  0.22617484286E+03  0.12500000000E+03 0.  0.
<mgrwt>
<rscale>  0 0.12500000E+03</rscale>
<asrwt>0</asrwt>
<pdfrwt beam="1">  1       21 0.31897616E-01 0.12500000E+03</pdfrwt>
<pdfrwt beam="2">  1       21 0.28985119E-02 0.12500000E+03</pdfrwt>
<totfact> 0.62196722E+06</totfact>
</mgrwt>
</event>
<event>
 3    1  0.1628330E-001  0.1250000E+03  0.7546771E-02  0.1235069E+00
         21   -1    0    0  502  501  0.00000000000E+00  0.00000000000E+00  0.46878954232E+03  0.46878954232E+03  0.00000000000E+00 0. -1.
         21   -1    0    0  501  502 -0.00000000000E+00 -0.00000000000E+00 -0.83326304181E+01  0.83326304181E+01  0.00000000000E+00 0. -1.
         25    1    1    2    0    0  0.00000000000E+00  0.00000000000E+00  0.46045691190E+03  0.47712217274E+03  0.12500000000E+03 0.  0.
<mgrwt>
<rscale>  0 0.12500000E+03</rscale>
<asrwt>0</asrwt>
<pdfrwt beam="1">  1       21 0.72121448E-01 0.12500000E+03</pdfrwt>
<pdfrwt beam="2">  1       21 0.12819435E-02 0.12500000E+03</pdfrwt>
<totfact> 0.43312603E+06</totfact>
</mgrwt>
</event>
<event>
 3    1  0.1628330E-001  0.1250000E+03  0.7546771E-02  0.1235069E+00
         21   -1    0    0  502  501  0.00000000000E+00  0.00000000000E+00  0.13072053589E+02  0.13072053589E+02  0.00000000000E+00 0. -1.
         21   -1    0    0  501  502 -0.00000000000E+00 -0.00000000000E+00 -0.29882450936E+03  0.29882450936E+03  0.00000000000E+00 0. -1.
         25    1    1    2    0    0  0.00000000000E+00  0.00000000000E+00 -0.28575245577E+03  0.31189656295E+03  0.12500000000E+03 0.  0.
<mgrwt>
<rscale>  0 0.12500000E+03</rscale>
<asrwt>0</asrwt>
<pdfrwt beam="1">  1       21 0.20110851E-02 0.12500000E+03</pdfrwt>
<pdfrwt beam="2">  1       21 0.45973002E-01 0.12500000E+03</pdfrwt>
<totfact> 0.54481788E+06</totfact>
</mgrwt>
</event>
<event>
 3    1  0.1628330E-001  0.1250000E+03  0.7546771E-02  0.1235069E+00
         21   -1    0    0  502  501  0.00000000000E+00  0.00000000000E+00  0.86174879104E+02  0.86174879104E+02  0.00000000000E+00 0. -1.
         21   -1    0    0  501  502 -0.00000000000E+00 -0.00000000000E+00 -0.45329335424E+02  0.45329335424E+02  0.00000000000E+00 0. -1.
         25    1    1    2    0    0  0.00000000000E+00  0.00000000000E+00  0.40845543680E+02  0.13150421453E+03  0.12500000000E+03 0.  0.
<mgrwt>
<rscale>  0 0.12500000E+03</rscale>
<asrwt>0</asrwt>
<pdfrwt beam="1">  1       21 0.13257674E-01 0.12500000E+03</pdfrwt>
<pdfrwt beam="2">  1       21 0.69737439E-02 0.12500000E+03</pdfrwt>
<totfact> 0.73162805E+06</totfact>
</mgrwt>
</event>
<event>
 3    1  0.1628330E-001  0.1250000E+03  0.7546771E-02  0.1235069E+00
         21   -1    0    0  502  501  0.00000000000E+00  0.00000000000E+00  0.90664967836E+02  0.90664967836E+02  0.00000000000E+00 0.  1.
         21   -1    0    0  501  502 -0.00000000000E+00 -0.00000000000E+00 -0.43084446984E+02  0.43084446984E+02  0.00000000000E+00 0.  1.
         25    1    1    2    0    0  0.00000000000E+00  0.00000000000E+00  0.47580520852E+02  0.13374941482E+03  0.12500000000E+03 0.  0.
<mgrwt>
<rscale>  0 0.12500000E+03</rscale>
<asrwt>0</asrwt>
<pdfrwt beam="1">  1       21 0.13948457E-01 0.12500000E+03</pdfrwt>
<pdfrwt beam="2">  1       21 0.66283765E-02 0.12500000E+03</pdfrwt>
<totfact> 0.72862489E+06</totfact>
</mgrwt>
</event>
<event>
 3    1  0.1628330E-001  0.1250000E+03  0.7546771E-02  0.1235069E+00
         21   -1    0    0  502  501  0.00000000000E+00  0.00000000000E+00  0.16823183237E+02  0.16823183237E+02  0.00000000000E+00 0.  1.
         21   -1    0    0  501  502 -0.00000000000E+00 -0.00000000000E+00 -0.23219446315E+03  0.23219446315E+03  0.00000000000E+00 0.  1.
         25    1    1    2    0    0  0.00000000000E+00  0.00000000000E+00 -0.21537127991E+03  0.24901764638E+03  0.12500000000E+03 0.  0.
<mgrwt>
<rscale>  0 0.12500000E+03</rscale>
<asrwt>0</asrwt>
<pdfrwt beam="1">  1       21 0.25881819E-02 0.12500000E+03</pdfrwt>
<pdfrwt beam="2">  1       21 0.35722227E-01 0.12500000E+03</pdfrwt>
<totfact> 0.59970798E+06</totfact>
</mgrwt>
</event>
<event>
 3    1  0.1628330E-001  0.1250000E+03  0.7546771E-02  0.1235069E+00
         21   -1    0    0  502  501  0.00000000000E+00  0.00000000000E+00  0.86645634809E+02  0.86645634809E+02  0.00000000000E+00 0. -1.
         21   -1    0    0  501  502 -0.00000000000E+00 -0.00000000000E+00 -0.45083055928E+02  0.45083055928E+02  0.00000000000E+00 0. -1.
         25    1    1    2    0    0  0.00000000000E+00  0.00000000000E+00  0.41562578882E+02  0.13172869074E+03  0.12500000000E+03 0.  0.
<mgrwt>
<rscale>  0 0.12500000E+03</rscale>
<asrwt>0</asrwt>
<pdfrwt beam="1">  1       21 0.13330098E-01 0.12500000E+03</pdfrwt>
<pdfrwt beam="2">  1       21 0.69358548E-02 0.12500000E+03</pdfrwt>
<totfact> 0.73132642E+06</totfact>
</mgrwt>
</event>
<event>
 3    1  0.1628330E-001  0.1250000E+03  0.7546771E-02  0.1235069E+00
         21   -1    0    0  502  501  0.00000000000E+00  0.00000000000E+00  0.45839606528E+02  0.45839606528E+02  0.00000000000E+00 0. -1.
         21   -1    0    0  501  502 -0.00000000000E+00 -0.00000000000E+00 -0.85215609293E+02  0.85215609293E+02  0.00000000000E+00 0. -1.
         25    1    1    2    0    0  0.00000000000E+00  0.00000000000E+00 -0.39376002765E+02  0.13105521582E+03  0.12500000000E+03 0.  0.
<mgrwt>
<rscale>  0 0.12500000E+03</rscale>
<asrwt>0</asrwt>
<pdfrwt beam="1">  1       21 0.70522472E-02 0.12500000E+03</pdfrwt>
<pdfrwt beam="2">  1       21 0.13110094E-01 0.12500000E+03</pdfrwt>
<totfact> 0.73223231E+06</totfact>
</mgrwt>
</event>
<event>
 3    1  0.1628330E-001  0.1250000E+03  0.7546771E-02  0.1235069E+00
         21   -1    0    0  502  501  0.00000000000E+00  0.00000000000E+00  0.85520602456E+02  0.85520602456E+02  0.00000000000E+00 0. -1.
         21   -1    0    0  501  502 -0.00000000000E+00 -0.00000000000E+00 -0.45676128182E+02  0.45676128182E+02  0.00000000000E+00 0. -1.
         25    1    1    2    0    0  0.00000000000E+00  0.00000000000E+00  0.39844474275E+02  0.13119673064E+03  0.12500000000E+03 0.  0.
<mgrwt>
<rscale>  0 0.12500000E+03</rscale>
<asrwt>0</asrwt>
<pdfrwt beam="1">  1       21 0.13157016E-01 0.12500000E+03</pdfrwt>
<pdfrwt beam="2">  1       21 0.70270967E-02 0.12500000E+03</pdfrwt>
<totfact> 0.73204172E+06</totfact>
</mgrwt>
</event>
<event>
 3    1  0.1628330E-001  0.1250000E+03  0.7546771E-02  0.1235069E+00
         21   -1    0    0  502  501  0.00000000000E+00  0.00000000000E+00  0.40744013074E+02  0.40744013074E+02  0.00000000000E+00 0.  1.
         21   -1    0    0  501  502 -0.00000000000E+00 -0.00000000000E+00 -0.95872981214E+02  0.95872981214E+02  0.00000000000E+00 0.  1.
         25    1    1    2    0    0  0.00000000000E+00  0.00000000000E+00 -0.55128968140E+02  0.13661699429E+03  0.12500000000E+03 0.  0.
<mgrwt>
<rscale>  0 0.12500000E+03</rscale>
<asrwt>0</asrwt>
<pdfrwt beam="1">  1       21 0.62683097E-02 0.12500000E+03</pdfrwt>
<pdfrwt beam="2">  1       21 0.14749689E-01 0.12500000E+03</pdfrwt>
<totfact> 0.72483072E+06</totfact>
</mgrwt>
</event>
<event>
 3    1  0.1628330E-001  0.1250000E+03  0.7546771E-02  0.1235069E+00
         21   -1    0    0  502  501  0.00000000000E+00  0.00000000000E+00  0.10988636752E+03  0.10988636752E+03  0.00000000000E+00 0.  1.
         21   -1    0    0  501  502 -0.00000000000E+00 -0.00000000000E+00 -0.35548085612E+02  0.35548085612E+02  0.00000000000E+00 0.  1.
         25    1    1    2    0    0  0.00000000000E+00  0.00000000000E+00  0.74338281904E+02  0.14543445313E+03  0.12500000000E+03 0.  0.
<mgrwt>
<rscale>  0 0.12500000E+03</rscale>
<asrwt>0</asrwt>
<pdfrwt beam="1">  1       21 0.16905595E-01 0.12500000E+03</pdfrwt>
<pdfrwt beam="2">  1       21 0.54689363E-02 0.12500000E+03</pdfrwt>
<totfact> 0.71337546E+06</totfact>
</mgrwt>
</event>
<event>
 3    1  0.1628330E-001  0.1250000E+03  0.7546771E-02  0.1235069E+00
         21   -1    0    0  502  501  0.00000000000E+00  0.00000000000E+00  0.89202589006E+02  0.89202589006E+02  0.00000000000E+00 0. -1.
         21   -1    0    0  501  502 -0.00000000000E+00 -0.00000000000E+00 -0.43790769344E+02  0.43790769344E+02  0.00000000000E+00 0. -1.
         25    1    1    2    0    0  0.00000000000E+00  0.00000000000E+00  0.45411819662E+02  0.13299335835E+03  0.12500000000E+03 0.  0.
<mgrwt>
<rscale>  0 0.12500000E+03</rscale>
<asrwt>0</asrwt>
<pdfrwt beam="1">  1       21 0.13723475E-01 0.12500000E+03</pdfrwt>
<pdfrwt beam="2">  1       21 0.67370415E-02 0.12500000E+03</pdfrwt>
<totfact> 0.72963285E+06</totfact>
</mgrwt>
</event>
<event>
 3    1  0.1628330E-001  0.1250000E+03  0.7546771E-02  0.1235069E+00
         21   -1    0    0  502  501  0.00000000000E+00  0.00000000000E+00  0.44231444308E+03  0.44231444308E+03  0.00000000000E+00 0.  1.
         21   -1    0    0  501  502 -0.00000000000E+00 -0.00000000000E+00 -0.88313869491E+01  0.88313869491E+01  0.00000000000E+00 0.  1.
         25    1    1    2    0    0  0.00000000000E+00  0.00000000000E+00  0.43348305613E+03  0.45114583003E+03  0.12500000000E+03 0.  0.
<mgrwt>
<rscale>  0 0.12500000E+03</rscale>
<asrwt>0</asrwt>
<pdfrwt beam="1">  1       21 0.68048358E-01 0.12500000E+03</pdfrwt>
<pdfrwt beam="2">  1       21 0.13586753E-02 0.12500000E+03</pdfrwt>
<totfact> 0.44823791E+06</totfact>
</mgrwt>
</event>
<event>
 3    1  0.1628330E-001  0.1250000E+03  0.7546771E-02  0.1235069E+00
         21   -1    0    0  502  501  0.00000000000E+00  0.00000000000E+00  0.15631412967E+02  0.15631412967E+02  0.00000000000E+00 0. -1.
         21   -1    0    0  501  502 -0.00000000000E+00 -0.00000000000E+00 -0.24989743462E+03  0.24989743462E+03  0.00000000000E+00 0. -1.
         25    1    1    2    0    0  0.00000000000E+00  0.00000000000E+00 -0.23426602165E+03  0.26552884759E+03  0.12500000000E+03 0.  0.
<mgrwt>
<rscale>  0 0.12500000E+03</rscale>
<asrwt>0</asrwt>
<pdfrwt beam="1">  1       21 0.24048327E-02 0.12500000E+03</pdfrwt>
<pdfrwt beam="2">  1       21 0.38445761E-01 0.12500000E+03</pdfrwt>
<totfact> 0.58446199E+06</totfact>
</mgrwt>
</event>
<event>
 3    1  0.1628330E-001  0.1250000E+03  0.7546771E-02  0.1235069E+00
         21   -1    0    0  502  501  0.00000000000E+00  0.00000000000E+00  0.73816208604E+03  0.73816208604E+03  0.00000000000E+00 0. -1.
         21   -1    0    0  501  502 -0.00000000000E+00 -0.00000000000E+00 -0.52918594356E+01  0.52918594356E+01  0.00000000000E+00 0. -1.
         25    1    1    2    0    0  0.00000000000E+00  0.00000000000E+00  0.73287022661E+03  0.74345394548E+03  0.12500000000E+03 0.  0.
<mgrwt>
<rscale>  0 0.12500000E+03</rscale>
<asrwt>0</asrwt>
<pdfrwt beam="1">  1       21 0.11356332E+00 0.12500000E+03</pdfrwt>
<pdfrwt beam="2">  1       21 0.81413281E-03 0.12500000E+03</pdfrwt>
<totfact> 0.31300462E+06</totfact>
</mgrwt>
</event>
<event>
 3    1  0.1628330E-001  0.1250000E+03  0.7546771E-02  0.1235069E+00
         21   -1    0    0  502  501  0.00000000000E+00  0.00000000000E+00  0.37288723538E+01  0.37288723538E+01  0.00000000000E+00 0.  1.
         21   -1    0    0  501  502 -0.00000000000E+00 -0.00000000000E+00 -0.10475687096E+04  0.10475687096E+04  0.00000000000E+00 0.  1.
         25    1    1    2    0    0  0.00000000000E+00  0.00000000000E+00 -0.10438398373E+04  0.10512975820E+04  0.12500000000E+03 0.  0.
<mgrwt>
<rscale>  0 0.12500000E+03</rscale>
<asrwt>0</asrwt>
<pdfrwt beam="1">  1       21 0.57367138E-03 0.12500000E+03</pdfrwt>
<pdfrwt beam="2">  1       21 0.16116478E+00 0.12500000E+03</pdfrwt>
<totfact> 0.22368250E+06</totfact>
</mgrwt>
</event>
<event>
 3    1  0.1628330E-001  0.1250000E+03  0.7546771E-02  0.1235069E+00
         21   -1    0    0  502  501  0.00000000000E+00  0.00000000000E+00  0.22667501874E+03  0.22667501874E+03  0.00000000000E+00 0. -1.
         21   -1    0    0  501  502 -0.00000000000E+00 -0.00000000000E+00 -0.17232820898E+02  0.17232820898E+02  0.00000000000E+00 0. -1.
         25    1    1    2    0    0  0.00000000000E+00  0.00000000000E+00  0.20944219785E+03  0.24390783964E+03  0.12500000000E+03 0.  0.
<mgrwt>
<rscale>  0 0.12500000E+03</rscale>
<asrwt>0</asrwt>
<pdfrwt beam="1">  1       21 0.34873078E-01 0.12500000E+03</pdfrwt>
<pdfrwt beam="2">  1       21 0.26512034E-02 0.12500000E+03</pdfrwt>
<totfact> 0.60456547E+06</totfact>
</mgrwt>
</event>
<event>
 3    1  0.1628330E-001  0.1250000E+03  0.7546771E-02  0.1235069E+00
         21   -1    0    0  502  501  0.00000000000E+00  0.00000000000E+00  0.51106648597E+02  0.51106648597E+02  0.00000000000E+00 0. -1.
         21   -1    0    0  501  502 -0.00000000000E+00 -0.00000000000E+00 -0.76433303831E+02  0.76433303831E+02  0.00000000000E+00 0. -1.
         25    1    1    2    0    0  0.00000000000E+00  0.00000000000E+00 -0.25326655234E+02  0.12753995243E+03  0.12500000000E+03 0.  0.
<mgrwt>
<rscale>  0 0.12500000E+03</rscale>
<asrwt>0</asrwt>
<pdfrwt beam="1">  1       21 0.78625613E-02 0.12500000E+03</pdfrwt>
<pdfrwt beam="2">  1       21 0.11758970E-01 0.12500000E+03</pdfrwt>
<totfact> 0.73695803E+06</totfact>
</mgrwt>
</event>
<event>
 3    1  0.1628330E-001  0.1250000E+03  0.7546771E-02  0.1235069E+00
         21   -1    0    0  502  501  0.00000000000E+00  0.00000000000E+00  0.50346198243E+02  0.50346198243E+02  0.00000000000E+00 0. -1.
         21   -1    0    0  501  502 -0.00000000000E+00 -0.00000000000E+00 -0.77587784903E+02  0.77587784903E+02  0.00000000000E+00 0. -1.
         25    1    1    2    0    0  0.00000000000E+00  0.00000000000E+00 -0.27241586660E+02  0.12793398315E+03  0.12500000000E+03 0.  0.
<mgrwt>
<rscale>  0 0.12500000E+03</rscale>
<asrwt>0</asrwt>
<pdfrwt beam="1">  1       21 0.77455691E-02 0.12500000E+03</pdfrwt>
<pdfrwt beam="2">  1       21 0.11936582E-01 0.12500000E+03</pdfrwt>
<totfact> 0.73642479E+06</totfact>
</mgrwt>
</event>
<event>
 3    1  0.1628330E-001  0.1250000E+03  0.7546771E-02  0.1235069E+00
         21   -1    0    0  502  501  0.00000000000E+00  0.00000000000E+00  0.23903697871E+01  0.23903697871E+01  0.00000000000E+00 0.  1.
         21   -1    0    0  501  502 -0.00000000000E+00 -0.00000000000E+00 -0.16341613842E+04  0.16341613842E+04  0.00000000000E+00 0.  1.
         25    1    1    2    0    0  0.00000000000E+00  0.00000000000E+00 -0.16317710144E+04  0.16365517540E+04  0.12500000000E+03 0.  0.
<mgrwt>
<rscale>  0 0.12500000E+03</rscale>
<asrwt>0</asrwt>
<pdfrwt beam="1">  1       21 0.36774966E-03 0.12500000E+03</pdfrwt>
<pdfrwt beam="2">  1       21 0.25140913E+00 0.12500000E+03</pdfrwt>
<totfact> 0.12084275E+06</totfact>
</mgrwt>
</event>
<event>
 3    1  0.1628330E-001  0.1250000E+03  0.7546771E-02  0.1235069E+00
         21   -1    0    0  502  501  0.00000000000E+00  0.00000000000E+00  0.69152690995E+01  0.69152690995E+01  0.00000000000E+00 0. -1.
         21   -1    0    0  501  502 -0.00000000000E+00 -0.00000000000E+00 -0.56487317324E+03  0.56487317324E+03  0.00000000000E+00 0. -1.
         25    1    1    2    0    0  0.00000000000E+00  0.00000000000E+00 -0.55795790414E+03  0.57178844234E+03  0.12500000000E+03 0.  0.
<mgrwt>
<rscale>  0 0.12500000E+03</rscale>
<asrwt>0</asrwt>
<pdfrwt beam="1">  1       21 0.10638872E-02 0.12500000E+03</pdfrwt>
<pdfrwt beam="2">  1       21 0.86903595E-01 0.12500000E+03</pdfrwt>
<totfact> 0.38400346E+06</totfact>
</mgrwt>
</event>
<event>
 3    1  0.1628330E-001  0.1250000E+03  0.7546771E-02  0.1235069E+00
         21   -1    0    0  502  501  0.00000000000E+00  0.00000000000E+00  0.25987640644E+04  0.25987640644E+04  0.00000000000E+00 0.  1.
         21   -1    0    0  501  502 -0.00000000000E+00 -0.00000000000E+00 -0.15031183683E+01  0.15031183683E+01  0.00000000000E+00 0.  1.
         25    1    1    2    0    0  0.00000000000E+00  0.00000000000E+00  0.25972609460E+04  0.26002671828E+04  0.12500000000E+03 0.  0.
<mgrwt>
<rscale>  0 0.12500000E+03</rscale>
<asrwt>0</asrwt>
<pdfrwt beam="1">  1       21 0.39980626E+00 0.12500000E+03</pdfrwt>
<pdfrwt beam="2">  1       21 0.23125106E-03 0.12500000E+03</pdfrwt>
<totfact> 0.34448340E+05</totfact>
</mgrwt>
</event>
<event>
 3    1  0.1628330E-001  0.1250000E+03  0.7546771E-02  0.1235069E+00
         21   -1    0    0  502  501  0.00000000000E+00  0.00000000000E+00  0.88241887958E+02  0.88241887958E+02  0.00000000000E+00 0. -1.
         21   -1    0    0  501  502 -0.00000000000E+00 -0.00000000000E+00 -0.44267525213E+02  0.44267525213E+02  0.00000000000E+00 0. -1.
         25    1    1    2    0    0  0.00000000000E+00  0.00000000000E+00  0.43974362745E+02  0.13250941317E+03  0.12500000000E+03 0.  0.
<mgrwt>
<rscale>  0 0.12500000E+03</rscale>
<asrwt>0</asrwt>
<pdfrwt beam="1">  1       21 0.13575675E-01 0.12500000E+03</pdfrwt>
<pdfrwt beam="2">  1       21 0.68103885E-02 0.12500000E+03</pdfrwt>
<totfact> 0.73027979E+06</totfact>
</mgrwt>
</event>
<event>
 3    1  0.1628330E-001  0.1250000E+03  0.7546771E-02  0.1235069E+00
         21   -1    0    0  502  501  0.00000000000E+00  0.00000000000E+00  0.41015442711E+02  0.41015442711E+02  0.00000000000E+00 0. -1.
         21   -1    0    0  501  502 -0.00000000000E+00 -0.00000000000E+00 -0.95238518514E+02  0.95238518514E+02  0.00000000000E+00 0. -1.
         25    1    1    2    0    0  0.00000000000E+00  0.00000000000E+00 -0.54223075803E+02  0.13625396123E+03  0.12500000000E+03 0.  0.
<mgrwt>
<rscale>  0 0.12500000E+03</rscale>
<asrwt>0</asrwt>
<pdfrwt beam="1">  1       21 0.63100682E-02 0.12500000E+03</pdfrwt>
<pdfrwt beam="2">  1       21 0.14652079E-01 0.12500000E+03</pdfrwt>
<totfact> 0.72530862E+06</totfact>
</mgrwt>
</event>
<event>
 3    1  0.1628330E-001  0.1250000E+03  0.7546771E-02  0.1235069E+00
         21   -1    0    0  502  501  0.00000000000E+00  0.00000000000E+00  0.13234898649E+03  0.13234898649E+03  0.00000000000E+00 0. -1.
         21   -1    0    0  501  502 -0.00000000000E+00 -0.00000000000E+00 -0.29514770787E+02  0.29514770787E+02  0.00000000000E+00 0. -1.
         25    1    1    2    0    0  0.00000000000E+00  0.00000000000E+00  0.10283421570E+03  0.16186375727E+03  0.12500000000E+03 0.  0.
<mgrwt>
<rscale>  0 0.12500000E+03</rscale>
<asrwt>0</asrwt>
<pdfrwt beam="1">  1       21 0.20361382E-01 0.12500000E+03</pdfrwt>
<pdfrwt beam="2">  1       21 0.45407340E-02 0.12500000E+03</pdfrwt>
<totfact> 0.69292479E+06</totfact>
</mgrwt>
</event>
<event>
 3    1  0.1628330E-001  0.1250000E+03  0.7546771E-02  0.1235069E+00
         21   -1    0    0  502  501  0.00000000000E+00  0.00000000000E+00  0.28551318072E+03  0.28551318072E+03  0.00000000000E+00 0. -1.
         21   -1    0    0  501  502 -0.00000000000E+00 -0.00000000000E+00 -0.13681504966E+02  0.13681504966E+02  0.00000000000E+00 0. -1.
         25    1    1    2    0    0  0.00000000000E+00  0.00000000000E+00  0.27183167575E+03  0.29919468569E+03  0.12500000000E+03 0.  0.
<mgrwt>
<rscale>  0 0.12500000E+03</rscale>
<asrwt>0</asrwt>
<pdfrwt beam="1">  1       21 0.43925100E-01 0.12500000E+03</pdfrwt>
<pdfrwt beam="2">  1       21 0.21048471E-02 0.12500000E+03</pdfrwt>
<totfact> 0.55523167E+06</totfact>
</mgrwt>
</event>
<event>
 3    1  0.1628330E-001  0.1250000E+03  0.7546771E-02  0.1235069E+00
         21   -1    0    0  502  501  0.00000000000E+00  0.00000000000E+00  0.35493529629E+02  0.35493529629E+02  0.00000000000E+00 0.  1.
         21   -1    0    0  501  502 -0.00000000000E+00 -0.00000000000E+00 -0.11005527038E+03  0.11005527038E+03  0.00000000000E+00 0.  1.
         25    1    1    2    0    0  0.00000000000E+00  0.00000000000E+00 -0.74561740748E+02  0.14554880001E+03  0.12500000000E+03 0.  0.
<mgrwt>
<rscale>  0 0.12500000E+03</rscale>
<asrwt>0</asrwt>
<pdfrwt beam="1">  1       21 0.54605431E-02 0.12500000E+03</pdfrwt>
<pdfrwt beam="2">  1       21 0.16931580E-01 0.12500000E+03</pdfrwt>
<totfact> 0.71322940E+06</totfact>
</mgrwt>
</event>
<event>
 3    1  0.1628330E-001  0.1250000E+03  0.7546771E-02  0.1235069E+00
         21   -1    0    0  502  501  0.00000000000E+00  0.00000000000E+00  0.27303634833E+03  0.27303634833E+03  0.00000000000E+00 0. -1.
         21   -1    0    0  501  502 -0.00000000000E+00 -0.00000000000E+00 -0.14306703206E+02  0.14306703206E+02  0.00000000000E+00 0. -1.
         25    1    1    2    0    0  0.00000000000E+00  0.00000000000E+00  0.25872964512E+03  0.28734305154E+03  0.12500000000E+03 0.  0.
<mgrwt>
<rscale>  0 0.12500000E+03</rscale>
<asrwt>0</asrwt>
<pdfrwt beam="1">  1       21 0.42005588E-01 0.12500000E+03</pdfrwt>
<pdfrwt beam="2">  1       21 0.22010315E-02 0.12500000E+03</pdfrwt>
<totfact> 0.56524698E+06</totfact>
</mgrwt>
</event>
<event>
 3    1  0.1628330E-001  0.1250000E+03  0.7546771E-02  0.1235069E+00
         21   -1    0    0  502  501  0.00000000000E+00  0.00000000000E+00  0.90131611612E+03  0.90131611612E+03  0.00000000000E+00 0.  1.
         21   -1    0    0  501  502 -0.00000000000E+00 -0.00000000000E+00 -0.43339400352E+01  0.43339400352E+01  0.00000000000E+00 0.  1.
         25    1    1    2    0    0  0.00000000000E+00  0.00000000000E+00  0.89698217608E+03  0.90565005615E+03  0.12500000000E+03 0.  0.
<mgrwt>
<rscale>  0 0.12500000E+03</rscale>
<asrwt>0</asrwt>
<pdfrwt beam="1">  1       21 0.13866387E+00 0.12500000E+03</pdfrwt>
<pdfrwt beam="2">  1       21 0.66676072E-03 0.12500000E+03</pdfrwt>
<totfact> 0.26137335E+06</totfact>
</mgrwt>
</event>
<event>
 3    1  0.1628330E-001  0.1250000E+03  0.7546771E-02  0.1235069E+00
         21   -1    0    0  502  501  0.00000000000E+00  0.00000000000E+00  0.12498271747E+03  0.12498271747E+03  0.00000000000E+00 0.  1.
         21   -1    0    0  501  502 -0.00000000000E+00 -0.00000000000E+00 -0.31254321231E+02  0.31254321231E+02  0.00000000000E+00 0.  1.
         25    1    1    2    0    0  0.00000000000E+00  0.00000000000E+00  0.93728396237E+02  0.15623703870E+03  0.12500000000E+03 0.  0.
<mgrwt>
<rscale>  0 0.12500000E+03</rscale>
<asrwt>0</asrwt>
<pdfrwt beam="1">  1       21 0.19228110E-01 0.12500000E+03</pdfrwt>
<pdfrwt beam="2">  1       21 0.48083572E-02 0.12500000E+03</pdfrwt>
<totfact> 0.69982236E+06</totfact>
</mgrwt>
</event>
<event>
 3    1  0.1628330E-001  0.1250000E+03  0.7546771E-02  0.1235069E+00
         21   -1    0    0  502  501  0.00000000000E+00  0.00000000000E+00  0.59149530711E+01  0.59149530711E+01  0.00000000000E+00 0.  1.
         21   -1    0    0  501  502 -0.00000000000E+00 -0.00000000000E+00 -0.66040253457E+03  0.66040253457E+03  0.00000000000E+00 0.  1.
         25    1    1    2    0    0  0.00000000000E+00  0.00000000000E+00 -0.65448758150E+03  0.66631748764E+03  0.12500000000E+03 0.  0.
<mgrwt>
<rscale>  0 0.12500000E+03</rscale>
<asrwt>0</asrwt>
<pdfrwt beam="1">  1       21 0.90999308E-03 0.12500000E+03</pdfrwt>
<pdfrwt beam="2">  1       21 0.10160036E+00 0.12500000E+03</pdfrwt>
<totfact> 0.34249557E+06</totfact>
</mgrwt>
</event>
<event>
 3    1  0.1628330E-001  0.1250000E+03  0.7546771E-02  0.1235069E+00
         21   -1    0    0  502  501  0.00000000000E+00  0.00000000000E+00  0.49453354146E+02  0.49453354146E+02  0.00000000000E+00 0. -1.
         21   -1    0    0  501  502 -0.00000000000E+00 -0.00000000000E+00 -0.78988575547E+02  0.78988575547E+02  0.00000000000E+00 0. -1.
         25    1    1    2    0    0  0.00000000000E+00  0.00000000000E+00 -0.29535221402E+02  0.12844192969E+03  0.12500000000E+03 0.  0.
<mgrwt>
<rscale>  0 0.12500000E+03</rscale>
<asrwt>0</asrwt>
<pdfrwt beam="1">  1       21 0.76082084E-02 0.12500000E+03</pdfrwt>
<pdfrwt beam="2">  1       21 0.12152088E-01 0.12500000E+03</pdfrwt>
<totfact> 0.73573944E+06</totfact>
</mgrwt>
</event>
<event>
 3    1  0.1628330E-001  0.1250000E+03  0.7546771E-02  0.1235069E+00
         21   -1    0    0  502  501  0.00000000000E+00  0.00000000000E+00  0.98848771953E+02  0.98848771953E+02  0.00000000000E+00 0. -1.
         21   -1    0    0  501  502 -0.00000000000E+00 -0.00000000000E+00 -0.39517435804E+02  0.39517435804E+02  0.00000000000E+00 0. -1.
         25    1    1    2    0    0  0.00000000000E+00  0.00000000000E+00  0.59331336149E+02  0.13836620776E+03  0.12500000000E+03 0.  0.
<mgrwt>
<rscale>  0 0.12500000E+03</rscale>
<asrwt>0</asrwt>
<pdfrwt beam="1">  1       21 0.15207503E-01 0.12500000E+03</pdfrwt>
<pdfrwt beam="2">  1       21 0.60796055E-02 0.12500000E+03</pdfrwt>
<totfact> 0.72253320E+06</totfact>
</mgrwt>
</event>
<event>
 3    1  0.1628330E-001  0.1250000E+03  0.7546771E-02  0.1235069E+00
         21   -1    0    0  502  501  0.00000000000E+00  0.00000000000E+00  0.17100096267E+02  0.17100096267E+02  0.00000000000E+00 0.  1.
         21   -1    0    0  501  502 -0.00000000000E+00 -0.00000000000E+00 -0.22843438651E+03  0.22843438651E+03  0.00000000000E+00 0.  1.
         25    1    1    2    0    0  0.00000000000E+00  0.00000000000E+00 -0.21133429025E+03  0.24553448278E+03  0.12500000000E+03 0.  0.
<mgrwt>
<rscale>  0 0.12500000E+03</rscale>
<asrwt>0</asrwt>
<pdfrwt beam="1">  1       21 0.26307840E-02 0.12500000E+03</pdfrwt>
<pdfrwt beam="2">  1       21 0.35143752E-01 0.12500000E+03</pdfrwt>
<totfact> 0.60301177E+06</totfact>
</mgrwt>
</event>
<event>
 3    1  0.1628330E-001  0.1250000E+03  0.7546771E-02  0.1235069E+00
         21   -1    0    0  502  501  0.00000000000E+00  0.00000000000E+00  0.26613039622E+02  0.26613039622E+02  0.00000000000E+00 0.  1.
         21   -1    0    0  501  502 -0.00000000000E+00 -0.00000000000E+00 -0.14677955076E+03  0.14677955076E+03  0.00000000000E+00 0.  1.
         25    1    1    2    0    0  0.00000000000E+00  0.00000000000E+00 -0.12016651113E+03  0.17339259038E+03  0.12500000000E+03 0.  0.
<mgrwt>
<rscale>  0 0.12500000E+03</rscale>
<asrwt>0</asrwt>
<pdfrwt beam="1">  1       21 0.40943138E-02 0.12500000E+03</pdfrwt>
<pdfrwt beam="2">  1       21 0.22581469E-01 0.12500000E+03</pdfrwt>
<totfact> 0.67917721E+06</totfact>
</mgrwt>
</event>
<event>
 3    1  0.1628330E-001  0.1250000E+03  0.7546771E-02  0.1235069E+00
         21   -1    0    0  502  501  0.00000000000E+00  0.00000000000E+00  0.30721706751E+03  0.30721706751E+03  0.00000000000E+00 0.  1.
         21   -1    0    0  501  502 -0.00000000000E+00 -0.00000000000E+00 -0.12714951131E+02  0.12714951131E+02  0.00000000000E+00 0.  1.
         25    1    1    2    0    0  0.00000000000E+00  0.00000000000E+00  0.29450211638E+03  0.31993201864E+03  0.12500000000E+03 0.  0.
<mgrwt>
<rscale>  0 0.12500000E+03</rscale>
<asrwt>0</asrwt>
<pdfrwt beam="1">  1       21 0.47264158E-01 0.12500000E+03</pdfrwt>
<pdfrwt beam="2">  1       21 0.19561466E-02 0.12500000E+03</pdfrwt>
<totfact> 0.53838733E+06</totfact>
</mgrwt>
</event>
<event>
 3    1  0.1628330E-001  0.1250000E+03  0.7546771E-02  0.1235069E+00
         21   -1    0    0  502  501  0.00000000000E+00  0.00000000000E+00  0.81176684108E+01  0.81176684108E+01  0.00000000000E+00 0. -1.
         21   -1    0    0  501  502 -0.00000000000E+00 -0.00000000000E+00 -0.48120344443E+03  0.48120344443E+03  0.00000000000E+00 0. -1.
         25    1    1    2    0    0  0.00000000000E+00  0.00000000000E+00 -0.47308577602E+03  0.48932111284E+03  0.12500000000E+03 0.  0.
<mgrwt>
<rscale>  0 0.12500000E+03</rscale>
<asrwt>0</asrwt>
<pdfrwt beam="1">  1       21 0.12488719E-02 0.12500000E+03</pdfrwt>
<pdfrwt beam="2">  1       21 0.74031311E-01 0.12500000E+03</pdfrwt>
<totfact> 0.42629191E+06</totfact>
</mgrwt>
</event>
<event>
 3    1  0.1628330E-001  0.1250000E+03  0.7546771E-02  0.1235069E+00
         21   -1    0    0  502  501  0.00000000000E+00  0.00000000000E+00  0.41818235325E+02  0.41818235325E+02  0.00000000000E+00 0.  1.
         21   -1    0    0  501  502 -0.00000000000E+00 -0.00000000000E+00 -0.93410206567E+02  0.93410206567E+02  0.00000000000E+00 0.  1.
         25    1    1    2    0    0  0.00000000000E+00  0.00000000000E+00 -0.51591971242E+02  0.13522844189E+03  0.12500000000E+03 0.  0.
<mgrwt>
<rscale>  0 0.12500000E+03</rscale>
<asrwt>0</asrwt>
<pdfrwt beam="1">  1       21 0.64335747E-02 0.12500000E+03</pdfrwt>
<pdfrwt beam="2">  1       21 0.14370801E-01 0.12500000E+03</pdfrwt>
<totfact> 0.72666239E+06</totfact>
</mgrwt>
</event>
<event>
 3    1  0.1628330E-001  0.1250000E+03  0.7546771E-02  0.1235069E+00
         21   -1    0    0  502  501  0.00000000000E+00  0.00000000000E+00  0.16977460562E+02  0.16977460562E+02  0.00000000000E+00 0.  1.
         21   -1    0    0  501  502 -0.00000000000E+00 -0.00000000000E+00 -0.23008446909E+03  0.23008446909E+03  0.00000000000E+00 0.  1.
         25    1    1    2    0    0  0.00000000000E+00  0.00000000000E+00 -0.21310700853E+03  0.24706192965E+03  0.12500000000E+03 0.  0.
<mgrwt>
<rscale>  0 0.12500000E+03</rscale>
<asrwt>0</asrwt>
<pdfrwt beam="1">  1       21 0.26119171E-02 0.12500000E+03</pdfrwt>
<pdfrwt beam="2">  1       21 0.35397609E-01 0.12500000E+03</pdfrwt>
<totfact> 0.60155913E+06</totfact>
</mgrwt>
</event>
<event>
 3    1  0.1628330E-001  0.1250000E+03  0.7546771E-02  0.1235069E+00
         21   -1    0    0  502  501  0.00000000000E+00  0.00000000000E+00  0.65789043186E+01  0.65789043186E+01  0.00000000000E+00 0.  1.
         21   -1    0    0  501  502 -0.00000000000E+00 -0.00000000000E+00 -0.59375388527E+03  0.59375388527E+03  0.00000000000E+00 0.  1.
         25    1    1    2    0    0  0.00000000000E+00  0.00000000000E+00 -0.58717498095E+03  0.60033278959E+03  0.12500000000E+03 0.  0.
<mgrwt>
<rscale>  0 0.12500000E+03</rscale>
<asrwt>0</asrwt>
<pdfrwt beam="1">  1       21 0.10121387E-02 0.12500000E+03</pdfrwt>
<pdfrwt beam="2">  1       21 0.91346789E-01 0.12500000E+03</pdfrwt>
<totfact> 0.37077574E+06</totfact>
</mgrwt>
</event>
<event>
 3    1  0.1628330E-001  0.1250000E+03  0.7546771E-02  0.1235069E+00
         21   -1    0    0  502  501  0.00000000000E+00  0.00000000000E+00  0.20757957349E+02  0.20757957349E+02  0.00000000000E+00 0. -1.
         21   -1    0    0  501  502 -0.00000000000E+00 -0.00000000000E+00 -0.18818084720E+03  0.18818084720E+03  0.00000000000E+00 0. -1.
         25    1    1    2    0    0  0.00000000000E+00  0.00000000000E+00 -0.16742288985E+03  0.20893880455E+03  0.12500000000E+03 0.  0.
<mgrwt>
<rscale>  0 0.12500000E+03</rscale>
<asrwt>0</asrwt>
<pdfrwt beam="1">  1       21 0.31935319E-02 0.12500000E+03</pdfrwt>
<pdfrwt beam="2">  1       21 0.28950900E-01 0.12500000E+03</pdfrwt>
<totfact> 0.63971358E+06</totfact>
</mgrwt>
</event>
<event>
 3    1  0.1628330E-001  0.1250000E+03  0.7546771E-02  0.1235069E+00
         21   -1    0    0  502  501  0.00000000000E+00  0.00000000000E+00  0.11480510722E+02  0.11480510722E+02  0.00000000000E+00 0. -1.
         21   -1    0    0  501  502 -0.00000000000E+00 -0.00000000000E+00 -0.34025054239E+03  0.34025054239E+03  0.00000000000E+00 0. -1.
         25    1    1    2    0    0  0.00000000000E+00  0.00000000000E+00 -0.32877003167E+03  0.35173105311E+03  0.12500000000E+03 0.  0.
<mgrwt>
<rscale>  0 0.12500000E+03</rscale>
<asrwt>0</asrwt>
<pdfrwt beam="1">  1       21 0.17662326E-02 0.12500000E+03</pdfrwt>
<pdfrwt beam="2">  1       21 0.52346232E-01 0.12500000E+03</pdfrwt>
<totfact> 0.51410845E+06</totfact>
</mgrwt>
</event>
<event>
 3    1  0.1628330E-001  0.1250000E+03  0.7546771E-02  0.1235069E+00
         21   -1    0    0  502  501  0.00000000000E+00  0.00000000000E+00  0.77982967644E+01  0.77982967644E+01  0.00000000000E+00 0. -1.
         21   -1    0    0  501  502 -0.00000000000E+00 -0.00000000000E+00 -0.50091066268E+03  0.50091066268E+03  0.00000000000E+00 0. -1.
         25    1    1    2    0    0  0.00000000000E+00  0.00000000000E+00 -0.49311236591E+03  0.50870895944E+03  0.12500000000E+03 0.  0.
<mgrwt>
<rscale>  0 0.12500000E+03</rscale>
<asrwt>0</asrwt>
<pdfrwt beam="1">  1       21 0.11997380E-02 0.12500000E+03</pdfrwt>
<pdfrwt beam="2">  1       21 0.77063176E-01 0.12500000E+03</pdfrwt>
<totfact> 0.41575670E+06</totfact>
</mgrwt>
</event>
<event>
 3    1  0.1628330E-001  0.1250000E+03  0.7546771E-02  0.1235069E+00
         21   -1    0    0  502  501  0.00000000000E+00  0.00000000000E+00  0.55994500996E+01  0.55994500996E+01  0.00000000000E+00 0. -1.
         21   -1    0    0  501  502 -0.00000000000E+00 -0.00000000000E+00 -0.69761314602E+03  0.69761314602E+03  0.00000000000E+00 0. -1.
         25    1    1    2    0    0  0.00000000000E+00  0.00000000000E+00 -0.69201369592E+03  0.70321259612E+03  0.12500000000E+03 0.  0.
<mgrwt>
<rscale>  0 0.12500000E+03</rscale>
<asrwt>0</asrwt>
<pdfrwt beam="1">  1       21 0.86145358E-03 0.12500000E+03</pdfrwt>
<pdfrwt beam="2">  1       21 0.10732513E+00 0.12500000E+03</pdfrwt>
<totfact> 0.32786642E+06</totfact>
</mgrwt>
</event>
<event>
 3    1  0.1628330E-001  0.1250000E+03  0.7546771E-02  0.1235069E+00
         21   -1    0    0  502  501  0.00000000000E+00  0.00000000000E+00  0.47730327324E+03  0.47730327324E+03  0.00000000000E+00 0.  1.
         21   -1    0    0  501  502 -0.00000000000E+00 -0.00000000000E+00 -0.81840000248E+01  0.81840000248E+01  0.00000000000E+00 0.  1.
         25    1    1    2    0    0  0.00000000000E+00  0.00000000000E+00  0.46911927321E+03  0.48548727326E+03  0.12500000000E+03 0.  0.
<mgrwt>
<rscale>  0 0.12500000E+03</rscale>
<asrwt>0</asrwt>
<pdfrwt beam="1">  1       21 0.73431251E-01 0.12500000E+03</pdfrwt>
<pdfrwt beam="2">  1       21 0.12590773E-02 0.12500000E+03</pdfrwt>
<totfact> 0.42842232E+06</totfact>
</mgrwt>
</event>
<event>
 3    1  0.1628330E-001  0.1250000E+03  0.7546771E-02  0.1235069E+00
         21   -1    0    0  502  501  0.00000000000E+00  0.00000000000E+00  0.26050593508E+04  0.26050593508E+04  0.00000000000E+00 0.  1.
         21   -1    0    0  501  502 -0.00000000000E+00 -0.00000000000E+00 -0.14994859901E+01  0.14994859901E+01  0.00000000000E+00 0.  1.
         25    1    1    2    0    0  0.00000000000E+00  0.00000000000E+00  0.26035598648E+04  0.26065588368E+04  0.12500000000E+03 0.  0.
<mgrwt>
<rscale>  0 0.12500000E+03</rscale>
<asrwt>0</asrwt>
<pdfrwt beam="1">  1       21 0.40077474E+00 0.12500000E+03</pdfrwt>
<pdfrwt beam="2">  1       21 0.23069224E-03 0.12500000E+03</pdfrwt>
<totfact> 0.34107421E+05</totfact>
</mgrwt>
</event>
<event>
 3    1  0.1628330E-001  0.1250000E+03  0.7546771E-02  0.1235069E+00
         21   -1    0    0  502  501  0.00000000000E+00  0.00000000000E+00  0.73179102099E+03  0.73179102099E+03  0.00000000000E+00 0.  1.
         21   -1    0    0  501  502 -0.00000000000E+00 -0.00000000000E+00 -0.53379310321E+01  0.53379310321E+01  0.00000000000E+00 0.  1.
         25    1    1    2    0    0  0.00000000000E+00  0.00000000000E+00  0.72645308996E+03  0.73712895203E+03  0.12500000000E+03 0.  0.
<mgrwt>
<rscale>  0 0.12500000E+03</rscale>
<asrwt>0</asrwt>
<pdfrwt beam="1">  1       21 0.11258315E+00 0.12500000E+03</pdfrwt>
<pdfrwt beam="2">  1       21 0.82122074E-03 0.12500000E+03</pdfrwt>
<totfact> 0.31526836E+06</totfact>
</mgrwt>
</event>
<event>
 3    1  0.1628330E-001  0.1250000E+03  0.7546771E-02  0.1235069E+00
         21   -1    0    0  502  501  0.00000000000E+00  0.00000000000E+00  0.94091259768E+03  0.94091259768E+03  0.00000000000E+00 0. -1.
         21   -1    0    0  501  502 -0.00000000000E+00 -0.00000000000E+00 -0.41515545754E+01  0.41515545754E+01  0.00000000000E+00 0. -1.
         25    1    1    2    0    0  0.00000000000E+00  0.00000000000E+00  0.93676104311E+03  0.94506415226E+03  0.12500000000E+03 0.  0.
<mgrwt>
<rscale>  0 0.12500000E+03</rscale>
<asrwt>0</asrwt>
<pdfrwt beam="1">  1       21 0.14475561E+00 0.12500000E+03</pdfrwt>
<pdfrwt beam="2">  1       21 0.63870145E-03 0.12500000E+03</pdfrwt>
<totfact> 0.25044053E+06</totfact>
</mgrwt>
</event>
<event>
 3    1  0.1628330E-001  0.1250000E+03  0.7546771E-02  0.1235069E+00
         21   -1    0    0  502  501  0.00000000000E+00  0.00000000000E+00  0.24310901306E+03  0.24310901306E+03  0.00000000000E+00 0. -1.
         21   -1    0    0  501  502 -0.00000000000E+00 -0.00000000000E+00 -0.16067894608E+02  0.16067894608E+02  0.00000000000E+00 0. -1.
         25    1    1    2    0    0  0.00000000000E+00  0.00000000000E+00  0.22704111845E+03  0.25917690767E+03  0.12500000000E+03 0.  0.
<mgrwt>
<rscale>  0 0.12500000E+03</rscale>
<asrwt>0</asrwt>
<pdfrwt beam="1">  1       21 0.37401384E-01 0.12500000E+03</pdfrwt>
<pdfrwt beam="2">  1       21 0.24719840E-02 0.12500000E+03</pdfrwt>
<totfact> 0.59024796E+06</totfact>
</mgrwt>
</event>
<event>
 3    1  0.1628330E-001  0.1250000E+03  0.7546771E-02  0.1235069E+00
         21   -1    0    0  502  501  0.00000000000E+00  0.00000000000E+00  0.16824724257E+03  0.16824724257E+03  0.00000000000E+00 0.  1.
         21   -1    0    0  501  502 -0.00000000000E+00 -0.00000000000E+00 -0.23217319585E+02  0.23217319585E+02  0.00000000000E+00 0.  1.
         25    1    1    2    0    0  0.00000000000E+00  0.00000000000E+00  0.14502992298E+03  0.19146456215E+03  0.12500000000E+03 0.  0.
<mgrwt>
<rscale>  0 0.12500000E+03</rscale>
<asrwt>0</asrwt>
<pdfrwt beam="1">  1       21 0.25884190E-01 0.12500000E+03</pdfrwt>
<pdfrwt beam="2">  1       21 0.35718954E-02 0.12500000E+03</pdfrwt>
<totfact> 0.65860061E+06</totfact>
</mgrwt>
</event>
<event>
 3    1  0.1628330E-001  0.1250000E+03  0.7546771E-02  0.1235069E+00
         21   -1    0    0  502  501  0.00000000000E+00  0.00000000000E+00  0.95278446281E+02  0.95278446281E+02  0.00000000000E+00 0.  1.
         21   -1    0    0  501  502 -0.00000000000E+00 -0.00000000000E+00 -0.40998254615E+02  0.40998254615E+02  0.00000000000E+00 0.  1.
         25    1    1    2    0    0  0.00000000000E+00  0.00000000000E+00  0.54280191666E+02  0.13627670090E+03  0.12500000000E+03 0.  0.
<mgrwt>
<rscale>  0 0.12500000E+03</rscale>
<asrwt>0</asrwt>
<pdfrwt beam="1">  1       21 0.14658222E-01 0.12500000E+03</pdfrwt>
<pdfrwt beam="2">  1       21 0.63074238E-02 0.12500000E+03</pdfrwt>
<totfact> 0.72527867E+06</totfact>
</mgrwt>
</event>
<event>
 3    1  0.1628330E-001  0.1250000E+03  0.7546771E-02  0.1235069E+00
         21   -1    0    0  502  501  0.00000000000E+00  0.00000000000E+00  0.87593308363E+02  0.87593308363E+02  0.00000000000E+00 0.  1.
         21   -1    0    0  501  502 -0.00000000000E+00 -0.00000000000E+00 -0.44595301548E+02  0.44595301548E+02  0.00000000000E+00 0.  1.
         25    1    1    2    0    0  0.00000000000E+00  0.00000000000E+00  0.42998006815E+02  0.13218860991E+03  0.12500000000E+03 0.  0.
<mgrwt>
<rscale>  0 0.12500000E+03</rscale>
<asrwt>0</asrwt>
<pdfrwt beam="1">  1       21 0.13475894E-01 0.12500000E+03</pdfrwt>
<pdfrwt beam="2">  1       21 0.68608157E-02 0.12500000E+03</pdfrwt>
<totfact> 0.73070941E+06</totfact>
</mgrwt>
</event>
<event>
 3    1  0.1628330E-001  0.1250000E+03  0.7546771E-02  0.1235069E+00
         21   -1    0    0  502  501  0.00000000000E+00  0.00000000000E+00  0.29014685473E+02  0.29014685473E+02  0.00000000000E+00 0.  1.
         21   -1    0    0  501  502 -0.00000000000E+00 -0.00000000000E+00 -0.13463009977E+03  0.13463009977E+03  0.00000000000E+00 0.  1.
         25    1    1    2    0    0  0.00000000000E+00  0.00000000000E+00 -0.10561541430E+03  0.16364478524E+03  0.12500000000E+03 0.  0.
<mgrwt>
<rscale>  0 0.12500000E+03</rscale>
<asrwt>0</asrwt>
<pdfrwt beam="1">  1       21 0.44637977E-02 0.12500000E+03</pdfrwt>
<pdfrwt beam="2">  1       21 0.20712323E-01 0.12500000E+03</pdfrwt>
<totfact> 0.69076862E+06</totfact>
</mgrwt>
</event>
<event>
 3    1  0.1628330E-001  0.1250000E+03  0.7546771E-02  0.1235069E+00
         21   -1    0    0  502  501  0.00000000000E+00  0.00000000000E+00  0.81882076722E+02  0.81882076722E+02  0.00000000000E+00 0.  1.
         21   -1    0    0  501  502 -0.00000000000E+00 -0.00000000000E+00 -0.47705800297E+02  0.47705800297E+02  0.00000000000E+00 0.  1.
         25    1    1    2    0    0  0.00000000000E+00  0.00000000000E+00  0.34176276425E+02  0.12958787702E+03  0.12500000000E+03 0.  0.
<mgrwt>
<rscale>  0 0.12500000E+03</rscale>
<asrwt>0</asrwt>
<pdfrwt beam="1">  1       21 0.12597243E-01 0.12500000E+03</pdfrwt>
<pdfrwt beam="2">  1       21 0.73393539E-02 0.12500000E+03</pdfrwt>
<totfact> 0.73420047E+06</totfact>
</mgrwt>
</event>
<event>
 3    1  0.1628330E-001  0.1250000E+03  0.7546771E-02  0.1235069E+00
         21   -1    0    0  502  501  0.00000000000E+00  0.00000000000E+00  0.25652331739E+02  0.25652331739E+02  0.00000000000E+00 0. -1.
         21   -1    0    0  501  502 -0.00000000000E+00 -0.00000000000E+00 -0.15227660549E+03  0.15227660549E+03  0.00000000000E+00 0. -1.
         25    1    1    2    0    0  0.00000000000E+00  0.00000000000E+00 -0.12662427375E+03  0.17792893722E+03  0.12500000000E+03 0.  0.
<mgrwt>
<rscale>  0 0.12500000E+03</rscale>
<asrwt>0</asrwt>
<pdfrwt beam="1">  1       21 0.39465126E-02 0.12500000E+03</pdfrwt>
<pdfrwt beam="2">  1       21 0.23427170E-01 0.12500000E+03</pdfrwt>
<totfact> 0.67389920E+06</totfact>
</mgrwt>
</event>
<event>
 3    1  0.1628330E-001  0.1250000E+03  0.7546771E-02  0.1235069E+00
         21   -1    0    0  502  501  0.00000000000E+00  0.00000000000E+00  0.20217150072E+02  0.20217150072E+02  0.00000000000E+00 0. -1.
         21   -1    0    0  501  502 -0.00000000000E+00 -0.00000000000E+00 -0.19321467101E+03  0.19321467101E+03  0.00000000000E+00 0. -1.
         25    1    1    2    0    0  0.00000000000E+00  0.00000000000E+00 -0.17299752094E+03  0.21343182109E+03  0.12500000000E+03 0.  0.
<mgrwt>
<rscale>  0 0.12500000E+03</rscale>
<asrwt>0</asrwt>
<pdfrwt beam="1">  1       21 0.31103307E-02 0.12500000E+03</pdfrwt>
<pdfrwt beam="2">  1       21 0.29725335E-01 0.12500000E+03</pdfrwt>
<totfact> 0.63500267E+06</totfact>
</mgrwt>
</event>
<event>
 3    1  0.1628330E-001  0.1250000E+03  0.7546771E-02  0.1235069E+00
         21   -1    0    0  502  501  0.00000000000E+00  0.00000000000E+00  0.27297887557E+02  0.27297887557E+02  0.00000000000E+00 0. -1.
         21   -1    0    0  501  502 -0.00000000000E+00 -0.00000000000E+00 -0.14309715328E+03  0.14309715328E+03  0.00000000000E+00 0. -1.
         25    1    1    2    0    0  0.00000000000E+00  0.00000000000E+00 -0.11579926572E+03  0.17039504084E+03  0.12500000000E+03 0.  0.
<mgrwt>
<rscale>  0 0.12500000E+03</rscale>
<asrwt>0</asrwt>
<pdfrwt beam="1">  1       21 0.41996750E-02 0.12500000E+03</pdfrwt>
<pdfrwt beam="2">  1       21 0.22014947E-01 0.12500000E+03</pdfrwt>
<totfact> 0.68270836E+06</totfact>
</mgrwt>
</event>
<event>
 3    1  0.1628330E-001  0.1250000E+03  0.7546771E-02  0.1235069E+00
         21   -1    0    0  502  501  0.00000000000E+00  0.00000000000E+00  0.94723966822E+01  0.94723966822E+01  0.00000000000E+00 0.  1.
         21   -1    0    0  501  502 -0.00000000000E+00 -0.00000000000E+00 -0.41238243404E+03  0.41238243404E+03  0.00000000000E+00 0.  1.
         25    1    1    2    0    0  0.00000000000E+00  0.00000000000E+00 -0.40291003736E+03  0.42185483072E+03  0.12500000000E+03 0.  0.
<mgrwt>
<rscale>  0 0.12500000E+03</rscale>
<asrwt>0</asrwt>
<pdfrwt beam="1">  1       21 0.14572919E-02 0.12500000E+03</pdfrwt>
<pdfrwt beam="2">  1       21 0.63443445E-01 0.12500000E+03</pdfrwt>
<totfact> 0.46624743E+06</totfact>
</mgrwt>
</event>
<event>
 3    1  0.1628330E-001  0.1250000E+03  0.7546771E-02  0.1235069E+00
         21   -1    0    0  502  501  0.00000000000E+00  0.00000000000E+00  0.13051821831E+04  0.13051821831E+04  0.00000000000E+00 0.  1.
         21   -1    0    0  501  502 -0.00000000000E+00 -0.00000000000E+00 -0.29928772019E+01  0.29928772019E+01  0.00000000000E+00 0.  1.
         25    1    1    2    0    0  0.00000000000E+00  0.00000000000E+00  0.13021893059E+04  0.13081750603E+04  0.12500000000E+03 0.  0.
<mgrwt>
<rscale>  0 0.12500000E+03</rscale>
<asrwt>0</asrwt>
<pdfrwt beam="1">  1       21 0.20079680E+00 0.12500000E+03</pdfrwt>
<pdfrwt beam="2">  1       21 0.46044369E-03 0.12500000E+03</pdfrwt>
<totfact> 0.17106240E+06</totfact>
</mgrwt>
</event>
<event>
 3    1  0.1628330E-001  0.1250000E+03  0.7546771E-02  0.1235069E+00
         21   -1    0    0  502  501  0.00000000000E+00  0.00000000000E+00  0.31950150834E+02  0.31950150834E+02  0.00000000000E+00 0. -1.
         21   -1    0    0  501  502 -0.00000000000E+00 -0.00000000000E+00 -0.12226076867E+03  0.12226076867E+03  0.00000000000E+00 0. -1.
         25    1    1    2    0    0  0.00000000000E+00  0.00000000000E+00 -0.90310617832E+02  0.15421091950E+03  0.12500000000E+03 0.  0.
<mgrwt>
<rscale>  0 0.12500000E+03</rscale>
<asrwt>0</asrwt>
<pdfrwt beam="1">  1       21 0.49154079E-02 0.12500000E+03</pdfrwt>
<pdfrwt beam="2">  1       21 0.18809349E-01 0.12500000E+03</pdfrwt>
<totfact> 0.70233864E+06</totfact>
</mgrwt>
</event>
<event>
 3    1  0.1628330E-001  0.1250000E+03  0.7546771E-02  0.1235069E+00
         21   -1    0    0  502  501  0.00000000000E+00  0.00000000000E+00  0.12307905916E+03  0.12307905916E+03  0.00000000000E+00 0. -1.
         21   -1    0    0  501  502 -0.00000000000E+00 -0.00000000000E+00 -0.31737730421E+02  0.31737730421E+02  0.00000000000E+00 0. -1.
         25    1    1    2    0    0  0.00000000000E+00  0.00000000000E+00  0.91341328736E+02  0.15481678958E+03  0.12500000000E+03 0.  0.
<mgrwt>
<rscale>  0 0.12500000E+03</rscale>
<asrwt>0</asrwt>
<pdfrwt beam="1">  1       21 0.18935240E-01 0.12500000E+03</pdfrwt>
<pdfrwt beam="2">  1       21 0.48827278E-02 0.12500000E+03</pdfrwt>
<totfact> 0.70158437E+06</totfact>
</mgrwt>
</event>
<event>
 3    1  0.1628330E-001  0.1250000E+03  0.7546771E-02  0.1235069E+00
         21   -1    0    0  502  501  0.00000000000E+00  0.00000000000E+00  0.23124283623E+02  0.23124283623E+02  0.00000000000E+00 0.  1.
         21   -1    0    0  501  502 -0.00000000000E+00 -0.00000000000E+00 -0.16892415193E+03  0.16892415193E+03  0.00000000000E+00 0.  1.
         25    1    1    2    0    0  0.00000000000E+00  0.00000000000E+00 -0.14579986831E+03  0.19204843555E+03  0.12500000000E+03 0.  0.
<mgrwt>
<rscale>  0 0.12500000E+03</rscale>
<asrwt>0</asrwt>
<pdfrwt beam="1">  1       21 0.35575819E-02 0.12500000E+03</pdfrwt>
<pdfrwt beam="2">  1       21 0.25988332E-01 0.12500000E+03</pdfrwt>
<totfact> 0.65795519E+06</totfact>
</mgrwt>
</event>
<event>
 3    1  0.1628330E-001  0.1250000E+03  0.7546771E-02  0.1235069E+00
         21   -1    0    0  502  501  0.00000000000E+00  0.00000000000E+00  0.53072314361E+01  0.53072314361E+01  0.00000000000E+00 0.  1.
         21   -1    0    0  501  502 -0.00000000000E+00 -0.00000000000E+00 -0.73602405455E+03  0.73602405455E+03  0.00000000000E+00 0.  1.
         25    1    1    2    0    0  0.00000000000E+00  0.00000000000E+00 -0.73071682311E+03  0.74133128598E+03  0.12500000000E+03 0.  0.
<mgrwt>
<rscale>  0 0.12500000E+03</rscale>
<asrwt>0</asrwt>
<pdfrwt beam="1">  1       21 0.81649712E-03 0.12500000E+03</pdfrwt>
<pdfrwt beam="2">  1       21 0.11323447E+00 0.12500000E+03</pdfrwt>
<totfact> 0.31376124E+06</totfact>
</mgrwt>
</event>
<event>
 3    1  0.1628330E-001  0.1250000E+03  0.7546771E-02  0.1235069E+00
         21   -1    0    0  502  501  0.00000000000E+00  0.00000000000E+00  0.59443638572E+02  0.59443638572E+02  0.00000000000E+00 0. -1.
         21   -1    0    0  501  502 -0.00000000000E+00 -0.00000000000E+00 -0.65713507683E+02  0.65713507683E+02  0.00000000000E+00 0. -1.
         25    1    1    2    0    0  0.00000000000E+00  0.00000000000E+00 -0.62698691113E+01  0.12515714625E+03  0.12500000000E+03 0.  0.
<mgrwt>
<rscale>  0 0.12500000E+03</rscale>
<asrwt>0</asrwt>
<pdfrwt beam="1">  1       21 0.91451752E-02 0.12500000E+03</pdfrwt>
<pdfrwt beam="2">  1       21 0.10109770E-01 0.12500000E+03</pdfrwt>
<totfact> 0.74022358E+06</totfact>
</mgrwt>
</event>
<event>
 3    1  0.1628330E-001  0.1250000E+03  0.7546771E-02  0.1235069E+00
         21   -1    0    0  502  501  0.00000000000E+00  0.00000000000E+00  0.17212593823E+03  0.17212593823E+03  0.00000000000E+00 0. -1.
         21   -1    0    0  501  502 -0.00000000000E+00 -0.00000000000E+00 -0.22694139187E+02  0.22694139187E+02  0.00000000000E+00 0. -1.
         25    1    1    2    0    0  0.00000000000E+00  0.00000000000E+00  0.14943179905E+03  0.19482007742E+03  0.12500000000E+03 0.  0.
<mgrwt>
<rscale>  0 0.12500000E+03</rscale>
<asrwt>0</asrwt>
<pdfrwt beam="1">  1       21 0.26480913E-01 0.12500000E+03</pdfrwt>
<pdfrwt beam="2">  1       21 0.34914061E-02 0.12500000E+03</pdfrwt>
<totfact> 0.65490720E+06</totfact>
</mgrwt>
</event>
<event>
 3    1  0.1628330E-001  0.1250000E+03  0.7546771E-02  0.1235069E+00
         21   -1    0    0  502  501  0.00000000000E+00  0.00000000000E+00  0.28757876693E+02  0.28757876693E+02  0.00000000000E+00 0.  1.
         21   -1    0    0  501  502 -0.00000000000E+00 -0.00000000000E+00 -0.13583235097E+03  0.13583235097E+03  0.00000000000E+00 0.  1.
         25    1    1    2    0    0  0.00000000000E+00  0.00000000000E+00 -0.10707447427E+03  0.16459022766E+03  0.12500000000E+03 0.  0.
<mgrwt>
<rscale>  0 0.12500000E+03</rscale>
<asrwt>0</asrwt>
<pdfrwt beam="1">  1       21 0.44242887E-02 0.12500000E+03</pdfrwt>
<pdfrwt beam="2">  1       21 0.20897285E-01 0.12500000E+03</pdfrwt>
<totfact> 0.68962924E+06</totfact>
</mgrwt>
</event>
<event>
 3    1  0.1628330E-001  0.1250000E+03  0.7546771E-02  0.1235069E+00
         21   -1    0    0  502  501  0.00000000000E+00  0.00000000000E+00  0.10659398953E+02  0.10659398953E+02  0.00000000000E+00 0.  1.
         21   -1    0    0  501  502 -0.00000000000E+00 -0.00000000000E+00 -0.36646062476E+03  0.36646062476E+03  0.00000000000E+00 0.  1.
         25    1    1    2    0    0  0.00000000000E+00  0.00000000000E+00 -0.35580122581E+03  0.37712002372E+03  0.12500000000E+03 0.  0.
<mgrwt>
<rscale>  0 0.12500000E+03</rscale>
<asrwt>0</asrwt>
<pdfrwt beam="1">  1       21 0.16399075E-02 0.12500000E+03</pdfrwt>
<pdfrwt beam="2">  1       21 0.56378558E-01 0.12500000E+03</pdfrwt>
<totfact> 0.49595815E+06</totfact>
</mgrwt>
</event>
<event>
 3    1  0.1628330E-001  0.1250000E+03  0.7546771E-02  0.1235069E+00
         21   -1    0    0  502  501  0.00000000000E+00  0.00000000000E+00  0.26713801026E+03  0.26713801026E+03  0.00000000000E+00 0.  1.
         21   -1    0    0  501  502 -0.00000000000E+00 -0.00000000000E+00 -0.14622591507E+02  0.14622591507E+02  0.00000000000E+00 0.  1.
         25    1    1    2    0    0  0.00000000000E+00  0.00000000000E+00  0.25251541876E+03  0.28176060177E+03  0.12500000000E+03 0.  0.
<mgrwt>
<rscale>  0 0.12500000E+03</rscale>
<asrwt>0</asrwt>
<pdfrwt beam="1">  1       21 0.41098152E-01 0.12500000E+03</pdfrwt>
<pdfrwt beam="2">  1       21 0.22496297E-02 0.12500000E+03</pdfrwt>
<totfact> 0.57006842E+06</totfact>
</mgrwt>
</event>
<event>
 3    1  0.1628330E-001  0.1250000E+03  0.7546771E-02  0.1235069E+00
         21   -1    0    0  502  501  0.00000000000E+00  0.00000000000E+00  0.14580843854E+03  0.14580843854E+03  0.00000000000E+00 0. -1.
         21   -1    0    0  501  502 -0.00000000000E+00 -0.00000000000E+00 -0.26790287580E+02  0.26790287580E+02  0.00000000000E+00 0. -1.
         25    1    1    2    0    0  0.00000000000E+00  0.00000000000E+00  0.11901815096E+03  0.17259872612E+03  0.12500000000E+03 0.  0.
<mgrwt>
<rscale>  0 0.12500000E+03</rscale>
<asrwt>0</asrwt>
<pdfrwt beam="1">  1       21 0.22432067E-01 0.12500000E+03</pdfrwt>
<pdfrwt beam="2">  1       21 0.41215828E-02 0.12500000E+03</pdfrwt>
<totfact> 0.68010899E+06</totfact>
</mgrwt>
</event>
<event>
 3    1  0.1628330E-001  0.1250000E+03  0.7546771E-02  0.1235069E+00
         21   -1    0    0  502  501  0.00000000000E+00  0.00000000000E+00  0.92815935223E+01  0.92815935223E+01  0.00000000000E+00 0.  1.
         21   -1    0    0  501  502 -0.00000000000E+00 -0.00000000000E+00 -0.42085984380E+03  0.42085984380E+03  0.00000000000E+00 0.  1.
         25    1    1    2    0    0  0.00000000000E+00  0.00000000000E+00 -0.41157825028E+03  0.43014143732E+03  0.12500000000E+03 0.  0.
<mgrwt>
<rscale>  0 0.12500000E+03</rscale>
<asrwt>0</asrwt>
<pdfrwt beam="1">  1       21 0.14279375E-02 0.12500000E+03</pdfrwt>
<pdfrwt beam="2">  1       21 0.64747666E-01 0.12500000E+03</pdfrwt>
<totfact> 0.46104316E+06</totfact>
</mgrwt>
</event>
<event>
 3    1  0.1628330E-001  0.1250000E+03  0.7546771E-02  0.1235069E+00
         21   -1    0    0  502  501  0.00000000000E+00  0.00000000000E+00  0.61580523786E+02  0.61580523786E+02  0.00000000000E+00 0.  1.
         21   -1    0    0  501  502 -0.00000000000E+00 -0.00000000000E+00 -0.63433205173E+02  0.63433205173E+02  0.00000000000E+00 0.  1.
         25    1    1    2    0    0  0.00000000000E+00  0.00000000000E+00 -0.18526813870E+01  0.12501372896E+03  0.12500000000E+03 0.  0.
<mgrwt>
<rscale>  0 0.12500000E+03</rscale>
<asrwt>0</asrwt>
<pdfrwt beam="1">  1       21 0.94739267E-02 0.12500000E+03</pdfrwt>
<pdfrwt beam="2">  1       21 0.97589547E-02 0.12500000E+03</pdfrwt>
<totfact> 0.74041727E+06</totfact>
</mgrwt>
</event>
<event>
 3    1  0.1628330E-001  0.1250000E+03  0.7546771E-02  0.1235069E+00
         21   -1    0    0  502  501  0.00000000000E+00  0.00000000000E+00  0.98449073376E+02  0.98449073376E+02  0.00000000000E+00 0.  1.
         21   -1    0    0  501  502 -0.00000000000E+00 -0.00000000000E+00 -0.39677874723E+02  0.39677874723E+02  0.00000000000E+00 0.  1.
         25    1    1    2    0    0  0.00000000000E+00  0.00000000000E+00  0.58771198653E+02  0.13812694810E+03  0.12500000000E+03 0.  0.
<mgrwt>
<rscale>  0 0.12500000E+03</rscale>
<asrwt>0</asrwt>
<pdfrwt beam="1">  1       21 0.15146011E-01 0.12500000E+03</pdfrwt>
<pdfrwt beam="2">  1       21 0.61042884E-02 0.12500000E+03</pdfrwt>
<totfact> 0.72284784E+06</totfact>
</mgrwt>
</event>
<event>
 3    1  0.1628330E-001  0.1250000E+03  0.7546771E-02  0.1235069E+00
         21   -1    0    0  502  501  0.00000000000E+00  0.00000000000E+00  0.13738185917E+02  0.13738185917E+02  0.00000000000E+00 0.  1.
         21   -1    0    0  501  502 -0.00000000000E+00 -0.00000000000E+00 -0.28433521163E+03  0.28433521163E+03  0.00000000000E+00 0.  1.
         25    1    1    2    0    0  0.00000000000E+00  0.00000000000E+00 -0.27059702571E+03  0.29807339754E+03  0.12500000000E+03 0.  0.
<mgrwt>
<rscale>  0 0.12500000E+03</rscale>
<asrwt>0</asrwt>
<pdfrwt beam="1">  1       21 0.21135671E-02 0.12500000E+03</pdfrwt>
<pdfrwt beam="2">  1       21 0.43743879E-01 0.12500000E+03</pdfrwt>
<totfact> 0.55616662E+06</totfact>
</mgrwt>
</event>
<event>
 3    1  0.1628330E-001  0.1250000E+03  0.7546771E-02  0.1235069E+00
         21   -1    0    0  502  501  0.00000000000E+00  0.00000000000E+00  0.15677236584E+02  0.15677236584E+02  0.00000000000E+00 0.  1.
         21   -1    0    0  501  502 -0.00000000000E+00 -0.00000000000E+00 -0.24916699949E+03  0.24916699949E+03  0.00000000000E+00 0.  1.
         25    1    1    2    0    0  0.00000000000E+00  0.00000000000E+00 -0.23348976291E+03  0.26484423608E+03  0.12500000000E+03 0.  0.
<mgrwt>
<rscale>  0 0.12500000E+03</rscale>
<asrwt>0</asrwt>
<pdfrwt beam="1">  1       21 0.24118829E-02 0.12500000E+03</pdfrwt>
<pdfrwt beam="2">  1       21 0.38333379E-01 0.12500000E+03</pdfrwt>
<totfact> 0.58508100E+06</totfact>
</mgrwt>
</event>
<event>
 3    1  0.1628330E-001  0.1250000E+03  0.7546771E-02  0.1235069E+00
         21   -1    0    0  502  501  0.00000000000E+00  0.00000000000E+00  0.87799072358E+03  0.87799072358E+03  0.00000000000E+00 0.  1.
         21   -1    0    0  501  502 -0.00000000000E+00 -0.00000000000E+00 -0.44490788969E+01  0.44490788969E+01  0.00000000000E+00 0.  1.
         25    1    1    2    0    0  0.00000000000E+00  0.00000000000E+00  0.87354164469E+03  0.88243980248E+03  0.12500000000E+03 0.  0.
<mgrwt>
<rscale>  0 0.12500000E+03</rscale>
<asrwt>0</asrwt>
<pdfrwt beam="1">  1       21 0.13507536E+00 0.12500000E+03</pdfrwt>
<pdfrwt beam="2">  1       21 0.68447437E-03 0.12500000E+03</pdfrwt>
<totfact> 0.26805632E+06</totfact>
</mgrwt>
</event>
<event>
 3    1  0.1628330E-001  0.1250000E+03  0.7546771E-02  0.1235069E+00
         21   -1    0    0  502  501  0.00000000000E+00  0.00000000000E+00  0.13454995362E+03  0.13454995362E+03  0.00000000000E+00 0.  1.
         21   -1    0    0  501  502 -0.00000000000E+00 -0.00000000000E+00 -0.29031968388E+02  0.29031968388E+02  0.00000000000E+00 0.  1.
         25    1    1    2    0    0  0.00000000000E+00  0.00000000000E+00  0.10551798523E+03  0.16358192201E+03  0.12500000000E+03 0.  0.
<mgrwt>
<rscale>  0 0.12500000E+03</rscale>
<asrwt>0</asrwt>
<pdfrwt beam="1">  1       21 0.20699993E-01 0.12500000E+03</pdfrwt>
<pdfrwt beam="2">  1       21 0.44664567E-02 0.12500000E+03</pdfrwt>
<totfact> 0.69084451E+06</totfact>
</mgrwt>
</event>
<event>
 3    1  0.1628330E-001  0.1250000E+03  0.7546771E-02  0.1235069E+00
         21   -1    0    0  502  501  0.00000000000E+00  0.00000000000E+00  0.38966998873E+02  0.38966998873E+02  0.00000000000E+00 0. -1.
         21   -1    0    0  501  502 -0.00000000000E+00 -0.00000000000E+00 -0.10024508207E+03  0.10024508207E+03  0.00000000000E+00 0. -1.
         25    1    1    2    0    0  0.00000000000E+00  0.00000000000E+00 -0.61278083195E+02  0.13921208094E+03  0.12500000000E+03 0.  0.
<mgrwt>
<rscale>  0 0.12500000E+03</rscale>
<asrwt>0</asrwt>
<pdfrwt beam="1">  1       21 0.59949230E-02 0.12500000E+03</pdfrwt>
<pdfrwt beam="2">  1       21 0.15422320E-01 0.12500000E+03</pdfrwt>
<totfact> 0.72142337E+06</totfact>
</mgrwt>
</event>
<event>
 3    1  0.1628330E-001  0.1250000E+03  0.7546771E-02  0.1235069E+00
         21   -1    0    0  502  501  0.00000000000E+00  0.00000000000E+00  0.35877696979E+02  0.35877696979E+02  0.00000000000E+00 0. -1.
         21   -1    0    0  501  502 -0.00000000000E+00 -0.00000000000E+00 -0.10887683237E+03  0.10887683237E+03  0.00000000000E+00 0. -1.
         25    1    1    2    0    0  0.00000000000E+00  0.00000000000E+00 -0.72999135395E+02  0.14475452935E+03  0.12500000000E+03 0.  0.
<mgrwt>
<rscale>  0 0.12500000E+03</rscale>
<asrwt>0</asrwt>
<pdfrwt beam="1">  1       21 0.55196458E-02 0.12500000E+03</pdfrwt>
<pdfrwt beam="2">  1       21 0.16750282E-01 0.12500000E+03</pdfrwt>
<totfact> 0.71424528E+06</totfact>
</mgrwt>
</event>
<event>
 3    1  0.1628330E-001  0.1250000E+03  0.7546771E-02  0.1235069E+00
         21   -1    0    0  502  501  0.00000000000E+00  0.00000000000E+00  0.95269086782E+02  0.95269086782E+02  0.00000000000E+00 0. -1.
         21   -1    0    0  501  502 -0.00000000000E+00 -0.00000000000E+00 -0.41002282398E+02  0.41002282398E+02  0.00000000000E+00 0. -1.
         25    1    1    2    0    0  0.00000000000E+00  0.00000000000E+00  0.54266804384E+02  0.13627136918E+03  0.12500000000E+03 0.  0.
<mgrwt>
<rscale>  0 0.12500000E+03</rscale>
<asrwt>0</asrwt>
<pdfrwt beam="1">  1       21 0.14656783E-01 0.12500000E+03</pdfrwt>
<pdfrwt beam="2">  1       21 0.63080435E-02 0.12500000E+03</pdfrwt>
<totfact> 0.72528569E+06</totfact>
</mgrwt>
</event>
<event>
 3    1  0.1628330E-001  0.1250000E+03  0.7546771E-02  0.1235069E+00
         21   -1    0    0  502  501  0.00000000000E+00  0.00000000000E+00  0.21832198778E+02  0.21832198778E+02  0.00000000000E+00 0.  1.
         21   -1    0    0  501  502 -0.00000000000E+00 -0.00000000000E+00 -0.17892151129E+03  0.17892151129E+03  0.00000000000E+00 0.  1.
         25    1    1    2    0    0  0.00000000000E+00  0.00000000000E+00 -0.15708931251E+03  0.20075371006E+03  0.12500000000E+03 0.  0.
<mgrwt>
<rscale>  0 0.12500000E+03</rscale>
<asrwt>0</asrwt>
<pdfrwt beam="1">  1       21 0.33587999E-02 0.12500000E+03</pdfrwt>
<pdfrwt beam="2">  1       21 0.27526385E-01 0.12500000E+03</pdfrwt>
<totfact> 0.64845675E+06</totfact>
</mgrwt>
</event>
<event>
 3    1  0.1628330E-001  0.1250000E+03  0.7546771E-02  0.1235069E+00
         21   -1    0    0  502  501  0.00000000000E+00  0.00000000000E+00  0.20820348892E+02  0.20820348892E+02  0.00000000000E+00 0. -1.
         21   -1    0    0  501  502 -0.00000000000E+00 -0.00000000000E+00 -0.18761693285E+03  0.18761693285E+03  0.00000000000E+00 0. -1.
         25    1    1    2    0    0  0.00000000000E+00  0.00000000000E+00 -0.16679658396E+03  0.20843728174E+03  0.12500000000E+03 0.  0.
<mgrwt>
<rscale>  0 0.12500000E+03</rscale>
<asrwt>0</asrwt>
<pdfrwt beam="1">  1       21 0.32031305E-02 0.12500000E+03</pdfrwt>
<pdfrwt beam="2">  1       21 0.28864144E-01 0.12500000E+03</pdfrwt>
<totfact> 0.64024327E+06</totfact>
</mgrwt>
</event>
<event>
 3    1  0.1628330E-001  0.1250000E+03  0.7546771E-02  0.1235069E+00
         21   -1    0    0  502  501  0.00000000000E+00  0.00000000000E+00  0.74888735117E+01  0.74888735117E+01  0.00000000000E+00 0. -1.
         21   -1    0    0  501  502 -0.00000000000E+00 -0.00000000000E+00 -0.52160715412E+03  0.52160715412E+03  0.00000000000E+00 0. -1.
         25    1    1    2    0    0  0.00000000000E+00  0.00000000000E+00 -0.51411828061E+03  0.52909602763E+03  0.12500000000E+03 0.  0.
<mgrwt>
<rscale>  0 0.12500000E+03</rscale>
<asrwt>0</asrwt>
<pdfrwt beam="1">  1       21 0.11521344E-02 0.12500000E+03</pdfrwt>
<pdfrwt beam="2">  1       21 0.80247251E-01 0.12500000E+03</pdfrwt>
<totfact> 0.40508847E+06</totfact>
</mgrwt>
</event>
<event>
 3    1  0.1628330E-001  0.1250000E+03  0.7546771E-02  0.1235069E+00
         21   -1    0    0  502  501  0.00000000000E+00  0.00000000000E+00  0.17673845890E+02  0.17673845890E+02  0.00000000000E+00 0.  1.
         21   -1    0    0  501  502 -0.00000000000E+00 -0.00000000000E+00 -0.22101867496E+03  0.22101867496E+03  0.00000000000E+00 0.  1.
         25    1    1    2    0    0  0.00000000000E+00  0.00000000000E+00 -0.20334482907E+03  0.23869252085E+03  0.12500000000E+03 0.  0.
<mgrwt>
<rscale>  0 0.12500000E+03</rscale>
<asrwt>0</asrwt>
<pdfrwt beam="1">  1       21 0.27190532E-02 0.12500000E+03</pdfrwt>
<pdfrwt beam="2">  1       21 0.34002874E-01 0.12500000E+03</pdfrwt>
<totfact> 0.60959414E+06</totfact>
</mgrwt>
</event>
<event>
 3    1  0.1628330E-001  0.1250000E+03  0.7546771E-02  0.1235069E+00
         21   -1    0    0  502  501  0.00000000000E+00  0.00000000000E+00  0.80115592318E+02  0.80115592318E+02  0.00000000000E+00 0.  1.
         21   -1    0    0  501  502 -0.00000000000E+00 -0.00000000000E+00 -0.48757674842E+02  0.48757674842E+02  0.00000000000E+00 0.  1.
         25    1    1    2    0    0  0.00000000000E+00  0.00000000000E+00  0.31357917476E+02  0.12887326716E+03  0.12500000000E+03 0.  0.
<mgrwt>
<rscale>  0 0.12500000E+03</rscale>
<asrwt>0</asrwt>
<pdfrwt beam="1">  1       21 0.12325476E-01 0.12500000E+03</pdfrwt>
<pdfrwt beam="2">  1       21 0.75011807E-02 0.12500000E+03</pdfrwt>
<totfact> 0.73515907E+06</totfact>
</mgrwt>
</event>
<event>
 3    1  0.1628330E-001  0.1250000E+03  0.7546771E-02  0.1235069E+00
         21   -1    0    0  502  501  0.00000000000E+00  0.00000000000E+00  0.26981786871E+03  0.26981786871E+03  0.00000000000E+00 0.  1.
         21   -1    0    0  501  502 -0.00000000000E+00 -0.00000000000E+00 -0.14477358444E+02  0.14477358444E+02  0.00000000000E+00 0.  1.
         25    1    1    2    0    0  0.00000000000E+00  0.00000000000E+00  0.25534051027E+03  0.28429522716E+03  0.12500000000E+03 0.  0.
<mgrwt>
<rscale>  0 0.12500000E+03</rscale>
<asrwt>0</asrwt>
<pdfrwt beam="1">  1       21 0.41510438E-01 0.12500000E+03</pdfrwt>
<pdfrwt beam="2">  1       21 0.22272861E-02 0.12500000E+03</pdfrwt>
<totfact> 0.56787090E+06</totfact>
</mgrwt>
</event>
<event>
 3    1  0.1628330E-001  0.1250000E+03  0.7546771E-02  0.1235069E+00
         21   -1    0    0  502  501  0.00000000000E+00  0.00000000000E+00  0.13451758598E+04  0.13451758598E+04  0.00000000000E+00 0.  1.
         21   -1    0    0  501  502 -0.00000000000E+00 -0.00000000000E+00 -0.29038954063E+01  0.29038954063E+01  0.00000000000E+00 0.  1.
         25    1    1    2    0    0  0.00000000000E+00  0.00000000000E+00  0.13422719644E+04  0.13480797552E+04  0.12500000000E+03 0.  0.
<mgrwt>
<rscale>  0 0.12500000E+03</rscale>
<asrwt>0</asrwt>
<pdfrwt beam="1">  1       21 0.20694963E+00 0.12500000E+03</pdfrwt>
<pdfrwt beam="2">  1       21 0.44675421E-03 0.12500000E+03</pdfrwt>
<totfact> 0.16410601E+06</totfact>
</mgrwt>
</event>
<event>
 3    1  0.1628330E-001  0.1250000E+03  0.7546771E-02  0.1235069E+00
         21   -1    0    0  502  501  0.00000000000E+00  0.00000000000E+00  0.31366485915E+03  0.31366485915E+03  0.00000000000E+00 0. -1.
         21   -1    0    0  501  502 -0.00000000000E+00 -0.00000000000E+00 -0.12453578672E+02  0.12453578672E+02  0.00000000000E+00 0. -1.
         25    1    1    2    0    0  0.00000000000E+00  0.00000000000E+00  0.30121128048E+03  0.32611843782E+03  0.12500000000E+03 0.  0.
<mgrwt>
<rscale>  0 0.12500000E+03</rscale>
<asrwt>0</asrwt>
<pdfrwt beam="1">  1       21 0.48256126E-01 0.12500000E+03</pdfrwt>
<pdfrwt beam="2">  1       21 0.19159354E-02 0.12500000E+03</pdfrwt>
<totfact> 0.53352024E+06</totfact>
</mgrwt>
</event>
<event>
 3    1  0.1628330E-001  0.1250000E+03  0.7546771E-02  0.1235069E+00
         21   -1    0    0  502  501  0.00000000000E+00  0.00000000000E+00  0.82159831055E+01  0.82159831055E+01  0.00000000000E+00 0.  1.
         21   -1    0    0  501  502 -0.00000000000E+00 -0.00000000000E+00 -0.47544523277E+03  0.47544523277E+03  0.00000000000E+00 0.  1.
         25    1    1    2    0    0  0.00000000000E+00  0.00000000000E+00 -0.46722924966E+03  0.48366121587E+03  0.12500000000E+03 0.  0.
<mgrwt>
<rscale>  0 0.12500000E+03</rscale>
<asrwt>0</asrwt>
<pdfrwt beam="1">  1       21 0.12639973E-02 0.12500000E+03</pdfrwt>
<pdfrwt beam="2">  1       21 0.73145428E-01 0.12500000E+03</pdfrwt>
<totfact> 0.42944247E+06</totfact>
</mgrwt>
</event>
<event>
 3    1  0.1628330E-001  0.1250000E+03  0.7546771E-02  0.1235069E+00
         21   -1    0    0  502  501  0.00000000000E+00  0.00000000000E+00  0.27320805182E+03  0.27320805182E+03  0.00000000000E+00 0.  1.
         21   -1    0    0  501  502 -0.00000000000E+00 -0.00000000000E+00 -0.14297711850E+02  0.14297711850E+02  0.00000000000E+00 0.  1.
         25    1    1    2    0    0  0.00000000000E+00  0.00000000000E+00  0.25891033997E+03  0.28750576367E+03  0.12500000000E+03 0.  0.
<mgrwt>
<rscale>  0 0.12500000E+03</rscale>
<asrwt>0</asrwt>
<pdfrwt beam="1">  1       21 0.42032004E-01 0.12500000E+03</pdfrwt>
<pdfrwt beam="2">  1       21 0.21996482E-02 0.12500000E+03</pdfrwt>
<totfact> 0.56510746E+06</totfact>
</mgrwt>
</event>
<event>
 3    1  0.1628330E-001  0.1250000E+03  0.7546771E-02  0.1235069E+00
         21   -1    0    0  502  501  0.00000000000E+00  0.00000000000E+00  0.39821660942E+01  0.39821660942E+01  0.00000000000E+00 0. -1.
         21   -1    0    0  501  502 -0.00000000000E+00 -0.00000000000E+00 -0.98093597996E+03  0.98093597996E+03  0.00000000000E+00 0. -1.
         25    1    1    2    0    0  0.00000000000E+00  0.00000000000E+00 -0.97695381387E+03  0.98491814606E+03  0.12500000000E+03 0.  0.
<mgrwt>
<rscale>  0 0.12500000E+03</rscale>
<asrwt>0</asrwt>
<pdfrwt beam="1">  1       21 0.61264176E-03 0.12500000E+03</pdfrwt>
<pdfrwt beam="2">  1       21 0.15091302E+00 0.12500000E+03</pdfrwt>
<totfact> 0.23999266E+06</totfact>
</mgrwt>
</event>
<event>
 3    1  0.1628330E-001  0.1250000E+03  0.7546771E-02  0.1235069E+00
         21   -1    0    0  502  501  0.00000000000E+00  0.00000000000E+00  0.36156875297E+02  0.36156875297E+02  0.00000000000E+00 0. -1.
         21   -1    0    0  501  502 -0.00000000000E+00 -0.00000000000E+00 -0.10803616098E+03  0.10803616098E+03  0.00000000000E+00 0. -1.
         25    1    1    2    0    0  0.00000000000E+00  0.00000000000E+00 -0.71879285678E+02  0.14419303627E+03  0.12500000000E+03 0.  0.
<mgrwt>
<rscale>  0 0.12500000E+03</rscale>
<asrwt>0</asrwt>
<pdfrwt beam="1">  1       21 0.55625963E-02 0.12500000E+03</pdfrwt>
<pdfrwt beam="2">  1       21 0.16620948E-01 0.12500000E+03</pdfrwt>
<totfact> 0.71496531E+06</totfact>
</mgrwt>
</event>
<event>
 3    1  0.1628330E-001  0.1250000E+03  0.7546771E-02  0.1235069E+00
         21   -1    0    0  502  501  0.00000000000E+00  0.00000000000E+00  0.29987688131E+03  0.29987688131E+03  0.00000000000E+00 0.  1.
         21   -1    0    0  501  502 -0.00000000000E+00 -0.00000000000E+00 -0.13026179221E+02  0.13026179221E+02  0.00000000000E+00 0.  1.
         25    1    1    2    0    0  0.00000000000E+00  0.00000000000E+00  0.28685070209E+03  0.31290306053E+03  0.12500000000E+03 0.  0.
<mgrwt>
<rscale>  0 0.12500000E+03</rscale>
<asrwt>0</asrwt>
<pdfrwt beam="1">  1       21 0.46134900E-01 0.12500000E+03</pdfrwt>
<pdfrwt beam="2">  1       21 0.20040278E-02 0.12500000E+03</pdfrwt>
<totfact> 0.54400576E+06</totfact>
</mgrwt>
</event>
<event>
 3    1  0.1628330E-001  0.1250000E+03  0.7546771E-02  0.1235069E+00
         21   -1    0    0  502  501  0.00000000000E+00  0.00000000000E+00  0.19312544218E+02  0.19312544218E+02  0.00000000000E+00 0.  1.
         21   -1    0    0  501  502 -0.00000000000E+00 -0.00000000000E+00 -0.20226490906E+03  0.20226490906E+03  0.00000000000E+00 0.  1.
         25    1    1    2    0    0  0.00000000000E+00  0.00000000000E+00 -0.18295236484E+03  0.22157745328E+03  0.12500000000E+03 0.  0.
<mgrwt>
<rscale>  0 0.12500000E+03</rscale>
<asrwt>0</asrwt>
<pdfrwt beam="1">  1       21 0.29711605E-02 0.12500000E+03</pdfrwt>
<pdfrwt beam="2">  1       21 0.31117680E-01 0.12500000E+03</pdfrwt>
<totfact> 0.62661661E+06</totfact>
</mgrwt>
</event>
<event>
 3    1  0.1628330E-001  0.1250000E+03  0.7546771E-02  0.1235069E+00
         21   -1    0    0  502  501  0.00000000000E+00  0.00000000000E+00  0.13172568919E+03  0.13172568919E+03  0.00000000000E+00 0.  1.
         21   -1    0    0  501  502 -0.00000000000E+00 -0.00000000000E+00 -0.29654428260E+02  0.29654428260E+02  0.00000000000E+00 0.  1.
         25    1    1    2    0    0  0.00000000000E+00  0.00000000000E+00  0.10207126093E+03  0.16138011745E+03  0.12500000000E+03 0.  0.
<mgrwt>
<rscale>  0 0.12500000E+03</rscale>
<asrwt>0</asrwt>
<pdfrwt beam="1">  1       21 0.20265490E-01 0.12500000E+03</pdfrwt>
<pdfrwt beam="2">  1       21 0.45622198E-02 0.12500000E+03</pdfrwt>
<totfact> 0.69351253E+06</totfact>
</mgrwt>
</event>
<event>
 3    1  0.1628330E-001  0.1250000E+03  0.7546771E-02  0.1235069E+00
         21   -1    0    0  502  501  0.00000000000E+00  0.00000000000E+00  0.10605366987E+03  0.10605366987E+03  0.00000000000E+00 0. -1.
         21   -1    0    0  501  502 -0.00000000000E+00 -0.00000000000E+00 -0.36832765944E+02  0.36832765944E+02  0.00000000000E+00 0. -1.
         25    1    1    2    0    0  0.00000000000E+00  0.00000000000E+00  0.69220903929E+02  0.14288643582E+03  0.12500000000E+03 0.  0.
<mgrwt>
<rscale>  0 0.12500000E+03</rscale>
<asrwt>0</asrwt>
<pdfrwt beam="1">  1       21 0.16315949E-01 0.12500000E+03</pdfrwt>
<pdfrwt beam="2">  1       21 0.56665794E-02 0.12500000E+03</pdfrwt>
<totfact> 0.71664694E+06</totfact>
</mgrwt>
</event>
<event>
 3    1  0.1628330E-001  0.1250000E+03  0.7546771E-02  0.1235069E+00
         21   -1    0    0  502  501  0.00000000000E+00  0.00000000000E+00  0.11014889742E+03  0.11014889742E+03  0.00000000000E+00 0.  1.
         21   -1    0    0  501  502 -0.00000000000E+00 -0.00000000000E+00 -0.35463359974E+02  0.35463359974E+02  0.00000000000E+00 0.  1.
         25    1    1    2    0    0  0.00000000000E+00  0.00000000000E+00  0.74685537446E+02  0.14561225740E+03  0.12500000000E+03 0.  0.
<mgrwt>
<rscale>  0 0.12500000E+03</rscale>
<asrwt>0</asrwt>
<pdfrwt beam="1">  1       21 0.16945984E-01 0.12500000E+03</pdfrwt>
<pdfrwt beam="2">  1       21 0.54559016E-02 0.12500000E+03</pdfrwt>
<totfact> 0.71314837E+06</totfact>
</mgrwt>
</event>
<event>
 3    1  0.1628330E-001  0.1250000E+03  0.7546771E-02  0.1235069E+00
         21   -1    0    0  502  501  0.00000000000E+00  0.00000000000E+00  0.56387078719E+01  0.56387078719E+01  0.00000000000E+00 0.  1.
         21   -1    0    0  501  502 -0.00000000000E+00 -0.00000000000E+00 -0.69275622869E+03  0.69275622869E+03  0.00000000000E+00 0.  1.
         25    1    1    2    0    0  0.00000000000E+00  0.00000000000E+00 -0.68711752082E+03  0.69839493656E+03  0.12500000000E+03 0.  0.
<mgrwt>
<rscale>  0 0.12500000E+03</rscale>
<asrwt>0</asrwt>
<pdfrwt beam="1">  1       21 0.86749385E-03 0.12500000E+03</pdfrwt>
<pdfrwt beam="2">  1       21 0.10657784E+00 0.12500000E+03</pdfrwt>
<totfact> 0.32972122E+06</totfact>
</mgrwt>
</event>
<event>
 3    1  0.1628330E-001  0.1250000E+03  0.7546771E-02  0.1235069E+00
         21   -1    0    0  502  501  0.00000000000E+00  0.00000000000E+00  0.24656750234E+03  0.24656750234E+03  0.00000000000E+00 0. -1.
         21   -1    0    0  501  502 -0.00000000000E+00 -0.00000000000E+00 -0.15842517618E+02  0.15842517618E+02  0.00000000000E+00 0. -1.
         25    1    1    2    0    0  0.00000000000E+00  0.00000000000E+00  0.23072498473E+03  0.26241001996E+03  0.12500000000E+03 0.  0.
<mgrwt>
<rscale>  0 0.12500000E+03</rscale>
<asrwt>0</asrwt>
<pdfrwt beam="1">  1       21 0.37933459E-01 0.12500000E+03</pdfrwt>
<pdfrwt beam="2">  1       21 0.24373106E-02 0.12500000E+03</pdfrwt>
<totfact> 0.58729083E+06</totfact>
</mgrwt>
</event>
<event>
 3    1  0.1628330E-001  0.1250000E+03  0.7546771E-02  0.1235069E+00
         21   -1    0    0  502  501  0.00000000000E+00  0.00000000000E+00  0.21324411154E+03  0.21324411154E+03  0.00000000000E+00 0.  1.
         21   -1    0    0  501  502 -0.00000000000E+00 -0.00000000000E+00 -0.18318208047E+02  0.18318208047E+02  0.00000000000E+00 0.  1.
         25    1    1    2    0    0  0.00000000000E+00  0.00000000000E+00  0.19492590349E+03  0.23156231959E+03  0.12500000000E+03 0.  0.
<mgrwt>
<rscale>  0 0.12500000E+03</rscale>
<asrwt>0</asrwt>
<pdfrwt beam="1">  1       21 0.32806785E-01 0.12500000E+03</pdfrwt>
<pdfrwt beam="2">  1       21 0.28181860E-02 0.12500000E+03</pdfrwt>
<totfact> 0.61658845E+06</totfact>
</mgrwt>
</event>
<event>
 3    1  0.1628330E-001  0.1250000E+03  0.7546771E-02  0.1235069E+00
         21   -1    0    0  502  501  0.00000000000E+00  0.00000000000E+00  0.93230344756E+02  0.93230344756E+02  0.00000000000E+00 0. -1.
         21   -1    0    0  501  502 -0.00000000000E+00 -0.00000000000E+00 -0.41898911886E+02  0.41898911886E+02  0.00000000000E+00 0. -1.
         25    1    1    2    0    0  0.00000000000E+00  0.00000000000E+00  0.51331432870E+02  0.13512925664E+03  0.12500000000E+03 0.  0.
<mgrwt>
<rscale>  0 0.12500000E+03</rscale>
<asrwt>0</asrwt>
<pdfrwt beam="1">  1       21 0.14343130E-01 0.12500000E+03</pdfrwt>
<pdfrwt beam="2">  1       21 0.64459865E-02 0.12500000E+03</pdfrwt>
<totfact> 0.72679362E+06</totfact>
</mgrwt>
</event>
<event>
 3    1  0.1628330E-001  0.1250000E+03  0.7546771E-02  0.1235069E+00
         21   -1    0    0  502  501  0.00000000000E+00  0.00000000000E+00  0.12094013424E+02  0.12094013424E+02  0.00000000000E+00 0.  1.
         21   -1    0    0  501  502 -0.00000000000E+00 -0.00000000000E+00 -0.32299038069E+03  0.32299038069E+03  0.00000000000E+00 0.  1.
         25    1    1    2    0    0  0.00000000000E+00  0.00000000000E+00 -0.31089636727E+03  0.33508439412E+03  0.12500000000E+03 0.  0.
<mgrwt>
<rscale>  0 0.12500000E+03</rscale>
<asrwt>0</asrwt>
<pdfrwt beam="1">  1       21 0.18606175E-02 0.12500000E+03</pdfrwt>
<pdfrwt beam="2">  1       21 0.49690825E-01 0.12500000E+03</pdfrwt>
<totfact> 0.52659219E+06</totfact>
</mgrwt>
</event>
<event>
 3    1  0.1628330E-001  0.1250000E+03  0.7546771E-02  0.1235069E+00
         21   -1    0    0  502  501  0.00000000000E+00  0.00000000000E+00  0.80816599074E+02  0.80816599074E+02  0.00000000000E+00 0. -1.
         21   -1    0    0  501  502 -0.00000000000E+00 -0.00000000000E+00 -0.48334748613E+02  0.48334748613E+02  0.00000000000E+00 0. -1.
         25    1    1    2    0    0  0.00000000000E+00  0.00000000000E+00  0.32481850462E+02  0.12915134769E+03  0.12500000000E+03 0.  0.
<mgrwt>
<rscale>  0 0.12500000E+03</rscale>
<asrwt>0</asrwt>
<pdfrwt beam="1">  1       21 0.12433323E-01 0.12500000E+03</pdfrwt>
<pdfrwt beam="2">  1       21 0.74361152E-02 0.12500000E+03</pdfrwt>
<totfact> 0.73478563E+06</totfact>
</mgrwt>
</event>
<event>
 3    1  0.1628330E-001  0.1250000E+03  0.7546771E-02  0.1235069E+00
         21   -1    0    0  502  501  0.00000000000E+00  0.00000000000E+00  0.61497094462E+02  0.61497094462E+02  0.00000000000E+00 0. -1.
         21   -1    0    0  501  502 -0.00000000000E+00 -0.00000000000E+00 -0.63519261100E+02  0.63519261100E+02  0.00000000000E+00 0. -1.
         25    1    1    2    0    0  0.00000000000E+00  0.00000000000E+00 -0.20221666383E+01  0.12501635556E+03  0.12500000000E+03 0.  0.
<mgrwt>
<rscale>  0 0.12500000E+03</rscale>
<asrwt>0</asrwt>
<pdfrwt beam="1">  1       21 0.94610915E-02 0.12500000E+03</pdfrwt>
<pdfrwt beam="2">  1       21 0.97721940E-02 0.12500000E+03</pdfrwt>
<totfact> 0.74041372E+06</totfact>
</mgrwt>
</event>
<event>
 3    1  0.1628330E-001  0.1250000E+03  0.7546771E-02  0.1235069E+00
         21   -1    0    0  502  501  0.00000000000E+00  0.00000000000E+00  0.25405371663E+02  0.25405371663E+02  0.00000000000E+00 0. -1.
         21   -1    0    0  501  502 -0.00000000000E+00 -0.00000000000E+00 -0.15375685315E+03  0.15375685315E+03  0.00000000000E+00 0. -1.
         25    1    1    2    0    0  0.00000000000E+00  0.00000000000E+00 -0.12835148148E+03  0.17916222481E+03  0.12500000000E+03 0.  0.
<mgrwt>
<rscale>  0 0.12500000E+03</rscale>
<asrwt>0</asrwt>
<pdfrwt beam="1">  1       21 0.39085188E-02 0.12500000E+03</pdfrwt>
<pdfrwt beam="2">  1       21 0.23654900E-01 0.12500000E+03</pdfrwt>
<totfact> 0.67247774E+06</totfact>
</mgrwt>
</event>
<event>
 3    1  0.1628330E-001  0.1250000E+03  0.7546771E-02  0.1235069E+00
         21   -1    0    0  502  501  0.00000000000E+00  0.00000000000E+00  0.12309253383E+03  0.12309253383E+03  0.00000000000E+00 0.  1.
         21   -1    0    0  501  502 -0.00000000000E+00 -0.00000000000E+00 -0.31734256161E+02  0.31734256161E+02  0.00000000000E+00 0.  1.
         25    1    1    2    0    0  0.00000000000E+00  0.00000000000E+00  0.91358277666E+02  0.15482678999E+03  0.12500000000E+03 0.  0.
<mgrwt>
<rscale>  0 0.12500000E+03</rscale>
<asrwt>0</asrwt>
<pdfrwt beam="1">  1       21 0.18937313E-01 0.12500000E+03</pdfrwt>
<pdfrwt beam="2">  1       21 0.48821933E-02 0.12500000E+03</pdfrwt>
<totfact> 0.70157193E+06</totfact>
</mgrwt>
</event>
<event>
 3    1  0.1628330E-001  0.1250000E+03  0.7546771E-02  0.1235069E+00
         21   -1    0    0  502  501  0.00000000000E+00  0.00000000000E+00  0.22888465872E+02  0.22888465872E+02  0.00000000000E+00 0.  1.
         21   -1    0    0  501  502 -0.00000000000E+00 -0.00000000000E+00 -0.17066456187E+03  0.17066456187E+03  0.00000000000E+00 0.  1.
         25    1    1    2    0    0  0.00000000000E+00  0.00000000000E+00 -0.14777609600E+03  0.19355302775E+03  0.12500000000E+03 0.  0.
<mgrwt>
<rscale>  0 0.12500000E+03</rscale>
<asrwt>0</asrwt>
<pdfrwt beam="1">  1       21 0.35213024E-02 0.12500000E+03</pdfrwt>
<pdfrwt beam="2">  1       21 0.26256087E-01 0.12500000E+03</pdfrwt>
<totfact> 0.65629738E+06</totfact>
</mgrwt>
</event>
<event>
 3    1  0.1628330E-001  0.1250000E+03  0.7546771E-02  0.1235069E+00
         21   -1    0    0  502  501  0.00000000000E+00  0.00000000000E+00  0.48285454472E+03  0.48285454472E+03  0.00000000000E+00 0.  1.
         21   -1    0    0  501  502 -0.00000000000E+00 -0.00000000000E+00 -0.80899103937E+01  0.80899103937E+01  0.00000000000E+00 0.  1.
         25    1    1    2    0    0  0.00000000000E+00  0.00000000000E+00  0.47476463433E+03  0.49094445512E+03  0.12500000000E+03 0.  0.
<mgrwt>
<rscale>  0 0.12500000E+03</rscale>
<asrwt>0</asrwt>
<pdfrwt beam="1">  1       21 0.74285292E-01 0.12500000E+03</pdfrwt>
<pdfrwt beam="2">  1       21 0.12446020E-02 0.12500000E+03</pdfrwt>
<totfact> 0.42539477E+06</totfact>
</mgrwt>
</event>
<event>
 3    1  0.1628330E-001  0.1250000E+03  0.7546771E-02  0.1235069E+00
         21   -1    0    0  502  501  0.00000000000E+00  0.00000000000E+00  0.17318741804E+02  0.17318741804E+02  0.00000000000E+00 0.  1.
         21   -1    0    0  501  502 -0.00000000000E+00 -0.00000000000E+00 -0.22555044958E+03  0.22555044958E+03  0.00000000000E+00 0.  1.
         25    1    1    2    0    0  0.00000000000E+00  0.00000000000E+00 -0.20823170777E+03  0.24286919138E+03  0.12500000000E+03 0.  0.
<mgrwt>
<rscale>  0 0.12500000E+03</rscale>
<asrwt>0</asrwt>
<pdfrwt beam="1">  1       21 0.26644221E-02 0.12500000E+03</pdfrwt>
<pdfrwt beam="2">  1       21 0.34700066E-01 0.12500000E+03</pdfrwt>
<totfact> 0.60556119E+06</totfact>
</mgrwt>
</event>
<event>
 3    1  0.1628330E-001  0.1250000E+03  0.7546771E-02  0.1235069E+00
         21   -1    0    0  502  501  0.00000000000E+00  0.00000000000E+00  0.87647401329E+02  0.87647401329E+02  0.00000000000E+00 0.  1.
         21   -1    0    0  501  502 -0.00000000000E+00 -0.00000000000E+00 -0.44567778859E+02  0.44567778859E+02  0.00000000000E+00 0.  1.
         25    1    1    2    0    0  0.00000000000E+00  0.00000000000E+00  0.43079622469E+02  0.13221518019E+03  0.12500000000E+03 0.  0.
<mgrwt>
<rscale>  0 0.12500000E+03</rscale>
<asrwt>0</asrwt>
<pdfrwt beam="1">  1       21 0.13484216E-01 0.12500000E+03</pdfrwt>
<pdfrwt beam="2">  1       21 0.68565814E-02 0.12500000E+03</pdfrwt>
<totfact> 0.73067380E+06</totfact>
</mgrwt>
</event>
<event>
 3    1  0.1628330E-001  0.1250000E+03  0.7546771E-02  0.1235069E+00
         21   -1    0    0  502  501  0.00000000000E+00  0.00000000000E+00  0.38844007371E+03  0.38844007371E+03  0.00000000000E+00 0. -1.
         21   -1    0    0  501  502 -0.00000000000E+00 -0.00000000000E+00 -0.10056248735E+02  0.10056248735E+02  0.00000000000E+00 0. -1.
         25    1    1    2    0    0  0.00000000000E+00  0.00000000000E+00  0.37838382497E+03  0.39849632244E+03  0.12500000000E+03 0.  0.
<mgrwt>
<rscale>  0 0.12500000E+03</rscale>
<asrwt>0</asrwt>
<pdfrwt beam="1">  1       21 0.59760000E-01 0.12500000E+03</pdfrwt>
<pdfrwt beam="2">  1       21 0.15471155E-02 0.12500000E+03</pdfrwt>
<totfact> 0.48141253E+06</totfact>
</mgrwt>
</event>
<event>
 3    1  0.1628330E-001  0.1250000E+03  0.7546771E-02  0.1235069E+00
         21   -1    0    0  502  501  0.00000000000E+00  0.00000000000E+00  0.12152944999E+03  0.12152944999E+03  0.00000000000E+00 0. -1.
         21   -1    0    0  501  502 -0.00000000000E+00 -0.00000000000E+00 -0.32142414866E+02  0.32142414866E+02  0.00000000000E+00 0. -1.
         25    1    1    2    0    0  0.00000000000E+00  0.00000000000E+00  0.89387035125E+02  0.15367186486E+03  0.12500000000E+03 0.  0.
<mgrwt>
<rscale>  0 0.12500000E+03</rscale>
<asrwt>0</asrwt>
<pdfrwt beam="1">  1       21 0.18696838E-01 0.12500000E+03</pdfrwt>
<pdfrwt beam="2">  1       21 0.49449870E-02 0.12500000E+03</pdfrwt>
<totfact> 0.70300938E+06</totfact>
</mgrwt>
</event>
<event>
 3    1  0.1628330E-001  0.1250000E+03  0.7546771E-02  0.1235069E+00
         21   -1    0    0  502  501  0.00000000000E+00  0.00000000000E+00  0.30900359208E+03  0.30900359208E+03  0.00000000000E+00 0.  1.
         21   -1    0    0  501  502 -0.00000000000E+00 -0.00000000000E+00 -0.12641438806E+02  0.12641438806E+02  0.00000000000E+00 0.  1.
         25    1    1    2    0    0  0.00000000000E+00  0.00000000000E+00  0.29636215328E+03  0.32164503089E+03  0.12500000000E+03 0.  0.
<mgrwt>
<rscale>  0 0.12500000E+03</rscale>
<asrwt>0</asrwt>
<pdfrwt beam="1">  1       21 0.47539009E-01 0.12500000E+03</pdfrwt>
<pdfrwt beam="2">  1       21 0.19448370E-02 0.12500000E+03</pdfrwt>
<totfact> 0.53703242E+06</totfact>
</mgrwt>
</event>
<event>
 3    1  0.1628330E-001  0.1250000E+03  0.7546771E-02  0.1235069E+00
         21   -1    0    0  502  501  0.00000000000E+00  0.00000000000E+00  0.23196444042E+02  0.23196444042E+02  0.00000000000E+00 0. -1.
         21   -1    0    0  501  502 -0.00000000000E+00 -0.00000000000E+00 -0.16839865597E+03  0.16839865597E+03  0.00000000000E+00 0. -1.
         25    1    1    2    0    0  0.00000000000E+00  0.00000000000E+00 -0.14520221193E+03  0.19159510001E+03  0.12500000000E+03 0.  0.
<mgrwt>
<rscale>  0 0.12500000E+03</rscale>
<asrwt>0</asrwt>
<pdfrwt beam="1">  1       21 0.35686836E-02 0.12500000E+03</pdfrwt>
<pdfrwt beam="2">  1       21 0.25907486E-01 0.12500000E+03</pdfrwt>
<totfact> 0.65845621E+06</totfact>
</mgrwt>
</event>
<event>
 3    1  0.1628330E-001  0.1250000E+03  0.7546771E-02  0.1235069E+00
         21   -1    0    0  502  501  0.00000000000E+00  0.00000000000E+00  0.22166923927E+03  0.22166923927E+03  0.00000000000E+00 0.  1.
         21   -1    0    0  501  502 -0.00000000000E+00 -0.00000000000E+00 -0.17621975935E+02  0.17621975935E+02  0.00000000000E+00 0.  1.
         25    1    1    2    0    0  0.00000000000E+00  0.00000000000E+00  0.20404726334E+03  0.23929121521E+03  0.12500000000E+03 0.  0.
<mgrwt>
<rscale>  0 0.12500000E+03</rscale>
<asrwt>0</asrwt>
<pdfrwt beam="1">  1       21 0.34102958E-01 0.12500000E+03</pdfrwt>
<pdfrwt beam="2">  1       21 0.27110734E-02 0.12500000E+03</pdfrwt>
<totfact> 0.60901319E+06</totfact>
</mgrwt>
</event>
<event>
 3    1  0.1628330E-001  0.1250000E+03  0.7546771E-02  0.1235069E+00
         21   -1    0    0  502  501  0.00000000000E+00  0.00000000000E+00  0.63504208346E+02  0.63504208346E+02  0.00000000000E+00 0. -1.
         21   -1    0    0  501  502 -0.00000000000E+00 -0.00000000000E+00 -0.61511671458E+02  0.61511671458E+02  0.00000000000E+00 0. -1.
         25    1    1    2    0    0  0.00000000000E+00  0.00000000000E+00  0.19925368875E+01  0.12501587980E+03  0.12500000000E+03 0.  0.
<mgrwt>
<rscale>  0 0.12500000E+03</rscale>
<asrwt>0</asrwt>
<pdfrwt beam="1">  1       21 0.97698782E-02 0.12500000E+03</pdfrwt>
<pdfrwt beam="2">  1       21 0.94633340E-02 0.12500000E+03</pdfrwt>
<totfact> 0.74041437E+06</totfact>
</mgrwt>
</event>
<event>
 3    1  0.1628330E-001  0.1250000E+03  0.7546771E-02  0.1235069E+00
         21   -1    0    0  502  501  0.00000000000E+00  0.00000000000E+00  0.10109642409E+02  0.10109642409E+02  0.00000000000E+00 0. -1.
         21   -1    0    0  501  502 -0.00000000000E+00 -0.00000000000E+00 -0.38638854295E+03  0.38638854295E+03  0.00000000000E+00 0. -1.
         25    1    1    2    0    0  0.00000000000E+00  0.00000000000E+00 -0.37627890054E+03  0.39649818536E+03  0.12500000000E+03 0.  0.
<mgrwt>
<rscale>  0 0.12500000E+03</rscale>
<asrwt>0</asrwt>
<pdfrwt beam="1">  1       21 0.15553295E-02 0.12500000E+03</pdfrwt>
<pdfrwt beam="2">  1       21 0.59444397E-01 0.12500000E+03</pdfrwt>
<totfact> 0.48274490E+06</totfact>
</mgrwt>
</event>
<event>
 3    1  0.1628330E-001  0.1250000E+03  0.7546771E-02  0.1235069E+00
         21   -1    0    0  502  501  0.00000000000E+00  0.00000000000E+00  0.76579027426E+03  0.76579027426E+03  0.00000000000E+00 0.  1.
         21   -1    0    0  501  502 -0.00000000000E+00 -0.00000000000E+00 -0.51009396845E+01  0.51009396845E+01  0.00000000000E+00 0.  1.
         25    1    1    2    0    0  0.00000000000E+00  0.00000000000E+00  0.76068933458E+03  0.77089121395E+03  0.12500000000E+03 0.  0.
<mgrwt>
<rscale>  0 0.12500000E+03</rscale>
<asrwt>0</asrwt>
<pdfrwt beam="1">  1       21 0.11781380E+00 0.12500000E+03</pdfrwt>
<pdfrwt beam="2">  1       21 0.78476056E-03 0.12500000E+03</pdfrwt>
<totfact> 0.30347345E+06</totfact>
</mgrwt>
</event>
<event>
 3    1  0.1628330E-001  0.1250000E+03  0.7546771E-02  0.1235069E+00
         21   -1    0    0  502  501  0.00000000000E+00  0.00000000000E+00  0.71457805260E+02  0.71457805260E+02  0.00000000000E+00 0.  1.
         21   -1    0    0  501  502 -0.00000000000E+00 -0.00000000000E+00 -0.54665127004E+02  0.54665127004E+02  0.00000000000E+00 0.  1.
         25    1    1    2    0    0  0.00000000000E+00  0.00000000000E+00  0.16792678255E+02  0.12612293226E+03  0.12500000000E+03 0.  0.
<mgrwt>
<rscale>  0 0.12500000E+03</rscale>
<asrwt>0</asrwt>
<pdfrwt beam="1">  1       21 0.10993509E-01 0.12500000E+03</pdfrwt>
<pdfrwt beam="2">  1       21 0.84100195E-02 0.12500000E+03</pdfrwt>
<totfact> 0.73889107E+06</totfact>
</mgrwt>
</event>
<event>
 3    1  0.1628330E-001  0.1250000E+03  0.7546771E-02  0.1235069E+00
         21   -1    0    0  502  501  0.00000000000E+00  0.00000000000E+00  0.38852910307E+03  0.38852910307E+03  0.00000000000E+00 0. -1.
         21   -1    0    0  501  502 -0.00000000000E+00 -0.00000000000E+00 -0.10053944400E+02  0.10053944400E+02  0.00000000000E+00 0. -1.
         25    1    1    2    0    0  0.00000000000E+00  0.00000000000E+00  0.37847515867E+03  0.39858304747E+03  0.12500000000E+03 0.  0.
<mgrwt>
<rscale>  0 0.12500000E+03</rscale>
<asrwt>0</asrwt>
<pdfrwt beam="1">  1       21 0.59773697E-01 0.12500000E+03</pdfrwt>
<pdfrwt beam="2">  1       21 0.15467610E-02 0.12500000E+03</pdfrwt>
<totfact> 0.48135483E+06</totfact>
</mgrwt>
</event>
<event>
 3    1  0.1628330E-001  0.1250000E+03  0.7546771E-02  0.1235069E+00
         21   -1    0    0  502  501  0.00000000000E+00  0.00000000000E+00  0.40656868286E+03  0.40656868286E+03  0.00000000000E+00 0.  1.
         21   -1    0    0  501  502 -0.00000000000E+00 -0.00000000000E+00 -0.96078477382E+01  0.96078477382E+01  0.00000000000E+00 0.  1.
         25    1    1    2    0    0  0.00000000000E+00  0.00000000000E+00  0.39696083512E+03  0.41617653060E+03  0.12500000000E+03 0.  0.
<mgrwt>
<rscale>  0 0.12500000E+03</rscale>
<asrwt>0</asrwt>
<pdfrwt beam="1">  1       21 0.62549015E-01 0.12500000E+03</pdfrwt>
<pdfrwt beam="2">  1       21 0.14781307E-02 0.12500000E+03</pdfrwt>
<totfact> 0.46986573E+06</totfact>
</mgrwt>
</event>
<event>
 3    1  0.1628330E-001  0.1250000E+03  0.7546771E-02  0.1235069E+00
         21   -1    0    0  502  501  0.00000000000E+00  0.00000000000E+00  0.68895035959E+01  0.68895035959E+01  0.00000000000E+00 0.  1.
         21   -1    0    0  501  502 -0.00000000000E+00 -0.00000000000E+00 -0.56698569725E+03  0.56698569725E+03  0.00000000000E+00 0.  1.
         25    1    1    2    0    0  0.00000000000E+00  0.00000000000E+00 -0.56009619365E+03  0.57387520084E+03  0.12500000000E+03 0.  0.
<mgrwt>
<rscale>  0 0.12500000E+03</rscale>
<asrwt>0</asrwt>
<pdfrwt beam="1">  1       21 0.10599237E-02 0.12500000E+03</pdfrwt>
<pdfrwt beam="2">  1       21 0.87228562E-01 0.12500000E+03</pdfrwt>
<totfact> 0.38301389E+06</totfact>
</mgrwt>
</event>
<event>
 3    1  0.1628330E-001  0.1250000E+03  0.7546771E-02  0.1235069E+00
         21   -1    0    0  502  501  0.00000000000E+00  0.00000000000E+00  0.94474341467E+01  0.94474341467E+01  0.00000000000E+00 0. -1.
         21   -1    0    0  501  502 -0.00000000000E+00 -0.00000000000E+00 -0.41347205382E+03  0.41347205382E+03  0.00000000000E+00 0. -1.
         25    1    1    2    0    0  0.00000000000E+00  0.00000000000E+00 -0.40402461968E+03  0.42291948797E+03  0.12500000000E+03 0.  0.
<mgrwt>
<rscale>  0 0.12500000E+03</rscale>
<asrwt>0</asrwt>
<pdfrwt beam="1">  1       21 0.14534517E-02 0.12500000E+03</pdfrwt>
<pdfrwt beam="2">  1       21 0.63611070E-01 0.12500000E+03</pdfrwt>
<totfact> 0.46557381E+06</totfact>
</mgrwt>
</event>
<event>
 3    1  0.1628330E-001  0.1250000E+03  0.7546771E-02  0.1235069E+00
         21   -1    0    0  502  501  0.00000000000E+00  0.00000000000E+00  0.43078449778E+02  0.43078449778E+02  0.00000000000E+00 0.  1.
         21   -1    0    0  501  502 -0.00000000000E+00 -0.00000000000E+00 -0.90677589843E+02  0.90677589843E+02  0.00000000000E+00 0.  1.
         25    1    1    2    0    0  0.00000000000E+00  0.00000000000E+00 -0.47599140065E+02  0.13375603962E+03  0.12500000000E+03 0.  0.
<mgrwt>
<rscale>  0 0.12500000E+03</rscale>
<asrwt>0</asrwt>
<pdfrwt beam="1">  1       21 0.66274539E-02 0.12500000E+03</pdfrwt>
<pdfrwt beam="2">  1       21 0.13950398E-01 0.12500000E+03</pdfrwt>
<totfact> 0.72861607E+06</totfact>
</mgrwt>
</event>
<event>
 3    1  0.1628330E-001  0.1250000E+03  0.7546771E-02  0.1235069E+00
         21   -1    0    0  502  501  0.00000000000E+00  0.00000000000E+00  0.13693442516E+02  0.13693442516E+02  0.00000000000E+00 0. -1.
         21   -1    0    0  501  502 -0.00000000000E+00 -0.00000000000E+00 -0.28526427853E+03  0.28526427853E+03  0.00000000000E+00 0. -1.
         25    1    1    2    0    0  0.00000000000E+00  0.00000000000E+00 -0.27157083601E+03  0.29895772104E+03  0.12500000000E+03 0.  0.
<mgrwt>
<rscale>  0 0.12500000E+03</rscale>
<asrwt>0</asrwt>
<pdfrwt beam="1">  1       21 0.21066837E-02 0.12500000E+03</pdfrwt>
<pdfrwt beam="2">  1       21 0.43886806E-01 0.12500000E+03</pdfrwt>
<totfact> 0.55542905E+06</totfact>
</mgrwt>
</event>
<event>
 3    1  0.1628330E-001  0.1250000E+03  0.7546771E-02  0.1235069E+00
         21   -1    0    0  502  501  0.00000000000E+00  0.00000000000E+00  0.73506000449E+02  0.73506000449E+02  0.00000000000E+00 0.  1.
         21   -1    0    0  501  502 -0.00000000000E+00 -0.00000000000E+00 -0.53141920063E+02  0.53141920063E+02  0.00000000000E+00 0.  1.
         25    1    1    2    0    0  0.00000000000E+00  0.00000000000E+00  0.20364080386E+02  0.12664792051E+03  0.12500000000E+03 0.  0.
<mgrwt>
<rscale>  0 0.12500000E+03</rscale>
<asrwt>0</asrwt>
<pdfrwt beam="1">  1       21 0.11308615E-01 0.12500000E+03</pdfrwt>
<pdfrwt beam="2">  1       21 0.81756800E-02 0.12500000E+03</pdfrwt>
<totfact> 0.73817148E+06</totfact>
</mgrwt>
</event>
<event>
 3    1  0.1628330E-001  0.1250000E+03  0.7546771E-02  0.1235069E+00
         21   -1    0    0  502  501  0.00000000000E+00  0.00000000000E+00  0.13764632288E+02  0.13764632288E+02  0.00000000000E+00 0.  1.
         21   -1    0    0  501  502 -0.00000000000E+00 -0.00000000000E+00 -0.28378891047E+03  0.28378891047E+03  0.00000000000E+00 0.  1.
         25    1    1    2    0    0  0.00000000000E+00  0.00000000000E+00 -0.27002427818E+03  0.29755354276E+03  0.12500000000E+03 0.  0.
<mgrwt>
<rscale>  0 0.12500000E+03</rscale>
<asrwt>0</asrwt>
<pdfrwt beam="1">  1       21 0.21176358E-02 0.12500000E+03</pdfrwt>
<pdfrwt beam="2">  1       21 0.43659831E-01 0.12500000E+03</pdfrwt>
<totfact> 0.55660099E+06</totfact>
</mgrwt>
</event>
<event>
 3    1  0.1628330E-001  0.1250000E+03  0.7546771E-02  0.1235069E+00
         21   -1    0    0  502  501  0.00000000000E+00  0.00000000000E+00  0.96636001518E+01  0.96636001518E+01  0.00000000000E+00 0. -1.
         21   -1    0    0  501  502 -0.00000000000E+00 -0.00000000000E+00 -0.40422305752E+03  0.40422305752E+03  0.00000000000E+00 0. -1.
         25    1    1    2    0    0  0.00000000000E+00  0.00000000000E+00 -0.39455945737E+03  0.41388665767E+03  0.12500000000E+03 0.  0.
<mgrwt>
<rscale>  0 0.12500000E+03</rscale>
<asrwt>0</asrwt>
<pdfrwt beam="1">  1       21 0.14867077E-02 0.12500000E+03</pdfrwt>
<pdfrwt beam="2">  1       21 0.62188164E-01 0.12500000E+03</pdfrwt>
<totfact> 0.47133700E+06</totfact>
</mgrwt>
</event>
<event>
 3    1  0.1628330E-001  0.1250000E+03  0.7546771E-02  0.1235069E+00
         21   -1    0    0  502  501  0.00000000000E+00  0.00000000000E+00  0.13400388135E+02  0.13400388135E+02  0.00000000000E+00 0. -1.
         21   -1    0    0  501  502 -0.00000000000E+00 -0.00000000000E+00 -0.29150275057E+03  0.29150275057E+03  0.00000000000E+00 0. -1.
         25    1    1    2    0    0  0.00000000000E+00  0.00000000000E+00 -0.27810236244E+03  0.30490313871E+03  0.12500000000E+03 0.  0.
<mgrwt>
<rscale>  0 0.12500000E+03</rscale>
<asrwt>0</asrwt>
<pdfrwt beam="1">  1       21 0.20615981E-02 0.12500000E+03</pdfrwt>
<pdfrwt beam="2">  1       21 0.44846578E-01 0.12500000E+03</pdfrwt>
<totfact> 0.55051149E+06</totfact>
</mgrwt>
</event>
<event>
 3    1  0.1628330E-001  0.1250000E+03  0.7546771E-02  0.1235069E+00
         21   -1    0    0  502  501  0.00000000000E+00  0.00000000000E+00  0.31141821128E+03  0.31141821128E+03  0.00000000000E+00 0. -1.
         21   -1    0    0  501  502 -0.00000000000E+00 -0.00000000000E+00 -0.12543421863E+02  0.12543421863E+02  0.00000000000E+00 0. -1.
         25    1    1    2    0    0  0.00000000000E+00  0.00000000000E+00  0.29887478941E+03  0.32396163314E+03  0.12500000000E+03 0.  0.
<mgrwt>
<rscale>  0 0.12500000E+03</rscale>
<asrwt>0</asrwt>
<pdfrwt beam="1">  1       21 0.47910488E-01 0.12500000E+03</pdfrwt>
<pdfrwt beam="2">  1       21 0.19297574E-02 0.12500000E+03</pdfrwt>
<totfact> 0.53520892E+06</totfact>
</mgrwt>
</event>
<event>
 3    1  0.1628330E-001  0.1250000E+03  0.7546771E-02  0.1235069E+00
         21   -1    0    0  502  501  0.00000000000E+00  0.00000000000E+00  0.14070542540E+03  0.14070542540E+03  0.00000000000E+00 0.  1.
         21   -1    0    0  501  502 -0.00000000000E+00 -0.00000000000E+00 -0.27761900360E+02  0.27761900360E+02  0.00000000000E+00 0.  1.
         25    1    1    2    0    0  0.00000000000E+00  0.00000000000E+00  0.11294352504E+03  0.16846732576E+03  0.12500000000E+03 0.  0.
<mgrwt>
<rscale>  0 0.12500000E+03</rscale>
<asrwt>0</asrwt>
<pdfrwt beam="1">  1       21 0.21646988E-01 0.12500000E+03</pdfrwt>
<pdfrwt beam="2">  1       21 0.42710617E-02 0.12500000E+03</pdfrwt>
<totfact> 0.68499396E+06</totfact>
</mgrwt>
</event>
<event>
 3    1  0.1628330E-001  0.1250000E+03  0.7546771E-02  0.1235069E+00
         21   -1    0    0  502  501  0.00000000000E+00  0.00000000000E+00  0.75732360213E+01  0.75732360213E+01  0.00000000000E+00 0.  1.
         21   -1    0    0  501  502 -0.00000000000E+00 -0.00000000000E+00 -0.51579668044E+03  0.51579668044E+03  0.00000000000E+00 0.  1.
         25    1    1    2    0    0  0.00000000000E+00  0.00000000000E+00 -0.50822344442E+03  0.52336991647E+03  0.12500000000E+03 0.  0.
<mgrwt>
<rscale>  0 0.12500000E+03</rscale>
<asrwt>0</asrwt>
<pdfrwt beam="1">  1       21 0.11651132E-02 0.12500000E+03</pdfrwt>
<pdfrwt beam="2">  1       21 0.79353338E-01 0.12500000E+03</pdfrwt>
<totfact> 0.40804380E+06</totfact>
</mgrwt>
</event>
<event>
 3    1  0.1628330E-001  0.1250000E+03  0.7546771E-02  0.1235069E+00
         21   -1    0    0  502  501  0.00000000000E+00  0.00000000000E+00  0.80970662847E+01  0.80970662847E+01  0.00000000000E+00 0. -1.
         21   -1    0    0  501  502 -0.00000000000E+00 -0.00000000000E+00 -0.48242781554E+03  0.48242781554E+03  0.00000000000E+00 0. -1.
         25    1    1    2    0    0  0.00000000000E+00  0.00000000000E+00 -0.47433074925E+03  0.49052488182E+03  0.12500000000E+03 0.  0.
<mgrwt>
<rscale>  0 0.12500000E+03</rscale>
<asrwt>0</asrwt>
<pdfrwt beam="1">  1       21 0.12457024E-02 0.12500000E+03</pdfrwt>
<pdfrwt beam="2">  1       21 0.74219668E-01 0.12500000E+03</pdfrwt>
<totfact> 0.42562632E+06</totfact>
</mgrwt>
</event>
<event>
 3    1  0.1628330E-001  0.1250000E+03  0.7546771E-02  0.1235069E+00
         21   -1    0    0  502  501  0.00000000000E+00  0.00000000000E+00  0.18242176088E+03  0.18242176088E+03  0.00000000000E+00 0. -1.
         21   -1    0    0  501  502 -0.00000000000E+00 -0.00000000000E+00 -0.21413289627E+02  0.21413289627E+02  0.00000000000E+00 0. -1.
         25    1    1    2    0    0  0.00000000000E+00  0.00000000000E+00  0.16100847126E+03  0.20383505051E+03  0.12500000000E+03 0.  0.
<mgrwt>
<rscale>  0 0.12500000E+03</rscale>
<asrwt>0</asrwt>
<pdfrwt beam="1">  1       21 0.28064885E-01 0.12500000E+03</pdfrwt>
<pdfrwt beam="2">  1       21 0.32943524E-02 0.12500000E+03</pdfrwt>
<totfact> 0.64514053E+06</totfact>
</mgrwt>
</event>
<event>
 3    1  0.1628330E-001  0.1250000E+03  0.7546771E-02  0.1235069E+00
         21   -1    0    0  502  501  0.00000000000E+00  0.00000000000E+00  0.18103645353E+03  0.18103645353E+03  0.00000000000E+00 0. -1.
         21   -1    0    0  501  502 -0.00000000000E+00 -0.00000000000E+00 -0.21577146060E+02  0.21577146060E+02  0.00000000000E+00 0. -1.
         25    1    1    2    0    0  0.00000000000E+00  0.00000000000E+00  0.15945930747E+03  0.20261359959E+03  0.12500000000E+03 0.  0.
<mgrwt>
<rscale>  0 0.12500000E+03</rscale>
<asrwt>0</asrwt>
<pdfrwt beam="1">  1       21 0.27851761E-01 0.12500000E+03</pdfrwt>
<pdfrwt beam="2">  1       21 0.33195611E-02 0.12500000E+03</pdfrwt>
<totfact> 0.64645147E+06</totfact>
</mgrwt>
</event>
<event>
 3    1  0.1628330E-001  0.1250000E+03  0.7546771E-02  0.1235069E+00
         21   -1    0    0  502  501  0.00000000000E+00  0.00000000000E+00  0.32647225955E+03  0.32647225955E+03  0.00000000000E+00 0. -1.
         21   -1    0    0  501  502 -0.00000000000E+00 -0.00000000000E+00 -0.11965028837E+02  0.11965028837E+02  0.00000000000E+00 0. -1.
         25    1    1    2    0    0  0.00000000000E+00  0.00000000000E+00  0.31450723071E+03  0.33843728839E+03  0.12500000000E+03 0.  0.
<mgrwt>
<rscale>  0 0.12500000E+03</rscale>
<asrwt>0</asrwt>
<pdfrwt beam="1">  1       21 0.50226495E-01 0.12500000E+03</pdfrwt>
<pdfrwt beam="2">  1       21 0.18407739E-02 0.12500000E+03</pdfrwt>
<totfact> 0.52403878E+06</totfact>
</mgrwt>
</event>
<event>
 3    1  0.1628330E-001  0.1250000E+03  0.7546771E-02  0.1235069E+00
         21   -1    0    0  502  501  0.00000000000E+00  0.00000000000E+00  0.99858780846E+01  0.99858780846E+01  0.00000000000E+00 0. -1.
         21   -1    0    0  501  502 -0.00000000000E+00 -0.00000000000E+00 -0.39117741744E+03  0.39117741744E+03  0.00000000000E+00 0. -1.
         25    1    1    2    0    0  0.00000000000E+00  0.00000000000E+00 -0.38119153935E+03  0.40116329552E+03  0.12500000000E+03 0.  0.
<mgrwt>
<rscale>  0 0.12500000E+03</rscale>
<asrwt>0</asrwt>
<pdfrwt beam="1">  1       21 0.15362889E-02 0.12500000E+03</pdfrwt>
<pdfrwt beam="2">  1       21 0.60181143E-01 0.12500000E+03</pdfrwt>
<totfact> 0.47964286E+06</totfact>
</mgrwt>
</event>
<event>
 3    1  0.1628330E-001  0.1250000E+03  0.7546771E-02  0.1235069E+00
         21   -1    0    0  502  501  0.00000000000E+00  0.00000000000E+00  0.72353059467E+02  0.72353059467E+02  0.00000000000E+00 0. -1.
         21   -1    0    0  501  502 -0.00000000000E+00 -0.00000000000E+00 -0.53988732872E+02  0.53988732872E+02  0.00000000000E+00 0. -1.
         25    1    1    2    0    0  0.00000000000E+00  0.00000000000E+00  0.18364326595E+02  0.12634179234E+03  0.12500000000E+03 0.  0.
<mgrwt>
<rscale>  0 0.12500000E+03</rscale>
<asrwt>0</asrwt>
<pdfrwt beam="1">  1       21 0.11131240E-01 0.12500000E+03</pdfrwt>
<pdfrwt beam="2">  1       21 0.83059589E-02 0.12500000E+03</pdfrwt>
<totfact> 0.73859046E+06</totfact>
</mgrwt>
</event>
<event>
 3    1  0.1628330E-001  0.1250000E+03  0.7546771E-02  0.1235069E+00
         21   -1    0    0  502  501  0.00000000000E+00  0.00000000000E+00  0.13180328842E+03  0.13180328842E+03  0.00000000000E+00 0. -1.
         21   -1    0    0  501  502 -0.00000000000E+00 -0.00000000000E+00 -0.29636969206E+02  0.29636969206E+02  0.00000000000E+00 0. -1.
         25    1    1    2    0    0  0.00000000000E+00  0.00000000000E+00  0.10216631921E+03  0.16144025762E+03  0.12500000000E+03 0.  0.
<mgrwt>
<rscale>  0 0.12500000E+03</rscale>
<asrwt>0</asrwt>
<pdfrwt beam="1">  1       21 0.20277429E-01 0.12500000E+03</pdfrwt>
<pdfrwt beam="2">  1       21 0.45595338E-02 0.12500000E+03</pdfrwt>
<totfact> 0.69343939E+06</totfact>
</mgrwt>
</event>
<event>
 3    1  0.1628330E-001  0.1250000E+03  0.7546771E-02  0.1235069E+00
         21   -1    0    0  502  501  0.00000000000E+00  0.00000000000E+00  0.16847711478E+02  0.16847711478E+02  0.00000000000E+00 0. -1.
         21   -1    0    0  501  502 -0.00000000000E+00 -0.00000000000E+00 -0.23185641593E+03  0.23185641593E+03  0.00000000000E+00 0. -1.
         25    1    1    2    0    0  0.00000000000E+00  0.00000000000E+00 -0.21500870445E+03  0.24870412741E+03  0.12500000000E+03 0.  0.
<mgrwt>
<rscale>  0 0.12500000E+03</rscale>
<asrwt>0</asrwt>
<pdfrwt beam="1">  1       21 0.25919555E-02 0.12500000E+03</pdfrwt>
<pdfrwt beam="2">  1       21 0.35670219E-01 0.12500000E+03</pdfrwt>
<totfact> 0.60000408E+06</totfact>
</mgrwt>
</event>
<event>
 3    1  0.1628330E-001  0.1250000E+03  0.7546771E-02  0.1235069E+00
         21   -1    0    0  502  501  0.00000000000E+00  0.00000000000E+00  0.10521754103E+03  0.10521754103E+03  0.00000000000E+00 0.  1.
         21   -1    0    0  501  502 -0.00000000000E+00 -0.00000000000E+00 -0.37125463698E+02  0.37125463698E+02  0.00000000000E+00 0.  1.
         25    1    1    2    0    0  0.00000000000E+00  0.00000000000E+00  0.68092077335E+02  0.14234300473E+03  0.12500000000E+03 0.  0.
<mgrwt>
<rscale>  0 0.12500000E+03</rscale>
<asrwt>0</asrwt>
<pdfrwt beam="1">  1       21 0.16187314E-01 0.12500000E+03</pdfrwt>
<pdfrwt beam="2">  1       21 0.57116098E-02 0.12500000E+03</pdfrwt>
<totfact> 0.71734891E+06</totfact>
</mgrwt>
</event>
<event>
 3    1  0.1628330E-001  0.1250000E+03  0.7546771E-02  0.1235069E+00
         21   -1    0    0  502  501  0.00000000000E+00  0.00000000000E+00  0.28549548537E+02  0.28549548537E+02  0.00000000000E+00 0. -1.
         21   -1    0    0  501  502 -0.00000000000E+00 -0.00000000000E+00 -0.13682352962E+03  0.13682352962E+03  0.00000000000E+00 0. -1.
         25    1    1    2    0    0  0.00000000000E+00  0.00000000000E+00 -0.10827398109E+03  0.16537307816E+03  0.12500000000E+03 0.  0.
<mgrwt>
<rscale>  0 0.12500000E+03</rscale>
<asrwt>0</asrwt>
<pdfrwt beam="1">  1       21 0.43922382E-02 0.12500000E+03</pdfrwt>
<pdfrwt beam="2">  1       21 0.21049774E-01 0.12500000E+03</pdfrwt>
<totfact> 0.68868851E+06</totfact>
</mgrwt>
</event>
<event>
 3    1  0.1628330E-001  0.1250000E+03  0.7546771E-02  0.1235069E+00
         21   -1    0    0  502  501  0.00000000000E+00  0.00000000000E+00  0.27135300650E+03  0.27135300650E+03  0.00000000000E+00 0. -1.
         21   -1    0    0  501  502 -0.00000000000E+00 -0.00000000000E+00 -0.14395455021E+02  0.14395455021E+02  0.00000000000E+00 0. -1.
         25    1    1    2    0    0  0.00000000000E+00  0.00000000000E+00  0.25695755148E+03  0.28574846152E+03  0.12500000000E+03 0.  0.
<mgrwt>
<rscale>  0 0.12500000E+03</rscale>
<asrwt>0</asrwt>
<pdfrwt beam="1">  1       21 0.41746613E-01 0.12500000E+03</pdfrwt>
<pdfrwt beam="2">  1       21 0.22146856E-02 0.12500000E+03</pdfrwt>
<totfact> 0.56661728E+06</totfact>
</mgrwt>
</event>
<event>
 3    1  0.1628330E-001  0.1250000E+03  0.7546771E-02  0.1235069E+00
         21   -1    0    0  502  501  0.00000000000E+00  0.00000000000E+00  0.36283660696E+01  0.36283660696E+01  0.00000000000E+00 0.  1.
         21   -1    0    0  501  502 -0.00000000000E+00 -0.00000000000E+00 -0.10765865200E+04  0.10765865200E+04  0.00000000000E+00 0.  1.
         25    1    1    2    0    0  0.00000000000E+00  0.00000000000E+00 -0.10729581539E+04  0.10802148860E+04  0.12500000000E+03 0.  0.
<mgrwt>
<rscale>  0 0.12500000E+03</rscale>
<asrwt>0</asrwt>
<pdfrwt beam="1">  1       21 0.55821037E-03 0.12500000E+03</pdfrwt>
<pdfrwt beam="2">  1       21 0.16562863E+00 0.12500000E+03</pdfrwt>
<totfact> 0.21696884E+06</totfact>
</mgrwt>
</event>
<event>
 3    1  0.1628330E-001  0.1250000E+03  0.7546771E-02  0.1235069E+00
         21   -1    0    0  502  501  0.00000000000E+00  0.00000000000E+00  0.28087201167E+03  0.28087201167E+03  0.00000000000E+00 0.  1.
         21   -1    0    0  501  502 -0.00000000000E+00 -0.00000000000E+00 -0.13907580099E+02  0.13907580099E+02  0.00000000000E+00 0.  1.
         25    1    1    2    0    0  0.00000000000E+00  0.00000000000E+00  0.26696443157E+03  0.29477959177E+03  0.12500000000E+03 0.  0.
<mgrwt>
<rscale>  0 0.12500000E+03</rscale>
<asrwt>0</asrwt>
<pdfrwt beam="1">  1       21 0.43211075E-01 0.12500000E+03</pdfrwt>
<pdfrwt beam="2">  1       21 0.21396279E-02 0.12500000E+03</pdfrwt>
<totfact> 0.55892821E+06</totfact>
</mgrwt>
</event>
<event>
 3    1  0.1628330E-001  0.1250000E+03  0.7546771E-02  0.1235069E+00
         21   -1    0    0  502  501  0.00000000000E+00  0.00000000000E+00  0.12017905720E+03  0.12017905720E+03  0.00000000000E+00 0. -1.
         21   -1    0    0  501  502 -0.00000000000E+00 -0.00000000000E+00 -0.32503583328E+02  0.32503583328E+02  0.00000000000E+00 0. -1.
         25    1    1    2    0    0  0.00000000000E+00  0.00000000000E+00  0.87675473871E+02  0.15268264053E+03  0.12500000000E+03 0.  0.
<mgrwt>
<rscale>  0 0.12500000E+03</rscale>
<asrwt>0</asrwt>
<pdfrwt beam="1">  1       21 0.18489086E-01 0.12500000E+03</pdfrwt>
<pdfrwt beam="2">  1       21 0.50005513E-02 0.12500000E+03</pdfrwt>
<totfact> 0.70423817E+06</totfact>
</mgrwt>
</event>
<event>
 3    1  0.1628330E-001  0.1250000E+03  0.7546771E-02  0.1235069E+00
         21   -1    0    0  502  501  0.00000000000E+00  0.00000000000E+00  0.11264240575E+03  0.11264240575E+03  0.00000000000E+00 0. -1.
         21   -1    0    0  501  502 -0.00000000000E+00 -0.00000000000E+00 -0.34678325398E+02  0.34678325398E+02  0.00000000000E+00 0. -1.
         25    1    1    2    0    0  0.00000000000E+00  0.00000000000E+00  0.77964080348E+02  0.14732073114E+03  0.12500000000E+03 0.  0.
<mgrwt>
<rscale>  0 0.12500000E+03</rscale>
<asrwt>0</asrwt>
<pdfrwt beam="1">  1       21 0.17329601E-01 0.12500000E+03</pdfrwt>
<pdfrwt beam="2">  1       21 0.53351270E-02 0.12500000E+03</pdfrwt>
<totfact> 0.71097411E+06</totfact>
</mgrwt>
</event>
<event>
 3    1  0.1628330E-001  0.1250000E+03  0.7546771E-02  0.1235069E+00
         21   -1    0    0  502  501  0.00000000000E+00  0.00000000000E+00  0.36800506575E+01  0.36800506575E+01  0.00000000000E+00 0.  1.
         21   -1    0    0  501  502 -0.00000000000E+00 -0.00000000000E+00 -0.10614663665E+04  0.10614663665E+04  0.00000000000E+00 0.  1.
         25    1    1    2    0    0  0.00000000000E+00  0.00000000000E+00 -0.10577863159E+04  0.10651464172E+04  0.12500000000E+03 0.  0.
<mgrwt>
<rscale>  0 0.12500000E+03</rscale>
<asrwt>0</asrwt>
<pdfrwt beam="1">  1       21 0.56616115E-03 0.12500000E+03</pdfrwt>
<pdfrwt beam="2">  1       21 0.16330266E+00 0.12500000E+03</pdfrwt>
<totfact> 0.22043647E+06</totfact>
</mgrwt>
</event>
<event>
 3    1  0.1628330E-001  0.1250000E+03  0.7546771E-02  0.1235069E+00
         21   -1    0    0  502  501  0.00000000000E+00  0.00000000000E+00  0.47380058102E+03  0.47380058102E+03  0.00000000000E+00 0. -1.
         21   -1    0    0  501  502 -0.00000000000E+00 -0.00000000000E+00 -0.82445023422E+01  0.82445023422E+01  0.00000000000E+00 0. -1.
         25    1    1    2    0    0  0.00000000000E+00  0.00000000000E+00  0.46555607868E+03  0.48204508337E+03  0.12500000000E+03 0.  0.
<mgrwt>
<rscale>  0 0.12500000E+03</rscale>
<asrwt>0</asrwt>
<pdfrwt beam="1">  1       21 0.72892376E-01 0.12500000E+03</pdfrwt>
<pdfrwt beam="2">  1       21 0.12683853E-02 0.12500000E+03</pdfrwt>
<totfact> 0.43034857E+06</totfact>
</mgrwt>
</event>
<event>
 3    1  0.1628330E-001  0.1250000E+03  0.7546771E-02  0.1235069E+00
         21   -1    0    0  502  501  0.00000000000E+00  0.00000000000E+00  0.39569071526E+02  0.39569071526E+02  0.00000000000E+00 0.  1.
         21   -1    0    0  501  502 -0.00000000000E+00 -0.00000000000E+00 -0.98719779094E+02  0.98719779094E+02  0.00000000000E+00 0.  1.
         25    1    1    2    0    0  0.00000000000E+00  0.00000000000E+00 -0.59150707568E+02  0.13828885062E+03  0.12500000000E+03 0.  0.
<mgrwt>
<rscale>  0 0.12500000E+03</rscale>
<asrwt>0</asrwt>
<pdfrwt beam="1">  1       21 0.60875496E-02 0.12500000E+03</pdfrwt>
<pdfrwt beam="2">  1       21 0.15187658E-01 0.12500000E+03</pdfrwt>
<totfact> 0.72263490E+06</totfact>
</mgrwt>
</event>
<event>
 3    1  0.1628330E-001  0.1250000E+03  0.7546771E-02  0.1235069E+00
         21   -1    0    0  502  501  0.00000000000E+00  0.00000000000E+00  0.48531563918E+03  0.48531563918E+03  0.00000000000E+00 0. -1.
         21   -1    0    0  501  502 -0.00000000000E+00 -0.00000000000E+00 -0.80488854771E+01  0.80488854771E+01  0.00000000000E+00 0. -1.
         25    1    1    2    0    0  0.00000000000E+00  0.00000000000E+00  0.47726675370E+03  0.49336452466E+03  0.12500000000E+03 0.  0.
<mgrwt>
<rscale>  0 0.12500000E+03</rscale>
<asrwt>0</asrwt>
<pdfrwt beam="1">  1       21 0.74663921E-01 0.12500000E+03</pdfrwt>
<pdfrwt beam="2">  1       21 0.12382905E-02 0.12500000E+03</pdfrwt>
<totfact> 0.42406237E+06</totfact>
</mgrwt>
</event>
<event>
 3    1  0.1628330E-001  0.1250000E+03  0.7546771E-02  0.1235069E+00
         21   -1    0    0  502  501  0.00000000000E+00  0.00000000000E+00  0.11209717350E+03  0.11209717350E+03  0.00000000000E+00 0. -1.
         21   -1    0    0  501  502 -0.00000000000E+00 -0.00000000000E+00 -0.34846998172E+02  0.34846998172E+02  0.00000000000E+00 0. -1.
         25    1    1    2    0    0  0.00000000000E+00  0.00000000000E+00  0.77250175327E+02  0.14694417167E+03  0.12500000000E+03 0.  0.
<mgrwt>
<rscale>  0 0.12500000E+03</rscale>
<asrwt>0</asrwt>
<pdfrwt beam="1">  1       21 0.17245719E-01 0.12500000E+03</pdfrwt>
<pdfrwt beam="2">  1       21 0.53610767E-02 0.12500000E+03</pdfrwt>
<totfact> 0.71145213E+06</totfact>
</mgrwt>
</event>
<event>
 3    1  0.1628330E-001  0.1250000E+03  0.7546771E-02  0.1235069E+00
         21   -1    0    0  502  501  0.00000000000E+00  0.00000000000E+00  0.12614647024E+03  0.12614647024E+03  0.00000000000E+00 0. -1.
         21   -1    0    0  501  502 -0.00000000000E+00 -0.00000000000E+00 -0.30965987335E+02  0.30965987335E+02  0.00000000000E+00 0. -1.
         25    1    1    2    0    0  0.00000000000E+00  0.00000000000E+00  0.95180482909E+02  0.15711245758E+03  0.12500000000E+03 0.  0.
<mgrwt>
<rscale>  0 0.12500000E+03</rscale>
<asrwt>0</asrwt>
<pdfrwt beam="1">  1       21 0.19407149E-01 0.12500000E+03</pdfrwt>
<pdfrwt beam="2">  1       21 0.47639981E-02 0.12500000E+03</pdfrwt>
<totfact> 0.69874055E+06</totfact>
</mgrwt>
</event>
<event>
 3    1  0.1628330E-001  0.1250000E+03  0.7546771E-02  0.1235069E+00
         21   -1    0    0  502  501  0.00000000000E+00  0.00000000000E+00  0.31355135025E+03  0.31355135025E+03  0.00000000000E+00 0. -1.
         21   -1    0    0  501  502 -0.00000000000E+00 -0.00000000000E+00 -0.12458086999E+02  0.12458086999E+02  0.00000000000E+00 0. -1.
         25    1    1    2    0    0  0.00000000000E+00  0.00000000000E+00  0.30109326325E+03  0.32600943725E+03  0.12500000000E+03 0.  0.
<mgrwt>
<rscale>  0 0.12500000E+03</rscale>
<asrwt>0</asrwt>
<pdfrwt beam="1">  1       21 0.48238663E-01 0.12500000E+03</pdfrwt>
<pdfrwt beam="2">  1       21 0.19166290E-02 0.12500000E+03</pdfrwt>
<totfact> 0.53360538E+06</totfact>
</mgrwt>
</event>
<event>
 3    1  0.1628330E-001  0.1250000E+03  0.7546771E-02  0.1235069E+00
         21   -1    0    0  502  501  0.00000000000E+00  0.00000000000E+00  0.40562698075E+03  0.40562698075E+03  0.00000000000E+00 0. -1.
         21   -1    0    0  501  502 -0.00000000000E+00 -0.00000000000E+00 -0.96301532821E+01  0.96301532821E+01  0.00000000000E+00 0. -1.
         25    1    1    2    0    0  0.00000000000E+00  0.00000000000E+00  0.39599682747E+03  0.41525713403E+03  0.12500000000E+03 0.  0.
<mgrwt>
<rscale>  0 0.12500000E+03</rscale>
<asrwt>0</asrwt>
<pdfrwt beam="1">  1       21 0.62404138E-01 0.12500000E+03</pdfrwt>
<pdfrwt beam="2">  1       21 0.14815624E-02 0.12500000E+03</pdfrwt>
<totfact> 0.47045563E+06</totfact>
</mgrwt>
</event>
<event>
 3    1  0.1628330E-001  0.1250000E+03  0.7546771E-02  0.1235069E+00
         21   -1    0    0  502  501  0.00000000000E+00  0.00000000000E+00  0.35727989507E+02  0.35727989507E+02  0.00000000000E+00 0. -1.
         21   -1    0    0  501  502 -0.00000000000E+00 -0.00000000000E+00 -0.10933304823E+03  0.10933304823E+03  0.00000000000E+00 0. -1.
         25    1    1    2    0    0  0.00000000000E+00  0.00000000000E+00 -0.73605058726E+02  0.14506103774E+03  0.12500000000E+03 0.  0.
<mgrwt>
<rscale>  0 0.12500000E+03</rscale>
<asrwt>0</asrwt>
<pdfrwt beam="1">  1       21 0.54966137E-02 0.12500000E+03</pdfrwt>
<pdfrwt beam="2">  1       21 0.16820469E-01 0.12500000E+03</pdfrwt>
<totfact> 0.71385288E+06</totfact>
</mgrwt>
</event>
<event>
 3    1  0.1628330E-001  0.1250000E+03  0.7546771E-02  0.1235069E+00
         21   -1    0    0  502  501  0.00000000000E+00  0.00000000000E+00  0.32225714621E+03  0.32225714621E+03  0.00000000000E+00 0.  1.
         21   -1    0    0  501  502 -0.00000000000E+00 -0.00000000000E+00 -0.12121531038E+02  0.12121531038E+02  0.00000000000E+00 0.  1.
         25    1    1    2    0    0  0.00000000000E+00  0.00000000000E+00  0.31013561517E+03  0.33437867725E+03  0.12500000000E+03 0.  0.
<mgrwt>
<rscale>  0 0.12500000E+03</rscale>
<asrwt>0</asrwt>
<pdfrwt beam="1">  1       21 0.49578016E-01 0.12500000E+03</pdfrwt>
<pdfrwt beam="2">  1       21 0.18648512E-02 0.12500000E+03</pdfrwt>
<totfact> 0.52713223E+06</totfact>
</mgrwt>
</event>
<event>
 3    1  0.1628330E-001  0.1250000E+03  0.7546771E-02  0.1235069E+00
         21   -1    0    0  502  501  0.00000000000E+00  0.00000000000E+00  0.72378384558E+01  0.72378384558E+01  0.00000000000E+00 0. -1.
         21   -1    0    0  501  502 -0.00000000000E+00 -0.00000000000E+00 -0.53969842293E+03  0.53969842293E+03  0.00000000000E+00 0. -1.
         25    1    1    2    0    0  0.00000000000E+00  0.00000000000E+00 -0.53246058447E+03  0.54693626138E+03  0.12500000000E+03 0.  0.
<mgrwt>
<rscale>  0 0.12500000E+03</rscale>
<asrwt>0</asrwt>
<pdfrwt beam="1">  1       21 0.11135138E-02 0.12500000E+03</pdfrwt>
<pdfrwt beam="2">  1       21 0.83030512E-01 0.12500000E+03</pdfrwt>
<totfact> 0.39607886E+06</totfact>
</mgrwt>
</event>
<event>
 3    1  0.1628330E-001  0.1250000E+03  0.7546771E-02  0.1235069E+00
         21   -1    0    0  502  501  0.00000000000E+00  0.00000000000E+00  0.38471028662E+02  0.38471028662E+02  0.00000000000E+00 0.  1.
         21   -1    0    0  501  502 -0.00000000000E+00 -0.00000000000E+00 -0.10153744612E+03  0.10153744612E+03  0.00000000000E+00 0.  1.
         25    1    1    2    0    0  0.00000000000E+00  0.00000000000E+00 -0.63066417459E+02  0.14000847478E+03  0.12500000000E+03 0.  0.
<mgrwt>
<rscale>  0 0.12500000E+03</rscale>
<asrwt>0</asrwt>
<pdfrwt beam="1">  1       21 0.59186198E-02 0.12500000E+03</pdfrwt>
<pdfrwt beam="2">  1       21 0.15621145E-01 0.12500000E+03</pdfrwt>
<totfact> 0.72038202E+06</totfact>
</mgrwt>
</event>
<event>
 3    1  0.1628330E-001  0.1250000E+03  0.7546771E-02  0.1235069E+00
         21   -1    0    0  502  501  0.00000000000E+00  0.00000000000E+00  0.17855507709E+02  0.17855507709E+02  0.00000000000E+00 0. -1.
         21   -1    0    0  501  502 -0.00000000000E+00 -0.00000000000E+00 -0.21877003240E+03  0.21877003240E+03  0.00000000000E+00 0. -1.
         25    1    1    2    0    0  0.00000000000E+00  0.00000000000E+00 -0.20091452469E+03  0.23662554011E+03  0.12500000000E+03 0.  0.
<mgrwt>
<rscale>  0 0.12500000E+03</rscale>
<asrwt>0</asrwt>
<pdfrwt beam="1">  1       21 0.27470012E-02 0.12500000E+03</pdfrwt>
<pdfrwt beam="2">  1       21 0.33656928E-01 0.12500000E+03</pdfrwt>
<totfact> 0.61160738E+06</totfact>
</mgrwt>
</event>
<event>
 3    1  0.1628330E-001  0.1250000E+03  0.7546771E-02  0.1235069E+00
         21   -1    0    0  502  501  0.00000000000E+00  0.00000000000E+00  0.25774123866E+03  0.25774123866E+03  0.00000000000E+00 0. -1.
         21   -1    0    0  501  502 -0.00000000000E+00 -0.00000000000E+00 -0.15155704304E+02  0.15155704304E+02  0.00000000000E+00 0. -1.
         25    1    1    2    0    0  0.00000000000E+00  0.00000000000E+00  0.24258553436E+03  0.27289694296E+03  0.12500000000E+03 0.  0.
<mgrwt>
<rscale>  0 0.12500000E+03</rscale>
<asrwt>0</asrwt>
<pdfrwt beam="1">  1       21 0.39652495E-01 0.12500000E+03</pdfrwt>
<pdfrwt beam="2">  1       21 0.23316470E-02 0.12500000E+03</pdfrwt>
<totfact> 0.57786534E+06</totfact>
</mgrwt>
</event>
<event>
 3    1  0.1628330E-001  0.1250000E+03  0.7546771E-02  0.1235069E+00
         21   -1    0    0  502  501  0.00000000000E+00  0.00000000000E+00  0.34143506243E+01  0.34143506243E+01  0.00000000000E+00 0. -1.
         21   -1    0    0  501  502 -0.00000000000E+00 -0.00000000000E+00 -0.11440682079E+04  0.11440682079E+04  0.00000000000E+00 0. -1.
         25    1    1    2    0    0  0.00000000000E+00  0.00000000000E+00 -0.11406538573E+04  0.11474825585E+04  0.12500000000E+03 0.  0.
<mgrwt>
<rscale>  0 0.12500000E+03</rscale>
<asrwt>0</asrwt>
<pdfrwt beam="1">  1       21 0.52528462E-03 0.12500000E+03</pdfrwt>
<pdfrwt beam="2">  1       21 0.17601052E+00 0.12500000E+03</pdfrwt>
<totfact> 0.20222386E+06</totfact>
</mgrwt>
</event>
<event>
 3    1  0.1628330E-001  0.1250000E+03  0.7546771E-02  0.1235069E+00
         21   -1    0    0  502  501  0.00000000000E+00  0.00000000000E+00  0.30377359688E+01  0.30377359688E+01  0.00000000000E+00 0.  1.
         21   -1    0    0  501  502 -0.00000000000E+00 -0.00000000000E+00 -0.12859083344E+04  0.12859083344E+04  0.00000000000E+00 0.  1.
         25    1    1    2    0    0  0.00000000000E+00  0.00000000000E+00 -0.12828705984E+04  0.12889460704E+04  0.12500000000E+03 0.  0.
<mgrwt>
<rscale>  0 0.12500000E+03</rscale>
<asrwt>0</asrwt>
<pdfrwt beam="1">  1       21 0.46734433E-03 0.12500000E+03</pdfrwt>
<pdfrwt beam="2">  1       21 0.19783191E+00 0.12500000E+03</pdfrwt>
<totfact> 0.17452011E+06</totfact>
</mgrwt>
</event>
<event>
 3    1  0.1628330E-001  0.1250000E+03  0.7546771E-02  0.1235069E+00
         21   -1    0    0  502  501  0.00000000000E+00  0.00000000000E+00  0.10592730964E+02  0.10592730964E+02  0.00000000000E+00 0. -1.
         21   -1    0    0  501  502 -0.00000000000E+00 -0.00000000000E+00 -0.36876703593E+03  0.36876703593E+03  0.00000000000E+00 0. -1.
         25    1    1    2    0    0  0.00000000000E+00  0.00000000000E+00 -0.35817430497E+03  0.37935976689E+03  0.12500000000E+03 0.  0.
<mgrwt>
<rscale>  0 0.12500000E+03</rscale>
<asrwt>0</asrwt>
<pdfrwt beam="1">  1       21 0.16296511E-02 0.12500000E+03</pdfrwt>
<pdfrwt beam="2">  1       21 0.56733384E-01 0.12500000E+03</pdfrwt>
<totfact> 0.49440575E+06</totfact>
</mgrwt>
</event>
<event>
 3    1  0.1628330E-001  0.1250000E+03  0.7546771E-02  0.1235069E+00
         21   -1    0    0  502  501  0.00000000000E+00  0.00000000000E+00  0.30865722462E+03  0.30865722462E+03  0.00000000000E+00 0.  1.
         21   -1    0    0  501  502 -0.00000000000E+00 -0.00000000000E+00 -0.12655624714E+02  0.12655624714E+02  0.00000000000E+00 0.  1.
         25    1    1    2    0    0  0.00000000000E+00  0.00000000000E+00  0.29600159990E+03  0.32131284933E+03  0.12500000000E+03 0.  0.
<mgrwt>
<rscale>  0 0.12500000E+03</rscale>
<asrwt>0</asrwt>
<pdfrwt beam="1">  1       21 0.47485721E-01 0.12500000E+03</pdfrwt>
<pdfrwt beam="2">  1       21 0.19470194E-02 0.12500000E+03</pdfrwt>
<totfact> 0.53729472E+06</totfact>
</mgrwt>
</event>
<event>
 3    1  0.1628330E-001  0.1250000E+03  0.7546771E-02  0.1235069E+00
         21   -1    0    0  502  501  0.00000000000E+00  0.00000000000E+00  0.31646874987E+01  0.31646874987E+01  0.00000000000E+00 0.  1.
         21   -1    0    0  501  502 -0.00000000000E+00 -0.00000000000E+00 -0.12343240847E+04  0.12343240847E+04  0.00000000000E+00 0.  1.
         25    1    1    2    0    0  0.00000000000E+00  0.00000000000E+00 -0.12311593972E+04  0.12374887722E+04  0.12500000000E+03 0.  0.
<mgrwt>
<rscale>  0 0.12500000E+03</rscale>
<asrwt>0</asrwt>
<pdfrwt beam="1">  1       21 0.48687506E-03 0.12500000E+03</pdfrwt>
<pdfrwt beam="2">  1       21 0.18989599E+00 0.12500000E+03</pdfrwt>
<totfact> 0.18411962E+06</totfact>
</mgrwt>
</event>
<event>
 3    1  0.1628330E-001  0.1250000E+03  0.7546771E-02  0.1235069E+00
         21   -1    0    0  502  501  0.00000000000E+00  0.00000000000E+00  0.44193536160E+03  0.44193536160E+03  0.00000000000E+00 0. -1.
         21   -1    0    0  501  502 -0.00000000000E+00 -0.00000000000E+00 -0.88389622995E+01  0.88389622995E+01  0.00000000000E+00 0. -1.
         25    1    1    2    0    0  0.00000000000E+00  0.00000000000E+00  0.43309639930E+03  0.45077432390E+03  0.12500000000E+03 0.  0.
<mgrwt>
<rscale>  0 0.12500000E+03</rscale>
<asrwt>0</asrwt>
<pdfrwt beam="1">  1       21 0.67990038E-01 0.12500000E+03</pdfrwt>
<pdfrwt beam="2">  1       21 0.13598407E-02 0.12500000E+03</pdfrwt>
<totfact> 0.44845978E+06</totfact>
</mgrwt>
</event>
<event>
 3    1  0.1628330E-001  0.1250000E+03  0.7546771E-02  0.1235069E+00
         21   -1    0    0  502  501  0.00000000000E+00  0.00000000000E+00  0.52891819454E+01  0.52891819454E+01  0.00000000000E+00 0.  1.
         21   -1    0    0  501  502 -0.00000000000E+00 -0.00000000000E+00 -0.73853575851E+03  0.73853575851E+03  0.00000000000E+00 0.  1.
         25    1    1    2    0    0  0.00000000000E+00  0.00000000000E+00 -0.73324657657E+03  0.74382494046E+03  0.12500000000E+03 0.  0.
<mgrwt>
<rscale>  0 0.12500000E+03</rscale>
<asrwt>0</asrwt>
<pdfrwt beam="1">  1       21 0.81372030E-03 0.12500000E+03</pdfrwt>
<pdfrwt beam="2">  1       21 0.11362089E+00 0.12500000E+03</pdfrwt>
<totfact> 0.31287245E+06</totfact>
</mgrwt>
</event>
<event>
 3    1  0.1628330E-001  0.1250000E+03  0.7546771E-02  0.1235069E+00
         21   -1    0    0  502  501  0.00000000000E+00  0.00000000000E+00  0.19592774441E+01  0.19592774441E+01  0.00000000000E+00 0.  1.
         21   -1    0    0  501  502 -0.00000000000E+00 -0.00000000000E+00 -0.19937196806E+04  0.19937196806E+04  0.00000000000E+00 0.  1.
         25    1    1    2    0    0  0.00000000000E+00  0.00000000000E+00 -0.19917604032E+04  0.19956789580E+04  0.12500000000E+03 0.  0.
<mgrwt>
<rscale>  0 0.12500000E+03</rscale>
<asrwt>0</asrwt>
<pdfrwt beam="1">  1       21 0.30142778E-03 0.12500000E+03</pdfrwt>
<pdfrwt beam="2">  1       21 0.30672561E+00 0.12500000E+03</pdfrwt>
<totfact> 0.79901889E+05</totfact>
</mgrwt>
</event>
<event>
 3    1  0.1628330E-001  0.1250000E+03  0.7546771E-02  0.1235069E+00
         21   -1    0    0  502  501  0.00000000000E+00  0.00000000000E+00  0.80594110888E+01  0.80594110888E+01  0.00000000000E+00 0. -1.
         21   -1    0    0  501  502 -0.00000000000E+00 -0.00000000000E+00 -0.48468181570E+03  0.48468181570E+03  0.00000000000E+00 0. -1.
         25    1    1    2    0    0  0.00000000000E+00  0.00000000000E+00 -0.47662240461E+03  0.49274122679E+03  0.12500000000E+03 0.  0.
<mgrwt>
<rscale>  0 0.12500000E+03</rscale>
<asrwt>0</asrwt>
<pdfrwt beam="1">  1       21 0.12399097E-02 0.12500000E+03</pdfrwt>
<pdfrwt beam="2">  1       21 0.74566417E-01 0.12500000E+03</pdfrwt>
<totfact> 0.42440491E+06</totfact>
</mgrwt>
</event>
<event>
 3    1  0.1628330E-001  0.1250000E+03  0.7546771E-02  0.1235069E+00
         21   -1    0    0  502  501  0.00000000000E+00  0.00000000000E+00  0.11851787485E+03  0.11851787485E+03  0.00000000000E+00 0. -1.
         21   -1    0    0  501  502 -0.00000000000E+00 -0.00000000000E+00 -0.32959163374E+02  0.32959163374E+02  0.00000000000E+00 0. -1.
         25    1    1    2    0    0  0.00000000000E+00  0.00000000000E+00  0.85558711477E+02  0.15147703823E+03  0.12500000000E+03 0.  0.
<mgrwt>
<rscale>  0 0.12500000E+03</rscale>
<asrwt>0</asrwt>
<pdfrwt beam="1">  1       21 0.18233519E-01 0.12500000E+03</pdfrwt>
<pdfrwt beam="2">  1       21 0.50706406E-02 0.12500000E+03</pdfrwt>
<totfact> 0.70574148E+06</totfact>
</mgrwt>
</event>
<event>
 3    1  0.1628330E-001  0.1250000E+03  0.7546771E-02  0.1235069E+00
         21   -1    0    0  502  501  0.00000000000E+00  0.00000000000E+00  0.39373761328E+03  0.39373761328E+03  0.00000000000E+00 0. -1.
         21   -1    0    0  501  502 -0.00000000000E+00 -0.00000000000E+00 -0.99209470171E+01  0.99209470171E+01  0.00000000000E+00 0. -1.
         25    1    1    2    0    0  0.00000000000E+00  0.00000000000E+00  0.38381666627E+03  0.40365856030E+03  0.12500000000E+03 0.  0.
<mgrwt>
<rscale>  0 0.12500000E+03</rscale>
<asrwt>0</asrwt>
<pdfrwt beam="1">  1       21 0.60575005E-01 0.12500000E+03</pdfrwt>
<pdfrwt beam="2">  1       21 0.15262998E-02 0.12500000E+03</pdfrwt>
<totfact> 0.47799630E+06</totfact>
</mgrwt>
</event>
<event>
 3    1  0.1628330E-001  0.1250000E+03  0.7546771E-02  0.1235069E+00
         21   -1    0    0  502  501  0.00000000000E+00  0.00000000000E+00  0.17639116956E+03  0.17639116956E+03  0.00000000000E+00 0.  1.
         21   -1    0    0  501  502 -0.00000000000E+00 -0.00000000000E+00 -0.22145382956E+02  0.22145382956E+02  0.00000000000E+00 0.  1.
         25    1    1    2    0    0  0.00000000000E+00  0.00000000000E+00  0.15424578661E+03  0.19853655252E+03  0.12500000000E+03 0.  0.
<mgrwt>
<rscale>  0 0.12500000E+03</rscale>
<asrwt>0</asrwt>
<pdfrwt beam="1">  1       21 0.27137102E-01 0.12500000E+03</pdfrwt>
<pdfrwt beam="2">  1       21 0.34069821E-02 0.12500000E+03</pdfrwt>
<totfact> 0.65086021E+06</totfact>
</mgrwt>
</event>
<event>
 3    1  0.1628330E-001  0.1250000E+03  0.7546771E-02  0.1235069E+00
         21   -1    0    0  502  501  0.00000000000E+00  0.00000000000E+00  0.49898463466E+02  0.49898463466E+02  0.00000000000E+00 0. -1.
         21   -1    0    0  501  502 -0.00000000000E+00 -0.00000000000E+00 -0.78283973667E+02  0.78283973667E+02  0.00000000000E+00 0. -1.
         25    1    1    2    0    0  0.00000000000E+00  0.00000000000E+00 -0.28385510201E+02  0.12818243713E+03  0.12500000000E+03 0.  0.
<mgrwt>
<rscale>  0 0.12500000E+03</rscale>
<asrwt>0</asrwt>
<pdfrwt beam="1">  1       21 0.76766867E-02 0.12500000E+03</pdfrwt>
<pdfrwt beam="2">  1       21 0.12043688E-01 0.12500000E+03</pdfrwt>
<totfact> 0.73608929E+06</totfact>
</mgrwt>
</event>
<event>
 3    1  0.1628330E-001  0.1250000E+03  0.7546771E-02  0.1235069E+00
         21   -1    0    0  502  501  0.00000000000E+00  0.00000000000E+00  0.11476430454E+04  0.11476430454E+04  0.00000000000E+00 0. -1.
         21   -1    0    0  501  502 -0.00000000000E+00 -0.00000000000E+00 -0.34037151324E+01  0.34037151324E+01  0.00000000000E+00 0. -1.
         25    1    1    2    0    0  0.00000000000E+00  0.00000000000E+00  0.11442393302E+04  0.11510467605E+04  0.12500000000E+03 0.  0.
<mgrwt>
<rscale>  0 0.12500000E+03</rscale>
<asrwt>0</asrwt>
<pdfrwt beam="1">  1       21 0.17656016E+00 0.12500000E+03</pdfrwt>
<pdfrwt beam="2">  1       21 0.52364940E-03 0.12500000E+03</pdfrwt>
<totfact> 0.20147103E+06</totfact>
</mgrwt>
</event>
<event>
 3    1  0.1628330E-001  0.1250000E+03  0.7546771E-02  0.1235069E+00
         21   -1    0    0  502  501  0.00000000000E+00  0.00000000000E+00  0.14360557650E+02  0.14360557650E+02  0.00000000000E+00 0. -1.
         21   -1    0    0  501  502 -0.00000000000E+00 -0.00000000000E+00 -0.27201241730E+03  0.27201241730E+03  0.00000000000E+00 0. -1.
         25    1    1    2    0    0  0.00000000000E+00  0.00000000000E+00 -0.25765185965E+03  0.28637297495E+03  0.12500000000E+03 0.  0.
<mgrwt>
<rscale>  0 0.12500000E+03</rscale>
<asrwt>0</asrwt>
<pdfrwt beam="1">  1       21 0.22093166E-02 0.12500000E+03</pdfrwt>
<pdfrwt beam="2">  1       21 0.41848063E-01 0.12500000E+03</pdfrwt>
<totfact> 0.56607994E+06</totfact>
</mgrwt>
</event>
<event>
 3    1  0.1628330E-001  0.1250000E+03  0.7546771E-02  0.1235069E+00
         21   -1    0    0  502  501  0.00000000000E+00  0.00000000000E+00  0.14576398000E+04  0.14576398000E+04  0.00000000000E+00 0. -1.
         21   -1    0    0  501  502 -0.00000000000E+00 -0.00000000000E+00 -0.26798458713E+01  0.26798458713E+01  0.00000000000E+00 0. -1.
         25    1    1    2    0    0  0.00000000000E+00  0.00000000000E+00  0.14549599542E+04  0.14603196459E+04  0.12500000000E+03 0.  0.
<mgrwt>
<rscale>  0 0.12500000E+03</rscale>
<asrwt>0</asrwt>
<pdfrwt beam="1">  1       21 0.22425164E+00 0.12500000E+03</pdfrwt>
<pdfrwt beam="2">  1       21 0.41228514E-03 0.12500000E+03</pdfrwt>
<totfact> 0.14591568E+06</totfact>
</mgrwt>
</event>
<event>
 3    1  0.1628330E-001  0.1250000E+03  0.7546771E-02  0.1235069E+00
         21   -1    0    0  502  501  0.00000000000E+00  0.00000000000E+00  0.15039340198E+02  0.15039340198E+02  0.00000000000E+00 0. -1.
         21   -1    0    0  501  502 -0.00000000000E+00 -0.00000000000E+00 -0.25973546369E+03  0.25973546369E+03  0.00000000000E+00 0. -1.
         25    1    1    2    0    0  0.00000000000E+00  0.00000000000E+00 -0.24469612349E+03  0.27477480389E+03  0.12500000000E+03 0.  0.
<mgrwt>
<rscale>  0 0.12500000E+03</rscale>
<asrwt>0</asrwt>
<pdfrwt beam="1">  1       21 0.23137445E-02 0.12500000E+03</pdfrwt>
<pdfrwt beam="2">  1       21 0.39959304E-01 0.12500000E+03</pdfrwt>
<totfact> 0.57619871E+06</totfact>
</mgrwt>
</event>
<event>
 3    1  0.1628330E-001  0.1250000E+03  0.7546771E-02  0.1235069E+00
         21   -1    0    0  502  501  0.00000000000E+00  0.00000000000E+00  0.74484148514E+02  0.74484148514E+02  0.00000000000E+00 0. -1.
         21   -1    0    0  501  502 -0.00000000000E+00 -0.00000000000E+00 -0.52444044510E+02  0.52444044510E+02  0.00000000000E+00 0. -1.
         25    1    1    2    0    0  0.00000000000E+00  0.00000000000E+00  0.22040104004E+02  0.12692819302E+03  0.12500000000E+03 0.  0.
<mgrwt>
<rscale>  0 0.12500000E+03</rscale>
<asrwt>0</asrwt>
<pdfrwt beam="1">  1       21 0.11459100E-01 0.12500000E+03</pdfrwt>
<pdfrwt beam="2">  1       21 0.80683146E-02 0.12500000E+03</pdfrwt>
<totfact> 0.73778914E+06</totfact>
</mgrwt>
</event>
<event>
 3    1  0.1628330E-001  0.1250000E+03  0.7546771E-02  0.1235069E+00
         21   -1    0    0  502  501  0.00000000000E+00  0.00000000000E+00  0.14900926733E+03  0.14900926733E+03  0.00000000000E+00 0. -1.
         21   -1    0    0  501  502 -0.00000000000E+00 -0.00000000000E+00 -0.26214812475E+02  0.26214812475E+02  0.00000000000E+00 0. -1.
         25    1    1    2    0    0  0.00000000000E+00  0.00000000000E+00  0.12279445485E+03  0.17522407980E+03  0.12500000000E+03 0.  0.
<mgrwt>
<rscale>  0 0.12500000E+03</rscale>
<asrwt>0</asrwt>
<pdfrwt beam="1">  1       21 0.22924502E-01 0.12500000E+03</pdfrwt>
<pdfrwt beam="2">  1       21 0.40330482E-02 0.12500000E+03</pdfrwt>
<totfact> 0.67703684E+06</totfact>
</mgrwt>
</event>
<event>
 3    1  0.1628330E-001  0.1250000E+03  0.7546771E-02  0.1235069E+00
         21   -1    0    0  502  501  0.00000000000E+00  0.00000000000E+00  0.28445133650E+02  0.28445133650E+02  0.00000000000E+00 0.  1.
         21   -1    0    0  501  502 -0.00000000000E+00 -0.00000000000E+00 -0.13732577417E+03  0.13732577417E+03  0.00000000000E+00 0.  1.
         25    1    1    2    0    0  0.00000000000E+00  0.00000000000E+00 -0.10888064052E+03  0.16577090782E+03  0.12500000000E+03 0.  0.
<mgrwt>
<rscale>  0 0.12500000E+03</rscale>
<asrwt>0</asrwt>
<pdfrwt beam="1">  1       21 0.43761744E-02 0.12500000E+03</pdfrwt>
<pdfrwt beam="2">  1       21 0.21127042E-01 0.12500000E+03</pdfrwt>
<totfact> 0.68821138E+06</totfact>
</mgrwt>
</event>
<event>
 3    1  0.1628330E-001  0.1250000E+03  0.7546771E-02  0.1235069E+00
         21   -1    0    0  502  501  0.00000000000E+00  0.00000000000E+00  0.10247138547E+03  0.10247138547E+03  0.00000000000E+00 0.  1.
         21   -1    0    0  501  502 -0.00000000000E+00 -0.00000000000E+00 -0.38120398021E+02  0.38120398021E+02  0.00000000000E+00 0.  1.
         25    1    1    2    0    0  0.00000000000E+00  0.00000000000E+00  0.64350987453E+02  0.14059178349E+03  0.12500000000E+03 0.  0.
<mgrwt>
<rscale>  0 0.12500000E+03</rscale>
<asrwt>0</asrwt>
<pdfrwt beam="1">  1       21 0.15764828E-01 0.12500000E+03</pdfrwt>
<pdfrwt beam="2">  1       21 0.58646767E-02 0.12500000E+03</pdfrwt>
<totfact> 0.71962146E+06</totfact>
</mgrwt>
</event>
<event>
 3    1  0.1628330E-001  0.1250000E+03  0.7546771E-02  0.1235069E+00
         21   -1    0    0  502  501  0.00000000000E+00  0.00000000000E+00  0.18575617358E+02  0.18575617358E+02  0.00000000000E+00 0.  1.
         21   -1    0    0  501  502 -0.00000000000E+00 -0.00000000000E+00 -0.21028910774E+03  0.21028910774E+03  0.00000000000E+00 0.  1.
         25    1    1    2    0    0  0.00000000000E+00  0.00000000000E+00 -0.19171349038E+03  0.22886472510E+03  0.12500000000E+03 0.  0.
<mgrwt>
<rscale>  0 0.12500000E+03</rscale>
<asrwt>0</asrwt>
<pdfrwt beam="1">  1       21 0.28577873E-02 0.12500000E+03</pdfrwt>
<pdfrwt beam="2">  1       21 0.32352170E-01 0.12500000E+03</pdfrwt>
<totfact> 0.61927141E+06</totfact>
</mgrwt>
</event>
<event>
 3    1  0.1628330E-001  0.1250000E+03  0.7546771E-02  0.1235069E+00
         21   -1    0    0  502  501  0.00000000000E+00  0.00000000000E+00  0.11352660988E+03  0.11352660988E+03  0.00000000000E+00 0. -1.
         21   -1    0    0  501  502 -0.00000000000E+00 -0.00000000000E+00 -0.34408232608E+02  0.34408232608E+02  0.00000000000E+00 0. -1.
         25    1    1    2    0    0  0.00000000000E+00  0.00000000000E+00  0.79118377275E+02  0.14793484249E+03  0.12500000000E+03 0.  0.
<mgrwt>
<rscale>  0 0.12500000E+03</rscale>
<asrwt>0</asrwt>
<pdfrwt beam="1">  1       21 0.17465632E-01 0.12500000E+03</pdfrwt>
<pdfrwt beam="2">  1       21 0.52935743E-02 0.12500000E+03</pdfrwt>
<totfact> 0.71019596E+06</totfact>
</mgrwt>
</event>
<event>
 3    1  0.1628330E-001  0.1250000E+03  0.7546771E-02  0.1235069E+00
         21   -1    0    0  502  501  0.00000000000E+00  0.00000000000E+00  0.12643360107E+02  0.12643360107E+02  0.00000000000E+00 0. -1.
         21   -1    0    0  501  502 -0.00000000000E+00 -0.00000000000E+00 -0.30895663550E+03  0.30895663550E+03  0.00000000000E+00 0. -1.
         25    1    1    2    0    0  0.00000000000E+00  0.00000000000E+00 -0.29631327539E+03  0.32159999560E+03  0.12500000000E+03 0.  0.
<mgrwt>
<rscale>  0 0.12500000E+03</rscale>
<asrwt>0</asrwt>
<pdfrwt beam="1">  1       21 0.19451324E-02 0.12500000E+03</pdfrwt>
<pdfrwt beam="2">  1       21 0.47531789E-01 0.12500000E+03</pdfrwt>
<totfact> 0.53706795E+06</totfact>
</mgrwt>
</event>
<event>
 3    1  0.1628330E-001  0.1250000E+03  0.7546771E-02  0.1235069E+00
         21   -1    0    0  502  501  0.00000000000E+00  0.00000000000E+00  0.22368720501E+02  0.22368720501E+02  0.00000000000E+00 0.  1.
         21   -1    0    0  501  502 -0.00000000000E+00 -0.00000000000E+00 -0.17463001515E+03  0.17463001515E+03  0.00000000000E+00 0.  1.
         25    1    1    2    0    0  0.00000000000E+00  0.00000000000E+00 -0.15226129465E+03  0.19699873565E+03  0.12500000000E+03 0.  0.
<mgrwt>
<rscale>  0 0.12500000E+03</rscale>
<asrwt>0</asrwt>
<pdfrwt beam="1">  1       21 0.34413417E-02 0.12500000E+03</pdfrwt>
<pdfrwt beam="2">  1       21 0.26866156E-01 0.12500000E+03</pdfrwt>
<totfact> 0.65252929E+06</totfact>
</mgrwt>
</event>
<event>
 3    1  0.1628330E-001  0.1250000E+03  0.7546771E-02  0.1235069E+00
         21   -1    0    0  502  501  0.00000000000E+00  0.00000000000E+00  0.17011881088E+02  0.17011881088E+02  0.00000000000E+00 0. -1.
         21   -1    0    0  501  502 -0.00000000000E+00 -0.00000000000E+00 -0.22961893396E+03  0.22961893396E+03  0.00000000000E+00 0. -1.
         25    1    1    2    0    0  0.00000000000E+00  0.00000000000E+00 -0.21260705287E+03  0.24663081504E+03  0.12500000000E+03 0.  0.
<mgrwt>
<rscale>  0 0.12500000E+03</rscale>
<asrwt>0</asrwt>
<pdfrwt beam="1">  1       21 0.26172126E-02 0.12500000E+03</pdfrwt>
<pdfrwt beam="2">  1       21 0.35325989E-01 0.12500000E+03</pdfrwt>
<totfact> 0.60196851E+06</totfact>
</mgrwt>
</event>
<event>
 3    1  0.1628330E-001  0.1250000E+03  0.7546771E-02  0.1235069E+00
         21   -1    0    0  502  501  0.00000000000E+00  0.00000000000E+00  0.52055418705E+03  0.52055418705E+03  0.00000000000E+00 0. -1.
         21   -1    0    0  501  502 -0.00000000000E+00 -0.00000000000E+00 -0.75040218620E+01  0.75040218620E+01  0.00000000000E+00 0. -1.
         25    1    1    2    0    0  0.00000000000E+00  0.00000000000E+00  0.51305016519E+03  0.52805820891E+03  0.12500000000E+03 0.  0.
<mgrwt>
<rscale>  0 0.12500000E+03</rscale>
<asrwt>0</asrwt>
<pdfrwt beam="1">  1       21 0.80085231E-01 0.12500000E+03</pdfrwt>
<pdfrwt beam="2">  1       21 0.11544653E-02 0.12500000E+03</pdfrwt>
<totfact> 0.40562186E+06</totfact>
</mgrwt>
</event>
<event>
 3    1  0.1628330E-001  0.1250000E+03  0.7546771E-02  0.1235069E+00
         21   -1    0    0  502  501  0.00000000000E+00  0.00000000000E+00  0.10924746347E+03  0.10924746347E+03  0.00000000000E+00 0. -1.
         21   -1    0    0  501  502 -0.00000000000E+00 -0.00000000000E+00 -0.35755978911E+02  0.35755978911E+02  0.00000000000E+00 0. -1.
         25    1    1    2    0    0  0.00000000000E+00  0.00000000000E+00  0.73491484563E+02  0.14500344238E+03  0.12500000000E+03 0.  0.
<mgrwt>
<rscale>  0 0.12500000E+03</rscale>
<asrwt>0</asrwt>
<pdfrwt beam="1">  1       21 0.16807302E-01 0.12500000E+03</pdfrwt>
<pdfrwt beam="2">  1       21 0.55009199E-02 0.12500000E+03</pdfrwt>
<totfact> 0.71392658E+06</totfact>
</mgrwt>
</event>
<event>
 3    1  0.1628330E-001  0.1250000E+03  0.7546771E-02  0.1235069E+00
         21   -1    0    0  502  501  0.00000000000E+00  0.00000000000E+00  0.34521607232E+02  0.34521607232E+02  0.00000000000E+00 0. -1.
         21   -1    0    0  501  502 -0.00000000000E+00 -0.00000000000E+00 -0.11315376986E+03  0.11315376986E+03  0.00000000000E+00 0. -1.
         25    1    1    2    0    0  0.00000000000E+00  0.00000000000E+00 -0.78632162628E+02  0.14767537709E+03  0.12500000000E+03 0.  0.
<mgrwt>
<rscale>  0 0.12500000E+03</rscale>
<asrwt>0</asrwt>
<pdfrwt beam="1">  1       21 0.53110165E-02 0.12500000E+03</pdfrwt>
<pdfrwt beam="2">  1       21 0.17408272E-01 0.12500000E+03</pdfrwt>
<totfact> 0.71052451E+06</totfact>
</mgrwt>
</event>
<event>
 3    1  0.1628330E-001  0.1250000E+03  0.7546771E-02  0.1235069E+00
         21   -1    0    0  502  501  0.00000000000E+00  0.00000000000E+00  0.13289148701E+03  0.13289148701E+03  0.00000000000E+00 0.  1.
         21   -1    0    0  501  502 -0.00000000000E+00 -0.00000000000E+00 -0.29394283169E+02  0.29394283169E+02  0.00000000000E+00 0.  1.
         25    1    1    2    0    0  0.00000000000E+00  0.00000000000E+00  0.10349720384E+03  0.16228577018E+03  0.12500000000E+03 0.  0.
<mgrwt>
<rscale>  0 0.12500000E+03</rscale>
<asrwt>0</asrwt>
<pdfrwt beam="1">  1       21 0.20444844E-01 0.12500000E+03</pdfrwt>
<pdfrwt beam="2">  1       21 0.45221975E-02 0.12500000E+03</pdfrwt>
<totfact> 0.69241273E+06</totfact>
</mgrwt>
</event>
<event>
 3    1  0.1628330E-001  0.1250000E+03  0.7546771E-02  0.1235069E+00
         21   -1    0    0  502  501  0.00000000000E+00  0.00000000000E+00  0.24855306520E+02  0.24855306520E+02  0.00000000000E+00 0. -1.
         21   -1    0    0  501  502 -0.00000000000E+00 -0.00000000000E+00 -0.15715959877E+03  0.15715959877E+03  0.00000000000E+00 0. -1.
         25    1    1    2    0    0  0.00000000000E+00  0.00000000000E+00 -0.13230429225E+03  0.18201490529E+03  0.12500000000E+03 0.  0.
<mgrwt>
<rscale>  0 0.12500000E+03</rscale>
<asrwt>0</asrwt>
<pdfrwt beam="1">  1       21 0.38238932E-02 0.12500000E+03</pdfrwt>
<pdfrwt beam="2">  1       21 0.24178401E-01 0.12500000E+03</pdfrwt>
<totfact> 0.66921141E+06</totfact>
</mgrwt>
</event>
<event>
 3    1  0.1628330E-001  0.1250000E+03  0.7546771E-02  0.1235069E+00
         21   -1    0    0  502  501  0.00000000000E+00  0.00000000000E+00  0.80580193292E+01  0.80580193292E+01  0.00000000000E+00 0.  1.
         21   -1    0    0  501  502 -0.00000000000E+00 -0.00000000000E+00 -0.48476552865E+03  0.48476552865E+03  0.00000000000E+00 0.  1.
         25    1    1    2    0    0  0.00000000000E+00  0.00000000000E+00 -0.47670750932E+03  0.49282354798E+03  0.12500000000E+03 0.  0.
<mgrwt>
<rscale>  0 0.12500000E+03</rscale>
<asrwt>0</asrwt>
<pdfrwt beam="1">  1       21 0.12396951E-02 0.12500000E+03</pdfrwt>
<pdfrwt beam="2">  1       21 0.74579324E-01 0.12500000E+03</pdfrwt>
<totfact> 0.42435955E+06</totfact>
</mgrwt>
</event>
<event>
 3    1  0.1628330E-001  0.1250000E+03  0.7546771E-02  0.1235069E+00
         21   -1    0    0  502  501  0.00000000000E+00  0.00000000000E+00  0.83784863352E+01  0.83784863352E+01  0.00000000000E+00 0. -1.
         21   -1    0    0  501  502 -0.00000000000E+00 -0.00000000000E+00 -0.46622383133E+03  0.46622383133E+03  0.00000000000E+00 0. -1.
         25    1    1    2    0    0  0.00000000000E+00  0.00000000000E+00 -0.45784534500E+03  0.47460231767E+03  0.12500000000E+03 0.  0.
<mgrwt>
<rscale>  0 0.12500000E+03</rscale>
<asrwt>0</asrwt>
<pdfrwt beam="1">  1       21 0.12889979E-02 0.12500000E+03</pdfrwt>
<pdfrwt beam="2">  1       21 0.71726742E-01 0.12500000E+03</pdfrwt>
<totfact> 0.43455805E+06</totfact>
</mgrwt>
</event>
<event>
 3    1  0.1628330E-001  0.1250000E+03  0.7546771E-02  0.1235069E+00
         21   -1    0    0  502  501  0.00000000000E+00  0.00000000000E+00  0.28401437951E+02  0.28401437951E+02  0.00000000000E+00 0. -1.
         21   -1    0    0  501  502 -0.00000000000E+00 -0.00000000000E+00 -0.13753705030E+03  0.13753705030E+03  0.00000000000E+00 0. -1.
         25    1    1    2    0    0  0.00000000000E+00  0.00000000000E+00 -0.10913561235E+03  0.16593848825E+03  0.12500000000E+03 0.  0.
<mgrwt>
<rscale>  0 0.12500000E+03</rscale>
<asrwt>0</asrwt>
<pdfrwt beam="1">  1       21 0.43694518E-02 0.12500000E+03</pdfrwt>
<pdfrwt beam="2">  1       21 0.21159547E-01 0.12500000E+03</pdfrwt>
<totfact> 0.68801059E+06</totfact>
</mgrwt>
</event>
<event>
 3    1  0.1628330E-001  0.1250000E+03  0.7546771E-02  0.1235069E+00
         21   -1    0    0  502  501  0.00000000000E+00  0.00000000000E+00  0.11759120341E+03  0.11759120341E+03  0.00000000000E+00 0. -1.
         21   -1    0    0  501  502 -0.00000000000E+00 -0.00000000000E+00 -0.33218896368E+02  0.33218896368E+02  0.00000000000E+00 0. -1.
         25    1    1    2    0    0  0.00000000000E+00  0.00000000000E+00  0.84372307046E+02  0.15081009978E+03  0.12500000000E+03 0.  0.
<mgrwt>
<rscale>  0 0.12500000E+03</rscale>
<asrwt>0</asrwt>
<pdfrwt beam="1">  1       21 0.18090954E-01 0.12500000E+03</pdfrwt>
<pdfrwt beam="2">  1       21 0.51105995E-02 0.12500000E+03</pdfrwt>
<totfact> 0.70657586E+06</totfact>
</mgrwt>
</event>
<event>
 3    1  0.1628330E-001  0.1250000E+03  0.7546771E-02  0.1235069E+00
         21   -1    0    0  502  501  0.00000000000E+00  0.00000000000E+00  0.80352378792E+03  0.80352378792E+03  0.00000000000E+00 0.  1.
         21   -1    0    0  501  502 -0.00000000000E+00 -0.00000000000E+00 -0.48613993247E+01  0.48613993247E+01  0.00000000000E+00 0.  1.
         25    1    1    2    0    0  0.00000000000E+00  0.00000000000E+00  0.79866238860E+03  0.80838518725E+03  0.12500000000E+03 0.  0.
<mgrwt>
<rscale>  0 0.12500000E+03</rscale>
<asrwt>0</asrwt>
<pdfrwt beam="1">  1       21 0.12361894E+00 0.12500000E+03</pdfrwt>
<pdfrwt beam="2">  1       21 0.74790823E-03 0.12500000E+03</pdfrwt>
<totfact> 0.29086890E+06</totfact>
</mgrwt>
</event>
<event>
 3    1  0.1628330E-001  0.1250000E+03  0.7546771E-02  0.1235069E+00
         21   -1    0    0  502  501  0.00000000000E+00  0.00000000000E+00  0.35746253657E+01  0.35746253657E+01  0.00000000000E+00 0.  1.
         21   -1    0    0  501  502 -0.00000000000E+00 -0.00000000000E+00 -0.10927718573E+04  0.10927718573E+04  0.00000000000E+00 0.  1.
         25    1    1    2    0    0  0.00000000000E+00  0.00000000000E+00 -0.10891972319E+04  0.10963464827E+04  0.12500000000E+03 0.  0.
<mgrwt>
<rscale>  0 0.12500000E+03</rscale>
<asrwt>0</asrwt>
<pdfrwt beam="1">  1       21 0.54994221E-03 0.12500000E+03</pdfrwt>
<pdfrwt beam="2">  1       21 0.16811879E+00 0.12500000E+03</pdfrwt>
<totfact> 0.21332833E+06</totfact>
</mgrwt>
</event>
<event>
 3    1  0.1628330E-001  0.1250000E+03  0.7546771E-02  0.1235069E+00
         21   -1    0    0  502  501  0.00000000000E+00  0.00000000000E+00  0.80213395289E+02  0.80213395289E+02  0.00000000000E+00 0. -1.
         21   -1    0    0  501  502 -0.00000000000E+00 -0.00000000000E+00 -0.48698225352E+02  0.48698225352E+02  0.00000000000E+00 0. -1.
         25    1    1    2    0    0  0.00000000000E+00  0.00000000000E+00  0.31515169937E+02  0.12891162064E+03  0.12500000000E+03 0.  0.
<mgrwt>
<rscale>  0 0.12500000E+03</rscale>
<asrwt>0</asrwt>
<pdfrwt beam="1">  1       21 0.12340522E-01 0.12500000E+03</pdfrwt>
<pdfrwt beam="2">  1       21 0.74920347E-02 0.12500000E+03</pdfrwt>
<totfact> 0.73510753E+06</totfact>
</mgrwt>
</event>
<event>
 3    1  0.1628330E-001  0.1250000E+03  0.7546771E-02  0.1235069E+00
         21   -1    0    0  502  501  0.00000000000E+00  0.00000000000E+00  0.29280149964E+02  0.29280149964E+02  0.00000000000E+00 0. -1.
         21   -1    0    0  501  502 -0.00000000000E+00 -0.00000000000E+00 -0.13340949431E+03  0.13340949431E+03  0.00000000000E+00 0. -1.
         25    1    1    2    0    0  0.00000000000E+00  0.00000000000E+00 -0.10412934435E+03  0.16268964427E+03  0.12500000000E+03 0.  0.
<mgrwt>
<rscale>  0 0.12500000E+03</rscale>
<asrwt>0</asrwt>
<pdfrwt beam="1">  1       21 0.45046384E-02 0.12500000E+03</pdfrwt>
<pdfrwt beam="2">  1       21 0.20524538E-01 0.12500000E+03</pdfrwt>
<totfact> 0.69192335E+06</totfact>
</mgrwt>
</event>
<event>
 3    1  0.1628330E-001  0.1250000E+03  0.7546771E-02  0.1235069E+00
         21   -1    0    0  502  501  0.00000000000E+00  0.00000000000E+00  0.55853150019E+01  0.55853150019E+01  0.00000000000E+00 0.  1.
         21   -1    0    0  501  502 -0.00000000000E+00 -0.00000000000E+00 -0.69937863821E+03  0.69937863821E+03  0.00000000000E+00 0.  1.
         25    1    1    2    0    0  0.00000000000E+00  0.00000000000E+00 -0.69379332321E+03  0.70496395321E+03  0.12500000000E+03 0.  0.
<mgrwt>
<rscale>  0 0.12500000E+03</rscale>
<asrwt>0</asrwt>
<pdfrwt beam="1">  1       21 0.85927996E-03 0.12500000E+03</pdfrwt>
<pdfrwt beam="2">  1       21 0.10759662E+00 0.12500000E+03</pdfrwt>
<totfact> 0.32719661E+06</totfact>
</mgrwt>
</event>
<event>
 3    1  0.1628330E-001  0.1250000E+03  0.7546771E-02  0.1235069E+00
         21   -1    0    0  502  501  0.00000000000E+00  0.00000000000E+00  0.65286703787E+02  0.65286703787E+02  0.00000000000E+00 0. -1.
         21   -1    0    0  501  502 -0.00000000000E+00 -0.00000000000E+00 -0.59832244139E+02  0.59832244139E+02  0.00000000000E+00 0. -1.
         25    1    1    2    0    0  0.00000000000E+00  0.00000000000E+00  0.54544596475E+01  0.12511894793E+03  0.12500000000E+03 0.  0.
<mgrwt>
<rscale>  0 0.12500000E+03</rscale>
<asrwt>0</asrwt>
<pdfrwt beam="1">  1       21 0.10044108E-01 0.12500000E+03</pdfrwt>
<pdfrwt beam="2">  1       21 0.92049606E-02 0.12500000E+03</pdfrwt>
<totfact> 0.74027516E+06</totfact>
</mgrwt>
</event>
<event>
 3    1  0.1628330E-001  0.1250000E+03  0.7546771E-02  0.1235069E+00
         21   -1    0    0  502  501  0.00000000000E+00  0.00000000000E+00  0.22818773388E+03  0.22818773388E+03  0.00000000000E+00 0.  1.
         21   -1    0    0  501  502 -0.00000000000E+00 -0.00000000000E+00 -0.17118580099E+02  0.17118580099E+02  0.00000000000E+00 0.  1.
         25    1    1    2    0    0  0.00000000000E+00  0.00000000000E+00  0.21106915378E+03  0.24530631398E+03  0.12500000000E+03 0.  0.
<mgrwt>
<rscale>  0 0.12500000E+03</rscale>
<asrwt>0</asrwt>
<pdfrwt beam="1">  1       21 0.35105803E-01 0.12500000E+03</pdfrwt>
<pdfrwt beam="2">  1       21 0.26336279E-02 0.12500000E+03</pdfrwt>
<totfact> 0.60322930E+06</totfact>
</mgrwt>
</event>
<event>
 3    1  0.1628330E-001  0.1250000E+03  0.7546771E-02  0.1235069E+00
         21   -1    0    0  502  501  0.00000000000E+00  0.00000000000E+00  0.17285679354E+02  0.17285679354E+02  0.00000000000E+00 0. -1.
         21   -1    0    0  501  502 -0.00000000000E+00 -0.00000000000E+00 -0.22598186163E+03  0.22598186163E+03  0.00000000000E+00 0. -1.
         25    1    1    2    0    0  0.00000000000E+00  0.00000000000E+00 -0.20869618228E+03  0.24326754098E+03  0.12500000000E+03 0.  0.
<mgrwt>
<rscale>  0 0.12500000E+03</rscale>
<asrwt>0</asrwt>
<pdfrwt beam="1">  1       21 0.26593354E-02 0.12500000E+03</pdfrwt>
<pdfrwt beam="2">  1       21 0.34766438E-01 0.12500000E+03</pdfrwt>
<totfact> 0.60517896E+06</totfact>
</mgrwt>
</event>
<event>
 3    1  0.1628330E-001  0.1250000E+03  0.7546771E-02  0.1235069E+00
         21   -1    0    0  502  501  0.00000000000E+00  0.00000000000E+00  0.32276543727E+02  0.32276543727E+02  0.00000000000E+00 0.  1.
         21   -1    0    0  501  502 -0.00000000000E+00 -0.00000000000E+00 -0.12102442049E+03  0.12102442049E+03  0.00000000000E+00 0.  1.
         25    1    1    2    0    0  0.00000000000E+00  0.00000000000E+00 -0.88747876766E+02  0.15330096422E+03  0.12500000000E+03 0.  0.
<mgrwt>
<rscale>  0 0.12500000E+03</rscale>
<asrwt>0</asrwt>
<pdfrwt beam="1">  1       21 0.49656221E-02 0.12500000E+03</pdfrwt>
<pdfrwt beam="2">  1       21 0.18619142E-01 0.12500000E+03</pdfrwt>
<totfact> 0.70346961E+06</totfact>
</mgrwt>
</event>
<event>
 3    1  0.1628330E-001  0.1250000E+03  0.7546771E-02  0.1235069E+00
         21   -1    0    0  502  501  0.00000000000E+00  0.00000000000E+00  0.30645365945E+02  0.30645365945E+02  0.00000000000E+00 0.  1.
         21   -1    0    0  501  502 -0.00000000000E+00 -0.00000000000E+00 -0.12746625402E+03  0.12746625402E+03  0.00000000000E+00 0.  1.
         25    1    1    2    0    0  0.00000000000E+00  0.00000000000E+00 -0.96820888075E+02  0.15811161996E+03  0.12500000000E+03 0.  0.
<mgrwt>
<rscale>  0 0.12500000E+03</rscale>
<asrwt>0</asrwt>
<pdfrwt beam="1">  1       21 0.47146717E-02 0.12500000E+03</pdfrwt>
<pdfrwt beam="2">  1       21 0.19610193E-01 0.12500000E+03</pdfrwt>
<totfact> 0.69750975E+06</totfact>
</mgrwt>
</event>
<event>
 3    1  0.1628330E-001  0.1250000E+03  0.7546771E-02  0.1235069E+00
         21   -1    0    0  502  501  0.00000000000E+00  0.00000000000E+00  0.93501746426E+02  0.93501746426E+02  0.00000000000E+00 0.  1.
         21   -1    0    0  501  502 -0.00000000000E+00 -0.00000000000E+00 -0.41777294535E+02  0.41777294535E+02  0.00000000000E+00 0.  1.
         25    1    1    2    0    0  0.00000000000E+00  0.00000000000E+00  0.51724451891E+02  0.13527904096E+03  0.12500000000E+03 0.  0.
<mgrwt>
<rscale>  0 0.12500000E+03</rscale>
<asrwt>0</asrwt>
<pdfrwt beam="1">  1       21 0.14384884E-01 0.12500000E+03</pdfrwt>
<pdfrwt beam="2">  1       21 0.64272761E-02 0.12500000E+03</pdfrwt>
<totfact> 0.72659546E+06</totfact>
</mgrwt>
</event>
<event>
 3    1  0.1628330E-001  0.1250000E+03  0.7546771E-02  0.1235069E+00
         21   -1    0    0  502  501  0.00000000000E+00  0.00000000000E+00  0.17599523960E+02  0.17599523960E+02  0.00000000000E+00 0.  1.
         21   -1    0    0  501  502 -0.00000000000E+00 -0.00000000000E+00 -0.22195202602E+03  0.22195202602E+03  0.00000000000E+00 0.  1.
         25    1    1    2    0    0  0.00000000000E+00  0.00000000000E+00 -0.20435250206E+03  0.23955154998E+03  0.12500000000E+03 0.  0.
<mgrwt>
<rscale>  0 0.12500000E+03</rscale>
<asrwt>0</asrwt>
<pdfrwt beam="1">  1       21 0.27076190E-02 0.12500000E+03</pdfrwt>
<pdfrwt beam="2">  1       21 0.34146466E-01 0.12500000E+03</pdfrwt>
<totfact> 0.60876085E+06</totfact>
</mgrwt>
</event>
<event>
 3    1  0.1628330E-001  0.1250000E+03  0.7546771E-02  0.1235069E+00
         21   -1    0    0  502  501  0.00000000000E+00  0.00000000000E+00  0.52379204575E+03  0.52379204575E+03  0.00000000000E+00 0.  1.
         21   -1    0    0  501  502 -0.00000000000E+00 -0.00000000000E+00 -0.74576352040E+01  0.74576352040E+01  0.00000000000E+00 0.  1.
         25    1    1    2    0    0  0.00000000000E+00  0.00000000000E+00  0.51633441055E+03  0.53124968096E+03  0.12500000000E+03 0.  0.
<mgrwt>
<rscale>  0 0.12500000E+03</rscale>
<asrwt>0</asrwt>
<pdfrwt beam="1">  1       21 0.80583363E-01 0.12500000E+03</pdfrwt>
<pdfrwt beam="2">  1       21 0.11473289E-02 0.12500000E+03</pdfrwt>
<totfact> 0.40398513E+06</totfact>
</mgrwt>
</event>
<event>
 3    1  0.1628330E-001  0.1250000E+03  0.7546771E-02  0.1235069E+00
         21   -1    0    0  502  501  0.00000000000E+00  0.00000000000E+00  0.10192892495E+02  0.10192892495E+02  0.00000000000E+00 0. -1.
         21   -1    0    0  501  502 -0.00000000000E+00 -0.00000000000E+00 -0.38323272829E+03  0.38323272829E+03  0.00000000000E+00 0. -1.
         25    1    1    2    0    0  0.00000000000E+00  0.00000000000E+00 -0.37303983579E+03  0.39342562078E+03  0.12500000000E+03 0.  0.
<mgrwt>
<rscale>  0 0.12500000E+03</rscale>
<asrwt>0</asrwt>
<pdfrwt beam="1">  1       21 0.15681372E-02 0.12500000E+03</pdfrwt>
<pdfrwt beam="2">  1       21 0.58958884E-01 0.12500000E+03</pdfrwt>
<totfact> 0.48480500E+06</totfact>
</mgrwt>
</event>
<event>
 3    1  0.1628330E-001  0.1250000E+03  0.7546771E-02  0.1235069E+00
         21   -1    0    0  502  501  0.00000000000E+00  0.00000000000E+00  0.66245992759E+01  0.66245992759E+01  0.00000000000E+00 0. -1.
         21   -1    0    0  501  502 -0.00000000000E+00 -0.00000000000E+00 -0.58965830797E+03  0.58965830797E+03  0.00000000000E+00 0. -1.
         25    1    1    2    0    0  0.00000000000E+00  0.00000000000E+00 -0.58303370869E+03  0.59628290725E+03  0.12500000000E+03 0.  0.
<mgrwt>
<rscale>  0 0.12500000E+03</rscale>
<asrwt>0</asrwt>
<pdfrwt beam="1">  1       21 0.10191689E-02 0.12500000E+03</pdfrwt>
<pdfrwt beam="2">  1       21 0.90716683E-01 0.12500000E+03</pdfrwt>
<totfact> 0.37261267E+06</totfact>
</mgrwt>
</event>
<event>
 3    1  0.1628330E-001  0.1250000E+03  0.7546771E-02  0.1235069E+00
         21   -1    0    0  502  501  0.00000000000E+00  0.00000000000E+00  0.50631310883E+01  0.50631310883E+01  0.00000000000E+00 0.  1.
         21   -1    0    0  501  502 -0.00000000000E+00 -0.00000000000E+00 -0.77150876244E+03  0.77150876244E+03  0.00000000000E+00 0.  1.
         25    1    1    2    0    0  0.00000000000E+00  0.00000000000E+00 -0.76644563135E+03  0.77657189353E+03  0.12500000000E+03 0.  0.
<mgrwt>
<rscale>  0 0.12500000E+03</rscale>
<asrwt>0</asrwt>
<pdfrwt beam="1">  1       21 0.77894391E-03 0.12500000E+03</pdfrwt>
<pdfrwt beam="2">  1       21 0.11869355E+00 0.12500000E+03</pdfrwt>
<totfact> 0.30153871E+06</totfact>
</mgrwt>
</event>
<event>
 3    1  0.1628330E-001  0.1250000E+03  0.7546771E-02  0.1235069E+00
         21   -1    0    0  502  501  0.00000000000E+00  0.00000000000E+00  0.39156831164E+03  0.39156831164E+03  0.00000000000E+00 0. -1.
         21   -1    0    0  501  502 -0.00000000000E+00 -0.00000000000E+00 -0.99759093979E+01  0.99759093979E+01  0.00000000000E+00 0. -1.
         25    1    1    2    0    0  0.00000000000E+00  0.00000000000E+00  0.38159240224E+03  0.40154422104E+03  0.12500000000E+03 0.  0.
<mgrwt>
<rscale>  0 0.12500000E+03</rscale>
<asrwt>0</asrwt>
<pdfrwt beam="1">  1       21 0.60241267E-01 0.12500000E+03</pdfrwt>
<pdfrwt beam="2">  1       21 0.15347556E-02 0.12500000E+03</pdfrwt>
<totfact> 0.47939097E+06</totfact>
</mgrwt>
</event>
<event>
 3    1  0.1628330E-001  0.1250000E+03  0.7546771E-02  0.1235069E+00
         21   -1    0    0  502  501  0.00000000000E+00  0.00000000000E+00  0.56842503268E+03  0.56842503268E+03  0.00000000000E+00 0. -1.
         21   -1    0    0  501  502 -0.00000000000E+00 -0.00000000000E+00 -0.68720583637E+01  0.68720583637E+01  0.00000000000E+00 0. -1.
         25    1    1    2    0    0  0.00000000000E+00  0.00000000000E+00  0.56155297432E+03  0.57529709105E+03  0.12500000000E+03 0.  0.
<mgrwt>
<rscale>  0 0.12500000E+03</rscale>
<asrwt>0</asrwt>
<pdfrwt beam="1">  1       21 0.87449968E-01 0.12500000E+03</pdfrwt>
<pdfrwt beam="2">  1       21 0.10572402E-02 0.12500000E+03</pdfrwt>
<totfact> 0.38234172E+06</totfact>
</mgrwt>
</event>
<event>
 3    1  0.1628330E-001  0.1250000E+03  0.7546771E-02  0.1235069E+00
         21   -1    0    0  502  501  0.00000000000E+00  0.00000000000E+00  0.76792918827E+03  0.76792918827E+03  0.00000000000E+00 0.  1.
         21   -1    0    0  501  502 -0.00000000000E+00 -0.00000000000E+00 -0.50867320317E+01  0.50867320317E+01  0.00000000000E+00 0.  1.
         25    1    1    2    0    0  0.00000000000E+00  0.00000000000E+00  0.76284245624E+03  0.77301592030E+03  0.12500000000E+03 0.  0.
<mgrwt>
<rscale>  0 0.12500000E+03</rscale>
<asrwt>0</asrwt>
<pdfrwt beam="1">  1       21 0.11814286E+00 0.12500000E+03</pdfrwt>
<pdfrwt beam="2">  1       21 0.78257477E-03 0.12500000E+03</pdfrwt>
<totfact> 0.30275390E+06</totfact>
</mgrwt>
</event>
<event>
 3    1  0.1628330E-001  0.1250000E+03  0.7546771E-02  0.1235069E+00
         21   -1    0    0  502  501  0.00000000000E+00  0.00000000000E+00  0.93803141342E+02  0.93803141342E+02  0.00000000000E+00 0.  1.
         21   -1    0    0  501  502 -0.00000000000E+00 -0.00000000000E+00 -0.41643061673E+02  0.41643061673E+02  0.00000000000E+00 0.  1.
         25    1    1    2    0    0  0.00000000000E+00  0.00000000000E+00  0.52160079670E+02  0.13544620301E+03  0.12500000000E+03 0.  0.
<mgrwt>
<rscale>  0 0.12500000E+03</rscale>
<asrwt>0</asrwt>
<pdfrwt beam="1">  1       21 0.14431252E-01 0.12500000E+03</pdfrwt>
<pdfrwt beam="2">  1       21 0.64066249E-02 0.12500000E+03</pdfrwt>
<totfact> 0.72637446E+06</totfact>
</mgrwt>
</event>
<event>
 3    1  0.1628330E-001  0.1250000E+03  0.7546771E-02  0.1235069E+00
         21   -1    0    0  502  501  0.00000000000E+00  0.00000000000E+00  0.36277390130E+01  0.36277390130E+01  0.00000000000E+00 0.  1.
         21   -1    0    0  501  502 -0.00000000000E+00 -0.00000000000E+00 -0.10767726085E+04  0.10767726085E+04  0.00000000000E+00 0.  1.
         25    1    1    2    0    0  0.00000000000E+00  0.00000000000E+00 -0.10731448695E+04  0.10804003475E+04  0.12500000000E+03 0.  0.
<mgrwt>
<rscale>  0 0.12500000E+03</rscale>
<asrwt>0</asrwt>
<pdfrwt beam="1">  1       21 0.55811384E-03 0.12500000E+03</pdfrwt>
<pdfrwt beam="2">  1       21 0.16565728E+00 0.12500000E+03</pdfrwt>
<totfact> 0.21692654E+06</totfact>
</mgrwt>
</event>
<event>
 3    1  0.1628330E-001  0.1250000E+03  0.7546771E-02  0.1235069E+00
         21   -1    0    0  502  501  0.00000000000E+00  0.00000000000E+00  0.52435864082E+02  0.52435864082E+02  0.00000000000E+00 0.  1.
         21   -1    0    0  501  502 -0.00000000000E+00 -0.00000000000E+00 -0.74495768658E+02  0.74495768658E+02  0.00000000000E+00 0.  1.
         25    1    1    2    0    0  0.00000000000E+00  0.00000000000E+00 -0.22059904576E+02  0.12693163274E+03  0.12500000000E+03 0.  0.
<mgrwt>
<rscale>  0 0.12500000E+03</rscale>
<asrwt>0</asrwt>
<pdfrwt beam="1">  1       21 0.80670560E-02 0.12500000E+03</pdfrwt>
<pdfrwt beam="2">  1       21 0.11460887E-01 0.12500000E+03</pdfrwt>
<totfact> 0.73778446E+06</totfact>
</mgrwt>
</event>
<event>
 3    1  0.1628330E-001  0.1250000E+03  0.7546771E-02  0.1235069E+00
         21   -1    0    0  502  501  0.00000000000E+00  0.00000000000E+00  0.45307328530E+03  0.45307328530E+03  0.00000000000E+00 0. -1.
         21   -1    0    0  501  502 -0.00000000000E+00 -0.00000000000E+00 -0.86216736382E+01  0.86216736382E+01  0.00000000000E+00 0. -1.
         25    1    1    2    0    0  0.00000000000E+00  0.00000000000E+00  0.44445161166E+03  0.46169495894E+03  0.12500000000E+03 0.  0.
<mgrwt>
<rscale>  0 0.12500000E+03</rscale>
<asrwt>0</asrwt>
<pdfrwt beam="1">  1       21 0.69703564E-01 0.12500000E+03</pdfrwt>
<pdfrwt beam="2">  1       21 0.13264117E-02 0.12500000E+03</pdfrwt>
<totfact> 0.44200646E+06</totfact>
</mgrwt>
</event>
<event>
 3    1  0.1628330E-001  0.1250000E+03  0.7546771E-02  0.1235069E+00
         21   -1    0    0  502  501  0.00000000000E+00  0.00000000000E+00  0.26443338570E+03  0.26443338570E+03  0.00000000000E+00 0.  1.
         21   -1    0    0  501  502 -0.00000000000E+00 -0.00000000000E+00 -0.14772151367E+02  0.14772151367E+02  0.00000000000E+00 0.  1.
         25    1    1    2    0    0  0.00000000000E+00  0.00000000000E+00  0.24966123433E+03  0.27920553706E+03  0.12500000000E+03 0.  0.
<mgrwt>
<rscale>  0 0.12500000E+03</rscale>
<asrwt>0</asrwt>
<pdfrwt beam="1">  1       21 0.40682056E-01 0.12500000E+03</pdfrwt>
<pdfrwt beam="2">  1       21 0.22726389E-02 0.12500000E+03</pdfrwt>
<totfact> 0.57229797E+06</totfact>
</mgrwt>
</event>
<event>
 3    1  0.1628330E-001  0.1250000E+03  0.7546771E-02  0.1235069E+00
         21   -1    0    0  502  501  0.00000000000E+00  0.00000000000E+00  0.16831124180E+03  0.16831124180E+03  0.00000000000E+00 0.  1.
         21   -1    0    0  501  502 -0.00000000000E+00 -0.00000000000E+00 -0.23208491353E+02  0.23208491353E+02  0.00000000000E+00 0.  1.
         25    1    1    2    0    0  0.00000000000E+00  0.00000000000E+00  0.14510275045E+03  0.19151973315E+03  0.12500000000E+03 0.  0.
<mgrwt>
<rscale>  0 0.12500000E+03</rscale>
<asrwt>0</asrwt>
<pdfrwt beam="1">  1       21 0.25894037E-01 0.12500000E+03</pdfrwt>
<pdfrwt beam="2">  1       21 0.35705372E-02 0.12500000E+03</pdfrwt>
<totfact> 0.65853957E+06</totfact>
</mgrwt>
</event>
<event>
 3    1  0.1628330E-001  0.1250000E+03  0.7546771E-02  0.1235069E+00
         21   -1    0    0  502  501  0.00000000000E+00  0.00000000000E+00  0.30537692577E+02  0.30537692577E+02  0.00000000000E+00 0.  1.
         21   -1    0    0  501  502 -0.00000000000E+00 -0.00000000000E+00 -0.12791568944E+03  0.12791568944E+03  0.00000000000E+00 0.  1.
         25    1    1    2    0    0  0.00000000000E+00  0.00000000000E+00 -0.97377996866E+02  0.15845338202E+03  0.12500000000E+03 0.  0.
<mgrwt>
<rscale>  0 0.12500000E+03</rscale>
<asrwt>0</asrwt>
<pdfrwt beam="1">  1       21 0.46981066E-02 0.12500000E+03</pdfrwt>
<pdfrwt beam="2">  1       21 0.19679337E-01 0.12500000E+03</pdfrwt>
<totfact> 0.69708971E+06</totfact>
</mgrwt>
</event>
<event>
 3    1  0.1628330E-001  0.1250000E+03  0.7546771E-02  0.1235069E+00
         21   -1    0    0  502  501  0.00000000000E+00  0.00000000000E+00  0.27551723509E+02  0.27551723509E+02  0.00000000000E+00 0. -1.
         21   -1    0    0  501  502 -0.00000000000E+00 -0.00000000000E+00 -0.14177878922E+03  0.14177878922E+03  0.00000000000E+00 0. -1.
         25    1    1    2    0    0  0.00000000000E+00  0.00000000000E+00 -0.11422706571E+03  0.16933051273E+03  0.12500000000E+03 0.  0.
<mgrwt>
<rscale>  0 0.12500000E+03</rscale>
<asrwt>0</asrwt>
<pdfrwt beam="1">  1       21 0.42387266E-02 0.12500000E+03</pdfrwt>
<pdfrwt beam="2">  1       21 0.21812122E-01 0.12500000E+03</pdfrwt>
<totfact> 0.68396998E+06</totfact>
</mgrwt>
</event>
<event>
 3    1  0.1628330E-001  0.1250000E+03  0.7546771E-02  0.1235069E+00
         21   -1    0    0  502  501  0.00000000000E+00  0.00000000000E+00  0.69852709164E+02  0.69852709164E+02  0.00000000000E+00 0. -1.
         21   -1    0    0  501  502 -0.00000000000E+00 -0.00000000000E+00 -0.55921238371E+02  0.55921238371E+02  0.00000000000E+00 0. -1.
         25    1    1    2    0    0  0.00000000000E+00  0.00000000000E+00  0.13931470793E+02  0.12577394753E+03  0.12500000000E+03 0.  0.
<mgrwt>
<rscale>  0 0.12500000E+03</rscale>
<asrwt>0</asrwt>
<pdfrwt beam="1">  1       21 0.10746571E-01 0.12500000E+03</pdfrwt>
<pdfrwt beam="2">  1       21 0.86032675E-02 0.12500000E+03</pdfrwt>
<totfact> 0.73937281E+06</totfact>
</mgrwt>
</event>
<event>
 3    1  0.1628330E-001  0.1250000E+03  0.7546771E-02  0.1235069E+00
         21   -1    0    0  502  501  0.00000000000E+00  0.00000000000E+00  0.28075150141E+02  0.28075150141E+02  0.00000000000E+00 0.  1.
         21   -1    0    0  501  502 -0.00000000000E+00 -0.00000000000E+00 -0.13913549813E+03  0.13913549813E+03  0.00000000000E+00 0.  1.
         25    1    1    2    0    0  0.00000000000E+00  0.00000000000E+00 -0.11106034799E+03  0.16721064827E+03  0.12500000000E+03 0.  0.
<mgrwt>
<rscale>  0 0.12500000E+03</rscale>
<asrwt>0</asrwt>
<pdfrwt beam="1">  1       21 0.43192539E-02 0.12500000E+03</pdfrwt>
<pdfrwt beam="2">  1       21 0.21405461E-01 0.12500000E+03</pdfrwt>
<totfact> 0.68648990E+06</totfact>
</mgrwt>
</event>
<event>
 3    1  0.1628330E-001  0.1250000E+03  0.7546771E-02  0.1235069E+00
         21   -1    0    0  502  501  0.00000000000E+00  0.00000000000E+00  0.61155035705E+02  0.61155035705E+02  0.00000000000E+00 0.  1.
         21   -1    0    0  501  502 -0.00000000000E+00 -0.00000000000E+00 -0.63874543690E+02  0.63874543690E+02  0.00000000000E+00 0.  1.
         25    1    1    2    0    0  0.00000000000E+00  0.00000000000E+00 -0.27195079860E+01  0.12502957939E+03  0.12500000000E+03 0.  0.
<mgrwt>
<rscale>  0 0.12500000E+03</rscale>
<asrwt>0</asrwt>
<pdfrwt beam="1">  1       21 0.94084670E-02 0.12500000E+03</pdfrwt>
<pdfrwt beam="2">  1       21 0.98268529E-02 0.12500000E+03</pdfrwt>
<totfact> 0.74039586E+06</totfact>
</mgrwt>
</event>
<event>
 3    1  0.1628330E-001  0.1250000E+03  0.7546771E-02  0.1235069E+00
         21   -1    0    0  502  501  0.00000000000E+00  0.00000000000E+00  0.45724545890E+02  0.45724545890E+02  0.00000000000E+00 0.  1.
         21   -1    0    0  501  502 -0.00000000000E+00 -0.00000000000E+00 -0.85430044716E+02  0.85430044716E+02  0.00000000000E+00 0.  1.
         25    1    1    2    0    0  0.00000000000E+00  0.00000000000E+00 -0.39705498825E+02  0.13115459061E+03  0.12500000000E+03 0.  0.
<mgrwt>
<rscale>  0 0.12500000E+03</rscale>
<asrwt>0</asrwt>
<pdfrwt beam="1">  1       21 0.70345456E-02 0.12500000E+03</pdfrwt>
<pdfrwt beam="2">  1       21 0.13143084E-01 0.12500000E+03</pdfrwt>
<totfact> 0.73209846E+06</totfact>
</mgrwt>
</event>
<event>
 3    1  0.1628330E-001  0.1250000E+03  0.7546771E-02  0.1235069E+00
         21   -1    0    0  502  501  0.00000000000E+00  0.00000000000E+00  0.14750769894E+02  0.14750769894E+02  0.00000000000E+00 0. -1.
         21   -1    0    0  501  502 -0.00000000000E+00 -0.00000000000E+00 -0.26481668605E+03  0.26481668605E+03  0.00000000000E+00 0. -1.
         25    1    1    2    0    0  0.00000000000E+00  0.00000000000E+00 -0.25006591615E+03  0.27956745594E+03  0.12500000000E+03 0.  0.
<mgrwt>
<rscale>  0 0.12500000E+03</rscale>
<asrwt>0</asrwt>
<pdfrwt beam="1">  1       21 0.22693495E-02 0.12500000E+03</pdfrwt>
<pdfrwt beam="2">  1       21 0.40741024E-01 0.12500000E+03</pdfrwt>
<totfact> 0.57198128E+06</totfact>
</mgrwt>
</event>
<event>
 3    1  0.1628330E-001  0.1250000E+03  0.7546771E-02  0.1235069E+00
         21   -1    0    0  502  501  0.00000000000E+00  0.00000000000E+00  0.38268999153E+03  0.38268999153E+03  0.00000000000E+00 0.  1.
         21   -1    0    0  501  502 -0.00000000000E+00 -0.00000000000E+00 -0.10207348210E+02  0.10207348210E+02  0.00000000000E+00 0.  1.
         25    1    1    2    0    0  0.00000000000E+00  0.00000000000E+00  0.37248264332E+03  0.39289733974E+03  0.12500000000E+03 0.  0.
<mgrwt>
<rscale>  0 0.12500000E+03</rscale>
<asrwt>0</asrwt>
<pdfrwt beam="1">  1       21 0.58875372E-01 0.12500000E+03</pdfrwt>
<pdfrwt beam="2">  1       21 0.15703616E-02 0.12500000E+03</pdfrwt>
<totfact> 0.48516063E+06</totfact>
</mgrwt>
</event>
<event>
 3    1  0.1628330E-001  0.1250000E+03  0.7546771E-02  0.1235069E+00
         21   -1    0    0  502  501  0.00000000000E+00  0.00000000000E+00  0.11765106644E+03  0.11765106644E+03  0.00000000000E+00 0. -1.
         21   -1    0    0  501  502 -0.00000000000E+00 -0.00000000000E+00 -0.33201993984E+02  0.33201993984E+02  0.00000000000E+00 0. -1.
         25    1    1    2    0    0  0.00000000000E+00  0.00000000000E+00  0.84449072451E+02  0.15085306042E+03  0.12500000000E+03 0.  0.
<mgrwt>
<rscale>  0 0.12500000E+03</rscale>
<asrwt>0</asrwt>
<pdfrwt beam="1">  1       21 0.18100164E-01 0.12500000E+03</pdfrwt>
<pdfrwt beam="2">  1       21 0.51079991E-02 0.12500000E+03</pdfrwt>
<totfact> 0.70652205E+06</totfact>
</mgrwt>
</event>
<event>
 3    1  0.1628330E-001  0.1250000E+03  0.7546771E-02  0.1235069E+00
         21   -1    0    0  502  501  0.00000000000E+00  0.00000000000E+00  0.33858109874E+03  0.33858109874E+03  0.00000000000E+00 0. -1.
         21   -1    0    0  501  502 -0.00000000000E+00 -0.00000000000E+00 -0.11537117738E+02  0.11537117738E+02  0.00000000000E+00 0. -1.
         25    1    1    2    0    0  0.00000000000E+00  0.00000000000E+00  0.32704398100E+03  0.35011821647E+03  0.12500000000E+03 0.  0.
<mgrwt>
<rscale>  0 0.12500000E+03</rscale>
<asrwt>0</asrwt>
<pdfrwt beam="1">  1       21 0.52089392E-01 0.12500000E+03</pdfrwt>
<pdfrwt beam="2">  1       21 0.17749414E-02 0.12500000E+03</pdfrwt>
<totfact> 0.51529706E+06</totfact>
</mgrwt>
</event>
<event>
 3    1  0.1628330E-001  0.1250000E+03  0.7546771E-02  0.1235069E+00
         21   -1    0    0  502  501  0.00000000000E+00  0.00000000000E+00  0.63591949518E+02  0.63591949518E+02  0.00000000000E+00 0.  1.
         21   -1    0    0  501  502 -0.00000000000E+00 -0.00000000000E+00 -0.61426800556E+02  0.61426800556E+02  0.00000000000E+00 0.  1.
         25    1    1    2    0    0  0.00000000000E+00  0.00000000000E+00  0.21651489623E+01  0.12501875007E+03  0.12500000000E+03 0.  0.
<mgrwt>
<rscale>  0 0.12500000E+03</rscale>
<asrwt>0</asrwt>
<pdfrwt beam="1">  1       21 0.97833769E-02 0.12500000E+03</pdfrwt>
<pdfrwt beam="2">  1       21 0.94502770E-02 0.12500000E+03</pdfrwt>
<totfact> 0.74041049E+06</totfact>
</mgrwt>
</event>
<event>
 3    1  0.1628330E-001  0.1250000E+03  0.7546771E-02  0.1235069E+00
         21   -1    0    0  502  501  0.00000000000E+00  0.00000000000E+00  0.20954088411E+02  0.20954088411E+02  0.00000000000E+00 0.  1.
         21   -1    0    0  501  502 -0.00000000000E+00 -0.00000000000E+00 -0.18641946733E+03  0.18641946733E+03  0.00000000000E+00 0.  1.
         25    1    1    2    0    0  0.00000000000E+00  0.00000000000E+00 -0.16546537892E+03  0.20737355574E+03  0.12500000000E+03 0.  0.
<mgrwt>
<rscale>  0 0.12500000E+03</rscale>
<asrwt>0</asrwt>
<pdfrwt beam="1">  1       21 0.32237059E-02 0.12500000E+03</pdfrwt>
<pdfrwt beam="2">  1       21 0.28679919E-01 0.12500000E+03</pdfrwt>
<totfact> 0.64136931E+06</totfact>
</mgrwt>
</event>
<event>
 3    1  0.1628330E-001  0.1250000E+03  0.7546771E-02  0.1235069E+00
         21   -1    0    0  502  501  0.00000000000E+00  0.00000000000E+00  0.43450421275E+02  0.43450421275E+02  0.00000000000E+00 0. -1.
         21   -1    0    0  501  502 -0.00000000000E+00 -0.00000000000E+00 -0.89901314771E+02  0.89901314771E+02  0.00000000000E+00 0. -1.
         25    1    1    2    0    0  0.00000000000E+00  0.00000000000E+00 -0.46450893496E+02  0.13335173605E+03  0.12500000000E+03 0.  0.
<mgrwt>
<rscale>  0 0.12500000E+03</rscale>
<asrwt>0</asrwt>
<pdfrwt beam="1">  1       21 0.66846803E-02 0.12500000E+03</pdfrwt>
<pdfrwt beam="2">  1       21 0.13830971E-01 0.12500000E+03</pdfrwt>
<totfact> 0.72915466E+06</totfact>
</mgrwt>
</event>
<event>
 3    1  0.1628330E-001  0.1250000E+03  0.7546771E-02  0.1235069E+00
         21   -1    0    0  502  501  0.00000000000E+00  0.00000000000E+00  0.44492671518E+03  0.44492671518E+03  0.00000000000E+00 0. -1.
         21   -1    0    0  501  502 -0.00000000000E+00 -0.00000000000E+00 -0.87795357455E+01  0.87795357455E+01  0.00000000000E+00 0. -1.
         25    1    1    2    0    0  0.00000000000E+00  0.00000000000E+00  0.43614717943E+03  0.45370625092E+03  0.12500000000E+03 0.  0.
<mgrwt>
<rscale>  0 0.12500000E+03</rscale>
<asrwt>0</asrwt>
<pdfrwt beam="1">  1       21 0.68450246E-01 0.12500000E+03</pdfrwt>
<pdfrwt beam="2">  1       21 0.13506982E-02 0.12500000E+03</pdfrwt>
<totfact> 0.44671329E+06</totfact>
</mgrwt>
</event>
<event>
 3    1  0.1628330E-001  0.1250000E+03  0.7546771E-02  0.1235069E+00
         21   -1    0    0  502  501  0.00000000000E+00  0.00000000000E+00  0.51876462992E+02  0.51876462992E+02  0.00000000000E+00 0.  1.
         21   -1    0    0  501  502 -0.00000000000E+00 -0.00000000000E+00 -0.75299081216E+02  0.75299081216E+02  0.00000000000E+00 0.  1.
         25    1    1    2    0    0  0.00000000000E+00  0.00000000000E+00 -0.23422618224E+02  0.12717554421E+03  0.12500000000E+03 0.  0.
<mgrwt>
<rscale>  0 0.12500000E+03</rscale>
<asrwt>0</asrwt>
<pdfrwt beam="1">  1       21 0.79809944E-02 0.12500000E+03</pdfrwt>
<pdfrwt beam="2">  1       21 0.11584474E-01 0.12500000E+03</pdfrwt>
<totfact> 0.73745258E+06</totfact>
</mgrwt>
</event>
<event>
 3    1  0.1628330E-001  0.1250000E+03  0.7546771E-02  0.1235069E+00
         21   -1    0    0  502  501  0.00000000000E+00  0.00000000000E+00  0.47381935297E+02  0.47381935297E+02  0.00000000000E+00 0.  1.
         21   -1    0    0  501  502 -0.00000000000E+00 -0.00000000000E+00 -0.82441757086E+02  0.82441757086E+02  0.00000000000E+00 0.  1.
         25    1    1    2    0    0  0.00000000000E+00  0.00000000000E+00 -0.35059821789E+02  0.12982369238E+03  0.12500000000E+03 0.  0.
<mgrwt>
<rscale>  0 0.12500000E+03</rscale>
<asrwt>0</asrwt>
<pdfrwt beam="1">  1       21 0.72895285E-02 0.12500000E+03</pdfrwt>
<pdfrwt beam="2">  1       21 0.12683347E-01 0.12500000E+03</pdfrwt>
<totfact> 0.73388488E+06</totfact>
</mgrwt>
</event>
<event>
 3    1  0.1628330E-001  0.1250000E+03  0.7546771E-02  0.1235069E+00
         21   -1    0    0  502  501  0.00000000000E+00  0.00000000000E+00  0.78576492843E+02  0.78576492843E+02  0.00000000000E+00 0.  1.
         21   -1    0    0  501  502 -0.00000000000E+00 -0.00000000000E+00 -0.49712704890E+02  0.49712704890E+02  0.00000000000E+00 0.  1.
         25    1    1    2    0    0  0.00000000000E+00  0.00000000000E+00  0.28863787953E+02  0.12828919773E+03  0.12500000000E+03 0.  0.
<mgrwt>
<rscale>  0 0.12500000E+03</rscale>
<asrwt>0</asrwt>
<pdfrwt beam="1">  1       21 0.12088691E-01 0.12500000E+03</pdfrwt>
<pdfrwt beam="2">  1       21 0.76481084E-02 0.12500000E+03</pdfrwt>
<totfact> 0.73594529E+06</totfact>
</mgrwt>
</event>
<event>
 3    1  0.1628330E-001  0.1250000E+03  0.7546771E-02  0.1235069E+00
         21   -1    0    0  502  501  0.00000000000E+00  0.00000000000E+00  0.61246502496E+03  0.61246502496E+03  0.00000000000E+00 0.  1.
         21   -1    0    0  501  502 -0.00000000000E+00 -0.00000000000E+00 -0.63779152128E+01  0.63779152128E+01  0.00000000000E+00 0.  1.
         25    1    1    2    0    0  0.00000000000E+00  0.00000000000E+00  0.60608710975E+03  0.61884294018E+03  0.12500000000E+03 0.  0.
<mgrwt>
<rscale>  0 0.12500000E+03</rscale>
<asrwt>0</asrwt>
<pdfrwt beam="1">  1       21 0.94225342E-01 0.12500000E+03</pdfrwt>
<pdfrwt beam="2">  1       21 0.98121821E-03 0.12500000E+03</pdfrwt>
<totfact> 0.36254127E+06</totfact>
</mgrwt>
</event>
<event>
 3    1  0.1628330E-001  0.1250000E+03  0.7546771E-02  0.1235069E+00
         21   -1    0    0  502  501  0.00000000000E+00  0.00000000000E+00  0.32569539387E+02  0.32569539387E+02  0.00000000000E+00 0.  1.
         21   -1    0    0  501  502 -0.00000000000E+00 -0.00000000000E+00 -0.11993568449E+03  0.11993568449E+03  0.00000000000E+00 0.  1.
         25    1    1    2    0    0  0.00000000000E+00  0.00000000000E+00 -0.87366145107E+02  0.15250522388E+03  0.12500000000E+03 0.  0.
<mgrwt>
<rscale>  0 0.12500000E+03</rscale>
<asrwt>0</asrwt>
<pdfrwt beam="1">  1       21 0.50106984E-02 0.12500000E+03</pdfrwt>
<pdfrwt beam="2">  1       21 0.18451644E-01 0.12500000E+03</pdfrwt>
<totfact> 0.70445900E+06</totfact>
</mgrwt>
</event>
<event>
 3    1  0.1628330E-001  0.1250000E+03  0.7546771E-02  0.1235069E+00
         21   -1    0    0  502  501  0.00000000000E+00  0.00000000000E+00  0.40950454400E+03  0.40950454400E+03  0.00000000000E+00 0.  1.
         21   -1    0    0  501  502 -0.00000000000E+00 -0.00000000000E+00 -0.95389661904E+01  0.95389661904E+01  0.00000000000E+00 0.  1.
         25    1    1    2    0    0  0.00000000000E+00  0.00000000000E+00  0.39996557781E+03  0.41904351019E+03  0.12500000000E+03 0.  0.
<mgrwt>
<rscale>  0 0.12500000E+03</rscale>
<asrwt>0</asrwt>
<pdfrwt beam="1">  1       21 0.63000686E-01 0.12500000E+03</pdfrwt>
<pdfrwt beam="2">  1       21 0.14675336E-02 0.12500000E+03</pdfrwt>
<totfact> 0.46803350E+06</totfact>
</mgrwt>
</event>
<event>
 3    1  0.1628330E-001  0.1250000E+03  0.7546771E-02  0.1235069E+00
         21   -1    0    0  502  501  0.00000000000E+00  0.00000000000E+00  0.11277888019E+03  0.11277888019E+03  0.00000000000E+00 0.  1.
         21   -1    0    0  501  502 -0.00000000000E+00 -0.00000000000E+00 -0.34636360935E+02  0.34636360935E+02  0.00000000000E+00 0.  1.
         25    1    1    2    0    0  0.00000000000E+00  0.00000000000E+00  0.78142519253E+02  0.14741524112E+03  0.12500000000E+03 0.  0.
<mgrwt>
<rscale>  0 0.12500000E+03</rscale>
<asrwt>0</asrwt>
<pdfrwt beam="1">  1       21 0.17350597E-01 0.12500000E+03</pdfrwt>
<pdfrwt beam="2">  1       21 0.53286710E-02 0.12500000E+03</pdfrwt>
<totfact> 0.71085424E+06</totfact>
</mgrwt>
</event>
<event>
 3    1  0.1628330E-001  0.1250000E+03  0.7546771E-02  0.1235069E+00
         21   -1    0    0  502  501  0.00000000000E+00  0.00000000000E+00  0.39898062099E+03  0.39898062099E+03  0.00000000000E+00 0.  1.
         21   -1    0    0  501  502 -0.00000000000E+00 -0.00000000000E+00 -0.97905757687E+01  0.97905757687E+01  0.00000000000E+00 0.  1.
         25    1    1    2    0    0  0.00000000000E+00  0.00000000000E+00  0.38919004522E+03  0.40877119675E+03  0.12500000000E+03 0.  0.
<mgrwt>
<rscale>  0 0.12500000E+03</rscale>
<asrwt>0</asrwt>
<pdfrwt beam="1">  1       21 0.61381622E-01 0.12500000E+03</pdfrwt>
<pdfrwt beam="2">  1       21 0.15062427E-02 0.12500000E+03</pdfrwt>
<totfact> 0.47464962E+06</totfact>
</mgrwt>
</event>
<event>
 3    1  0.1628330E-001  0.1250000E+03  0.7546771E-02  0.1235069E+00
         21   -1    0    0  502  501  0.00000000000E+00  0.00000000000E+00  0.18618613741E+02  0.18618613741E+02  0.00000000000E+00 0. -1.
         21   -1    0    0  501  502 -0.00000000000E+00 -0.00000000000E+00 -0.20980348238E+03  0.20980348238E+03  0.00000000000E+00 0. -1.
         25    1    1    2    0    0  0.00000000000E+00  0.00000000000E+00 -0.19118486864E+03  0.22842209612E+03  0.12500000000E+03 0.  0.
<mgrwt>
<rscale>  0 0.12500000E+03</rscale>
<asrwt>0</asrwt>
<pdfrwt beam="1">  1       21 0.28644020E-02 0.12500000E+03</pdfrwt>
<pdfrwt beam="2">  1       21 0.32277460E-01 0.12500000E+03</pdfrwt>
<totfact> 0.61971359E+06</totfact>
</mgrwt>
</event>
<event>
 3    1  0.1628330E-001  0.1250000E+03  0.7546771E-02  0.1235069E+00
         21   -1    0    0  502  501  0.00000000000E+00  0.00000000000E+00  0.68059104350E+03  0.68059104350E+03  0.00000000000E+00 0. -1.
         21   -1    0    0  501  502 -0.00000000000E+00 -0.00000000000E+00 -0.57394966292E+01  0.57394966292E+01  0.00000000000E+00 0. -1.
         25    1    1    2    0    0  0.00000000000E+00  0.00000000000E+00  0.67485154687E+03  0.68633054013E+03  0.12500000000E+03 0.  0.
<mgrwt>
<rscale>  0 0.12500000E+03</rscale>
<asrwt>0</asrwt>
<pdfrwt beam="1">  1       21 0.10470625E+00 0.12500000E+03</pdfrwt>
<pdfrwt beam="2">  1       21 0.88300002E-03 0.12500000E+03</pdfrwt>
<totfact> 0.33443856E+06</totfact>
</mgrwt>
</event>
<event>
 3    1  0.1628330E-001  0.1250000E+03  0.7546771E-02  0.1235069E+00
         21   -1    0    0  502  501  0.00000000000E+00  0.00000000000E+00  0.30537963010E+02  0.30537963010E+02  0.00000000000E+00 0.  1.
         21   -1    0    0  501  502 -0.00000000000E+00 -0.00000000000E+00 -0.12791455667E+03  0.12791455667E+03  0.00000000000E+00 0.  1.
         25    1    1    2    0    0  0.00000000000E+00  0.00000000000E+00 -0.97376593660E+02  0.15845251968E+03  0.12500000000E+03 0.  0.
<mgrwt>
<rscale>  0 0.12500000E+03</rscale>
<asrwt>0</asrwt>
<pdfrwt beam="1">  1       21 0.46981481E-02 0.12500000E+03</pdfrwt>
<pdfrwt beam="2">  1       21 0.19679163E-01 0.12500000E+03</pdfrwt>
<totfact> 0.69709077E+06</totfact>
</mgrwt>
</event>
<event>
 3    1  0.1628330E-001  0.1250000E+03  0.7546771E-02  0.1235069E+00
         21   -1    0    0  502  501  0.00000000000E+00  0.00000000000E+00  0.70144522338E+01  0.70144522338E+01  0.00000000000E+00 0. -1.
         21   -1    0    0  501  502 -0.00000000000E+00 -0.00000000000E+00 -0.55688596483E+03  0.55688596483E+03  0.00000000000E+00 0. -1.
         25    1    1    2    0    0  0.00000000000E+00  0.00000000000E+00 -0.54987151260E+03  0.56390041707E+03  0.12500000000E+03 0.  0.
<mgrwt>
<rscale>  0 0.12500000E+03</rscale>
<asrwt>0</asrwt>
<pdfrwt beam="1">  1       21 0.10791463E-02 0.12500000E+03</pdfrwt>
<pdfrwt beam="2">  1       21 0.85674782E-01 0.12500000E+03</pdfrwt>
<totfact> 0.38777790E+06</totfact>
</mgrwt>
</event>
<event>
 3    1  0.1628330E-001  0.1250000E+03  0.7546771E-02  0.1235069E+00
         21   -1    0    0  502  501  0.00000000000E+00  0.00000000000E+00  0.24004888714E+04  0.24004888714E+04  0.00000000000E+00 0.  1.
         21   -1    0    0  501  502 -0.00000000000E+00 -0.00000000000E+00 -0.16272726971E+01  0.16272726971E+01  0.00000000000E+00 0.  1.
         25    1    1    2    0    0  0.00000000000E+00  0.00000000000E+00  0.23988615987E+04  0.24021161440E+04  0.12500000000E+03 0.  0.
<mgrwt>
<rscale>  0 0.12500000E+03</rscale>
<asrwt>0</asrwt>
<pdfrwt beam="1">  1       21 0.36930315E+00 0.12500000E+03</pdfrwt>
<pdfrwt beam="2">  1       21 0.25035157E-03 0.12500000E+03</pdfrwt>
<totfact> 0.46501267E+05</totfact>
</mgrwt>
</event>
<event>
 3    1  0.1628330E-001  0.1250000E+03  0.7546771E-02  0.1235069E+00
         21   -1    0    0  502  501  0.00000000000E+00  0.00000000000E+00  0.42314295084E+02  0.42314295084E+02  0.00000000000E+00 0.  1.
         21   -1    0    0  501  502 -0.00000000000E+00 -0.00000000000E+00 -0.92315138236E+02  0.92315138236E+02  0.00000000000E+00 0.  1.
         25    1    1    2    0    0  0.00000000000E+00  0.00000000000E+00 -0.50000843153E+02  0.13462943332E+03  0.12500000000E+03 0.  0.
<mgrwt>
<rscale>  0 0.12500000E+03</rscale>
<asrwt>0</asrwt>
<pdfrwt beam="1">  1       21 0.65098915E-02 0.12500000E+03</pdfrwt>
<pdfrwt beam="2">  1       21 0.14202329E-01 0.12500000E+03</pdfrwt>
<totfact> 0.72745575E+06</totfact>
</mgrwt>
</event>
<event>
 3    1  0.1628330E-001  0.1250000E+03  0.7546771E-02  0.1235069E+00
         21   -1    0    0  502  501  0.00000000000E+00  0.00000000000E+00  0.17211957563E+03  0.17211957563E+03  0.00000000000E+00 0. -1.
         21   -1    0    0  501  502 -0.00000000000E+00 -0.00000000000E+00 -0.22694978103E+02  0.22694978103E+02  0.00000000000E+00 0. -1.
         25    1    1    2    0    0  0.00000000000E+00  0.00000000000E+00  0.14942459753E+03  0.19481455373E+03  0.12500000000E+03 0.  0.
<mgrwt>
<rscale>  0 0.12500000E+03</rscale>
<asrwt>0</asrwt>
<pdfrwt beam="1">  1       21 0.26479934E-01 0.12500000E+03</pdfrwt>
<pdfrwt beam="2">  1       21 0.34915352E-02 0.12500000E+03</pdfrwt>
<totfact> 0.65491325E+06</totfact>
</mgrwt>
</event>
<event>
 3    1  0.1628330E-001  0.1250000E+03  0.7546771E-02  0.1235069E+00
         21   -1    0    0  502  501  0.00000000000E+00  0.00000000000E+00  0.57136004398E+03  0.57136004398E+03  0.00000000000E+00 0.  1.
         21   -1    0    0  501  502 -0.00000000000E+00 -0.00000000000E+00 -0.68367573847E+01  0.68367573847E+01  0.00000000000E+00 0.  1.
         25    1    1    2    0    0  0.00000000000E+00  0.00000000000E+00  0.56452328660E+03  0.57819680136E+03  0.12500000000E+03 0.  0.
<mgrwt>
<rscale>  0 0.12500000E+03</rscale>
<asrwt>0</asrwt>
<pdfrwt beam="1">  1       21 0.87901508E-01 0.12500000E+03</pdfrwt>
<pdfrwt beam="2">  1       21 0.10518093E-02 0.12500000E+03</pdfrwt>
<totfact> 0.38097599E+06</totfact>
</mgrwt>
</event>
<event>
 3    1  0.1628330E-001  0.1250000E+03  0.7546771E-02  0.1235069E+00
         21   -1    0    0  502  501  0.00000000000E+00  0.00000000000E+00  0.44040081598E+02  0.44040081598E+02  0.00000000000E+00 0.  1.
         21   -1    0    0  501  502 -0.00000000000E+00 -0.00000000000E+00 -0.88697610410E+02  0.88697610410E+02  0.00000000000E+00 0.  1.
         25    1    1    2    0    0  0.00000000000E+00  0.00000000000E+00 -0.44657528812E+02  0.13273769201E+03  0.12500000000E+03 0.  0.
<mgrwt>
<rscale>  0 0.12500000E+03</rscale>
<asrwt>0</asrwt>
<pdfrwt beam="1">  1       21 0.67753972E-02 0.12500000E+03</pdfrwt>
<pdfrwt beam="2">  1       21 0.13645786E-01 0.12500000E+03</pdfrwt>
<totfact> 0.72997445E+06</totfact>
</mgrwt>
</event>
<event>
 3    1  0.1628330E-001  0.1250000E+03  0.7546771E-02  0.1235069E+00
         21   -1    0    0  502  501  0.00000000000E+00  0.00000000000E+00  0.23978174508E+02  0.23978174508E+02  0.00000000000E+00 0.  1.
         21   -1    0    0  501  502 -0.00000000000E+00 -0.00000000000E+00 -0.16290856498E+03  0.16290856498E+03  0.00000000000E+00 0.  1.
         25    1    1    2    0    0  0.00000000000E+00  0.00000000000E+00 -0.13893039047E+03  0.18688673949E+03  0.12500000000E+03 0.  0.
<mgrwt>
<rscale>  0 0.12500000E+03</rscale>
<asrwt>0</asrwt>
<pdfrwt beam="1">  1       21 0.36889498E-02 0.12500000E+03</pdfrwt>
<pdfrwt beam="2">  1       21 0.25062857E-01 0.12500000E+03</pdfrwt>
<totfact> 0.66370156E+06</totfact>
</mgrwt>
</event>
<event>
 3    1  0.1628330E-001  0.1250000E+03  0.7546771E-02  0.1235069E+00
         21   -1    0    0  502  501  0.00000000000E+00  0.00000000000E+00  0.12631654157E+03  0.12631654157E+03  0.00000000000E+00 0.  1.
         21   -1    0    0  501  502 -0.00000000000E+00 -0.00000000000E+00 -0.30924295040E+02  0.30924295040E+02  0.00000000000E+00 0.  1.
         25    1    1    2    0    0  0.00000000000E+00  0.00000000000E+00  0.95392246530E+02  0.15724083661E+03  0.12500000000E+03 0.  0.
<mgrwt>
<rscale>  0 0.12500000E+03</rscale>
<asrwt>0</asrwt>
<pdfrwt beam="1">  1       21 0.19433314E-01 0.12500000E+03</pdfrwt>
<pdfrwt beam="2">  1       21 0.47575839E-02 0.12500000E+03</pdfrwt>
<totfact> 0.69858217E+06</totfact>
</mgrwt>
</event>
<event>
 3    1  0.1628330E-001  0.1250000E+03  0.7546771E-02  0.1235069E+00
         21   -1    0    0  502  501  0.00000000000E+00  0.00000000000E+00  0.61869391211E+03  0.61869391211E+03  0.00000000000E+00 0.  1.
         21   -1    0    0  501  502 -0.00000000000E+00 -0.00000000000E+00 -0.63137036320E+01  0.63137036320E+01  0.00000000000E+00 0.  1.
         25    1    1    2    0    0  0.00000000000E+00  0.00000000000E+00  0.61238020848E+03  0.62500761575E+03  0.12500000000E+03 0.  0.
<mgrwt>
<rscale>  0 0.12500000E+03</rscale>
<asrwt>0</asrwt>
<pdfrwt beam="1">  1       21 0.95183631E-01 0.12500000E+03</pdfrwt>
<pdfrwt beam="2">  1       21 0.97133951E-03 0.12500000E+03</pdfrwt>
<totfact> 0.35985583E+06</totfact>
</mgrwt>
</event>
<event>
 3    1  0.1628330E-001  0.1250000E+03  0.7546771E-02  0.1235069E+00
         21   -1    0    0  502  501  0.00000000000E+00  0.00000000000E+00  0.10578558400E+03  0.10578558400E+03  0.00000000000E+00 0.  1.
         21   -1    0    0  501  502 -0.00000000000E+00 -0.00000000000E+00 -0.36926108948E+02  0.36926108948E+02  0.00000000000E+00 0.  1.
         25    1    1    2    0    0  0.00000000000E+00  0.00000000000E+00  0.68859475053E+02  0.14271169295E+03  0.12500000000E+03 0.  0.
<mgrwt>
<rscale>  0 0.12500000E+03</rscale>
<asrwt>0</asrwt>
<pdfrwt beam="1">  1       21 0.16274705E-01 0.12500000E+03</pdfrwt>
<pdfrwt beam="2">  1       21 0.56809399E-02 0.12500000E+03</pdfrwt>
<totfact> 0.71687250E+06</totfact>
</mgrwt>
</event>
<event>
 3    1  0.1628330E-001  0.1250000E+03  0.7546771E-02  0.1235069E+00
         21   -1    0    0  502  501  0.00000000000E+00  0.00000000000E+00  0.89622949724E+03  0.89622949724E+03  0.00000000000E+00 0. -1.
         21   -1    0    0  501  502 -0.00000000000E+00 -0.00000000000E+00 -0.43585376425E+01  0.43585376425E+01  0.00000000000E+00 0. -1.
         25    1    1    2    0    0  0.00000000000E+00  0.00000000000E+00  0.89187095960E+03  0.90058803488E+03  0.12500000000E+03 0.  0.
<mgrwt>
<rscale>  0 0.12500000E+03</rscale>
<asrwt>0</asrwt>
<pdfrwt beam="1">  1       21 0.13788131E+00 0.12500000E+03</pdfrwt>
<pdfrwt beam="2">  1       21 0.67054497E-03 0.12500000E+03</pdfrwt>
<totfact> 0.26282238E+06</totfact>
</mgrwt>
</event>
<event>
 3    1  0.1628330E-001  0.1250000E+03  0.7546771E-02  0.1235069E+00
         21   -1    0    0  502  501  0.00000000000E+00  0.00000000000E+00  0.63362576448E+01  0.63362576448E+01  0.00000000000E+00 0. -1.
         21   -1    0    0  501  502 -0.00000000000E+00 -0.00000000000E+00 -0.61649166101E+03  0.61649166101E+03  0.00000000000E+00 0. -1.
         25    1    1    2    0    0  0.00000000000E+00  0.00000000000E+00 -0.61015540336E+03  0.62282791865E+03  0.12500000000E+03 0.  0.
<mgrwt>
<rscale>  0 0.12500000E+03</rscale>
<asrwt>0</asrwt>
<pdfrwt beam="1">  1       21 0.97480870E-03 0.12500000E+03</pdfrwt>
<pdfrwt beam="2">  1       21 0.94844888E-01 0.12500000E+03</pdfrwt>
<totfact> 0.36080197E+06</totfact>
</mgrwt>
</event>
<event>
 3    1  0.1628330E-001  0.1250000E+03  0.7546771E-02  0.1235069E+00
         21   -1    0    0  502  501  0.00000000000E+00  0.00000000000E+00  0.19727730225E+02  0.19727730225E+02  0.00000000000E+00 0. -1.
         21   -1    0    0  501  502 -0.00000000000E+00 -0.00000000000E+00 -0.19800808078E+03  0.19800808078E+03  0.00000000000E+00 0. -1.
         25    1    1    2    0    0  0.00000000000E+00  0.00000000000E+00 -0.17828035055E+03  0.21773581100E+03  0.12500000000E+03 0.  0.
<mgrwt>
<rscale>  0 0.12500000E+03</rscale>
<asrwt>0</asrwt>
<pdfrwt beam="1">  1       21 0.30350353E-02 0.12500000E+03</pdfrwt>
<pdfrwt beam="2">  1       21 0.30462783E-01 0.12500000E+03</pdfrwt>
<totfact> 0.63054717E+06</totfact>
</mgrwt>
</event>
<event>
 3    1  0.1628330E-001  0.1250000E+03  0.7546771E-02  0.1235069E+00
         21   -1    0    0  502  501  0.00000000000E+00  0.00000000000E+00  0.56802719182E+02  0.56802719182E+02  0.00000000000E+00 0.  1.
         21   -1    0    0  501  502 -0.00000000000E+00 -0.00000000000E+00 -0.68768714883E+02  0.68768714883E+02  0.00000000000E+00 0.  1.
         25    1    1    2    0    0  0.00000000000E+00  0.00000000000E+00 -0.11965995700E+02  0.12557143406E+03  0.12500000000E+03 0.  0.
<mgrwt>
<rscale>  0 0.12500000E+03</rscale>
<asrwt>0</asrwt>
<pdfrwt beam="1">  1       21 0.87388798E-02 0.12500000E+03</pdfrwt>
<pdfrwt beam="2">  1       21 0.10579802E-01 0.12500000E+03</pdfrwt>
<totfact> 0.73965423E+06</totfact>
</mgrwt>
</event>
<event>
 3    1  0.1628330E-001  0.1250000E+03  0.7546771E-02  0.1235069E+00
         21   -1    0    0  502  501  0.00000000000E+00  0.00000000000E+00  0.13551637241E+04  0.13551637241E+04  0.00000000000E+00 0. -1.
         21   -1    0    0  501  502 -0.00000000000E+00 -0.00000000000E+00 -0.28824930379E+01  0.28824930379E+01  0.00000000000E+00 0. -1.
         25    1    1    2    0    0  0.00000000000E+00  0.00000000000E+00  0.13522812311E+04  0.13580462172E+04  0.12500000000E+03 0.  0.
<mgrwt>
<rscale>  0 0.12500000E+03</rscale>
<asrwt>0</asrwt>
<pdfrwt beam="1">  1       21 0.20848622E+00 0.12500000E+03</pdfrwt>
<pdfrwt beam="2">  1       21 0.44346155E-03 0.12500000E+03</pdfrwt>
<totfact> 0.16241296E+06</totfact>
</mgrwt>
</event>
<event>
 3    1  0.1628330E-001  0.1250000E+03  0.7546771E-02  0.1235069E+00
         21   -1    0    0  502  501  0.00000000000E+00  0.00000000000E+00  0.65586632943E+02  0.65586632943E+02  0.00000000000E+00 0.  1.
         21   -1    0    0  501  502 -0.00000000000E+00 -0.00000000000E+00 -0.59558629933E+02  0.59558629933E+02  0.00000000000E+00 0.  1.
         25    1    1    2    0    0  0.00000000000E+00  0.00000000000E+00  0.60280030105E+01  0.12514526288E+03  0.12500000000E+03 0.  0.
<mgrwt>
<rscale>  0 0.12500000E+03</rscale>
<asrwt>0</asrwt>
<pdfrwt beam="1">  1       21 0.10090251E-01 0.12500000E+03</pdfrwt>
<pdfrwt beam="2">  1       21 0.91628662E-02 0.12500000E+03</pdfrwt>
<totfact> 0.74023963E+06</totfact>
</mgrwt>
</event>
<event>
 3    1  0.1628330E-001  0.1250000E+03  0.7546771E-02  0.1235069E+00
         21   -1    0    0  502  501  0.00000000000E+00  0.00000000000E+00  0.31886823381E+03  0.31886823381E+03  0.00000000000E+00 0.  1.
         21   -1    0    0  501  502 -0.00000000000E+00 -0.00000000000E+00 -0.12250357941E+02  0.12250357941E+02  0.00000000000E+00 0.  1.
         25    1    1    2    0    0  0.00000000000E+00  0.00000000000E+00  0.30661787586E+03  0.33111859175E+03  0.12500000000E+03 0.  0.
<mgrwt>
<rscale>  0 0.12500000E+03</rscale>
<asrwt>0</asrwt>
<pdfrwt beam="1">  1       21 0.49056645E-01 0.12500000E+03</pdfrwt>
<pdfrwt beam="2">  1       21 0.18846707E-02 0.12500000E+03</pdfrwt>
<totfact> 0.52963850E+06</totfact>
</mgrwt>
</event>
<event>
 3    1  0.1628330E-001  0.1250000E+03  0.7546771E-02  0.1235069E+00
         21   -1    0    0  502  501  0.00000000000E+00  0.00000000000E+00  0.85448157807E+02  0.85448157807E+02  0.00000000000E+00 0.  1.
         21   -1    0    0  501  502 -0.00000000000E+00 -0.00000000000E+00 -0.45714853313E+02  0.45714853313E+02  0.00000000000E+00 0.  1.
         25    1    1    2    0    0  0.00000000000E+00  0.00000000000E+00  0.39733304495E+02  0.13116301112E+03  0.12500000000E+03 0.  0.
<mgrwt>
<rscale>  0 0.12500000E+03</rscale>
<asrwt>0</asrwt>
<pdfrwt beam="1">  1       21 0.13145870E-01 0.12500000E+03</pdfrwt>
<pdfrwt beam="2">  1       21 0.70330544E-02 0.12500000E+03</pdfrwt>
<totfact> 0.73208713E+06</totfact>
</mgrwt>
</event>
<event>
 3    1  0.1628330E-001  0.1250000E+03  0.7546771E-02  0.1235069E+00
         21   -1    0    0  502  501  0.00000000000E+00  0.00000000000E+00  0.36271425119E+03  0.36271425119E+03  0.00000000000E+00 0. -1.
         21   -1    0    0  501  502 -0.00000000000E+00 -0.00000000000E+00 -0.10769496890E+02  0.10769496890E+02  0.00000000000E+00 0. -1.
         25    1    1    2    0    0  0.00000000000E+00  0.00000000000E+00  0.35194475430E+03  0.37348374808E+03  0.12500000000E+03 0.  0.
<mgrwt>
<rscale>  0 0.12500000E+03</rscale>
<asrwt>0</asrwt>
<pdfrwt beam="1">  1       21 0.55802183E-01 0.12500000E+03</pdfrwt>
<pdfrwt beam="2">  1       21 0.16568459E-02 0.12500000E+03</pdfrwt>
<totfact> 0.49849495E+06</totfact>
</mgrwt>
</event>
<event>
 3    1  0.1628330E-001  0.1250000E+03  0.7546771E-02  0.1235069E+00
         21   -1    0    0  502  501  0.00000000000E+00  0.00000000000E+00  0.38408897355E+02  0.38408897355E+02  0.00000000000E+00 0. -1.
         21   -1    0    0  501  502 -0.00000000000E+00 -0.00000000000E+00 -0.10170169593E+03  0.10170169593E+03  0.00000000000E+00 0. -1.
         25    1    1    2    0    0  0.00000000000E+00  0.00000000000E+00 -0.63292798580E+02  0.14011059329E+03  0.12500000000E+03 0.  0.
<mgrwt>
<rscale>  0 0.12500000E+03</rscale>
<asrwt>0</asrwt>
<pdfrwt beam="1">  1       21 0.59090612E-02 0.12500000E+03</pdfrwt>
<pdfrwt beam="2">  1       21 0.15646415E-01 0.12500000E+03</pdfrwt>
<totfact> 0.72024874E+06</totfact>
</mgrwt>
</event>
<event>
 3    1  0.1628330E-001  0.1250000E+03  0.7546771E-02  0.1235069E+00
         21   -1    0    0  502  501  0.00000000000E+00  0.00000000000E+00  0.96294420576E+02  0.96294420576E+02  0.00000000000E+00 0. -1.
         21   -1    0    0  501  502 -0.00000000000E+00 -0.00000000000E+00 -0.40565694011E+02  0.40565694011E+02  0.00000000000E+00 0. -1.
         25    1    1    2    0    0  0.00000000000E+00  0.00000000000E+00  0.55728726565E+02  0.13686011459E+03  0.12500000000E+03 0.  0.
<mgrwt>
<rscale>  0 0.12500000E+03</rscale>
<asrwt>0</asrwt>
<pdfrwt beam="1">  1       21 0.14814526E-01 0.12500000E+03</pdfrwt>
<pdfrwt beam="2">  1       21 0.62408760E-02 0.12500000E+03</pdfrwt>
<totfact> 0.72451106E+06</totfact>
</mgrwt>
</event>
<event>
 3    1  0.1628330E-001  0.1250000E+03  0.7546771E-02  0.1235069E+00
         21   -1    0    0  502  501  0.00000000000E+00  0.00000000000E+00  0.11036791335E+02  0.11036791335E+02  0.00000000000E+00 0.  1.
         21   -1    0    0  501  502 -0.00000000000E+00 -0.00000000000E+00 -0.35392985892E+03  0.35392985892E+03  0.00000000000E+00 0.  1.
         25    1    1    2    0    0  0.00000000000E+00  0.00000000000E+00 -0.34289306759E+03  0.36496665026E+03  0.12500000000E+03 0.  0.
<mgrwt>
<rscale>  0 0.12500000E+03</rscale>
<asrwt>0</asrwt>
<pdfrwt beam="1">  1       21 0.16979679E-02 0.12500000E+03</pdfrwt>
<pdfrwt beam="2">  1       21 0.54450747E-01 0.12500000E+03</pdfrwt>
<totfact> 0.50451743E+06</totfact>
</mgrwt>
</event>
<event>
 3    1  0.1628330E-001  0.1250000E+03  0.7546771E-02  0.1235069E+00
         21   -1    0    0  502  501  0.00000000000E+00  0.00000000000E+00  0.67624385144E+02  0.67624385144E+02  0.00000000000E+00 0.  1.
         21   -1    0    0  501  502 -0.00000000000E+00 -0.00000000000E+00 -0.57763926307E+02  0.57763926307E+02  0.00000000000E+00 0.  1.
         25    1    1    2    0    0  0.00000000000E+00  0.00000000000E+00  0.98604588374E+01  0.12538831145E+03  0.12500000000E+03 0.  0.
<mgrwt>
<rscale>  0 0.12500000E+03</rscale>
<asrwt>0</asrwt>
<pdfrwt beam="1">  1       21 0.10403752E-01 0.12500000E+03</pdfrwt>
<pdfrwt beam="2">  1       21 0.88867579E-02 0.12500000E+03</pdfrwt>
<totfact> 0.73991055E+06</totfact>
</mgrwt>
</event>
<event>
 3    1  0.1628330E-001  0.1250000E+03  0.7546771E-02  0.1235069E+00
         21   -1    0    0  502  501  0.00000000000E+00  0.00000000000E+00  0.35669924109E+02  0.35669924109E+02  0.00000000000E+00 0. -1.
         21   -1    0    0  501  502 -0.00000000000E+00 -0.00000000000E+00 -0.10951102638E+03  0.10951102638E+03  0.00000000000E+00 0. -1.
         25    1    1    2    0    0  0.00000000000E+00  0.00000000000E+00 -0.73841102268E+02  0.14518095049E+03  0.12500000000E+03 0.  0.
<mgrwt>
<rscale>  0 0.12500000E+03</rscale>
<asrwt>0</asrwt>
<pdfrwt beam="1">  1       21 0.54876807E-02 0.12500000E+03</pdfrwt>
<pdfrwt beam="2">  1       21 0.16847850E-01 0.12500000E+03</pdfrwt>
<totfact> 0.71369950E+06</totfact>
</mgrwt>
</event>
<event>
 3    1  0.1628330E-001  0.1250000E+03  0.7546771E-02  0.1235069E+00
         21   -1    0    0  502  501  0.00000000000E+00  0.00000000000E+00  0.11535134267E+03  0.11535134267E+03  0.00000000000E+00 0.  1.
         21   -1    0    0  501  502 -0.00000000000E+00 -0.00000000000E+00 -0.33863931790E+02  0.33863931790E+02  0.00000000000E+00 0.  1.
         25    1    1    2    0    0  0.00000000000E+00  0.00000000000E+00  0.81487410877E+02  0.14921527446E+03  0.12500000000E+03 0.  0.
<mgrwt>
<rscale>  0 0.12500000E+03</rscale>
<asrwt>0</asrwt>
<pdfrwt beam="1">  1       21 0.17746360E-01 0.12500000E+03</pdfrwt>
<pdfrwt beam="2">  1       21 0.52098357E-02 0.12500000E+03</pdfrwt>
<totfact> 0.70857916E+06</totfact>
</mgrwt>
</event>
<event>
 3    1  0.1628330E-001  0.1250000E+03  0.7546771E-02  0.1235069E+00
         21   -1    0    0  502  501  0.00000000000E+00  0.00000000000E+00  0.31916765459E+03  0.31916765459E+03  0.00000000000E+00 0. -1.
         21   -1    0    0  501  502 -0.00000000000E+00 -0.00000000000E+00 -0.12238865511E+02  0.12238865511E+02  0.00000000000E+00 0. -1.
         25    1    1    2    0    0  0.00000000000E+00  0.00000000000E+00  0.30692878908E+03  0.33140652010E+03  0.12500000000E+03 0.  0.
<mgrwt>
<rscale>  0 0.12500000E+03</rscale>
<asrwt>0</asrwt>
<pdfrwt beam="1">  1       21 0.49102710E-01 0.12500000E+03</pdfrwt>
<pdfrwt beam="2">  1       21 0.18829026E-02 0.12500000E+03</pdfrwt>
<totfact> 0.52941637E+06</totfact>
</mgrwt>
</event>
<event>
 3    1  0.1628330E-001  0.1250000E+03  0.7546771E-02  0.1235069E+00
         21   -1    0    0  502  501  0.00000000000E+00  0.00000000000E+00  0.16729902986E+02  0.16729902986E+02  0.00000000000E+00 0.  1.
         21   -1    0    0  501  502 -0.00000000000E+00 -0.00000000000E+00 -0.23348910052E+03  0.23348910052E+03  0.00000000000E+00 0.  1.
         25    1    1    2    0    0  0.00000000000E+00  0.00000000000E+00 -0.21675919753E+03  0.25021900350E+03  0.12500000000E+03 0.  0.
<mgrwt>
<rscale>  0 0.12500000E+03</rscale>
<asrwt>0</asrwt>
<pdfrwt beam="1">  1       21 0.25738317E-02 0.12500000E+03</pdfrwt>
<pdfrwt beam="2">  1       21 0.35921394E-01 0.12500000E+03</pdfrwt>
<totfact> 0.59857580E+06</totfact>
</mgrwt>
</event>
<event>
 3    1  0.1628330E-001  0.1250000E+03  0.7546771E-02  0.1235069E+00
         21   -1    0    0  502  501  0.00000000000E+00  0.00000000000E+00  0.29862479369E+03  0.29862479369E+03  0.00000000000E+00 0.  1.
         21   -1    0    0  501  502 -0.00000000000E+00 -0.00000000000E+00 -0.13080795977E+02  0.13080795977E+02  0.00000000000E+00 0.  1.
         25    1    1    2    0    0  0.00000000000E+00  0.00000000000E+00  0.28554399771E+03  0.31170558967E+03  0.12500000000E+03 0.  0.
<mgrwt>
<rscale>  0 0.12500000E+03</rscale>
<asrwt>0</asrwt>
<pdfrwt beam="1">  1       21 0.45942271E-01 0.12500000E+03</pdfrwt>
<pdfrwt beam="2">  1       21 0.20124304E-02 0.12500000E+03</pdfrwt>
<totfact> 0.54497210E+06</totfact>
</mgrwt>
</event>
<event>
 3    1  0.1628330E-001  0.1250000E+03  0.7546771E-02  0.1235069E+00
         21   -1    0    0  502  501  0.00000000000E+00  0.00000000000E+00  0.26442006444E+02  0.26442006444E+02  0.00000000000E+00 0.  1.
         21   -1    0    0  501  502 -0.00000000000E+00 -0.00000000000E+00 -0.14772895575E+03  0.14772895575E+03  0.00000000000E+00 0.  1.
         25    1    1    2    0    0  0.00000000000E+00  0.00000000000E+00 -0.12128694931E+03  0.17417096220E+03  0.12500000000E+03 0.  0.
<mgrwt>
<rscale>  0 0.12500000E+03</rscale>
<asrwt>0</asrwt>
<pdfrwt beam="1">  1       21 0.40680010E-02 0.12500000E+03</pdfrwt>
<pdfrwt beam="2">  1       21 0.22727532E-01 0.12500000E+03</pdfrwt>
<totfact> 0.67826599E+06</totfact>
</mgrwt>
</event>
<event>
 3    1  0.1628330E-001  0.1250000E+03  0.7546771E-02  0.1235069E+00
         21   -1    0    0  502  501  0.00000000000E+00  0.00000000000E+00  0.20477885648E+02  0.20477885648E+02  0.00000000000E+00 0.  1.
         21   -1    0    0  501  502 -0.00000000000E+00 -0.00000000000E+00 -0.19075455675E+03  0.19075455675E+03  0.00000000000E+00 0.  1.
         25    1    1    2    0    0  0.00000000000E+00  0.00000000000E+00 -0.17027667110E+03  0.21123244240E+03  0.12500000000E+03 0.  0.
<mgrwt>
<rscale>  0 0.12500000E+03</rscale>
<asrwt>0</asrwt>
<pdfrwt beam="1">  1       21 0.31504439E-02 0.12500000E+03</pdfrwt>
<pdfrwt beam="2">  1       21 0.29346855E-01 0.12500000E+03</pdfrwt>
<totfact> 0.63730101E+06</totfact>
</mgrwt>
</event>
<event>
 3    1  0.1628330E-001  0.1250000E+03  0.7546771E-02  0.1235069E+00
         21   -1    0    0  502  501  0.00000000000E+00  0.00000000000E+00  0.58122253073E+03  0.58122253073E+03  0.00000000000E+00 0.  1.
         21   -1    0    0  501  502 -0.00000000000E+00 -0.00000000000E+00 -0.67207477230E+01  0.67207477230E+01  0.00000000000E+00 0.  1.
         25    1    1    2    0    0  0.00000000000E+00  0.00000000000E+00  0.57450178301E+03  0.58794327845E+03  0.12500000000E+03 0.  0.
<mgrwt>
<rscale>  0 0.12500000E+03</rscale>
<asrwt>0</asrwt>
<pdfrwt beam="1">  1       21 0.89418811E-01 0.12500000E+03</pdfrwt>
<pdfrwt beam="2">  1       21 0.10339616E-02 0.12500000E+03</pdfrwt>
<totfact> 0.37643630E+06</totfact>
</mgrwt>
</event>
<event>
 3    1  0.1628330E-001  0.1250000E+03  0.7546771E-02  0.1235069E+00
         21   -1    0    0  502  501  0.00000000000E+00  0.00000000000E+00  0.38547706754E+03  0.38547706754E+03  0.00000000000E+00 0. -1.
         21   -1    0    0  501  502 -0.00000000000E+00 -0.00000000000E+00 -0.10133547048E+02  0.10133547048E+02  0.00000000000E+00 0. -1.
         25    1    1    2    0    0  0.00000000000E+00  0.00000000000E+00  0.37534352049E+03  0.39561061459E+03  0.12500000000E+03 0.  0.
<mgrwt>
<rscale>  0 0.12500000E+03</rscale>
<asrwt>0</asrwt>
<pdfrwt beam="1">  1       21 0.59304153E-01 0.12500000E+03</pdfrwt>
<pdfrwt beam="2">  1       21 0.15590075E-02 0.12500000E+03</pdfrwt>
<totfact> 0.48333868E+06</totfact>
</mgrwt>
</event>
<event>
 3    1  0.1628330E-001  0.1250000E+03  0.7546771E-02  0.1235069E+00
         21   -1    0    0  502  501  0.00000000000E+00  0.00000000000E+00  0.22337529586E+03  0.22337529586E+03  0.00000000000E+00 0.  1.
         21   -1    0    0  501  502 -0.00000000000E+00 -0.00000000000E+00 -0.17487385903E+02  0.17487385903E+02  0.00000000000E+00 0.  1.
         25    1    1    2    0    0  0.00000000000E+00  0.00000000000E+00  0.20588790996E+03  0.24086268176E+03  0.12500000000E+03 0.  0.
<mgrwt>
<rscale>  0 0.12500000E+03</rscale>
<asrwt>0</asrwt>
<pdfrwt beam="1">  1       21 0.34365428E-01 0.12500000E+03</pdfrwt>
<pdfrwt beam="2">  1       21 0.26903672E-02 0.12500000E+03</pdfrwt>
<totfact> 0.60749284E+06</totfact>
</mgrwt>
</event>
<event>
 3    1  0.1628330E-001  0.1250000E+03  0.7546771E-02  0.1235069E+00
         21   -1    0    0  502  501  0.00000000000E+00  0.00000000000E+00  0.25891881741E+02  0.25891881741E+02  0.00000000000E+00 0.  1.
         21   -1    0    0  501  502 -0.00000000000E+00 -0.00000000000E+00 -0.15086775226E+03  0.15086775226E+03  0.00000000000E+00 0.  1.
         25    1    1    2    0    0  0.00000000000E+00  0.00000000000E+00 -0.12497587052E+03  0.17675963400E+03  0.12500000000E+03 0.  0.
<mgrwt>
<rscale>  0 0.12500000E+03</rscale>
<asrwt>0</asrwt>
<pdfrwt beam="1">  1       21 0.39833664E-02 0.12500000E+03</pdfrwt>
<pdfrwt beam="2">  1       21 0.23210423E-01 0.12500000E+03</pdfrwt>
<totfact> 0.67525219E+06</totfact>
</mgrwt>
</event>
<event>
 3    1  0.1628330E-001  0.1250000E+03  0.7546771E-02  0.1235069E+00
         21   -1    0    0  502  501  0.00000000000E+00  0.00000000000E+00  0.13573300803E+04  0.13573300803E+04  0.00000000000E+00 0.  1.
         21   -1    0    0  501  502 -0.00000000000E+00 -0.00000000000E+00 -0.28778924573E+01  0.28778924573E+01  0.00000000000E+00 0.  1.
         25    1    1    2    0    0  0.00000000000E+00  0.00000000000E+00  0.13544521878E+04  0.13602079727E+04  0.12500000000E+03 0.  0.
<mgrwt>
<rscale>  0 0.12500000E+03</rscale>
<asrwt>0</asrwt>
<pdfrwt beam="1">  1       21 0.20881950E+00 0.12500000E+03</pdfrwt>
<pdfrwt beam="2">  1       21 0.44275377E-03 0.12500000E+03</pdfrwt>
<totfact> 0.16204800E+06</totfact>
</mgrwt>
</event>
<event>
 3    1  0.1628330E-001  0.1250000E+03  0.7546771E-02  0.1235069E+00
         21   -1    0    0  502  501  0.00000000000E+00  0.00000000000E+00  0.15800967670E+03  0.15800967670E+03  0.00000000000E+00 0.  1.
         21   -1    0    0  501  502 -0.00000000000E+00 -0.00000000000E+00 -0.24721587194E+02  0.24721587194E+02  0.00000000000E+00 0.  1.
         25    1    1    2    0    0  0.00000000000E+00  0.00000000000E+00  0.13328808950E+03  0.18273126389E+03  0.12500000000E+03 0.  0.
<mgrwt>
<rscale>  0 0.12500000E+03</rscale>
<asrwt>0</asrwt>
<pdfrwt beam="1">  1       21 0.24309180E-01 0.12500000E+03</pdfrwt>
<pdfrwt beam="2">  1       21 0.38033212E-02 0.12500000E+03</pdfrwt>
<totfact> 0.66839588E+06</totfact>
</mgrwt>
</event>
<event>
 3    1  0.1628330E-001  0.1250000E+03  0.7546771E-02  0.1235069E+00
         21   -1    0    0  502  501  0.00000000000E+00  0.00000000000E+00  0.45340241613E+02  0.45340241613E+02  0.00000000000E+00 0.  1.
         21   -1    0    0  501  502 -0.00000000000E+00 -0.00000000000E+00 -0.86154150508E+02  0.86154150508E+02  0.00000000000E+00 0.  1.
         25    1    1    2    0    0  0.00000000000E+00  0.00000000000E+00 -0.40813908894E+02  0.13149439212E+03  0.12500000000E+03 0.  0.
<mgrwt>
<rscale>  0 0.12500000E+03</rscale>
<asrwt>0</asrwt>
<pdfrwt beam="1">  1       21 0.69754219E-02 0.12500000E+03</pdfrwt>
<pdfrwt beam="2">  1       21 0.13254484E-01 0.12500000E+03</pdfrwt>
<totfact> 0.73164126E+06</totfact>
</mgrwt>
</event>
<event>
 3    1  0.1628330E-001  0.1250000E+03  0.7546771E-02  0.1235069E+00
         21   -1    0    0  502  501  0.00000000000E+00  0.00000000000E+00  0.82320727352E+01  0.82320727352E+01  0.00000000000E+00 0.  1.
         21   -1    0    0  501  502 -0.00000000000E+00 -0.00000000000E+00 -0.47451597254E+03  0.47451597254E+03  0.00000000000E+00 0.  1.
         25    1    1    2    0    0  0.00000000000E+00  0.00000000000E+00 -0.46628389981E+03  0.48274804528E+03  0.12500000000E+03 0.  0.
<mgrwt>
<rscale>  0 0.12500000E+03</rscale>
<asrwt>0</asrwt>
<pdfrwt beam="1">  1       21 0.12664726E-02 0.12500000E+03</pdfrwt>
<pdfrwt beam="2">  1       21 0.73002462E-01 0.12500000E+03</pdfrwt>
<totfact> 0.42995405E+06</totfact>
</mgrwt>
</event>
<event>
 3    1  0.1628330E-001  0.1250000E+03  0.7546771E-02  0.1235069E+00
         21   -1    0    0  502  501  0.00000000000E+00  0.00000000000E+00  0.32191681263E+02  0.32191681263E+02  0.00000000000E+00 0. -1.
         21   -1    0    0  501  502 -0.00000000000E+00 -0.00000000000E+00 -0.12134346038E+03  0.12134346038E+03  0.00000000000E+00 0. -1.
         25    1    1    2    0    0  0.00000000000E+00  0.00000000000E+00 -0.89151779121E+02  0.15353514165E+03  0.12500000000E+03 0.  0.
<mgrwt>
<rscale>  0 0.12500000E+03</rscale>
<asrwt>0</asrwt>
<pdfrwt beam="1">  1       21 0.49525664E-02 0.12500000E+03</pdfrwt>
<pdfrwt beam="2">  1       21 0.18668225E-01 0.12500000E+03</pdfrwt>
<totfact> 0.70317896E+06</totfact>
</mgrwt>
</event>
<event>
 3    1  0.1628330E-001  0.1250000E+03  0.7546771E-02  0.1235069E+00
         21   -1    0    0  502  501  0.00000000000E+00  0.00000000000E+00  0.11076418300E+03  0.11076418300E+03  0.00000000000E+00 0. -1.
         21   -1    0    0  501  502 -0.00000000000E+00 -0.00000000000E+00 -0.35266364038E+02  0.35266364038E+02  0.00000000000E+00 0. -1.
         25    1    1    2    0    0  0.00000000000E+00  0.00000000000E+00  0.75497818963E+02  0.14603054704E+03  0.12500000000E+03 0.  0.
<mgrwt>
<rscale>  0 0.12500000E+03</rscale>
<asrwt>0</asrwt>
<pdfrwt beam="1">  1       21 0.17040643E-01 0.12500000E+03</pdfrwt>
<pdfrwt beam="2">  1       21 0.54255945E-02 0.12500000E+03</pdfrwt>
<totfact> 0.71261474E+06</totfact>
</mgrwt>
</event>
<event>
 3    1  0.1628330E-001  0.1250000E+03  0.7546771E-02  0.1235069E+00
         21   -1    0    0  502  501  0.00000000000E+00  0.00000000000E+00  0.10198950932E+04  0.10198950932E+04  0.00000000000E+00 0.  1.
         21   -1    0    0  501  502 -0.00000000000E+00 -0.00000000000E+00 -0.38300507829E+01  0.38300507829E+01  0.00000000000E+00 0.  1.
         25    1    1    2    0    0  0.00000000000E+00  0.00000000000E+00  0.10160650424E+04  0.10237251439E+04  0.12500000000E+03 0.  0.
<mgrwt>
<rscale>  0 0.12500000E+03</rscale>
<asrwt>0</asrwt>
<pdfrwt beam="1">  1       21 0.15690672E+00 0.12500000E+03</pdfrwt>
<pdfrwt beam="2">  1       21 0.58923940E-03 0.12500000E+03</pdfrwt>
<totfact> 0.23032014E+06</totfact>
</mgrwt>
</event>
<event>
 3    1  0.1628330E-001  0.1250000E+03  0.7546771E-02  0.1235069E+00
         21   -1    0    0  502  501  0.00000000000E+00  0.00000000000E+00  0.86723955820E+02  0.86723955820E+02  0.00000000000E+00 0.  1.
         21   -1    0    0  501  502 -0.00000000000E+00 -0.00000000000E+00 -0.45042341105E+02  0.45042341105E+02  0.00000000000E+00 0.  1.
         25    1    1    2    0    0  0.00000000000E+00  0.00000000000E+00  0.41681614715E+02  0.13176629692E+03  0.12500000000E+03 0.  0.
<mgrwt>
<rscale>  0 0.12500000E+03</rscale>
<asrwt>0</asrwt>
<pdfrwt beam="1">  1       21 0.13342147E-01 0.12500000E+03</pdfrwt>
<pdfrwt beam="2">  1       21 0.69295909E-02 0.12500000E+03</pdfrwt>
<totfact> 0.73127592E+06</totfact>
</mgrwt>
</event>
<event>
 3    1  0.1628330E-001  0.1250000E+03  0.7546771E-02  0.1235069E+00
         21   -1    0    0  502  501  0.00000000000E+00  0.00000000000E+00  0.15252448054E+02  0.15252448054E+02  0.00000000000E+00 0.  1.
         21   -1    0    0  501  502 -0.00000000000E+00 -0.00000000000E+00 -0.25610642869E+03  0.25610642869E+03  0.00000000000E+00 0.  1.
         25    1    1    2    0    0  0.00000000000E+00  0.00000000000E+00 -0.24085398064E+03  0.27135887675E+03  0.12500000000E+03 0.  0.
<mgrwt>
<rscale>  0 0.12500000E+03</rscale>
<asrwt>0</asrwt>
<pdfrwt beam="1">  1       21 0.23465304E-02 0.12500000E+03</pdfrwt>
<pdfrwt beam="2">  1       21 0.39400990E-01 0.12500000E+03</pdfrwt>
<totfact> 0.57923549E+06</totfact>
</mgrwt>
</event>
<event>
 3    1  0.1628330E-001  0.1250000E+03  0.7546771E-02  0.1235069E+00
         21   -1    0    0  502  501  0.00000000000E+00  0.00000000000E+00  0.26293766718E+01  0.26293766718E+01  0.00000000000E+00 0. -1.
         21   -1    0    0  501  502 -0.00000000000E+00 -0.00000000000E+00 -0.14856182615E+04  0.14856182615E+04  0.00000000000E+00 0. -1.
         25    1    1    2    0    0  0.00000000000E+00  0.00000000000E+00 -0.14829888848E+04  0.14882476382E+04  0.12500000000E+03 0.  0.
<mgrwt>
<rscale>  0 0.12500000E+03</rscale>
<asrwt>0</asrwt>
<pdfrwt beam="1">  1       21 0.40451928E-03 0.12500000E+03</pdfrwt>
<pdfrwt beam="2">  1       21 0.22855678E+00 0.12500000E+03</pdfrwt>
<totfact> 0.14168464E+06</totfact>
</mgrwt>
</event>
<event>
 3    1  0.1628330E-001  0.1250000E+03  0.7546771E-02  0.1235069E+00
         21   -1    0    0  502  501  0.00000000000E+00  0.00000000000E+00  0.44304781570E+02  0.44304781570E+02  0.00000000000E+00 0.  1.
         21   -1    0    0  501  502 -0.00000000000E+00 -0.00000000000E+00 -0.88167684426E+02  0.88167684426E+02  0.00000000000E+00 0.  1.
         25    1    1    2    0    0  0.00000000000E+00  0.00000000000E+00 -0.43862902856E+02  0.13247246600E+03  0.12500000000E+03 0.  0.
<mgrwt>
<rscale>  0 0.12500000E+03</rscale>
<asrwt>0</asrwt>
<pdfrwt beam="1">  1       21 0.68161203E-02 0.12500000E+03</pdfrwt>
<pdfrwt beam="2">  1       21 0.13564259E-01 0.12500000E+03</pdfrwt>
<totfact> 0.73032924E+06</totfact>
</mgrwt>
</event>
<event>
 3    1  0.1628330E-001  0.1250000E+03  0.7546771E-02  0.1235069E+00
         21   -1    0    0  502  501  0.00000000000E+00  0.00000000000E+00  0.81460370307E+02  0.81460370307E+02  0.00000000000E+00 0. -1.
         21   -1    0    0  501  502 -0.00000000000E+00 -0.00000000000E+00 -0.47952765072E+02  0.47952765072E+02  0.00000000000E+00 0. -1.
         25    1    1    2    0    0  0.00000000000E+00  0.00000000000E+00  0.33507605235E+02  0.12941313538E+03  0.12500000000E+03 0.  0.
<mgrwt>
<rscale>  0 0.12500000E+03</rscale>
<asrwt>0</asrwt>
<pdfrwt beam="1">  1       21 0.12532365E-01 0.12500000E+03</pdfrwt>
<pdfrwt beam="2">  1       21 0.73773485E-02 0.12500000E+03</pdfrwt>
<totfact> 0.73443455E+06</totfact>
</mgrwt>
</event>
<event>
 3    1  0.1628330E-001  0.1250000E+03  0.7546771E-02  0.1235069E+00
         21   -1    0    0  502  501  0.00000000000E+00  0.00000000000E+00  0.24797746244E+02  0.24797746244E+02  0.00000000000E+00 0.  1.
         21   -1    0    0  501  502 -0.00000000000E+00 -0.00000000000E+00 -0.15752439603E+03  0.15752439603E+03  0.00000000000E+00 0.  1.
         25    1    1    2    0    0  0.00000000000E+00  0.00000000000E+00 -0.13272664979E+03  0.18232214227E+03  0.12500000000E+03 0.  0.
<mgrwt>
<rscale>  0 0.12500000E+03</rscale>
<asrwt>0</asrwt>
<pdfrwt beam="1">  1       21 0.38150378E-02 0.12500000E+03</pdfrwt>
<pdfrwt beam="2">  1       21 0.24234523E-01 0.12500000E+03</pdfrwt>
<totfact> 0.66886141E+06</totfact>
</mgrwt>
</event>
<event>
 3    1  0.1628330E-001  0.1250000E+03  0.7546771E-02  0.1235069E+00
         21   -1    0    0  502  501  0.00000000000E+00  0.00000000000E+00  0.11656141690E+03  0.11656141690E+03  0.00000000000E+00 0.  1.
         21   -1    0    0  501  502 -0.00000000000E+00 -0.00000000000E+00 -0.33512375741E+02  0.33512375741E+02  0.00000000000E+00 0.  1.
         25    1    1    2    0    0  0.00000000000E+00  0.00000000000E+00  0.83049041156E+02  0.15007379264E+03  0.12500000000E+03 0.  0.
<mgrwt>
<rscale>  0 0.12500000E+03</rscale>
<asrwt>0</asrwt>
<pdfrwt beam="1">  1       21 0.17932526E-01 0.12500000E+03</pdfrwt>
<pdfrwt beam="2">  1       21 0.51557502E-02 0.12500000E+03</pdfrwt>
<totfact> 0.70749933E+06</totfact>
</mgrwt>
</event>
<event>
 3    1  0.1628330E-001  0.1250000E+03  0.7546771E-02  0.1235069E+00
         21   -1    0    0  502  501  0.00000000000E+00  0.00000000000E+00  0.36264601444E+03  0.36264601444E+03  0.00000000000E+00 0.  1.
         21   -1    0    0  501  502 -0.00000000000E+00 -0.00000000000E+00 -0.10771523316E+02  0.10771523316E+02  0.00000000000E+00 0.  1.
         25    1    1    2    0    0  0.00000000000E+00  0.00000000000E+00  0.35187449112E+03  0.37341753775E+03  0.12500000000E+03 0.  0.
<mgrwt>
<rscale>  0 0.12500000E+03</rscale>
<asrwt>0</asrwt>
<pdfrwt beam="1">  1       21 0.55791685E-01 0.12500000E+03</pdfrwt>
<pdfrwt beam="2">  1       21 0.16571577E-02 0.12500000E+03</pdfrwt>
<totfact> 0.49854133E+06</totfact>
</mgrwt>
</event>
<event>
 3    1  0.1628330E-001  0.1250000E+03  0.7546771E-02  0.1235069E+00
         21   -1    0    0  502  501  0.00000000000E+00  0.00000000000E+00  0.66421210215E+02  0.66421210215E+02  0.00000000000E+00 0. -1.
         21   -1    0    0  501  502 -0.00000000000E+00 -0.00000000000E+00 -0.58810280441E+02  0.58810280441E+02  0.00000000000E+00 0. -1.
         25    1    1    2    0    0  0.00000000000E+00  0.00000000000E+00  0.76109297736E+01  0.12523149066E+03  0.12500000000E+03 0.  0.
<mgrwt>
<rscale>  0 0.12500000E+03</rscale>
<asrwt>0</asrwt>
<pdfrwt beam="1">  1       21 0.10218648E-01 0.12500000E+03</pdfrwt>
<pdfrwt beam="2">  1       21 0.90477355E-02 0.12500000E+03</pdfrwt>
<totfact> 0.74012320E+06</totfact>
</mgrwt>
</event>
<event>
 3    1  0.1628330E-001  0.1250000E+03  0.7546771E-02  0.1235069E+00
         21   -1    0    0  502  501  0.00000000000E+00  0.00000000000E+00  0.22101672252E+02  0.22101672252E+02  0.00000000000E+00 0. -1.
         21   -1    0    0  501  502 -0.00000000000E+00 -0.00000000000E+00 -0.17674002019E+03  0.17674002019E+03  0.00000000000E+00 0. -1.
         25    1    1    2    0    0  0.00000000000E+00  0.00000000000E+00 -0.15463834793E+03  0.19884169244E+03  0.12500000000E+03 0.  0.
<mgrwt>
<rscale>  0 0.12500000E+03</rscale>
<asrwt>0</asrwt>
<pdfrwt beam="1">  1       21 0.34002573E-02 0.12500000E+03</pdfrwt>
<pdfrwt beam="2">  1       21 0.27190772E-01 0.12500000E+03</pdfrwt>
<totfact> 0.65052978E+06</totfact>
</mgrwt>
</event>
<event>
 3    1  0.1628330E-001  0.1250000E+03  0.7546771E-02  0.1235069E+00
         21   -1    0    0  502  501  0.00000000000E+00  0.00000000000E+00  0.22225469783E+02  0.22225469783E+02  0.00000000000E+00 0.  1.
         21   -1    0    0  501  502 -0.00000000000E+00 -0.00000000000E+00 -0.17575556504E+03  0.17575556504E+03  0.00000000000E+00 0.  1.
         25    1    1    2    0    0  0.00000000000E+00  0.00000000000E+00 -0.15353009525E+03  0.19798103482E+03  0.12500000000E+03 0.  0.
<mgrwt>
<rscale>  0 0.12500000E+03</rscale>
<asrwt>0</asrwt>
<pdfrwt beam="1">  1       21 0.34193030E-02 0.12500000E+03</pdfrwt>
<pdfrwt beam="2">  1       21 0.27039318E-01 0.12500000E+03</pdfrwt>
<totfact> 0.65146225E+06</totfact>
</mgrwt>
</event>
<event>
 3    1  0.1628330E-001  0.1250000E+03  0.7546771E-02  0.1235069E+00
         21   -1    0    0  502  501  0.00000000000E+00  0.00000000000E+00  0.65929365924E+03  0.65929365924E+03  0.00000000000E+00 0.  1.
         21   -1    0    0  501  502 -0.00000000000E+00 -0.00000000000E+00 -0.59249015143E+01  0.59249015143E+01  0.00000000000E+00 0.  1.
         25    1    1    2    0    0  0.00000000000E+00  0.00000000000E+00  0.65336875773E+03  0.66521856076E+03  0.12500000000E+03 0.  0.
<mgrwt>
<rscale>  0 0.12500000E+03</rscale>
<asrwt>0</asrwt>
<pdfrwt beam="1">  1       21 0.10142974E+00 0.12500000E+03</pdfrwt>
<pdfrwt beam="2">  1       21 0.91152383E-03 0.12500000E+03</pdfrwt>
<totfact> 0.34294645E+06</totfact>
</mgrwt>
</event>
<event>
 3    1  0.1628330E-001  0.1250000E+03  0.7546771E-02  0.1235069E+00
         21   -1    0    0  502  501  0.00000000000E+00  0.00000000000E+00  0.89875050311E+02  0.89875050311E+02  0.00000000000E+00 0. -1.
         21   -1    0    0  501  502 -0.00000000000E+00 -0.00000000000E+00 -0.43463118925E+02  0.43463118925E+02  0.00000000000E+00 0. -1.
         25    1    1    2    0    0  0.00000000000E+00  0.00000000000E+00  0.46411931386E+02  0.13333816924E+03  0.12500000000E+03 0.  0.
<mgrwt>
<rscale>  0 0.12500000E+03</rscale>
<asrwt>0</asrwt>
<pdfrwt beam="1">  1       21 0.13826931E-01 0.12500000E+03</pdfrwt>
<pdfrwt beam="2">  1       21 0.66866337E-02 0.12500000E+03</pdfrwt>
<totfact> 0.72917274E+06</totfact>
</mgrwt>
</event>
<event>
 3    1  0.1628330E-001  0.1250000E+03  0.7546771E-02  0.1235069E+00
         21   -1    0    0  502  501  0.00000000000E+00  0.00000000000E+00  0.28598042529E+02  0.28598042529E+02  0.00000000000E+00 0.  1.
         21   -1    0    0  501  502 -0.00000000000E+00 -0.00000000000E+00 -0.13659151657E+03  0.13659151657E+03  0.00000000000E+00 0.  1.
         25    1    1    2    0    0  0.00000000000E+00  0.00000000000E+00 -0.10799347404E+03  0.16518955910E+03  0.12500000000E+03 0.  0.
<mgrwt>
<rscale>  0 0.12500000E+03</rscale>
<asrwt>0</asrwt>
<pdfrwt beam="1">  1       21 0.43996989E-02 0.12500000E+03</pdfrwt>
<pdfrwt beam="2">  1       21 0.21014079E-01 0.12500000E+03</pdfrwt>
<totfact> 0.68890883E+06</totfact>
</mgrwt>
</event>
<event>
 3    1  0.1628330E-001  0.1250000E+03  0.7546771E-02  0.1235069E+00
         21   -1    0    0  502  501  0.00000000000E+00  0.00000000000E+00  0.38707476226E+01  0.38707476226E+01  0.00000000000E+00 0. -1.
         21   -1    0    0  501  502 -0.00000000000E+00 -0.00000000000E+00 -0.10091719690E+04  0.10091719690E+04  0.00000000000E+00 0. -1.
         25    1    1    2    0    0  0.00000000000E+00  0.00000000000E+00 -0.10053012214E+04  0.10130427167E+04  0.12500000000E+03 0.  0.
<mgrwt>
<rscale>  0 0.12500000E+03</rscale>
<asrwt>0</asrwt>
<pdfrwt beam="1">  1       21 0.59549983E-03 0.12500000E+03</pdfrwt>
<pdfrwt beam="2">  1       21 0.15525717E+00 0.12500000E+03</pdfrwt>
<totfact> 0.23295441E+06</totfact>
</mgrwt>
</event>
<event>
 3    1  0.1628330E-001  0.1250000E+03  0.7546771E-02  0.1235069E+00
         21   -1    0    0  502  501  0.00000000000E+00  0.00000000000E+00  0.55904053802E+03  0.55904053802E+03  0.00000000000E+00 0.  1.
         21   -1    0    0  501  502 -0.00000000000E+00 -0.00000000000E+00 -0.69874181465E+01  0.69874181465E+01  0.00000000000E+00 0.  1.
         25    1    1    2    0    0  0.00000000000E+00  0.00000000000E+00  0.55205311988E+03  0.56602795617E+03  0.12500000000E+03 0.  0.
<mgrwt>
<rscale>  0 0.12500000E+03</rscale>
<asrwt>0</asrwt>
<pdfrwt beam="1">  1       21 0.86006202E-01 0.12500000E+03</pdfrwt>
<pdfrwt beam="2">  1       21 0.10749878E-02 0.12500000E+03</pdfrwt>
<totfact> 0.38675480E+06</totfact>
</mgrwt>
</event>
<event>
 3    1  0.1628330E-001  0.1250000E+03  0.7546771E-02  0.1235069E+00
         21   -1    0    0  502  501  0.00000000000E+00  0.00000000000E+00  0.48992235996E+03  0.48992235996E+03  0.00000000000E+00 0. -1.
         21   -1    0    0  501  502 -0.00000000000E+00 -0.00000000000E+00 -0.79732021219E+01  0.79732021219E+01  0.00000000000E+00 0. -1.
         25    1    1    2    0    0  0.00000000000E+00  0.00000000000E+00  0.48194915784E+03  0.49789556208E+03  0.12500000000E+03 0.  0.
<mgrwt>
<rscale>  0 0.12500000E+03</rscale>
<asrwt>0</asrwt>
<pdfrwt beam="1">  1       21 0.75372647E-01 0.12500000E+03</pdfrwt>
<pdfrwt beam="2">  1       21 0.12266469E-02 0.12500000E+03</pdfrwt>
<totfact> 0.42158437E+06</totfact>
</mgrwt>
</event>
<event>
 3    1  0.1628330E-001  0.1250000E+03  0.7546771E-02  0.1235069E+00
         21   -1    0    0  502  501  0.00000000000E+00  0.00000000000E+00  0.78487289607E+01  0.78487289607E+01  0.00000000000E+00 0.  1.
         21   -1    0    0  501  502 -0.00000000000E+00 -0.00000000000E+00 -0.49769204919E+03  0.49769204919E+03  0.00000000000E+00 0.  1.
         25    1    1    2    0    0  0.00000000000E+00  0.00000000000E+00 -0.48984332023E+03  0.50554077815E+03  0.12500000000E+03 0.  0.
<mgrwt>
<rscale>  0 0.12500000E+03</rscale>
<asrwt>0</asrwt>
<pdfrwt beam="1">  1       21 0.12074963E-02 0.12500000E+03</pdfrwt>
<pdfrwt beam="2">  1       21 0.76568040E-01 0.12500000E+03</pdfrwt>
<totfact> 0.41745156E+06</totfact>
</mgrwt>
</event>
<event>
 3    1  0.1628330E-001  0.1250000E+03  0.7546771E-02  0.1235069E+00
         21   -1    0    0  502  501  0.00000000000E+00  0.00000000000E+00  0.39338968259E+02  0.39338968259E+02  0.00000000000E+00 0. -1.
         21   -1    0    0  501  502 -0.00000000000E+00 -0.00000000000E+00 -0.99297215276E+02  0.99297215276E+02  0.00000000000E+00 0. -1.
         25    1    1    2    0    0  0.00000000000E+00  0.00000000000E+00 -0.59958247017E+02  0.13863618354E+03  0.12500000000E+03 0.  0.
<mgrwt>
<rscale>  0 0.12500000E+03</rscale>
<asrwt>0</asrwt>
<pdfrwt beam="1">  1       21 0.60521491E-02 0.12500000E+03</pdfrwt>
<pdfrwt beam="2">  1       21 0.15276494E-01 0.12500000E+03</pdfrwt>
<totfact> 0.72217855E+06</totfact>
</mgrwt>
</event>
<event>
 3    1  0.1628330E-001  0.1250000E+03  0.7546771E-02  0.1235069E+00
         21   -1    0    0  502  501  0.00000000000E+00  0.00000000000E+00  0.70417271200E+03  0.70417271200E+03  0.00000000000E+00 0. -1.
         21   -1    0    0  501  502 -0.00000000000E+00 -0.00000000000E+00 -0.55472896541E+01  0.55472896541E+01  0.00000000000E+00 0. -1.
         25    1    1    2    0    0  0.00000000000E+00  0.00000000000E+00  0.69862542235E+03  0.70972000166E+03  0.12500000000E+03 0.  0.
<mgrwt>
<rscale>  0 0.12500000E+03</rscale>
<asrwt>0</asrwt>
<pdfrwt beam="1">  1       21 0.10833419E+00 0.12500000E+03</pdfrwt>
<pdfrwt beam="2">  1       21 0.85342973E-03 0.12500000E+03</pdfrwt>
<totfact> 0.32538772E+06</totfact>
</mgrwt>
</event>
<event>
 3    1  0.1628330E-001  0.1250000E+03  0.7546771E-02  0.1235069E+00
         21   -1    0    0  502  501  0.00000000000E+00  0.00000000000E+00  0.37574489924E+02  0.37574489924E+02  0.00000000000E+00 0. -1.
         21   -1    0    0  501  502 -0.00000000000E+00 -0.00000000000E+00 -0.10396016041E+03  0.10396016041E+03  0.00000000000E+00 0. -1.
         25    1    1    2    0    0  0.00000000000E+00  0.00000000000E+00 -0.66385670490E+02  0.14153465034E+03  0.12500000000E+03 0.  0.
<mgrwt>
<rscale>  0 0.12500000E+03</rscale>
<asrwt>0</asrwt>
<pdfrwt beam="1">  1       21 0.57806908E-02 0.12500000E+03</pdfrwt>
<pdfrwt beam="2">  1       21 0.15993871E-01 0.12500000E+03</pdfrwt>
<totfact> 0.71839591E+06</totfact>
</mgrwt>
</event>
<event>
 3    1  0.1628330E-001  0.1250000E+03  0.7546771E-02  0.1235069E+00
         21   -1    0    0  502  501  0.00000000000E+00  0.00000000000E+00  0.34198232709E+03  0.34198232709E+03  0.00000000000E+00 0.  1.
         21   -1    0    0  501  502 -0.00000000000E+00 -0.00000000000E+00 -0.11422373879E+02  0.11422373879E+02  0.00000000000E+00 0.  1.
         25    1    1    2    0    0  0.00000000000E+00  0.00000000000E+00  0.33055995321E+03  0.35340470097E+03  0.12500000000E+03 0.  0.
<mgrwt>
<rscale>  0 0.12500000E+03</rscale>
<asrwt>0</asrwt>
<pdfrwt beam="1">  1       21 0.52612658E-01 0.12500000E+03</pdfrwt>
<pdfrwt beam="2">  1       21 0.17572886E-02 0.12500000E+03</pdfrwt>
<totfact> 0.51287968E+06</totfact>
</mgrwt>
</event>
<event>
 3    1  0.1628330E-001  0.1250000E+03  0.7546771E-02  0.1235069E+00
         21   -1    0    0  502  501  0.00000000000E+00  0.00000000000E+00  0.24720498917E+02  0.24720498917E+02  0.00000000000E+00 0. -1.
         21   -1    0    0  501  502 -0.00000000000E+00 -0.00000000000E+00 -0.15801663280E+03  0.15801663280E+03  0.00000000000E+00 0. -1.
         25    1    1    2    0    0  0.00000000000E+00  0.00000000000E+00 -0.13329613388E+03  0.18273713172E+03  0.12500000000E+03 0.  0.
<mgrwt>
<rscale>  0 0.12500000E+03</rscale>
<asrwt>0</asrwt>
<pdfrwt beam="1">  1       21 0.38031538E-02 0.12500000E+03</pdfrwt>
<pdfrwt beam="2">  1       21 0.24310250E-01 0.12500000E+03</pdfrwt>
<totfact> 0.66838921E+06</totfact>
</mgrwt>
</event>
<event>
 3    1  0.1628330E-001  0.1250000E+03  0.7546771E-02  0.1235069E+00
         21   -1    0    0  502  501  0.00000000000E+00  0.00000000000E+00  0.58713098326E+02  0.58713098326E+02  0.00000000000E+00 0.  1.
         21   -1    0    0  501  502 -0.00000000000E+00 -0.00000000000E+00 -0.66531150823E+02  0.66531150823E+02  0.00000000000E+00 0.  1.
         25    1    1    2    0    0  0.00000000000E+00  0.00000000000E+00 -0.78180524970E+01  0.12524424915E+03  0.12500000000E+03 0.  0.
<mgrwt>
<rscale>  0 0.12500000E+03</rscale>
<asrwt>0</asrwt>
<pdfrwt beam="1">  1       21 0.90327844E-02 0.12500000E+03</pdfrwt>
<pdfrwt beam="2">  1       21 0.10235562E-01 0.12500000E+03</pdfrwt>
<totfact> 0.74010598E+06</totfact>
</mgrwt>
</event>
<event>
 3    1  0.1628330E-001  0.1250000E+03  0.7546771E-02  0.1235069E+00
         21   -1    0    0  502  501  0.00000000000E+00  0.00000000000E+00  0.84934896438E+01  0.84934896438E+01  0.00000000000E+00 0. -1.
         21   -1    0    0  501  502 -0.00000000000E+00 -0.00000000000E+00 -0.45991108059E+03  0.45991108059E+03  0.00000000000E+00 0. -1.
         25    1    1    2    0    0  0.00000000000E+00  0.00000000000E+00 -0.45141759094E+03  0.46840457023E+03  0.12500000000E+03 0.  0.
<mgrwt>
<rscale>  0 0.12500000E+03</rscale>
<asrwt>0</asrwt>
<pdfrwt beam="1">  1       21 0.13066905E-02 0.12500000E+03</pdfrwt>
<pdfrwt beam="2">  1       21 0.70755563E-01 0.12500000E+03</pdfrwt>
<totfact> 0.43811071E+06</totfact>
</mgrwt>
</event>
<event>
 3    1  0.1628330E-001  0.1250000E+03  0.7546771E-02  0.1235069E+00
         21   -1    0    0  502  501  0.00000000000E+00  0.00000000000E+00  0.10278684571E+03  0.10278684571E+03  0.00000000000E+00 0. -1.
         21   -1    0    0  501  502 -0.00000000000E+00 -0.00000000000E+00 -0.38003403771E+02  0.38003403771E+02  0.00000000000E+00 0. -1.
         25    1    1    2    0    0  0.00000000000E+00  0.00000000000E+00  0.64783441941E+02  0.14079024948E+03  0.12500000000E+03 0.  0.
<mgrwt>
<rscale>  0 0.12500000E+03</rscale>
<asrwt>0</asrwt>
<pdfrwt beam="1">  1       21 0.15813361E-01 0.12500000E+03</pdfrwt>
<pdfrwt beam="2">  1       21 0.58466775E-02 0.12500000E+03</pdfrwt>
<totfact> 0.71936310E+06</totfact>
</mgrwt>
</event>
<event>
 3    1  0.1628330E-001  0.1250000E+03  0.7546771E-02  0.1235069E+00
         21   -1    0    0  502  501  0.00000000000E+00  0.00000000000E+00  0.55756643366E+02  0.55756643366E+02  0.00000000000E+00 0. -1.
         21   -1    0    0  501  502 -0.00000000000E+00 -0.00000000000E+00 -0.70058916107E+02  0.70058916107E+02  0.00000000000E+00 0. -1.
         25    1    1    2    0    0  0.00000000000E+00  0.00000000000E+00 -0.14302272740E+02  0.12581555947E+03  0.12500000000E+03 0.  0.
<mgrwt>
<rscale>  0 0.12500000E+03</rscale>
<asrwt>0</asrwt>
<pdfrwt beam="1">  1       21 0.85779451E-02 0.12500000E+03</pdfrwt>
<pdfrwt beam="2">  1       21 0.10778295E-01 0.12500000E+03</pdfrwt>
<totfact> 0.73931518E+06</totfact>
</mgrwt>
</event>
<event>
 3    1  0.1628330E-001  0.1250000E+03  0.7546771E-02  0.1235069E+00
         21   -1    0    0  502  501  0.00000000000E+00  0.00000000000E+00  0.29426061463E+03  0.29426061463E+03  0.00000000000E+00 0.  1.
         21   -1    0    0  501  502 -0.00000000000E+00 -0.00000000000E+00 -0.13274797257E+02  0.13274797257E+02  0.00000000000E+00 0.  1.
         25    1    1    2    0    0  0.00000000000E+00  0.00000000000E+00  0.28098581737E+03  0.30753541189E+03  0.12500000000E+03 0.  0.
<mgrwt>
<rscale>  0 0.12500000E+03</rscale>
<asrwt>0</asrwt>
<pdfrwt beam="1">  1       21 0.45270859E-01 0.12500000E+03</pdfrwt>
<pdfrwt beam="2">  1       21 0.20422767E-02 0.12500000E+03</pdfrwt>
<totfact> 0.54835710E+06</totfact>
</mgrwt>
</event>
<event>
 3    1  0.1628330E-001  0.1250000E+03  0.7546771E-02  0.1235069E+00
         21   -1    0    0  502  501  0.00000000000E+00  0.00000000000E+00  0.79877870636E+02  0.79877870636E+02  0.00000000000E+00 0. -1.
         21   -1    0    0  501  502 -0.00000000000E+00 -0.00000000000E+00 -0.48902780819E+02  0.48902780819E+02  0.00000000000E+00 0. -1.
         25    1    1    2    0    0  0.00000000000E+00  0.00000000000E+00  0.30975089816E+02  0.12878065145E+03  0.12500000000E+03 0.  0.
<mgrwt>
<rscale>  0 0.12500000E+03</rscale>
<asrwt>0</asrwt>
<pdfrwt beam="1">  1       21 0.12288903E-01 0.12500000E+03</pdfrwt>
<pdfrwt beam="2">  1       21 0.75235047E-02 0.12500000E+03</pdfrwt>
<totfact> 0.73528356E+06</totfact>
</mgrwt>
</event>
<event>
 3    1  0.1628330E-001  0.1250000E+03  0.7546771E-02  0.1235069E+00
         21   -1    0    0  502  501  0.00000000000E+00  0.00000000000E+00  0.22878338156E+03  0.22878338156E+03  0.00000000000E+00 0.  1.
         21   -1    0    0  501  502 -0.00000000000E+00 -0.00000000000E+00 -0.17074011117E+02  0.17074011117E+02  0.00000000000E+00 0.  1.
         25    1    1    2    0    0  0.00000000000E+00  0.00000000000E+00  0.21170937044E+03  0.24585739267E+03  0.12500000000E+03 0.  0.
<mgrwt>
<rscale>  0 0.12500000E+03</rscale>
<asrwt>0</asrwt>
<pdfrwt beam="1">  1       21 0.35197441E-01 0.12500000E+03</pdfrwt>
<pdfrwt beam="2">  1       21 0.26267711E-02 0.12500000E+03</pdfrwt>
<totfact> 0.60270418E+06</totfact>
</mgrwt>
</event>
<event>
 3    1  0.1628330E-001  0.1250000E+03  0.7546771E-02  0.1235069E+00
         21   -1    0    0  502  501  0.00000000000E+00  0.00000000000E+00  0.86813480228E+01  0.86813480228E+01  0.00000000000E+00 0.  1.
         21   -1    0    0  501  502 -0.00000000000E+00 -0.00000000000E+00 -0.44995892225E+03  0.44995892225E+03  0.00000000000E+00 0.  1.
         25    1    1    2    0    0  0.00000000000E+00  0.00000000000E+00 -0.44127757422E+03  0.45864027027E+03  0.12500000000E+03 0.  0.
<mgrwt>
<rscale>  0 0.12500000E+03</rscale>
<asrwt>0</asrwt>
<pdfrwt beam="1">  1       21 0.13355922E-02 0.12500000E+03</pdfrwt>
<pdfrwt beam="2">  1       21 0.69224440E-01 0.12500000E+03</pdfrwt>
<totfact> 0.44379731E+06</totfact>
</mgrwt>
</event>
<event>
 3    1  0.1628330E-001  0.1250000E+03  0.7546771E-02  0.1235069E+00
         21   -1    0    0  502  501  0.00000000000E+00  0.00000000000E+00  0.59252307095E+02  0.59252307095E+02  0.00000000000E+00 0. -1.
         21   -1    0    0  501  502 -0.00000000000E+00 -0.00000000000E+00 -0.65925703007E+02  0.65925703007E+02  0.00000000000E+00 0. -1.
         25    1    1    2    0    0  0.00000000000E+00  0.00000000000E+00 -0.66733959115E+01  0.12517801010E+03  0.12500000000E+03 0.  0.
<mgrwt>
<rscale>  0 0.12500000E+03</rscale>
<asrwt>0</asrwt>
<pdfrwt beam="1">  1       21 0.91157396E-02 0.12500000E+03</pdfrwt>
<pdfrwt beam="2">  1       21 0.10142416E-01 0.12500000E+03</pdfrwt>
<totfact> 0.74019541E+06</totfact>
</mgrwt>
</event>
<event>
 3    1  0.1628330E-001  0.1250000E+03  0.7546771E-02  0.1235069E+00
         21   -1    0    0  502  501  0.00000000000E+00  0.00000000000E+00  0.39547774986E+03  0.39547774986E+03  0.00000000000E+00 0. -1.
         21   -1    0    0  501  502 -0.00000000000E+00 -0.00000000000E+00 -0.98772939854E+01  0.98772939854E+01  0.00000000000E+00 0. -1.
         25    1    1    2    0    0  0.00000000000E+00  0.00000000000E+00  0.38560045587E+03  0.40535504384E+03  0.12500000000E+03 0.  0.
<mgrwt>
<rscale>  0 0.12500000E+03</rscale>
<asrwt>0</asrwt>
<pdfrwt beam="1">  1       21 0.60842719E-01 0.12500000E+03</pdfrwt>
<pdfrwt beam="2">  1       21 0.15195840E-02 0.12500000E+03</pdfrwt>
<totfact> 0.47688178E+06</totfact>
</mgrwt>
</event>
<event>
 3    1  0.1628330E-001  0.1250000E+03  0.7546771E-02  0.1235069E+00
         21   -1    0    0  502  501  0.00000000000E+00  0.00000000000E+00  0.17570754016E+03  0.17570754016E+03  0.00000000000E+00 0.  1.
         21   -1    0    0  501  502 -0.00000000000E+00 -0.00000000000E+00 -0.22231544511E+02  0.22231544511E+02  0.00000000000E+00 0.  1.
         25    1    1    2    0    0  0.00000000000E+00  0.00000000000E+00  0.15347599565E+03  0.19793908467E+03  0.12500000000E+03 0.  0.
<mgrwt>
<rscale>  0 0.12500000E+03</rscale>
<asrwt>0</asrwt>
<pdfrwt beam="1">  1       21 0.27031928E-01 0.12500000E+03</pdfrwt>
<pdfrwt beam="2">  1       21 0.34202377E-02 0.12500000E+03</pdfrwt>
<totfact> 0.65150776E+06</totfact>
</mgrwt>
</event>
<event>
 3    1  0.1628330E-001  0.1250000E+03  0.7546771E-02  0.1235069E+00
         21   -1    0    0  502  501  0.00000000000E+00  0.00000000000E+00  0.78496728403E+02  0.78496728403E+02  0.00000000000E+00 0.  1.
         21   -1    0    0  501  502 -0.00000000000E+00 -0.00000000000E+00 -0.49763220448E+02  0.49763220448E+02  0.00000000000E+00 0.  1.
         25    1    1    2    0    0  0.00000000000E+00  0.00000000000E+00  0.28733507955E+02  0.12825994885E+03  0.12500000000E+03 0.  0.
<mgrwt>
<rscale>  0 0.12500000E+03</rscale>
<asrwt>0</asrwt>
<pdfrwt beam="1">  1       21 0.12076420E-01 0.12500000E+03</pdfrwt>
<pdfrwt beam="2">  1       21 0.76558801E-02 0.12500000E+03</pdfrwt>
<totfact> 0.73598473E+06</totfact>
</mgrwt>
</event>
<event>
 3    1  0.1628330E-001  0.1250000E+03  0.7546771E-02  0.1235069E+00
         21   -1    0    0  502  501  0.00000000000E+00  0.00000000000E+00  0.67583321089E+02  0.67583321089E+02  0.00000000000E+00 0.  1.
         21   -1    0    0  501  502 -0.00000000000E+00 -0.00000000000E+00 -0.57799024035E+02  0.57799024035E+02  0.00000000000E+00 0.  1.
         25    1    1    2    0    0  0.00000000000E+00  0.00000000000E+00  0.97842970541E+01  0.12538234512E+03  0.12500000000E+03 0.  0.
<mgrwt>
<rscale>  0 0.12500000E+03</rscale>
<asrwt>0</asrwt>
<pdfrwt beam="1">  1       21 0.10397434E-01 0.12500000E+03</pdfrwt>
<pdfrwt beam="2">  1       21 0.88921576E-02 0.12500000E+03</pdfrwt>
<totfact> 0.73991894E+06</totfact>
</mgrwt>
</event>
<event>
 3    1  0.1628330E-001  0.1250000E+03  0.7546771E-02  0.1235069E+00
         21   -1    0    0  502  501  0.00000000000E+00  0.00000000000E+00  0.59658597437E+02  0.59658597437E+02  0.00000000000E+00 0. -1.
         21   -1    0    0  501  502 -0.00000000000E+00 -0.00000000000E+00 -0.65476732069E+02  0.65476732069E+02  0.00000000000E+00 0. -1.
         25    1    1    2    0    0  0.00000000000E+00  0.00000000000E+00 -0.58181346328E+01  0.12513532951E+03  0.12500000000E+03 0.  0.
<mgrwt>
<rscale>  0 0.12500000E+03</rscale>
<asrwt>0</asrwt>
<pdfrwt beam="1">  1       21 0.91782458E-02 0.12500000E+03</pdfrwt>
<pdfrwt beam="2">  1       21 0.10073343E-01 0.12500000E+03</pdfrwt>
<totfact> 0.74025304E+06</totfact>
</mgrwt>
</event>
<event>
 3    1  0.1628330E-001  0.1250000E+03  0.7546771E-02  0.1235069E+00
         21   -1    0    0  502  501  0.00000000000E+00  0.00000000000E+00  0.72024878306E+02  0.72024878306E+02  0.00000000000E+00 0. -1.
         21   -1    0    0  501  502 -0.00000000000E+00 -0.00000000000E+00 -0.54234732385E+02  0.54234732385E+02  0.00000000000E+00 0. -1.
         25    1    1    2    0    0  0.00000000000E+00  0.00000000000E+00  0.17790145921E+02  0.12625961069E+03  0.12500000000E+03 0.  0.
<mgrwt>
<rscale>  0 0.12500000E+03</rscale>
<asrwt>0</asrwt>
<pdfrwt beam="1">  1       21 0.11080751E-01 0.12500000E+03</pdfrwt>
<pdfrwt beam="2">  1       21 0.83438049E-02 0.12500000E+03</pdfrwt>
<totfact> 0.73870322E+06</totfact>
</mgrwt>
</event>
<event>
 3    1  0.1628330E-001  0.1250000E+03  0.7546771E-02  0.1235069E+00
         21   -1    0    0  502  501  0.00000000000E+00  0.00000000000E+00  0.15843797370E+03  0.15843797370E+03  0.00000000000E+00 0.  1.
         21   -1    0    0  501  502 -0.00000000000E+00 -0.00000000000E+00 -0.24654758634E+02  0.24654758634E+02  0.00000000000E+00 0.  1.
         25    1    1    2    0    0  0.00000000000E+00  0.00000000000E+00  0.13378321506E+03  0.18309273233E+03  0.12500000000E+03 0.  0.
<mgrwt>
<rscale>  0 0.12500000E+03</rscale>
<asrwt>0</asrwt>
<pdfrwt beam="1">  1       21 0.24375072E-01 0.12500000E+03</pdfrwt>
<pdfrwt beam="2">  1       21 0.37930399E-02 0.12500000E+03</pdfrwt>
<totfact> 0.66798508E+06</totfact>
</mgrwt>
</event>
<event>
 3    1  0.1628330E-001  0.1250000E+03  0.7546771E-02  0.1235069E+00
         21   -1    0    0  502  501  0.00000000000E+00  0.00000000000E+00  0.19476957825E+03  0.19476957825E+03  0.00000000000E+00 0.  1.
         21   -1    0    0  501  502 -0.00000000000E+00 -0.00000000000E+00 -0.20055750159E+02  0.20055750159E+02  0.00000000000E+00 0.  1.
         25    1    1    2    0    0  0.00000000000E+00  0.00000000000E+00  0.17471382809E+03  0.21482532841E+03  0.12500000000E+03 0.  0.
<mgrwt>
<rscale>  0 0.12500000E+03</rscale>
<asrwt>0</asrwt>
<pdfrwt beam="1">  1       21 0.29964549E-01 0.12500000E+03</pdfrwt>
<pdfrwt beam="2">  1       21 0.30855002E-02 0.12500000E+03</pdfrwt>
<totfact> 0.63355406E+06</totfact>
</mgrwt>
</event>
<event>
 3    1  0.1628330E-001  0.1250000E+03  0.7546771E-02  0.1235069E+00
         21   -1    0    0  502  501  0.00000000000E+00  0.00000000000E+00  0.31092266142E+01  0.31092266142E+01  0.00000000000E+00 0.  1.
         21   -1    0    0  501  502 -0.00000000000E+00 -0.00000000000E+00 -0.12563413622E+04  0.12563413622E+04  0.00000000000E+00 0.  1.
         25    1    1    2    0    0  0.00000000000E+00  0.00000000000E+00 -0.12532321356E+04  0.12594505888E+04  0.12500000000E+03 0.  0.
<mgrwt>
<rscale>  0 0.12500000E+03</rscale>
<asrwt>0</asrwt>
<pdfrwt beam="1">  1       21 0.47834208E-03 0.12500000E+03</pdfrwt>
<pdfrwt beam="2">  1       21 0.19328348E+00 0.12500000E+03</pdfrwt>
<totfact> 0.17996443E+06</totfact>
</mgrwt>
</event>
<event>
 3    1  0.1628330E-001  0.1250000E+03  0.7546771E-02  0.1235069E+00
         21   -1    0    0  502  501  0.00000000000E+00  0.00000000000E+00  0.90973100403E+02  0.90973100403E+02  0.00000000000E+00 0. -1.
         21   -1    0    0  501  502 -0.00000000000E+00 -0.00000000000E+00 -0.42938516800E+02  0.42938516800E+02  0.00000000000E+00 0. -1.
         25    1    1    2    0    0  0.00000000000E+00  0.00000000000E+00  0.48034583604E+02  0.13391161720E+03  0.12500000000E+03 0.  0.
<mgrwt>
<rscale>  0 0.12500000E+03</rscale>
<asrwt>0</asrwt>
<pdfrwt beam="1">  1       21 0.13995862E-01 0.12500000E+03</pdfrwt>
<pdfrwt beam="2">  1       21 0.66059257E-02 0.12500000E+03</pdfrwt>
<totfact> 0.72840907E+06</totfact>
</mgrwt>
</event>
<event>
 3    1  0.1628330E-001  0.1250000E+03  0.7546771E-02  0.1235069E+00
         21   -1    0    0  502  501  0.00000000000E+00  0.00000000000E+00  0.24334152562E+02  0.24334152562E+02  0.00000000000E+00 0.  1.
         21   -1    0    0  501  502 -0.00000000000E+00 -0.00000000000E+00 -0.16052541752E+03  0.16052541752E+03  0.00000000000E+00 0.  1.
         25    1    1    2    0    0  0.00000000000E+00  0.00000000000E+00 -0.13619126496E+03  0.18485957008E+03  0.12500000000E+03 0.  0.
<mgrwt>
<rscale>  0 0.12500000E+03</rscale>
<asrwt>0</asrwt>
<pdfrwt beam="1">  1       21 0.37437157E-02 0.12500000E+03</pdfrwt>
<pdfrwt beam="2">  1       21 0.24696218E-01 0.12500000E+03</pdfrwt>
<totfact> 0.66598387E+06</totfact>
</mgrwt>
</event>
<event>
 3    1  0.1628330E-001  0.1250000E+03  0.7546771E-02  0.1235069E+00
         21   -1    0    0  502  501  0.00000000000E+00  0.00000000000E+00  0.13211516960E+02  0.13211516960E+02  0.00000000000E+00 0.  1.
         21   -1    0    0  501  502 -0.00000000000E+00 -0.00000000000E+00 -0.29567005906E+03  0.29567005906E+03  0.00000000000E+00 0.  1.
         25    1    1    2    0    0  0.00000000000E+00  0.00000000000E+00 -0.28245854210E+03  0.30888157602E+03  0.12500000000E+03 0.  0.
<mgrwt>
<rscale>  0 0.12500000E+03</rscale>
<asrwt>0</asrwt>
<pdfrwt beam="1">  1       21 0.20325412E-02 0.12500000E+03</pdfrwt>
<pdfrwt beam="2">  1       21 0.45487700E-01 0.12500000E+03</pdfrwt>
<totfact> 0.54726063E+06</totfact>
</mgrwt>
</event>
<event>
 3    1  0.1628330E-001  0.1250000E+03  0.7546771E-02  0.1235069E+00
         21   -1    0    0  502  501  0.00000000000E+00  0.00000000000E+00  0.66093832587E+02  0.66093832587E+02  0.00000000000E+00 0. -1.
         21   -1    0    0  501  502 -0.00000000000E+00 -0.00000000000E+00 -0.59101580997E+02  0.59101580997E+02  0.00000000000E+00 0. -1.
         25    1    1    2    0    0  0.00000000000E+00  0.00000000000E+00  0.69922515897E+01  0.12519541358E+03  0.12500000000E+03 0.  0.
<mgrwt>
<rscale>  0 0.12500000E+03</rscale>
<asrwt>0</asrwt>
<pdfrwt beam="1">  1       21 0.10168282E-01 0.12500000E+03</pdfrwt>
<pdfrwt beam="2">  1       21 0.90925509E-02 0.12500000E+03</pdfrwt>
<totfact> 0.74017191E+06</totfact>
</mgrwt>
</event>
<event>
 3    1  0.1628330E-001  0.1250000E+03  0.7546771E-02  0.1235069E+00
         21   -1    0    0  502  501  0.00000000000E+00  0.00000000000E+00  0.16033269028E+02  0.16033269028E+02  0.00000000000E+00 0. -1.
         21   -1    0    0  501  502 -0.00000000000E+00 -0.00000000000E+00 -0.24363403328E+03  0.24363403328E+03  0.00000000000E+00 0. -1.
         25    1    1    2    0    0  0.00000000000E+00  0.00000000000E+00 -0.22760076425E+03  0.25966730230E+03  0.12500000000E+03 0.  0.
<mgrwt>
<rscale>  0 0.12500000E+03</rscale>
<asrwt>0</asrwt>
<pdfrwt beam="1">  1       21 0.24666566E-02 0.12500000E+03</pdfrwt>
<pdfrwt beam="2">  1       21 0.37482161E-01 0.12500000E+03</pdfrwt>
<totfact> 0.58979777E+06</totfact>
</mgrwt>
</event>
<event>
 3    1  0.1628330E-001  0.1250000E+03  0.7546771E-02  0.1235069E+00
         21   -1    0    0  502  501  0.00000000000E+00  0.00000000000E+00  0.12211447378E+03  0.12211447378E+03  0.00000000000E+00 0. -1.
         21   -1    0    0  501  502 -0.00000000000E+00 -0.00000000000E+00 -0.31988427573E+02  0.31988427573E+02  0.00000000000E+00 0. -1.
         25    1    1    2    0    0  0.00000000000E+00  0.00000000000E+00  0.90126046203E+02  0.15410290135E+03  0.12500000000E+03 0.  0.
<mgrwt>
<rscale>  0 0.12500000E+03</rscale>
<asrwt>0</asrwt>
<pdfrwt beam="1">  1       21 0.18786842E-01 0.12500000E+03</pdfrwt>
<pdfrwt beam="2">  1       21 0.49212966E-02 0.12500000E+03</pdfrwt>
<totfact> 0.70247328E+06</totfact>
</mgrwt>
</event>
<event>
 3    1  0.1628330E-001  0.1250000E+03  0.7546771E-02  0.1235069E+00
         21   -1    0    0  502  501  0.00000000000E+00  0.00000000000E+00  0.41458126654E+01  0.41458126654E+01  0.00000000000E+00 0.  1.
         21   -1    0    0  501  502 -0.00000000000E+00 -0.00000000000E+00 -0.94221575244E+03  0.94221575244E+03  0.00000000000E+00 0.  1.
         25    1    1    2    0    0  0.00000000000E+00  0.00000000000E+00 -0.93806993977E+03  0.94636156510E+03  0.12500000000E+03 0.  0.
<mgrwt>
<rscale>  0 0.12500000E+03</rscale>
<asrwt>0</asrwt>
<pdfrwt beam="1">  1       21 0.63781703E-03 0.12500000E+03</pdfrwt>
<pdfrwt beam="2">  1       21 0.14495634E+00 0.12500000E+03</pdfrwt>
<totfact> 0.25009061E+06</totfact>
</mgrwt>
</event>
<event>
 3    1  0.1628330E-001  0.1250000E+03  0.7546771E-02  0.1235069E+00
         21   -1    0    0  502  501  0.00000000000E+00  0.00000000000E+00  0.63375772623E+02  0.63375772623E+02  0.00000000000E+00 0. -1.
         21   -1    0    0  501  502 -0.00000000000E+00 -0.00000000000E+00 -0.61636329442E+02  0.61636329442E+02  0.00000000000E+00 0. -1.
         25    1    1    2    0    0  0.00000000000E+00  0.00000000000E+00  0.17394431809E+01  0.12501210206E+03  0.12500000000E+03 0.  0.
<mgrwt>
<rscale>  0 0.12500000E+03</rscale>
<asrwt>0</asrwt>
<pdfrwt beam="1">  1       21 0.97501189E-02 0.12500000E+03</pdfrwt>
<pdfrwt beam="2">  1       21 0.94825122E-02 0.12500000E+03</pdfrwt>
<totfact> 0.74041947E+06</totfact>
</mgrwt>
</event>
<event>
 3    1  0.1628330E-001  0.1250000E+03  0.7546771E-02  0.1235069E+00
         21   -1    0    0  502  501  0.00000000000E+00  0.00000000000E+00  0.44848366282E+02  0.44848366282E+02  0.00000000000E+00 0.  1.
         21   -1    0    0  501  502 -0.00000000000E+00 -0.00000000000E+00 -0.87099047832E+02  0.87099047832E+02  0.00000000000E+00 0.  1.
         25    1    1    2    0    0  0.00000000000E+00  0.00000000000E+00 -0.42250681550E+02  0.13194741411E+03  0.12500000000E+03 0.  0.
<mgrwt>
<rscale>  0 0.12500000E+03</rscale>
<asrwt>0</asrwt>
<pdfrwt beam="1">  1       21 0.68997487E-02 0.12500000E+03</pdfrwt>
<pdfrwt beam="2">  1       21 0.13399853E-01 0.12500000E+03</pdfrwt>
<totfact> 0.73103283E+06</totfact>
</mgrwt>
</event>
<event>
 3    1  0.1628330E-001  0.1250000E+03  0.7546771E-02  0.1235069E+00
         21   -1    0    0  502  501  0.00000000000E+00  0.00000000000E+00  0.21483823731E+03  0.21483823731E+03  0.00000000000E+00 0. -1.
         21   -1    0    0  501  502 -0.00000000000E+00 -0.00000000000E+00 -0.18182284723E+02  0.18182284723E+02  0.00000000000E+00 0. -1.
         25    1    1    2    0    0  0.00000000000E+00  0.00000000000E+00  0.19665595258E+03  0.23302052203E+03  0.12500000000E+03 0.  0.
<mgrwt>
<rscale>  0 0.12500000E+03</rscale>
<asrwt>0</asrwt>
<pdfrwt beam="1">  1       21 0.33052035E-01 0.12500000E+03</pdfrwt>
<pdfrwt beam="2">  1       21 0.27972747E-02 0.12500000E+03</pdfrwt>
<totfact> 0.61514664E+06</totfact>
</mgrwt>
</event>
<event>
 3    1  0.1628330E-001  0.1250000E+03  0.7546771E-02  0.1235069E+00
         21   -1    0    0  502  501  0.00000000000E+00  0.00000000000E+00  0.54878721441E+02  0.54878721441E+02  0.00000000000E+00 0.  1.
         21   -1    0    0  501  502 -0.00000000000E+00 -0.00000000000E+00 -0.71179683080E+02  0.71179683080E+02  0.00000000000E+00 0.  1.
         25    1    1    2    0    0  0.00000000000E+00  0.00000000000E+00 -0.16300961639E+02  0.12605840452E+03  0.12500000000E+03 0.  0.
<mgrwt>
<rscale>  0 0.12500000E+03</rscale>
<asrwt>0</asrwt>
<pdfrwt beam="1">  1       21 0.84428803E-02 0.12500000E+03</pdfrwt>
<pdfrwt beam="2">  1       21 0.10950720E-01 0.12500000E+03</pdfrwt>
<totfact> 0.73897990E+06</totfact>
</mgrwt>
</event>
<event>
 3    1  0.1628330E-001  0.1250000E+03  0.7546771E-02  0.1235069E+00
         21   -1    0    0  502  501  0.00000000000E+00  0.00000000000E+00  0.49960964734E+02  0.49960964734E+02  0.00000000000E+00 0.  1.
         21   -1    0    0  501  502 -0.00000000000E+00 -0.00000000000E+00 -0.78186040258E+02  0.78186040258E+02  0.00000000000E+00 0.  1.
         25    1    1    2    0    0  0.00000000000E+00  0.00000000000E+00 -0.28225075524E+02  0.12814700499E+03  0.12500000000E+03 0.  0.
<mgrwt>
<rscale>  0 0.12500000E+03</rscale>
<asrwt>0</asrwt>
<pdfrwt beam="1">  1       21 0.76863023E-02 0.12500000E+03</pdfrwt>
<pdfrwt beam="2">  1       21 0.12028622E-01 0.12500000E+03</pdfrwt>
<totfact> 0.73613710E+06</totfact>
</mgrwt>
</event>
<event>
 3    1  0.1628330E-001  0.1250000E+03  0.7546771E-02  0.1235069E+00
         21   -1    0    0  502  501  0.00000000000E+00  0.00000000000E+00  0.55441893904E+03  0.55441893904E+03  0.00000000000E+00 0. -1.
         21   -1    0    0  501  502 -0.00000000000E+00 -0.00000000000E+00 -0.70456647942E+01  0.70456647942E+01  0.00000000000E+00 0. -1.
         25    1    1    2    0    0  0.00000000000E+00  0.00000000000E+00  0.54737327424E+03  0.56146460383E+03  0.12500000000E+03 0.  0.
<mgrwt>
<rscale>  0 0.12500000E+03</rscale>
<asrwt>0</asrwt>
<pdfrwt beam="1">  1       21 0.85295187E-01 0.12500000E+03</pdfrwt>
<pdfrwt beam="2">  1       21 0.10839489E-02 0.12500000E+03</pdfrwt>
<totfact> 0.38895440E+06</totfact>
</mgrwt>
</event>
<event>
 3    1  0.1628330E-001  0.1250000E+03  0.7546771E-02  0.1235069E+00
         21   -1    0    0  502  501  0.00000000000E+00  0.00000000000E+00  0.35251453342E+02  0.35251453342E+02  0.00000000000E+00 0. -1.
         21   -1    0    0  501  502 -0.00000000000E+00 -0.00000000000E+00 -0.11081103415E+03  0.11081103415E+03  0.00000000000E+00 0. -1.
         25    1    1    2    0    0  0.00000000000E+00  0.00000000000E+00 -0.75559580805E+02  0.14606248749E+03  0.12500000000E+03 0.  0.
<mgrwt>
<rscale>  0 0.12500000E+03</rscale>
<asrwt>0</asrwt>
<pdfrwt beam="1">  1       21 0.54233005E-02 0.12500000E+03</pdfrwt>
<pdfrwt beam="2">  1       21 0.17047852E-01 0.12500000E+03</pdfrwt>
<totfact> 0.71257403E+06</totfact>
</mgrwt>
</event>
<event>
 3    1  0.1628330E-001  0.1250000E+03  0.7546771E-02  0.1235069E+00
         21   -1    0    0  502  501  0.00000000000E+00  0.00000000000E+00  0.34944153847E+03  0.34944153847E+03  0.00000000000E+00 0. -1.
         21   -1    0    0  501  502 -0.00000000000E+00 -0.00000000000E+00 -0.11178550830E+02  0.11178550830E+02  0.00000000000E+00 0. -1.
         25    1    1    2    0    0  0.00000000000E+00  0.00000000000E+00  0.33826298764E+03  0.36062008930E+03  0.12500000000E+03 0.  0.
<mgrwt>
<rscale>  0 0.12500000E+03</rscale>
<asrwt>0</asrwt>
<pdfrwt beam="1">  1       21 0.53760228E-01 0.12500000E+03</pdfrwt>
<pdfrwt beam="2">  1       21 0.17197773E-02 0.12500000E+03</pdfrwt>
<totfact> 0.50763549E+06</totfact>
</mgrwt>
</event>
<event>
 3    1  0.1628330E-001  0.1250000E+03  0.7546771E-02  0.1235069E+00
         21   -1    0    0  502  501  0.00000000000E+00  0.00000000000E+00  0.34613868932E+01  0.34613868932E+01  0.00000000000E+00 0. -1.
         21   -1    0    0  501  502 -0.00000000000E+00 -0.00000000000E+00 -0.11285216361E+04  0.11285216361E+04  0.00000000000E+00 0. -1.
         25    1    1    2    0    0  0.00000000000E+00  0.00000000000E+00 -0.11250602492E+04  0.11319830230E+04  0.12500000000E+03 0.  0.
<mgrwt>
<rscale>  0 0.12500000E+03</rscale>
<asrwt>0</asrwt>
<pdfrwt beam="1">  1       21 0.53252038E-03 0.12500000E+03</pdfrwt>
<pdfrwt beam="2">  1       21 0.17361894E+00 0.12500000E+03</pdfrwt>
<totfact> 0.20553587E+06</totfact>
</mgrwt>
</event>
<event>
 3    1  0.1628330E-001  0.1250000E+03  0.7546771E-02  0.1235069E+00
         21   -1    0    0  502  501  0.00000000000E+00  0.00000000000E+00  0.10489611811E+02  0.10489611811E+02  0.00000000000E+00 0. -1.
         21   -1    0    0  501  502 -0.00000000000E+00 -0.00000000000E+00 -0.37239223627E+03  0.37239223627E+03  0.00000000000E+00 0. -1.
         25    1    1    2    0    0  0.00000000000E+00  0.00000000000E+00 -0.36190262445E+03  0.38288184808E+03  0.12500000000E+03 0.  0.
<mgrwt>
<rscale>  0 0.12500000E+03</rscale>
<asrwt>0</asrwt>
<pdfrwt beam="1">  1       21 0.16137867E-02 0.12500000E+03</pdfrwt>
<pdfrwt beam="2">  1       21 0.57291103E-01 0.12500000E+03</pdfrwt>
<totfact> 0.49197901E+06</totfact>
</mgrwt>
</event>
<event>
 3    1  0.1628330E-001  0.1250000E+03  0.7546771E-02  0.1235069E+00
         21   -1    0    0  502  501  0.00000000000E+00  0.00000000000E+00  0.26910418428E+03  0.26910418428E+03  0.00000000000E+00 0. -1.
         21   -1    0    0  501  502 -0.00000000000E+00 -0.00000000000E+00 -0.14515753482E+02  0.14515753482E+02  0.00000000000E+00 0. -1.
         25    1    1    2    0    0  0.00000000000E+00  0.00000000000E+00  0.25458843080E+03  0.28361993776E+03  0.12500000000E+03 0.  0.
<mgrwt>
<rscale>  0 0.12500000E+03</rscale>
<asrwt>0</asrwt>
<pdfrwt beam="1">  1       21 0.41400640E-01 0.12500000E+03</pdfrwt>
<pdfrwt beam="2">  1       21 0.22331930E-02 0.12500000E+03</pdfrwt>
<totfact> 0.56845500E+06</totfact>
</mgrwt>
</event>
<event>
 3    1  0.1628330E-001  0.1250000E+03  0.7546771E-02  0.1235069E+00
         21   -1    0    0  502  501  0.00000000000E+00  0.00000000000E+00  0.23374520879E+03  0.23374520879E+03  0.00000000000E+00 0.  1.
         21   -1    0    0  501  502 -0.00000000000E+00 -0.00000000000E+00 -0.16711572486E+02  0.16711572486E+02  0.00000000000E+00 0.  1.
         25    1    1    2    0    0  0.00000000000E+00  0.00000000000E+00  0.21703363631E+03  0.25045678128E+03  0.12500000000E+03 0.  0.
<mgrwt>
<rscale>  0 0.12500000E+03</rscale>
<asrwt>0</asrwt>
<pdfrwt beam="1">  1       21 0.35960799E-01 0.12500000E+03</pdfrwt>
<pdfrwt beam="2">  1       21 0.25710113E-02 0.12500000E+03</pdfrwt>
<totfact> 0.59835212E+06</totfact>
</mgrwt>
</event>
<event>
 3    1  0.1628330E-001  0.1250000E+03  0.7546771E-02  0.1235069E+00
         21   -1    0    0  502  501  0.00000000000E+00  0.00000000000E+00  0.23502984138E+03  0.23502984138E+03  0.00000000000E+00 0. -1.
         21   -1    0    0  501  502 -0.00000000000E+00 -0.00000000000E+00 -0.16620229913E+02  0.16620229913E+02  0.00000000000E+00 0. -1.
         25    1    1    2    0    0  0.00000000000E+00  0.00000000000E+00  0.21840961146E+03  0.25165007129E+03  0.12500000000E+03 0.  0.
<mgrwt>
<rscale>  0 0.12500000E+03</rscale>
<asrwt>0</asrwt>
<pdfrwt beam="1">  1       21 0.36158435E-01 0.12500000E+03</pdfrwt>
<pdfrwt beam="2">  1       21 0.25569586E-02 0.12500000E+03</pdfrwt>
<totfact> 0.59723186E+06</totfact>
</mgrwt>
</event>
<event>
 3    1  0.1628330E-001  0.1250000E+03  0.7546771E-02  0.1235069E+00
         21   -1    0    0  502  501  0.00000000000E+00  0.00000000000E+00  0.42818274906E+01  0.42818274906E+01  0.00000000000E+00 0. -1.
         21   -1    0    0  501  502 -0.00000000000E+00 -0.00000000000E+00 -0.91228570245E+03  0.91228570245E+03  0.00000000000E+00 0. -1.
         25    1    1    2    0    0  0.00000000000E+00  0.00000000000E+00 -0.90800387496E+03  0.91656752994E+03  0.12500000000E+03 0.  0.
<mgrwt>
<rscale>  0 0.12500000E+03</rscale>
<asrwt>0</asrwt>
<pdfrwt beam="1">  1       21 0.65874249E-03 0.12500000E+03</pdfrwt>
<pdfrwt beam="2">  1       21 0.14035169E+00 0.12500000E+03</pdfrwt>
<totfact> 0.25828319E+06</totfact>
</mgrwt>
</event>
<event>
 3    1  0.1628330E-001  0.1250000E+03  0.7546771E-02  0.1235069E+00
         21   -1    0    0  502  501  0.00000000000E+00  0.00000000000E+00  0.22025942670E+02  0.22025942670E+02  0.00000000000E+00 0. -1.
         21   -1    0    0  501  502 -0.00000000000E+00 -0.00000000000E+00 -0.17734768761E+03  0.17734768761E+03  0.00000000000E+00 0. -1.
         25    1    1    2    0    0  0.00000000000E+00  0.00000000000E+00 -0.15532174495E+03  0.19937363028E+03  0.12500000000E+03 0.  0.
<mgrwt>
<rscale>  0 0.12500000E+03</rscale>
<asrwt>0</asrwt>
<pdfrwt beam="1">  1       21 0.33886066E-02 0.12500000E+03</pdfrwt>
<pdfrwt beam="2">  1       21 0.27284259E-01 0.12500000E+03</pdfrwt>
<totfact> 0.64995187E+06</totfact>
</mgrwt>
</event>
<event>
 3    1  0.1628330E-001  0.1250000E+03  0.7546771E-02  0.1235069E+00
         21   -1    0    0  502  501  0.00000000000E+00  0.00000000000E+00  0.30205348754E+03  0.30205348754E+03  0.00000000000E+00 0.  1.
         21   -1    0    0  501  502 -0.00000000000E+00 -0.00000000000E+00 -0.12932312193E+02  0.12932312193E+02  0.00000000000E+00 0.  1.
         25    1    1    2    0    0  0.00000000000E+00  0.00000000000E+00  0.28912117535E+03  0.31498579974E+03  0.12500000000E+03 0.  0.
<mgrwt>
<rscale>  0 0.12500000E+03</rscale>
<asrwt>0</asrwt>
<pdfrwt beam="1">  1       21 0.46469762E-01 0.12500000E+03</pdfrwt>
<pdfrwt beam="2">  1       21 0.19895867E-02 0.12500000E+03</pdfrwt>
<totfact> 0.54233102E+06</totfact>
</mgrwt>
</event>
<event>
 3    1  0.1628330E-001  0.1250000E+03  0.7546771E-02  0.1235069E+00
         21   -1    0    0  502  501  0.00000000000E+00  0.00000000000E+00  0.18809821018E+03  0.18809821018E+03  0.00000000000E+00 0.  1.
         21   -1    0    0  501  502 -0.00000000000E+00 -0.00000000000E+00 -0.20767076924E+02  0.20767076924E+02  0.00000000000E+00 0.  1.
         25    1    1    2    0    0  0.00000000000E+00  0.00000000000E+00  0.16733113325E+03  0.20886528710E+03  0.12500000000E+03 0.  0.
<mgrwt>
<rscale>  0 0.12500000E+03</rscale>
<asrwt>0</asrwt>
<pdfrwt beam="1">  1       21 0.28938185E-01 0.12500000E+03</pdfrwt>
<pdfrwt beam="2">  1       21 0.31949350E-02 0.12500000E+03</pdfrwt>
<totfact> 0.63979119E+06</totfact>
</mgrwt>
</event>
<event>
 3    1  0.1628330E-001  0.1250000E+03  0.7546771E-02  0.1235069E+00
         21   -1    0    0  502  501  0.00000000000E+00  0.00000000000E+00  0.42948751910E+02  0.42948751910E+02  0.00000000000E+00 0.  1.
         21   -1    0    0  501  502 -0.00000000000E+00 -0.00000000000E+00 -0.90951420618E+02  0.90951420618E+02  0.00000000000E+00 0.  1.
         25    1    1    2    0    0  0.00000000000E+00  0.00000000000E+00 -0.48002668708E+02  0.13390017253E+03  0.12500000000E+03 0.  0.
<mgrwt>
<rscale>  0 0.12500000E+03</rscale>
<asrwt>0</asrwt>
<pdfrwt beam="1">  1       21 0.66075004E-02 0.12500000E+03</pdfrwt>
<pdfrwt beam="2">  1       21 0.13992526E-01 0.12500000E+03</pdfrwt>
<totfact> 0.72842429E+06</totfact>
</mgrwt>
</event>
<event>
 3    1  0.1628330E-001  0.1250000E+03  0.7546771E-02  0.1235069E+00
         21   -1    0    0  502  501  0.00000000000E+00  0.00000000000E+00  0.10642210542E+04  0.10642210542E+04  0.00000000000E+00 0.  1.
         21   -1    0    0  501  502 -0.00000000000E+00 -0.00000000000E+00 -0.36705250140E+01  0.36705250140E+01  0.00000000000E+00 0.  1.
         25    1    1    2    0    0  0.00000000000E+00  0.00000000000E+00  0.10605505292E+04  0.10678915792E+04  0.12500000000E+03 0.  0.
<mgrwt>
<rscale>  0 0.12500000E+03</rscale>
<asrwt>0</asrwt>
<pdfrwt beam="1">  1       21 0.16372607E+00 0.12500000E+03</pdfrwt>
<pdfrwt beam="2">  1       21 0.56469701E-03 0.12500000E+03</pdfrwt>
<totfact> 0.21980032E+06</totfact>
</mgrwt>
</event>
<event>
 3    1  0.1628330E-001  0.1250000E+03  0.7546771E-02  0.1235069E+00
         21   -1    0    0  502  501  0.00000000000E+00  0.00000000000E+00  0.31555104590E+03  0.31555104590E+03  0.00000000000E+00 0. -1.
         21   -1    0    0  501  502 -0.00000000000E+00 -0.00000000000E+00 -0.12379138180E+02  0.12379138180E+02  0.00000000000E+00 0. -1.
         25    1    1    2    0    0  0.00000000000E+00  0.00000000000E+00  0.30317190772E+03  0.32793018408E+03  0.12500000000E+03 0.  0.
<mgrwt>
<rscale>  0 0.12500000E+03</rscale>
<asrwt>0</asrwt>
<pdfrwt beam="1">  1       21 0.48546309E-01 0.12500000E+03</pdfrwt>
<pdfrwt beam="2">  1       21 0.19044830E-02 0.12500000E+03</pdfrwt>
<totfact> 0.53210842E+06</totfact>
</mgrwt>
</event>
<event>
 3    1  0.1628330E-001  0.1250000E+03  0.7546771E-02  0.1235069E+00
         21   -1    0    0  502  501  0.00000000000E+00  0.00000000000E+00  0.14216726714E+02  0.14216726714E+02  0.00000000000E+00 0.  1.
         21   -1    0    0  501  502 -0.00000000000E+00 -0.00000000000E+00 -0.27476437288E+03  0.27476437288E+03  0.00000000000E+00 0.  1.
         25    1    1    2    0    0  0.00000000000E+00  0.00000000000E+00 -0.26054764616E+03  0.28898109959E+03  0.12500000000E+03 0.  0.
<mgrwt>
<rscale>  0 0.12500000E+03</rscale>
<asrwt>0</asrwt>
<pdfrwt beam="1">  1       21 0.21871886E-02 0.12500000E+03</pdfrwt>
<pdfrwt beam="2">  1       21 0.42271444E-01 0.12500000E+03</pdfrwt>
<totfact> 0.56384501E+06</totfact>
</mgrwt>
</event>
<event>
 3    1  0.1628330E-001  0.1250000E+03  0.7546771E-02  0.1235069E+00
         21   -1    0    0  502  501  0.00000000000E+00  0.00000000000E+00  0.19916919754E+03  0.19916919754E+03  0.00000000000E+00 0.  1.
         21   -1    0    0  501  502 -0.00000000000E+00 -0.00000000000E+00 -0.19612721487E+02  0.19612721487E+02  0.00000000000E+00 0.  1.
         25    1    1    2    0    0  0.00000000000E+00  0.00000000000E+00  0.17955647605E+03  0.21878191902E+03  0.12500000000E+03 0.  0.
<mgrwt>
<rscale>  0 0.12500000E+03</rscale>
<asrwt>0</asrwt>
<pdfrwt beam="1">  1       21 0.30641414E-01 0.12500000E+03</pdfrwt>
<pdfrwt beam="2">  1       21 0.30173419E-02 0.12500000E+03</pdfrwt>
<totfact> 0.62947258E+06</totfact>
</mgrwt>
</event>
<event>
 3    1  0.1628330E-001  0.1250000E+03  0.7546771E-02  0.1235069E+00
         21   -1    0    0  502  501  0.00000000000E+00  0.00000000000E+00  0.68789996296E+03  0.68789996296E+03  0.00000000000E+00 0. -1.
         21   -1    0    0  501  502 -0.00000000000E+00 -0.00000000000E+00 -0.56785146247E+01  0.56785146247E+01  0.00000000000E+00 0. -1.
         25    1    1    2    0    0  0.00000000000E+00  0.00000000000E+00  0.68222144834E+03  0.69357847759E+03  0.12500000000E+03 0.  0.
<mgrwt>
<rscale>  0 0.12500000E+03</rscale>
<asrwt>0</asrwt>
<pdfrwt beam="1">  1       21 0.10583070E+00 0.12500000E+03</pdfrwt>
<pdfrwt beam="2">  1       21 0.87361818E-03 0.12500000E+03</pdfrwt>
<totfact> 0.33159201E+06</totfact>
</mgrwt>
</event>
<event>
 3    1  0.1628330E-001  0.1250000E+03  0.7546771E-02  0.1235069E+00
         21   -1    0    0  502  501  0.00000000000E+00  0.00000000000E+00  0.24284350804E+02  0.24284350804E+02  0.00000000000E+00 0.  1.
         21   -1    0    0  501  502 -0.00000000000E+00 -0.00000000000E+00 -0.16085461916E+03  0.16085461916E+03  0.00000000000E+00 0.  1.
         25    1    1    2    0    0  0.00000000000E+00  0.00000000000E+00 -0.13657026835E+03  0.18513896996E+03  0.12500000000E+03 0.  0.
<mgrwt>
<rscale>  0 0.12500000E+03</rscale>
<asrwt>0</asrwt>
<pdfrwt beam="1">  1       21 0.37360540E-02 0.12500000E+03</pdfrwt>
<pdfrwt beam="2">  1       21 0.24746864E-01 0.12500000E+03</pdfrwt>
<totfact> 0.66566844E+06</totfact>
</mgrwt>
</event>
<event>
 3    1  0.1628330E-001  0.1250000E+03  0.7546771E-02  0.1235069E+00
         21   -1    0    0  502  501  0.00000000000E+00  0.00000000000E+00  0.17822891524E+03  0.17822891524E+03  0.00000000000E+00 0.  1.
         21   -1    0    0  501  502 -0.00000000000E+00 -0.00000000000E+00 -0.21917038517E+02  0.21917038517E+02  0.00000000000E+00 0.  1.
         25    1    1    2    0    0  0.00000000000E+00  0.00000000000E+00  0.15631187672E+03  0.20014595375E+03  0.12500000000E+03 0.  0.
<mgrwt>
<rscale>  0 0.12500000E+03</rscale>
<asrwt>0</asrwt>
<pdfrwt beam="1">  1       21 0.27419832E-01 0.12500000E+03</pdfrwt>
<pdfrwt beam="2">  1       21 0.33718522E-02 0.12500000E+03</pdfrwt>
<totfact> 0.64911441E+06</totfact>
</mgrwt>
</event>
<event>
 3    1  0.1628330E-001  0.1250000E+03  0.7546771E-02  0.1235069E+00
         21   -1    0    0  502  501  0.00000000000E+00  0.00000000000E+00  0.12326326468E+03  0.12326326468E+03  0.00000000000E+00 0. -1.
         21   -1    0    0  501  502 -0.00000000000E+00 -0.00000000000E+00 -0.31690301324E+02  0.31690301324E+02  0.00000000000E+00 0. -1.
         25    1    1    2    0    0  0.00000000000E+00  0.00000000000E+00  0.91572963361E+02  0.15495356601E+03  0.12500000000E+03 0.  0.
<mgrwt>
<rscale>  0 0.12500000E+03</rscale>
<asrwt>0</asrwt>
<pdfrwt beam="1">  1       21 0.18963579E-01 0.12500000E+03</pdfrwt>
<pdfrwt beam="2">  1       21 0.48754310E-02 0.12500000E+03</pdfrwt>
<totfact> 0.70141431E+06</totfact>
</mgrwt>
</event>
<event>
 3    1  0.1628330E-001  0.1250000E+03  0.7546771E-02  0.1235069E+00
         21   -1    0    0  502  501  0.00000000000E+00  0.00000000000E+00  0.16626501061E+03  0.16626501061E+03  0.00000000000E+00 0. -1.
         21   -1    0    0  501  502 -0.00000000000E+00 -0.00000000000E+00 -0.23494119332E+02  0.23494119332E+02  0.00000000000E+00 0. -1.
         25    1    1    2    0    0  0.00000000000E+00  0.00000000000E+00  0.14277089128E+03  0.18975912994E+03  0.12500000000E+03 0.  0.
<mgrwt>
<rscale>  0 0.12500000E+03</rscale>
<asrwt>0</asrwt>
<pdfrwt beam="1">  1       21 0.25579232E-01 0.12500000E+03</pdfrwt>
<pdfrwt beam="2">  1       21 0.36144800E-02 0.12500000E+03</pdfrwt>
<totfact> 0.66049245E+06</totfact>
</mgrwt>
</event>
<event>
 3    1  0.1628330E-001  0.1250000E+03  0.7546771E-02  0.1235069E+00
         21   -1    0    0  502  501  0.00000000000E+00  0.00000000000E+00  0.27123881551E+03  0.27123881551E+03  0.00000000000E+00 0. -1.
         21   -1    0    0  501  502 -0.00000000000E+00 -0.00000000000E+00 -0.14401515479E+02  0.14401515479E+02  0.00000000000E+00 0. -1.
         25    1    1    2    0    0  0.00000000000E+00  0.00000000000E+00  0.25683730003E+03  0.28564033099E+03  0.12500000000E+03 0.  0.
<mgrwt>
<rscale>  0 0.12500000E+03</rscale>
<asrwt>0</asrwt>
<pdfrwt beam="1">  1       21 0.41729045E-01 0.12500000E+03</pdfrwt>
<pdfrwt beam="2">  1       21 0.22156180E-02 0.12500000E+03</pdfrwt>
<totfact> 0.56671040E+06</totfact>
</mgrwt>
</event>
<event>
 3    1  0.1628330E-001  0.1250000E+03  0.7546771E-02  0.1235069E+00
         21   -1    0    0  502  501  0.00000000000E+00  0.00000000000E+00  0.12948118779E+03  0.12948118779E+03  0.00000000000E+00 0. -1.
         21   -1    0    0  501  502 -0.00000000000E+00 -0.00000000000E+00 -0.30168475178E+02  0.30168475178E+02  0.00000000000E+00 0. -1.
         25    1    1    2    0    0  0.00000000000E+00  0.00000000000E+00  0.99312712616E+02  0.15964966297E+03  0.12500000000E+03 0.  0.
<mgrwt>
<rscale>  0 0.12500000E+03</rscale>
<asrwt>0</asrwt>
<pdfrwt beam="1">  1       21 0.19920182E-01 0.12500000E+03</pdfrwt>
<pdfrwt beam="2">  1       21 0.46413039E-02 0.12500000E+03</pdfrwt>
<totfact> 0.69562329E+06</totfact>
</mgrwt>
</event>
<event>
 3    1  0.1628330E-001  0.1250000E+03  0.7546771E-02  0.1235069E+00
         21   -1    0    0  502  501  0.00000000000E+00  0.00000000000E+00  0.48630477561E+03  0.48630477561E+03  0.00000000000E+00 0. -1.
         21   -1    0    0  501  502 -0.00000000000E+00 -0.00000000000E+00 -0.80325141678E+01  0.80325141678E+01  0.00000000000E+00 0. -1.
         25    1    1    2    0    0  0.00000000000E+00  0.00000000000E+00  0.47827226145E+03  0.49433728978E+03  0.12500000000E+03 0.  0.
<mgrwt>
<rscale>  0 0.12500000E+03</rscale>
<asrwt>0</asrwt>
<pdfrwt beam="1">  1       21 0.74816096E-01 0.12500000E+03</pdfrwt>
<pdfrwt beam="2">  1       21 0.12357718E-02 0.12500000E+03</pdfrwt>
<totfact> 0.42352854E+06</totfact>
</mgrwt>
</event>
<event>
 3    1  0.1628330E-001  0.1250000E+03  0.7546771E-02  0.1235069E+00
         21   -1    0    0  502  501  0.00000000000E+00  0.00000000000E+00  0.22625855626E+03  0.22625855626E+03  0.00000000000E+00 0. -1.
         21   -1    0    0  501  502 -0.00000000000E+00 -0.00000000000E+00 -0.17264540464E+02  0.17264540464E+02  0.00000000000E+00 0. -1.
         25    1    1    2    0    0  0.00000000000E+00  0.00000000000E+00  0.20899401580E+03  0.24352309673E+03  0.12500000000E+03 0.  0.
<mgrwt>
<rscale>  0 0.12500000E+03</rscale>
<asrwt>0</asrwt>
<pdfrwt beam="1">  1       21 0.34809007E-01 0.12500000E+03</pdfrwt>
<pdfrwt beam="2">  1       21 0.26560833E-02 0.12500000E+03</pdfrwt>
<totfact> 0.60493398E+06</totfact>
</mgrwt>
</event>
<event>
 3    1  0.1628330E-001  0.1250000E+03  0.7546771E-02  0.1235069E+00
         21   -1    0    0  502  501  0.00000000000E+00  0.00000000000E+00  0.59024885517E+03  0.59024885517E+03  0.00000000000E+00 0. -1.
         21   -1    0    0  501  502 -0.00000000000E+00 -0.00000000000E+00 -0.66179713282E+01  0.66179713282E+01  0.00000000000E+00 0. -1.
         25    1    1    2    0    0  0.00000000000E+00  0.00000000000E+00  0.58363088384E+03  0.59686682650E+03  0.12500000000E+03 0.  0.
<mgrwt>
<rscale>  0 0.12500000E+03</rscale>
<asrwt>0</asrwt>
<pdfrwt beam="1">  1       21 0.90807475E-01 0.12500000E+03</pdfrwt>
<pdfrwt beam="2">  1       21 0.10181499E-02 0.12500000E+03</pdfrwt>
<totfact> 0.37234721E+06</totfact>
</mgrwt>
</event>
<event>
 3    1  0.1628330E-001  0.1250000E+03  0.7546771E-02  0.1235069E+00
         21   -1    0    0  502  501  0.00000000000E+00  0.00000000000E+00  0.11276058036E+03  0.11276058036E+03  0.00000000000E+00 0.  1.
         21   -1    0    0  501  502 -0.00000000000E+00 -0.00000000000E+00 -0.34641982044E+02  0.34641982044E+02  0.00000000000E+00 0.  1.
         25    1    1    2    0    0  0.00000000000E+00  0.00000000000E+00  0.78118598313E+02  0.14740256240E+03  0.12500000000E+03 0.  0.
<mgrwt>
<rscale>  0 0.12500000E+03</rscale>
<asrwt>0</asrwt>
<pdfrwt beam="1">  1       21 0.17347781E-01 0.12500000E+03</pdfrwt>
<pdfrwt beam="2">  1       21 0.53295358E-02 0.12500000E+03</pdfrwt>
<totfact> 0.71087032E+06</totfact>
</mgrwt>
</event>
<event>
 3    1  0.1628330E-001  0.1250000E+03  0.7546771E-02  0.1235069E+00
         21   -1    0    0  502  501  0.00000000000E+00  0.00000000000E+00  0.68095771287E+02  0.68095771287E+02  0.00000000000E+00 0. -1.
         21   -1    0    0  501  502 -0.00000000000E+00 -0.00000000000E+00 -0.57364061324E+02  0.57364061324E+02  0.00000000000E+00 0. -1.
         25    1    1    2    0    0  0.00000000000E+00  0.00000000000E+00  0.10731709963E+02  0.12545983261E+03  0.12500000000E+03 0.  0.
<mgrwt>
<rscale>  0 0.12500000E+03</rscale>
<asrwt>0</asrwt>
<pdfrwt beam="1">  1       21 0.10476272E-01 0.12500000E+03</pdfrwt>
<pdfrwt beam="2">  1       21 0.88252402E-02 0.12500000E+03</pdfrwt>
<totfact> 0.73981018E+06</totfact>
</mgrwt>
</event>
<event>
 3    1  0.1628330E-001  0.1250000E+03  0.7546771E-02  0.1235069E+00
         21   -1    0    0  502  501  0.00000000000E+00  0.00000000000E+00  0.79503628552E+02  0.79503628552E+02  0.00000000000E+00 0. -1.
         21   -1    0    0  501  502 -0.00000000000E+00 -0.00000000000E+00 -0.49132977590E+02  0.49132977590E+02  0.00000000000E+00 0. -1.
         25    1    1    2    0    0  0.00000000000E+00  0.00000000000E+00  0.30370650962E+02  0.12863660614E+03  0.12500000000E+03 0.  0.
<mgrwt>
<rscale>  0 0.12500000E+03</rscale>
<asrwt>0</asrwt>
<pdfrwt beam="1">  1       21 0.12231327E-01 0.12500000E+03</pdfrwt>
<pdfrwt beam="2">  1       21 0.75589196E-02 0.12500000E+03</pdfrwt>
<totfact> 0.73547732E+06</totfact>
</mgrwt>
</event>
<event>
 3    1  0.1628330E-001  0.1250000E+03  0.7546771E-02  0.1235069E+00
         21   -1    0    0  502  501  0.00000000000E+00  0.00000000000E+00  0.41258048749E+02  0.41258048749E+02  0.00000000000E+00 0.  1.
         21   -1    0    0  501  502 -0.00000000000E+00 -0.00000000000E+00 -0.94678495916E+02  0.94678495916E+02  0.00000000000E+00 0.  1.
         25    1    1    2    0    0  0.00000000000E+00  0.00000000000E+00 -0.53420447167E+02  0.13593654467E+03  0.12500000000E+03 0.  0.
<mgrwt>
<rscale>  0 0.12500000E+03</rscale>
<asrwt>0</asrwt>
<pdfrwt beam="1">  1       21 0.63473922E-02 0.12500000E+03</pdfrwt>
<pdfrwt beam="2">  1       21 0.14565922E-01 0.12500000E+03</pdfrwt>
<totfact> 0.72572704E+06</totfact>
</mgrwt>
</event>
<event>
 3    1  0.1628330E-001  0.1250000E+03  0.7546771E-02  0.1235069E+00
         21   -1    0    0  502  501  0.00000000000E+00  0.00000000000E+00  0.24074841358E+03  0.24074841358E+03  0.00000000000E+00 0.  1.
         21   -1    0    0  501  502 -0.00000000000E+00 -0.00000000000E+00 -0.16225444404E+02  0.16225444404E+02  0.00000000000E+00 0.  1.
         25    1    1    2    0    0  0.00000000000E+00  0.00000000000E+00  0.22452296918E+03  0.25697385799E+03  0.12500000000E+03 0.  0.
<mgrwt>
<rscale>  0 0.12500000E+03</rscale>
<asrwt>0</asrwt>
<pdfrwt beam="1">  1       21 0.37038215E-01 0.12500000E+03</pdfrwt>
<pdfrwt beam="2">  1       21 0.24962224E-02 0.12500000E+03</pdfrwt>
<totfact> 0.59227755E+06</totfact>
</mgrwt>
</event>
<event>
 3    1  0.1628330E-001  0.1250000E+03  0.7546771E-02  0.1235069E+00
         21   -1    0    0  502  501  0.00000000000E+00  0.00000000000E+00  0.59305762260E+02  0.59305762260E+02  0.00000000000E+00 0.  1.
         21   -1    0    0  501  502 -0.00000000000E+00 -0.00000000000E+00 -0.65866280968E+02  0.65866280968E+02  0.00000000000E+00 0.  1.
         25    1    1    2    0    0  0.00000000000E+00  0.00000000000E+00 -0.65605187081E+01  0.12517204323E+03  0.12500000000E+03 0.  0.
<mgrwt>
<rscale>  0 0.12500000E+03</rscale>
<asrwt>0</asrwt>
<pdfrwt beam="1">  1       21 0.91239635E-02 0.12500000E+03</pdfrwt>
<pdfrwt beam="2">  1       21 0.10133274E-01 0.12500000E+03</pdfrwt>
<totfact> 0.74020347E+06</totfact>
</mgrwt>
</event>
<event>
 3    1  0.1628330E-001  0.1250000E+03  0.7546771E-02  0.1235069E+00
         21   -1    0    0  502  501  0.00000000000E+00  0.00000000000E+00  0.13672284924E+03  0.13672284924E+03  0.00000000000E+00 0. -1.
         21   -1    0    0  501  502 -0.00000000000E+00 -0.00000000000E+00 -0.28570571941E+02  0.28570571941E+02  0.00000000000E+00 0. -1.
         25    1    1    2    0    0  0.00000000000E+00  0.00000000000E+00  0.10815227729E+03  0.16529342118E+03  0.12500000000E+03 0.  0.
<mgrwt>
<rscale>  0 0.12500000E+03</rscale>
<asrwt>0</asrwt>
<pdfrwt beam="1">  1       21 0.21034284E-01 0.12500000E+03</pdfrwt>
<pdfrwt beam="2">  1       21 0.43954727E-02 0.12500000E+03</pdfrwt>
<totfact> 0.68878412E+06</totfact>
</mgrwt>
</event>
<event>
 3    1  0.1628330E-001  0.1250000E+03  0.7546771E-02  0.1235069E+00
         21   -1    0    0  502  501  0.00000000000E+00  0.00000000000E+00  0.97007294725E+01  0.97007294725E+01  0.00000000000E+00 0. -1.
         21   -1    0    0  501  502 -0.00000000000E+00 -0.00000000000E+00 -0.40267590299E+03  0.40267590299E+03  0.00000000000E+00 0. -1.
         25    1    1    2    0    0  0.00000000000E+00  0.00000000000E+00 -0.39297517352E+03  0.41237663246E+03  0.12500000000E+03 0.  0.
<mgrwt>
<rscale>  0 0.12500000E+03</rscale>
<asrwt>0</asrwt>
<pdfrwt beam="1">  1       21 0.14924194E-02 0.12500000E+03</pdfrwt>
<pdfrwt beam="2">  1       21 0.61950162E-01 0.12500000E+03</pdfrwt>
<totfact> 0.47231104E+06</totfact>
</mgrwt>
</event>
<event>
 3    1  0.1628330E-001  0.1250000E+03  0.7546771E-02  0.1235069E+00
         21   -1    0    0  502  501  0.00000000000E+00  0.00000000000E+00  0.15998358321E+03  0.15998358321E+03  0.00000000000E+00 0.  1.
         21   -1    0    0  501  502 -0.00000000000E+00 -0.00000000000E+00 -0.24416567760E+02  0.24416567760E+02  0.00000000000E+00 0.  1.
         25    1    1    2    0    0  0.00000000000E+00  0.00000000000E+00  0.13556701545E+03  0.18440015097E+03  0.12500000000E+03 0.  0.
<mgrwt>
<rscale>  0 0.12500000E+03</rscale>
<asrwt>0</asrwt>
<pdfrwt beam="1">  1       21 0.24612858E-01 0.12500000E+03</pdfrwt>
<pdfrwt beam="2">  1       21 0.37563951E-02 0.12500000E+03</pdfrwt>
<totfact> 0.66650316E+06</totfact>
</mgrwt>
</event>
<event>
 3    1  0.1628330E-001  0.1250000E+03  0.7546771E-02  0.1235069E+00
         21   -1    0    0  502  501  0.00000000000E+00  0.00000000000E+00  0.36565702245E+03  0.36565702245E+03  0.00000000000E+00 0. -1.
         21   -1    0    0  501  502 -0.00000000000E+00 -0.00000000000E+00 -0.10682825052E+02  0.10682825052E+02  0.00000000000E+00 0. -1.
         25    1    1    2    0    0  0.00000000000E+00  0.00000000000E+00  0.35497419740E+03  0.37633984750E+03  0.12500000000E+03 0.  0.
<mgrwt>
<rscale>  0 0.12500000E+03</rscale>
<asrwt>0</asrwt>
<pdfrwt beam="1">  1       21 0.56254917E-01 0.12500000E+03</pdfrwt>
<pdfrwt beam="2">  1       21 0.16435118E-02 0.12500000E+03</pdfrwt>
<totfact> 0.49650075E+06</totfact>
</mgrwt>
</event>
<event>
 3    1  0.1628330E-001  0.1250000E+03  0.7546771E-02  0.1235069E+00
         21   -1    0    0  502  501  0.00000000000E+00  0.00000000000E+00  0.83355632950E+02  0.83355632950E+02  0.00000000000E+00 0. -1.
         21   -1    0    0  501  502 -0.00000000000E+00 -0.00000000000E+00 -0.46862459821E+02  0.46862459821E+02  0.00000000000E+00 0. -1.
         25    1    1    2    0    0  0.00000000000E+00  0.00000000000E+00  0.36493173129E+02  0.13021809277E+03  0.12500000000E+03 0.  0.
<mgrwt>
<rscale>  0 0.12500000E+03</rscale>
<asrwt>0</asrwt>
<pdfrwt beam="1">  1       21 0.12823944E-01 0.12500000E+03</pdfrwt>
<pdfrwt beam="2">  1       21 0.72096092E-02 0.12500000E+03</pdfrwt>
<totfact> 0.73335781E+06</totfact>
</mgrwt>
</event>
<event>
 3    1  0.1628330E-001  0.1250000E+03  0.7546771E-02  0.1235069E+00
         21   -1    0    0  502  501  0.00000000000E+00  0.00000000000E+00  0.44325330274E+02  0.44325330274E+02  0.00000000000E+00 0.  1.
         21   -1    0    0  501  502 -0.00000000000E+00 -0.00000000000E+00 -0.88126810919E+02  0.88126810919E+02  0.00000000000E+00 0.  1.
         25    1    1    2    0    0  0.00000000000E+00  0.00000000000E+00 -0.43801480644E+02  0.13245214119E+03  0.12500000000E+03 0.  0.
<mgrwt>
<rscale>  0 0.12500000E+03</rscale>
<asrwt>0</asrwt>
<pdfrwt beam="1">  1       21 0.68192816E-02 0.12500000E+03</pdfrwt>
<pdfrwt beam="2">  1       21 0.13557971E-01 0.12500000E+03</pdfrwt>
<totfact> 0.73035644E+06</totfact>
</mgrwt>
</event>
<event>
 3    1  0.1628330E-001  0.1250000E+03  0.7546771E-02  0.1235069E+00
         21   -1    0    0  502  501  0.00000000000E+00  0.00000000000E+00  0.11789334042E+04  0.11789334042E+04  0.00000000000E+00 0.  1.
         21   -1    0    0  501  502 -0.00000000000E+00 -0.00000000000E+00 -0.33133762993E+01  0.33133762993E+01  0.00000000000E+00 0.  1.
         25    1    1    2    0    0  0.00000000000E+00  0.00000000000E+00  0.11756200279E+04  0.11822467805E+04  0.12500000000E+03 0.  0.
<mgrwt>
<rscale>  0 0.12500000E+03</rscale>
<asrwt>0</asrwt>
<pdfrwt beam="1">  1       21 0.18137404E+00 0.12500000E+03</pdfrwt>
<pdfrwt beam="2">  1       21 0.50975114E-03 0.12500000E+03</pdfrwt>
<totfact> 0.19500841E+06</totfact>
</mgrwt>
</event>
<event>
 3    1  0.1628330E-001  0.1250000E+03  0.7546771E-02  0.1235069E+00
         21   -1    0    0  502  501  0.00000000000E+00  0.00000000000E+00  0.48896139788E+01  0.48896139788E+01  0.00000000000E+00 0.  1.
         21   -1    0    0  501  502 -0.00000000000E+00 -0.00000000000E+00 -0.79888719578E+03  0.79888719578E+03  0.00000000000E+00 0.  1.
         25    1    1    2    0    0  0.00000000000E+00  0.00000000000E+00 -0.79399758180E+03  0.80377680976E+03  0.12500000000E+03 0.  0.
<mgrwt>
<rscale>  0 0.12500000E+03</rscale>
<asrwt>0</asrwt>
<pdfrwt beam="1">  1       21 0.75224929E-03 0.12500000E+03</pdfrwt>
<pdfrwt beam="2">  1       21 0.12290556E+00 0.12500000E+03</pdfrwt>
<totfact> 0.29238094E+06</totfact>
</mgrwt>
</event>
<event>
 3    1  0.1628330E-001  0.1250000E+03  0.7546771E-02  0.1235069E+00
         21   -1    0    0  502  501  0.00000000000E+00  0.00000000000E+00  0.51112340726E+02  0.51112340726E+02  0.00000000000E+00 0. -1.
         21   -1    0    0  501  502 -0.00000000000E+00 -0.00000000000E+00 -0.76424791831E+02  0.76424791831E+02  0.00000000000E+00 0. -1.
         25    1    1    2    0    0  0.00000000000E+00  0.00000000000E+00 -0.25312451105E+02  0.12753713256E+03  0.12500000000E+03 0.  0.
<mgrwt>
<rscale>  0 0.12500000E+03</rscale>
<asrwt>0</asrwt>
<pdfrwt beam="1">  1       21 0.78634370E-02 0.12500000E+03</pdfrwt>
<pdfrwt beam="2">  1       21 0.11757660E-01 0.12500000E+03</pdfrwt>
<totfact> 0.73696185E+06</totfact>
</mgrwt>
</event>
<event>
 3    1  0.1628330E-001  0.1250000E+03  0.7546771E-02  0.1235069E+00
         21   -1    0    0  502  501  0.00000000000E+00  0.00000000000E+00  0.34896008332E+01  0.34896008332E+01  0.00000000000E+00 0.  1.
         21   -1    0    0  501  502 -0.00000000000E+00 -0.00000000000E+00 -0.11193973714E+04  0.11193973714E+04  0.00000000000E+00 0.  1.
         25    1    1    2    0    0  0.00000000000E+00  0.00000000000E+00 -0.11159077706E+04  0.11228869723E+04  0.12500000000E+03 0.  0.
<mgrwt>
<rscale>  0 0.12500000E+03</rscale>
<asrwt>0</asrwt>
<pdfrwt beam="1">  1       21 0.53686073E-03 0.12500000E+03</pdfrwt>
<pdfrwt beam="2">  1       21 0.17221528E+00 0.12500000E+03</pdfrwt>
<totfact> 0.20749424E+06</totfact>
</mgrwt>
</event>
<event>
 3    1  0.1628330E-001  0.1250000E+03  0.7546771E-02  0.1235069E+00
         21   -1    0    0  502  501  0.00000000000E+00  0.00000000000E+00  0.12177731804E+03  0.12177731804E+03  0.00000000000E+00 0.  1.
         21   -1    0    0  501  502 -0.00000000000E+00 -0.00000000000E+00 -0.32076991536E+02  0.32076991536E+02  0.00000000000E+00 0.  1.
         25    1    1    2    0    0  0.00000000000E+00  0.00000000000E+00  0.89700326503E+02  0.15385430957E+03  0.12500000000E+03 0.  0.
<mgrwt>
<rscale>  0 0.12500000E+03</rscale>
<asrwt>0</asrwt>
<pdfrwt beam="1">  1       21 0.18734972E-01 0.12500000E+03</pdfrwt>
<pdfrwt beam="2">  1       21 0.49349219E-02 0.12500000E+03</pdfrwt>
<totfact> 0.70278320E+06</totfact>
</mgrwt>
</event>
<event>
 3    1  0.1628330E-001  0.1250000E+03  0.7546771E-02  0.1235069E+00
         21   -1    0    0  502  501  0.00000000000E+00  0.00000000000E+00  0.18110465836E+04  0.18110465836E+04  0.00000000000E+00 0. -1.
         21   -1    0    0  501  502 -0.00000000000E+00 -0.00000000000E+00 -0.21569020009E+01  0.21569020009E+01  0.00000000000E+00 0. -1.
         25    1    1    2    0    0  0.00000000000E+00  0.00000000000E+00  0.18088896816E+04  0.18132034856E+04  0.12500000000E+03 0.  0.
<mgrwt>
<rscale>  0 0.12500000E+03</rscale>
<asrwt>0</asrwt>
<pdfrwt beam="1">  1       21 0.27862133E+00 0.12500000E+03</pdfrwt>
<pdfrwt beam="2">  1       21 0.33183253E-03 0.12500000E+03</pdfrwt>
<totfact> 0.99189002E+05</totfact>
</mgrwt>
</event>
<event>
 3    1  0.1628330E-001  0.1250000E+03  0.7546771E-02  0.1235069E+00
         21   -1    0    0  502  501  0.00000000000E+00  0.00000000000E+00  0.57893312494E+03  0.57893312494E+03  0.00000000000E+00 0. -1.
         21   -1    0    0  501  502 -0.00000000000E+00 -0.00000000000E+00 -0.67473250912E+01  0.67473250912E+01  0.00000000000E+00 0. -1.
         25    1    1    2    0    0  0.00000000000E+00  0.00000000000E+00  0.57218579984E+03  0.58568045003E+03  0.12500000000E+03 0.  0.
<mgrwt>
<rscale>  0 0.12500000E+03</rscale>
<asrwt>0</asrwt>
<pdfrwt beam="1">  1       21 0.89066596E-01 0.12500000E+03</pdfrwt>
<pdfrwt beam="2">  1       21 0.10380505E-02 0.12500000E+03</pdfrwt>
<totfact> 0.37748337E+06</totfact>
</mgrwt>
</event>
<event>
 3    1  0.1628330E-001  0.1250000E+03  0.7546771E-02  0.1235069E+00
         21   -1    0    0  502  501  0.00000000000E+00  0.00000000000E+00  0.28792006054E+03  0.28792006054E+03  0.00000000000E+00 0. -1.
         21   -1    0    0  501  502 -0.00000000000E+00 -0.00000000000E+00 -0.13567133852E+02  0.13567133852E+02  0.00000000000E+00 0. -1.
         25    1    1    2    0    0  0.00000000000E+00  0.00000000000E+00  0.27435292668E+03  0.30148719439E+03  0.12500000000E+03 0.  0.
<mgrwt>
<rscale>  0 0.12500000E+03</rscale>
<asrwt>0</asrwt>
<pdfrwt beam="1">  1       21 0.44295389E-01 0.12500000E+03</pdfrwt>
<pdfrwt beam="2">  1       21 0.20872516E-02 0.12500000E+03</pdfrwt>
<totfact> 0.55332810E+06</totfact>
</mgrwt>
</event>
<event>
 3    1  0.1628330E-001  0.1250000E+03  0.7546771E-02  0.1235069E+00
         21   -1    0    0  502  501  0.00000000000E+00  0.00000000000E+00  0.37819537582E+01  0.37819537582E+01  0.00000000000E+00 0.  1.
         21   -1    0    0  501  502 -0.00000000000E+00 -0.00000000000E+00 -0.10328656165E+04  0.10328656165E+04  0.00000000000E+00 0.  1.
         25    1    1    2    0    0  0.00000000000E+00  0.00000000000E+00 -0.10290836627E+04  0.10366475702E+04  0.12500000000E+03 0.  0.
<mgrwt>
<rscale>  0 0.12500000E+03</rscale>
<asrwt>0</asrwt>
<pdfrwt beam="1">  1       21 0.58183830E-03 0.12500000E+03</pdfrwt>
<pdfrwt beam="2">  1       21 0.15890261E+00 0.12500000E+03</pdfrwt>
<totfact> 0.22717995E+06</totfact>
</mgrwt>
</event>
<event>
 3    1  0.1628330E-001  0.1250000E+03  0.7546771E-02  0.1235069E+00
         21   -1    0    0  502  501  0.00000000000E+00  0.00000000000E+00  0.39368307640E+03  0.39368307640E+03  0.00000000000E+00 0.  1.
         21   -1    0    0  501  502 -0.00000000000E+00 -0.00000000000E+00 -0.99223213650E+01  0.99223213650E+01  0.00000000000E+00 0.  1.
         25    1    1    2    0    0  0.00000000000E+00  0.00000000000E+00  0.38376075503E+03  0.40360539776E+03  0.12500000000E+03 0.  0.
<mgrwt>
<rscale>  0 0.12500000E+03</rscale>
<asrwt>0</asrwt>
<pdfrwt beam="1">  1       21 0.60566615E-01 0.12500000E+03</pdfrwt>
<pdfrwt beam="2">  1       21 0.15265113E-02 0.12500000E+03</pdfrwt>
<totfact> 0.47803130E+06</totfact>
</mgrwt>
</event>
<event>
 3    1  0.1628330E-001  0.1250000E+03  0.7546771E-02  0.1235069E+00
         21   -1    0    0  502  501  0.00000000000E+00  0.00000000000E+00  0.11941984827E+02  0.11941984827E+02  0.00000000000E+00 0. -1.
         21   -1    0    0  501  502 -0.00000000000E+00 -0.00000000000E+00 -0.32710224108E+03  0.32710224108E+03  0.00000000000E+00 0. -1.
         25    1    1    2    0    0  0.00000000000E+00  0.00000000000E+00 -0.31516025625E+03  0.33904422591E+03  0.12500000000E+03 0.  0.
<mgrwt>
<rscale>  0 0.12500000E+03</rscale>
<asrwt>0</asrwt>
<pdfrwt beam="1">  1       21 0.18372286E-02 0.12500000E+03</pdfrwt>
<pdfrwt beam="2">  1       21 0.50323416E-01 0.12500000E+03</pdfrwt>
<totfact> 0.52357869E+06</totfact>
</mgrwt>
</event>
<event>
 3    1  0.1628330E-001  0.1250000E+03  0.7546771E-02  0.1235069E+00
         21   -1    0    0  502  501  0.00000000000E+00  0.00000000000E+00  0.14100990585E+02  0.14100990585E+02  0.00000000000E+00 0. -1.
         21   -1    0    0  501  502 -0.00000000000E+00 -0.00000000000E+00 -0.27701954528E+03  0.27701954528E+03  0.00000000000E+00 0. -1.
         25    1    1    2    0    0  0.00000000000E+00  0.00000000000E+00 -0.26291855470E+03  0.29112053587E+03  0.12500000000E+03 0.  0.
<mgrwt>
<rscale>  0 0.12500000E+03</rscale>
<asrwt>0</asrwt>
<pdfrwt beam="1">  1       21 0.21693833E-02 0.12500000E+03</pdfrwt>
<pdfrwt beam="2">  1       21 0.42618389E-01 0.12500000E+03</pdfrwt>
<totfact> 0.56202261E+06</totfact>
</mgrwt>
</event>
<event>
 3    1  0.1628330E-001  0.1250000E+03  0.7546771E-02  0.1235069E+00
         21   -1    0    0  502  501  0.00000000000E+00  0.00000000000E+00  0.16181658650E+03  0.16181658650E+03  0.00000000000E+00 0.  1.
         21   -1    0    0  501  502 -0.00000000000E+00 -0.00000000000E+00 -0.24139985180E+02  0.24139985180E+02  0.00000000000E+00 0.  1.
         25    1    1    2    0    0  0.00000000000E+00  0.00000000000E+00  0.13767660132E+03  0.18595657168E+03  0.12500000000E+03 0.  0.
<mgrwt>
<rscale>  0 0.12500000E+03</rscale>
<asrwt>0</asrwt>
<pdfrwt beam="1">  1       21 0.24894859E-01 0.12500000E+03</pdfrwt>
<pdfrwt beam="2">  1       21 0.37138440E-02 0.12500000E+03</pdfrwt>
<totfact> 0.66474700E+06</totfact>
</mgrwt>
</event>
<event>
 3    1  0.1628330E-001  0.1250000E+03  0.7546771E-02  0.1235069E+00
         21   -1    0    0  502  501  0.00000000000E+00  0.00000000000E+00  0.38954740910E+03  0.38954740910E+03  0.00000000000E+00 0.  1.
         21   -1    0    0  501  502 -0.00000000000E+00 -0.00000000000E+00 -0.10027662638E+02  0.10027662638E+02  0.00000000000E+00 0.  1.
         25    1    1    2    0    0  0.00000000000E+00  0.00000000000E+00  0.37951974646E+03  0.39957507174E+03  0.12500000000E+03 0.  0.
<mgrwt>
<rscale>  0 0.12500000E+03</rscale>
<asrwt>0</asrwt>
<pdfrwt beam="1">  1       21 0.59930359E-01 0.12500000E+03</pdfrwt>
<pdfrwt beam="2">  1       21 0.15427176E-02 0.12500000E+03</pdfrwt>
<totfact> 0.48069553E+06</totfact>
</mgrwt>
</event>
<event>
 3    1  0.1628330E-001  0.1250000E+03  0.7546771E-02  0.1235069E+00
         21   -1    0    0  502  501  0.00000000000E+00  0.00000000000E+00  0.83656681026E+02  0.83656681026E+02  0.00000000000E+00 0.  1.
         21   -1    0    0  501  502 -0.00000000000E+00 -0.00000000000E+00 -0.46693819933E+02  0.46693819933E+02  0.00000000000E+00 0.  1.
         25    1    1    2    0    0  0.00000000000E+00  0.00000000000E+00  0.36962861093E+02  0.13035050096E+03  0.12500000000E+03 0.  0.
<mgrwt>
<rscale>  0 0.12500000E+03</rscale>
<asrwt>0</asrwt>
<pdfrwt beam="1">  1       21 0.12870259E-01 0.12500000E+03</pdfrwt>
<pdfrwt beam="2">  1       21 0.71836646E-02 0.12500000E+03</pdfrwt>
<totfact> 0.73318107E+06</totfact>
</mgrwt>
</event>
<event>
 3    1  0.1628330E-001  0.1250000E+03  0.7546771E-02  0.1235069E+00
         21   -1    0    0  502  501  0.00000000000E+00  0.00000000000E+00  0.69135150740E+02  0.69135150740E+02  0.00000000000E+00 0. -1.
         21   -1    0    0  501  502 -0.00000000000E+00 -0.00000000000E+00 -0.56501648701E+02  0.56501648701E+02  0.00000000000E+00 0. -1.
         25    1    1    2    0    0  0.00000000000E+00  0.00000000000E+00  0.12633502040E+02  0.12563679944E+03  0.12500000000E+03 0.  0.
<mgrwt>
<rscale>  0 0.12500000E+03</rscale>
<asrwt>0</asrwt>
<pdfrwt beam="1">  1       21 0.10636177E-01 0.12500000E+03</pdfrwt>
<pdfrwt beam="2">  1       21 0.86925613E-02 0.12500000E+03</pdfrwt>
<totfact> 0.73956320E+06</totfact>
</mgrwt>
</event>
<event>
 3    1  0.1628330E-001  0.1250000E+03  0.7546771E-02  0.1235069E+00
         21   -1    0    0  502  501  0.00000000000E+00  0.00000000000E+00  0.28914455852E+02  0.28914455852E+02  0.00000000000E+00 0.  1.
         21   -1    0    0  501  502 -0.00000000000E+00 -0.00000000000E+00 -0.13509678411E+03  0.13509678411E+03  0.00000000000E+00 0.  1.
         25    1    1    2    0    0  0.00000000000E+00  0.00000000000E+00 -0.10618232826E+03  0.16401123997E+03  0.12500000000E+03 0.  0.
<mgrwt>
<rscale>  0 0.12500000E+03</rscale>
<asrwt>0</asrwt>
<pdfrwt beam="1">  1       21 0.44483779E-02 0.12500000E+03</pdfrwt>
<pdfrwt beam="2">  1       21 0.20784120E-01 0.12500000E+03</pdfrwt>
<totfact> 0.69032657E+06</totfact>
</mgrwt>
</event>
<event>
 3    1  0.1628330E-001  0.1250000E+03  0.7546771E-02  0.1235069E+00
         21   -1    0    0  502  501  0.00000000000E+00  0.00000000000E+00  0.13697209940E+02  0.13697209940E+02  0.00000000000E+00 0.  1.
         21   -1    0    0  501  502 -0.00000000000E+00 -0.00000000000E+00 -0.28518581647E+03  0.28518581647E+03  0.00000000000E+00 0.  1.
         25    1    1    2    0    0  0.00000000000E+00  0.00000000000E+00 -0.27148860653E+03  0.29888302641E+03  0.12500000000E+03 0.  0.
<mgrwt>
<rscale>  0 0.12500000E+03</rscale>
<asrwt>0</asrwt>
<pdfrwt beam="1">  1       21 0.21072632E-02 0.12500000E+03</pdfrwt>
<pdfrwt beam="2">  1       21 0.43874738E-01 0.12500000E+03</pdfrwt>
<totfact> 0.55549128E+06</totfact>
</mgrwt>
</event>
<event>
 3    1  0.1628330E-001  0.1250000E+03  0.7546771E-02  0.1235069E+00
         21   -1    0    0  502  501  0.00000000000E+00  0.00000000000E+00  0.63225144657E+01  0.63225144657E+01  0.00000000000E+00 0.  1.
         21   -1    0    0  501  502 -0.00000000000E+00 -0.00000000000E+00 -0.61783172205E+03  0.61783172205E+03  0.00000000000E+00 0.  1.
         25    1    1    2    0    0  0.00000000000E+00  0.00000000000E+00 -0.61150920758E+03  0.62415423651E+03  0.12500000000E+03 0.  0.
<mgrwt>
<rscale>  0 0.12500000E+03</rscale>
<asrwt>0</asrwt>
<pdfrwt beam="1">  1       21 0.97269444E-03 0.12500000E+03</pdfrwt>
<pdfrwt beam="2">  1       21 0.95051043E-01 0.12500000E+03</pdfrwt>
<totfact> 0.36022575E+06</totfact>
</mgrwt>
</event>
<event>
 3    1  0.1628330E-001  0.1250000E+03  0.7546771E-02  0.1235069E+00
         21   -1    0    0  502  501  0.00000000000E+00  0.00000000000E+00  0.23855562241E+02  0.23855562241E+02  0.00000000000E+00 0. -1.
         21   -1    0    0  501  502 -0.00000000000E+00 -0.00000000000E+00 -0.16374587866E+03  0.16374587866E+03  0.00000000000E+00 0. -1.
         25    1    1    2    0    0  0.00000000000E+00  0.00000000000E+00 -0.13989031642E+03  0.18760144090E+03  0.12500000000E+03 0.  0.
<mgrwt>
<rscale>  0 0.12500000E+03</rscale>
<asrwt>0</asrwt>
<pdfrwt beam="1">  1       21 0.36700866E-02 0.12500000E+03</pdfrwt>
<pdfrwt beam="2">  1       21 0.25191673E-01 0.12500000E+03</pdfrwt>
<totfact> 0.66290039E+06</totfact>
</mgrwt>
</event>
<event>
 3    1  0.1628330E-001  0.1250000E+03  0.7546771E-02  0.1235069E+00
         21   -1    0    0  502  501  0.00000000000E+00  0.00000000000E+00  0.12646847721E+01  0.12646847721E+01  0.00000000000E+00 0.  1.
         21   -1    0    0  501  502 -0.00000000000E+00 -0.00000000000E+00 -0.30887143469E+04  0.30887143469E+04  0.00000000000E+00 0.  1.
         25    1    1    2    0    0  0.00000000000E+00  0.00000000000E+00 -0.30874496622E+04  0.30899790317E+04  0.12500000000E+03 0.  0.
<mgrwt>
<rscale>  0 0.12500000E+03</rscale>
<asrwt>0</asrwt>
<pdfrwt beam="1">  1       21 0.19456619E-03 0.12500000E+03</pdfrwt>
<pdfrwt beam="2">  1       21 0.47518852E+00 0.12500000E+03</pdfrwt>
<totfact> 0.14662414E+05</totfact>
</mgrwt>
</event>
<event>
 3    1  0.1628330E-001  0.1250000E+03  0.7546771E-02  0.1235069E+00
         21   -1    0    0  502  501  0.00000000000E+00  0.00000000000E+00  0.33001753444E+01  0.33001753444E+01  0.00000000000E+00 0. -1.
         21   -1    0    0  501  502 -0.00000000000E+00 -0.00000000000E+00 -0.11836492284E+04  0.11836492284E+04  0.00000000000E+00 0. -1.
         25    1    1    2    0    0  0.00000000000E+00  0.00000000000E+00 -0.11803490530E+04  0.11869494037E+04  0.12500000000E+03 0.  0.
<mgrwt>
<rscale>  0 0.12500000E+03</rscale>
<asrwt>0</asrwt>
<pdfrwt beam="1">  1       21 0.50771915E-03 0.12500000E+03</pdfrwt>
<pdfrwt beam="2">  1       21 0.18209993E+00 0.12500000E+03</pdfrwt>
<totfact> 0.19405396E+06</totfact>
</mgrwt>
</event>
<event>
 3    1  0.1628330E-001  0.1250000E+03  0.7546771E-02  0.1235069E+00
         21   -1    0    0  502  501  0.00000000000E+00  0.00000000000E+00  0.19331289840E+02  0.19331289840E+02  0.00000000000E+00 0.  1.
         21   -1    0    0  501  502 -0.00000000000E+00 -0.00000000000E+00 -0.20206877205E+03  0.20206877205E+03  0.00000000000E+00 0.  1.
         25    1    1    2    0    0  0.00000000000E+00  0.00000000000E+00 -0.18273748221E+03  0.22140006189E+03  0.12500000000E+03 0.  0.
<mgrwt>
<rscale>  0 0.12500000E+03</rscale>
<asrwt>0</asrwt>
<pdfrwt beam="1">  1       21 0.29740444E-02 0.12500000E+03</pdfrwt>
<pdfrwt beam="2">  1       21 0.31087506E-01 0.12500000E+03</pdfrwt>
<totfact> 0.62679715E+06</totfact>
</mgrwt>
</event>
<event>
 3    1  0.1628330E-001  0.1250000E+03  0.7546771E-02  0.1235069E+00
         21   -1    0    0  502  501  0.00000000000E+00  0.00000000000E+00  0.18165407668E+02  0.18165407668E+02  0.00000000000E+00 0. -1.
         21   -1    0    0  501  502 -0.00000000000E+00 -0.00000000000E+00 -0.21503783848E+03  0.21503783848E+03  0.00000000000E+00 0. -1.
         25    1    1    2    0    0  0.00000000000E+00  0.00000000000E+00 -0.19687243081E+03  0.23320324615E+03  0.12500000000E+03 0.  0.
<mgrwt>
<rscale>  0 0.12500000E+03</rscale>
<asrwt>0</asrwt>
<pdfrwt beam="1">  1       21 0.27946782E-02 0.12500000E+03</pdfrwt>
<pdfrwt beam="2">  1       21 0.33082743E-01 0.12500000E+03</pdfrwt>
<totfact> 0.61496638E+06</totfact>
</mgrwt>
</event>
<event>
 3    1  0.1628330E-001  0.1250000E+03  0.7546771E-02  0.1235069E+00
         21   -1    0    0  502  501  0.00000000000E+00  0.00000000000E+00  0.32511114696E+03  0.32511114696E+03  0.00000000000E+00 0. -1.
         21   -1    0    0  501  502 -0.00000000000E+00 -0.00000000000E+00 -0.12015121710E+02  0.12015121710E+02  0.00000000000E+00 0. -1.
         25    1    1    2    0    0  0.00000000000E+00  0.00000000000E+00  0.31309602525E+03  0.33712626867E+03  0.12500000000E+03 0.  0.
<mgrwt>
<rscale>  0 0.12500000E+03</rscale>
<asrwt>0</asrwt>
<pdfrwt beam="1">  1       21 0.50017093E-01 0.12500000E+03</pdfrwt>
<pdfrwt beam="2">  1       21 0.18484805E-02 0.12500000E+03</pdfrwt>
<totfact> 0.52503481E+06</totfact>
</mgrwt>
</event>
<event>
 3    1  0.1628330E-001  0.1250000E+03  0.7546771E-02  0.1235069E+00
         21   -1    0    0  502  501  0.00000000000E+00  0.00000000000E+00  0.46482087674E+03  0.46482087674E+03  0.00000000000E+00 0. -1.
         21   -1    0    0  501  502 -0.00000000000E+00 -0.00000000000E+00 -0.84037748636E+01  0.84037748636E+01  0.00000000000E+00 0. -1.
         25    1    1    2    0    0  0.00000000000E+00  0.00000000000E+00  0.45641710187E+03  0.47322465160E+03  0.12500000000E+03 0.  0.
<mgrwt>
<rscale>  0 0.12500000E+03</rscale>
<asrwt>0</asrwt>
<pdfrwt beam="1">  1       21 0.71510884E-01 0.12500000E+03</pdfrwt>
<pdfrwt beam="2">  1       21 0.12928888E-02 0.12500000E+03</pdfrwt>
<totfact> 0.43534408E+06</totfact>
</mgrwt>
</event>
<event>
 3    1  0.1628330E-001  0.1250000E+03  0.7546771E-02  0.1235069E+00
         21   -1    0    0  502  501  0.00000000000E+00  0.00000000000E+00  0.18773076805E+01  0.18773076805E+01  0.00000000000E+00 0.  1.
         21   -1    0    0  501  502 -0.00000000000E+00 -0.00000000000E+00 -0.20807723958E+04  0.20807723958E+04  0.00000000000E+00 0.  1.
         25    1    1    2    0    0  0.00000000000E+00  0.00000000000E+00 -0.20788950881E+04  0.20826497035E+04  0.12500000000E+03 0.  0.
<mgrwt>
<rscale>  0 0.12500000E+03</rscale>
<asrwt>0</asrwt>
<pdfrwt beam="1">  1       21 0.28881723E-03 0.12500000E+03</pdfrwt>
<pdfrwt beam="2">  1       21 0.32011809E+00 0.12500000E+03</pdfrwt>
<totfact> 0.71700232E+05</totfact>
</mgrwt>
</event>
<event>
 3    1  0.1628330E-001  0.1250000E+03  0.7546771E-02  0.1235069E+00
         21   -1    0    0  502  501  0.00000000000E+00  0.00000000000E+00  0.41799177895E+02  0.41799177895E+02  0.00000000000E+00 0. -1.
         21   -1    0    0  501  502 -0.00000000000E+00 -0.00000000000E+00 -0.93452794928E+02  0.93452794928E+02  0.00000000000E+00 0. -1.
         25    1    1    2    0    0  0.00000000000E+00  0.00000000000E+00 -0.51653617033E+02  0.13525197282E+03  0.12500000000E+03 0.  0.
<mgrwt>
<rscale>  0 0.12500000E+03</rscale>
<asrwt>0</asrwt>
<pdfrwt beam="1">  1       21 0.64306428E-02 0.12500000E+03</pdfrwt>
<pdfrwt beam="2">  1       21 0.14377353E-01 0.12500000E+03</pdfrwt>
<totfact> 0.72663126E+06</totfact>
</mgrwt>
</event>
<event>
 3    1  0.1628330E-001  0.1250000E+03  0.7546771E-02  0.1235069E+00
         21   -1    0    0  502  501  0.00000000000E+00  0.00000000000E+00  0.18832293142E+03  0.18832293142E+03  0.00000000000E+00 0. -1.
         21   -1    0    0  501  502 -0.00000000000E+00 -0.00000000000E+00 -0.20742296069E+02  0.20742296069E+02  0.00000000000E+00 0. -1.
         25    1    1    2    0    0  0.00000000000E+00  0.00000000000E+00  0.16758063535E+03  0.20906522748E+03  0.12500000000E+03 0.  0.
<mgrwt>
<rscale>  0 0.12500000E+03</rscale>
<asrwt>0</asrwt>
<pdfrwt beam="1">  1       21 0.28972758E-01 0.12500000E+03</pdfrwt>
<pdfrwt beam="2">  1       21 0.31911226E-02 0.12500000E+03</pdfrwt>
<totfact> 0.63958019E+06</totfact>
</mgrwt>
</event>
<event>
 3    1  0.1628330E-001  0.1250000E+03  0.7546771E-02  0.1235069E+00
         21   -1    0    0  502  501  0.00000000000E+00  0.00000000000E+00  0.19696652634E+03  0.19696652634E+03  0.00000000000E+00 0.  1.
         21   -1    0    0  501  502 -0.00000000000E+00 -0.00000000000E+00 -0.19832050007E+02  0.19832050007E+02  0.00000000000E+00 0.  1.
         25    1    1    2    0    0  0.00000000000E+00  0.00000000000E+00  0.17713447633E+03  0.21679857634E+03  0.12500000000E+03 0.  0.
<mgrwt>
<rscale>  0 0.12500000E+03</rscale>
<asrwt>0</asrwt>
<pdfrwt beam="1">  1       21 0.30302541E-01 0.12500000E+03</pdfrwt>
<pdfrwt beam="2">  1       21 0.30510847E-02 0.12500000E+03</pdfrwt>
<totfact> 0.63151271E+06</totfact>
</mgrwt>
</event>
<event>
 3    1  0.1628330E-001  0.1250000E+03  0.7546771E-02  0.1235069E+00
         21   -1    0    0  502  501  0.00000000000E+00  0.00000000000E+00  0.20510315295E+02  0.20510315295E+02  0.00000000000E+00 0.  1.
         21   -1    0    0  501  502 -0.00000000000E+00 -0.00000000000E+00 -0.19045294740E+03  0.19045294740E+03  0.00000000000E+00 0.  1.
         25    1    1    2    0    0  0.00000000000E+00  0.00000000000E+00 -0.16994263210E+03  0.21096326269E+03  0.12500000000E+03 0.  0.
<mgrwt>
<rscale>  0 0.12500000E+03</rscale>
<asrwt>0</asrwt>
<pdfrwt beam="1">  1       21 0.31554331E-02 0.12500000E+03</pdfrwt>
<pdfrwt beam="2">  1       21 0.29300453E-01 0.12500000E+03</pdfrwt>
<totfact> 0.63758332E+06</totfact>
</mgrwt>
</event>
<event>
 3    1  0.1628330E-001  0.1250000E+03  0.7546771E-02  0.1235069E+00
         21   -1    0    0  502  501  0.00000000000E+00  0.00000000000E+00  0.66322416692E+02  0.66322416692E+02  0.00000000000E+00 0.  1.
         21   -1    0    0  501  502 -0.00000000000E+00 -0.00000000000E+00 -0.58897883926E+02  0.58897883926E+02  0.00000000000E+00 0.  1.
         25    1    1    2    0    0  0.00000000000E+00  0.00000000000E+00  0.74245327660E+01  0.12522030062E+03  0.12500000000E+03 0.  0.
<mgrwt>
<rscale>  0 0.12500000E+03</rscale>
<asrwt>0</asrwt>
<pdfrwt beam="1">  1       21 0.10203449E-01 0.12500000E+03</pdfrwt>
<pdfrwt beam="2">  1       21 0.90612129E-02 0.12500000E+03</pdfrwt>
<totfact> 0.74013831E+06</totfact>
</mgrwt>
</event>
<event>
 3    1  0.1628330E-001  0.1250000E+03  0.7546771E-02  0.1235069E+00
         21   -1    0    0  502  501  0.00000000000E+00  0.00000000000E+00  0.16201061784E+03  0.16201061784E+03  0.00000000000E+00 0.  1.
         21   -1    0    0  501  502 -0.00000000000E+00 -0.00000000000E+00 -0.24111074028E+02  0.24111074028E+02  0.00000000000E+00 0.  1.
         25    1    1    2    0    0  0.00000000000E+00  0.00000000000E+00  0.13789954381E+03  0.18612169187E+03  0.12500000000E+03 0.  0.
<mgrwt>
<rscale>  0 0.12500000E+03</rscale>
<asrwt>0</asrwt>
<pdfrwt beam="1">  1       21 0.24924710E-01 0.12500000E+03</pdfrwt>
<pdfrwt beam="2">  1       21 0.37093961E-02 0.12500000E+03</pdfrwt>
<totfact> 0.66456119E+06</totfact>
</mgrwt>
</event>
<event>
 3    1  0.1628330E-001  0.1250000E+03  0.7546771E-02  0.1235069E+00
         21   -1    0    0  502  501  0.00000000000E+00  0.00000000000E+00  0.27303996826E+02  0.27303996826E+02  0.00000000000E+00 0. -1.
         21   -1    0    0  501  502 -0.00000000000E+00 -0.00000000000E+00 -0.14306513530E+03  0.14306513530E+03  0.00000000000E+00 0. -1.
         25    1    1    2    0    0  0.00000000000E+00  0.00000000000E+00 -0.11576113847E+03  0.17036913212E+03  0.12500000000E+03 0.  0.
<mgrwt>
<rscale>  0 0.12500000E+03</rscale>
<asrwt>0</asrwt>
<pdfrwt beam="1">  1       21 0.42006149E-02 0.12500000E+03</pdfrwt>
<pdfrwt beam="2">  1       21 0.22010021E-01 0.12500000E+03</pdfrwt>
<totfact> 0.68273904E+06</totfact>
</mgrwt>
</event>
<event>
 3    1  0.1628330E-001  0.1250000E+03  0.7546771E-02  0.1235069E+00
         21   -1    0    0  502  501  0.00000000000E+00  0.00000000000E+00  0.27315226113E+02  0.27315226113E+02  0.00000000000E+00 0. -1.
         21   -1    0    0  501  502 -0.00000000000E+00 -0.00000000000E+00 -0.14300632123E+03  0.14300632123E+03  0.00000000000E+00 0. -1.
         25    1    1    2    0    0  0.00000000000E+00  0.00000000000E+00 -0.11569109512E+03  0.17032154734E+03  0.12500000000E+03 0.  0.
<mgrwt>
<rscale>  0 0.12500000E+03</rscale>
<asrwt>0</asrwt>
<pdfrwt beam="1">  1       21 0.42023424E-02 0.12500000E+03</pdfrwt>
<pdfrwt beam="2">  1       21 0.22000973E-01 0.12500000E+03</pdfrwt>
<totfact> 0.68279538E+06</totfact>
</mgrwt>
</event>
<event>
 3    1  0.1628330E-001  0.1250000E+03  0.7546771E-02  0.1235069E+00
         21   -1    0    0  502  501  0.00000000000E+00  0.00000000000E+00  0.83987544133E+01  0.83987544133E+01  0.00000000000E+00 0.  1.
         21   -1    0    0  501  502 -0.00000000000E+00 -0.00000000000E+00 -0.46509872867E+03  0.46509872867E+03  0.00000000000E+00 0.  1.
         25    1    1    2    0    0  0.00000000000E+00  0.00000000000E+00 -0.45669997425E+03  0.47349748308E+03  0.12500000000E+03 0.  0.
<mgrwt>
<rscale>  0 0.12500000E+03</rscale>
<asrwt>0</asrwt>
<pdfrwt beam="1">  1       21 0.12921161E-02 0.12500000E+03</pdfrwt>
<pdfrwt beam="2">  1       21 0.71553651E-01 0.12500000E+03</pdfrwt>
<totfact> 0.43518818E+06</totfact>
</mgrwt>
</event>
<event>
 3    1  0.1628330E-001  0.1250000E+03  0.7546771E-02  0.1235069E+00
         21   -1    0    0  502  501  0.00000000000E+00  0.00000000000E+00  0.85375201981E+01  0.85375201981E+01  0.00000000000E+00 0.  1.
         21   -1    0    0  501  502 -0.00000000000E+00 -0.00000000000E+00 -0.45753918109E+03  0.45753918109E+03  0.00000000000E+00 0.  1.
         25    1    1    2    0    0  0.00000000000E+00  0.00000000000E+00 -0.44900166089E+03  0.46607670129E+03  0.12500000000E+03 0.  0.
<mgrwt>
<rscale>  0 0.12500000E+03</rscale>
<asrwt>0</asrwt>
<pdfrwt beam="1">  1       21 0.13134645E-02 0.12500000E+03</pdfrwt>
<pdfrwt beam="2">  1       21 0.70390648E-01 0.12500000E+03</pdfrwt>
<totfact> 0.43945643E+06</totfact>
</mgrwt>
</event>
<event>
 3    1  0.1628330E-001  0.1250000E+03  0.7546771E-02  0.1235069E+00
         21   -1    0    0  502  501  0.00000000000E+00  0.00000000000E+00  0.56575722191E+02  0.56575722191E+02  0.00000000000E+00 0.  1.
         21   -1    0    0  501  502 -0.00000000000E+00 -0.00000000000E+00 -0.69044633435E+02  0.69044633435E+02  0.00000000000E+00 0.  1.
         25    1    1    2    0    0  0.00000000000E+00  0.00000000000E+00 -0.12468911244E+02  0.12562035563E+03  0.12500000000E+03 0.  0.
<mgrwt>
<rscale>  0 0.12500000E+03</rscale>
<asrwt>0</asrwt>
<pdfrwt beam="1">  1       21 0.87039573E-02 0.12500000E+03</pdfrwt>
<pdfrwt beam="2">  1       21 0.10622251E-01 0.12500000E+03</pdfrwt>
<totfact> 0.73958608E+06</totfact>
</mgrwt>
</event>
<event>
 3    1  0.1628330E-001  0.1250000E+03  0.7546771E-02  0.1235069E+00
         21   -1    0    0  502  501  0.00000000000E+00  0.00000000000E+00  0.85695253365E+02  0.85695253365E+02  0.00000000000E+00 0. -1.
         21   -1    0    0  501  502 -0.00000000000E+00 -0.00000000000E+00 -0.45583038110E+02  0.45583038110E+02  0.00000000000E+00 0. -1.
         25    1    1    2    0    0  0.00000000000E+00  0.00000000000E+00  0.40112215256E+02  0.13127829148E+03  0.12500000000E+03 0.  0.
<mgrwt>
<rscale>  0 0.12500000E+03</rscale>
<asrwt>0</asrwt>
<pdfrwt beam="1">  1       21 0.13183885E-01 0.12500000E+03</pdfrwt>
<pdfrwt beam="2">  1       21 0.70127751E-02 0.12500000E+03</pdfrwt>
<totfact> 0.73193194E+06</totfact>
</mgrwt>
</event>
<event>
 3    1  0.1628330E-001  0.1250000E+03  0.7546771E-02  0.1235069E+00
         21   -1    0    0  502  501  0.00000000000E+00  0.00000000000E+00  0.51515505145E+02  0.51515505145E+02  0.00000000000E+00 0. -1.
         21   -1    0    0  501  502 -0.00000000000E+00 -0.00000000000E+00 -0.75826685364E+02  0.75826685364E+02  0.00000000000E+00 0. -1.
         25    1    1    2    0    0  0.00000000000E+00  0.00000000000E+00 -0.24311180218E+02  0.12734219051E+03  0.12500000000E+03 0.  0.
<mgrwt>
<rscale>  0 0.12500000E+03</rscale>
<asrwt>0</asrwt>
<pdfrwt beam="1">  1       21 0.79254624E-02 0.12500000E+03</pdfrwt>
<pdfrwt beam="2">  1       21 0.11665644E-01 0.12500000E+03</pdfrwt>
<totfact> 0.73722624E+06</totfact>
</mgrwt>
</event>
<event>
 3    1  0.1628330E-001  0.1250000E+03  0.7546771E-02  0.1235069E+00
         21   -1    0    0  502  501  0.00000000000E+00  0.00000000000E+00  0.34830511977E+02  0.34830511977E+02  0.00000000000E+00 0. -1.
         21   -1    0    0  501  502 -0.00000000000E+00 -0.00000000000E+00 -0.11215023203E+03  0.11215023203E+03  0.00000000000E+00 0. -1.
         25    1    1    2    0    0  0.00000000000E+00  0.00000000000E+00 -0.77319720056E+02  0.14698074401E+03  0.12500000000E+03 0.  0.
<mgrwt>
<rscale>  0 0.12500000E+03</rscale>
<asrwt>0</asrwt>
<pdfrwt beam="1">  1       21 0.53585403E-02 0.12500000E+03</pdfrwt>
<pdfrwt beam="2">  1       21 0.17253882E-01 0.12500000E+03</pdfrwt>
<totfact> 0.71140567E+06</totfact>
</mgrwt>
</event>
<event>
 3    1  0.1628330E-001  0.1250000E+03  0.7546771E-02  0.1235069E+00
         21   -1    0    0  502  501  0.00000000000E+00  0.00000000000E+00  0.59836008274E+02  0.59836008274E+02  0.00000000000E+00 0.  1.
         21   -1    0    0  501  502 -0.00000000000E+00 -0.00000000000E+00 -0.65282596762E+02  0.65282596762E+02  0.00000000000E+00 0.  1.
         25    1    1    2    0    0  0.00000000000E+00  0.00000000000E+00 -0.54465884871E+01  0.12511860504E+03  0.12500000000E+03 0.  0.
<mgrwt>
<rscale>  0 0.12500000E+03</rscale>
<asrwt>0</asrwt>
<pdfrwt beam="1">  1       21 0.92055398E-02 0.12500000E+03</pdfrwt>
<pdfrwt beam="2">  1       21 0.10043476E-01 0.12500000E+03</pdfrwt>
<totfact> 0.74027563E+06</totfact>
</mgrwt>
</event>
<event>
 3    1  0.1628330E-001  0.1250000E+03  0.7546771E-02  0.1235069E+00
         21   -1    0    0  502  501  0.00000000000E+00  0.00000000000E+00  0.38041134769E+03  0.38041134769E+03  0.00000000000E+00 0. -1.
         21   -1    0    0  501  502 -0.00000000000E+00 -0.00000000000E+00 -0.10268489685E+02  0.10268489685E+02  0.00000000000E+00 0. -1.
         25    1    1    2    0    0  0.00000000000E+00  0.00000000000E+00  0.37014285801E+03  0.39067983738E+03  0.12500000000E+03 0.  0.
<mgrwt>
<rscale>  0 0.12500000E+03</rscale>
<asrwt>0</asrwt>
<pdfrwt beam="1">  1       21 0.58524812E-01 0.12500000E+03</pdfrwt>
<pdfrwt beam="2">  1       21 0.15797679E-02 0.12500000E+03</pdfrwt>
<totfact> 0.48665758E+06</totfact>
</mgrwt>
</event>
<event>
 3    1  0.1628330E-001  0.1250000E+03  0.7546771E-02  0.1235069E+00
         21   -1    0    0  502  501  0.00000000000E+00  0.00000000000E+00  0.11408750674E+02  0.11408750674E+02  0.00000000000E+00 0. -1.
         21   -1    0    0  501  502 -0.00000000000E+00 -0.00000000000E+00 -0.34239068867E+03  0.34239068867E+03  0.00000000000E+00 0. -1.
         25    1    1    2    0    0  0.00000000000E+00  0.00000000000E+00 -0.33098193800E+03  0.35379943935E+03  0.12500000000E+03 0.  0.
<mgrwt>
<rscale>  0 0.12500000E+03</rscale>
<asrwt>0</asrwt>
<pdfrwt beam="1">  1       21 0.17551923E-02 0.12500000E+03</pdfrwt>
<pdfrwt beam="2">  1       21 0.52675493E-01 0.12500000E+03</pdfrwt>
<totfact> 0.51259050E+06</totfact>
</mgrwt>
</event>
<event>
 3    1  0.1628330E-001  0.1250000E+03  0.7546771E-02  0.1235069E+00
         21   -1    0    0  502  501  0.00000000000E+00  0.00000000000E+00  0.36274988723E+03  0.36274988723E+03  0.00000000000E+00 0. -1.
         21   -1    0    0  501  502 -0.00000000000E+00 -0.00000000000E+00 -0.10768438909E+02  0.10768438909E+02  0.00000000000E+00 0. -1.
         25    1    1    2    0    0  0.00000000000E+00  0.00000000000E+00  0.35198144832E+03  0.37351832614E+03  0.12500000000E+03 0.  0.
<mgrwt>
<rscale>  0 0.12500000E+03</rscale>
<asrwt>0</asrwt>
<pdfrwt beam="1">  1       21 0.55807665E-01 0.12500000E+03</pdfrwt>
<pdfrwt beam="2">  1       21 0.16566832E-02 0.12500000E+03</pdfrwt>
<totfact> 0.49847073E+06</totfact>
</mgrwt>
</event>
<event>
 3    1  0.1628330E-001  0.1250000E+03  0.7546771E-02  0.1235069E+00
         21   -1    0    0  502  501  0.00000000000E+00  0.00000000000E+00  0.88047594397E+03  0.88047594397E+03  0.00000000000E+00 0. -1.
         21   -1    0    0  501  502 -0.00000000000E+00 -0.00000000000E+00 -0.44365209825E+01  0.44365209825E+01  0.00000000000E+00 0. -1.
         25    1    1    2    0    0  0.00000000000E+00  0.00000000000E+00  0.87603942298E+03  0.88491246495E+03  0.12500000000E+03 0.  0.
<mgrwt>
<rscale>  0 0.12500000E+03</rscale>
<asrwt>0</asrwt>
<pdfrwt beam="1">  1       21 0.13545770E+00 0.12500000E+03</pdfrwt>
<pdfrwt beam="2">  1       21 0.68254239E-03 0.12500000E+03</pdfrwt>
<totfact> 0.26733953E+06</totfact>
</mgrwt>
</event>
<event>
 3    1  0.1628330E-001  0.1250000E+03  0.7546771E-02  0.1235069E+00
         21   -1    0    0  502  501  0.00000000000E+00  0.00000000000E+00  0.16565488384E+02  0.16565488384E+02  0.00000000000E+00 0. -1.
         21   -1    0    0  501  502 -0.00000000000E+00 -0.00000000000E+00 -0.23580650986E+03  0.23580650986E+03  0.00000000000E+00 0. -1.
         25    1    1    2    0    0  0.00000000000E+00  0.00000000000E+00 -0.21924102147E+03  0.25237199824E+03  0.12500000000E+03 0.  0.
<mgrwt>
<rscale>  0 0.12500000E+03</rscale>
<asrwt>0</asrwt>
<pdfrwt beam="1">  1       21 0.25485367E-02 0.12500000E+03</pdfrwt>
<pdfrwt beam="2">  1       21 0.36277924E-01 0.12500000E+03</pdfrwt>
<totfact> 0.59655585E+06</totfact>
</mgrwt>
</event>
<event>
 3    1  0.1628330E-001  0.1250000E+03  0.7546771E-02  0.1235069E+00
         21   -1    0    0  502  501  0.00000000000E+00  0.00000000000E+00  0.61187266956E+03  0.61187266956E+03  0.00000000000E+00 0. -1.
         21   -1    0    0  501  502 -0.00000000000E+00 -0.00000000000E+00 -0.63840896878E+01  0.63840896878E+01  0.00000000000E+00 0. -1.
         25    1    1    2    0    0  0.00000000000E+00  0.00000000000E+00  0.60548857987E+03  0.61825675925E+03  0.12500000000E+03 0.  0.
<mgrwt>
<rscale>  0 0.12500000E+03</rscale>
<asrwt>0</asrwt>
<pdfrwt beam="1">  1       21 0.94134211E-01 0.12500000E+03</pdfrwt>
<pdfrwt beam="2">  1       21 0.98216813E-03 0.12500000E+03</pdfrwt>
<totfact> 0.36279808E+06</totfact>
</mgrwt>
</event>
<event>
 3    1  0.1628330E-001  0.1250000E+03  0.7546771E-02  0.1235069E+00
         21   -1    0    0  502  501  0.00000000000E+00  0.00000000000E+00  0.65618175888E+02  0.65618175888E+02  0.00000000000E+00 0.  1.
         21   -1    0    0  501  502 -0.00000000000E+00 -0.00000000000E+00 -0.59529999839E+02  0.59529999839E+02  0.00000000000E+00 0.  1.
         25    1    1    2    0    0  0.00000000000E+00  0.00000000000E+00  0.60881760491E+01  0.12514817573E+03  0.12500000000E+03 0.  0.
<mgrwt>
<rscale>  0 0.12500000E+03</rscale>
<asrwt>0</asrwt>
<pdfrwt beam="1">  1       21 0.10095104E-01 0.12500000E+03</pdfrwt>
<pdfrwt beam="2">  1       21 0.91584616E-02 0.12500000E+03</pdfrwt>
<totfact> 0.74023570E+06</totfact>
</mgrwt>
</event>
<event>
 3    1  0.1628330E-001  0.1250000E+03  0.7546771E-02  0.1235069E+00
         21   -1    0    0  502  501  0.00000000000E+00  0.00000000000E+00  0.73940215706E+03  0.73940215706E+03  0.00000000000E+00 0.  1.
         21   -1    0    0  501  502 -0.00000000000E+00 -0.00000000000E+00 -0.52829843174E+01  0.52829843174E+01  0.00000000000E+00 0.  1.
         25    1    1    2    0    0  0.00000000000E+00  0.00000000000E+00  0.73411917274E+03  0.74468514138E+03  0.12500000000E+03 0.  0.
<mgrwt>
<rscale>  0 0.12500000E+03</rscale>
<asrwt>0</asrwt>
<pdfrwt beam="1">  1       21 0.11375410E+00 0.12500000E+03</pdfrwt>
<pdfrwt beam="2">  1       21 0.81276740E-03 0.12500000E+03</pdfrwt>
<totfact> 0.31256697E+06</totfact>
</mgrwt>
</event>
<event>
 3    1  0.1628330E-001  0.1250000E+03  0.7546771E-02  0.1235069E+00
         21   -1    0    0  502  501  0.00000000000E+00  0.00000000000E+00  0.87276588719E+02  0.87276588719E+02  0.00000000000E+00 0.  1.
         21   -1    0    0  501  502 -0.00000000000E+00 -0.00000000000E+00 -0.44757134271E+02  0.44757134271E+02  0.00000000000E+00 0.  1.
         25    1    1    2    0    0  0.00000000000E+00  0.00000000000E+00  0.42519454448E+02  0.13203372299E+03  0.12500000000E+03 0.  0.
<mgrwt>
<rscale>  0 0.12500000E+03</rscale>
<asrwt>0</asrwt>
<pdfrwt beam="1">  1       21 0.13427167E-01 0.12500000E+03</pdfrwt>
<pdfrwt beam="2">  1       21 0.68857130E-02 0.12500000E+03</pdfrwt>
<totfact> 0.73091706E+06</totfact>
</mgrwt>
</event>
<event>
 3    1  0.1628330E-001  0.1250000E+03  0.7546771E-02  0.1235069E+00
         21   -1    0    0  502  501  0.00000000000E+00  0.00000000000E+00  0.17591019292E+03  0.17591019292E+03  0.00000000000E+00 0. -1.
         21   -1    0    0  501  502 -0.00000000000E+00 -0.00000000000E+00 -0.22205933239E+02  0.22205933239E+02  0.00000000000E+00 0. -1.
         25    1    1    2    0    0  0.00000000000E+00  0.00000000000E+00  0.15370425968E+03  0.19811612616E+03  0.12500000000E+03 0.  0.
<mgrwt>
<rscale>  0 0.12500000E+03</rscale>
<asrwt>0</asrwt>
<pdfrwt beam="1">  1       21 0.27063106E-01 0.12500000E+03</pdfrwt>
<pdfrwt beam="2">  1       21 0.34162975E-02 0.12500000E+03</pdfrwt>
<totfact> 0.65131576E+06</totfact>
</mgrwt>
</event>
<event>
 3    1  0.1628330E-001  0.1250000E+03  0.7546771E-02  0.1235069E+00
         21   -1    0    0  502  501  0.00000000000E+00  0.00000000000E+00  0.18253531730E+02  0.18253531730E+02  0.00000000000E+00 0. -1.
         21   -1    0    0  501  502 -0.00000000000E+00 -0.00000000000E+00 -0.21399968279E+03  0.21399968279E+03  0.00000000000E+00 0. -1.
         25    1    1    2    0    0  0.00000000000E+00  0.00000000000E+00 -0.19574615107E+03  0.23225321452E+03  0.12500000000E+03 0.  0.
<mgrwt>
<rscale>  0 0.12500000E+03</rscale>
<asrwt>0</asrwt>
<pdfrwt beam="1">  1       21 0.28082359E-02 0.12500000E+03</pdfrwt>
<pdfrwt beam="2">  1       21 0.32923025E-01 0.12500000E+03</pdfrwt>
<totfact> 0.61590459E+06</totfact>
</mgrwt>
</event>
<event>
 3    1  0.1628330E-001  0.1250000E+03  0.7546771E-02  0.1235069E+00
         21   -1    0    0  502  501  0.00000000000E+00  0.00000000000E+00  0.62670134103E+03  0.62670134103E+03  0.00000000000E+00 0.  1.
         21   -1    0    0  501  502 -0.00000000000E+00 -0.00000000000E+00 -0.62330327769E+01  0.62330327769E+01  0.00000000000E+00 0.  1.
         25    1    1    2    0    0  0.00000000000E+00  0.00000000000E+00  0.62046830826E+03  0.63293437381E+03  0.12500000000E+03 0.  0.
<mgrwt>
<rscale>  0 0.12500000E+03</rscale>
<asrwt>0</asrwt>
<pdfrwt beam="1">  1       21 0.96415542E-01 0.12500000E+03</pdfrwt>
<pdfrwt beam="2">  1       21 0.95892861E-03 0.12500000E+03</pdfrwt>
<totfact> 0.35644349E+06</totfact>
</mgrwt>
</event>
<event>
 3    1  0.1628330E-001  0.1250000E+03  0.7546771E-02  0.1235069E+00
         21   -1    0    0  502  501  0.00000000000E+00  0.00000000000E+00  0.12499201910E+02  0.12499201910E+02  0.00000000000E+00 0. -1.
         21   -1    0    0  501  502 -0.00000000000E+00 -0.00000000000E+00 -0.31251995353E+03  0.31251995353E+03  0.00000000000E+00 0. -1.
         25    1    1    2    0    0  0.00000000000E+00  0.00000000000E+00 -0.30002075162E+03  0.32501915544E+03  0.12500000000E+03 0.  0.
<mgrwt>
<rscale>  0 0.12500000E+03</rscale>
<asrwt>0</asrwt>
<pdfrwt beam="1">  1       21 0.19229542E-02 0.12500000E+03</pdfrwt>
<pdfrwt beam="2">  1       21 0.48079991E-01 0.12500000E+03</pdfrwt>
<totfact> 0.53437982E+06</totfact>
</mgrwt>
</event>
<event>
 3    1  0.1628330E-001  0.1250000E+03  0.7546771E-02  0.1235069E+00
         21   -1    0    0  502  501  0.00000000000E+00  0.00000000000E+00  0.46790624889E+02  0.46790624889E+02  0.00000000000E+00 0. -1.
         21   -1    0    0  501  502 -0.00000000000E+00 -0.00000000000E+00 -0.83483604017E+02  0.83483604017E+02  0.00000000000E+00 0. -1.
         25    1    1    2    0    0  0.00000000000E+00  0.00000000000E+00 -0.36692979128E+02  0.13027422891E+03  0.12500000000E+03 0.  0.
<mgrwt>
<rscale>  0 0.12500000E+03</rscale>
<asrwt>0</asrwt>
<pdfrwt beam="1">  1       21 0.71985577E-02 0.12500000E+03</pdfrwt>
<pdfrwt beam="2">  1       21 0.12843631E-01 0.12500000E+03</pdfrwt>
<totfact> 0.73328287E+06</totfact>
</mgrwt>
</event>
<event>
 3    1  0.1628330E-001  0.1250000E+03  0.7546771E-02  0.1235069E+00
         21   -1    0    0  502  501  0.00000000000E+00  0.00000000000E+00  0.45560883818E+03  0.45560883818E+03  0.00000000000E+00 0.  1.
         21   -1    0    0  501  502 -0.00000000000E+00 -0.00000000000E+00 -0.85736923270E+01  0.85736923270E+01  0.00000000000E+00 0.  1.
         25    1    1    2    0    0  0.00000000000E+00  0.00000000000E+00  0.44703514585E+03  0.46418253050E+03  0.12500000000E+03 0.  0.
<mgrwt>
<rscale>  0 0.12500000E+03</rscale>
<asrwt>0</asrwt>
<pdfrwt beam="1">  1       21 0.70093648E-01 0.12500000E+03</pdfrwt>
<pdfrwt beam="2">  1       21 0.13190299E-02 0.12500000E+03</pdfrwt>
<totfact> 0.44055610E+06</totfact>
</mgrwt>
</event>
<event>
 3    1  0.1628330E-001  0.1250000E+03  0.7546771E-02  0.1235069E+00
         21   -1    0    0  502  501  0.00000000000E+00  0.00000000000E+00  0.24180617361E+02  0.24180617361E+02  0.00000000000E+00 0. -1.
         21   -1    0    0  501  502 -0.00000000000E+00 -0.00000000000E+00 -0.16154467612E+03  0.16154467612E+03  0.00000000000E+00 0. -1.
         25    1    1    2    0    0  0.00000000000E+00  0.00000000000E+00 -0.13736405876E+03  0.18572529348E+03  0.12500000000E+03 0.  0.
<mgrwt>
<rscale>  0 0.12500000E+03</rscale>
<asrwt>0</asrwt>
<pdfrwt beam="1">  1       21 0.37200952E-02 0.12500000E+03</pdfrwt>
<pdfrwt beam="2">  1       21 0.24853026E-01 0.12500000E+03</pdfrwt>
<totfact> 0.66500741E+06</totfact>
</mgrwt>
</event>
<event>
 3    1  0.1628330E-001  0.1250000E+03  0.7546771E-02  0.1235069E+00
         21   -1    0    0  502  501  0.00000000000E+00  0.00000000000E+00  0.57775324983E+02  0.57775324983E+02  0.00000000000E+00 0. -1.
         21   -1    0    0  501  502 -0.00000000000E+00 -0.00000000000E+00 -0.67611043316E+02  0.67611043316E+02  0.00000000000E+00 0. -1.
         25    1    1    2    0    0  0.00000000000E+00  0.00000000000E+00 -0.98357183337E+01  0.12538636830E+03  0.12500000000E+03 0.  0.
<mgrwt>
<rscale>  0 0.12500000E+03</rscale>
<asrwt>0</asrwt>
<pdfrwt beam="1">  1       21 0.88885115E-02 0.12500000E+03</pdfrwt>
<pdfrwt beam="2">  1       21 0.10401699E-01 0.12500000E+03</pdfrwt>
<totfact> 0.73991328E+06</totfact>
</mgrwt>
</event>
<event>
 3    1  0.1628330E-001  0.1250000E+03  0.7546771E-02  0.1235069E+00
         21   -1    0    0  502  501  0.00000000000E+00  0.00000000000E+00  0.22599385009E+03  0.22599385009E+03  0.00000000000E+00 0.  1.
         21   -1    0    0  501  502 -0.00000000000E+00 -0.00000000000E+00 -0.17284762388E+02  0.17284762388E+02  0.00000000000E+00 0.  1.
         25    1    1    2    0    0  0.00000000000E+00  0.00000000000E+00  0.20870908770E+03  0.24327861248E+03  0.12500000000E+03 0.  0.
<mgrwt>
<rscale>  0 0.12500000E+03</rscale>
<asrwt>0</asrwt>
<pdfrwt beam="1">  1       21 0.34768282E-01 0.12500000E+03</pdfrwt>
<pdfrwt beam="2">  1       21 0.26591944E-02 0.12500000E+03</pdfrwt>
<totfact> 0.60516835E+06</totfact>
</mgrwt>
</event>
<event>
 3    1  0.1628330E-001  0.1250000E+03  0.7546771E-02  0.1235069E+00
         21   -1    0    0  502  501  0.00000000000E+00  0.00000000000E+00  0.18428687690E+03  0.18428687690E+03  0.00000000000E+00 0. -1.
         21   -1    0    0  501  502 -0.00000000000E+00 -0.00000000000E+00 -0.21196571702E+02  0.21196571702E+02  0.00000000000E+00 0. -1.
         25    1    1    2    0    0  0.00000000000E+00  0.00000000000E+00  0.16309030520E+03  0.20548344860E+03  0.12500000000E+03 0.  0.
<mgrwt>
<rscale>  0 0.12500000E+03</rscale>
<asrwt>0</asrwt>
<pdfrwt beam="1">  1       21 0.28351826E-01 0.12500000E+03</pdfrwt>
<pdfrwt beam="2">  1       21 0.32610111E-02 0.12500000E+03</pdfrwt>
<totfact> 0.64337884E+06</totfact>
</mgrwt>
</event>
<event>
 3    1  0.1628330E-001  0.1250000E+03  0.7546771E-02  0.1235069E+00
         21   -1    0    0  502  501  0.00000000000E+00  0.00000000000E+00  0.81651157519E+01  0.81651157519E+01  0.00000000000E+00 0. -1.
         21   -1    0    0  501  502 -0.00000000000E+00 -0.00000000000E+00 -0.47840717985E+03  0.47840717985E+03  0.00000000000E+00 0. -1.
         25    1    1    2    0    0  0.00000000000E+00  0.00000000000E+00 -0.47024206409E+03  0.48657229560E+03  0.12500000000E+03 0.  0.
<mgrwt>
<rscale>  0 0.12500000E+03</rscale>
<asrwt>0</asrwt>
<pdfrwt beam="1">  1       21 0.12561716E-02 0.12500000E+03</pdfrwt>
<pdfrwt beam="2">  1       21 0.73601110E-01 0.12500000E+03</pdfrwt>
<totfact> 0.42781772E+06</totfact>
</mgrwt>
</event>
<event>
 3    1  0.1628330E-001  0.1250000E+03  0.7546771E-02  0.1235069E+00
         21   -1    0    0  502  501  0.00000000000E+00  0.00000000000E+00  0.48185443412E+02  0.48185443412E+02  0.00000000000E+00 0.  1.
         21   -1    0    0  501  502 -0.00000000000E+00 -0.00000000000E+00 -0.81067013674E+02  0.81067013674E+02  0.00000000000E+00 0.  1.
         25    1    1    2    0    0  0.00000000000E+00  0.00000000000E+00 -0.32881570262E+02  0.12925245709E+03  0.12500000000E+03 0.  0.
<mgrwt>
<rscale>  0 0.12500000E+03</rscale>
<asrwt>0</asrwt>
<pdfrwt beam="1">  1       21 0.74131452E-02 0.12500000E+03</pdfrwt>
<pdfrwt beam="2">  1       21 0.12471848E-01 0.12500000E+03</pdfrwt>
<totfact> 0.73464998E+06</totfact>
</mgrwt>
</event>
<event>
 3    1  0.1628330E-001  0.1250000E+03  0.7546771E-02  0.1235069E+00
         21   -1    0    0  502  501  0.00000000000E+00  0.00000000000E+00  0.14276587473E+02  0.14276587473E+02  0.00000000000E+00 0. -1.
         21   -1    0    0  501  502 -0.00000000000E+00 -0.00000000000E+00 -0.27361230457E+03  0.27361230457E+03  0.00000000000E+00 0. -1.
         25    1    1    2    0    0  0.00000000000E+00  0.00000000000E+00 -0.25933571710E+03  0.28788889204E+03  0.12500000000E+03 0.  0.
<mgrwt>
<rscale>  0 0.12500000E+03</rscale>
<asrwt>0</asrwt>
<pdfrwt beam="1">  1       21 0.21963983E-02 0.12500000E+03</pdfrwt>
<pdfrwt beam="2">  1       21 0.42094196E-01 0.12500000E+03</pdfrwt>
<totfact> 0.56477918E+06</totfact>
</mgrwt>
</event>
<event>
 3    1  0.1628330E-001  0.1250000E+03  0.7546771E-02  0.1235069E+00
         21   -1    0    0  502  501  0.00000000000E+00  0.00000000000E+00  0.22504639049E+03  0.22504639049E+03  0.00000000000E+00 0. -1.
         21   -1    0    0  501  502 -0.00000000000E+00 -0.00000000000E+00 -0.17357532336E+02  0.17357532336E+02  0.00000000000E+00 0. -1.
         25    1    1    2    0    0  0.00000000000E+00  0.00000000000E+00  0.20768885815E+03  0.24240392282E+03  0.12500000000E+03 0.  0.
<mgrwt>
<rscale>  0 0.12500000E+03</rscale>
<asrwt>0</asrwt>
<pdfrwt beam="1">  1       21 0.34622520E-01 0.12500000E+03</pdfrwt>
<pdfrwt beam="2">  1       21 0.26703897E-02 0.12500000E+03</pdfrwt>
<totfact> 0.60600814E+06</totfact>
</mgrwt>
</event>
<event>
 3    1  0.1628330E-001  0.1250000E+03  0.7546771E-02  0.1235069E+00
         21   -1    0    0  502  501  0.00000000000E+00  0.00000000000E+00  0.84750381432E+03  0.84750381432E+03  0.00000000000E+00 0.  1.
         21   -1    0    0  501  502 -0.00000000000E+00 -0.00000000000E+00 -0.46091237986E+01  0.46091237986E+01  0.00000000000E+00 0.  1.
         25    1    1    2    0    0  0.00000000000E+00  0.00000000000E+00  0.84289469052E+03  0.85211293812E+03  0.12500000000E+03 0.  0.
<mgrwt>
<rscale>  0 0.12500000E+03</rscale>
<asrwt>0</asrwt>
<pdfrwt beam="1">  1       21 0.13038508E+00 0.12500000E+03</pdfrwt>
<pdfrwt beam="2">  1       21 0.70909664E-03 0.12500000E+03</pdfrwt>
<totfact> 0.27707304E+06</totfact>
</mgrwt>
</event>
<event>
 3    1  0.1628330E-001  0.1250000E+03  0.7546771E-02  0.1235069E+00
         21   -1    0    0  502  501  0.00000000000E+00  0.00000000000E+00  0.15810418811E+03  0.15810418811E+03  0.00000000000E+00 0.  1.
         21   -1    0    0  501  502 -0.00000000000E+00 -0.00000000000E+00 -0.24706809141E+02  0.24706809141E+02  0.00000000000E+00 0.  1.
         25    1    1    2    0    0  0.00000000000E+00  0.00000000000E+00  0.13339737897E+03  0.18281099725E+03  0.12500000000E+03 0.  0.
<mgrwt>
<rscale>  0 0.12500000E+03</rscale>
<asrwt>0</asrwt>
<pdfrwt beam="1">  1       21 0.24323721E-01 0.12500000E+03</pdfrwt>
<pdfrwt beam="2">  1       21 0.38010477E-02 0.12500000E+03</pdfrwt>
<totfact> 0.66830522E+06</totfact>
</mgrwt>
</event>
<event>
 3    1  0.1628330E-001  0.1250000E+03  0.7546771E-02  0.1235069E+00
         21   -1    0    0  502  501  0.00000000000E+00  0.00000000000E+00  0.23511089945E+01  0.23511089945E+01  0.00000000000E+00 0. -1.
         21   -1    0    0  501  502 -0.00000000000E+00 -0.00000000000E+00 -0.16614499835E+04  0.16614499835E+04  0.00000000000E+00 0. -1.
         25    1    1    2    0    0  0.00000000000E+00  0.00000000000E+00 -0.16590988745E+04  0.16638010925E+04  0.12500000000E+03 0.  0.
<mgrwt>
<rscale>  0 0.12500000E+03</rscale>
<asrwt>0</asrwt>
<pdfrwt beam="1">  1       21 0.36170910E-03 0.12500000E+03</pdfrwt>
<pdfrwt beam="2">  1       21 0.25560767E+00 0.12500000E+03</pdfrwt>
<totfact> 0.11728998E+06</totfact>
</mgrwt>
</event>
<event>
 3    1  0.1628330E-001  0.1250000E+03  0.7546771E-02  0.1235069E+00
         21   -1    0    0  502  501  0.00000000000E+00  0.00000000000E+00  0.37386581568E+03  0.37386581568E+03  0.00000000000E+00 0. -1.
         21   -1    0    0  501  502 -0.00000000000E+00 -0.00000000000E+00 -0.10448267363E+02  0.10448267363E+02  0.00000000000E+00 0. -1.
         25    1    1    2    0    0  0.00000000000E+00  0.00000000000E+00  0.36341754831E+03  0.38431408304E+03  0.12500000000E+03 0.  0.
<mgrwt>
<rscale>  0 0.12500000E+03</rscale>
<asrwt>0</asrwt>
<pdfrwt beam="1">  1       21 0.57517808E-01 0.12500000E+03</pdfrwt>
<pdfrwt beam="2">  1       21 0.16074260E-02 0.12500000E+03</pdfrwt>
<totfact> 0.49099489E+06</totfact>
</mgrwt>
</event>
<event>
 3    1  0.1628330E-001  0.1250000E+03  0.7546771E-02  0.1235069E+00
         21   -1    0    0  502  501  0.00000000000E+00  0.00000000000E+00  0.19662537204E+03  0.19662537204E+03  0.00000000000E+00 0.  1.
         21   -1    0    0  501  502 -0.00000000000E+00 -0.00000000000E+00 -0.19866459550E+02  0.19866459550E+02  0.00000000000E+00 0.  1.
         25    1    1    2    0    0  0.00000000000E+00  0.00000000000E+00  0.17675891249E+03  0.21649183159E+03  0.12500000000E+03 0.  0.
<mgrwt>
<rscale>  0 0.12500000E+03</rscale>
<asrwt>0</asrwt>
<pdfrwt beam="1">  1       21 0.30250056E-01 0.12500000E+03</pdfrwt>
<pdfrwt beam="2">  1       21 0.30563785E-02 0.12500000E+03</pdfrwt>
<totfact> 0.63182928E+06</totfact>
</mgrwt>
</event>
<event>
 3    1  0.1628330E-001  0.1250000E+03  0.7546771E-02  0.1235069E+00
         21   -1    0    0  502  501  0.00000000000E+00  0.00000000000E+00  0.14518005479E+03  0.14518005479E+03  0.00000000000E+00 0. -1.
         21   -1    0    0  501  502 -0.00000000000E+00 -0.00000000000E+00 -0.26906244151E+02  0.26906244151E+02  0.00000000000E+00 0. -1.
         25    1    1    2    0    0  0.00000000000E+00  0.00000000000E+00  0.11827381064E+03  0.17208629894E+03  0.12500000000E+03 0.  0.
<mgrwt>
<rscale>  0 0.12500000E+03</rscale>
<asrwt>0</asrwt>
<pdfrwt beam="1">  1       21 0.22335393E-01 0.12500000E+03</pdfrwt>
<pdfrwt beam="2">  1       21 0.41394222E-02 0.12500000E+03</pdfrwt>
<totfact> 0.68071174E+06</totfact>
</mgrwt>
</event>
<event>
 3    1  0.1628330E-001  0.1250000E+03  0.7546771E-02  0.1235069E+00
         21   -1    0    0  502  501  0.00000000000E+00  0.00000000000E+00  0.72060104436E+03  0.72060104436E+03  0.00000000000E+00 0. -1.
         21   -1    0    0  501  502 -0.00000000000E+00 -0.00000000000E+00 -0.54208220076E+01  0.54208220076E+01  0.00000000000E+00 0. -1.
         25    1    1    2    0    0  0.00000000000E+00  0.00000000000E+00  0.71518022236E+03  0.72602186637E+03  0.12500000000E+03 0.  0.
<mgrwt>
<rscale>  0 0.12500000E+03</rscale>
<asrwt>0</asrwt>
<pdfrwt beam="1">  1       21 0.11086162E+00 0.12500000E+03</pdfrwt>
<pdfrwt beam="2">  1       21 0.83397319E-03 0.12500000E+03</pdfrwt>
<totfact> 0.31930747E+06</totfact>
</mgrwt>
</event>
<event>
 3    1  0.1628330E-001  0.1250000E+03  0.7546771E-02  0.1235069E+00
         21   -1    0    0  502  501  0.00000000000E+00  0.00000000000E+00  0.11136178917E+03  0.11136178917E+03  0.00000000000E+00 0.  1.
         21   -1    0    0  501  502 -0.00000000000E+00 -0.00000000000E+00 -0.35077112438E+02  0.35077112438E+02  0.00000000000E+00 0.  1.
         25    1    1    2    0    0  0.00000000000E+00  0.00000000000E+00  0.76284676732E+02  0.14643890161E+03  0.12500000000E+03 0.  0.
<mgrwt>
<rscale>  0 0.12500000E+03</rscale>
<asrwt>0</asrwt>
<pdfrwt beam="1">  1       21 0.17132583E-01 0.12500000E+03</pdfrwt>
<pdfrwt beam="2">  1       21 0.53964789E-02 0.12500000E+03</pdfrwt>
<totfact> 0.71209461E+06</totfact>
</mgrwt>
</event>
<event>
 3    1  0.1628330E-001  0.1250000E+03  0.7546771E-02  0.1235069E+00
         21   -1    0    0  502  501  0.00000000000E+00  0.00000000000E+00  0.27121627623E+03  0.27121627623E+03  0.00000000000E+00 0.  1.
         21   -1    0    0  501  502 -0.00000000000E+00 -0.00000000000E+00 -0.14402712309E+02  0.14402712309E+02  0.00000000000E+00 0.  1.
         25    1    1    2    0    0  0.00000000000E+00  0.00000000000E+00  0.25681356393E+03  0.28561898854E+03  0.12500000000E+03 0.  0.
<mgrwt>
<rscale>  0 0.12500000E+03</rscale>
<asrwt>0</asrwt>
<pdfrwt beam="1">  1       21 0.41725577E-01 0.12500000E+03</pdfrwt>
<pdfrwt beam="2">  1       21 0.22158021E-02 0.12500000E+03</pdfrwt>
<totfact> 0.56672878E+06</totfact>
</mgrwt>
</event>
<event>
 3    1  0.1628330E-001  0.1250000E+03  0.7546771E-02  0.1235069E+00
         21   -1    0    0  502  501  0.00000000000E+00  0.00000000000E+00  0.12894162345E+03  0.12894162345E+03  0.00000000000E+00 0. -1.
         21   -1    0    0  501  502 -0.00000000000E+00 -0.00000000000E+00 -0.30294717063E+02  0.30294717063E+02  0.00000000000E+00 0. -1.
         25    1    1    2    0    0  0.00000000000E+00  0.00000000000E+00  0.98646906383E+02  0.15923634051E+03  0.12500000000E+03 0.  0.
<mgrwt>
<rscale>  0 0.12500000E+03</rscale>
<asrwt>0</asrwt>
<pdfrwt beam="1">  1       21 0.19837173E-01 0.12500000E+03</pdfrwt>
<pdfrwt beam="2">  1       21 0.46607258E-02 0.12500000E+03</pdfrwt>
<totfact> 0.69612927E+06</totfact>
</mgrwt>
</event>
<event>
 3    1  0.1628330E-001  0.1250000E+03  0.7546771E-02  0.1235069E+00
         21   -1    0    0  502  501  0.00000000000E+00  0.00000000000E+00  0.63736417209E+03  0.63736417209E+03  0.00000000000E+00 0. -1.
         21   -1    0    0  501  502 -0.00000000000E+00 -0.00000000000E+00 -0.61287567941E+01  0.61287567941E+01  0.00000000000E+00 0. -1.
         25    1    1    2    0    0  0.00000000000E+00  0.00000000000E+00  0.63123541529E+03  0.64349292888E+03  0.12500000000E+03 0.  0.
<mgrwt>
<rscale>  0 0.12500000E+03</rscale>
<asrwt>0</asrwt>
<pdfrwt beam="1">  1       21 0.98055974E-01 0.12500000E+03</pdfrwt>
<pdfrwt beam="2">  1       21 0.94288616E-03 0.12500000E+03</pdfrwt>
<totfact> 0.35196627E+06</totfact>
</mgrwt>
</event>
<event>
 3    1  0.1628330E-001  0.1250000E+03  0.7546771E-02  0.1235069E+00
         21   -1    0    0  502  501  0.00000000000E+00  0.00000000000E+00  0.52761546301E+02  0.52761546301E+02  0.00000000000E+00 0.  1.
         21   -1    0    0  501  502 -0.00000000000E+00 -0.00000000000E+00 -0.74035927183E+02  0.74035927183E+02  0.00000000000E+00 0.  1.
         25    1    1    2    0    0  0.00000000000E+00  0.00000000000E+00 -0.21274380883E+02  0.12679747348E+03  0.12500000000E+03 0.  0.
<mgrwt>
<rscale>  0 0.12500000E+03</rscale>
<asrwt>0</asrwt>
<pdfrwt beam="1">  1       21 0.81171610E-02 0.12500000E+03</pdfrwt>
<pdfrwt beam="2">  1       21 0.11390143E-01 0.12500000E+03</pdfrwt>
<totfact> 0.73796733E+06</totfact>
</mgrwt>
</event>
<event>
 3    1  0.1628330E-001  0.1250000E+03  0.7546771E-02  0.1235069E+00
         21   -1    0    0  502  501  0.00000000000E+00  0.00000000000E+00  0.84504815137E+02  0.84504815137E+02  0.00000000000E+00 0.  1.
         21   -1    0    0  501  502 -0.00000000000E+00 -0.00000000000E+00 -0.46225176562E+02  0.46225176562E+02  0.00000000000E+00 0.  1.
         25    1    1    2    0    0  0.00000000000E+00  0.00000000000E+00  0.38279638575E+02  0.13072999170E+03  0.12500000000E+03 0.  0.
<mgrwt>
<rscale>  0 0.12500000E+03</rscale>
<asrwt>0</asrwt>
<pdfrwt beam="1">  1       21 0.13000741E-01 0.12500000E+03</pdfrwt>
<pdfrwt beam="2">  1       21 0.71115656E-02 0.12500000E+03</pdfrwt>
<totfact> 0.73267081E+06</totfact>
</mgrwt>
</event>
<event>
 3    1  0.1628330E-001  0.1250000E+03  0.7546771E-02  0.1235069E+00
         21   -1    0    0  502  501  0.00000000000E+00  0.00000000000E+00  0.21607073163E+01  0.21607073163E+01  0.00000000000E+00 0.  1.
         21   -1    0    0  501  502 -0.00000000000E+00 -0.00000000000E+00 -0.18078570710E+04  0.18078570710E+04  0.00000000000E+00 0.  1.
         25    1    1    2    0    0  0.00000000000E+00  0.00000000000E+00 -0.18056963636E+04  0.18100177783E+04  0.12500000000E+03 0.  0.
<mgrwt>
<rscale>  0 0.12500000E+03</rscale>
<asrwt>0</asrwt>
<pdfrwt beam="1">  1       21 0.33241568E-03 0.12500000E+03</pdfrwt>
<pdfrwt beam="2">  1       21 0.27813255E+00 0.12500000E+03</pdfrwt>
<totfact> 0.99550615E+05</totfact>
</mgrwt>
</event>
<event>
 3    1  0.1628330E-001  0.1250000E+03  0.7546771E-02  0.1235069E+00
         21   -1    0    0  502  501  0.00000000000E+00  0.00000000000E+00  0.14507966855E+02  0.14507966855E+02  0.00000000000E+00 0. -1.
         21   -1    0    0  501  502 -0.00000000000E+00 -0.00000000000E+00 -0.26924861623E+03  0.26924861623E+03  0.00000000000E+00 0. -1.
         25    1    1    2    0    0  0.00000000000E+00  0.00000000000E+00 -0.25474064937E+03  0.28375658308E+03  0.12500000000E+03 0.  0.
<mgrwt>
<rscale>  0 0.12500000E+03</rscale>
<asrwt>0</asrwt>
<pdfrwt beam="1">  1       21 0.22319948E-02 0.12500000E+03</pdfrwt>
<pdfrwt beam="2">  1       21 0.41422866E-01 0.12500000E+03</pdfrwt>
<totfact> 0.56833670E+06</totfact>
</mgrwt>
</event>
<event>
 3    1  0.1628330E-001  0.1250000E+03  0.7546771E-02  0.1235069E+00
         21   -1    0    0  502  501  0.00000000000E+00  0.00000000000E+00  0.39841083439E+02  0.39841083439E+02  0.00000000000E+00 0.  1.
         21   -1    0    0  501  502 -0.00000000000E+00 -0.00000000000E+00 -0.98045777445E+02  0.98045777445E+02  0.00000000000E+00 0.  1.
         25    1    1    2    0    0  0.00000000000E+00  0.00000000000E+00 -0.58204694006E+02  0.13788686088E+03  0.12500000000E+03 0.  0.
<mgrwt>
<rscale>  0 0.12500000E+03</rscale>
<asrwt>0</asrwt>
<pdfrwt beam="1">  1       21 0.61293975E-02 0.12500000E+03</pdfrwt>
<pdfrwt beam="2">  1       21 0.15083966E-01 0.12500000E+03</pdfrwt>
<totfact> 0.72316389E+06</totfact>
</mgrwt>
</event>
<event>
 3    1  0.1628330E-001  0.1250000E+03  0.7546771E-02  0.1235069E+00
         21   -1    0    0  502  501  0.00000000000E+00  0.00000000000E+00  0.10133456396E+02  0.10133456396E+02  0.00000000000E+00 0. -1.
         21   -1    0    0  501  502 -0.00000000000E+00 -0.00000000000E+00 -0.38548051597E+03  0.38548051597E+03  0.00000000000E+00 0. -1.
         25    1    1    2    0    0  0.00000000000E+00  0.00000000000E+00 -0.37534705958E+03  0.39561397237E+03  0.12500000000E+03 0.  0.
<mgrwt>
<rscale>  0 0.12500000E+03</rscale>
<asrwt>0</asrwt>
<pdfrwt beam="1">  1       21 0.15589934E-02 0.12500000E+03</pdfrwt>
<pdfrwt beam="2">  1       21 0.59304690E-01 0.12500000E+03</pdfrwt>
<totfact> 0.48333640E+06</totfact>
</mgrwt>
</event>
<event>
 3    1  0.1628330E-001  0.1250000E+03  0.7546771E-02  0.1235069E+00
         21   -1    0    0  502  501  0.00000000000E+00  0.00000000000E+00  0.18298463494E+03  0.18298463494E+03  0.00000000000E+00 0. -1.
         21   -1    0    0  501  502 -0.00000000000E+00 -0.00000000000E+00 -0.21347420789E+02  0.21347420789E+02  0.00000000000E+00 0. -1.
         25    1    1    2    0    0  0.00000000000E+00  0.00000000000E+00  0.16163721415E+03  0.20433205573E+03  0.12500000000E+03 0.  0.
<mgrwt>
<rscale>  0 0.12500000E+03</rscale>
<asrwt>0</asrwt>
<pdfrwt beam="1">  1       21 0.28151481E-01 0.12500000E+03</pdfrwt>
<pdfrwt beam="2">  1       21 0.32842187E-02 0.12500000E+03</pdfrwt>
<totfact> 0.64460847E+06</totfact>
</mgrwt>
</event>
<event>
 3    1  0.1628330E-001  0.1250000E+03  0.7546771E-02  0.1235069E+00
         21   -1    0    0  502  501  0.00000000000E+00  0.00000000000E+00  0.91288853842E+01  0.91288853842E+01  0.00000000000E+00 0.  1.
         21   -1    0    0  501  502 -0.00000000000E+00 -0.00000000000E+00 -0.42789999388E+03  0.42789999388E+03  0.00000000000E+00 0.  1.
         25    1    1    2    0    0  0.00000000000E+00  0.00000000000E+00 -0.41877110849E+03  0.43702887926E+03  0.12500000000E+03 0.  0.
<mgrwt>
<rscale>  0 0.12500000E+03</rscale>
<asrwt>0</asrwt>
<pdfrwt beam="1">  1       21 0.14044441E-02 0.12500000E+03</pdfrwt>
<pdfrwt beam="2">  1       21 0.65830760E-01 0.12500000E+03</pdfrwt>
<totfact> 0.45678480E+06</totfact>
</mgrwt>
</event>
<event>
 3    1  0.1628330E-001  0.1250000E+03  0.7546771E-02  0.1235069E+00
         21   -1    0    0  502  501  0.00000000000E+00  0.00000000000E+00  0.29966760264E+02  0.29966760264E+02  0.00000000000E+00 0. -1.
         21   -1    0    0  501  502 -0.00000000000E+00 -0.00000000000E+00 -0.13035276305E+03  0.13035276305E+03  0.00000000000E+00 0. -1.
         25    1    1    2    0    0  0.00000000000E+00  0.00000000000E+00 -0.10038600278E+03  0.16031952331E+03  0.12500000000E+03 0.  0.
<mgrwt>
<rscale>  0 0.12500000E+03</rscale>
<asrwt>0</asrwt>
<pdfrwt beam="1">  1       21 0.46102708E-02 0.12500000E+03</pdfrwt>
<pdfrwt beam="2">  1       21 0.20054271E-01 0.12500000E+03</pdfrwt>
<totfact> 0.69480474E+06</totfact>
</mgrwt>
</event>
<event>
 3    1  0.1628330E-001  0.1250000E+03  0.7546771E-02  0.1235069E+00
         21   -1    0    0  502  501  0.00000000000E+00  0.00000000000E+00  0.25462482378E+03  0.25462482378E+03  0.00000000000E+00 0.  1.
         21   -1    0    0  501  502 -0.00000000000E+00 -0.00000000000E+00 -0.15341198639E+02  0.15341198639E+02  0.00000000000E+00 0.  1.
         25    1    1    2    0    0  0.00000000000E+00  0.00000000000E+00  0.23928362514E+03  0.26996602242E+03  0.12500000000E+03 0.  0.
<mgrwt>
<rscale>  0 0.12500000E+03</rscale>
<asrwt>0</asrwt>
<pdfrwt beam="1">  1       21 0.39173047E-01 0.12500000E+03</pdfrwt>
<pdfrwt beam="2">  1       21 0.23601846E-02 0.12500000E+03</pdfrwt>
<totfact> 0.58047699E+06</totfact>
</mgrwt>
</event>
<event>
 3    1  0.1628330E-001  0.1250000E+03  0.7546771E-02  0.1235069E+00
         21   -1    0    0  502  501  0.00000000000E+00  0.00000000000E+00  0.16405306869E+02  0.16405306869E+02  0.00000000000E+00 0.  1.
         21   -1    0    0  501  502 -0.00000000000E+00 -0.00000000000E+00 -0.23810892604E+03  0.23810892604E+03  0.00000000000E+00 0.  1.
         25    1    1    2    0    0  0.00000000000E+00  0.00000000000E+00 -0.22170361917E+03  0.25451423291E+03  0.12500000000E+03 0.  0.
<mgrwt>
<rscale>  0 0.12500000E+03</rscale>
<asrwt>0</asrwt>
<pdfrwt beam="1">  1       21 0.25238935E-02 0.12500000E+03</pdfrwt>
<pdfrwt beam="2">  1       21 0.36632141E-01 0.12500000E+03</pdfrwt>
<totfact> 0.59455766E+06</totfact>
</mgrwt>
</event>
<event>
 3    1  0.1628330E-001  0.1250000E+03  0.7546771E-02  0.1235069E+00
         21   -1    0    0  502  501  0.00000000000E+00  0.00000000000E+00  0.62053621835E+02  0.62053621835E+02  0.00000000000E+00 0. -1.
         21   -1    0    0  501  502 -0.00000000000E+00 -0.00000000000E+00 -0.62949589153E+02  0.62949589153E+02  0.00000000000E+00 0. -1.
         25    1    1    2    0    0  0.00000000000E+00  0.00000000000E+00 -0.89596731753E+00  0.12500321099E+03  0.12500000000E+03 0.  0.
<mgrwt>
<rscale>  0 0.12500000E+03</rscale>
<asrwt>0</asrwt>
<pdfrwt beam="1">  1       21 0.95467110E-02 0.12500000E+03</pdfrwt>
<pdfrwt beam="2">  1       21 0.96845523E-02 0.12500000E+03</pdfrwt>
<totfact> 0.74043148E+06</totfact>
</mgrwt>
</event>
<event>
 3    1  0.1628330E-001  0.1250000E+03  0.7546771E-02  0.1235069E+00
         21   -1    0    0  502  501  0.00000000000E+00  0.00000000000E+00  0.52548757301E+01  0.52548757301E+01  0.00000000000E+00 0.  1.
         21   -1    0    0  501  502 -0.00000000000E+00 -0.00000000000E+00 -0.74335725536E+03  0.74335725536E+03  0.00000000000E+00 0.  1.
         25    1    1    2    0    0  0.00000000000E+00  0.00000000000E+00 -0.73810237963E+03  0.74861213109E+03  0.12500000000E+03 0.  0.
<mgrwt>
<rscale>  0 0.12500000E+03</rscale>
<asrwt>0</asrwt>
<pdfrwt beam="1">  1       21 0.80844277E-03 0.12500000E+03</pdfrwt>
<pdfrwt beam="2">  1       21 0.11436261E+00 0.12500000E+03</pdfrwt>
<totfact> 0.31117743E+06</totfact>
</mgrwt>
</event>
<event>
 3    1  0.1628330E-001  0.1250000E+03  0.7546771E-02  0.1235069E+00
         21   -1    0    0  502  501  0.00000000000E+00  0.00000000000E+00  0.65031248101E+02  0.65031248101E+02  0.00000000000E+00 0.  1.
         21   -1    0    0  501  502 -0.00000000000E+00 -0.00000000000E+00 -0.60067277103E+02  0.60067277103E+02  0.00000000000E+00 0.  1.
         25    1    1    2    0    0  0.00000000000E+00  0.00000000000E+00  0.49639709979E+01  0.12509852520E+03  0.12500000000E+03 0.  0.
<mgrwt>
<rscale>  0 0.12500000E+03</rscale>
<asrwt>0</asrwt>
<pdfrwt beam="1">  1       21 0.10004807E-01 0.12500000E+03</pdfrwt>
<pdfrwt beam="2">  1       21 0.92411195E-02 0.12500000E+03</pdfrwt>
<totfact> 0.74030274E+06</totfact>
</mgrwt>
</event>
<event>
 3    1  0.1628330E-001  0.1250000E+03  0.7546771E-02  0.1235069E+00
         21   -1    0    0  502  501  0.00000000000E+00  0.00000000000E+00  0.89549729059E+03  0.89549729059E+03  0.00000000000E+00 0.  1.
         21   -1    0    0  501  502 -0.00000000000E+00 -0.00000000000E+00 -0.43621014168E+01  0.43621014168E+01  0.00000000000E+00 0.  1.
         25    1    1    2    0    0  0.00000000000E+00  0.00000000000E+00  0.89113518918E+03  0.89985939201E+03  0.12500000000E+03 0.  0.
<mgrwt>
<rscale>  0 0.12500000E+03</rscale>
<asrwt>0</asrwt>
<pdfrwt beam="1">  1       21 0.13776867E+00 0.12500000E+03</pdfrwt>
<pdfrwt beam="2">  1       21 0.67109324E-03 0.12500000E+03</pdfrwt>
<totfact> 0.26303182E+06</totfact>
</mgrwt>
</event>
<event>
 3    1  0.1628330E-001  0.1250000E+03  0.7546771E-02  0.1235069E+00
         21   -1    0    0  502  501  0.00000000000E+00  0.00000000000E+00  0.44899403262E+02  0.44899403262E+02  0.00000000000E+00 0.  1.
         21   -1    0    0  501  502 -0.00000000000E+00 -0.00000000000E+00 -0.87000042678E+02  0.87000042678E+02  0.00000000000E+00 0.  1.
         25    1    1    2    0    0  0.00000000000E+00  0.00000000000E+00 -0.42100639416E+02  0.13189944594E+03  0.12500000000E+03 0.  0.
<mgrwt>
<rscale>  0 0.12500000E+03</rscale>
<asrwt>0</asrwt>
<pdfrwt beam="1">  1       21 0.69076006E-02 0.12500000E+03</pdfrwt>
<pdfrwt beam="2">  1       21 0.13384622E-01 0.12500000E+03</pdfrwt>
<totfact> 0.73109719E+06</totfact>
</mgrwt>
</event>
<event>
 3    1  0.1628330E-001  0.1250000E+03  0.7546771E-02  0.1235069E+00
         21   -1    0    0  502  501  0.00000000000E+00  0.00000000000E+00  0.65737859596E+02  0.65737859596E+02  0.00000000000E+00 0.  1.
         21   -1    0    0  501  502 -0.00000000000E+00 -0.00000000000E+00 -0.59421618288E+02  0.59421618288E+02  0.00000000000E+00 0.  1.
         25    1    1    2    0    0  0.00000000000E+00  0.00000000000E+00  0.63162413077E+01  0.12515947788E+03  0.12500000000E+03 0.  0.
<mgrwt>
<rscale>  0 0.12500000E+03</rscale>
<asrwt>0</asrwt>
<pdfrwt beam="1">  1       21 0.10113517E-01 0.12500000E+03</pdfrwt>
<pdfrwt beam="2">  1       21 0.91417874E-02 0.12500000E+03</pdfrwt>
<totfact> 0.74022043E+06</totfact>
</mgrwt>
</event>
<event>
 3    1  0.1628330E-001  0.1250000E+03  0.7546771E-02  0.1235069E+00
         21   -1    0    0  502  501  0.00000000000E+00  0.00000000000E+00  0.12401110911E+03  0.12401110911E+03  0.00000000000E+00 0. -1.
         21   -1    0    0  501  502 -0.00000000000E+00 -0.00000000000E+00 -0.31499194130E+02  0.31499194130E+02  0.00000000000E+00 0. -1.
         25    1    1    2    0    0  0.00000000000E+00  0.00000000000E+00  0.92511914977E+02  0.15551030324E+03  0.12500000000E+03 0.  0.
<mgrwt>
<rscale>  0 0.12500000E+03</rscale>
<asrwt>0</asrwt>
<pdfrwt beam="1">  1       21 0.19078632E-01 0.12500000E+03</pdfrwt>
<pdfrwt beam="2">  1       21 0.48460299E-02 0.12500000E+03</pdfrwt>
<totfact> 0.70072290E+06</totfact>
</mgrwt>
</event>
<event>
 3    1  0.1628330E-001  0.1250000E+03  0.7546771E-02  0.1235069E+00
         21   -1    0    0  502  501  0.00000000000E+00  0.00000000000E+00  0.33720691389E+03  0.33720691389E+03  0.00000000000E+00 0.  1.
         21   -1    0    0  501  502 -0.00000000000E+00 -0.00000000000E+00 -0.11584133774E+02  0.11584133774E+02  0.00000000000E+00 0.  1.
         25    1    1    2    0    0  0.00000000000E+00  0.00000000000E+00  0.32562278011E+03  0.34879104766E+03  0.12500000000E+03 0.  0.
<mgrwt>
<rscale>  0 0.12500000E+03</rscale>
<asrwt>0</asrwt>
<pdfrwt beam="1">  1       21 0.51877979E-01 0.12500000E+03</pdfrwt>
<pdfrwt beam="2">  1       21 0.17821747E-02 0.12500000E+03</pdfrwt>
<totfact> 0.51627843E+06</totfact>
</mgrwt>
</event>
<event>
 3    1  0.1628330E-001  0.1250000E+03  0.7546771E-02  0.1235069E+00
         21   -1    0    0  502  501  0.00000000000E+00  0.00000000000E+00  0.31839533961E+02  0.31839533961E+02  0.00000000000E+00 0. -1.
         21   -1    0    0  501  502 -0.00000000000E+00 -0.00000000000E+00 -0.12268552689E+03  0.12268552689E+03  0.00000000000E+00 0. -1.
         25    1    1    2    0    0  0.00000000000E+00  0.00000000000E+00 -0.90845992931E+02  0.15452506085E+03  0.12500000000E+03 0.  0.
<mgrwt>
<rscale>  0 0.12500000E+03</rscale>
<asrwt>0</asrwt>
<pdfrwt beam="1">  1       21 0.48983898E-02 0.12500000E+03</pdfrwt>
<pdfrwt beam="2">  1       21 0.18874697E-01 0.12500000E+03</pdfrwt>
<totfact> 0.70194735E+06</totfact>
</mgrwt>
</event>
<event>
 3    1  0.1628330E-001  0.1250000E+03  0.7546771E-02  0.1235069E+00
         21   -1    0    0  502  501  0.00000000000E+00  0.00000000000E+00  0.26132436976E+01  0.26132436976E+01  0.00000000000E+00 0.  1.
         21   -1    0    0  501  502 -0.00000000000E+00 -0.00000000000E+00 -0.14947897908E+04  0.14947897908E+04  0.00000000000E+00 0.  1.
         25    1    1    2    0    0  0.00000000000E+00  0.00000000000E+00 -0.14921765471E+04  0.14974030345E+04  0.12500000000E+03 0.  0.
<mgrwt>
<rscale>  0 0.12500000E+03</rscale>
<asrwt>0</asrwt>
<pdfrwt beam="1">  1       21 0.40203708E-03 0.12500000E+03</pdfrwt>
<pdfrwt beam="2">  1       21 0.22996790E+00 0.12500000E+03</pdfrwt>
<totfact> 0.14031651E+06</totfact>
</mgrwt>
</event>
<event>
 3    1  0.1628330E-001  0.1250000E+03  0.7546771E-02  0.1235069E+00
         21   -1    0    0  502  501  0.00000000000E+00  0.00000000000E+00  0.90795072117E+03  0.90795072117E+03  0.00000000000E+00 0.  1.
         21   -1    0    0  501  502 -0.00000000000E+00 -0.00000000000E+00 -0.43022709371E+01  0.43022709371E+01  0.00000000000E+00 0.  1.
         25    1    1    2    0    0  0.00000000000E+00  0.00000000000E+00  0.90364845023E+03  0.91225299210E+03  0.12500000000E+03 0.  0.
<mgrwt>
<rscale>  0 0.12500000E+03</rscale>
<asrwt>0</asrwt>
<pdfrwt beam="1">  1       21 0.13968457E+00 0.12500000E+03</pdfrwt>
<pdfrwt beam="2">  1       21 0.66188856E-03 0.12500000E+03</pdfrwt>
<totfact> 0.25949887E+06</totfact>
</mgrwt>
</event>
<event>
 3    1  0.1628330E-001  0.1250000E+03  0.7546771E-02  0.1235069E+00
         21   -1    0    0  502  501  0.00000000000E+00  0.00000000000E+00  0.26538549655E+02  0.26538549655E+02  0.00000000000E+00 0. -1.
         21   -1    0    0  501  502 -0.00000000000E+00 -0.00000000000E+00 -0.14719154026E+03  0.14719154026E+03  0.00000000000E+00 0. -1.
         25    1    1    2    0    0  0.00000000000E+00  0.00000000000E+00 -0.12065299061E+03  0.17373008992E+03  0.12500000000E+03 0.  0.
<mgrwt>
<rscale>  0 0.12500000E+03</rscale>
<asrwt>0</asrwt>
<pdfrwt beam="1">  1       21 0.40828537E-02 0.12500000E+03</pdfrwt>
<pdfrwt beam="2">  1       21 0.22644853E-01 0.12500000E+03</pdfrwt>
<totfact> 0.67878182E+06</totfact>
</mgrwt>
</event>
<event>
 3    1  0.1628330E-001  0.1250000E+03  0.7546771E-02  0.1235069E+00
         21   -1    0    0  502  501  0.00000000000E+00  0.00000000000E+00  0.15914108414E+03  0.15914108414E+03  0.00000000000E+00 0.  1.
         21   -1    0    0  501  502 -0.00000000000E+00 -0.00000000000E+00 -0.24545830017E+02  0.24545830017E+02  0.00000000000E+00 0.  1.
         25    1    1    2    0    0  0.00000000000E+00  0.00000000000E+00  0.13459525412E+03  0.18368691415E+03  0.12500000000E+03 0.  0.
<mgrwt>
<rscale>  0 0.12500000E+03</rscale>
<asrwt>0</asrwt>
<pdfrwt beam="1">  1       21 0.24483243E-01 0.12500000E+03</pdfrwt>
<pdfrwt beam="2">  1       21 0.37762816E-02 0.12500000E+03</pdfrwt>
<totfact> 0.66731082E+06</totfact>
</mgrwt>
</event>
<event>
 3    1  0.1628330E-001  0.1250000E+03  0.7546771E-02  0.1235069E+00
         21   -1    0    0  502  501  0.00000000000E+00  0.00000000000E+00  0.40788377177E+01  0.40788377177E+01  0.00000000000E+00 0.  1.
         21   -1    0    0  501  502 -0.00000000000E+00 -0.00000000000E+00 -0.95768703497E+03  0.95768703497E+03  0.00000000000E+00 0.  1.
         25    1    1    2    0    0  0.00000000000E+00  0.00000000000E+00 -0.95360819725E+03  0.96176587268E+03  0.12500000000E+03 0.  0.
<mgrwt>
<rscale>  0 0.12500000E+03</rscale>
<asrwt>0</asrwt>
<pdfrwt beam="1">  1       21 0.62751304E-03 0.12500000E+03</pdfrwt>
<pdfrwt beam="2">  1       21 0.14733657E+00 0.12500000E+03</pdfrwt>
<totfact> 0.24598994E+06</totfact>
</mgrwt>
</event>
<event>
 3    1  0.1628330E-001  0.1250000E+03  0.7546771E-02  0.1235069E+00
         21   -1    0    0  502  501  0.00000000000E+00  0.00000000000E+00  0.31429569252E+02  0.31429569252E+02  0.00000000000E+00 0. -1.
         21   -1    0    0  501  502 -0.00000000000E+00 -0.00000000000E+00 -0.12428582679E+03  0.12428582679E+03  0.00000000000E+00 0. -1.
         25    1    1    2    0    0  0.00000000000E+00  0.00000000000E+00 -0.92856257534E+02  0.15571539604E+03  0.12500000000E+03 0.  0.
<mgrwt>
<rscale>  0 0.12500000E+03</rscale>
<asrwt>0</asrwt>
<pdfrwt beam="1">  1       21 0.48353183E-02 0.12500000E+03</pdfrwt>
<pdfrwt beam="2">  1       21 0.19120897E-01 0.12500000E+03</pdfrwt>
<totfact> 0.70046853E+06</totfact>
</mgrwt>
</event>
<event>
 3    1  0.1628330E-001  0.1250000E+03  0.7546771E-02  0.1235069E+00
         21   -1    0    0  502  501  0.00000000000E+00  0.00000000000E+00  0.16730667072E+02  0.16730667072E+02  0.00000000000E+00 0. -1.
         21   -1    0    0  501  502 -0.00000000000E+00 -0.00000000000E+00 -0.23347843712E+03  0.23347843712E+03  0.00000000000E+00 0. -1.
         25    1    1    2    0    0  0.00000000000E+00  0.00000000000E+00 -0.21674777004E+03  0.25020910419E+03  0.12500000000E+03 0.  0.
<mgrwt>
<rscale>  0 0.12500000E+03</rscale>
<asrwt>0</asrwt>
<pdfrwt beam="1">  1       21 0.25739489E-02 0.12500000E+03</pdfrwt>
<pdfrwt beam="2">  1       21 0.35919758E-01 0.12500000E+03</pdfrwt>
<totfact> 0.59858508E+06</totfact>
</mgrwt>
</event>
<event>
 3    1  0.1628330E-001  0.1250000E+03  0.7546771E-02  0.1235069E+00
         21   -1    0    0  502  501  0.00000000000E+00  0.00000000000E+00  0.16208605904E+02  0.16208605904E+02  0.00000000000E+00 0. -1.
         21   -1    0    0  501  502 -0.00000000000E+00 -0.00000000000E+00 -0.24099851790E+03  0.24099851790E+03  0.00000000000E+00 0. -1.
         25    1    1    2    0    0  0.00000000000E+00  0.00000000000E+00 -0.22478991199E+03  0.25720712380E+03  0.12500000000E+03 0.  0.
<mgrwt>
<rscale>  0 0.12500000E+03</rscale>
<asrwt>0</asrwt>
<pdfrwt beam="1">  1       21 0.24936317E-02 0.12500000E+03</pdfrwt>
<pdfrwt beam="2">  1       21 0.37076694E-01 0.12500000E+03</pdfrwt>
<totfact> 0.59206207E+06</totfact>
</mgrwt>
</event>
<event>
 3    1  0.1628330E-001  0.1250000E+03  0.7546771E-02  0.1235069E+00
         21   -1    0    0  502  501  0.00000000000E+00  0.00000000000E+00  0.38361904413E+03  0.38361904413E+03  0.00000000000E+00 0.  1.
         21   -1    0    0  501  502 -0.00000000000E+00 -0.00000000000E+00 -0.10182627948E+02  0.10182627948E+02  0.00000000000E+00 0.  1.
         25    1    1    2    0    0  0.00000000000E+00  0.00000000000E+00  0.37343641618E+03  0.39380167208E+03  0.12500000000E+03 0.  0.
<mgrwt>
<rscale>  0 0.12500000E+03</rscale>
<asrwt>0</asrwt>
<pdfrwt beam="1">  1       21 0.59018304E-01 0.12500000E+03</pdfrwt>
<pdfrwt beam="2">  1       21 0.15665584E-02 0.12500000E+03</pdfrwt>
<totfact> 0.48455219E+06</totfact>
</mgrwt>
</event>
<event>
 3    1  0.1628330E-001  0.1250000E+03  0.7546771E-02  0.1235069E+00
         21   -1    0    0  502  501  0.00000000000E+00  0.00000000000E+00  0.25781313245E+03  0.25781313245E+03  0.00000000000E+00 0.  1.
         21   -1    0    0  501  502 -0.00000000000E+00 -0.00000000000E+00 -0.15151477983E+02  0.15151477983E+02  0.00000000000E+00 0.  1.
         25    1    1    2    0    0  0.00000000000E+00  0.00000000000E+00  0.24266165447E+03  0.27296461044E+03  0.12500000000E+03 0.  0.
<mgrwt>
<rscale>  0 0.12500000E+03</rscale>
<asrwt>0</asrwt>
<pdfrwt beam="1">  1       21 0.39663556E-01 0.12500000E+03</pdfrwt>
<pdfrwt beam="2">  1       21 0.23309968E-02 0.12500000E+03</pdfrwt>
<totfact> 0.57780515E+06</totfact>
</mgrwt>
</event>
<event>
 3    1  0.1628330E-001  0.1250000E+03  0.7546771E-02  0.1235069E+00
         21   -1    0    0  502  501  0.00000000000E+00  0.00000000000E+00  0.37553292239E+01  0.37553292239E+01  0.00000000000E+00 0. -1.
         21   -1    0    0  501  502 -0.00000000000E+00 -0.00000000000E+00 -0.10401884275E+04  0.10401884275E+04  0.00000000000E+00 0. -1.
         25    1    1    2    0    0  0.00000000000E+00  0.00000000000E+00 -0.10364330982E+04  0.10439437567E+04  0.12500000000E+03 0.  0.
<mgrwt>
<rscale>  0 0.12500000E+03</rscale>
<asrwt>0</asrwt>
<pdfrwt beam="1">  1       21 0.57774207E-03 0.12500000E+03</pdfrwt>
<pdfrwt beam="2">  1       21 0.16002924E+00 0.12500000E+03</pdfrwt>
<totfact> 0.22542998E+06</totfact>
</mgrwt>
</event>
<event>
 3    1  0.1628330E-001  0.1250000E+03  0.7546771E-02  0.1235069E+00
         21   -1    0    0  502  501  0.00000000000E+00  0.00000000000E+00  0.12614629826E+03  0.12614629826E+03  0.00000000000E+00 0.  1.
         21   -1    0    0  501  502 -0.00000000000E+00 -0.00000000000E+00 -0.30966029553E+02  0.30966029553E+02  0.00000000000E+00 0.  1.
         25    1    1    2    0    0  0.00000000000E+00  0.00000000000E+00  0.95180268712E+02  0.15711232782E+03  0.12500000000E+03 0.  0.
<mgrwt>
<rscale>  0 0.12500000E+03</rscale>
<asrwt>0</asrwt>
<pdfrwt beam="1">  1       21 0.19407123E-01 0.12500000E+03</pdfrwt>
<pdfrwt beam="2">  1       21 0.47640046E-02 0.12500000E+03</pdfrwt>
<totfact> 0.69874071E+06</totfact>
</mgrwt>
</event>
<event>
 3    1  0.1628330E-001  0.1250000E+03  0.7546771E-02  0.1235069E+00
         21   -1    0    0  502  501  0.00000000000E+00  0.00000000000E+00  0.71568337678E+01  0.71568337678E+01  0.00000000000E+00 0.  1.
         21   -1    0    0  501  502 -0.00000000000E+00 -0.00000000000E+00 -0.54580700443E+03  0.54580700443E+03  0.00000000000E+00 0.  1.
         25    1    1    2    0    0  0.00000000000E+00  0.00000000000E+00 -0.53865017066E+03  0.55296383820E+03  0.12500000000E+03 0.  0.
<mgrwt>
<rscale>  0 0.12500000E+03</rscale>
<asrwt>0</asrwt>
<pdfrwt beam="1">  1       21 0.11010510E-02 0.12500000E+03</pdfrwt>
<pdfrwt beam="2">  1       21 0.83970333E-01 0.12500000E+03</pdfrwt>
<totfact> 0.39310013E+06</totfact>
</mgrwt>
</event>
<event>
 3    1  0.1628330E-001  0.1250000E+03  0.7546771E-02  0.1235069E+00
         21   -1    0    0  502  501  0.00000000000E+00  0.00000000000E+00  0.77190850305E+01  0.77190850305E+01  0.00000000000E+00 0.  1.
         21   -1    0    0  501  502 -0.00000000000E+00 -0.00000000000E+00 -0.50605090948E+03  0.50605090948E+03  0.00000000000E+00 0.  1.
         25    1    1    2    0    0  0.00000000000E+00  0.00000000000E+00 -0.49833182445E+03  0.51376999451E+03  0.12500000000E+03 0.  0.
<mgrwt>
<rscale>  0 0.12500000E+03</rscale>
<asrwt>0</asrwt>
<pdfrwt beam="1">  1       21 0.11875514E-02 0.12500000E+03</pdfrwt>
<pdfrwt beam="2">  1       21 0.77853998E-01 0.12500000E+03</pdfrwt>
<totfact> 0.41307001E+06</totfact>
</mgrwt>
</event>
<event>
 3    1  0.1628330E-001  0.1250000E+03  0.7546771E-02  0.1235069E+00
         21   -1    0    0  502  501  0.00000000000E+00  0.00000000000E+00  0.41082007087E+03  0.41082007087E+03  0.00000000000E+00 0.  1.
         21   -1    0    0  501  502 -0.00000000000E+00 -0.00000000000E+00 -0.95084205396E+01  0.95084205396E+01  0.00000000000E+00 0.  1.
         25    1    1    2    0    0  0.00000000000E+00  0.00000000000E+00  0.40131165033E+03  0.42032849141E+03  0.12500000000E+03 0.  0.
<mgrwt>
<rscale>  0 0.12500000E+03</rscale>
<asrwt>0</asrwt>
<pdfrwt beam="1">  1       21 0.63203074E-01 0.12500000E+03</pdfrwt>
<pdfrwt beam="2">  1       21 0.14628342E-02 0.12500000E+03</pdfrwt>
<totfact> 0.46721585E+06</totfact>
</mgrwt>
</event>
<event>
 3    1  0.1628330E-001  0.1250000E+03  0.7546771E-02  0.1235069E+00
         21   -1    0    0  502  501  0.00000000000E+00  0.00000000000E+00  0.80060827676E+02  0.80060827676E+02  0.00000000000E+00 0. -1.
         21   -1    0    0  501  502 -0.00000000000E+00 -0.00000000000E+00 -0.48791026940E+02  0.48791026940E+02  0.00000000000E+00 0. -1.
         25    1    1    2    0    0  0.00000000000E+00  0.00000000000E+00  0.31269800735E+02  0.12885185462E+03  0.12500000000E+03 0.  0.
<mgrwt>
<rscale>  0 0.12500000E+03</rscale>
<asrwt>0</asrwt>
<pdfrwt beam="1">  1       21 0.12317050E-01 0.12500000E+03</pdfrwt>
<pdfrwt beam="2">  1       21 0.75063118E-02 0.12500000E+03</pdfrwt>
<totfact> 0.73518784E+06</totfact>
</mgrwt>
</event>
<event>
 3    1  0.1628330E-001  0.1250000E+03  0.7546771E-02  0.1235069E+00
         21   -1    0    0  502  501  0.00000000000E+00  0.00000000000E+00  0.13376341150E+03  0.13376341150E+03  0.00000000000E+00 0. -1.
         21   -1    0    0  501  502 -0.00000000000E+00 -0.00000000000E+00 -0.29202679239E+02  0.29202679239E+02  0.00000000000E+00 0. -1.
         25    1    1    2    0    0  0.00000000000E+00  0.00000000000E+00  0.10456073227E+03  0.16296609074E+03  0.12500000000E+03 0.  0.
<mgrwt>
<rscale>  0 0.12500000E+03</rscale>
<asrwt>0</asrwt>
<pdfrwt beam="1">  1       21 0.20578986E-01 0.12500000E+03</pdfrwt>
<pdfrwt beam="2">  1       21 0.44927200E-02 0.12500000E+03</pdfrwt>
<totfact> 0.69158876E+06</totfact>
</mgrwt>
</event>
<event>
 3    1  0.1628330E-001  0.1250000E+03  0.7546771E-02  0.1235069E+00
         21   -1    0    0  502  501  0.00000000000E+00  0.00000000000E+00  0.52685852624E+03  0.52685852624E+03  0.00000000000E+00 0.  1.
         21   -1    0    0  501  502 -0.00000000000E+00 -0.00000000000E+00 -0.74142294477E+01  0.74142294477E+01  0.00000000000E+00 0.  1.
         25    1    1    2    0    0  0.00000000000E+00  0.00000000000E+00  0.51944429679E+03  0.53427275569E+03  0.12500000000E+03 0.  0.
<mgrwt>
<rscale>  0 0.12500000E+03</rscale>
<asrwt>0</asrwt>
<pdfrwt beam="1">  1       21 0.81055129E-01 0.12500000E+03</pdfrwt>
<pdfrwt beam="2">  1       21 0.11406511E-02 0.12500000E+03</pdfrwt>
<totfact> 0.40244367E+06</totfact>
</mgrwt>
</event>
<event>
 3    1  0.1628330E-001  0.1250000E+03  0.7546771E-02  0.1235069E+00
         21   -1    0    0  502  501  0.00000000000E+00  0.00000000000E+00  0.57898221858E+01  0.57898221858E+01  0.00000000000E+00 0. -1.
         21   -1    0    0  501  502 -0.00000000000E+00 -0.00000000000E+00 -0.67467529652E+03  0.67467529652E+03  0.00000000000E+00 0. -1.
         25    1    1    2    0    0  0.00000000000E+00  0.00000000000E+00 -0.66888547433E+03  0.68046511870E+03  0.12500000000E+03 0.  0.
<mgrwt>
<rscale>  0 0.12500000E+03</rscale>
<asrwt>0</asrwt>
<pdfrwt beam="1">  1       21 0.89074180E-03 0.12500000E+03</pdfrwt>
<pdfrwt beam="2">  1       21 0.10379621E+00 0.12500000E+03</pdfrwt>
<totfact> 0.33676971E+06</totfact>
</mgrwt>
</event>
<event>
 3    1  0.1628330E-001  0.1250000E+03  0.7546771E-02  0.1235069E+00
         21   -1    0    0  502  501  0.00000000000E+00  0.00000000000E+00  0.40001583936E+02  0.40001583936E+02  0.00000000000E+00 0.  1.
         21   -1    0    0  501  502 -0.00000000000E+00 -0.00000000000E+00 -0.97652383121E+02  0.97652383121E+02  0.00000000000E+00 0.  1.
         25    1    1    2    0    0  0.00000000000E+00  0.00000000000E+00 -0.57650799184E+02  0.13765396706E+03  0.12500000000E+03 0.  0.
<mgrwt>
<rscale>  0 0.12500000E+03</rscale>
<asrwt>0</asrwt>
<pdfrwt beam="1">  1       21 0.61540899E-02 0.12500000E+03</pdfrwt>
<pdfrwt beam="2">  1       21 0.15023443E-01 0.12500000E+03</pdfrwt>
<totfact> 0.72346938E+06</totfact>
</mgrwt>
</event>
<event>
 3    1  0.1628330E-001  0.1250000E+03  0.7546771E-02  0.1235069E+00
         21   -1    0    0  502  501  0.00000000000E+00  0.00000000000E+00  0.69243010726E+02  0.69243010726E+02  0.00000000000E+00 0.  1.
         21   -1    0    0  501  502 -0.00000000000E+00 -0.00000000000E+00 -0.56413635962E+02  0.56413635962E+02  0.00000000000E+00 0.  1.
         25    1    1    2    0    0  0.00000000000E+00  0.00000000000E+00  0.12829374764E+02  0.12565664669E+03  0.12500000000E+03 0.  0.
<mgrwt>
<rscale>  0 0.12500000E+03</rscale>
<asrwt>0</asrwt>
<pdfrwt beam="1">  1       21 0.10652771E-01 0.12500000E+03</pdfrwt>
<pdfrwt beam="2">  1       21 0.86790209E-02 0.12500000E+03</pdfrwt>
<totfact> 0.73953560E+06</totfact>
</mgrwt>
</event>
<event>
 3    1  0.1628330E-001  0.1250000E+03  0.7546771E-02  0.1235069E+00
         21   -1    0    0  502  501  0.00000000000E+00  0.00000000000E+00  0.10710379992E+03  0.10710379992E+03  0.00000000000E+00 0. -1.
         21   -1    0    0  501  502 -0.00000000000E+00 -0.00000000000E+00 -0.36471628486E+02  0.36471628486E+02  0.00000000000E+00 0. -1.
         25    1    1    2    0    0  0.00000000000E+00  0.00000000000E+00  0.70632171433E+02  0.14357542840E+03  0.12500000000E+03 0.  0.
<mgrwt>
<rscale>  0 0.12500000E+03</rscale>
<asrwt>0</asrwt>
<pdfrwt beam="1">  1       21 0.16477508E-01 0.12500000E+03</pdfrwt>
<pdfrwt beam="2">  1       21 0.56110198E-02 0.12500000E+03</pdfrwt>
<totfact> 0.71575911E+06</totfact>
</mgrwt>
</event>
<event>
 3    1  0.1628330E-001  0.1250000E+03  0.7546771E-02  0.1235069E+00
         21   -1    0    0  502  501  0.00000000000E+00  0.00000000000E+00  0.73063182912E+01  0.73063182912E+01  0.00000000000E+00 0. -1.
         21   -1    0    0  501  502 -0.00000000000E+00 -0.00000000000E+00 -0.53463999847E+03  0.53463999847E+03  0.00000000000E+00 0. -1.
         25    1    1    2    0    0  0.00000000000E+00  0.00000000000E+00 -0.52733368017E+03  0.54194631676E+03  0.12500000000E+03 0.  0.
<mgrwt>
<rscale>  0 0.12500000E+03</rscale>
<asrwt>0</asrwt>
<pdfrwt beam="1">  1       21 0.11240489E-02 0.12500000E+03</pdfrwt>
<pdfrwt beam="2">  1       21 0.82252310E-01 0.12500000E+03</pdfrwt>
<totfact> 0.39856917E+06</totfact>
</mgrwt>
</event>
<event>
 3    1  0.1628330E-001  0.1250000E+03  0.7546771E-02  0.1235069E+00
         21   -1    0    0  502  501  0.00000000000E+00  0.00000000000E+00  0.54272210629E+02  0.54272210629E+02  0.00000000000E+00 0.  1.
         21   -1    0    0  501  502 -0.00000000000E+00 -0.00000000000E+00 -0.71975140771E+02  0.71975140771E+02  0.00000000000E+00 0.  1.
         25    1    1    2    0    0  0.00000000000E+00  0.00000000000E+00 -0.17702930142E+02  0.12624735140E+03  0.12500000000E+03 0.  0.
<mgrwt>
<rscale>  0 0.12500000E+03</rscale>
<asrwt>0</asrwt>
<pdfrwt beam="1">  1       21 0.83495709E-02 0.12500000E+03</pdfrwt>
<pdfrwt beam="2">  1       21 0.11073099E-01 0.12500000E+03</pdfrwt>
<totfact> 0.73872005E+06</totfact>
</mgrwt>
</event>
<event>
 3    1  0.1628330E-001  0.1250000E+03  0.7546771E-02  0.1235069E+00
         21   -1    0    0  502  501  0.00000000000E+00  0.00000000000E+00  0.46580093619E+02  0.46580093619E+02  0.00000000000E+00 0.  1.
         21   -1    0    0  501  502 -0.00000000000E+00 -0.00000000000E+00 -0.83860930636E+02  0.83860930636E+02  0.00000000000E+00 0.  1.
         25    1    1    2    0    0  0.00000000000E+00  0.00000000000E+00 -0.37280837017E+02  0.13044102425E+03  0.12500000000E+03 0.  0.
<mgrwt>
<rscale>  0 0.12500000E+03</rscale>
<asrwt>0</asrwt>
<pdfrwt beam="1">  1       21 0.71661683E-02 0.12500000E+03</pdfrwt>
<pdfrwt beam="2">  1       21 0.12901682E-01 0.12500000E+03</pdfrwt>
<totfact> 0.73306030E+06</totfact>
</mgrwt>
</event>
<event>
 3    1  0.1628330E-001  0.1250000E+03  0.7546771E-02  0.1235069E+00
         21   -1    0    0  502  501  0.00000000000E+00  0.00000000000E+00  0.66956351986E+02  0.66956351986E+02  0.00000000000E+00 0. -1.
         21   -1    0    0  501  502 -0.00000000000E+00 -0.00000000000E+00 -0.58340245311E+02  0.58340245311E+02  0.00000000000E+00 0. -1.
         25    1    1    2    0    0  0.00000000000E+00  0.00000000000E+00  0.86161066752E+01  0.12529659730E+03  0.12500000000E+03 0.  0.
<mgrwt>
<rscale>  0 0.12500000E+03</rscale>
<asrwt>0</asrwt>
<pdfrwt beam="1">  1       21 0.10300977E-01 0.12500000E+03</pdfrwt>
<pdfrwt beam="2">  1       21 0.89754223E-02 0.12500000E+03</pdfrwt>
<totfact> 0.74003531E+06</totfact>
</mgrwt>
</event>
<event>
 3    1  0.1628330E-001  0.1250000E+03  0.7546771E-02  0.1235069E+00
         21   -1    0    0  502  501  0.00000000000E+00  0.00000000000E+00  0.31322224070E+01  0.31322224070E+01  0.00000000000E+00 0.  1.
         21   -1    0    0  501  502 -0.00000000000E+00 -0.00000000000E+00 -0.12471176987E+04  0.12471176987E+04  0.00000000000E+00 0.  1.
         25    1    1    2    0    0  0.00000000000E+00  0.00000000000E+00 -0.12439854763E+04  0.12502499211E+04  0.12500000000E+03 0.  0.
<mgrwt>
<rscale>  0 0.12500000E+03</rscale>
<asrwt>0</asrwt>
<pdfrwt beam="1">  1       21 0.48188066E-03 0.12500000E+03</pdfrwt>
<pdfrwt beam="2">  1       21 0.19186415E+00 0.12500000E+03</pdfrwt>
<totfact> 0.18169876E+06</totfact>
</mgrwt>
</event>
<event>
 3    1  0.1628330E-001  0.1250000E+03  0.7546771E-02  0.1235069E+00
         21   -1    0    0  502  501  0.00000000000E+00  0.00000000000E+00  0.11873165452E+02  0.11873165452E+02  0.00000000000E+00 0.  1.
         21   -1    0    0  501  502 -0.00000000000E+00 -0.00000000000E+00 -0.32899819479E+03  0.32899819479E+03  0.00000000000E+00 0.  1.
         25    1    1    2    0    0  0.00000000000E+00  0.00000000000E+00 -0.31712502934E+03  0.34087136024E+03  0.12500000000E+03 0.  0.
<mgrwt>
<rscale>  0 0.12500000E+03</rscale>
<asrwt>0</asrwt>
<pdfrwt beam="1">  1       21 0.18266408E-02 0.12500000E+03</pdfrwt>
<pdfrwt beam="2">  1       21 0.50615107E-01 0.12500000E+03</pdfrwt>
<totfact> 0.52219755E+06</totfact>
</mgrwt>
</event>
<event>
 3    1  0.1628330E-001  0.1250000E+03  0.7546771E-02  0.1235069E+00
         21   -1    0    0  502  501  0.00000000000E+00  0.00000000000E+00  0.12060209546E+02  0.12060209546E+02  0.00000000000E+00 0. -1.
         21   -1    0    0  501  502 -0.00000000000E+00 -0.00000000000E+00 -0.32389569892E+03  0.32389569892E+03  0.00000000000E+00 0. -1.
         25    1    1    2    0    0  0.00000000000E+00  0.00000000000E+00 -0.31183548937E+03  0.33595590846E+03  0.12500000000E+03 0.  0.
<mgrwt>
<rscale>  0 0.12500000E+03</rscale>
<asrwt>0</asrwt>
<pdfrwt beam="1">  1       21 0.18554167E-02 0.12500000E+03</pdfrwt>
<pdfrwt beam="2">  1       21 0.49830111E-01 0.12500000E+03</pdfrwt>
<totfact> 0.52592652E+06</totfact>
</mgrwt>
</event>
<event>
 3    1  0.1628330E-001  0.1250000E+03  0.7546771E-02  0.1235069E+00
         21   -1    0    0  502  501  0.00000000000E+00  0.00000000000E+00  0.39447211399E+01  0.39447211399E+01  0.00000000000E+00 0.  1.
         21   -1    0    0  501  502 -0.00000000000E+00 -0.00000000000E+00 -0.99024743740E+03  0.99024743740E+03  0.00000000000E+00 0.  1.
         25    1    1    2    0    0  0.00000000000E+00  0.00000000000E+00 -0.98630271626E+03  0.99419215853E+03  0.12500000000E+03 0.  0.
<mgrwt>
<rscale>  0 0.12500000E+03</rscale>
<asrwt>0</asrwt>
<pdfrwt beam="1">  1       21 0.60687983E-03 0.12500000E+03</pdfrwt>
<pdfrwt beam="2">  1       21 0.15234585E+00 0.12500000E+03</pdfrwt>
<totfact> 0.23764302E+06</totfact>
</mgrwt>
</event>
<event>
 3    1  0.1628330E-001  0.1250000E+03  0.7546771E-02  0.1235069E+00
         21   -1    0    0  502  501  0.00000000000E+00  0.00000000000E+00  0.18963357740E+03  0.18963357740E+03  0.00000000000E+00 0.  1.
         21   -1    0    0  501  502 -0.00000000000E+00 -0.00000000000E+00 -0.20598936399E+02  0.20598936399E+02  0.00000000000E+00 0.  1.
         25    1    1    2    0    0  0.00000000000E+00  0.00000000000E+00  0.16903464100E+03  0.21023251380E+03  0.12500000000E+03 0.  0.
<mgrwt>
<rscale>  0 0.12500000E+03</rscale>
<asrwt>0</asrwt>
<pdfrwt beam="1">  1       21 0.29174395E-01 0.12500000E+03</pdfrwt>
<pdfrwt beam="2">  1       21 0.31690673E-02 0.12500000E+03</pdfrwt>
<totfact> 0.63835081E+06</totfact>
</mgrwt>
</event>
<event>
 3    1  0.1628330E-001  0.1250000E+03  0.7546771E-02  0.1235069E+00
         21   -1    0    0  502  501  0.00000000000E+00  0.00000000000E+00  0.63157094448E+01  0.63157094448E+01  0.00000000000E+00 0. -1.
         21   -1    0    0  501  502 -0.00000000000E+00 -0.00000000000E+00 -0.61849742046E+03  0.61849742046E+03  0.00000000000E+00 0. -1.
         25    1    1    2    0    0  0.00000000000E+00  0.00000000000E+00 -0.61218171102E+03  0.62481312991E+03  0.12500000000E+03 0.  0.
<mgrwt>
<rscale>  0 0.12500000E+03</rscale>
<asrwt>0</asrwt>
<pdfrwt beam="1">  1       21 0.97164737E-03 0.12500000E+03</pdfrwt>
<pdfrwt beam="2">  1       21 0.95153472E-01 0.12500000E+03</pdfrwt>
<totfact> 0.35993992E+06</totfact>
</mgrwt>
</event>
<event>
 3    1  0.1628330E-001  0.1250000E+03  0.7546771E-02  0.1235069E+00
         21   -1    0    0  502  501  0.00000000000E+00  0.00000000000E+00  0.14544584625E+04  0.14544584625E+04  0.00000000000E+00 0.  1.
         21   -1    0    0  501  502 -0.00000000000E+00 -0.00000000000E+00 -0.26857074991E+01  0.26857074991E+01  0.00000000000E+00 0.  1.
         25    1    1    2    0    0  0.00000000000E+00  0.00000000000E+00  0.14517727550E+04  0.14571441700E+04  0.12500000000E+03 0.  0.
<mgrwt>
<rscale>  0 0.12500000E+03</rscale>
<asrwt>0</asrwt>
<pdfrwt beam="1">  1       21 0.22376221E+00 0.12500000E+03</pdfrwt>
<pdfrwt beam="2">  1       21 0.41318693E-03 0.12500000E+03</pdfrwt>
<totfact> 0.14640376E+06</totfact>
</mgrwt>
</event>
<event>
 3    1  0.1628330E-001  0.1250000E+03  0.7546771E-02  0.1235069E+00
         21   -1    0    0  502  501  0.00000000000E+00  0.00000000000E+00  0.17183881396E+03  0.17183881396E+03  0.00000000000E+00 0.  1.
         21   -1    0    0  501  502 -0.00000000000E+00 -0.00000000000E+00 -0.22732058666E+02  0.22732058666E+02  0.00000000000E+00 0.  1.
         25    1    1    2    0    0  0.00000000000E+00  0.00000000000E+00  0.14910675529E+03  0.19457087262E+03  0.12500000000E+03 0.  0.
<mgrwt>
<rscale>  0 0.12500000E+03</rscale>
<asrwt>0</asrwt>
<pdfrwt beam="1">  1       21 0.26436740E-01 0.12500000E+03</pdfrwt>
<pdfrwt beam="2">  1       21 0.34972399E-02 0.12500000E+03</pdfrwt>
<totfact> 0.65518020E+06</totfact>
</mgrwt>
</event>
<event>
 3    1  0.1628330E-001  0.1250000E+03  0.7546771E-02  0.1235069E+00
         21   -1    0    0  502  501  0.00000000000E+00  0.00000000000E+00  0.84885453680E+02  0.84885453680E+02  0.00000000000E+00 0. -1.
         21   -1    0    0  501  502 -0.00000000000E+00 -0.00000000000E+00 -0.46017896243E+02  0.46017896243E+02  0.00000000000E+00 0. -1.
         25    1    1    2    0    0  0.00000000000E+00  0.00000000000E+00  0.38867557437E+02  0.13090334992E+03  0.12500000000E+03 0.  0.
<mgrwt>
<rscale>  0 0.12500000E+03</rscale>
<asrwt>0</asrwt>
<pdfrwt beam="1">  1       21 0.13059301E-01 0.12500000E+03</pdfrwt>
<pdfrwt beam="2">  1       21 0.70796763E-02 0.12500000E+03</pdfrwt>
<totfact> 0.73243699E+06</totfact>
</mgrwt>
</event>
<event>
 3    1  0.1628330E-001  0.1250000E+03  0.7546771E-02  0.1235069E+00
         21   -1    0    0  502  501  0.00000000000E+00  0.00000000000E+00  0.16874187031E+03  0.16874187031E+03  0.00000000000E+00 0. -1.
         21   -1    0    0  501  502 -0.00000000000E+00 -0.00000000000E+00 -0.23149263385E+02  0.23149263385E+02  0.00000000000E+00 0. -1.
         25    1    1    2    0    0  0.00000000000E+00  0.00000000000E+00  0.14559260693E+03  0.19189113370E+03  0.12500000000E+03 0.  0.
<mgrwt>
<rscale>  0 0.12500000E+03</rscale>
<asrwt>0</asrwt>
<pdfrwt beam="1">  1       21 0.25960287E-01 0.12500000E+03</pdfrwt>
<pdfrwt beam="2">  1       21 0.35614253E-02 0.12500000E+03</pdfrwt>
<totfact> 0.65812897E+06</totfact>
</mgrwt>
</event>
<event>
 3    1  0.1628330E-001  0.1250000E+03  0.7546771E-02  0.1235069E+00
         21   -1    0    0  502  501  0.00000000000E+00  0.00000000000E+00  0.10092435942E+03  0.10092435942E+03  0.00000000000E+00 0. -1.
         21   -1    0    0  501  502 -0.00000000000E+00 -0.00000000000E+00 -0.38704729190E+02  0.38704729190E+02  0.00000000000E+00 0. -1.
         25    1    1    2    0    0  0.00000000000E+00  0.00000000000E+00  0.62219630228E+02  0.13962908861E+03  0.12500000000E+03 0.  0.
<mgrwt>
<rscale>  0 0.12500000E+03</rscale>
<asrwt>0</asrwt>
<pdfrwt beam="1">  1       21 0.15526824E-01 0.12500000E+03</pdfrwt>
<pdfrwt beam="2">  1       21 0.59545738E-02 0.12500000E+03</pdfrwt>
<totfact> 0.72087767E+06</totfact>
</mgrwt>
</event>
<event>
 3    1  0.1628330E-001  0.1250000E+03  0.7546771E-02  0.1235069E+00
         21   -1    0    0  502  501  0.00000000000E+00  0.00000000000E+00  0.21576713151E+02  0.21576713151E+02  0.00000000000E+00 0.  1.
         21   -1    0    0  501  502 -0.00000000000E+00 -0.00000000000E+00 -0.18104008579E+03  0.18104008579E+03  0.00000000000E+00 0.  1.
         25    1    1    2    0    0  0.00000000000E+00  0.00000000000E+00 -0.15946337264E+03  0.20261679894E+03  0.12500000000E+03 0.  0.
<mgrwt>
<rscale>  0 0.12500000E+03</rscale>
<asrwt>0</asrwt>
<pdfrwt beam="1">  1       21 0.33194943E-02 0.12500000E+03</pdfrwt>
<pdfrwt beam="2">  1       21 0.27852321E-01 0.12500000E+03</pdfrwt>
<totfact> 0.64644803E+06</totfact>
</mgrwt>
</event>
<event>
 3    1  0.1628330E-001  0.1250000E+03  0.7546771E-02  0.1235069E+00
         21   -1    0    0  502  501  0.00000000000E+00  0.00000000000E+00  0.72497004877E+03  0.72497004877E+03  0.00000000000E+00 0.  1.
         21   -1    0    0  501  502 -0.00000000000E+00 -0.00000000000E+00 -0.53881536301E+01  0.53881536301E+01  0.00000000000E+00 0.  1.
         25    1    1    2    0    0  0.00000000000E+00  0.00000000000E+00  0.71958189514E+03  0.73035820240E+03  0.12500000000E+03 0.  0.
<mgrwt>
<rscale>  0 0.12500000E+03</rscale>
<asrwt>0</asrwt>
<pdfrwt beam="1">  1       21 0.11153378E+00 0.12500000E+03</pdfrwt>
<pdfrwt beam="2">  1       21 0.82894729E-03 0.12500000E+03</pdfrwt>
<totfact> 0.31772074E+06</totfact>
</mgrwt>
</event>
<event>
 3    1  0.1628330E-001  0.1250000E+03  0.7546771E-02  0.1235069E+00
         21   -1    0    0  502  501  0.00000000000E+00  0.00000000000E+00  0.14346014015E+02  0.14346014015E+02  0.00000000000E+00 0.  1.
         21   -1    0    0  501  502 -0.00000000000E+00 -0.00000000000E+00 -0.27228817677E+03  0.27228817677E+03  0.00000000000E+00 0.  1.
         25    1    1    2    0    0  0.00000000000E+00  0.00000000000E+00 -0.25794216275E+03  0.28663419078E+03  0.12500000000E+03 0.  0.
<mgrwt>
<rscale>  0 0.12500000E+03</rscale>
<asrwt>0</asrwt>
<pdfrwt beam="1">  1       21 0.22070792E-02 0.12500000E+03</pdfrwt>
<pdfrwt beam="2">  1       21 0.41890487E-01 0.12500000E+03</pdfrwt>
<totfact> 0.56585544E+06</totfact>
</mgrwt>
</event>
<event>
 3    1  0.1628330E-001  0.1250000E+03  0.7546771E-02  0.1235069E+00
         21   -1    0    0  502  501  0.00000000000E+00  0.00000000000E+00  0.71289922740E+03  0.71289922740E+03  0.00000000000E+00 0.  1.
         21   -1    0    0  501  502 -0.00000000000E+00 -0.00000000000E+00 -0.54793859354E+01  0.54793859354E+01  0.00000000000E+00 0.  1.
         25    1    1    2    0    0  0.00000000000E+00  0.00000000000E+00  0.70741984146E+03  0.71837861333E+03  0.12500000000E+03 0.  0.
<mgrwt>
<rscale>  0 0.12500000E+03</rscale>
<asrwt>0</asrwt>
<pdfrwt beam="1">  1       21 0.10967673E+00 0.12500000E+03</pdfrwt>
<pdfrwt beam="2">  1       21 0.84298302E-03 0.12500000E+03</pdfrwt>
<totfact> 0.32213537E+06</totfact>
</mgrwt>
</event>
<event>
 3    1  0.1628330E-001  0.1250000E+03  0.7546771E-02  0.1235069E+00
         21   -1    0    0  502  501  0.00000000000E+00  0.00000000000E+00  0.61778550287E+02  0.61778550287E+02  0.00000000000E+00 0.  1.
         21   -1    0    0  501  502 -0.00000000000E+00 -0.00000000000E+00 -0.63229874801E+02  0.63229874801E+02  0.00000000000E+00 0.  1.
         25    1    1    2    0    0  0.00000000000E+00  0.00000000000E+00 -0.14513245143E+01  0.12500842509E+03  0.12500000000E+03 0.  0.
<mgrwt>
<rscale>  0 0.12500000E+03</rscale>
<asrwt>0</asrwt>
<pdfrwt beam="1">  1       21 0.95043923E-02 0.12500000E+03</pdfrwt>
<pdfrwt beam="2">  1       21 0.97276731E-02 0.12500000E+03</pdfrwt>
<totfact> 0.74042443E+06</totfact>
</mgrwt>
</event>
<event>
 3    1  0.1628330E-001  0.1250000E+03  0.7546771E-02  0.1235069E+00
         21   -1    0    0  502  501  0.00000000000E+00  0.00000000000E+00  0.24498154547E+03  0.24498154547E+03  0.00000000000E+00 0. -1.
         21   -1    0    0  501  502 -0.00000000000E+00 -0.00000000000E+00 -0.15945078608E+02  0.15945078608E+02  0.00000000000E+00 0. -1.
         25    1    1    2    0    0  0.00000000000E+00  0.00000000000E+00  0.22903646686E+03  0.26092662408E+03  0.12500000000E+03 0.  0.
<mgrwt>
<rscale>  0 0.12500000E+03</rscale>
<asrwt>0</asrwt>
<pdfrwt beam="1">  1       21 0.37689466E-01 0.12500000E+03</pdfrwt>
<pdfrwt beam="2">  1       21 0.24530892E-02 0.12500000E+03</pdfrwt>
<totfact> 0.58864446E+06</totfact>
</mgrwt>
</event>
<event>
 3    1  0.1628330E-001  0.1250000E+03  0.7546771E-02  0.1235069E+00
         21   -1    0    0  502  501  0.00000000000E+00  0.00000000000E+00  0.97574568000E+03  0.97574568000E+03  0.00000000000E+00 0.  1.
         21   -1    0    0  501  502 -0.00000000000E+00 -0.00000000000E+00 -0.40033484955E+01  0.40033484955E+01  0.00000000000E+00 0.  1.
         25    1    1    2    0    0  0.00000000000E+00  0.00000000000E+00  0.97174233151E+03  0.97974902850E+03  0.12500000000E+03 0.  0.
<mgrwt>
<rscale>  0 0.12500000E+03</rscale>
<asrwt>0</asrwt>
<pdfrwt beam="1">  1       21 0.15011453E+00 0.12500000E+03</pdfrwt>
<pdfrwt beam="2">  1       21 0.61590055E-03 0.12500000E+03</pdfrwt>
<totfact> 0.24131502E+06</totfact>
</mgrwt>
</event>
<event>
 3    1  0.1628330E-001  0.1250000E+03  0.7546771E-02  0.1235069E+00
         21   -1    0    0  502  501  0.00000000000E+00  0.00000000000E+00  0.98485132253E+01  0.98485132253E+01  0.00000000000E+00 0.  1.
         21   -1    0    0  501  502 -0.00000000000E+00 -0.00000000000E+00 -0.39663347255E+03  0.39663347255E+03  0.00000000000E+00 0.  1.
         25    1    1    2    0    0  0.00000000000E+00  0.00000000000E+00 -0.38678495933E+03  0.40648198578E+03  0.12500000000E+03 0.  0.
<mgrwt>
<rscale>  0 0.12500000E+03</rscale>
<asrwt>0</asrwt>
<pdfrwt beam="1">  1       21 0.15151558E-02 0.12500000E+03</pdfrwt>
<pdfrwt beam="2">  1       21 0.61020536E-01 0.12500000E+03</pdfrwt>
<totfact> 0.47614358E+06</totfact>
</mgrwt>
</event>
<event>
 3    1  0.1628330E-001  0.1250000E+03  0.7546771E-02  0.1235069E+00
         21   -1    0    0  502  501  0.00000000000E+00  0.00000000000E+00  0.19427152446E+03  0.19427152446E+03  0.00000000000E+00 0. -1.
         21   -1    0    0  501  502 -0.00000000000E+00 -0.00000000000E+00 -0.20107167074E+02  0.20107167074E+02  0.00000000000E+00 0. -1.
         25    1    1    2    0    0  0.00000000000E+00  0.00000000000E+00  0.17416435739E+03  0.21437869153E+03  0.12500000000E+03 0.  0.
<mgrwt>
<rscale>  0 0.12500000E+03</rscale>
<asrwt>0</asrwt>
<pdfrwt beam="1">  1       21 0.29887926E-01 0.12500000E+03</pdfrwt>
<pdfrwt beam="2">  1       21 0.30934105E-02 0.12500000E+03</pdfrwt>
<totfact> 0.63401772E+06</totfact>
</mgrwt>
</event>
<event>
 3    1  0.1628330E-001  0.1250000E+03  0.7546771E-02  0.1235069E+00
         21   -1    0    0  502  501  0.00000000000E+00  0.00000000000E+00  0.10004885817E+02  0.10004885817E+02  0.00000000000E+00 0. -1.
         21   -1    0    0  501  502 -0.00000000000E+00 -0.00000000000E+00 -0.39043424096E+03  0.39043424096E+03  0.00000000000E+00 0. -1.
         25    1    1    2    0    0  0.00000000000E+00  0.00000000000E+00 -0.38042935515E+03  0.40043912678E+03  0.12500000000E+03 0.  0.
<mgrwt>
<rscale>  0 0.12500000E+03</rscale>
<asrwt>0</asrwt>
<pdfrwt beam="1">  1       21 0.15392130E-02 0.12500000E+03</pdfrwt>
<pdfrwt beam="2">  1       21 0.60066814E-01 0.12500000E+03</pdfrwt>
<totfact> 0.48012234E+06</totfact>
</mgrwt>
</event>
<event>
 3    1  0.1628330E-001  0.1250000E+03  0.7546771E-02  0.1235069E+00
         21   -1    0    0  502  501  0.00000000000E+00  0.00000000000E+00  0.19496444354E+02  0.19496444354E+02  0.00000000000E+00 0.  1.
         21   -1    0    0  501  502 -0.00000000000E+00 -0.00000000000E+00 -0.20035704609E+03  0.20035704609E+03  0.00000000000E+00 0.  1.
         25    1    1    2    0    0  0.00000000000E+00  0.00000000000E+00 -0.18086060174E+03  0.21985349045E+03  0.12500000000E+03 0.  0.
<mgrwt>
<rscale>  0 0.12500000E+03</rscale>
<asrwt>0</asrwt>
<pdfrwt beam="1">  1       21 0.29994531E-02 0.12500000E+03</pdfrwt>
<pdfrwt beam="2">  1       21 0.30824160E-01 0.12500000E+03</pdfrwt>
<totfact> 0.62837514E+06</totfact>
</mgrwt>
</event>
<event>
 3    1  0.1628330E-001  0.1250000E+03  0.7546771E-02  0.1235069E+00
         21   -1    0    0  502  501  0.00000000000E+00  0.00000000000E+00  0.87792588100E+01  0.87792588100E+01  0.00000000000E+00 0.  1.
         21   -1    0    0  501  502 -0.00000000000E+00 -0.00000000000E+00 -0.44494075007E+03  0.44494075007E+03  0.00000000000E+00 0.  1.
         25    1    1    2    0    0  0.00000000000E+00  0.00000000000E+00 -0.43616149126E+03  0.45372000888E+03  0.12500000000E+03 0.  0.
<mgrwt>
<rscale>  0 0.12500000E+03</rscale>
<asrwt>0</asrwt>
<pdfrwt beam="1">  1       21 0.13506552E-02 0.12500000E+03</pdfrwt>
<pdfrwt beam="2">  1       21 0.68452423E-01 0.12500000E+03</pdfrwt>
<totfact> 0.44670506E+06</totfact>
</mgrwt>
</event>
<event>
 3    1  0.1628330E-001  0.1250000E+03  0.7546771E-02  0.1235069E+00
         21   -1    0    0  502  501  0.00000000000E+00  0.00000000000E+00  0.23235764983E+03  0.23235764983E+03  0.00000000000E+00 0.  1.
         21   -1    0    0  501  502 -0.00000000000E+00 -0.00000000000E+00 -0.16811368177E+02  0.16811368177E+02  0.00000000000E+00 0.  1.
         25    1    1    2    0    0  0.00000000000E+00  0.00000000000E+00  0.21554628166E+03  0.24916901801E+03  0.12500000000E+03 0.  0.
<mgrwt>
<rscale>  0 0.12500000E+03</rscale>
<asrwt>0</asrwt>
<pdfrwt beam="1">  1       21 0.35747328E-01 0.12500000E+03</pdfrwt>
<pdfrwt beam="2">  1       21 0.25863645E-02 0.12500000E+03</pdfrwt>
<totfact> 0.59956514E+06</totfact>
</mgrwt>
</event>
<event>
 3    1  0.1628330E-001  0.1250000E+03  0.7546771E-02  0.1235069E+00
         21   -1    0    0  502  501  0.00000000000E+00  0.00000000000E+00  0.42134839249E+02  0.42134839249E+02  0.00000000000E+00 0. -1.
         21   -1    0    0  501  502 -0.00000000000E+00 -0.00000000000E+00 -0.92708316196E+02  0.92708316196E+02  0.00000000000E+00 0. -1.
         25    1    1    2    0    0  0.00000000000E+00  0.00000000000E+00 -0.50573476947E+02  0.13484315545E+03  0.12500000000E+03 0.  0.
<mgrwt>
<rscale>  0 0.12500000E+03</rscale>
<asrwt>0</asrwt>
<pdfrwt beam="1">  1       21 0.64822830E-02 0.12500000E+03</pdfrwt>
<pdfrwt beam="2">  1       21 0.14262818E-01 0.12500000E+03</pdfrwt>
<totfact> 0.72717246E+06</totfact>
</mgrwt>
</event>
<event>
 3    1  0.1628330E-001  0.1250000E+03  0.7546771E-02  0.1235069E+00
         21   -1    0    0  502  501  0.00000000000E+00  0.00000000000E+00  0.25091403757E+02  0.25091403757E+02  0.00000000000E+00 0.  1.
         21   -1    0    0  501  502 -0.00000000000E+00 -0.00000000000E+00 -0.15568080757E+03  0.15568080757E+03  0.00000000000E+00 0.  1.
         25    1    1    2    0    0  0.00000000000E+00  0.00000000000E+00 -0.13058940382E+03  0.18077221133E+03  0.12500000000E+03 0.  0.
<mgrwt>
<rscale>  0 0.12500000E+03</rscale>
<asrwt>0</asrwt>
<pdfrwt beam="1">  1       21 0.38602160E-02 0.12500000E+03</pdfrwt>
<pdfrwt beam="2">  1       21 0.23950893E-01 0.12500000E+03</pdfrwt>
<totfact> 0.67063061E+06</totfact>
</mgrwt>
</event>
<event>
 3    1  0.1628330E-001  0.1250000E+03  0.7546771E-02  0.1235069E+00
         21   -1    0    0  502  501  0.00000000000E+00  0.00000000000E+00  0.11909304685E+03  0.11909304685E+03  0.00000000000E+00 0.  1.
         21   -1    0    0  501  502 -0.00000000000E+00 -0.00000000000E+00 -0.32799983738E+02  0.32799983738E+02  0.00000000000E+00 0.  1.
         25    1    1    2    0    0  0.00000000000E+00  0.00000000000E+00  0.86293063114E+02  0.15189303059E+03  0.12500000000E+03 0.  0.
<mgrwt>
<rscale>  0 0.12500000E+03</rscale>
<asrwt>0</asrwt>
<pdfrwt beam="1">  1       21 0.18322007E-01 0.12500000E+03</pdfrwt>
<pdfrwt beam="2">  1       21 0.50461514E-02 0.12500000E+03</pdfrwt>
<totfact> 0.70522205E+06</totfact>
</mgrwt>
</event>
<event>
 3    1  0.1628330E-001  0.1250000E+03  0.7546771E-02  0.1235069E+00
         21   -1    0    0  502  501  0.00000000000E+00  0.00000000000E+00  0.25137954043E+02  0.25137954043E+02  0.00000000000E+00 0. -1.
         21   -1    0    0  501  502 -0.00000000000E+00 -0.00000000000E+00 -0.15539251895E+03  0.15539251895E+03  0.00000000000E+00 0. -1.
         25    1    1    2    0    0  0.00000000000E+00  0.00000000000E+00 -0.13025456491E+03  0.18053047299E+03  0.12500000000E+03 0.  0.
<mgrwt>
<rscale>  0 0.12500000E+03</rscale>
<asrwt>0</asrwt>
<pdfrwt beam="1">  1       21 0.38673776E-02 0.12500000E+03</pdfrwt>
<pdfrwt beam="2">  1       21 0.23906541E-01 0.12500000E+03</pdfrwt>
<totfact> 0.67090735E+06</totfact>
</mgrwt>
</event>
<event>
 3    1  0.1628330E-001  0.1250000E+03  0.7546771E-02  0.1235069E+00
         21   -1    0    0  502  501  0.00000000000E+00  0.00000000000E+00  0.84023568611E+01  0.84023568611E+01  0.00000000000E+00 0. -1.
         21   -1    0    0  501  502 -0.00000000000E+00 -0.00000000000E+00 -0.46489932106E+03  0.46489932106E+03  0.00000000000E+00 0. -1.
         25    1    1    2    0    0  0.00000000000E+00  0.00000000000E+00 -0.45649696419E+03  0.47330167792E+03  0.12500000000E+03 0.  0.
<mgrwt>
<rscale>  0 0.12500000E+03</rscale>
<asrwt>0</asrwt>
<pdfrwt beam="1">  1       21 0.12926701E-02 0.12500000E+03</pdfrwt>
<pdfrwt beam="2">  1       21 0.71522980E-01 0.12500000E+03</pdfrwt>
<totfact> 0.43529998E+06</totfact>
</mgrwt>
</event>
<event>
 3    1  0.1628330E-001  0.1250000E+03  0.7546771E-02  0.1235069E+00
         21   -1    0    0  502  501  0.00000000000E+00  0.00000000000E+00  0.12296952161E+03  0.12296952161E+03  0.00000000000E+00 0.  1.
         21   -1    0    0  501  502 -0.00000000000E+00 -0.00000000000E+00 -0.31766001435E+02  0.31766001435E+02  0.00000000000E+00 0.  1.
         25    1    1    2    0    0  0.00000000000E+00  0.00000000000E+00  0.91203520176E+02  0.15473552305E+03  0.12500000000E+03 0.  0.
<mgrwt>
<rscale>  0 0.12500000E+03</rscale>
<asrwt>0</asrwt>
<pdfrwt beam="1">  1       21 0.18918388E-01 0.12500000E+03</pdfrwt>
<pdfrwt beam="2">  1       21 0.48870772E-02 0.12500000E+03</pdfrwt>
<totfact> 0.70168545E+06</totfact>
</mgrwt>
</event>
<event>
 3    1  0.1628330E-001  0.1250000E+03  0.7546771E-02  0.1235069E+00
         21   -1    0    0  502  501  0.00000000000E+00  0.00000000000E+00  0.56938482648E+03  0.56938482648E+03  0.00000000000E+00 0.  1.
         21   -1    0    0  501  502 -0.00000000000E+00 -0.00000000000E+00 -0.68604743547E+01  0.68604743547E+01  0.00000000000E+00 0.  1.
         25    1    1    2    0    0  0.00000000000E+00  0.00000000000E+00  0.56252435212E+03  0.57624530083E+03  0.12500000000E+03 0.  0.
<mgrwt>
<rscale>  0 0.12500000E+03</rscale>
<asrwt>0</asrwt>
<pdfrwt beam="1">  1       21 0.87597628E-01 0.12500000E+03</pdfrwt>
<pdfrwt beam="2">  1       21 0.10554580E-02 0.12500000E+03</pdfrwt>
<totfact> 0.38189436E+06</totfact>
</mgrwt>
</event>
<event>
 3    1  0.1628330E-001  0.1250000E+03  0.7546771E-02  0.1235069E+00
         21   -1    0    0  502  501  0.00000000000E+00  0.00000000000E+00  0.52876032189E+02  0.52876032189E+02  0.00000000000E+00 0.  1.
         21   -1    0    0  501  502 -0.00000000000E+00 -0.00000000000E+00 -0.73875626409E+02  0.73875626409E+02  0.00000000000E+00 0.  1.
         25    1    1    2    0    0  0.00000000000E+00  0.00000000000E+00 -0.20999594220E+02  0.12675165860E+03  0.12500000000E+03 0.  0.
<mgrwt>
<rscale>  0 0.12500000E+03</rscale>
<asrwt>0</asrwt>
<pdfrwt beam="1">  1       21 0.81347742E-02 0.12500000E+03</pdfrwt>
<pdfrwt beam="2">  1       21 0.11365481E-01 0.12500000E+03</pdfrwt>
<totfact> 0.73802983E+06</totfact>
</mgrwt>
</event>
<event>
 3    1  0.1628330E-001  0.1250000E+03  0.7546771E-02  0.1235069E+00
         21   -1    0    0  502  501  0.00000000000E+00  0.00000000000E+00  0.60862069760E+02  0.60862069760E+02  0.00000000000E+00 0. -1.
         21   -1    0    0  501  502 -0.00000000000E+00 -0.00000000000E+00 -0.64182010494E+02  0.64182010494E+02  0.00000000000E+00 0. -1.
         25    1    1    2    0    0  0.00000000000E+00  0.00000000000E+00 -0.33199407342E+01  0.12504408025E+03  0.12500000000E+03 0.  0.
<mgrwt>
<rscale>  0 0.12500000E+03</rscale>
<asrwt>0</asrwt>
<pdfrwt beam="1">  1       21 0.93633954E-02 0.12500000E+03</pdfrwt>
<pdfrwt beam="2">  1       21 0.98741554E-02 0.12500000E+03</pdfrwt>
<totfact> 0.74037628E+06</totfact>
</mgrwt>
</event>
<event>
 3    1  0.1628330E-001  0.1250000E+03  0.7546771E-02  0.1235069E+00
         21   -1    0    0  502  501  0.00000000000E+00  0.00000000000E+00  0.69019327119E+03  0.69019327119E+03  0.00000000000E+00 0.  1.
         21   -1    0    0  501  502 -0.00000000000E+00 -0.00000000000E+00 -0.56596465991E+01  0.56596465991E+01  0.00000000000E+00 0.  1.
         25    1    1    2    0    0  0.00000000000E+00  0.00000000000E+00  0.68453362459E+03  0.69585291779E+03  0.12500000000E+03 0.  0.
<mgrwt>
<rscale>  0 0.12500000E+03</rscale>
<asrwt>0</asrwt>
<pdfrwt beam="1">  1       21 0.10618351E+00 0.12500000E+03</pdfrwt>
<pdfrwt beam="2">  1       21 0.87071541E-03 0.12500000E+03</pdfrwt>
<totfact> 0.33070654E+06</totfact>
</mgrwt>
</event>
<event>
 3    1  0.1628330E-001  0.1250000E+03  0.7546771E-02  0.1235069E+00
         21   -1    0    0  502  501  0.00000000000E+00  0.00000000000E+00  0.45410252819E+01  0.45410252819E+01  0.00000000000E+00 0.  1.
         21   -1    0    0  501  502 -0.00000000000E+00 -0.00000000000E+00 -0.86021322444E+03  0.86021322444E+03  0.00000000000E+00 0.  1.
         25    1    1    2    0    0  0.00000000000E+00  0.00000000000E+00 -0.85567219916E+03  0.86475424972E+03  0.12500000000E+03 0.  0.
<mgrwt>
<rscale>  0 0.12500000E+03</rscale>
<asrwt>0</asrwt>
<pdfrwt beam="1">  1       21 0.69862017E-03 0.12500000E+03</pdfrwt>
<pdfrwt beam="2">  1       21 0.13234033E+00 0.12500000E+03</pdfrwt>
<totfact> 0.27326270E+06</totfact>
</mgrwt>
</event>
<event>
 3    1  0.1628330E-001  0.1250000E+03  0.7546771E-02  0.1235069E+00
         21   -1    0    0  502  501  0.00000000000E+00  0.00000000000E+00  0.10251264899E+03  0.10251264899E+03  0.00000000000E+00 0. -1.
         21   -1    0    0  501  502 -0.00000000000E+00 -0.00000000000E+00 -0.38105053754E+02  0.38105053754E+02  0.00000000000E+00 0. -1.
         25    1    1    2    0    0  0.00000000000E+00  0.00000000000E+00  0.64407595232E+02  0.14061770274E+03  0.12500000000E+03 0.  0.
<mgrwt>
<rscale>  0 0.12500000E+03</rscale>
<asrwt>0</asrwt>
<pdfrwt beam="1">  1       21 0.15771177E-01 0.12500000E+03</pdfrwt>
<pdfrwt beam="2">  1       21 0.58623160E-02 0.12500000E+03</pdfrwt>
<totfact> 0.71958771E+06</totfact>
</mgrwt>
</event>
<event>
 3    1  0.1628330E-001  0.1250000E+03  0.7546771E-02  0.1235069E+00
         21   -1    0    0  502  501  0.00000000000E+00  0.00000000000E+00  0.40157284117E+02  0.40157284117E+02  0.00000000000E+00 0.  1.
         21   -1    0    0  501  502 -0.00000000000E+00 -0.00000000000E+00 -0.97273759566E+02  0.97273759566E+02  0.00000000000E+00 0.  1.
         25    1    1    2    0    0  0.00000000000E+00  0.00000000000E+00 -0.57116475450E+02  0.13743104368E+03  0.12500000000E+03 0.  0.
<mgrwt>
<rscale>  0 0.12500000E+03</rscale>
<asrwt>0</asrwt>
<pdfrwt beam="1">  1       21 0.61780438E-02 0.12500000E+03</pdfrwt>
<pdfrwt beam="2">  1       21 0.14965194E-01 0.12500000E+03</pdfrwt>
<totfact> 0.72376157E+06</totfact>
</mgrwt>
</event>
<event>
 3    1  0.1628330E-001  0.1250000E+03  0.7546771E-02  0.1235069E+00
         21   -1    0    0  502  501  0.00000000000E+00  0.00000000000E+00  0.10373032064E+02  0.10373032064E+02  0.00000000000E+00 0.  1.
         21   -1    0    0  501  502 -0.00000000000E+00 -0.00000000000E+00 -0.37657745354E+03  0.37657745354E+03  0.00000000000E+00 0.  1.
         25    1    1    2    0    0  0.00000000000E+00  0.00000000000E+00 -0.36620442147E+03  0.38695048560E+03  0.12500000000E+03 0.  0.
<mgrwt>
<rscale>  0 0.12500000E+03</rscale>
<asrwt>0</asrwt>
<pdfrwt beam="1">  1       21 0.15958511E-02 0.12500000E+03</pdfrwt>
<pdfrwt beam="2">  1       21 0.57934993E-01 0.12500000E+03</pdfrwt>
<totfact> 0.48919128E+06</totfact>
</mgrwt>
</event>
<event>
 3    1  0.1628330E-001  0.1250000E+03  0.7546771E-02  0.1235069E+00
         21   -1    0    0  502  501  0.00000000000E+00  0.00000000000E+00  0.39328969938E+03  0.39328969938E+03  0.00000000000E+00 0.  1.
         21   -1    0    0  501  502 -0.00000000000E+00 -0.00000000000E+00 -0.99322458894E+01  0.99322458894E+01  0.00000000000E+00 0.  1.
         25    1    1    2    0    0  0.00000000000E+00  0.00000000000E+00  0.38335745349E+03  0.40322194527E+03  0.12500000000E+03 0.  0.
<mgrwt>
<rscale>  0 0.12500000E+03</rscale>
<asrwt>0</asrwt>
<pdfrwt beam="1">  1       21 0.60506095E-01 0.12500000E+03</pdfrwt>
<pdfrwt beam="2">  1       21 0.15280381E-02 0.12500000E+03</pdfrwt>
<totfact> 0.47828379E+06</totfact>
</mgrwt>
</event>
<event>
 3    1  0.1628330E-001  0.1250000E+03  0.7546771E-02  0.1235069E+00
         21   -1    0    0  502  501  0.00000000000E+00  0.00000000000E+00  0.26131319898E+03  0.26131319898E+03  0.00000000000E+00 0. -1.
         21   -1    0    0  501  502 -0.00000000000E+00 -0.00000000000E+00 -0.14948536910E+02  0.14948536910E+02  0.00000000000E+00 0. -1.
         25    1    1    2    0    0  0.00000000000E+00  0.00000000000E+00  0.24636466207E+03  0.27626173589E+03  0.12500000000E+03 0.  0.
<mgrwt>
<rscale>  0 0.12500000E+03</rscale>
<asrwt>0</asrwt>
<pdfrwt beam="1">  1       21 0.40202027E-01 0.12500000E+03</pdfrwt>
<pdfrwt beam="2">  1       21 0.22997751E-02 0.12500000E+03</pdfrwt>
<totfact> 0.57488474E+06</totfact>
</mgrwt>
</event>
<event>
 3    1  0.1628330E-001  0.1250000E+03  0.7546771E-02  0.1235069E+00
         21   -1    0    0  502  501  0.00000000000E+00  0.00000000000E+00  0.42730741781E+02  0.42730741781E+02  0.00000000000E+00 0. -1.
         21   -1    0    0  501  502 -0.00000000000E+00 -0.00000000000E+00 -0.91415450264E+02  0.91415450264E+02  0.00000000000E+00 0. -1.
         25    1    1    2    0    0  0.00000000000E+00  0.00000000000E+00 -0.48684708483E+02  0.13414619204E+03  0.12500000000E+03 0.  0.
<mgrwt>
<rscale>  0 0.12500000E+03</rscale>
<asrwt>0</asrwt>
<pdfrwt beam="1">  1       21 0.65739603E-02 0.12500000E+03</pdfrwt>
<pdfrwt beam="2">  1       21 0.14063915E-01 0.12500000E+03</pdfrwt>
<totfact> 0.72809722E+06</totfact>
</mgrwt>
</event>
<event>
 3    1  0.1628330E-001  0.1250000E+03  0.7546771E-02  0.1235069E+00
         21   -1    0    0  502  501  0.00000000000E+00  0.00000000000E+00  0.11972068575E+03  0.11972068575E+03  0.00000000000E+00 0.  1.
         21   -1    0    0  501  502 -0.00000000000E+00 -0.00000000000E+00 -0.32628028946E+02  0.32628028946E+02  0.00000000000E+00 0.  1.
         25    1    1    2    0    0  0.00000000000E+00  0.00000000000E+00  0.87092656802E+02  0.15234871469E+03  0.12500000000E+03 0.  0.
<mgrwt>
<rscale>  0 0.12500000E+03</rscale>
<asrwt>0</asrwt>
<pdfrwt beam="1">  1       21 0.18418567E-01 0.12500000E+03</pdfrwt>
<pdfrwt beam="2">  1       21 0.50196968E-02 0.12500000E+03</pdfrwt>
<totfact> 0.70465392E+06</totfact>
</mgrwt>
</event>
<event>
 3    1  0.1628330E-001  0.1250000E+03  0.7546771E-02  0.1235069E+00
         21   -1    0    0  502  501  0.00000000000E+00  0.00000000000E+00  0.47620623657E+03  0.47620623657E+03  0.00000000000E+00 0.  1.
         21   -1    0    0  501  502 -0.00000000000E+00 -0.00000000000E+00 -0.82028535119E+01  0.82028535119E+01  0.00000000000E+00 0.  1.
         25    1    1    2    0    0  0.00000000000E+00  0.00000000000E+00  0.46800338305E+03  0.48440909008E+03  0.12500000000E+03 0.  0.
<mgrwt>
<rscale>  0 0.12500000E+03</rscale>
<asrwt>0</asrwt>
<pdfrwt beam="1">  1       21 0.73262476E-01 0.12500000E+03</pdfrwt>
<pdfrwt beam="2">  1       21 0.12619778E-02 0.12500000E+03</pdfrwt>
<totfact> 0.42902428E+06</totfact>
</mgrwt>
</event>
<event>
 3    1  0.1628330E-001  0.1250000E+03  0.7546771E-02  0.1235069E+00
         21   -1    0    0  502  501  0.00000000000E+00  0.00000000000E+00  0.13452743266E+02  0.13452743266E+02  0.00000000000E+00 0.  1.
         21   -1    0    0  501  502 -0.00000000000E+00 -0.00000000000E+00 -0.29036828569E+03  0.29036828569E+03  0.00000000000E+00 0.  1.
         25    1    1    2    0    0  0.00000000000E+00  0.00000000000E+00 -0.27691554243E+03  0.30382102896E+03  0.12500000000E+03 0.  0.
<mgrwt>
<rscale>  0 0.12500000E+03</rscale>
<asrwt>0</asrwt>
<pdfrwt beam="1">  1       21 0.20696530E-02 0.12500000E+03</pdfrwt>
<pdfrwt beam="2">  1       21 0.44672040E-01 0.12500000E+03</pdfrwt>
<totfact> 0.55140120E+06</totfact>
</mgrwt>
</event>
<event>
 3    1  0.1628330E-001  0.1250000E+03  0.7546771E-02  0.1235069E+00
         21   -1    0    0  502  501  0.00000000000E+00  0.00000000000E+00  0.76156687045E+02  0.76156687045E+02  0.00000000000E+00 0. -1.
         21   -1    0    0  501  502 -0.00000000000E+00 -0.00000000000E+00 -0.51292278479E+02  0.51292278479E+02  0.00000000000E+00 0. -1.
         25    1    1    2    0    0  0.00000000000E+00  0.00000000000E+00  0.24864408566E+02  0.12744896552E+03  0.12500000000E+03 0.  0.
<mgrwt>
<rscale>  0 0.12500000E+03</rscale>
<asrwt>0</asrwt>
<pdfrwt beam="1">  1       21 0.11716413E-01 0.12500000E+03</pdfrwt>
<pdfrwt beam="2">  1       21 0.78911198E-02 0.12500000E+03</pdfrwt>
<totfact> 0.73708138E+06</totfact>
</mgrwt>
</event>
<event>
 3    1  0.1628330E-001  0.1250000E+03  0.7546771E-02  0.1235069E+00
         21   -1    0    0  502  501  0.00000000000E+00  0.00000000000E+00  0.19442551311E+02  0.19442551311E+02  0.00000000000E+00 0. -1.
         21   -1    0    0  501  502 -0.00000000000E+00 -0.00000000000E+00 -0.20091241821E+03  0.20091241821E+03  0.00000000000E+00 0. -1.
         25    1    1    2    0    0  0.00000000000E+00  0.00000000000E+00 -0.18146986690E+03  0.22035496952E+03  0.12500000000E+03 0.  0.
<mgrwt>
<rscale>  0 0.12500000E+03</rscale>
<asrwt>0</asrwt>
<pdfrwt beam="1">  1       21 0.29911615E-02 0.12500000E+03</pdfrwt>
<pdfrwt beam="2">  1       21 0.30909605E-01 0.12500000E+03</pdfrwt>
<totfact> 0.62786269E+06</totfact>
</mgrwt>
</event>
<event>
 3    1  0.1628330E-001  0.1250000E+03  0.7546771E-02  0.1235069E+00
         21   -1    0    0  502  501  0.00000000000E+00  0.00000000000E+00  0.43037207983E+02  0.43037207983E+02  0.00000000000E+00 0. -1.
         21   -1    0    0  501  502 -0.00000000000E+00 -0.00000000000E+00 -0.90764484572E+02  0.90764484572E+02  0.00000000000E+00 0. -1.
         25    1    1    2    0    0  0.00000000000E+00  0.00000000000E+00 -0.47727276588E+02  0.13380169255E+03  0.12500000000E+03 0.  0.
<mgrwt>
<rscale>  0 0.12500000E+03</rscale>
<asrwt>0</asrwt>
<pdfrwt beam="1">  1       21 0.66211089E-02 0.12500000E+03</pdfrwt>
<pdfrwt beam="2">  1       21 0.13963767E-01 0.12500000E+03</pdfrwt>
<totfact> 0.72855531E+06</totfact>
</mgrwt>
</event>
<event>
 3    1  0.1628330E-001  0.1250000E+03  0.7546771E-02  0.1235069E+00
         21   -1    0    0  502  501  0.00000000000E+00  0.00000000000E+00  0.12801624776E+03  0.12801624776E+03  0.00000000000E+00 0. -1.
         21   -1    0    0  501  502 -0.00000000000E+00 -0.00000000000E+00 -0.30513704850E+02  0.30513704850E+02  0.00000000000E+00 0. -1.
         25    1    1    2    0    0  0.00000000000E+00  0.00000000000E+00  0.97502542908E+02  0.15852995261E+03  0.12500000000E+03 0.  0.
<mgrwt>
<rscale>  0 0.12500000E+03</rscale>
<asrwt>0</asrwt>
<pdfrwt beam="1">  1       21 0.19694807E-01 0.12500000E+03</pdfrwt>
<pdfrwt beam="2">  1       21 0.46944162E-02 0.12500000E+03</pdfrwt>
<totfact> 0.69699567E+06</totfact>
</mgrwt>
</event>
<event>
 3    1  0.1628330E-001  0.1250000E+03  0.7546771E-02  0.1235069E+00
         21   -1    0    0  502  501  0.00000000000E+00  0.00000000000E+00  0.64365859352E+01  0.64365859352E+01  0.00000000000E+00 0.  1.
         21   -1    0    0  501  502 -0.00000000000E+00 -0.00000000000E+00 -0.60688228811E+03  0.60688228811E+03  0.00000000000E+00 0.  1.
         25    1    1    2    0    0  0.00000000000E+00  0.00000000000E+00 -0.60044570218E+03  0.61331887405E+03  0.12500000000E+03 0.  0.
<mgrwt>
<rscale>  0 0.12500000E+03</rscale>
<asrwt>0</asrwt>
<pdfrwt beam="1">  1       21 0.99024361E-03 0.12500000E+03</pdfrwt>
<pdfrwt beam="2">  1       21 0.93366541E-01 0.12500000E+03</pdfrwt>
<totfact> 0.36497136E+06</totfact>
</mgrwt>
</event>
<event>
 3    1  0.1628330E-001  0.1250000E+03  0.7546771E-02  0.1235069E+00
         21   -1    0    0  502  501  0.00000000000E+00  0.00000000000E+00  0.15751368766E+02  0.15751368766E+02  0.00000000000E+00 0.  1.
         21   -1    0    0  501  502 -0.00000000000E+00 -0.00000000000E+00 -0.24799432087E+03  0.24799432087E+03  0.00000000000E+00 0.  1.
         25    1    1    2    0    0  0.00000000000E+00  0.00000000000E+00 -0.23224295210E+03  0.26374568964E+03  0.12500000000E+03 0.  0.
<mgrwt>
<rscale>  0 0.12500000E+03</rscale>
<asrwt>0</asrwt>
<pdfrwt beam="1">  1       21 0.24232876E-02 0.12500000E+03</pdfrwt>
<pdfrwt beam="2">  1       21 0.38152971E-01 0.12500000E+03</pdfrwt>
<totfact> 0.58607652E+06</totfact>
</mgrwt>
</event>
<event>
 3    1  0.1628330E-001  0.1250000E+03  0.7546771E-02  0.1235069E+00
         21   -1    0    0  502  501  0.00000000000E+00  0.00000000000E+00  0.18664465690E+02  0.18664465690E+02  0.00000000000E+00 0.  1.
         21   -1    0    0  501  502 -0.00000000000E+00 -0.00000000000E+00 -0.20928806991E+03  0.20928806991E+03  0.00000000000E+00 0.  1.
         25    1    1    2    0    0  0.00000000000E+00  0.00000000000E+00 -0.19062360422E+03  0.22795253560E+03  0.12500000000E+03 0.  0.
<mgrwt>
<rscale>  0 0.12500000E+03</rscale>
<asrwt>0</asrwt>
<pdfrwt beam="1">  1       21 0.28714564E-02 0.12500000E+03</pdfrwt>
<pdfrwt beam="2">  1       21 0.32198163E-01 0.12500000E+03</pdfrwt>
<totfact> 0.62018331E+06</totfact>
</mgrwt>
</event>
<event>
 3    1  0.1628330E-001  0.1250000E+03  0.7546771E-02  0.1235069E+00
         21   -1    0    0  502  501  0.00000000000E+00  0.00000000000E+00  0.52512012184E+03  0.52512012184E+03  0.00000000000E+00 0.  1.
         21   -1    0    0  501  502 -0.00000000000E+00 -0.00000000000E+00 -0.74387741729E+01  0.74387741729E+01  0.00000000000E+00 0.  1.
         25    1    1    2    0    0  0.00000000000E+00  0.00000000000E+00  0.51768134767E+03  0.53255889601E+03  0.12500000000E+03 0.  0.
<mgrwt>
<rscale>  0 0.12500000E+03</rscale>
<asrwt>0</asrwt>
<pdfrwt beam="1">  1       21 0.80787682E-01 0.12500000E+03</pdfrwt>
<pdfrwt beam="2">  1       21 0.11444272E-02 0.12500000E+03</pdfrwt>
<totfact> 0.40331651E+06</totfact>
</mgrwt>
</event>
<event>
 3    1  0.1628330E-001  0.1250000E+03  0.7546771E-02  0.1235069E+00
         21   -1    0    0  502  501  0.00000000000E+00  0.00000000000E+00  0.51139126725E+02  0.51139126725E+02  0.00000000000E+00 0. -1.
         21   -1    0    0  501  502 -0.00000000000E+00 -0.00000000000E+00 -0.76384761535E+02  0.76384761535E+02  0.00000000000E+00 0. -1.
         25    1    1    2    0    0  0.00000000000E+00  0.00000000000E+00 -0.25245634810E+02  0.12752388826E+03  0.12500000000E+03 0.  0.
<mgrwt>
<rscale>  0 0.12500000E+03</rscale>
<asrwt>0</asrwt>
<pdfrwt beam="1">  1       21 0.78675580E-02 0.12500000E+03</pdfrwt>
<pdfrwt beam="2">  1       21 0.11751502E-01 0.12500000E+03</pdfrwt>
<totfact> 0.73697980E+06</totfact>
</mgrwt>
</event>
<event>
 3    1  0.1628330E-001  0.1250000E+03  0.7546771E-02  0.1235069E+00
         21   -1    0    0  502  501  0.00000000000E+00  0.00000000000E+00  0.17563080173E+03  0.17563080173E+03  0.00000000000E+00 0.  1.
         21   -1    0    0  501  502 -0.00000000000E+00 -0.00000000000E+00 -0.22241258149E+02  0.22241258149E+02  0.00000000000E+00 0.  1.
         25    1    1    2    0    0  0.00000000000E+00  0.00000000000E+00  0.15338954358E+03  0.19787205987E+03  0.12500000000E+03 0.  0.
<mgrwt>
<rscale>  0 0.12500000E+03</rscale>
<asrwt>0</asrwt>
<pdfrwt beam="1">  1       21 0.27020122E-01 0.12500000E+03</pdfrwt>
<pdfrwt beam="2">  1       21 0.34217321E-02 0.12500000E+03</pdfrwt>
<totfact> 0.65158048E+06</totfact>
</mgrwt>
</event>
<event>
 3    1  0.1628330E-001  0.1250000E+03  0.7546771E-02  0.1235069E+00
         21   -1    0    0  502  501  0.00000000000E+00  0.00000000000E+00  0.67618692039E+02  0.67618692039E+02  0.00000000000E+00 0.  1.
         21   -1    0    0  501  502 -0.00000000000E+00 -0.00000000000E+00 -0.57768789697E+02  0.57768789697E+02  0.00000000000E+00 0.  1.
         25    1    1    2    0    0  0.00000000000E+00  0.00000000000E+00  0.98499023420E+01  0.12538748174E+03  0.12500000000E+03 0.  0.
<mgrwt>
<rscale>  0 0.12500000E+03</rscale>
<asrwt>0</asrwt>
<pdfrwt beam="1">  1       21 0.10402876E-01 0.12500000E+03</pdfrwt>
<pdfrwt beam="2">  1       21 0.88875061E-02 0.12500000E+03</pdfrwt>
<totfact> 0.73991172E+06</totfact>
</mgrwt>
</event>
<event>
 3    1  0.1628330E-001  0.1250000E+03  0.7546771E-02  0.1235069E+00
         21   -1    0    0  502  501  0.00000000000E+00  0.00000000000E+00  0.38957222931E+02  0.38957222931E+02  0.00000000000E+00 0.  1.
         21   -1    0    0  501  502 -0.00000000000E+00 -0.00000000000E+00 -0.10027023761E+03  0.10027023761E+03  0.00000000000E+00 0.  1.
         25    1    1    2    0    0  0.00000000000E+00  0.00000000000E+00 -0.61313014682E+02  0.13922746054E+03  0.12500000000E+03 0.  0.
<mgrwt>
<rscale>  0 0.12500000E+03</rscale>
<asrwt>0</asrwt>
<pdfrwt beam="1">  1       21 0.59934190E-02 0.12500000E+03</pdfrwt>
<pdfrwt beam="2">  1       21 0.15426190E-01 0.12500000E+03</pdfrwt>
<totfact> 0.72140323E+06</totfact>
</mgrwt>
</event>
<event>
 3    1  0.1628330E-001  0.1250000E+03  0.7546771E-02  0.1235069E+00
         21   -1    0    0  502  501  0.00000000000E+00  0.00000000000E+00  0.14772091514E+03  0.14772091514E+03  0.00000000000E+00 0. -1.
         21   -1    0    0  501  502 -0.00000000000E+00 -0.00000000000E+00 -0.26443445711E+02  0.26443445711E+02  0.00000000000E+00 0. -1.
         25    1    1    2    0    0  0.00000000000E+00  0.00000000000E+00  0.12127746943E+03  0.17416436085E+03  0.12500000000E+03 0.  0.
<mgrwt>
<rscale>  0 0.12500000E+03</rscale>
<asrwt>0</asrwt>
<pdfrwt beam="1">  1       21 0.22726294E-01 0.12500000E+03</pdfrwt>
<pdfrwt beam="2">  1       21 0.40682225E-02 0.12500000E+03</pdfrwt>
<totfact> 0.67827371E+06</totfact>
</mgrwt>
</event>
<event>
 3    1  0.1628330E-001  0.1250000E+03  0.7546771E-02  0.1235069E+00
         21   -1    0    0  502  501  0.00000000000E+00  0.00000000000E+00  0.10147410723E+04  0.10147410723E+04  0.00000000000E+00 0.  1.
         21   -1    0    0  501  502 -0.00000000000E+00 -0.00000000000E+00 -0.38495041804E+01  0.38495041804E+01  0.00000000000E+00 0.  1.
         25    1    1    2    0    0  0.00000000000E+00  0.00000000000E+00  0.10108915682E+04  0.10185905765E+04  0.12500000000E+03 0.  0.
<mgrwt>
<rscale>  0 0.12500000E+03</rscale>
<asrwt>0</asrwt>
<pdfrwt beam="1">  1       21 0.15611380E+00 0.12500000E+03</pdfrwt>
<pdfrwt beam="2">  1       21 0.59223222E-03 0.12500000E+03</pdfrwt>
<totfact> 0.23158199E+06</totfact>
</mgrwt>
</event>
<event>
 3    1  0.1628330E-001  0.1250000E+03  0.7546771E-02  0.1235069E+00
         21   -1    0    0  502  501  0.00000000000E+00  0.00000000000E+00  0.15922767634E+02  0.15922767634E+02  0.00000000000E+00 0. -1.
         21   -1    0    0  501  502 -0.00000000000E+00 -0.00000000000E+00 -0.24532481349E+03  0.24532481349E+03  0.00000000000E+00 0. -1.
         25    1    1    2    0    0  0.00000000000E+00  0.00000000000E+00 -0.22940204586E+03  0.26124758113E+03  0.12500000000E+03 0.  0.
<mgrwt>
<rscale>  0 0.12500000E+03</rscale>
<asrwt>0</asrwt>
<pdfrwt beam="1">  1       21 0.24496568E-02 0.12500000E+03</pdfrwt>
<pdfrwt beam="2">  1       21 0.37742275E-01 0.12500000E+03</pdfrwt>
<totfact> 0.58835114E+06</totfact>
</mgrwt>
</event>
<event>
 3    1  0.1628330E-001  0.1250000E+03  0.7546771E-02  0.1235069E+00
         21   -1    0    0  502  501  0.00000000000E+00  0.00000000000E+00  0.28881196240E+02  0.28881196240E+02  0.00000000000E+00 0. -1.
         21   -1    0    0  501  502 -0.00000000000E+00 -0.00000000000E+00 -0.13525236170E+03  0.13525236170E+03  0.00000000000E+00 0. -1.
         25    1    1    2    0    0  0.00000000000E+00  0.00000000000E+00 -0.10637116546E+03  0.16413355794E+03  0.12500000000E+03 0.  0.
<mgrwt>
<rscale>  0 0.12500000E+03</rscale>
<asrwt>0</asrwt>
<pdfrwt beam="1">  1       21 0.44432609E-02 0.12500000E+03</pdfrwt>
<pdfrwt beam="2">  1       21 0.20808056E-01 0.12500000E+03</pdfrwt>
<totfact> 0.69017914E+06</totfact>
</mgrwt>
</event>
<event>
 3    1  0.1628330E-001  0.1250000E+03  0.7546771E-02  0.1235069E+00
         21   -1    0    0  502  501  0.00000000000E+00  0.00000000000E+00  0.76691007334E+03  0.76691007334E+03  0.00000000000E+00 0. -1.
         21   -1    0    0  501  502 -0.00000000000E+00 -0.00000000000E+00 -0.50934915785E+01  0.50934915785E+01  0.00000000000E+00 0. -1.
         25    1    1    2    0    0  0.00000000000E+00  0.00000000000E+00  0.76181658176E+03  0.77200356492E+03  0.12500000000E+03 0.  0.
<mgrwt>
<rscale>  0 0.12500000E+03</rscale>
<asrwt>0</asrwt>
<pdfrwt beam="1">  1       21 0.11798607E+00 0.12500000E+03</pdfrwt>
<pdfrwt beam="2">  1       21 0.78361470E-03 0.12500000E+03</pdfrwt>
<totfact> 0.30309643E+06</totfact>
</mgrwt>
</event>
<event>
 3    1  0.1628330E-001  0.1250000E+03  0.7546771E-02  0.1235069E+00
         21   -1    0    0  502  501  0.00000000000E+00  0.00000000000E+00  0.36415695997E+02  0.36415695997E+02  0.00000000000E+00 0.  1.
         21   -1    0    0  501  502 -0.00000000000E+00 -0.00000000000E+00 -0.10726830541E+03  0.10726830541E+03  0.00000000000E+00 0.  1.
         25    1    1    2    0    0  0.00000000000E+00  0.00000000000E+00 -0.70852609417E+02  0.14368400141E+03  0.12500000000E+03 0.  0.
<mgrwt>
<rscale>  0 0.12500000E+03</rscale>
<asrwt>0</asrwt>
<pdfrwt beam="1">  1       21 0.56024147E-02 0.12500000E+03</pdfrwt>
<pdfrwt beam="2">  1       21 0.16502816E-01 0.12500000E+03</pdfrwt>
<totfact> 0.71561942E+06</totfact>
</mgrwt>
</event>
<event>
 3    1  0.1628330E-001  0.1250000E+03  0.7546771E-02  0.1235069E+00
         21   -1    0    0  502  501  0.00000000000E+00  0.00000000000E+00  0.11544731221E+03  0.11544731221E+03  0.00000000000E+00 0. -1.
         21   -1    0    0  501  502 -0.00000000000E+00 -0.00000000000E+00 -0.33835781234E+02  0.33835781234E+02  0.00000000000E+00 0. -1.
         25    1    1    2    0    0  0.00000000000E+00  0.00000000000E+00  0.81611530975E+02  0.14928309344E+03  0.12500000000E+03 0.  0.
<mgrwt>
<rscale>  0 0.12500000E+03</rscale>
<asrwt>0</asrwt>
<pdfrwt beam="1">  1       21 0.17761125E-01 0.12500000E+03</pdfrwt>
<pdfrwt beam="2">  1       21 0.52055049E-02 0.12500000E+03</pdfrwt>
<totfact> 0.70849374E+06</totfact>
</mgrwt>
</event>
<event>
 3    1  0.1628330E-001  0.1250000E+03  0.7546771E-02  0.1235069E+00
         21   -1    0    0  502  501  0.00000000000E+00  0.00000000000E+00  0.40661557259E+03  0.40661557259E+03  0.00000000000E+00 0. -1.
         21   -1    0    0  501  502 -0.00000000000E+00 -0.00000000000E+00 -0.96067397889E+01  0.96067397889E+01  0.00000000000E+00 0. -1.
         25    1    1    2    0    0  0.00000000000E+00  0.00000000000E+00  0.39700883280E+03  0.41622231238E+03  0.12500000000E+03 0.  0.
<mgrwt>
<rscale>  0 0.12500000E+03</rscale>
<asrwt>0</asrwt>
<pdfrwt beam="1">  1       21 0.62556228E-01 0.12500000E+03</pdfrwt>
<pdfrwt beam="2">  1       21 0.14779603E-02 0.12500000E+03</pdfrwt>
<totfact> 0.46983639E+06</totfact>
</mgrwt>
</event>
<event>
 3    1  0.1628330E-001  0.1250000E+03  0.7546771E-02  0.1235069E+00
         21   -1    0    0  502  501  0.00000000000E+00  0.00000000000E+00  0.10661834337E+02  0.10661834337E+02  0.00000000000E+00 0. -1.
         21   -1    0    0  501  502 -0.00000000000E+00 -0.00000000000E+00 -0.36637691756E+03  0.36637691756E+03  0.00000000000E+00 0. -1.
         25    1    1    2    0    0  0.00000000000E+00  0.00000000000E+00 -0.35571508323E+03  0.37703875190E+03  0.12500000000E+03 0.  0.
<mgrwt>
<rscale>  0 0.12500000E+03</rscale>
<asrwt>0</asrwt>
<pdfrwt beam="1">  1       21 0.16402820E-02 0.12500000E+03</pdfrwt>
<pdfrwt beam="2">  1       21 0.56365687E-01 0.12500000E+03</pdfrwt>
<totfact> 0.49601459E+06</totfact>
</mgrwt>
</event>
<event>
 3    1  0.1628330E-001  0.1250000E+03  0.7546771E-02  0.1235069E+00
         21   -1    0    0  502  501  0.00000000000E+00  0.00000000000E+00  0.50103140916E+02  0.50103140916E+02  0.00000000000E+00 0.  1.
         21   -1    0    0  501  502 -0.00000000000E+00 -0.00000000000E+00 -0.77964174073E+02  0.77964174073E+02  0.00000000000E+00 0.  1.
         25    1    1    2    0    0  0.00000000000E+00  0.00000000000E+00 -0.27861033157E+02  0.12806731499E+03  0.12500000000E+03 0.  0.
<mgrwt>
<rscale>  0 0.12500000E+03</rscale>
<asrwt>0</asrwt>
<pdfrwt beam="1">  1       21 0.77081756E-02 0.12500000E+03</pdfrwt>
<pdfrwt beam="2">  1       21 0.11994488E-01 0.12500000E+03</pdfrwt>
<totfact> 0.73624468E+06</totfact>
</mgrwt>
</event>
<event>
 3    1  0.1628330E-001  0.1250000E+03  0.7546771E-02  0.1235069E+00
         21   -1    0    0  502  501  0.00000000000E+00  0.00000000000E+00  0.37089839397E+02  0.37089839397E+02  0.00000000000E+00 0.  1.
         21   -1    0    0  501  502 -0.00000000000E+00 -0.00000000000E+00 -0.10531860109E+03  0.10531860109E+03  0.00000000000E+00 0.  1.
         25    1    1    2    0    0  0.00000000000E+00  0.00000000000E+00 -0.68228761693E+02  0.14240844049E+03  0.12500000000E+03 0.  0.
<mgrwt>
<rscale>  0 0.12500000E+03</rscale>
<asrwt>0</asrwt>
<pdfrwt beam="1">  1       21 0.57061291E-02 0.12500000E+03</pdfrwt>
<pdfrwt beam="2">  1       21 0.16202862E-01 0.12500000E+03</pdfrwt>
<totfact> 0.71726430E+06</totfact>
</mgrwt>
</event>
<event>
 3    1  0.1628330E-001  0.1250000E+03  0.7546771E-02  0.1235069E+00
         21   -1    0    0  502  501  0.00000000000E+00  0.00000000000E+00  0.88794077195E+02  0.88794077195E+02  0.00000000000E+00 0.  1.
         21   -1    0    0  501  502 -0.00000000000E+00 -0.00000000000E+00 -0.43992236007E+02  0.43992236007E+02  0.00000000000E+00 0.  1.
         25    1    1    2    0    0  0.00000000000E+00  0.00000000000E+00  0.44801841188E+02  0.13278631320E+03  0.12500000000E+03 0.  0.
<mgrwt>
<rscale>  0 0.12500000E+03</rscale>
<asrwt>0</asrwt>
<pdfrwt beam="1">  1       21 0.13660627E-01 0.12500000E+03</pdfrwt>
<pdfrwt beam="2">  1       21 0.67680363E-02 0.12500000E+03</pdfrwt>
<totfact> 0.72990946E+06</totfact>
</mgrwt>
</event>
<event>
 3    1  0.1628330E-001  0.1250000E+03  0.7546771E-02  0.1235069E+00
         21   -1    0    0  502  501  0.00000000000E+00  0.00000000000E+00  0.15226249981E+03  0.15226249981E+03  0.00000000000E+00 0. -1.
         21   -1    0    0  501  502 -0.00000000000E+00 -0.00000000000E+00 -0.25654708183E+02  0.25654708183E+02  0.00000000000E+00 0. -1.
         25    1    1    2    0    0  0.00000000000E+00  0.00000000000E+00  0.12660779163E+03  0.17791720800E+03  0.12500000000E+03 0.  0.
<mgrwt>
<rscale>  0 0.12500000E+03</rscale>
<asrwt>0</asrwt>
<pdfrwt beam="1">  1       21 0.23424999E-01 0.12500000E+03</pdfrwt>
<pdfrwt beam="2">  1       21 0.39468783E-02 0.12500000E+03</pdfrwt>
<totfact> 0.67391275E+06</totfact>
</mgrwt>
</event>
<event>
 3    1  0.1628330E-001  0.1250000E+03  0.7546771E-02  0.1235069E+00
         21   -1    0    0  502  501  0.00000000000E+00  0.00000000000E+00  0.66057759830E+02  0.66057759830E+02  0.00000000000E+00 0. -1.
         21   -1    0    0  501  502 -0.00000000000E+00 -0.00000000000E+00 -0.59133855130E+02  0.59133855130E+02  0.00000000000E+00 0. -1.
         25    1    1    2    0    0  0.00000000000E+00  0.00000000000E+00  0.69239046998E+01  0.12519161496E+03  0.12500000000E+03 0.  0.
<mgrwt>
<rscale>  0 0.12500000E+03</rscale>
<asrwt>0</asrwt>
<pdfrwt beam="1">  1       21 0.10162732E-01 0.12500000E+03</pdfrwt>
<pdfrwt beam="2">  1       21 0.90975162E-02 0.12500000E+03</pdfrwt>
<totfact> 0.74017704E+06</totfact>
</mgrwt>
</event>
<event>
 3    1  0.1628330E-001  0.1250000E+03  0.7546771E-02  0.1235069E+00
         21   -1    0    0  502  501  0.00000000000E+00  0.00000000000E+00  0.94999385808E+01  0.94999385808E+01  0.00000000000E+00 0.  1.
         21   -1    0    0  501  502 -0.00000000000E+00 -0.00000000000E+00 -0.41118686892E+03  0.41118686892E+03  0.00000000000E+00 0.  1.
         25    1    1    2    0    0  0.00000000000E+00  0.00000000000E+00 -0.40168693034E+03  0.42068680750E+03  0.12500000000E+03 0.  0.
<mgrwt>
<rscale>  0 0.12500000E+03</rscale>
<asrwt>0</asrwt>
<pdfrwt beam="1">  1       21 0.14615291E-02 0.12500000E+03</pdfrwt>
<pdfrwt beam="2">  1       21 0.63259515E-01 0.12500000E+03</pdfrwt>
<totfact> 0.46698820E+06</totfact>
</mgrwt>
</event>
<event>
 3    1  0.1628330E-001  0.1250000E+03  0.7546771E-02  0.1235069E+00
         21   -1    0    0  502  501  0.00000000000E+00  0.00000000000E+00  0.64476432105E+02  0.64476432105E+02  0.00000000000E+00 0. -1.
         21   -1    0    0  501  502 -0.00000000000E+00 -0.00000000000E+00 -0.60584152572E+02  0.60584152572E+02  0.00000000000E+00 0. -1.
         25    1    1    2    0    0  0.00000000000E+00  0.00000000000E+00  0.38922795330E+01  0.12506058468E+03  0.12500000000E+03 0.  0.
<mgrwt>
<rscale>  0 0.12500000E+03</rscale>
<asrwt>0</asrwt>
<pdfrwt beam="1">  1       21 0.99194510E-02 0.12500000E+03</pdfrwt>
<pdfrwt beam="2">  1       21 0.93206389E-02 0.12500000E+03</pdfrwt>
<totfact> 0.74035398E+06</totfact>
</mgrwt>
</event>
<event>
 3    1  0.1628330E-001  0.1250000E+03  0.7546771E-02  0.1235069E+00
         21   -1    0    0  502  501  0.00000000000E+00  0.00000000000E+00  0.59451627673E+03  0.59451627673E+03  0.00000000000E+00 0. -1.
         21   -1    0    0  501  502 -0.00000000000E+00 -0.00000000000E+00 -0.65704677111E+01  0.65704677111E+01  0.00000000000E+00 0. -1.
         25    1    1    2    0    0  0.00000000000E+00  0.00000000000E+00  0.58794580902E+03  0.60108674444E+03  0.12500000000E+03 0.  0.
<mgrwt>
<rscale>  0 0.12500000E+03</rscale>
<asrwt>0</asrwt>
<pdfrwt beam="1">  1       21 0.91464001E-01 0.12500000E+03</pdfrwt>
<pdfrwt beam="2">  1       21 0.10108417E-02 0.12500000E+03</pdfrwt>
<totfact> 0.37043543E+06</totfact>
</mgrwt>
</event>
<event>
 3    1  0.1628330E-001  0.1250000E+03  0.7546771E-02  0.1235069E+00
         21   -1    0    0  502  501  0.00000000000E+00  0.00000000000E+00  0.26761322822E+02  0.26761322822E+02  0.00000000000E+00 0.  1.
         21   -1    0    0  501  502 -0.00000000000E+00 -0.00000000000E+00 -0.14596625234E+03  0.14596625234E+03  0.00000000000E+00 0.  1.
         25    1    1    2    0    0  0.00000000000E+00  0.00000000000E+00 -0.11920492952E+03  0.17272757516E+03  0.12500000000E+03 0.  0.
<mgrwt>
<rscale>  0 0.12500000E+03</rscale>
<asrwt>0</asrwt>
<pdfrwt beam="1">  1       21 0.41171266E-02 0.12500000E+03</pdfrwt>
<pdfrwt beam="2">  1       21 0.22456346E-01 0.12500000E+03</pdfrwt>
<totfact> 0.67995759E+06</totfact>
</mgrwt>
</event>
<event>
 3    1  0.1628330E-001  0.1250000E+03  0.7546771E-02  0.1235069E+00
         21   -1    0    0  502  501  0.00000000000E+00  0.00000000000E+00  0.10562267622E+03  0.10562267622E+03  0.00000000000E+00 0. -1.
         21   -1    0    0  501  502 -0.00000000000E+00 -0.00000000000E+00 -0.36983062159E+02  0.36983062159E+02  0.00000000000E+00 0. -1.
         25    1    1    2    0    0  0.00000000000E+00  0.00000000000E+00  0.68639614062E+02  0.14260573838E+03  0.12500000000E+03 0.  0.
<mgrwt>
<rscale>  0 0.12500000E+03</rscale>
<asrwt>0</asrwt>
<pdfrwt beam="1">  1       21 0.16249642E-01 0.12500000E+03</pdfrwt>
<pdfrwt beam="2">  1       21 0.56897019E-02 0.12500000E+03</pdfrwt>
<totfact> 0.71700934E+06</totfact>
</mgrwt>
</event>
<event>
 3    1  0.1628330E-001  0.1250000E+03  0.7546771E-02  0.1235069E+00
         21   -1    0    0  502  501  0.00000000000E+00  0.00000000000E+00  0.81194777263E+01  0.81194777263E+01  0.00000000000E+00 0.  1.
         21   -1    0    0  501  502 -0.00000000000E+00 -0.00000000000E+00 -0.48109621477E+03  0.48109621477E+03  0.00000000000E+00 0.  1.
         25    1    1    2    0    0  0.00000000000E+00  0.00000000000E+00 -0.47297673704E+03  0.48921569249E+03  0.12500000000E+03 0.  0.
<mgrwt>
<rscale>  0 0.12500000E+03</rscale>
<asrwt>0</asrwt>
<pdfrwt beam="1">  1       21 0.12491504E-02 0.12500000E+03</pdfrwt>
<pdfrwt beam="2">  1       21 0.74014801E-01 0.12500000E+03</pdfrwt>
<totfact> 0.42635032E+06</totfact>
</mgrwt>
</event>
<event>
 3    1  0.1628330E-001  0.1250000E+03  0.7546771E-02  0.1235069E+00
         21   -1    0    0  502  501  0.00000000000E+00  0.00000000000E+00  0.38971347451E+02  0.38971347451E+02  0.00000000000E+00 0. -1.
         21   -1    0    0  501  502 -0.00000000000E+00 -0.00000000000E+00 -0.10023389632E+03  0.10023389632E+03  0.00000000000E+00 0. -1.
         25    1    1    2    0    0  0.00000000000E+00  0.00000000000E+00 -0.61262548872E+02  0.13920524377E+03  0.12500000000E+03 0.  0.
<mgrwt>
<rscale>  0 0.12500000E+03</rscale>
<asrwt>0</asrwt>
<pdfrwt beam="1">  1       21 0.59955919E-02 0.12500000E+03</pdfrwt>
<pdfrwt beam="2">  1       21 0.15420599E-01 0.12500000E+03</pdfrwt>
<totfact> 0.72143232E+06</totfact>
</mgrwt>
</event>
<event>
 3    1  0.1628330E-001  0.1250000E+03  0.7546771E-02  0.1235069E+00
         21   -1    0    0  502  501  0.00000000000E+00  0.00000000000E+00  0.14199666607E+02  0.14199666607E+02  0.00000000000E+00 0. -1.
         21   -1    0    0  501  502 -0.00000000000E+00 -0.00000000000E+00 -0.27509448695E+03  0.27509448695E+03  0.00000000000E+00 0. -1.
         25    1    1    2    0    0  0.00000000000E+00  0.00000000000E+00 -0.26089482034E+03  0.28929415356E+03  0.12500000000E+03 0.  0.
<mgrwt>
<rscale>  0 0.12500000E+03</rscale>
<asrwt>0</asrwt>
<pdfrwt beam="1">  1       21 0.21845642E-02 0.12500000E+03</pdfrwt>
<pdfrwt beam="2">  1       21 0.42322227E-01 0.12500000E+03</pdfrwt>
<totfact> 0.56357775E+06</totfact>
</mgrwt>
</event>
<event>
 3    1  0.1628330E-001  0.1250000E+03  0.7546771E-02  0.1235069E+00
         21   -1    0    0  502  501  0.00000000000E+00  0.00000000000E+00  0.32264867197E+02  0.32264867197E+02  0.00000000000E+00 0.  1.
         21   -1    0    0  501  502 -0.00000000000E+00 -0.00000000000E+00 -0.12106821876E+03  0.12106821876E+03  0.00000000000E+00 0.  1.
         25    1    1    2    0    0  0.00000000000E+00  0.00000000000E+00 -0.88803351559E+02  0.15333308595E+03  0.12500000000E+03 0.  0.
<mgrwt>
<rscale>  0 0.12500000E+03</rscale>
<asrwt>0</asrwt>
<pdfrwt beam="1">  1       21 0.49638258E-02 0.12500000E+03</pdfrwt>
<pdfrwt beam="2">  1       21 0.18625880E-01 0.12500000E+03</pdfrwt>
<totfact> 0.70342973E+06</totfact>
</mgrwt>
</event>
<event>
 3    1  0.1628330E-001  0.1250000E+03  0.7546771E-02  0.1235069E+00
         21   -1    0    0  502  501  0.00000000000E+00  0.00000000000E+00  0.16499906061E+03  0.16499906061E+03  0.00000000000E+00 0.  1.
         21   -1    0    0  501  502 -0.00000000000E+00 -0.00000000000E+00 -0.23674377209E+02  0.23674377209E+02  0.00000000000E+00 0.  1.
         25    1    1    2    0    0  0.00000000000E+00  0.00000000000E+00  0.14132468340E+03  0.18867343782E+03  0.12500000000E+03 0.  0.
<mgrwt>
<rscale>  0 0.12500000E+03</rscale>
<asrwt>0</asrwt>
<pdfrwt beam="1">  1       21 0.25384470E-01 0.12500000E+03</pdfrwt>
<pdfrwt beam="2">  1       21 0.36422120E-02 0.12500000E+03</pdfrwt>
<totfact> 0.66170203E+06</totfact>
</mgrwt>
</event>
<event>
 3    1  0.1628330E-001  0.1250000E+03  0.7546771E-02  0.1235069E+00
         21   -1    0    0  502  501  0.00000000000E+00  0.00000000000E+00  0.22130492996E+03  0.22130492996E+03  0.00000000000E+00 0.  1.
         21   -1    0    0  501  502 -0.00000000000E+00 -0.00000000000E+00 -0.17650985004E+02  0.17650985004E+02  0.00000000000E+00 0.  1.
         25    1    1    2    0    0  0.00000000000E+00  0.00000000000E+00  0.20365394496E+03  0.23895591496E+03  0.12500000000E+03 0.  0.
<mgrwt>
<rscale>  0 0.12500000E+03</rscale>
<asrwt>0</asrwt>
<pdfrwt beam="1">  1       21 0.34046910E-01 0.12500000E+03</pdfrwt>
<pdfrwt beam="2">  1       21 0.27155363E-02 0.12500000E+03</pdfrwt>
<totfact> 0.60933844E+06</totfact>
</mgrwt>
</event>
<event>
 3    1  0.1628330E-001  0.1250000E+03  0.7546771E-02  0.1235069E+00
         21   -1    0    0  502  501  0.00000000000E+00  0.00000000000E+00  0.53447479275E+02  0.53447479275E+02  0.00000000000E+00 0. -1.
         21   -1    0    0  501  502 -0.00000000000E+00 -0.00000000000E+00 -0.73085766681E+02  0.73085766681E+02  0.00000000000E+00 0. -1.
         25    1    1    2    0    0  0.00000000000E+00  0.00000000000E+00 -0.19638287405E+02  0.12653324596E+03  0.12500000000E+03 0.  0.
<mgrwt>
<rscale>  0 0.12500000E+03</rscale>
<asrwt>0</asrwt>
<pdfrwt beam="1">  1       21 0.82226892E-02 0.12500000E+03</pdfrwt>
<pdfrwt beam="2">  1       21 0.11243964E-01 0.12500000E+03</pdfrwt>
<totfact> 0.73832824E+06</totfact>
</mgrwt>
</event>
<event>
 3    1  0.1628330E-001  0.1250000E+03  0.7546771E-02  0.1235069E+00
         21   -1    0    0  502  501  0.00000000000E+00  0.00000000000E+00  0.48933669788E+03  0.48933669788E+03  0.00000000000E+00 0.  1.
         21   -1    0    0  501  502 -0.00000000000E+00 -0.00000000000E+00 -0.79827448400E+01  0.79827448400E+01  0.00000000000E+00 0.  1.
         25    1    1    2    0    0  0.00000000000E+00  0.00000000000E+00  0.48135395304E+03  0.49731944272E+03  0.12500000000E+03 0.  0.
<mgrwt>
<rscale>  0 0.12500000E+03</rscale>
<asrwt>0</asrwt>
<pdfrwt beam="1">  1       21 0.75282546E-01 0.12500000E+03</pdfrwt>
<pdfrwt beam="2">  1       21 0.12281150E-02 0.12500000E+03</pdfrwt>
<totfact> 0.42189825E+06</totfact>
</mgrwt>
</event>
<event>
 3    1  0.1628330E-001  0.1250000E+03  0.7546771E-02  0.1235069E+00
         21   -1    0    0  502  501  0.00000000000E+00  0.00000000000E+00  0.11720496081E+03  0.11720496081E+03  0.00000000000E+00 0.  1.
         21   -1    0    0  501  502 -0.00000000000E+00 -0.00000000000E+00 -0.33328367444E+02  0.33328367444E+02  0.00000000000E+00 0.  1.
         25    1    1    2    0    0  0.00000000000E+00  0.00000000000E+00  0.83876593363E+02  0.15053332825E+03  0.12500000000E+03 0.  0.
<mgrwt>
<rscale>  0 0.12500000E+03</rscale>
<asrwt>0</asrwt>
<pdfrwt beam="1">  1       21 0.18031532E-01 0.12500000E+03</pdfrwt>
<pdfrwt beam="2">  1       21 0.51274412E-02 0.12500000E+03</pdfrwt>
<totfact> 0.70692270E+06</totfact>
</mgrwt>
</event>
<event>
 3    1  0.1628330E-001  0.1250000E+03  0.7546771E-02  0.1235069E+00
         21   -1    0    0  502  501  0.00000000000E+00  0.00000000000E+00  0.18252064720E+02  0.18252064720E+02  0.00000000000E+00 0.  1.
         21   -1    0    0  501  502 -0.00000000000E+00 -0.00000000000E+00 -0.21401688301E+03  0.21401688301E+03  0.00000000000E+00 0.  1.
         25    1    1    2    0    0  0.00000000000E+00  0.00000000000E+00 -0.19576481829E+03  0.23226894773E+03  0.12500000000E+03 0.  0.
<mgrwt>
<rscale>  0 0.12500000E+03</rscale>
<asrwt>0</asrwt>
<pdfrwt beam="1">  1       21 0.28080099E-02 0.12500000E+03</pdfrwt>
<pdfrwt beam="2">  1       21 0.32925675E-01 0.12500000E+03</pdfrwt>
<totfact> 0.61588901E+06</totfact>
</mgrwt>
</event>
<event>
 3    1  0.1628330E-001  0.1250000E+03  0.7546771E-02  0.1235069E+00
         21   -1    0    0  502  501  0.00000000000E+00  0.00000000000E+00  0.80297940004E+01  0.80297940004E+01  0.00000000000E+00 0. -1.
         21   -1    0    0  501  502 -0.00000000000E+00 -0.00000000000E+00 -0.48646951588E+03  0.48646951588E+03  0.00000000000E+00 0. -1.
         25    1    1    2    0    0  0.00000000000E+00  0.00000000000E+00 -0.47843972188E+03  0.49449930988E+03  0.12500000000E+03 0.  0.
<mgrwt>
<rscale>  0 0.12500000E+03</rscale>
<asrwt>0</asrwt>
<pdfrwt beam="1">  1       21 0.12353525E-02 0.12500000E+03</pdfrwt>
<pdfrwt beam="2">  1       21 0.74841488E-01 0.12500000E+03</pdfrwt>
<totfact> 0.42343957E+06</totfact>
</mgrwt>
</event>
<event>
 3    1  0.1628330E-001  0.1250000E+03  0.7546771E-02  0.1235069E+00
         21   -1    0    0  502  501  0.00000000000E+00  0.00000000000E+00  0.22076374864E+02  0.22076374864E+02  0.00000000000E+00 0.  1.
         21   -1    0    0  501  502 -0.00000000000E+00 -0.00000000000E+00 -0.17694254714E+03  0.17694254714E+03  0.00000000000E+00 0.  1.
         25    1    1    2    0    0  0.00000000000E+00  0.00000000000E+00 -0.15486617227E+03  0.19901892200E+03  0.12500000000E+03 0.  0.
<mgrwt>
<rscale>  0 0.12500000E+03</rscale>
<asrwt>0</asrwt>
<pdfrwt beam="1">  1       21 0.33963653E-02 0.12500000E+03</pdfrwt>
<pdfrwt beam="2">  1       21 0.27221930E-01 0.12500000E+03</pdfrwt>
<totfact> 0.65033713E+06</totfact>
</mgrwt>
</event>
<event>
 3    1  0.1628330E-001  0.1250000E+03  0.7546771E-02  0.1235069E+00
         21   -1    0    0  502  501  0.00000000000E+00  0.00000000000E+00  0.99716023807E+02  0.99716023807E+02  0.00000000000E+00 0. -1.
         21   -1    0    0  501  502 -0.00000000000E+00 -0.00000000000E+00 -0.39173744107E+02  0.39173744107E+02  0.00000000000E+00 0. -1.
         25    1    1    2    0    0  0.00000000000E+00  0.00000000000E+00  0.60542279699E+02  0.13888976791E+03  0.12500000000E+03 0.  0.
<mgrwt>
<rscale>  0 0.12500000E+03</rscale>
<asrwt>0</asrwt>
<pdfrwt beam="1">  1       21 0.15340927E-01 0.12500000E+03</pdfrwt>
<pdfrwt beam="2">  1       21 0.60267299E-02 0.12500000E+03</pdfrwt>
<totfact> 0.72184580E+06</totfact>
</mgrwt>
</event>
<event>
 3    1  0.1628330E-001  0.1250000E+03  0.7546771E-02  0.1235069E+00
         21   -1    0    0  502  501  0.00000000000E+00  0.00000000000E+00  0.54752178549E+02  0.54752178549E+02  0.00000000000E+00 0.  1.
         21   -1    0    0  501  502 -0.00000000000E+00 -0.00000000000E+00 -0.71344193118E+02  0.71344193118E+02  0.00000000000E+00 0.  1.
         25    1    1    2    0    0  0.00000000000E+00  0.00000000000E+00 -0.16592014569E+02  0.12609637167E+03  0.12500000000E+03 0.  0.
<mgrwt>
<rscale>  0 0.12500000E+03</rscale>
<asrwt>0</asrwt>
<pdfrwt beam="1">  1       21 0.84234121E-02 0.12500000E+03</pdfrwt>
<pdfrwt beam="2">  1       21 0.10976030E-01 0.12500000E+03</pdfrwt>
<totfact> 0.73892762E+06</totfact>
</mgrwt>
</event>
<event>
 3    1  0.1628330E-001  0.1250000E+03  0.7546771E-02  0.1235069E+00
         21   -1    0    0  502  501  0.00000000000E+00  0.00000000000E+00  0.97649201256E+02  0.97649201256E+02  0.00000000000E+00 0.  1.
         21   -1    0    0  501  502 -0.00000000000E+00 -0.00000000000E+00 -0.40002887374E+02  0.40002887374E+02  0.00000000000E+00 0.  1.
         25    1    1    2    0    0  0.00000000000E+00  0.00000000000E+00  0.57646313882E+02  0.13765208863E+03  0.12500000000E+03 0.  0.
<mgrwt>
<rscale>  0 0.12500000E+03</rscale>
<asrwt>0</asrwt>
<pdfrwt beam="1">  1       21 0.15022954E-01 0.12500000E+03</pdfrwt>
<pdfrwt beam="2">  1       21 0.61542904E-02 0.12500000E+03</pdfrwt>
<totfact> 0.72347184E+06</totfact>
</mgrwt>
</event>
<event>
 3    1  0.1628330E-001  0.1250000E+03  0.7546771E-02  0.1235069E+00
         21   -1    0    0  502  501  0.00000000000E+00  0.00000000000E+00  0.79040214919E+02  0.79040214919E+02  0.00000000000E+00 0.  1.
         21   -1    0    0  501  502 -0.00000000000E+00 -0.00000000000E+00 -0.49421044768E+02  0.49421044768E+02  0.00000000000E+00 0.  1.
         25    1    1    2    0    0  0.00000000000E+00  0.00000000000E+00  0.29619170151E+02  0.12846125969E+03  0.12500000000E+03 0.  0.
<mgrwt>
<rscale>  0 0.12500000E+03</rscale>
<asrwt>0</asrwt>
<pdfrwt beam="1">  1       21 0.12160033E-01 0.12500000E+03</pdfrwt>
<pdfrwt beam="2">  1       21 0.76032377E-02 0.12500000E+03</pdfrwt>
<totfact> 0.73571340E+06</totfact>
</mgrwt>
</event>
<event>
 3    1  0.1628330E-001  0.1250000E+03  0.7546771E-02  0.1235069E+00
         21   -1    0    0  502  501  0.00000000000E+00  0.00000000000E+00  0.54729001047E+03  0.54729001047E+03  0.00000000000E+00 0.  1.
         21   -1    0    0  501  502 -0.00000000000E+00 -0.00000000000E+00 -0.71374407083E+01  0.71374407083E+01  0.00000000000E+00 0.  1.
         25    1    1    2    0    0  0.00000000000E+00  0.00000000000E+00  0.54015256977E+03  0.55442745118E+03  0.12500000000E+03 0.  0.
<mgrwt>
<rscale>  0 0.12500000E+03</rscale>
<asrwt>0</asrwt>
<pdfrwt beam="1">  1       21 0.84198430E-01 0.12500000E+03</pdfrwt>
<pdfrwt beam="2">  1       21 0.10980682E-02 0.12500000E+03</pdfrwt>
<totfact> 0.39238195E+06</totfact>
</mgrwt>
</event>
<event>
 3    1  0.1628330E-001  0.1250000E+03  0.7546771E-02  0.1235069E+00
         21   -1    0    0  502  501  0.00000000000E+00  0.00000000000E+00  0.74295032348E+02  0.74295032348E+02  0.00000000000E+00 0.  1.
         21   -1    0    0  501  502 -0.00000000000E+00 -0.00000000000E+00 -0.52577539528E+02  0.52577539528E+02  0.00000000000E+00 0.  1.
         25    1    1    2    0    0  0.00000000000E+00  0.00000000000E+00  0.21717492819E+02  0.12687257188E+03  0.12500000000E+03 0.  0.
<mgrwt>
<rscale>  0 0.12500000E+03</rscale>
<asrwt>0</asrwt>
<pdfrwt beam="1">  1       21 0.11430005E-01 0.12500000E+03</pdfrwt>
<pdfrwt beam="2">  1       21 0.80888522E-02 0.12500000E+03</pdfrwt>
<totfact> 0.73786493E+06</totfact>
</mgrwt>
</event>
<event>
 3    1  0.1628330E-001  0.1250000E+03  0.7546771E-02  0.1235069E+00
         21   -1    0    0  502  501  0.00000000000E+00  0.00000000000E+00  0.21948917783E+03  0.21948917783E+03  0.00000000000E+00 0. -1.
         21   -1    0    0  501  502 -0.00000000000E+00 -0.00000000000E+00 -0.17797005022E+02  0.17797005022E+02  0.00000000000E+00 0. -1.
         25    1    1    2    0    0  0.00000000000E+00  0.00000000000E+00  0.20169217280E+03  0.23728618285E+03  0.12500000000E+03 0.  0.
<mgrwt>
<rscale>  0 0.12500000E+03</rscale>
<asrwt>0</asrwt>
<pdfrwt beam="1">  1       21 0.33767564E-01 0.12500000E+03</pdfrwt>
<pdfrwt beam="2">  1       21 0.27380009E-02 0.12500000E+03</pdfrwt>
<totfact> 0.61096266E+06</totfact>
</mgrwt>
</event>
<event>
 3    1  0.1628330E-001  0.1250000E+03  0.7546771E-02  0.1235069E+00
         21   -1    0    0  502  501  0.00000000000E+00  0.00000000000E+00  0.26581172294E+02  0.26581172294E+02  0.00000000000E+00 0. -1.
         21   -1    0    0  501  502 -0.00000000000E+00 -0.00000000000E+00 -0.14695552012E+03  0.14695552012E+03  0.00000000000E+00 0. -1.
         25    1    1    2    0    0  0.00000000000E+00  0.00000000000E+00 -0.12037434783E+03  0.17353669242E+03  0.12500000000E+03 0.  0.
<mgrwt>
<rscale>  0 0.12500000E+03</rscale>
<asrwt>0</asrwt>
<pdfrwt beam="1">  1       21 0.40894112E-02 0.12500000E+03</pdfrwt>
<pdfrwt beam="2">  1       21 0.22608541E-01 0.12500000E+03</pdfrwt>
<totfact> 0.67900834E+06</totfact>
</mgrwt>
</event>
<event>
 3    1  0.1628330E-001  0.1250000E+03  0.7546771E-02  0.1235069E+00
         21   -1    0    0  502  501  0.00000000000E+00  0.00000000000E+00  0.16845883459E+03  0.16845883459E+03  0.00000000000E+00 0. -1.
         21   -1    0    0  501  502 -0.00000000000E+00 -0.00000000000E+00 -0.23188157567E+02  0.23188157567E+02  0.00000000000E+00 0. -1.
         25    1    1    2    0    0  0.00000000000E+00  0.00000000000E+00  0.14527067702E+03  0.19164699216E+03  0.12500000000E+03 0.  0.
<mgrwt>
<rscale>  0 0.12500000E+03</rscale>
<asrwt>0</asrwt>
<pdfrwt beam="1">  1       21 0.25916743E-01 0.12500000E+03</pdfrwt>
<pdfrwt beam="2">  1       21 0.35674090E-02 0.12500000E+03</pdfrwt>
<totfact> 0.65839883E+06</totfact>
</mgrwt>
</event>
<event>
 3    1  0.1628330E-001  0.1250000E+03  0.7546771E-02  0.1235069E+00
         21   -1    0    0  502  501  0.00000000000E+00  0.00000000000E+00  0.43828189766E+01  0.43828189766E+01  0.00000000000E+00 0.  1.
         21   -1    0    0  501  502 -0.00000000000E+00 -0.00000000000E+00 -0.89126428011E+03  0.89126428011E+03  0.00000000000E+00 0.  1.
         25    1    1    2    0    0  0.00000000000E+00  0.00000000000E+00 -0.88688146113E+03  0.89564709909E+03  0.12500000000E+03 0.  0.
<mgrwt>
<rscale>  0 0.12500000E+03</rscale>
<asrwt>0</asrwt>
<pdfrwt beam="1">  1       21 0.67427984E-03 0.12500000E+03</pdfrwt>
<pdfrwt beam="2">  1       21 0.13711758E+00 0.12500000E+03</pdfrwt>
<totfact> 0.26424656E+06</totfact>
</mgrwt>
</event>
<event>
 3    1  0.1628330E-001  0.1250000E+03  0.7546771E-02  0.1235069E+00
         21   -1    0    0  502  501  0.00000000000E+00  0.00000000000E+00  0.49100124194E+02  0.49100124194E+02  0.00000000000E+00 0.  1.
         21   -1    0    0  501  502 -0.00000000000E+00 -0.00000000000E+00 -0.79556825245E+02  0.79556825245E+02  0.00000000000E+00 0.  1.
         25    1    1    2    0    0  0.00000000000E+00  0.00000000000E+00 -0.30456701050E+02  0.12865694944E+03  0.12500000000E+03 0.  0.
<mgrwt>
<rscale>  0 0.12500000E+03</rscale>
<asrwt>0</asrwt>
<pdfrwt beam="1">  1       21 0.75538653E-02 0.12500000E+03</pdfrwt>
<pdfrwt beam="2">  1       21 0.12239512E-01 0.12500000E+03</pdfrwt>
<totfact> 0.73544995E+06</totfact>
</mgrwt>
</event>
<event>
 3    1  0.1628330E-001  0.1250000E+03  0.7546771E-02  0.1235069E+00
         21   -1    0    0  502  501  0.00000000000E+00  0.00000000000E+00  0.39841010401E+03  0.39841010401E+03  0.00000000000E+00 0. -1.
         21   -1    0    0  501  502 -0.00000000000E+00 -0.00000000000E+00 -0.98045957185E+01  0.98045957185E+01  0.00000000000E+00 0. -1.
         25    1    1    2    0    0  0.00000000000E+00  0.00000000000E+00  0.38860550829E+03  0.40821469973E+03  0.12500000000E+03 0.  0.
<mgrwt>
<rscale>  0 0.12500000E+03</rscale>
<asrwt>0</asrwt>
<pdfrwt beam="1">  1       21 0.61293850E-01 0.12500000E+03</pdfrwt>
<pdfrwt beam="2">  1       21 0.15083996E-02 0.12500000E+03</pdfrwt>
<totfact> 0.47501215E+06</totfact>
</mgrwt>
</event>
<event>
 3    1  0.1628330E-001  0.1250000E+03  0.7546771E-02  0.1235069E+00
         21   -1    0    0  502  501  0.00000000000E+00  0.00000000000E+00  0.29208626260E+03  0.29208626260E+03  0.00000000000E+00 0. -1.
         21   -1    0    0  501  502 -0.00000000000E+00 -0.00000000000E+00 -0.13373617661E+02  0.13373617661E+02  0.00000000000E+00 0. -1.
         25    1    1    2    0    0  0.00000000000E+00  0.00000000000E+00  0.27871264494E+03  0.30545988026E+03  0.12500000000E+03 0.  0.
<mgrwt>
<rscale>  0 0.12500000E+03</rscale>
<asrwt>0</asrwt>
<pdfrwt beam="1">  1       21 0.44936343E-01 0.12500000E+03</pdfrwt>
<pdfrwt beam="2">  1       21 0.20574799E-02 0.12500000E+03</pdfrwt>
<totfact> 0.55005469E+06</totfact>
</mgrwt>
</event>
<event>
 3    1  0.1628330E-001  0.1250000E+03  0.7546771E-02  0.1235069E+00
         21   -1    0    0  502  501  0.00000000000E+00  0.00000000000E+00  0.15754585580E+03  0.15754585580E+03  0.00000000000E+00 0. -1.
         21   -1    0    0  501  502 -0.00000000000E+00 -0.00000000000E+00 -0.24794368472E+02  0.24794368472E+02  0.00000000000E+00 0. -1.
         25    1    1    2    0    0  0.00000000000E+00  0.00000000000E+00  0.13275148733E+03  0.18234022427E+03  0.12500000000E+03 0.  0.
<mgrwt>
<rscale>  0 0.12500000E+03</rscale>
<asrwt>0</asrwt>
<pdfrwt beam="1">  1       21 0.24237823E-01 0.12500000E+03</pdfrwt>
<pdfrwt beam="2">  1       21 0.38145183E-02 0.12500000E+03</pdfrwt>
<totfact> 0.66884083E+06</totfact>
</mgrwt>
</event>
<event>
 3    1  0.1628330E-001  0.1250000E+03  0.7546771E-02  0.1235069E+00
         21   -1    0    0  502  501  0.00000000000E+00  0.00000000000E+00  0.72826636697E+03  0.72826636697E+03  0.00000000000E+00 0. -1.
         21   -1    0    0  501  502 -0.00000000000E+00 -0.00000000000E+00 -0.53637654808E+01  0.53637654808E+01  0.00000000000E+00 0. -1.
         25    1    1    2    0    0  0.00000000000E+00  0.00000000000E+00  0.72290260149E+03  0.73363013245E+03  0.12500000000E+03 0.  0.
<mgrwt>
<rscale>  0 0.12500000E+03</rscale>
<asrwt>0</asrwt>
<pdfrwt beam="1">  1       21 0.11204090E+00 0.12500000E+03</pdfrwt>
<pdfrwt beam="2">  1       21 0.82519527E-03 0.12500000E+03</pdfrwt>
<totfact> 0.31653185E+06</totfact>
</mgrwt>
</event>
<event>
 3    1  0.1628330E-001  0.1250000E+03  0.7546771E-02  0.1235069E+00
         21   -1    0    0  502  501  0.00000000000E+00  0.00000000000E+00  0.29751451658E+03  0.29751451658E+03  0.00000000000E+00 0. -1.
         21   -1    0    0  501  502 -0.00000000000E+00 -0.00000000000E+00 -0.13129611439E+02  0.13129611439E+02  0.00000000000E+00 0. -1.
         25    1    1    2    0    0  0.00000000000E+00  0.00000000000E+00  0.28438490514E+03  0.31064412802E+03  0.12500000000E+03 0.  0.
<mgrwt>
<rscale>  0 0.12500000E+03</rscale>
<asrwt>0</asrwt>
<pdfrwt beam="1">  1       21 0.45771459E-01 0.12500000E+03</pdfrwt>
<pdfrwt beam="2">  1       21 0.20199404E-02 0.12500000E+03</pdfrwt>
<totfact> 0.54583046E+06</totfact>
</mgrwt>
</event>
<event>
 3    1  0.1628330E-001  0.1250000E+03  0.7546771E-02  0.1235069E+00
         21   -1    0    0  502  501  0.00000000000E+00  0.00000000000E+00  0.15847621480E+02  0.15847621480E+02  0.00000000000E+00 0.  1.
         21   -1    0    0  501  502 -0.00000000000E+00 -0.00000000000E+00 -0.24648809318E+03  0.24648809318E+03  0.00000000000E+00 0.  1.
         25    1    1    2    0    0  0.00000000000E+00  0.00000000000E+00 -0.23064047170E+03  0.26233571466E+03  0.12500000000E+03 0.  0.
<mgrwt>
<rscale>  0 0.12500000E+03</rscale>
<asrwt>0</asrwt>
<pdfrwt beam="1">  1       21 0.24380955E-02 0.12500000E+03</pdfrwt>
<pdfrwt beam="2">  1       21 0.37921247E-01 0.12500000E+03</pdfrwt>
<totfact> 0.58735848E+06</totfact>
</mgrwt>
</event>
<event>
 3    1  0.1628330E-001  0.1250000E+03  0.7546771E-02  0.1235069E+00
         21   -1    0    0  502  501  0.00000000000E+00  0.00000000000E+00  0.66240724482E+03  0.66240724482E+03  0.00000000000E+00 0.  1.
         21   -1    0    0  501  502 -0.00000000000E+00 -0.00000000000E+00 -0.58970520485E+01  0.58970520485E+01  0.00000000000E+00 0.  1.
         25    1    1    2    0    0  0.00000000000E+00  0.00000000000E+00  0.65651019277E+03  0.66830429687E+03  0.12500000000E+03 0.  0.
<mgrwt>
<rscale>  0 0.12500000E+03</rscale>
<asrwt>0</asrwt>
<pdfrwt beam="1">  1       21 0.10190875E+00 0.12500000E+03</pdfrwt>
<pdfrwt beam="2">  1       21 0.90723930E-03 0.12500000E+03</pdfrwt>
<totfact> 0.34168281E+06</totfact>
</mgrwt>
</event>
<event>
 3    1  0.1628330E-001  0.1250000E+03  0.7546771E-02  0.1235069E+00
         21   -1    0    0  502  501  0.00000000000E+00  0.00000000000E+00  0.31135086401E+03  0.31135086401E+03  0.00000000000E+00 0. -1.
         21   -1    0    0  501  502 -0.00000000000E+00 -0.00000000000E+00 -0.12546135089E+02  0.12546135089E+02  0.00000000000E+00 0. -1.
         25    1    1    2    0    0  0.00000000000E+00  0.00000000000E+00  0.29880472892E+03  0.32389699910E+03  0.12500000000E+03 0.  0.
<mgrwt>
<rscale>  0 0.12500000E+03</rscale>
<asrwt>0</asrwt>
<pdfrwt beam="1">  1       21 0.47900127E-01 0.12500000E+03</pdfrwt>
<pdfrwt beam="2">  1       21 0.19301749E-02 0.12500000E+03</pdfrwt>
<totfact> 0.53525966E+06</totfact>
</mgrwt>
</event>
<event>
 3    1  0.1628330E-001  0.1250000E+03  0.7546771E-02  0.1235069E+00
         21   -1    0    0  502  501  0.00000000000E+00  0.00000000000E+00  0.57927471806E+02  0.57927471806E+02  0.00000000000E+00 0.  1.
         21   -1    0    0  501  502 -0.00000000000E+00 -0.00000000000E+00 -0.67433462539E+02  0.67433462539E+02  0.00000000000E+00 0.  1.
         25    1    1    2    0    0  0.00000000000E+00  0.00000000000E+00 -0.95059907335E+01  0.12536093434E+03  0.12500000000E+03 0.  0.
<mgrwt>
<rscale>  0 0.12500000E+03</rscale>
<asrwt>0</asrwt>
<pdfrwt beam="1">  1       21 0.89119187E-02 0.12500000E+03</pdfrwt>
<pdfrwt beam="2">  1       21 0.10374379E-01 0.12500000E+03</pdfrwt>
<totfact> 0.73994847E+06</totfact>
</mgrwt>
</event>
<event>
 3    1  0.1628330E-001  0.1250000E+03  0.7546771E-02  0.1235069E+00
         21   -1    0    0  502  501  0.00000000000E+00  0.00000000000E+00  0.15259650955E+03  0.15259650955E+03  0.00000000000E+00 0.  1.
         21   -1    0    0  501  502 -0.00000000000E+00 -0.00000000000E+00 -0.25598554065E+02  0.25598554065E+02  0.00000000000E+00 0.  1.
         25    1    1    2    0    0  0.00000000000E+00  0.00000000000E+00  0.12699795549E+03  0.17819506362E+03  0.12500000000E+03 0.  0.
<mgrwt>
<rscale>  0 0.12500000E+03</rscale>
<asrwt>0</asrwt>
<pdfrwt beam="1">  1       21 0.23476386E-01 0.12500000E+03</pdfrwt>
<pdfrwt beam="2">  1       21 0.39382392E-02 0.12500000E+03</pdfrwt>
<totfact> 0.67359199E+06</totfact>
</mgrwt>
</event>
<event>
 3    1  0.1628330E-001  0.1250000E+03  0.7546771E-02  0.1235069E+00
         21   -1    0    0  502  501  0.00000000000E+00  0.00000000000E+00  0.20577912310E+03  0.20577912310E+03  0.00000000000E+00 0.  1.
         21   -1    0    0  501  502 -0.00000000000E+00 -0.00000000000E+00 -0.18982732267E+02  0.18982732267E+02  0.00000000000E+00 0.  1.
         25    1    1    2    0    0  0.00000000000E+00  0.00000000000E+00  0.18679639083E+03  0.22476185537E+03  0.12500000000E+03 0.  0.
<mgrwt>
<rscale>  0 0.12500000E+03</rscale>
<asrwt>0</asrwt>
<pdfrwt beam="1">  1       21 0.31658325E-01 0.12500000E+03</pdfrwt>
<pdfrwt beam="2">  1       21 0.29204205E-02 0.12500000E+03</pdfrwt>
<totfact> 0.62339101E+06</totfact>
</mgrwt>
</event>
<event>
 3    1  0.1628330E-001  0.1250000E+03  0.7546771E-02  0.1235069E+00
         21   -1    0    0  502  501  0.00000000000E+00  0.00000000000E+00  0.16404553172E+03  0.16404553172E+03  0.00000000000E+00 0.  1.
         21   -1    0    0  501  502 -0.00000000000E+00 -0.00000000000E+00 -0.23811986581E+02  0.23811986581E+02  0.00000000000E+00 0.  1.
         25    1    1    2    0    0  0.00000000000E+00  0.00000000000E+00  0.14023354514E+03  0.18785751830E+03  0.12500000000E+03 0.  0.
<mgrwt>
<rscale>  0 0.12500000E+03</rscale>
<asrwt>0</asrwt>
<pdfrwt beam="1">  1       21 0.25237773E-01 0.12500000E+03</pdfrwt>
<pdfrwt beam="2">  1       21 0.36633827E-02 0.12500000E+03</pdfrwt>
<totfact> 0.66261376E+06</totfact>
</mgrwt>
</event>
<event>
 3    1  0.1628330E-001  0.1250000E+03  0.7546771E-02  0.1235069E+00
         21   -1    0    0  502  501  0.00000000000E+00  0.00000000000E+00  0.17286388037E+02  0.17286388037E+02  0.00000000000E+00 0. -1.
         21   -1    0    0  501  502 -0.00000000000E+00 -0.00000000000E+00 -0.22597259714E+03  0.22597259714E+03  0.00000000000E+00 0. -1.
         25    1    1    2    0    0  0.00000000000E+00  0.00000000000E+00 -0.20868620910E+03  0.24325898518E+03  0.12500000000E+03 0.  0.
<mgrwt>
<rscale>  0 0.12500000E+03</rscale>
<asrwt>0</asrwt>
<pdfrwt beam="1">  1       21 0.26594443E-02 0.12500000E+03</pdfrwt>
<pdfrwt beam="2">  1       21 0.34765014E-01 0.12500000E+03</pdfrwt>
<totfact> 0.60518716E+06</totfact>
</mgrwt>
</event>
<event>
 3    1  0.1628330E-001  0.1250000E+03  0.7546771E-02  0.1235069E+00
         21   -1    0    0  502  501  0.00000000000E+00  0.00000000000E+00  0.19923111783E+02  0.19923111783E+02  0.00000000000E+00 0. -1.
         21   -1    0    0  501  502 -0.00000000000E+00 -0.00000000000E+00 -0.19606625926E+03  0.19606625926E+03  0.00000000000E+00 0. -1.
         25    1    1    2    0    0  0.00000000000E+00  0.00000000000E+00 -0.17614314747E+03  0.21598937104E+03  0.12500000000E+03 0.  0.
<mgrwt>
<rscale>  0 0.12500000E+03</rscale>
<asrwt>0</asrwt>
<pdfrwt beam="1">  1       21 0.30650941E-02 0.12500000E+03</pdfrwt>
<pdfrwt beam="2">  1       21 0.30164040E-01 0.12500000E+03</pdfrwt>
<totfact> 0.63234843E+06</totfact>
</mgrwt>
</event>
<event>
 3    1  0.1628330E-001  0.1250000E+03  0.7546771E-02  0.1235069E+00
         21   -1    0    0  502  501  0.00000000000E+00  0.00000000000E+00  0.16718173540E+03  0.16718173540E+03  0.00000000000E+00 0. -1.
         21   -1    0    0  501  502 -0.00000000000E+00 -0.00000000000E+00 -0.23365291613E+02  0.23365291613E+02  0.00000000000E+00 0. -1.
         25    1    1    2    0    0  0.00000000000E+00  0.00000000000E+00  0.14381644379E+03  0.19054702701E+03  0.12500000000E+03 0.  0.
<mgrwt>
<rscale>  0 0.12500000E+03</rscale>
<asrwt>0</asrwt>
<pdfrwt beam="1">  1       21 0.25720266E-01 0.12500000E+03</pdfrwt>
<pdfrwt beam="2">  1       21 0.35946603E-02 0.12500000E+03</pdfrwt>
<totfact> 0.65961719E+06</totfact>
</mgrwt>
</event>
<event>
 3    1  0.1628330E-001  0.1250000E+03  0.7546771E-02  0.1235069E+00
         21   -1    0    0  502  501  0.00000000000E+00  0.00000000000E+00  0.54811858792E+01  0.54811858792E+01  0.00000000000E+00 0.  1.
         21   -1    0    0  501  502 -0.00000000000E+00 -0.00000000000E+00 -0.71266512140E+03  0.71266512140E+03  0.00000000000E+00 0.  1.
         25    1    1    2    0    0  0.00000000000E+00  0.00000000000E+00 -0.70718393552E+03  0.71814630728E+03  0.12500000000E+03 0.  0.
<mgrwt>
<rscale>  0 0.12500000E+03</rscale>
<asrwt>0</asrwt>
<pdfrwt beam="1">  1       21 0.84325921E-03 0.12500000E+03</pdfrwt>
<pdfrwt beam="2">  1       21 0.10964081E+00 0.12500000E+03</pdfrwt>
<totfact> 0.32222172E+06</totfact>
</mgrwt>
</event>
<event>
 3    1  0.1628330E-001  0.1250000E+03  0.7546771E-02  0.1235069E+00
         21   -1    0    0  502  501  0.00000000000E+00  0.00000000000E+00  0.60204709153E+03  0.60204709153E+03  0.00000000000E+00 0.  1.
         21   -1    0    0  501  502 -0.00000000000E+00 -0.00000000000E+00 -0.64882798289E+01  0.64882798289E+01  0.00000000000E+00 0.  1.
         25    1    1    2    0    0  0.00000000000E+00  0.00000000000E+00  0.59555881170E+03  0.60853537136E+03  0.12500000000E+03 0.  0.
<mgrwt>
<rscale>  0 0.12500000E+03</rscale>
<asrwt>0</asrwt>
<pdfrwt beam="1">  1       21 0.92622585E-01 0.12500000E+03</pdfrwt>
<pdfrwt beam="2">  1       21 0.99819737E-03 0.12500000E+03</pdfrwt>
<totfact> 0.36709465E+06</totfact>
</mgrwt>
</event>
<event>
 3    1  0.1628330E-001  0.1250000E+03  0.7546771E-02  0.1235069E+00
         21   -1    0    0  502  501  0.00000000000E+00  0.00000000000E+00  0.21988703464E+02  0.21988703464E+02  0.00000000000E+00 0.  1.
         21   -1    0    0  501  502 -0.00000000000E+00 -0.00000000000E+00 -0.17764803670E+03  0.17764803670E+03  0.00000000000E+00 0.  1.
         25    1    1    2    0    0  0.00000000000E+00  0.00000000000E+00 -0.15565933324E+03  0.19963674017E+03  0.12500000000E+03 0.  0.
<mgrwt>
<rscale>  0 0.12500000E+03</rscale>
<asrwt>0</asrwt>
<pdfrwt beam="1">  1       21 0.33828774E-02 0.12500000E+03</pdfrwt>
<pdfrwt beam="2">  1       21 0.27330467E-01 0.12500000E+03</pdfrwt>
<totfact> 0.64966635E+06</totfact>
</mgrwt>
</event>
<event>
 3    1  0.1628330E-001  0.1250000E+03  0.7546771E-02  0.1235069E+00
         21   -1    0    0  502  501  0.00000000000E+00  0.00000000000E+00  0.42634401788E+03  0.42634401788E+03  0.00000000000E+00 0.  1.
         21   -1    0    0  501  502 -0.00000000000E+00 -0.00000000000E+00 -0.91622019688E+01  0.91622019688E+01  0.00000000000E+00 0.  1.
         25    1    1    2    0    0  0.00000000000E+00  0.00000000000E+00  0.41718181591E+03  0.43550621985E+03  0.12500000000E+03 0.  0.
<mgrwt>
<rscale>  0 0.12500000E+03</rscale>
<asrwt>0</asrwt>
<pdfrwt beam="1">  1       21 0.65591372E-01 0.12500000E+03</pdfrwt>
<pdfrwt beam="2">  1       21 0.14095699E-02 0.12500000E+03</pdfrwt>
<totfact> 0.45772109E+06</totfact>
</mgrwt>
</event>
<event>
 3    1  0.1628330E-001  0.1250000E+03  0.7546771E-02  0.1235069E+00
         21   -1    0    0  502  501  0.00000000000E+00  0.00000000000E+00  0.26865097687E+03  0.26865097687E+03  0.00000000000E+00 0.  1.
         21   -1    0    0  501  502 -0.00000000000E+00 -0.00000000000E+00 -0.14540241191E+02  0.14540241191E+02  0.00000000000E+00 0.  1.
         25    1    1    2    0    0  0.00000000000E+00  0.00000000000E+00  0.25411073568E+03  0.28319121806E+03  0.12500000000E+03 0.  0.
<mgrwt>
<rscale>  0 0.12500000E+03</rscale>
<asrwt>0</asrwt>
<pdfrwt beam="1">  1       21 0.41330916E-01 0.12500000E+03</pdfrwt>
<pdfrwt beam="2">  1       21 0.22369604E-02 0.12500000E+03</pdfrwt>
<totfact> 0.56882635E+06</totfact>
</mgrwt>
</event>
<event>
 3    1  0.1628330E-001  0.1250000E+03  0.7546771E-02  0.1235069E+00
         21   -1    0    0  502  501  0.00000000000E+00  0.00000000000E+00  0.17590421326E+02  0.17590421326E+02  0.00000000000E+00 0. -1.
         21   -1    0    0  501  502 -0.00000000000E+00 -0.00000000000E+00 -0.22206688104E+03  0.22206688104E+03  0.00000000000E+00 0. -1.
         25    1    1    2    0    0  0.00000000000E+00  0.00000000000E+00 -0.20447645971E+03  0.23965730237E+03  0.12500000000E+03 0.  0.
<mgrwt>
<rscale>  0 0.12500000E+03</rscale>
<asrwt>0</asrwt>
<pdfrwt beam="1">  1       21 0.27062187E-02 0.12500000E+03</pdfrwt>
<pdfrwt beam="2">  1       21 0.34164135E-01 0.12500000E+03</pdfrwt>
<totfact> 0.60865841E+06</totfact>
</mgrwt>
</event>
<event>
 3    1  0.1628330E-001  0.1250000E+03  0.7546771E-02  0.1235069E+00
         21   -1    0    0  502  501  0.00000000000E+00  0.00000000000E+00  0.18133964737E+04  0.18133964737E+04  0.00000000000E+00 0.  1.
         21   -1    0    0  501  502 -0.00000000000E+00 -0.00000000000E+00 -0.21541069791E+01  0.21541069791E+01  0.00000000000E+00 0.  1.
         25    1    1    2    0    0  0.00000000000E+00  0.00000000000E+00  0.18112423668E+04  0.18155505807E+04  0.12500000000E+03 0.  0.
<mgrwt>
<rscale>  0 0.12500000E+03</rscale>
<asrwt>0</asrwt>
<pdfrwt beam="1">  1       21 0.27898285E+00 0.12500000E+03</pdfrwt>
<pdfrwt beam="2">  1       21 0.33140252E-03 0.12500000E+03</pdfrwt>
<totfact> 0.98922160E+05</totfact>
</mgrwt>
</event>
<event>
 3    1  0.1628330E-001  0.1250000E+03  0.7546771E-02  0.1235069E+00
         21   -1    0    0  502  501  0.00000000000E+00  0.00000000000E+00  0.26838112106E+02  0.26838112106E+02  0.00000000000E+00 0. -1.
         21   -1    0    0  501  502 -0.00000000000E+00 -0.00000000000E+00 -0.14554861328E+03  0.14554861328E+03  0.00000000000E+00 0. -1.
         25    1    1    2    0    0  0.00000000000E+00  0.00000000000E+00 -0.11871050117E+03  0.17238672538E+03  0.12500000000E+03 0.  0.
<mgrwt>
<rscale>  0 0.12500000E+03</rscale>
<asrwt>0</asrwt>
<pdfrwt beam="1">  1       21 0.41289403E-02 0.12500000E+03</pdfrwt>
<pdfrwt beam="2">  1       21 0.22392095E-01 0.12500000E+03</pdfrwt>
<totfact> 0.68035823E+06</totfact>
</mgrwt>
</event>
<event>
 3    1  0.1628330E-001  0.1250000E+03  0.7546771E-02  0.1235069E+00
         21   -1    0    0  502  501  0.00000000000E+00  0.00000000000E+00  0.72841272370E+03  0.72841272370E+03  0.00000000000E+00 0.  1.
         21   -1    0    0  501  502 -0.00000000000E+00 -0.00000000000E+00 -0.53626877633E+01  0.53626877633E+01  0.00000000000E+00 0.  1.
         25    1    1    2    0    0  0.00000000000E+00  0.00000000000E+00  0.72305003594E+03  0.73377541147E+03  0.12500000000E+03 0.  0.
<mgrwt>
<rscale>  0 0.12500000E+03</rscale>
<asrwt>0</asrwt>
<pdfrwt beam="1">  1       21 0.11206342E+00 0.12500000E+03</pdfrwt>
<pdfrwt beam="2">  1       21 0.82502947E-03 0.12500000E+03</pdfrwt>
<totfact> 0.31647922E+06</totfact>
</mgrwt>
</event>
<event>
 3    1  0.1628330E-001  0.1250000E+03  0.7546771E-02  0.1235069E+00
         21   -1    0    0  502  501  0.00000000000E+00  0.00000000000E+00  0.10050074118E+04  0.10050074118E+04  0.00000000000E+00 0.  1.
         21   -1    0    0  501  502 -0.00000000000E+00 -0.00000000000E+00 -0.38867872558E+01  0.38867872558E+01  0.00000000000E+00 0.  1.
         25    1    1    2    0    0  0.00000000000E+00  0.00000000000E+00  0.10011206245E+04  0.10088941990E+04  0.12500000000E+03 0.  0.
<mgrwt>
<rscale>  0 0.12500000E+03</rscale>
<asrwt>0</asrwt>
<pdfrwt beam="1">  1       21 0.15461632E+00 0.12500000E+03</pdfrwt>
<pdfrwt beam="2">  1       21 0.59796807E-03 0.12500000E+03</pdfrwt>
<totfact> 0.23397878E+06</totfact>
</mgrwt>
</event>
<event>
 3    1  0.1628330E-001  0.1250000E+03  0.7546771E-02  0.1235069E+00
         21   -1    0    0  502  501  0.00000000000E+00  0.00000000000E+00  0.59386289851E+02  0.59386289851E+02  0.00000000000E+00 0.  1.
         21   -1    0    0  501  502 -0.00000000000E+00 -0.00000000000E+00 -0.65776966533E+02  0.65776966533E+02  0.00000000000E+00 0.  1.
         25    1    1    2    0    0  0.00000000000E+00  0.00000000000E+00 -0.63906766821E+01  0.12516325638E+03  0.12500000000E+03 0.  0.
<mgrwt>
<rscale>  0 0.12500000E+03</rscale>
<asrwt>0</asrwt>
<pdfrwt beam="1">  1       21 0.91363523E-02 0.12500000E+03</pdfrwt>
<pdfrwt beam="2">  1       21 0.10119533E-01 0.12500000E+03</pdfrwt>
<totfact> 0.74021533E+06</totfact>
</mgrwt>
</event>
<event>
 3    1  0.1628330E-001  0.1250000E+03  0.7546771E-02  0.1235069E+00
         21   -1    0    0  502  501  0.00000000000E+00  0.00000000000E+00  0.28414250960E+02  0.28414250960E+02  0.00000000000E+00 0.  1.
         21   -1    0    0  501  502 -0.00000000000E+00 -0.00000000000E+00 -0.13747502989E+03  0.13747502989E+03  0.00000000000E+00 0.  1.
         25    1    1    2    0    0  0.00000000000E+00  0.00000000000E+00 -0.10906077893E+03  0.16588928085E+03  0.12500000000E+03 0.  0.
<mgrwt>
<rscale>  0 0.12500000E+03</rscale>
<asrwt>0</asrwt>
<pdfrwt beam="1">  1       21 0.43714232E-02 0.12500000E+03</pdfrwt>
<pdfrwt beam="2">  1       21 0.21150005E-01 0.12500000E+03</pdfrwt>
<totfact> 0.68806954E+06</totfact>
</mgrwt>
</event>
<event>
 3    1  0.1628330E-001  0.1250000E+03  0.7546771E-02  0.1235069E+00
         21   -1    0    0  502  501  0.00000000000E+00  0.00000000000E+00  0.42383954313E+03  0.42383954313E+03  0.00000000000E+00 0.  1.
         21   -1    0    0  501  502 -0.00000000000E+00 -0.00000000000E+00 -0.92163415691E+01  0.92163415691E+01  0.00000000000E+00 0.  1.
         25    1    1    2    0    0  0.00000000000E+00  0.00000000000E+00  0.41462320156E+03  0.43305588470E+03  0.12500000000E+03 0.  0.
<mgrwt>
<rscale>  0 0.12500000E+03</rscale>
<asrwt>0</asrwt>
<pdfrwt beam="1">  1       21 0.65206068E-01 0.12500000E+03</pdfrwt>
<pdfrwt beam="2">  1       21 0.14178990E-02 0.12500000E+03</pdfrwt>
<totfact> 0.45923391E+06</totfact>
</mgrwt>
</event>
<event>
 3    1  0.1628330E-001  0.1250000E+03  0.7546771E-02  0.1235069E+00
         21   -1    0    0  502  501  0.00000000000E+00  0.00000000000E+00  0.12301433902E+04  0.12301433902E+04  0.00000000000E+00 0.  1.
         21   -1    0    0  501  502 -0.00000000000E+00 -0.00000000000E+00 -0.31754428232E+01  0.31754428232E+01  0.00000000000E+00 0.  1.
         25    1    1    2    0    0  0.00000000000E+00  0.00000000000E+00  0.12269679474E+04  0.12333188330E+04  0.12500000000E+03 0.  0.
<mgrwt>
<rscale>  0 0.12500000E+03</rscale>
<asrwt>0</asrwt>
<pdfrwt beam="1">  1       21 0.18925245E+00 0.12500000E+03</pdfrwt>
<pdfrwt beam="2">  1       21 0.48853065E-03 0.12500000E+03</pdfrwt>
<totfact> 0.18491849E+06</totfact>
</mgrwt>
</event>
<event>
 3    1  0.1628330E-001  0.1250000E+03  0.7546771E-02  0.1235069E+00
         21   -1    0    0  502  501  0.00000000000E+00  0.00000000000E+00  0.73317691249E+03  0.73317691249E+03  0.00000000000E+00 0. -1.
         21   -1    0    0  501  502 -0.00000000000E+00 -0.00000000000E+00 -0.53278409801E+01  0.53278409801E+01  0.00000000000E+00 0. -1.
         25    1    1    2    0    0  0.00000000000E+00  0.00000000000E+00  0.72784907151E+03  0.73850475347E+03  0.12500000000E+03 0.  0.
<mgrwt>
<rscale>  0 0.12500000E+03</rscale>
<asrwt>0</asrwt>
<pdfrwt beam="1">  1       21 0.11279637E+00 0.12500000E+03</pdfrwt>
<pdfrwt beam="2">  1       21 0.81966842E-03 0.12500000E+03</pdfrwt>
<totfact> 0.31477374E+06</totfact>
</mgrwt>
</event>
<event>
 3    1  0.1628330E-001  0.1250000E+03  0.7546771E-02  0.1235069E+00
         21   -1    0    0  502  501  0.00000000000E+00  0.00000000000E+00  0.20472689317E+02  0.20472689317E+02  0.00000000000E+00 0. -1.
         21   -1    0    0  501  502 -0.00000000000E+00 -0.00000000000E+00 -0.19080297364E+03  0.19080297364E+03  0.00000000000E+00 0. -1.
         25    1    1    2    0    0  0.00000000000E+00  0.00000000000E+00 -0.17033028432E+03  0.21127566295E+03  0.12500000000E+03 0.  0.
<mgrwt>
<rscale>  0 0.12500000E+03</rscale>
<asrwt>0</asrwt>
<pdfrwt beam="1">  1       21 0.31496448E-02 0.12500000E+03</pdfrwt>
<pdfrwt beam="2">  1       21 0.29354301E-01 0.12500000E+03</pdfrwt>
<totfact> 0.63725572E+06</totfact>
</mgrwt>
</event>
<event>
 3    1  0.1628330E-001  0.1250000E+03  0.7546771E-02  0.1235069E+00
         21   -1    0    0  502  501  0.00000000000E+00  0.00000000000E+00  0.46410770044E+03  0.46410770044E+03  0.00000000000E+00 0. -1.
         21   -1    0    0  501  502 -0.00000000000E+00 -0.00000000000E+00 -0.84166886184E+01  0.84166886184E+01  0.00000000000E+00 0. -1.
         25    1    1    2    0    0  0.00000000000E+00  0.00000000000E+00  0.45569101182E+03  0.47252438906E+03  0.12500000000E+03 0.  0.
<mgrwt>
<rscale>  0 0.12500000E+03</rscale>
<asrwt>0</asrwt>
<pdfrwt beam="1">  1       21 0.71401165E-01 0.12500000E+03</pdfrwt>
<pdfrwt beam="2">  1       21 0.12948755E-02 0.12500000E+03</pdfrwt>
<totfact> 0.43574440E+06</totfact>
</mgrwt>
</event>
<event>
 3    1  0.1628330E-001  0.1250000E+03  0.7546771E-02  0.1235069E+00
         21   -1    0    0  502  501  0.00000000000E+00  0.00000000000E+00  0.33012605765E+02  0.33012605765E+02  0.00000000000E+00 0. -1.
         21   -1    0    0  501  502 -0.00000000000E+00 -0.00000000000E+00 -0.11832601243E+03  0.11832601243E+03  0.00000000000E+00 0. -1.
         25    1    1    2    0    0  0.00000000000E+00  0.00000000000E+00 -0.85313406662E+02  0.15133861819E+03  0.12500000000E+03 0.  0.
<mgrwt>
<rscale>  0 0.12500000E+03</rscale>
<asrwt>0</asrwt>
<pdfrwt beam="1">  1       21 0.50788625E-02 0.12500000E+03</pdfrwt>
<pdfrwt beam="2">  1       21 0.18204002E-01 0.12500000E+03</pdfrwt>
<totfact> 0.70591449E+06</totfact>
</mgrwt>
</event>
<event>
 3    1  0.1628330E-001  0.1250000E+03  0.7546771E-02  0.1235069E+00
         21   -1    0    0  502  501  0.00000000000E+00  0.00000000000E+00  0.19331790147E+03  0.19331790147E+03  0.00000000000E+00 0. -1.
         21   -1    0    0  501  502 -0.00000000000E+00 -0.00000000000E+00 -0.20206354251E+02  0.20206354251E+02  0.00000000000E+00 0. -1.
         25    1    1    2    0    0  0.00000000000E+00  0.00000000000E+00  0.17311154721E+03  0.21352425572E+03  0.12500000000E+03 0.  0.
<mgrwt>
<rscale>  0 0.12500000E+03</rscale>
<asrwt>0</asrwt>
<pdfrwt beam="1">  1       21 0.29741214E-01 0.12500000E+03</pdfrwt>
<pdfrwt beam="2">  1       21 0.31086700E-02 0.12500000E+03</pdfrwt>
<totfact> 0.63490641E+06</totfact>
</mgrwt>
</event>
<event>
 3    1  0.1628330E-001  0.1250000E+03  0.7546771E-02  0.1235069E+00
         21   -1    0    0  502  501  0.00000000000E+00  0.00000000000E+00  0.18406355529E+03  0.18406355529E+03  0.00000000000E+00 0. -1.
         21   -1    0    0  501  502 -0.00000000000E+00 -0.00000000000E+00 -0.21222289191E+02  0.21222289191E+02  0.00000000000E+00 0. -1.
         25    1    1    2    0    0  0.00000000000E+00  0.00000000000E+00  0.16284126610E+03  0.20528584448E+03  0.12500000000E+03 0.  0.
<mgrwt>
<rscale>  0 0.12500000E+03</rscale>
<asrwt>0</asrwt>
<pdfrwt beam="1">  1       21 0.28317469E-01 0.12500000E+03</pdfrwt>
<pdfrwt beam="2">  1       21 0.32649677E-02 0.12500000E+03</pdfrwt>
<totfact> 0.64358958E+06</totfact>
</mgrwt>
</event>
<event>
 3    1  0.1628330E-001  0.1250000E+03  0.7546771E-02  0.1235069E+00
         21   -1    0    0  502  501  0.00000000000E+00  0.00000000000E+00  0.32264002499E+02  0.32264002499E+02  0.00000000000E+00 0.  1.
         21   -1    0    0  501  502 -0.00000000000E+00 -0.00000000000E+00 -0.12107146347E+03  0.12107146347E+03  0.00000000000E+00 0.  1.
         25    1    1    2    0    0  0.00000000000E+00  0.00000000000E+00 -0.88807460974E+02  0.15333546597E+03  0.12500000000E+03 0.  0.
<mgrwt>
<rscale>  0 0.12500000E+03</rscale>
<asrwt>0</asrwt>
<pdfrwt beam="1">  1       21 0.49636928E-02 0.12500000E+03</pdfrwt>
<pdfrwt beam="2">  1       21 0.18626378E-01 0.12500000E+03</pdfrwt>
<totfact> 0.70342677E+06</totfact>
</mgrwt>
</event>
<event>
 3    1  0.1628330E-001  0.1250000E+03  0.7546771E-02  0.1235069E+00
         21   -1    0    0  502  501  0.00000000000E+00  0.00000000000E+00  0.69728207701E+01  0.69728207701E+01  0.00000000000E+00 0. -1.
         21   -1    0    0  501  502 -0.00000000000E+00 -0.00000000000E+00 -0.56021087143E+03  0.56021087143E+03  0.00000000000E+00 0. -1.
         25    1    1    2    0    0  0.00000000000E+00  0.00000000000E+00 -0.55323805066E+03  0.56718369221E+03  0.12500000000E+03 0.  0.
<mgrwt>
<rscale>  0 0.12500000E+03</rscale>
<asrwt>0</asrwt>
<pdfrwt beam="1">  1       21 0.10727417E-02 0.12500000E+03</pdfrwt>
<pdfrwt beam="2">  1       21 0.86186285E-01 0.12500000E+03</pdfrwt>
<totfact> 0.38620047E+06</totfact>
</mgrwt>
</event>
<event>
 3    1  0.1628330E-001  0.1250000E+03  0.7546771E-02  0.1235069E+00
         21   -1    0    0  502  501  0.00000000000E+00  0.00000000000E+00  0.12778918037E+03  0.12778918037E+03  0.00000000000E+00 0. -1.
         21   -1    0    0  501  502 -0.00000000000E+00 -0.00000000000E+00 -0.30567924363E+02  0.30567924363E+02  0.00000000000E+00 0. -1.
         25    1    1    2    0    0  0.00000000000E+00  0.00000000000E+00  0.97221256009E+02  0.15835710473E+03  0.12500000000E+03 0.  0.
<mgrwt>
<rscale>  0 0.12500000E+03</rscale>
<asrwt>0</asrwt>
<pdfrwt beam="1">  1       21 0.19659874E-01 0.12500000E+03</pdfrwt>
<pdfrwt beam="2">  1       21 0.47027577E-02 0.12500000E+03</pdfrwt>
<totfact> 0.69720799E+06</totfact>
</mgrwt>
</event>
<event>
 3    1  0.1628330E-001  0.1250000E+03  0.7546771E-02  0.1235069E+00
         21   -1    0    0  502  501  0.00000000000E+00  0.00000000000E+00  0.99676918401E+02  0.99676918401E+02  0.00000000000E+00 0.  1.
         21   -1    0    0  501  502 -0.00000000000E+00 -0.00000000000E+00 -0.39189112812E+02  0.39189112812E+02  0.00000000000E+00 0.  1.
         25    1    1    2    0    0  0.00000000000E+00  0.00000000000E+00  0.60487805589E+02  0.13886603121E+03  0.12500000000E+03 0.  0.
<mgrwt>
<rscale>  0 0.12500000E+03</rscale>
<asrwt>0</asrwt>
<pdfrwt beam="1">  1       21 0.15334910E-01 0.12500000E+03</pdfrwt>
<pdfrwt beam="2">  1       21 0.60290943E-02 0.12500000E+03</pdfrwt>
<totfact> 0.72187693E+06</totfact>
</mgrwt>
</event>
<event>
 3    1  0.1628330E-001  0.1250000E+03  0.7546771E-02  0.1235069E+00
         21   -1    0    0  502  501  0.00000000000E+00  0.00000000000E+00  0.76416839252E+02  0.76416839252E+02  0.00000000000E+00 0.  1.
         21   -1    0    0  501  502 -0.00000000000E+00 -0.00000000000E+00 -0.51117659906E+02  0.51117659906E+02  0.00000000000E+00 0.  1.
         25    1    1    2    0    0  0.00000000000E+00  0.00000000000E+00  0.25299179346E+02  0.12753449916E+03  0.12500000000E+03 0.  0.
<mgrwt>
<rscale>  0 0.12500000E+03</rscale>
<asrwt>0</asrwt>
<pdfrwt beam="1">  1       21 0.11756437E-01 0.12500000E+03</pdfrwt>
<pdfrwt beam="2">  1       21 0.78642554E-02 0.12500000E+03</pdfrwt>
<totfact> 0.73696542E+06</totfact>
</mgrwt>
</event>
<event>
 3    1  0.1628330E-001  0.1250000E+03  0.7546771E-02  0.1235069E+00
         21   -1    0    0  502  501  0.00000000000E+00  0.00000000000E+00  0.11357814369E+02  0.11357814369E+02  0.00000000000E+00 0. -1.
         21   -1    0    0  501  502 -0.00000000000E+00 -0.00000000000E+00 -0.34392620561E+03  0.34392620561E+03  0.00000000000E+00 0. -1.
         25    1    1    2    0    0  0.00000000000E+00  0.00000000000E+00 -0.33256839125E+03  0.35528401998E+03  0.12500000000E+03 0.  0.
<mgrwt>
<rscale>  0 0.12500000E+03</rscale>
<asrwt>0</asrwt>
<pdfrwt beam="1">  1       21 0.17473562E-02 0.12500000E+03</pdfrwt>
<pdfrwt beam="2">  1       21 0.52911720E-01 0.12500000E+03</pdfrwt>
<totfact> 0.51150546E+06</totfact>
</mgrwt>
</event>
<event>
 3    1  0.1628330E-001  0.1250000E+03  0.7546771E-02  0.1235069E+00
         21   -1    0    0  502  501  0.00000000000E+00  0.00000000000E+00  0.13155803237E+02  0.13155803237E+02  0.00000000000E+00 0.  1.
         21   -1    0    0  501  502 -0.00000000000E+00 -0.00000000000E+00 -0.29692219697E+03  0.29692219697E+03  0.00000000000E+00 0.  1.
         25    1    1    2    0    0  0.00000000000E+00  0.00000000000E+00 -0.28376639373E+03  0.31007800020E+03  0.12500000000E+03 0.  0.
<mgrwt>
<rscale>  0 0.12500000E+03</rscale>
<asrwt>0</asrwt>
<pdfrwt beam="1">  1       21 0.20239698E-02 0.12500000E+03</pdfrwt>
<pdfrwt beam="2">  1       21 0.45680337E-01 0.12500000E+03</pdfrwt>
<totfact> 0.54628915E+06</totfact>
</mgrwt>
</event>
<event>
 3    1  0.1628330E-001  0.1250000E+03  0.7546771E-02  0.1235069E+00
         21   -1    0    0  502  501  0.00000000000E+00  0.00000000000E+00  0.15214241123E+01  0.15214241123E+01  0.00000000000E+00 0.  1.
         21   -1    0    0  501  502 -0.00000000000E+00 -0.00000000000E+00 -0.25674957879E+04  0.25674957879E+04  0.00000000000E+00 0.  1.
         25    1    1    2    0    0  0.00000000000E+00  0.00000000000E+00 -0.25659743638E+04  0.25690172120E+04  0.12500000000E+03 0.  0.
<mgrwt>
<rscale>  0 0.12500000E+03</rscale>
<asrwt>0</asrwt>
<pdfrwt beam="1">  1       21 0.23406523E-03 0.12500000E+03</pdfrwt>
<pdfrwt beam="2">  1       21 0.39499939E+00 0.12500000E+03</pdfrwt>
<totfact> 0.36177608E+05</totfact>
</mgrwt>
</event>
<event>
 3    1  0.1628330E-001  0.1250000E+03  0.7546771E-02  0.1235069E+00
         21   -1    0    0  502  501  0.00000000000E+00  0.00000000000E+00  0.41037818680E+02  0.41037818680E+02  0.00000000000E+00 0. -1.
         21   -1    0    0  501  502 -0.00000000000E+00 -0.00000000000E+00 -0.95186589485E+02  0.95186589485E+02  0.00000000000E+00 0. -1.
         25    1    1    2    0    0  0.00000000000E+00  0.00000000000E+00 -0.54148770805E+02  0.13622440816E+03  0.12500000000E+03 0.  0.
<mgrwt>
<rscale>  0 0.12500000E+03</rscale>
<asrwt>0</asrwt>
<pdfrwt beam="1">  1       21 0.63135107E-02 0.12500000E+03</pdfrwt>
<pdfrwt beam="2">  1       21 0.14644090E-01 0.12500000E+03</pdfrwt>
<totfact> 0.72534756E+06</totfact>
</mgrwt>
</event>
<event>
 3    1  0.1628330E-001  0.1250000E+03  0.7546771E-02  0.1235069E+00
         21   -1    0    0  502  501  0.00000000000E+00  0.00000000000E+00  0.16478092235E+02  0.16478092235E+02  0.00000000000E+00 0. -1.
         21   -1    0    0  501  502 -0.00000000000E+00 -0.00000000000E+00 -0.23705717532E+03  0.23705717532E+03  0.00000000000E+00 0. -1.
         25    1    1    2    0    0  0.00000000000E+00  0.00000000000E+00 -0.22057908308E+03  0.25353526756E+03  0.12500000000E+03 0.  0.
<mgrwt>
<rscale>  0 0.12500000E+03</rscale>
<asrwt>0</asrwt>
<pdfrwt beam="1">  1       21 0.25350912E-02 0.12500000E+03</pdfrwt>
<pdfrwt beam="2">  1       21 0.36470333E-01 0.12500000E+03</pdfrwt>
<totfact> 0.59546937E+06</totfact>
</mgrwt>
</event>
<event>
 3    1  0.1628330E-001  0.1250000E+03  0.7546771E-02  0.1235069E+00
         21   -1    0    0  502  501  0.00000000000E+00  0.00000000000E+00  0.34633038431E+02  0.34633038431E+02  0.00000000000E+00 0. -1.
         21   -1    0    0  501  502 -0.00000000000E+00 -0.00000000000E+00 -0.11278969957E+03  0.11278969957E+03  0.00000000000E+00 0. -1.
         25    1    1    2    0    0  0.00000000000E+00  0.00000000000E+00 -0.78156661144E+02  0.14742273801E+03  0.12500000000E+03 0.  0.
<mgrwt>
<rscale>  0 0.12500000E+03</rscale>
<asrwt>0</asrwt>
<pdfrwt beam="1">  1       21 0.53281597E-02 0.12500000E+03</pdfrwt>
<pdfrwt beam="2">  1       21 0.17352262E-01 0.12500000E+03</pdfrwt>
<totfact> 0.71084473E+06</totfact>
</mgrwt>
</event>
<event>
 3    1  0.1628330E-001  0.1250000E+03  0.7546771E-02  0.1235069E+00
         21   -1    0    0  502  501  0.00000000000E+00  0.00000000000E+00  0.15019074793E+03  0.15019074793E+03  0.00000000000E+00 0.  1.
         21   -1    0    0  501  502 -0.00000000000E+00 -0.00000000000E+00 -0.26008592765E+02  0.26008592765E+02  0.00000000000E+00 0.  1.
         25    1    1    2    0    0  0.00000000000E+00  0.00000000000E+00  0.12418215517E+03  0.17619934070E+03  0.12500000000E+03 0.  0.
<mgrwt>
<rscale>  0 0.12500000E+03</rscale>
<asrwt>0</asrwt>
<pdfrwt beam="1">  1       21 0.23106268E-01 0.12500000E+03</pdfrwt>
<pdfrwt beam="2">  1       21 0.40013220E-02 0.12500000E+03</pdfrwt>
<totfact> 0.67590233E+06</totfact>
</mgrwt>
</event>
<event>
 3    1  0.1628330E-001  0.1250000E+03  0.7546771E-02  0.1235069E+00
         21   -1    0    0  502  501  0.00000000000E+00  0.00000000000E+00  0.35789141852E+02  0.35789141852E+02  0.00000000000E+00 0. -1.
         21   -1    0    0  501  502 -0.00000000000E+00 -0.00000000000E+00 -0.10914623257E+03  0.10914623257E+03  0.00000000000E+00 0. -1.
         25    1    1    2    0    0  0.00000000000E+00  0.00000000000E+00 -0.73357090717E+02  0.14493537442E+03  0.12500000000E+03 0.  0.
<mgrwt>
<rscale>  0 0.12500000E+03</rscale>
<asrwt>0</asrwt>
<pdfrwt beam="1">  1       21 0.55060219E-02 0.12500000E+03</pdfrwt>
<pdfrwt beam="2">  1       21 0.16791728E-01 0.12500000E+03</pdfrwt>
<totfact> 0.71401370E+06</totfact>
</mgrwt>
</event>
<event>
 3    1  0.1628330E-001  0.1250000E+03  0.7546771E-02  0.1235069E+00
         21   -1    0    0  502  501  0.00000000000E+00  0.00000000000E+00  0.47488109057E+03  0.47488109057E+03  0.00000000000E+00 0.  1.
         21   -1    0    0  501  502 -0.00000000000E+00 -0.00000000000E+00 -0.82257434074E+01  0.82257434074E+01  0.00000000000E+00 0.  1.
         25    1    1    2    0    0  0.00000000000E+00  0.00000000000E+00  0.46665534716E+03  0.48310683397E+03  0.12500000000E+03 0.  0.
<mgrwt>
<rscale>  0 0.12500000E+03</rscale>
<asrwt>0</asrwt>
<pdfrwt beam="1">  1       21 0.73058608E-01 0.12500000E+03</pdfrwt>
<pdfrwt beam="2">  1       21 0.12654994E-02 0.12500000E+03</pdfrwt>
<totfact> 0.42975303E+06</totfact>
</mgrwt>
</event>
<event>
 3    1  0.1628330E-001  0.1250000E+03  0.7546771E-02  0.1235069E+00
         21   -1    0    0  502  501  0.00000000000E+00  0.00000000000E+00  0.27363948141E+02  0.27363948141E+02  0.00000000000E+00 0. -1.
         21   -1    0    0  501  502 -0.00000000000E+00 -0.00000000000E+00 -0.14275169577E+03  0.14275169577E+03  0.00000000000E+00 0. -1.
         25    1    1    2    0    0  0.00000000000E+00  0.00000000000E+00 -0.11538774763E+03  0.17011564391E+03  0.12500000000E+03 0.  0.
<mgrwt>
<rscale>  0 0.12500000E+03</rscale>
<asrwt>0</asrwt>
<pdfrwt beam="1">  1       21 0.42098382E-02 0.12500000E+03</pdfrwt>
<pdfrwt beam="2">  1       21 0.21961799E-01 0.12500000E+03</pdfrwt>
<totfact> 0.68303929E+06</totfact>
</mgrwt>
</event>
<event>
 3    1  0.1628330E-001  0.1250000E+03  0.7546771E-02  0.1235069E+00
         21   -1    0    0  502  501  0.00000000000E+00  0.00000000000E+00  0.11558242030E+02  0.11558242030E+02  0.00000000000E+00 0. -1.
         21   -1    0    0  501  502 -0.00000000000E+00 -0.00000000000E+00 -0.33796229478E+03  0.33796229478E+03  0.00000000000E+00 0. -1.
         25    1    1    2    0    0  0.00000000000E+00  0.00000000000E+00 -0.32640405275E+03  0.34952053681E+03  0.12500000000E+03 0.  0.
<mgrwt>
<rscale>  0 0.12500000E+03</rscale>
<asrwt>0</asrwt>
<pdfrwt beam="1">  1       21 0.17781911E-02 0.12500000E+03</pdfrwt>
<pdfrwt beam="2">  1       21 0.51994200E-01 0.12500000E+03</pdfrwt>
<totfact> 0.51573860E+06</totfact>
</mgrwt>
</event>
<event>
 3    1  0.1628330E-001  0.1250000E+03  0.7546771E-02  0.1235069E+00
         21   -1    0    0  502  501  0.00000000000E+00  0.00000000000E+00  0.18469395827E+01  0.18469395827E+01  0.00000000000E+00 0. -1.
         21   -1    0    0  501  502 -0.00000000000E+00 -0.00000000000E+00 -0.21149852635E+04  0.21149852635E+04  0.00000000000E+00 0. -1.
         25    1    1    2    0    0  0.00000000000E+00  0.00000000000E+00 -0.21131383239E+04  0.21168322031E+04  0.12500000000E+03 0.  0.
<mgrwt>
<rscale>  0 0.12500000E+03</rscale>
<asrwt>0</asrwt>
<pdfrwt beam="1">  1       21 0.28414236E-03 0.12500000E+03</pdfrwt>
<pdfrwt beam="2">  1       21 0.32538485E+00 0.12500000E+03</pdfrwt>
<totfact> 0.68638346E+05</totfact>
</mgrwt>
</event>
<event>
 3    1  0.1628330E-001  0.1250000E+03  0.7546771E-02  0.1235069E+00
         21   -1    0    0  502  501  0.00000000000E+00  0.00000000000E+00  0.52079765362E+02  0.52079765362E+02  0.00000000000E+00 0. -1.
         21   -1    0    0  501  502 -0.00000000000E+00 -0.00000000000E+00 -0.75005138230E+02  0.75005138230E+02  0.00000000000E+00 0. -1.
         25    1    1    2    0    0  0.00000000000E+00  0.00000000000E+00 -0.22925372868E+02  0.12708490359E+03  0.12500000000E+03 0.  0.
<mgrwt>
<rscale>  0 0.12500000E+03</rscale>
<asrwt>0</asrwt>
<pdfrwt beam="1">  1       21 0.80122716E-02 0.12500000E+03</pdfrwt>
<pdfrwt beam="2">  1       21 0.11539252E-01 0.12500000E+03</pdfrwt>
<totfact> 0.73757583E+06</totfact>
</mgrwt>
</event>
<event>
 3    1  0.1628330E-001  0.1250000E+03  0.7546771E-02  0.1235069E+00
         21   -1    0    0  502  501  0.00000000000E+00  0.00000000000E+00  0.31124693295E+03  0.31124693295E+03  0.00000000000E+00 0. -1.
         21   -1    0    0  501  502 -0.00000000000E+00 -0.00000000000E+00 -0.12550324474E+02  0.12550324474E+02  0.00000000000E+00 0. -1.
         25    1    1    2    0    0  0.00000000000E+00  0.00000000000E+00  0.29869660848E+03  0.32379725742E+03  0.12500000000E+03 0.  0.
<mgrwt>
<rscale>  0 0.12500000E+03</rscale>
<asrwt>0</asrwt>
<pdfrwt beam="1">  1       21 0.47884138E-01 0.12500000E+03</pdfrwt>
<pdfrwt beam="2">  1       21 0.19308194E-02 0.12500000E+03</pdfrwt>
<totfact> 0.53533797E+06</totfact>
</mgrwt>
</event>
<event>
 3    1  0.1628330E-001  0.1250000E+03  0.7546771E-02  0.1235069E+00
         21   -1    0    0  502  501  0.00000000000E+00  0.00000000000E+00  0.52389109265E+01  0.52389109265E+01  0.00000000000E+00 0.  1.
         21   -1    0    0  501  502 -0.00000000000E+00 -0.00000000000E+00 -0.74562252629E+03  0.74562252629E+03  0.00000000000E+00 0.  1.
         25    1    1    2    0    0  0.00000000000E+00  0.00000000000E+00 -0.74038361536E+03  0.75086143721E+03  0.12500000000E+03 0.  0.
<mgrwt>
<rscale>  0 0.12500000E+03</rscale>
<asrwt>0</asrwt>
<pdfrwt beam="1">  1       21 0.80598626E-03 0.12500000E+03</pdfrwt>
<pdfrwt beam="2">  1       21 0.11471116E+00 0.12500000E+03</pdfrwt>
<totfact> 0.31038583E+06</totfact>
</mgrwt>
</event>
<event>
 3    1  0.1628330E-001  0.1250000E+03  0.7546771E-02  0.1235069E+00
         21   -1    0    0  502  501  0.00000000000E+00  0.00000000000E+00  0.37742260072E+03  0.37742260072E+03  0.00000000000E+00 0. -1.
         21   -1    0    0  501  502 -0.00000000000E+00 -0.00000000000E+00 -0.10349804152E+02  0.10349804152E+02  0.00000000000E+00 0. -1.
         25    1    1    2    0    0  0.00000000000E+00  0.00000000000E+00  0.36707279657E+03  0.38777240488E+03  0.12500000000E+03 0.  0.
<mgrwt>
<rscale>  0 0.12500000E+03</rscale>
<asrwt>0</asrwt>
<pdfrwt beam="1">  1       21 0.58065005E-01 0.12500000E+03</pdfrwt>
<pdfrwt beam="2">  1       21 0.15922779E-02 0.12500000E+03</pdfrwt>
<totfact> 0.48863115E+06</totfact>
</mgrwt>
</event>
<event>
 3    1  0.1628330E-001  0.1250000E+03  0.7546771E-02  0.1235069E+00
         21   -1    0    0  502  501  0.00000000000E+00  0.00000000000E+00  0.82330535598E+01  0.82330535598E+01  0.00000000000E+00 0.  1.
         21   -1    0    0  501  502 -0.00000000000E+00 -0.00000000000E+00 -0.47445944225E+03  0.47445944225E+03  0.00000000000E+00 0.  1.
         25    1    1    2    0    0  0.00000000000E+00  0.00000000000E+00 -0.46622638869E+03  0.48269249581E+03  0.12500000000E+03 0.  0.
<mgrwt>
<rscale>  0 0.12500000E+03</rscale>
<asrwt>0</asrwt>
<pdfrwt beam="1">  1       21 0.12666240E-02 0.12500000E+03</pdfrwt>
<pdfrwt beam="2">  1       21 0.72993741E-01 0.12500000E+03</pdfrwt>
<totfact> 0.42998528E+06</totfact>
</mgrwt>
</event>
<event>
 3    1  0.1628330E-001  0.1250000E+03  0.7546771E-02  0.1235069E+00
         21   -1    0    0  502  501  0.00000000000E+00  0.00000000000E+00  0.14802789722E+03  0.14802789722E+03  0.00000000000E+00 0.  1.
         21   -1    0    0  501  502 -0.00000000000E+00 -0.00000000000E+00 -0.26388606969E+02  0.26388606969E+02  0.00000000000E+00 0.  1.
         25    1    1    2    0    0  0.00000000000E+00  0.00000000000E+00  0.12163929025E+03  0.17441650418E+03  0.12500000000E+03 0.  0.
<mgrwt>
<rscale>  0 0.12500000E+03</rscale>
<asrwt>0</asrwt>
<pdfrwt beam="1">  1       21 0.22773522E-01 0.12500000E+03</pdfrwt>
<pdfrwt beam="2">  1       21 0.40597858E-02 0.12500000E+03</pdfrwt>
<totfact> 0.67797902E+06</totfact>
</mgrwt>
</event>
<event>
 3    1  0.1628330E-001  0.1250000E+03  0.7546771E-02  0.1235069E+00
         21   -1    0    0  502  501  0.00000000000E+00  0.00000000000E+00  0.13626211203E+04  0.13626211203E+04  0.00000000000E+00 0.  1.
         21   -1    0    0  501  502 -0.00000000000E+00 -0.00000000000E+00 -0.28667176384E+01  0.28667176384E+01  0.00000000000E+00 0.  1.
         25    1    1    2    0    0  0.00000000000E+00  0.00000000000E+00  0.13597544027E+04  0.13654878379E+04  0.12500000000E+03 0.  0.
<mgrwt>
<rscale>  0 0.12500000E+03</rscale>
<asrwt>0</asrwt>
<pdfrwt beam="1">  1       21 0.20963350E+00 0.12500000E+03</pdfrwt>
<pdfrwt beam="2">  1       21 0.44103457E-03 0.12500000E+03</pdfrwt>
<totfact> 0.16115996E+06</totfact>
</mgrwt>
</event>
<event>
 3    1  0.1628330E-001  0.1250000E+03  0.7546771E-02  0.1235069E+00
         21   -1    0    0  502  501  0.00000000000E+00  0.00000000000E+00  0.12493212198E+03  0.12493212198E+03  0.00000000000E+00 0. -1.
         21   -1    0    0  501  502 -0.00000000000E+00 -0.00000000000E+00 -0.31266978724E+02  0.31266978724E+02  0.00000000000E+00 0. -1.
         25    1    1    2    0    0  0.00000000000E+00  0.00000000000E+00  0.93665143260E+02  0.15619910071E+03  0.12500000000E+03 0.  0.
<mgrwt>
<rscale>  0 0.12500000E+03</rscale>
<asrwt>0</asrwt>
<pdfrwt beam="1">  1       21 0.19220326E-01 0.12500000E+03</pdfrwt>
<pdfrwt beam="2">  1       21 0.48103045E-02 0.12500000E+03</pdfrwt>
<totfact> 0.69986932E+06</totfact>
</mgrwt>
</event>
<event>
 3    1  0.1628330E-001  0.1250000E+03  0.7546771E-02  0.1235069E+00
         21   -1    0    0  502  501  0.00000000000E+00  0.00000000000E+00  0.92605795246E+03  0.92605795246E+03  0.00000000000E+00 0. -1.
         21   -1    0    0  501  502 -0.00000000000E+00 -0.00000000000E+00 -0.42181485399E+01  0.42181485399E+01  0.00000000000E+00 0. -1.
         25    1    1    2    0    0  0.00000000000E+00  0.00000000000E+00  0.92183980392E+03  0.93027610100E+03  0.12500000000E+03 0.  0.
<mgrwt>
<rscale>  0 0.12500000E+03</rscale>
<asrwt>0</asrwt>
<pdfrwt beam="1">  1       21 0.14247029E+00 0.12500000E+03</pdfrwt>
<pdfrwt beam="2">  1       21 0.64894667E-03 0.12500000E+03</pdfrwt>
<totfact> 0.25447055E+06</totfact>
</mgrwt>
</event>
<event>
 3    1  0.1628330E-001  0.1250000E+03  0.7546771E-02  0.1235069E+00
         21   -1    0    0  502  501  0.00000000000E+00  0.00000000000E+00  0.45319055259E+01  0.45319055259E+01  0.00000000000E+00 0.  1.
         21   -1    0    0  501  502 -0.00000000000E+00 -0.00000000000E+00 -0.86194426995E+03  0.86194426995E+03  0.00000000000E+00 0.  1.
         25    1    1    2    0    0  0.00000000000E+00  0.00000000000E+00 -0.85741236442E+03  0.86647617547E+03  0.12500000000E+03 0.  0.
<mgrwt>
<rscale>  0 0.12500000E+03</rscale>
<asrwt>0</asrwt>
<pdfrwt beam="1">  1       21 0.69721589E-03 0.12500000E+03</pdfrwt>
<pdfrwt beam="2">  1       21 0.13260688E+00 0.12500000E+03</pdfrwt>
<totfact> 0.27274906E+06</totfact>
</mgrwt>
</event>
<event>
 3    1  0.1628330E-001  0.1250000E+03  0.7546771E-02  0.1235069E+00
         21   -1    0    0  502  501  0.00000000000E+00  0.00000000000E+00  0.46639468338E+03  0.46639468338E+03  0.00000000000E+00 0.  1.
         21   -1    0    0  501  502 -0.00000000000E+00 -0.00000000000E+00 -0.83754170861E+01  0.83754170861E+01  0.00000000000E+00 0.  1.
         25    1    1    2    0    0  0.00000000000E+00  0.00000000000E+00  0.45801926629E+03  0.47477010046E+03  0.12500000000E+03 0.  0.
<mgrwt>
<rscale>  0 0.12500000E+03</rscale>
<asrwt>0</asrwt>
<pdfrwt beam="1">  1       21 0.71753008E-01 0.12500000E+03</pdfrwt>
<pdfrwt beam="2">  1       21 0.12885261E-02 0.12500000E+03</pdfrwt>
<totfact> 0.43446254E+06</totfact>
</mgrwt>
</event>
<event>
 3    1  0.1628330E-001  0.1250000E+03  0.7546771E-02  0.1235069E+00
         21   -1    0    0  502  501  0.00000000000E+00  0.00000000000E+00  0.24011319010E+03  0.24011319010E+03  0.00000000000E+00 0. -1.
         21   -1    0    0  501  502 -0.00000000000E+00 -0.00000000000E+00 -0.16268369091E+02  0.16268369091E+02  0.00000000000E+00 0. -1.
         25    1    1    2    0    0  0.00000000000E+00  0.00000000000E+00  0.22384482100E+03  0.25638155919E+03  0.12500000000E+03 0.  0.
<mgrwt>
<rscale>  0 0.12500000E+03</rscale>
<asrwt>0</asrwt>
<pdfrwt beam="1">  1       21 0.36940488E-01 0.12500000E+03</pdfrwt>
<pdfrwt beam="2">  1       21 0.25028262E-02 0.12500000E+03</pdfrwt>
<totfact> 0.59282525E+06</totfact>
</mgrwt>
</event>
<event>
 3    1  0.1628330E-001  0.1250000E+03  0.7546771E-02  0.1235069E+00
         21   -1    0    0  502  501  0.00000000000E+00  0.00000000000E+00  0.15015723953E+02  0.15015723953E+02  0.00000000000E+00 0.  1.
         21   -1    0    0  501  502 -0.00000000000E+00 -0.00000000000E+00 -0.26014396723E+03  0.26014396723E+03  0.00000000000E+00 0.  1.
         25    1    1    2    0    0  0.00000000000E+00  0.00000000000E+00 -0.24512824327E+03  0.27515969118E+03  0.12500000000E+03 0.  0.
<mgrwt>
<rscale>  0 0.12500000E+03</rscale>
<asrwt>0</asrwt>
<pdfrwt beam="1">  1       21 0.23101115E-02 0.12500000E+03</pdfrwt>
<pdfrwt beam="2">  1       21 0.40022147E-01 0.12500000E+03</pdfrwt>
<totfact> 0.57585812E+06</totfact>
</mgrwt>
</event>
<event>
 3    1  0.1628330E-001  0.1250000E+03  0.7546771E-02  0.1235069E+00
         21   -1    0    0  502  501  0.00000000000E+00  0.00000000000E+00  0.16294364724E+03  0.16294364724E+03  0.00000000000E+00 0.  1.
         21   -1    0    0  501  502 -0.00000000000E+00 -0.00000000000E+00 -0.23973011935E+02  0.23973011935E+02  0.00000000000E+00 0.  1.
         25    1    1    2    0    0  0.00000000000E+00  0.00000000000E+00  0.13897063530E+03  0.18691665917E+03  0.12500000000E+03 0.  0.
<mgrwt>
<rscale>  0 0.12500000E+03</rscale>
<asrwt>0</asrwt>
<pdfrwt beam="1">  1       21 0.25068253E-01 0.12500000E+03</pdfrwt>
<pdfrwt beam="2">  1       21 0.36881558E-02 0.12500000E+03</pdfrwt>
<totfact> 0.66366800E+06</totfact>
</mgrwt>
</event>
<event>
 3    1  0.1628330E-001  0.1250000E+03  0.7546771E-02  0.1235069E+00
         21   -1    0    0  502  501  0.00000000000E+00  0.00000000000E+00  0.12252173368E+02  0.12252173368E+02  0.00000000000E+00 0.  1.
         21   -1    0    0  501  502 -0.00000000000E+00 -0.00000000000E+00 -0.31882098651E+03  0.31882098651E+03  0.00000000000E+00 0.  1.
         25    1    1    2    0    0  0.00000000000E+00  0.00000000000E+00 -0.30656881315E+03  0.33107315988E+03  0.12500000000E+03 0.  0.
<mgrwt>
<rscale>  0 0.12500000E+03</rscale>
<asrwt>0</asrwt>
<pdfrwt beam="1">  1       21 0.18849495E-02 0.12500000E+03</pdfrwt>
<pdfrwt beam="2">  1       21 0.49049390E-01 0.12500000E+03</pdfrwt>
<totfact> 0.52967350E+06</totfact>
</mgrwt>
</event>
<event>
 3    1  0.1628330E-001  0.1250000E+03  0.7546771E-02  0.1235069E+00
         21   -1    0    0  502  501  0.00000000000E+00  0.00000000000E+00  0.91049304834E+01  0.91049304834E+01  0.00000000000E+00 0.  1.
         21   -1    0    0  501  502 -0.00000000000E+00 -0.00000000000E+00 -0.42902579071E+03  0.42902579071E+03  0.00000000000E+00 0.  1.
         25    1    1    2    0    0  0.00000000000E+00  0.00000000000E+00 -0.41992086023E+03  0.43813072119E+03  0.12500000000E+03 0.  0.
<mgrwt>
<rscale>  0 0.12500000E+03</rscale>
<asrwt>0</asrwt>
<pdfrwt beam="1">  1       21 0.14007589E-02 0.12500000E+03</pdfrwt>
<pdfrwt beam="2">  1       21 0.66003950E-01 0.12500000E+03</pdfrwt>
<totfact> 0.45610915E+06</totfact>
</mgrwt>
</event>
<event>
 3    1  0.1628330E-001  0.1250000E+03  0.7546771E-02  0.1235069E+00
         21   -1    0    0  502  501  0.00000000000E+00  0.00000000000E+00  0.53032236021E+02  0.53032236021E+02  0.00000000000E+00 0.  1.
         21   -1    0    0  501  502 -0.00000000000E+00 -0.00000000000E+00 -0.73658029401E+02  0.73658029401E+02  0.00000000000E+00 0.  1.
         25    1    1    2    0    0  0.00000000000E+00  0.00000000000E+00 -0.20625793380E+02  0.12669026542E+03  0.12500000000E+03 0.  0.
<mgrwt>
<rscale>  0 0.12500000E+03</rscale>
<asrwt>0</asrwt>
<pdfrwt beam="1">  1       21 0.81588055E-02 0.12500000E+03</pdfrwt>
<pdfrwt beam="2">  1       21 0.11332005E-01 0.12500000E+03</pdfrwt>
<totfact> 0.73811364E+06</totfact>
</mgrwt>
</event>
<event>
 3    1  0.1628330E-001  0.1250000E+03  0.7546771E-02  0.1235069E+00
         21   -1    0    0  502  501  0.00000000000E+00  0.00000000000E+00  0.25051058354E+03  0.25051058354E+03  0.00000000000E+00 0.  1.
         21   -1    0    0  501  502 -0.00000000000E+00 -0.00000000000E+00 -0.15593153570E+02  0.15593153570E+02  0.00000000000E+00 0.  1.
         25    1    1    2    0    0  0.00000000000E+00  0.00000000000E+00  0.23491742997E+03  0.26610373711E+03  0.12500000000E+03 0.  0.
<mgrwt>
<rscale>  0 0.12500000E+03</rscale>
<asrwt>0</asrwt>
<pdfrwt beam="1">  1       21 0.38540087E-01 0.12500000E+03</pdfrwt>
<pdfrwt beam="2">  1       21 0.23989469E-02 0.12500000E+03</pdfrwt>
<totfact> 0.58394311E+06</totfact>
</mgrwt>
</event>
<event>
 3    1  0.1628330E-001  0.1250000E+03  0.7546771E-02  0.1235069E+00
         21   -1    0    0  502  501  0.00000000000E+00  0.00000000000E+00  0.85820190037E+02  0.85820190037E+02  0.00000000000E+00 0.  1.
         21   -1    0    0  501  502 -0.00000000000E+00 -0.00000000000E+00 -0.45516678515E+02  0.45516678515E+02  0.00000000000E+00 0.  1.
         25    1    1    2    0    0  0.00000000000E+00  0.00000000000E+00  0.40303511522E+02  0.13133686855E+03  0.12500000000E+03 0.  0.
<mgrwt>
<rscale>  0 0.12500000E+03</rscale>
<asrwt>0</asrwt>
<pdfrwt beam="1">  1       21 0.13203106E-01 0.12500000E+03</pdfrwt>
<pdfrwt beam="2">  1       21 0.70025659E-02 0.12500000E+03</pdfrwt>
<totfact> 0.73185312E+06</totfact>
</mgrwt>
</event>
<event>
 3    1  0.1628330E-001  0.1250000E+03  0.7546771E-02  0.1235069E+00
         21   -1    0    0  502  501  0.00000000000E+00  0.00000000000E+00  0.24493031789E+02  0.24493031789E+02  0.00000000000E+00 0. -1.
         21   -1    0    0  501  502 -0.00000000000E+00 -0.00000000000E+00 -0.15948413547E+03  0.15948413547E+03  0.00000000000E+00 0. -1.
         25    1    1    2    0    0  0.00000000000E+00  0.00000000000E+00 -0.13499110368E+03  0.18397716726E+03  0.12500000000E+03 0.  0.
<mgrwt>
<rscale>  0 0.12500000E+03</rscale>
<asrwt>0</asrwt>
<pdfrwt beam="1">  1       21 0.37681588E-02 0.12500000E+03</pdfrwt>
<pdfrwt beam="2">  1       21 0.24536021E-01 0.12500000E+03</pdfrwt>
<totfact> 0.66698192E+06</totfact>
</mgrwt>
</event>
<event>
 3    1  0.1628330E-001  0.1250000E+03  0.7546771E-02  0.1235069E+00
         21   -1    0    0  502  501  0.00000000000E+00  0.00000000000E+00  0.58797403313E+02  0.58797403313E+02  0.00000000000E+00 0. -1.
         21   -1    0    0  501  502 -0.00000000000E+00 -0.00000000000E+00 -0.66435757021E+02  0.66435757021E+02  0.00000000000E+00 0. -1.
         25    1    1    2    0    0  0.00000000000E+00  0.00000000000E+00 -0.76383537077E+01  0.12523316033E+03  0.12500000000E+03 0.  0.
<mgrwt>
<rscale>  0 0.12500000E+03</rscale>
<asrwt>0</asrwt>
<pdfrwt beam="1">  1       21 0.90457544E-02 0.12500000E+03</pdfrwt>
<pdfrwt beam="2">  1       21 0.10220886E-01 0.12500000E+03</pdfrwt>
<totfact> 0.74012095E+06</totfact>
</mgrwt>
</event>
<event>
 3    1  0.1628330E-001  0.1250000E+03  0.7546771E-02  0.1235069E+00
         21   -1    0    0  502  501  0.00000000000E+00  0.00000000000E+00  0.29109464984E+03  0.29109464984E+03  0.00000000000E+00 0. -1.
         21   -1    0    0  501  502 -0.00000000000E+00 -0.00000000000E+00 -0.13419174836E+02  0.13419174836E+02  0.00000000000E+00 0. -1.
         25    1    1    2    0    0  0.00000000000E+00  0.00000000000E+00  0.27767547501E+03  0.30451382468E+03  0.12500000000E+03 0.  0.
<mgrwt>
<rscale>  0 0.12500000E+03</rscale>
<asrwt>0</asrwt>
<pdfrwt beam="1">  1       21 0.44783787E-01 0.12500000E+03</pdfrwt>
<pdfrwt beam="2">  1       21 0.20644887E-02 0.12500000E+03</pdfrwt>
<totfact> 0.55083133E+06</totfact>
</mgrwt>
</event>
<event>
 3    1  0.1628330E-001  0.1250000E+03  0.7546771E-02  0.1235069E+00
         21   -1    0    0  502  501  0.00000000000E+00  0.00000000000E+00  0.77581871926E+02  0.77581871926E+02  0.00000000000E+00 0. -1.
         21   -1    0    0  501  502 -0.00000000000E+00 -0.00000000000E+00 -0.50350035428E+02  0.50350035428E+02  0.00000000000E+00 0. -1.
         25    1    1    2    0    0  0.00000000000E+00  0.00000000000E+00  0.27231836498E+02  0.12793190735E+03  0.12500000000E+03 0.  0.
<mgrwt>
<rscale>  0 0.12500000E+03</rscale>
<asrwt>0</asrwt>
<pdfrwt beam="1">  1       21 0.11935673E-01 0.12500000E+03</pdfrwt>
<pdfrwt beam="2">  1       21 0.77461593E-02 0.12500000E+03</pdfrwt>
<totfact> 0.73642760E+06</totfact>
</mgrwt>
</event>
<event>
 3    1  0.1628330E-001  0.1250000E+03  0.7546771E-02  0.1235069E+00
         21   -1    0    0  502  501  0.00000000000E+00  0.00000000000E+00  0.12349177343E+02  0.12349177343E+02  0.00000000000E+00 0.  1.
         21   -1    0    0  501  502 -0.00000000000E+00 -0.00000000000E+00 -0.31631661702E+03  0.31631661702E+03  0.00000000000E+00 0.  1.
         25    1    1    2    0    0  0.00000000000E+00  0.00000000000E+00 -0.30396743968E+03  0.32866579436E+03  0.12500000000E+03 0.  0.
<mgrwt>
<rscale>  0 0.12500000E+03</rscale>
<asrwt>0</asrwt>
<pdfrwt beam="1">  1       21 0.18998735E-02 0.12500000E+03</pdfrwt>
<pdfrwt beam="2">  1       21 0.48664093E-01 0.12500000E+03</pdfrwt>
<totfact> 0.53153689E+06</totfact>
</mgrwt>
</event>
<event>
 3    1  0.1628330E-001  0.1250000E+03  0.7546771E-02  0.1235069E+00
         21   -1    0    0  502  501  0.00000000000E+00  0.00000000000E+00  0.15266291219E+03  0.15266291219E+03  0.00000000000E+00 0.  1.
         21   -1    0    0  501  502 -0.00000000000E+00 -0.00000000000E+00 -0.25587419656E+02  0.25587419656E+02  0.00000000000E+00 0.  1.
         25    1    1    2    0    0  0.00000000000E+00  0.00000000000E+00  0.12707549253E+03  0.17825033184E+03  0.12500000000E+03 0.  0.
<mgrwt>
<rscale>  0 0.12500000E+03</rscale>
<asrwt>0</asrwt>
<pdfrwt beam="1">  1       21 0.23486601E-01 0.12500000E+03</pdfrwt>
<pdfrwt beam="2">  1       21 0.39365262E-02 0.12500000E+03</pdfrwt>
<totfact> 0.67352822E+06</totfact>
</mgrwt>
</event>
<event>
 3    1  0.1628330E-001  0.1250000E+03  0.7546771E-02  0.1235069E+00
         21   -1    0    0  502  501  0.00000000000E+00  0.00000000000E+00  0.41316264693E+01  0.41316264693E+01  0.00000000000E+00 0.  1.
         21   -1    0    0  501  502 -0.00000000000E+00 -0.00000000000E+00 -0.94545090875E+03  0.94545090875E+03  0.00000000000E+00 0.  1.
         25    1    1    2    0    0  0.00000000000E+00  0.00000000000E+00 -0.94131928228E+03  0.94958253522E+03  0.12500000000E+03 0.  0.
<mgrwt>
<rscale>  0 0.12500000E+03</rscale>
<asrwt>0</asrwt>
<pdfrwt beam="1">  1       21 0.63563421E-03 0.12500000E+03</pdfrwt>
<pdfrwt beam="2">  1       21 0.14545413E+00 0.12500000E+03</pdfrwt>
<totfact> 0.24922559E+06</totfact>
</mgrwt>
</event>
<event>
 3    1  0.1628330E-001  0.1250000E+03  0.7546771E-02  0.1235069E+00
         21   -1    0    0  502  501  0.00000000000E+00  0.00000000000E+00  0.28685509224E+02  0.28685509224E+02  0.00000000000E+00 0. -1.
         21   -1    0    0  501  502 -0.00000000000E+00 -0.00000000000E+00 -0.13617502724E+03  0.13617502724E+03  0.00000000000E+00 0. -1.
         25    1    1    2    0    0  0.00000000000E+00  0.00000000000E+00 -0.10748951801E+03  0.16486053646E+03  0.12500000000E+03 0.  0.
<mgrwt>
<rscale>  0 0.12500000E+03</rscale>
<asrwt>0</asrwt>
<pdfrwt beam="1">  1       21 0.44131554E-02 0.12500000E+03</pdfrwt>
<pdfrwt beam="2">  1       21 0.20950004E-01 0.12500000E+03</pdfrwt>
<totfact> 0.68930415E+06</totfact>
</mgrwt>
</event>
<event>
 3    1  0.1628330E-001  0.1250000E+03  0.7546771E-02  0.1235069E+00
         21   -1    0    0  502  501  0.00000000000E+00  0.00000000000E+00  0.80931182257E+02  0.80931182257E+02  0.00000000000E+00 0. -1.
         21   -1    0    0  501  502 -0.00000000000E+00 -0.00000000000E+00 -0.48266315789E+02  0.48266315789E+02  0.00000000000E+00 0. -1.
         25    1    1    2    0    0  0.00000000000E+00  0.00000000000E+00  0.32664866467E+02  0.12919749805E+03  0.12500000000E+03 0.  0.
<mgrwt>
<rscale>  0 0.12500000E+03</rscale>
<asrwt>0</asrwt>
<pdfrwt beam="1">  1       21 0.12450951E-01 0.12500000E+03</pdfrwt>
<pdfrwt beam="2">  1       21 0.74255870E-02 0.12500000E+03</pdfrwt>
<totfact> 0.73472370E+06</totfact>
</mgrwt>
</event>
<event>
 3    1  0.1628330E-001  0.1250000E+03  0.7546771E-02  0.1235069E+00
         21   -1    0    0  502  501  0.00000000000E+00  0.00000000000E+00  0.50067003463E+01  0.50067003463E+01  0.00000000000E+00 0. -1.
         21   -1    0    0  501  502 -0.00000000000E+00 -0.00000000000E+00 -0.78020447197E+03  0.78020447197E+03  0.00000000000E+00 0. -1.
         25    1    1    2    0    0  0.00000000000E+00  0.00000000000E+00 -0.77519777162E+03  0.78521117231E+03  0.12500000000E+03 0.  0.
<mgrwt>
<rscale>  0 0.12500000E+03</rscale>
<asrwt>0</asrwt>
<pdfrwt beam="1">  1       21 0.77026168E-03 0.12500000E+03</pdfrwt>
<pdfrwt beam="2">  1       21 0.12003144E+00 0.12500000E+03</pdfrwt>
<totfact> 0.29858700E+06</totfact>
</mgrwt>
</event>
<event>
 3    1  0.1628330E-001  0.1250000E+03  0.7546771E-02  0.1235069E+00
         21   -1    0    0  502  501  0.00000000000E+00  0.00000000000E+00  0.31168958752E+02  0.31168958752E+02  0.00000000000E+00 0.  1.
         21   -1    0    0  501  502 -0.00000000000E+00 -0.00000000000E+00 -0.12532500784E+03  0.12532500784E+03  0.00000000000E+00 0.  1.
         25    1    1    2    0    0  0.00000000000E+00  0.00000000000E+00 -0.94156049088E+02  0.15649396659E+03  0.12500000000E+03 0.  0.
<mgrwt>
<rscale>  0 0.12500000E+03</rscale>
<asrwt>0</asrwt>
<pdfrwt beam="1">  1       21 0.47952244E-02 0.12500000E+03</pdfrwt>
<pdfrwt beam="2">  1       21 0.19280770E-01 0.12500000E+03</pdfrwt>
<totfact> 0.69950452E+06</totfact>
</mgrwt>
</event>
<event>
 3    1  0.1628330E-001  0.1250000E+03  0.7546771E-02  0.1235069E+00
         21   -1    0    0  502  501  0.00000000000E+00  0.00000000000E+00  0.10918673832E+03  0.10918673832E+03  0.00000000000E+00 0. -1.
         21   -1    0    0  501  502 -0.00000000000E+00 -0.00000000000E+00 -0.35775864910E+02  0.35775864910E+02  0.00000000000E+00 0. -1.
         25    1    1    2    0    0  0.00000000000E+00  0.00000000000E+00  0.73410873408E+02  0.14496260323E+03  0.12500000000E+03 0.  0.
<mgrwt>
<rscale>  0 0.12500000E+03</rscale>
<asrwt>0</asrwt>
<pdfrwt beam="1">  1       21 0.16797960E-01 0.12500000E+03</pdfrwt>
<pdfrwt beam="2">  1       21 0.55039792E-02 0.12500000E+03</pdfrwt>
<totfact> 0.71397885E+06</totfact>
</mgrwt>
</event>
<event>
 3    1  0.1628330E-001  0.1250000E+03  0.7546771E-02  0.1235069E+00
         21   -1    0    0  502  501  0.00000000000E+00  0.00000000000E+00  0.19302415073E+02  0.19302415073E+02  0.00000000000E+00 0.  1.
         21   -1    0    0  501  502 -0.00000000000E+00 -0.00000000000E+00 -0.20237104970E+03  0.20237104970E+03  0.00000000000E+00 0.  1.
         25    1    1    2    0    0  0.00000000000E+00  0.00000000000E+00 -0.18306863463E+03  0.22167346477E+03  0.12500000000E+03 0.  0.
<mgrwt>
<rscale>  0 0.12500000E+03</rscale>
<asrwt>0</asrwt>
<pdfrwt beam="1">  1       21 0.29696023E-02 0.12500000E+03</pdfrwt>
<pdfrwt beam="2">  1       21 0.31134008E-01 0.12500000E+03</pdfrwt>
<totfact> 0.62651893E+06</totfact>
</mgrwt>
</event>
<event>
 3    1  0.1628330E-001  0.1250000E+03  0.7546771E-02  0.1235069E+00
         21   -1    0    0  502  501  0.00000000000E+00  0.00000000000E+00  0.29512750828E+02  0.29512750828E+02  0.00000000000E+00 0.  1.
         21   -1    0    0  501  502 -0.00000000000E+00 -0.00000000000E+00 -0.13235804493E+03  0.13235804493E+03  0.00000000000E+00 0.  1.
         25    1    1    2    0    0  0.00000000000E+00  0.00000000000E+00 -0.10284529410E+03  0.16187079576E+03  0.12500000000E+03 0.  0.
<mgrwt>
<rscale>  0 0.12500000E+03</rscale>
<asrwt>0</asrwt>
<pdfrwt beam="1">  1       21 0.45404233E-02 0.12500000E+03</pdfrwt>
<pdfrwt beam="2">  1       21 0.20362776E-01 0.12500000E+03</pdfrwt>
<totfact> 0.69291624E+06</totfact>
</mgrwt>
</event>
<event>
 3    1  0.1628330E-001  0.1250000E+03  0.7546771E-02  0.1235069E+00
         21   -1    0    0  502  501  0.00000000000E+00  0.00000000000E+00  0.17983855904E+03  0.17983855904E+03  0.00000000000E+00 0.  1.
         21   -1    0    0  501  502 -0.00000000000E+00 -0.00000000000E+00 -0.21720870212E+02  0.21720870212E+02  0.00000000000E+00 0.  1.
         25    1    1    2    0    0  0.00000000000E+00  0.00000000000E+00  0.15811768883E+03  0.20155942925E+03  0.12500000000E+03 0.  0.
<mgrwt>
<rscale>  0 0.12500000E+03</rscale>
<asrwt>0</asrwt>
<pdfrwt beam="1">  1       21 0.27667470E-01 0.12500000E+03</pdfrwt>
<pdfrwt beam="2">  1       21 0.33416725E-02 0.12500000E+03</pdfrwt>
<totfact> 0.64758669E+06</totfact>
</mgrwt>
</event>
<event>
 3    1  0.1628330E-001  0.1250000E+03  0.7546771E-02  0.1235069E+00
         21   -1    0    0  502  501  0.00000000000E+00  0.00000000000E+00  0.95850450614E+02  0.95850450614E+02  0.00000000000E+00 0.  1.
         21   -1    0    0  501  502 -0.00000000000E+00 -0.00000000000E+00 -0.40753590358E+02  0.40753590358E+02  0.00000000000E+00 0.  1.
         25    1    1    2    0    0  0.00000000000E+00  0.00000000000E+00  0.55096860256E+02  0.13660404097E+03  0.12500000000E+03 0.  0.
<mgrwt>
<rscale>  0 0.12500000E+03</rscale>
<asrwt>0</asrwt>
<pdfrwt beam="1">  1       21 0.14746223E-01 0.12500000E+03</pdfrwt>
<pdfrwt beam="2">  1       21 0.62697831E-02 0.12500000E+03</pdfrwt>
<totfact> 0.72484776E+06</totfact>
</mgrwt>
</event>
<event>
 3    1  0.1628330E-001  0.1250000E+03  0.7546771E-02  0.1235069E+00
         21   -1    0    0  502  501  0.00000000000E+00  0.00000000000E+00  0.80062636845E+01  0.80062636845E+01  0.00000000000E+00 0. -1.
         21   -1    0    0  501  502 -0.00000000000E+00 -0.00000000000E+00 -0.48789924413E+03  0.48789924413E+03  0.00000000000E+00 0. -1.
         25    1    1    2    0    0  0.00000000000E+00  0.00000000000E+00 -0.47989298045E+03  0.49590550782E+03  0.12500000000E+03 0.  0.
<mgrwt>
<rscale>  0 0.12500000E+03</rscale>
<asrwt>0</asrwt>
<pdfrwt beam="1">  1       21 0.12317322E-02 0.12500000E+03</pdfrwt>
<pdfrwt beam="2">  1       21 0.75061463E-01 0.12500000E+03</pdfrwt>
<totfact> 0.42266984E+06</totfact>
</mgrwt>
</event>
<event>
 3    1  0.1628330E-001  0.1250000E+03  0.7546771E-02  0.1235069E+00
         21   -1    0    0  502  501  0.00000000000E+00  0.00000000000E+00  0.23733047444E+02  0.23733047444E+02  0.00000000000E+00 0. -1.
         21   -1    0    0  501  502 -0.00000000000E+00 -0.00000000000E+00 -0.16459116804E+03  0.16459116804E+03  0.00000000000E+00 0. -1.
         25    1    1    2    0    0  0.00000000000E+00  0.00000000000E+00 -0.14085812060E+03  0.18832421549E+03  0.12500000000E+03 0.  0.
<mgrwt>
<rscale>  0 0.12500000E+03</rscale>
<asrwt>0</asrwt>
<pdfrwt beam="1">  1       21 0.36512380E-02 0.12500000E+03</pdfrwt>
<pdfrwt beam="2">  1       21 0.25321719E-01 0.12500000E+03</pdfrwt>
<totfact> 0.66209197E+06</totfact>
</mgrwt>
</event>
<event>
 3    1  0.1628330E-001  0.1250000E+03  0.7546771E-02  0.1235069E+00
         21   -1    0    0  502  501  0.00000000000E+00  0.00000000000E+00  0.16472853071E+02  0.16472853071E+02  0.00000000000E+00 0.  1.
         21   -1    0    0  501  502 -0.00000000000E+00 -0.00000000000E+00 -0.23713257097E+03  0.23713257097E+03  0.00000000000E+00 0.  1.
         25    1    1    2    0    0  0.00000000000E+00  0.00000000000E+00 -0.22065971790E+03  0.25360542404E+03  0.12500000000E+03 0.  0.
<mgrwt>
<rscale>  0 0.12500000E+03</rscale>
<asrwt>0</asrwt>
<pdfrwt beam="1">  1       21 0.25342853E-02 0.12500000E+03</pdfrwt>
<pdfrwt beam="2">  1       21 0.36481931E-01 0.12500000E+03</pdfrwt>
<totfact> 0.59540396E+06</totfact>
</mgrwt>
</event>
<event>
 3    1  0.1628330E-001  0.1250000E+03  0.7546771E-02  0.1235069E+00
         21   -1    0    0  502  501  0.00000000000E+00  0.00000000000E+00  0.68966007470E+01  0.68966007470E+01  0.00000000000E+00 0. -1.
         21   -1    0    0  501  502 -0.00000000000E+00 -0.00000000000E+00 -0.56640222384E+03  0.56640222384E+03  0.00000000000E+00 0. -1.
         25    1    1    2    0    0  0.00000000000E+00  0.00000000000E+00 -0.55950562309E+03  0.57329882458E+03  0.12500000000E+03 0.  0.
<mgrwt>
<rscale>  0 0.12500000E+03</rscale>
<asrwt>0</asrwt>
<pdfrwt beam="1">  1       21 0.10610151E-02 0.12500000E+03</pdfrwt>
<pdfrwt beam="2">  1       21 0.87138840E-01 0.12500000E+03</pdfrwt>
<totfact> 0.38328675E+06</totfact>
</mgrwt>
</event>
<event>
 3    1  0.1628330E-001  0.1250000E+03  0.7546771E-02  0.1235069E+00
         21   -1    0    0  502  501  0.00000000000E+00  0.00000000000E+00  0.60749124067E+02  0.60749124067E+02  0.00000000000E+00 0. -1.
         21   -1    0    0  501  502 -0.00000000000E+00 -0.00000000000E+00 -0.64301338661E+02  0.64301338661E+02  0.00000000000E+00 0. -1.
         25    1    1    2    0    0  0.00000000000E+00  0.00000000000E+00 -0.35522145936E+01  0.12505046273E+03  0.12500000000E+03 0.  0.
<mgrwt>
<rscale>  0 0.12500000E+03</rscale>
<asrwt>0</asrwt>
<pdfrwt beam="1">  1       21 0.93460191E-02 0.12500000E+03</pdfrwt>
<pdfrwt beam="2">  1       21 0.98925136E-02 0.12500000E+03</pdfrwt>
<totfact> 0.74036766E+06</totfact>
</mgrwt>
</event>
<event>
 3    1  0.1628330E-001  0.1250000E+03  0.7546771E-02  0.1235069E+00
         21   -1    0    0  502  501  0.00000000000E+00  0.00000000000E+00  0.79708595263E+02  0.79708595263E+02  0.00000000000E+00 0. -1.
         21   -1    0    0  501  502 -0.00000000000E+00 -0.00000000000E+00 -0.49006634568E+02  0.49006634568E+02  0.00000000000E+00 0. -1.
         25    1    1    2    0    0  0.00000000000E+00  0.00000000000E+00  0.30701960695E+02  0.12871522983E+03  0.12500000000E+03 0.  0.
<mgrwt>
<rscale>  0 0.12500000E+03</rscale>
<asrwt>0</asrwt>
<pdfrwt beam="1">  1       21 0.12262861E-01 0.12500000E+03</pdfrwt>
<pdfrwt beam="2">  1       21 0.75394822E-02 0.12500000E+03</pdfrwt>
<totfact> 0.73537155E+06</totfact>
</mgrwt>
</event>
<event>
 3    1  0.1628330E-001  0.1250000E+03  0.7546771E-02  0.1235069E+00
         21   -1    0    0  502  501  0.00000000000E+00  0.00000000000E+00  0.53174442862E+02  0.53174442862E+02  0.00000000000E+00 0. -1.
         21   -1    0    0  501  502 -0.00000000000E+00 -0.00000000000E+00 -0.73461042368E+02  0.73461042368E+02  0.00000000000E+00 0. -1.
         25    1    1    2    0    0  0.00000000000E+00  0.00000000000E+00 -0.20286599505E+02  0.12663548523E+03  0.12500000000E+03 0.  0.
<mgrwt>
<rscale>  0 0.12500000E+03</rscale>
<asrwt>0</asrwt>
<pdfrwt beam="1">  1       21 0.81806835E-02 0.12500000E+03</pdfrwt>
<pdfrwt beam="2">  1       21 0.11301699E-01 0.12500000E+03</pdfrwt>
<totfact> 0.73818847E+06</totfact>
</mgrwt>
</event>
<event>
 3    1  0.1628330E-001  0.1250000E+03  0.7546771E-02  0.1235069E+00
         21   -1    0    0  502  501  0.00000000000E+00  0.00000000000E+00  0.22659238443E+03  0.22659238443E+03  0.00000000000E+00 0. -1.
         21   -1    0    0  501  502 -0.00000000000E+00 -0.00000000000E+00 -0.17239105409E+02  0.17239105409E+02  0.00000000000E+00 0. -1.
         25    1    1    2    0    0  0.00000000000E+00  0.00000000000E+00  0.20935327902E+03  0.24383148984E+03  0.12500000000E+03 0.  0.
<mgrwt>
<rscale>  0 0.12500000E+03</rscale>
<asrwt>0</asrwt>
<pdfrwt beam="1">  1       21 0.34860365E-01 0.12500000E+03</pdfrwt>
<pdfrwt beam="2">  1       21 0.26521702E-02 0.12500000E+03</pdfrwt>
<totfact> 0.60463857E+06</totfact>
</mgrwt>
</event>
<event>
 3    1  0.1628330E-001  0.1250000E+03  0.7546771E-02  0.1235069E+00
         21   -1    0    0  502  501  0.00000000000E+00  0.00000000000E+00  0.11183133125E+02  0.11183133125E+02  0.00000000000E+00 0. -1.
         21   -1    0    0  501  502 -0.00000000000E+00 -0.00000000000E+00 -0.34929835463E+03  0.34929835463E+03  0.00000000000E+00 0. -1.
         25    1    1    2    0    0  0.00000000000E+00  0.00000000000E+00 -0.33811522150E+03  0.36048148775E+03  0.12500000000E+03 0.  0.
<mgrwt>
<rscale>  0 0.12500000E+03</rscale>
<asrwt>0</asrwt>
<pdfrwt beam="1">  1       21 0.17204822E-02 0.12500000E+03</pdfrwt>
<pdfrwt beam="2">  1       21 0.53738204E-01 0.12500000E+03</pdfrwt>
<totfact> 0.50773541E+06</totfact>
</mgrwt>
</event>
<event>
 3    1  0.1628330E-001  0.1250000E+03  0.7546771E-02  0.1235069E+00
         21   -1    0    0  502  501  0.00000000000E+00  0.00000000000E+00  0.19501728694E+02  0.19501728694E+02  0.00000000000E+00 0. -1.
         21   -1    0    0  501  502 -0.00000000000E+00 -0.00000000000E+00 -0.20030275578E+03  0.20030275578E+03  0.00000000000E+00 0. -1.
         25    1    1    2    0    0  0.00000000000E+00  0.00000000000E+00 -0.18080102709E+03  0.21980448448E+03  0.12500000000E+03 0.  0.
<mgrwt>
<rscale>  0 0.12500000E+03</rscale>
<asrwt>0</asrwt>
<pdfrwt beam="1">  1       21 0.30002661E-02 0.12500000E+03</pdfrwt>
<pdfrwt beam="2">  1       21 0.30815807E-01 0.12500000E+03</pdfrwt>
<totfact> 0.62842526E+06</totfact>
</mgrwt>
</event>
<event>
 3    1  0.1628330E-001  0.1250000E+03  0.7546771E-02  0.1235069E+00
         21   -1    0    0  502  501  0.00000000000E+00  0.00000000000E+00  0.78216740986E+02  0.78216740986E+02  0.00000000000E+00 0. -1.
         21   -1    0    0  501  502 -0.00000000000E+00 -0.00000000000E+00 -0.49941354635E+02  0.49941354635E+02  0.00000000000E+00 0. -1.
         25    1    1    2    0    0  0.00000000000E+00  0.00000000000E+00  0.28275386351E+02  0.12815809562E+03  0.12500000000E+03 0.  0.
<mgrwt>
<rscale>  0 0.12500000E+03</rscale>
<asrwt>0</asrwt>
<pdfrwt beam="1">  1       21 0.12033345E-01 0.12500000E+03</pdfrwt>
<pdfrwt beam="2">  1       21 0.76832854E-02 0.12500000E+03</pdfrwt>
<totfact> 0.73612214E+06</totfact>
</mgrwt>
</event>
<event>
 3    1  0.1628330E-001  0.1250000E+03  0.7546771E-02  0.1235069E+00
         21   -1    0    0  502  501  0.00000000000E+00  0.00000000000E+00  0.58630880830E+02  0.58630880830E+02  0.00000000000E+00 0.  1.
         21   -1    0    0  501  502 -0.00000000000E+00 -0.00000000000E+00 -0.66624446788E+02  0.66624446788E+02  0.00000000000E+00 0.  1.
         25    1    1    2    0    0  0.00000000000E+00  0.00000000000E+00 -0.79935659577E+01  0.12525532762E+03  0.12500000000E+03 0.  0.
<mgrwt>
<rscale>  0 0.12500000E+03</rscale>
<asrwt>0</asrwt>
<pdfrwt beam="1">  1       21 0.90201355E-02 0.12500000E+03</pdfrwt>
<pdfrwt beam="2">  1       21 0.10249915E-01 0.12500000E+03</pdfrwt>
<totfact> 0.74009102E+06</totfact>
</mgrwt>
</event>
<event>
 3    1  0.1628330E-001  0.1250000E+03  0.7546771E-02  0.1235069E+00
         21   -1    0    0  502  501  0.00000000000E+00  0.00000000000E+00  0.75110798466E+02  0.75110798466E+02  0.00000000000E+00 0. -1.
         21   -1    0    0  501  502 -0.00000000000E+00 -0.00000000000E+00 -0.52006503456E+02  0.52006503456E+02  0.00000000000E+00 0. -1.
         25    1    1    2    0    0  0.00000000000E+00  0.00000000000E+00  0.23104295011E+02  0.12711730192E+03  0.12500000000E+03 0.  0.
<mgrwt>
<rscale>  0 0.12500000E+03</rscale>
<asrwt>0</asrwt>
<pdfrwt beam="1">  1       21 0.11555507E-01 0.12500000E+03</pdfrwt>
<pdfrwt beam="2">  1       21 0.80010006E-02 0.12500000E+03</pdfrwt>
<totfact> 0.73753176E+06</totfact>
</mgrwt>
</event>
<event>
 3    1  0.1628330E-001  0.1250000E+03  0.7546771E-02  0.1235069E+00
         21   -1    0    0  502  501  0.00000000000E+00  0.00000000000E+00  0.33540702048E+03  0.33540702048E+03  0.00000000000E+00 0.  1.
         21   -1    0    0  501  502 -0.00000000000E+00 -0.00000000000E+00 -0.11646297667E+02  0.11646297667E+02  0.00000000000E+00 0.  1.
         25    1    1    2    0    0  0.00000000000E+00  0.00000000000E+00  0.32376072281E+03  0.34705331815E+03  0.12500000000E+03 0.  0.
<mgrwt>
<rscale>  0 0.12500000E+03</rscale>
<asrwt>0</asrwt>
<pdfrwt beam="1">  1       21 0.51601073E-01 0.12500000E+03</pdfrwt>
<pdfrwt beam="2">  1       21 0.17917384E-02 0.12500000E+03</pdfrwt>
<totfact> 0.51756794E+06</totfact>
</mgrwt>
</event>
<event>
 3    1  0.1628330E-001  0.1250000E+03  0.7546771E-02  0.1235069E+00
         21   -1    0    0  502  501  0.00000000000E+00  0.00000000000E+00  0.43396331486E+02  0.43396331486E+02  0.00000000000E+00 0. -1.
         21   -1    0    0  501  502 -0.00000000000E+00 -0.00000000000E+00 -0.90013369016E+02  0.90013369016E+02  0.00000000000E+00 0. -1.
         25    1    1    2    0    0  0.00000000000E+00  0.00000000000E+00 -0.46617037530E+02  0.13340970050E+03  0.12500000000E+03 0.  0.
<mgrwt>
<rscale>  0 0.12500000E+03</rscale>
<asrwt>0</asrwt>
<pdfrwt beam="1">  1       21 0.66763587E-02 0.12500000E+03</pdfrwt>
<pdfrwt beam="2">  1       21 0.13848211E-01 0.12500000E+03</pdfrwt>
<totfact> 0.72907738E+06</totfact>
</mgrwt>
</event>
<event>
 3    1  0.1628330E-001  0.1250000E+03  0.7546771E-02  0.1235069E+00
         21   -1    0    0  502  501  0.00000000000E+00  0.00000000000E+00  0.81669600693E+02  0.81669600693E+02  0.00000000000E+00 0.  1.
         21   -1    0    0  501  502 -0.00000000000E+00 -0.00000000000E+00 -0.47829914275E+02  0.47829914275E+02  0.00000000000E+00 0.  1.
         25    1    1    2    0    0  0.00000000000E+00  0.00000000000E+00  0.33839686418E+02  0.12949951497E+03  0.12500000000E+03 0.  0.
<mgrwt>
<rscale>  0 0.12500000E+03</rscale>
<asrwt>0</asrwt>
<pdfrwt beam="1">  1       21 0.12564554E-01 0.12500000E+03</pdfrwt>
<pdfrwt beam="2">  1       21 0.73584483E-02 0.12500000E+03</pdfrwt>
<totfact> 0.73431881E+06</totfact>
</mgrwt>
</event>
<event>
 3    1  0.1628330E-001  0.1250000E+03  0.7546771E-02  0.1235069E+00
         21   -1    0    0  502  501  0.00000000000E+00  0.00000000000E+00  0.12155075578E+03  0.12155075578E+03  0.00000000000E+00 0.  1.
         21   -1    0    0  501  502 -0.00000000000E+00 -0.00000000000E+00 -0.32136780845E+02  0.32136780845E+02  0.00000000000E+00 0.  1.
         25    1    1    2    0    0  0.00000000000E+00  0.00000000000E+00  0.89413974932E+02  0.15368753662E+03  0.12500000000E+03 0.  0.
<mgrwt>
<rscale>  0 0.12500000E+03</rscale>
<asrwt>0</asrwt>
<pdfrwt beam="1">  1       21 0.18700116E-01 0.12500000E+03</pdfrwt>
<pdfrwt beam="2">  1       21 0.49441202E-02 0.12500000E+03</pdfrwt>
<totfact> 0.70298994E+06</totfact>
</mgrwt>
</event>
<event>
 3    1  0.1628330E-001  0.1250000E+03  0.7546771E-02  0.1235069E+00
         21   -1    0    0  502  501  0.00000000000E+00  0.00000000000E+00  0.69073205678E+02  0.69073205678E+02  0.00000000000E+00 0.  1.
         21   -1    0    0  501  502 -0.00000000000E+00 -0.00000000000E+00 -0.56552319552E+02  0.56552319552E+02  0.00000000000E+00 0.  1.
         25    1    1    2    0    0  0.00000000000E+00  0.00000000000E+00  0.12520886126E+02  0.12562552523E+03  0.12500000000E+03 0.  0.
<mgrwt>
<rscale>  0 0.12500000E+03</rscale>
<asrwt>0</asrwt>
<pdfrwt beam="1">  1       21 0.10626647E-01 0.12500000E+03</pdfrwt>
<pdfrwt beam="2">  1       21 0.87003569E-02 0.12500000E+03</pdfrwt>
<totfact> 0.73957889E+06</totfact>
</mgrwt>
</event>
<event>
 3    1  0.1628330E-001  0.1250000E+03  0.7546771E-02  0.1235069E+00
         21   -1    0    0  502  501  0.00000000000E+00  0.00000000000E+00  0.13800964116E+03  0.13800964116E+03  0.00000000000E+00 0.  1.
         21   -1    0    0  501  502 -0.00000000000E+00 -0.00000000000E+00 -0.28304181993E+02  0.28304181993E+02  0.00000000000E+00 0.  1.
         25    1    1    2    0    0  0.00000000000E+00  0.00000000000E+00  0.10970545916E+03  0.16631382315E+03  0.12500000000E+03 0.  0.
<mgrwt>
<rscale>  0 0.12500000E+03</rscale>
<asrwt>0</asrwt>
<pdfrwt beam="1">  1       21 0.21232252E-01 0.12500000E+03</pdfrwt>
<pdfrwt beam="2">  1       21 0.43544896E-02 0.12500000E+03</pdfrwt>
<totfact> 0.68756127E+06</totfact>
</mgrwt>
</event>
<event>
 3    1  0.1628330E-001  0.1250000E+03  0.7546771E-02  0.1235069E+00
         21   -1    0    0  502  501  0.00000000000E+00  0.00000000000E+00  0.34182150299E+02  0.34182150299E+02  0.00000000000E+00 0. -1.
         21   -1    0    0  501  502 -0.00000000000E+00 -0.00000000000E+00 -0.11427748008E+03  0.11427748008E+03  0.00000000000E+00 0. -1.
         25    1    1    2    0    0  0.00000000000E+00  0.00000000000E+00 -0.80095329784E+02  0.14845963038E+03  0.12500000000E+03 0.  0.
<mgrwt>
<rscale>  0 0.12500000E+03</rscale>
<asrwt>0</asrwt>
<pdfrwt beam="1">  1       21 0.52587924E-02 0.12500000E+03</pdfrwt>
<pdfrwt beam="2">  1       21 0.17581151E-01 0.12500000E+03</pdfrwt>
<totfact> 0.70953239E+06</totfact>
</mgrwt>
</event>
<event>
 3    1  0.1628330E-001  0.1250000E+03  0.7546771E-02  0.1235069E+00
         21   -1    0    0  502  501  0.00000000000E+00  0.00000000000E+00  0.17786445903E+02  0.17786445903E+02  0.00000000000E+00 0.  1.
         21   -1    0    0  501  502 -0.00000000000E+00 -0.00000000000E+00 -0.21961947998E+03  0.21961947998E+03  0.00000000000E+00 0.  1.
         25    1    1    2    0    0  0.00000000000E+00  0.00000000000E+00 -0.20183303408E+03  0.23740592588E+03  0.12500000000E+03 0.  0.
<mgrwt>
<rscale>  0 0.12500000E+03</rscale>
<asrwt>0</asrwt>
<pdfrwt beam="1">  1       21 0.27363762E-02 0.12500000E+03</pdfrwt>
<pdfrwt beam="2">  1       21 0.33787613E-01 0.12500000E+03</pdfrwt>
<totfact> 0.61084592E+06</totfact>
</mgrwt>
</event>
<event>
 3    1  0.1628330E-001  0.1250000E+03  0.7546771E-02  0.1235069E+00
         21   -1    0    0  502  501  0.00000000000E+00  0.00000000000E+00  0.16406293393E+03  0.16406293393E+03  0.00000000000E+00 0.  1.
         21   -1    0    0  501  502 -0.00000000000E+00 -0.00000000000E+00 -0.23809460836E+02  0.23809460836E+02  0.00000000000E+00 0.  1.
         25    1    1    2    0    0  0.00000000000E+00  0.00000000000E+00  0.14025347309E+03  0.18787239477E+03  0.12500000000E+03 0.  0.
<mgrwt>
<rscale>  0 0.12500000E+03</rscale>
<asrwt>0</asrwt>
<pdfrwt beam="1">  1       21 0.25240451E-01 0.12500000E+03</pdfrwt>
<pdfrwt beam="2">  1       21 0.36629941E-02 0.12500000E+03</pdfrwt>
<totfact> 0.66259712E+06</totfact>
</mgrwt>
</event>
<event>
 3    1  0.1628330E-001  0.1250000E+03  0.7546771E-02  0.1235069E+00
         21   -1    0    0  502  501  0.00000000000E+00  0.00000000000E+00  0.48168389869E+01  0.48168389869E+01  0.00000000000E+00 0.  1.
         21   -1    0    0  501  502 -0.00000000000E+00 -0.00000000000E+00 -0.81095714651E+03  0.81095714651E+03  0.00000000000E+00 0.  1.
         25    1    1    2    0    0  0.00000000000E+00  0.00000000000E+00 -0.80614030752E+03  0.81577398550E+03  0.12500000000E+03 0.  0.
<mgrwt>
<rscale>  0 0.12500000E+03</rscale>
<asrwt>0</asrwt>
<pdfrwt beam="1">  1       21 0.74105178E-03 0.12500000E+03</pdfrwt>
<pdfrwt beam="2">  1       21 0.12476270E+00 0.12500000E+03</pdfrwt>
<totfact> 0.28846797E+06</totfact>
</mgrwt>
</event>
<event>
 3    1  0.1628330E-001  0.1250000E+03  0.7546771E-02  0.1235069E+00
         21   -1    0    0  502  501  0.00000000000E+00  0.00000000000E+00  0.11770086377E+03  0.11770086377E+03  0.00000000000E+00 0.  1.
         21   -1    0    0  501  502 -0.00000000000E+00 -0.00000000000E+00 -0.33187946755E+02  0.33187946755E+02  0.00000000000E+00 0.  1.
         25    1    1    2    0    0  0.00000000000E+00  0.00000000000E+00  0.84512917019E+02  0.15088881053E+03  0.12500000000E+03 0.  0.
<mgrwt>
<rscale>  0 0.12500000E+03</rscale>
<asrwt>0</asrwt>
<pdfrwt beam="1">  1       21 0.18107825E-01 0.12500000E+03</pdfrwt>
<pdfrwt beam="2">  1       21 0.51058380E-02 0.12500000E+03</pdfrwt>
<totfact> 0.70647728E+06</totfact>
</mgrwt>
</event>
<event>
 3    1  0.1628330E-001  0.1250000E+03  0.7546771E-02  0.1235069E+00
         21   -1    0    0  502  501  0.00000000000E+00  0.00000000000E+00  0.14849443979E+03  0.14849443979E+03  0.00000000000E+00 0. -1.
         21   -1    0    0  501  502 -0.00000000000E+00 -0.00000000000E+00 -0.26305698756E+02  0.26305698756E+02  0.00000000000E+00 0. -1.
         25    1    1    2    0    0  0.00000000000E+00  0.00000000000E+00  0.12218874103E+03  0.17480013855E+03  0.12500000000E+03 0.  0.
<mgrwt>
<rscale>  0 0.12500000E+03</rscale>
<asrwt>0</asrwt>
<pdfrwt beam="1">  1       21 0.22845298E-01 0.12500000E+03</pdfrwt>
<pdfrwt beam="2">  1       21 0.40470307E-02 0.12500000E+03</pdfrwt>
<totfact> 0.67753113E+06</totfact>
</mgrwt>
</event>
<event>
 3    1  0.1628330E-001  0.1250000E+03  0.7546771E-02  0.1235069E+00
         21   -1    0    0  502  501  0.00000000000E+00  0.00000000000E+00  0.34676380189E+01  0.34676380189E+01  0.00000000000E+00 0. -1.
         21   -1    0    0  501  502 -0.00000000000E+00 -0.00000000000E+00 -0.11264872454E+04  0.11264872454E+04  0.00000000000E+00 0. -1.
         25    1    1    2    0    0  0.00000000000E+00  0.00000000000E+00 -0.11230196074E+04  0.11299548834E+04  0.12500000000E+03 0.  0.
<mgrwt>
<rscale>  0 0.12500000E+03</rscale>
<asrwt>0</asrwt>
<pdfrwt beam="1">  1       21 0.53348235E-03 0.12500000E+03</pdfrwt>
<pdfrwt beam="2">  1       21 0.17330587E+00 0.12500000E+03</pdfrwt>
<totfact> 0.20597209E+06</totfact>
</mgrwt>
</event>
<event>
 3    1  0.1628330E-001  0.1250000E+03  0.7546771E-02  0.1235069E+00
         21   -1    0    0  502  501  0.00000000000E+00  0.00000000000E+00  0.38227139538E+02  0.38227139538E+02  0.00000000000E+00 0.  1.
         21   -1    0    0  501  502 -0.00000000000E+00 -0.00000000000E+00 -0.10218525496E+03  0.10218525496E+03  0.00000000000E+00 0.  1.
         25    1    1    2    0    0  0.00000000000E+00  0.00000000000E+00 -0.63958115421E+02  0.14041239450E+03  0.12500000000E+03 0.  0.
<mgrwt>
<rscale>  0 0.12500000E+03</rscale>
<asrwt>0</asrwt>
<pdfrwt beam="1">  1       21 0.58810985E-02 0.12500000E+03</pdfrwt>
<pdfrwt beam="2">  1       21 0.15720808E-01 0.12500000E+03</pdfrwt>
<totfact> 0.71985517E+06</totfact>
</mgrwt>
</event>
<event>
 3    1  0.1628330E-001  0.1250000E+03  0.7546771E-02  0.1235069E+00
         21   -1    0    0  502  501  0.00000000000E+00  0.00000000000E+00  0.15218753232E+02  0.15218753232E+02  0.00000000000E+00 0.  1.
         21   -1    0    0  501  502 -0.00000000000E+00 -0.00000000000E+00 -0.25667345678E+03  0.25667345678E+03  0.00000000000E+00 0.  1.
         25    1    1    2    0    0  0.00000000000E+00  0.00000000000E+00 -0.24145470355E+03  0.27189221001E+03  0.12500000000E+03 0.  0.
<mgrwt>
<rscale>  0 0.12500000E+03</rscale>
<asrwt>0</asrwt>
<pdfrwt beam="1">  1       21 0.23413469E-02 0.12500000E+03</pdfrwt>
<pdfrwt beam="2">  1       21 0.39488220E-01 0.12500000E+03</pdfrwt>
<totfact> 0.57876035E+06</totfact>
</mgrwt>
</event>
<event>
 3    1  0.1628330E-001  0.1250000E+03  0.7546771E-02  0.1235069E+00
         21   -1    0    0  502  501  0.00000000000E+00  0.00000000000E+00  0.20714523375E+02  0.20714523375E+02  0.00000000000E+00 0. -1.
         21   -1    0    0  501  502 -0.00000000000E+00 -0.00000000000E+00 -0.18857542263E+03  0.18857542263E+03  0.00000000000E+00 0. -1.
         25    1    1    2    0    0  0.00000000000E+00  0.00000000000E+00 -0.16786089925E+03  0.20928994600E+03  0.12500000000E+03 0.  0.
<mgrwt>
<rscale>  0 0.12500000E+03</rscale>
<asrwt>0</asrwt>
<pdfrwt beam="1">  1       21 0.31868497E-02 0.12500000E+03</pdfrwt>
<pdfrwt beam="2">  1       21 0.29011604E-01 0.12500000E+03</pdfrwt>
<totfact> 0.63934318E+06</totfact>
</mgrwt>
</event>
<event>
 3    1  0.1628330E-001  0.1250000E+03  0.7546771E-02  0.1235069E+00
         21   -1    0    0  502  501  0.00000000000E+00  0.00000000000E+00  0.43468464947E+03  0.43468464947E+03  0.00000000000E+00 0. -1.
         21   -1    0    0  501  502 -0.00000000000E+00 -0.00000000000E+00 -0.89863996918E+01  0.89863996918E+01  0.00000000000E+00 0. -1.
         25    1    1    2    0    0  0.00000000000E+00  0.00000000000E+00  0.42569824977E+03  0.44367104916E+03  0.12500000000E+03 0.  0.
<mgrwt>
<rscale>  0 0.12500000E+03</rscale>
<asrwt>0</asrwt>
<pdfrwt beam="1">  1       21 0.66874545E-01 0.12500000E+03</pdfrwt>
<pdfrwt beam="2">  1       21 0.13825234E-02 0.12500000E+03</pdfrwt>
<totfact> 0.45273422E+06</totfact>
</mgrwt>
</event>
<event>
 3    1  0.1628330E-001  0.1250000E+03  0.7546771E-02  0.1235069E+00
         21   -1    0    0  502  501  0.00000000000E+00  0.00000000000E+00  0.59100995372E+02  0.59100995372E+02  0.00000000000E+00 0.  1.
         21   -1    0    0  501  502 -0.00000000000E+00 -0.00000000000E+00 -0.66094487502E+02  0.66094487502E+02  0.00000000000E+00 0.  1.
         25    1    1    2    0    0  0.00000000000E+00  0.00000000000E+00 -0.69934921301E+01  0.12519548287E+03  0.12500000000E+03 0.  0.
<mgrwt>
<rscale>  0 0.12500000E+03</rscale>
<asrwt>0</asrwt>
<pdfrwt beam="1">  1       21 0.90924609E-02 0.12500000E+03</pdfrwt>
<pdfrwt beam="2">  1       21 0.10168383E-01 0.12500000E+03</pdfrwt>
<totfact> 0.74017182E+06</totfact>
</mgrwt>
</event>
<event>
 3    1  0.1628330E-001  0.1250000E+03  0.7546771E-02  0.1235069E+00
         21   -1    0    0  502  501  0.00000000000E+00  0.00000000000E+00  0.26336136016E+02  0.26336136016E+02  0.00000000000E+00 0.  1.
         21   -1    0    0  501  502 -0.00000000000E+00 -0.00000000000E+00 -0.14832282145E+03  0.14832282145E+03  0.00000000000E+00 0.  1.
         25    1    1    2    0    0  0.00000000000E+00  0.00000000000E+00 -0.12198668543E+03  0.17465895747E+03  0.12500000000E+03 0.  0.
<mgrwt>
<rscale>  0 0.12500000E+03</rscale>
<asrwt>0</asrwt>
<pdfrwt beam="1">  1       21 0.40517133E-02 0.12500000E+03</pdfrwt>
<pdfrwt beam="2">  1       21 0.22818895E-01 0.12500000E+03</pdfrwt>
<totfact> 0.67769589E+06</totfact>
</mgrwt>
</event>
<event>
 3    1  0.1628330E-001  0.1250000E+03  0.7546771E-02  0.1235069E+00
         21   -1    0    0  502  501  0.00000000000E+00  0.00000000000E+00  0.85892624118E+01  0.85892624118E+01  0.00000000000E+00 0.  1.
         21   -1    0    0  501  502 -0.00000000000E+00 -0.00000000000E+00 -0.45478293859E+03  0.45478293859E+03  0.00000000000E+00 0.  1.
         25    1    1    2    0    0  0.00000000000E+00  0.00000000000E+00 -0.44619367618E+03  0.46337220100E+03  0.12500000000E+03 0.  0.
<mgrwt>
<rscale>  0 0.12500000E+03</rscale>
<asrwt>0</asrwt>
<pdfrwt beam="1">  1       21 0.13214246E-02 0.12500000E+03</pdfrwt>
<pdfrwt beam="2">  1       21 0.69966626E-01 0.12500000E+03</pdfrwt>
<totfact> 0.44102762E+06</totfact>
</mgrwt>
</event>
<event>
 3    1  0.1628330E-001  0.1250000E+03  0.7546771E-02  0.1235069E+00
         21   -1    0    0  502  501  0.00000000000E+00  0.00000000000E+00  0.12601667859E+03  0.12601667859E+03  0.00000000000E+00 0. -1.
         21   -1    0    0  501  502 -0.00000000000E+00 -0.00000000000E+00 -0.30997880944E+02  0.30997880944E+02  0.00000000000E+00 0. -1.
         25    1    1    2    0    0  0.00000000000E+00  0.00000000000E+00  0.95018797649E+02  0.15701455954E+03  0.12500000000E+03 0.  0.
<mgrwt>
<rscale>  0 0.12500000E+03</rscale>
<asrwt>0</asrwt>
<pdfrwt beam="1">  1       21 0.19387181E-01 0.12500000E+03</pdfrwt>
<pdfrwt beam="2">  1       21 0.47689048E-02 0.12500000E+03</pdfrwt>
<totfact> 0.69886137E+06</totfact>
</mgrwt>
</event>
<event>
 3    1  0.1628330E-001  0.1250000E+03  0.7546771E-02  0.1235069E+00
         21   -1    0    0  502  501  0.00000000000E+00  0.00000000000E+00  0.10219034718E+03  0.10219034718E+03  0.00000000000E+00 0. -1.
         21   -1    0    0  501  502 -0.00000000000E+00 -0.00000000000E+00 -0.38225234651E+02  0.38225234651E+02  0.00000000000E+00 0. -1.
         25    1    1    2    0    0  0.00000000000E+00  0.00000000000E+00  0.63965112527E+02  0.14041558183E+03  0.12500000000E+03 0.  0.
<mgrwt>
<rscale>  0 0.12500000E+03</rscale>
<asrwt>0</asrwt>
<pdfrwt beam="1">  1       21 0.15721592E-01 0.12500000E+03</pdfrwt>
<pdfrwt beam="2">  1       21 0.58808054E-02 0.12500000E+03</pdfrwt>
<totfact> 0.71985101E+06</totfact>
</mgrwt>
</event>
<event>
 3    1  0.1628330E-001  0.1250000E+03  0.7546771E-02  0.1235069E+00
         21   -1    0    0  502  501  0.00000000000E+00  0.00000000000E+00  0.27224218152E+03  0.27224218152E+03  0.00000000000E+00 0. -1.
         21   -1    0    0  501  502 -0.00000000000E+00 -0.00000000000E+00 -0.14348437770E+02  0.14348437770E+02  0.00000000000E+00 0. -1.
         25    1    1    2    0    0  0.00000000000E+00  0.00000000000E+00  0.25789374375E+03  0.28659061929E+03  0.12500000000E+03 0.  0.
<mgrwt>
<rscale>  0 0.12500000E+03</rscale>
<asrwt>0</asrwt>
<pdfrwt beam="1">  1       21 0.41883409E-01 0.12500000E+03</pdfrwt>
<pdfrwt beam="2">  1       21 0.22074522E-02 0.12500000E+03</pdfrwt>
<totfact> 0.56589289E+06</totfact>
</mgrwt>
</event>
<event>
 3    1  0.1628330E-001  0.1250000E+03  0.7546771E-02  0.1235069E+00
         21   -1    0    0  502  501  0.00000000000E+00  0.00000000000E+00  0.18182024254E+02  0.18182024254E+02  0.00000000000E+00 0. -1.
         21   -1    0    0  501  502 -0.00000000000E+00 -0.00000000000E+00 -0.21484131499E+03  0.21484131499E+03  0.00000000000E+00 0. -1.
         25    1    1    2    0    0  0.00000000000E+00  0.00000000000E+00 -0.19665929074E+03  0.23302333925E+03  0.12500000000E+03 0.  0.
<mgrwt>
<rscale>  0 0.12500000E+03</rscale>
<asrwt>0</asrwt>
<pdfrwt beam="1">  1       21 0.27972346E-02 0.12500000E+03</pdfrwt>
<pdfrwt beam="2">  1       21 0.33052509E-01 0.12500000E+03</pdfrwt>
<totfact> 0.61514386E+06</totfact>
</mgrwt>
</event>
<event>
 3    1  0.1628330E-001  0.1250000E+03  0.7546771E-02  0.1235069E+00
         21   -1    0    0  502  501  0.00000000000E+00  0.00000000000E+00  0.20729474188E+01  0.20729474188E+01  0.00000000000E+00 0. -1.
         21   -1    0    0  501  502 -0.00000000000E+00 -0.00000000000E+00 -0.18843941552E+04  0.18843941552E+04  0.00000000000E+00 0. -1.
         25    1    1    2    0    0  0.00000000000E+00  0.00000000000E+00 -0.18823212078E+04  0.18864671027E+04  0.12500000000E+03 0.  0.
<mgrwt>
<rscale>  0 0.12500000E+03</rscale>
<asrwt>0</asrwt>
<pdfrwt beam="1">  1       21 0.31891464E-03 0.12500000E+03</pdfrwt>
<pdfrwt beam="2">  1       21 0.28990711E+00 0.12500000E+03</pdfrwt>
<totfact> 0.91092685E+05</totfact>
</mgrwt>
</event>
<event>
 3    1  0.1628330E-001  0.1250000E+03  0.7546771E-02  0.1235069E+00
         21   -1    0    0  502  501  0.00000000000E+00  0.00000000000E+00  0.11339652682E+02  0.11339652682E+02  0.00000000000E+00 0.  1.
         21   -1    0    0  501  502 -0.00000000000E+00 -0.00000000000E+00 -0.34447704084E+03  0.34447704084E+03  0.00000000000E+00 0.  1.
         25    1    1    2    0    0  0.00000000000E+00  0.00000000000E+00 -0.33313738816E+03  0.35581669352E+03  0.12500000000E+03 0.  0.
<mgrwt>
<rscale>  0 0.12500000E+03</rscale>
<asrwt>0</asrwt>
<pdfrwt beam="1">  1       21 0.17445621E-02 0.12500000E+03</pdfrwt>
<pdfrwt beam="2">  1       21 0.52996463E-01 0.12500000E+03</pdfrwt>
<totfact> 0.51111703E+06</totfact>
</mgrwt>
</event>
<event>
 3    1  0.1628330E-001  0.1250000E+03  0.7546771E-02  0.1235069E+00
         21   -1    0    0  502  501  0.00000000000E+00  0.00000000000E+00  0.20855423408E+02  0.20855423408E+02  0.00000000000E+00 0. -1.
         21   -1    0    0  501  502 -0.00000000000E+00 -0.00000000000E+00 -0.18730139991E+03  0.18730139991E+03  0.00000000000E+00 0. -1.
         25    1    1    2    0    0  0.00000000000E+00  0.00000000000E+00 -0.16644597650E+03  0.20815682332E+03  0.12500000000E+03 0.  0.
<mgrwt>
<rscale>  0 0.12500000E+03</rscale>
<asrwt>0</asrwt>
<pdfrwt beam="1">  1       21 0.32085267E-02 0.12500000E+03</pdfrwt>
<pdfrwt beam="2">  1       21 0.28815600E-01 0.12500000E+03</pdfrwt>
<totfact> 0.64053982E+06</totfact>
</mgrwt>
</event>
<event>
 3    1  0.1628330E-001  0.1250000E+03  0.7546771E-02  0.1235069E+00
         21   -1    0    0  502  501  0.00000000000E+00  0.00000000000E+00  0.27354346923E+03  0.27354346923E+03  0.00000000000E+00 0. -1.
         21   -1    0    0  501  502 -0.00000000000E+00 -0.00000000000E+00 -0.14280180079E+02  0.14280180079E+02  0.00000000000E+00 0. -1.
         25    1    1    2    0    0  0.00000000000E+00  0.00000000000E+00  0.25926328915E+03  0.28782364931E+03  0.12500000000E+03 0.  0.
<mgrwt>
<rscale>  0 0.12500000E+03</rscale>
<asrwt>0</asrwt>
<pdfrwt beam="1">  1       21 0.42083606E-01 0.12500000E+03</pdfrwt>
<pdfrwt beam="2">  1       21 0.21969510E-02 0.12500000E+03</pdfrwt>
<totfact> 0.56483506E+06</totfact>
</mgrwt>
</event>
<event>
 3    1  0.1628330E-001  0.1250000E+03  0.7546771E-02  0.1235069E+00
         21   -1    0    0  502  501  0.00000000000E+00  0.00000000000E+00  0.69997998754E+03  0.69997998754E+03  0.00000000000E+00 0.  1.
         21   -1    0    0  501  502 -0.00000000000E+00 -0.00000000000E+00 -0.55805166855E+01  0.55805166855E+01  0.00000000000E+00 0.  1.
         25    1    1    2    0    0  0.00000000000E+00  0.00000000000E+00  0.69439947086E+03  0.70556050423E+03  0.12500000000E+03 0.  0.
<mgrwt>
<rscale>  0 0.12500000E+03</rscale>
<asrwt>0</asrwt>
<pdfrwt beam="1">  1       21 0.10768916E+00 0.12500000E+03</pdfrwt>
<pdfrwt beam="2">  1       21 0.85854158E-03 0.12500000E+03</pdfrwt>
<totfact> 0.32696880E+06</totfact>
</mgrwt>
</event>
<event>
 3    1  0.1628330E-001  0.1250000E+03  0.7546771E-02  0.1235069E+00
         21   -1    0    0  502  501  0.00000000000E+00  0.00000000000E+00  0.83633074489E+03  0.83633074489E+03  0.00000000000E+00 0. -1.
         21   -1    0    0  501  502 -0.00000000000E+00 -0.00000000000E+00 -0.46706999879E+01  0.46706999879E+01  0.00000000000E+00 0. -1.
         25    1    1    2    0    0  0.00000000000E+00  0.00000000000E+00  0.83166004490E+03  0.84100144488E+03  0.12500000000E+03 0.  0.
<mgrwt>
<rscale>  0 0.12500000E+03</rscale>
<asrwt>0</asrwt>
<pdfrwt beam="1">  1       21 0.12866615E+00 0.12500000E+03</pdfrwt>
<pdfrwt beam="2">  1       21 0.71856989E-03 0.12500000E+03</pdfrwt>
<totfact> 0.28048644E+06</totfact>
</mgrwt>
</event>
<event>
 3    1  0.1628330E-001  0.1250000E+03  0.7546771E-02  0.1235069E+00
         21   -1    0    0  502  501  0.00000000000E+00  0.00000000000E+00  0.73427008039E+02  0.73427008039E+02  0.00000000000E+00 0. -1.
         21   -1    0    0  501  502 -0.00000000000E+00 -0.00000000000E+00 -0.53199089876E+02  0.53199089876E+02  0.00000000000E+00 0. -1.
         25    1    1    2    0    0  0.00000000000E+00  0.00000000000E+00  0.20227918162E+02  0.12662609792E+03  0.12500000000E+03 0.  0.
<mgrwt>
<rscale>  0 0.12500000E+03</rscale>
<asrwt>0</asrwt>
<pdfrwt beam="1">  1       21 0.11296463E-01 0.12500000E+03</pdfrwt>
<pdfrwt beam="2">  1       21 0.81844754E-02 0.12500000E+03</pdfrwt>
<totfact> 0.73820129E+06</totfact>
</mgrwt>
</event>
<event>
 3    1  0.1628330E-001  0.1250000E+03  0.7546771E-02  0.1235069E+00
         21   -1    0    0  502  501  0.00000000000E+00  0.00000000000E+00  0.87510145811E+01  0.87510145811E+01  0.00000000000E+00 0.  1.
         21   -1    0    0  501  502 -0.00000000000E+00 -0.00000000000E+00 -0.44637681309E+03  0.44637681309E+03  0.00000000000E+00 0.  1.
         25    1    1    2    0    0  0.00000000000E+00  0.00000000000E+00 -0.43762579851E+03  0.45512782767E+03  0.12500000000E+03 0.  0.
<mgrwt>
<rscale>  0 0.12500000E+03</rscale>
<asrwt>0</asrwt>
<pdfrwt beam="1">  1       21 0.13463101E-02 0.12500000E+03</pdfrwt>
<pdfrwt beam="2">  1       21 0.68673348E-01 0.12500000E+03</pdfrwt>
<totfact> 0.44587016E+06</totfact>
</mgrwt>
</event>
<event>
 3    1  0.1628330E-001  0.1250000E+03  0.7546771E-02  0.1235069E+00
         21   -1    0    0  502  501  0.00000000000E+00  0.00000000000E+00  0.19906503695E+02  0.19906503695E+02  0.00000000000E+00 0. -1.
         21   -1    0    0  501  502 -0.00000000000E+00 -0.00000000000E+00 -0.19622983824E+03  0.19622983824E+03  0.00000000000E+00 0. -1.
         25    1    1    2    0    0  0.00000000000E+00  0.00000000000E+00 -0.17632333454E+03  0.21613634193E+03  0.12500000000E+03 0.  0.
<mgrwt>
<rscale>  0 0.12500000E+03</rscale>
<asrwt>0</asrwt>
<pdfrwt beam="1">  1       21 0.30625390E-02 0.12500000E+03</pdfrwt>
<pdfrwt beam="2">  1       21 0.30189206E-01 0.12500000E+03</pdfrwt>
<totfact> 0.63219649E+06</totfact>
</mgrwt>
</event>
<event>
 3    1  0.1628330E-001  0.1250000E+03  0.7546771E-02  0.1235069E+00
         21   -1    0    0  502  501  0.00000000000E+00  0.00000000000E+00  0.12441775820E+02  0.12441775820E+02  0.00000000000E+00 0. -1.
         21   -1    0    0  501  502 -0.00000000000E+00 -0.00000000000E+00 -0.31396241633E+03  0.31396241633E+03  0.00000000000E+00 0. -1.
         25    1    1    2    0    0  0.00000000000E+00  0.00000000000E+00 -0.30152064051E+03  0.32640419215E+03  0.12500000000E+03 0.  0.
<mgrwt>
<rscale>  0 0.12500000E+03</rscale>
<asrwt>0</asrwt>
<pdfrwt beam="1">  1       21 0.19141194E-02 0.12500000E+03</pdfrwt>
<pdfrwt beam="2">  1       21 0.48301908E-01 0.12500000E+03</pdfrwt>
<totfact> 0.53329714E+06</totfact>
</mgrwt>
</event>
<event>
 3    1  0.1628330E-001  0.1250000E+03  0.7546771E-02  0.1235069E+00
         21   -1    0    0  502  501  0.00000000000E+00  0.00000000000E+00  0.54063931058E+01  0.54063931058E+01  0.00000000000E+00 0.  1.
         21   -1    0    0  501  502 -0.00000000000E+00 -0.00000000000E+00 -0.72252422707E+03  0.72252422707E+03  0.00000000000E+00 0.  1.
         25    1    1    2    0    0  0.00000000000E+00  0.00000000000E+00 -0.71711783397E+03  0.72793062018E+03  0.12500000000E+03 0.  0.
<mgrwt>
<rscale>  0 0.12500000E+03</rscale>
<asrwt>0</asrwt>
<pdfrwt beam="1">  1       21 0.83175350E-03 0.12500000E+03</pdfrwt>
<pdfrwt beam="2">  1       21 0.11115748E+00 0.12500000E+03</pdfrwt>
<totfact> 0.31860751E+06</totfact>
</mgrwt>
</event>
<event>
 3    1  0.1628330E-001  0.1250000E+03  0.7546771E-02  0.1235069E+00
         21   -1    0    0  502  501  0.00000000000E+00  0.00000000000E+00  0.17476975385E+03  0.17476975385E+03  0.00000000000E+00 0.  1.
         21   -1    0    0  501  502 -0.00000000000E+00 -0.00000000000E+00 -0.22350835393E+02  0.22350835393E+02  0.00000000000E+00 0.  1.
         25    1    1    2    0    0  0.00000000000E+00  0.00000000000E+00  0.15241891846E+03  0.19712058924E+03  0.12500000000E+03 0.  0.
<mgrwt>
<rscale>  0 0.12500000E+03</rscale>
<asrwt>0</asrwt>
<pdfrwt beam="1">  1       21 0.26887654E-01 0.12500000E+03</pdfrwt>
<pdfrwt beam="2">  1       21 0.34385902E-02 0.12500000E+03</pdfrwt>
<totfact> 0.65239675E+06</totfact>
</mgrwt>
</event>
<event>
 3    1  0.1628330E-001  0.1250000E+03  0.7546771E-02  0.1235069E+00
         21   -1    0    0  502  501  0.00000000000E+00  0.00000000000E+00  0.13494819914E+02  0.13494819914E+02  0.00000000000E+00 0. -1.
         21   -1    0    0  501  502 -0.00000000000E+00 -0.00000000000E+00 -0.28946292169E+03  0.28946292169E+03  0.00000000000E+00 0. -1.
         25    1    1    2    0    0  0.00000000000E+00  0.00000000000E+00 -0.27596810178E+03  0.30295774160E+03  0.12500000000E+03 0.  0.
<mgrwt>
<rscale>  0 0.12500000E+03</rscale>
<asrwt>0</asrwt>
<pdfrwt beam="1">  1       21 0.20761261E-02 0.12500000E+03</pdfrwt>
<pdfrwt beam="2">  1       21 0.44532757E-01 0.12500000E+03</pdfrwt>
<totfact> 0.55211266E+06</totfact>
</mgrwt>
</event>
<event>
 3    1  0.1628330E-001  0.1250000E+03  0.7546771E-02  0.1235069E+00
         21   -1    0    0  502  501  0.00000000000E+00  0.00000000000E+00  0.22107008490E+03  0.22107008490E+03  0.00000000000E+00 0. -1.
         21   -1    0    0  501  502 -0.00000000000E+00 -0.00000000000E+00 -0.17669735829E+02  0.17669735829E+02  0.00000000000E+00 0. -1.
         25    1    1    2    0    0  0.00000000000E+00  0.00000000000E+00  0.20340034907E+03  0.23873982073E+03  0.12500000000E+03 0.  0.
<mgrwt>
<rscale>  0 0.12500000E+03</rscale>
<asrwt>0</asrwt>
<pdfrwt beam="1">  1       21 0.34010780E-01 0.12500000E+03</pdfrwt>
<pdfrwt beam="2">  1       21 0.27184211E-02 0.12500000E+03</pdfrwt>
<totfact> 0.60954822E+06</totfact>
</mgrwt>
</event>
<event>
 3    1  0.1628330E-001  0.1250000E+03  0.7546771E-02  0.1235069E+00
         21   -1    0    0  502  501  0.00000000000E+00  0.00000000000E+00  0.20919146364E+03  0.20919146364E+03  0.00000000000E+00 0.  1.
         21   -1    0    0  501  502 -0.00000000000E+00 -0.00000000000E+00 -0.18673085087E+02  0.18673085087E+02  0.00000000000E+00 0.  1.
         25    1    1    2    0    0  0.00000000000E+00  0.00000000000E+00  0.19051837856E+03  0.22786454873E+03  0.12500000000E+03 0.  0.
<mgrwt>
<rscale>  0 0.12500000E+03</rscale>
<asrwt>0</asrwt>
<pdfrwt beam="1">  1       21 0.32183300E-01 0.12500000E+03</pdfrwt>
<pdfrwt beam="2">  1       21 0.28727825E-02 0.12500000E+03</pdfrwt>
<totfact> 0.62027139E+06</totfact>
</mgrwt>
</event>
<event>
 3    1  0.1628330E-001  0.1250000E+03  0.7546771E-02  0.1235069E+00
         21   -1    0    0  502  501  0.00000000000E+00  0.00000000000E+00  0.14282655526E+02  0.14282655526E+02  0.00000000000E+00 0.  1.
         21   -1    0    0  501  502 -0.00000000000E+00 -0.00000000000E+00 -0.27349605912E+03  0.27349605912E+03  0.00000000000E+00 0.  1.
         25    1    1    2    0    0  0.00000000000E+00  0.00000000000E+00 -0.25921340359E+03  0.28777871465E+03  0.12500000000E+03 0.  0.
<mgrwt>
<rscale>  0 0.12500000E+03</rscale>
<asrwt>0</asrwt>
<pdfrwt beam="1">  1       21 0.21973317E-02 0.12500000E+03</pdfrwt>
<pdfrwt beam="2">  1       21 0.42076316E-01 0.12500000E+03</pdfrwt>
<totfact> 0.56487353E+06</totfact>
</mgrwt>
</event>
<event>
 3    1  0.1628330E-001  0.1250000E+03  0.7546771E-02  0.1235069E+00
         21   -1    0    0  502  501  0.00000000000E+00  0.00000000000E+00  0.48690505198E+02  0.48690505198E+02  0.00000000000E+00 0.  1.
         21   -1    0    0  501  502 -0.00000000000E+00 -0.00000000000E+00 -0.80226113574E+02  0.80226113574E+02  0.00000000000E+00 0.  1.
         25    1    1    2    0    0  0.00000000000E+00  0.00000000000E+00 -0.31535608377E+02  0.12891661877E+03  0.12500000000E+03 0.  0.
<mgrwt>
<rscale>  0 0.12500000E+03</rscale>
<asrwt>0</asrwt>
<pdfrwt beam="1">  1       21 0.74908470E-02 0.12500000E+03</pdfrwt>
<pdfrwt beam="2">  1       21 0.12342479E-01 0.12500000E+03</pdfrwt>
<totfact> 0.73510081E+06</totfact>
</mgrwt>
</event>
<event>
 3    1  0.1628330E-001  0.1250000E+03  0.7546771E-02  0.1235069E+00
         21   -1    0    0  502  501  0.00000000000E+00  0.00000000000E+00  0.66857130999E+03  0.66857130999E+03  0.00000000000E+00 0. -1.
         21   -1    0    0  501  502 -0.00000000000E+00 -0.00000000000E+00 -0.58426826602E+01  0.58426826602E+01  0.00000000000E+00 0. -1.
         25    1    1    2    0    0  0.00000000000E+00  0.00000000000E+00  0.66272862733E+03  0.67441399266E+03  0.12500000000E+03 0.  0.
<mgrwt>
<rscale>  0 0.12500000E+03</rscale>
<asrwt>0</asrwt>
<pdfrwt beam="1">  1       21 0.10285706E+00 0.12500000E+03</pdfrwt>
<pdfrwt beam="2">  1       21 0.89887478E-03 0.12500000E+03</pdfrwt>
<totfact> 0.33920113E+06</totfact>
</mgrwt>
</event>
<event>
 3    1  0.1628330E-001  0.1250000E+03  0.7546771E-02  0.1235069E+00
         21   -1    0    0  502  501  0.00000000000E+00  0.00000000000E+00  0.19614470416E+02  0.19614470416E+02  0.00000000000E+00 0. -1.
         21   -1    0    0  501  502 -0.00000000000E+00 -0.00000000000E+00 -0.19915143857E+03  0.19915143857E+03  0.00000000000E+00 0. -1.
         25    1    1    2    0    0  0.00000000000E+00  0.00000000000E+00 -0.17953696815E+03  0.21876590898E+03  0.12500000000E+03 0.  0.
<mgrwt>
<rscale>  0 0.12500000E+03</rscale>
<asrwt>0</asrwt>
<pdfrwt beam="1">  1       21 0.30176109E-02 0.12500000E+03</pdfrwt>
<pdfrwt beam="2">  1       21 0.30638682E-01 0.12500000E+03</pdfrwt>
<totfact> 0.62948899E+06</totfact>
</mgrwt>
</event>
<event>
 3    1  0.1628330E-001  0.1250000E+03  0.7546771E-02  0.1235069E+00
         21   -1    0    0  502  501  0.00000000000E+00  0.00000000000E+00  0.92951434365E+02  0.92951434365E+02  0.00000000000E+00 0.  1.
         21   -1    0    0  501  502 -0.00000000000E+00 -0.00000000000E+00 -0.42024633903E+02  0.42024633903E+02  0.00000000000E+00 0.  1.
         25    1    1    2    0    0  0.00000000000E+00  0.00000000000E+00  0.50926800462E+02  0.13497606827E+03  0.12500000000E+03 0.  0.
<mgrwt>
<rscale>  0 0.12500000E+03</rscale>
<asrwt>0</asrwt>
<pdfrwt beam="1">  1       21 0.14300221E-01 0.12500000E+03</pdfrwt>
<pdfrwt beam="2">  1       21 0.64653283E-02 0.12500000E+03</pdfrwt>
<totfact> 0.72699641E+06</totfact>
</mgrwt>
</event>
<event>
 3    1  0.1628330E-001  0.1250000E+03  0.7546771E-02  0.1235069E+00
         21   -1    0    0  502  501  0.00000000000E+00  0.00000000000E+00  0.80380000445E+02  0.80380000445E+02  0.00000000000E+00 0.  1.
         21   -1    0    0  501  502 -0.00000000000E+00 -0.00000000000E+00 -0.48597287613E+02  0.48597287613E+02  0.00000000000E+00 0.  1.
         25    1    1    2    0    0  0.00000000000E+00  0.00000000000E+00  0.31782712832E+02  0.12897728806E+03  0.12500000000E+03 0.  0.
<mgrwt>
<rscale>  0 0.12500000E+03</rscale>
<asrwt>0</asrwt>
<pdfrwt beam="1">  1       21 0.12366154E-01 0.12500000E+03</pdfrwt>
<pdfrwt beam="2">  1       21 0.74765058E-02 0.12500000E+03</pdfrwt>
<totfact> 0.73501931E+06</totfact>
</mgrwt>
</event>
<event>
 3    1  0.1628330E-001  0.1250000E+03  0.7546771E-02  0.1235069E+00
         21   -1    0    0  502  501  0.00000000000E+00  0.00000000000E+00  0.63980331231E+01  0.63980331231E+01  0.00000000000E+00 0.  1.
         21   -1    0    0  501  502 -0.00000000000E+00 -0.00000000000E+00 -0.61053919616E+03  0.61053919616E+03  0.00000000000E+00 0.  1.
         25    1    1    2    0    0  0.00000000000E+00  0.00000000000E+00 -0.60414116304E+03  0.61693722928E+03  0.12500000000E+03 0.  0.
<mgrwt>
<rscale>  0 0.12500000E+03</rscale>
<asrwt>0</asrwt>
<pdfrwt beam="1">  1       21 0.98431277E-03 0.12500000E+03</pdfrwt>
<pdfrwt beam="2">  1       21 0.93929109E-01 0.12500000E+03</pdfrwt>
<totfact> 0.36337698E+06</totfact>
</mgrwt>
</event>
<event>
 3    1  0.1628330E-001  0.1250000E+03  0.7546771E-02  0.1235069E+00
         21   -1    0    0  502  501  0.00000000000E+00  0.00000000000E+00  0.20234689683E+03  0.20234689683E+03  0.00000000000E+00 0. -1.
         21   -1    0    0  501  502 -0.00000000000E+00 -0.00000000000E+00 -0.19304719080E+02  0.19304719080E+02  0.00000000000E+00 0. -1.
         25    1    1    2    0    0  0.00000000000E+00  0.00000000000E+00  0.18304217775E+03  0.22165161591E+03  0.12500000000E+03 0.  0.
<mgrwt>
<rscale>  0 0.12500000E+03</rscale>
<asrwt>0</asrwt>
<pdfrwt beam="1">  1       21 0.31130290E-01 0.12500000E+03</pdfrwt>
<pdfrwt beam="2">  1       21 0.29699569E-02 0.12500000E+03</pdfrwt>
<totfact> 0.62654117E+06</totfact>
</mgrwt>
</event>
<event>
 3    1  0.1628330E-001  0.1250000E+03  0.7546771E-02  0.1235069E+00
         21   -1    0    0  502  501  0.00000000000E+00  0.00000000000E+00  0.13170229267E+04  0.13170229267E+04  0.00000000000E+00 0. -1.
         21   -1    0    0  501  502 -0.00000000000E+00 -0.00000000000E+00 -0.29659696280E+01  0.29659696280E+01  0.00000000000E+00 0. -1.
         25    1    1    2    0    0  0.00000000000E+00  0.00000000000E+00  0.13140569571E+04  0.13199888963E+04  0.12500000000E+03 0.  0.
<mgrwt>
<rscale>  0 0.12500000E+03</rscale>
<asrwt>0</asrwt>
<pdfrwt beam="1">  1       21 0.20261844E+00 0.12500000E+03</pdfrwt>
<pdfrwt beam="2">  1       21 0.45630407E-03 0.12500000E+03</pdfrwt>
<totfact> 0.16897268E+06</totfact>
</mgrwt>
</event>
<event>
 3    1  0.1628330E-001  0.1250000E+03  0.7546771E-02  0.1235069E+00
         21   -1    0    0  502  501  0.00000000000E+00  0.00000000000E+00  0.51959144061E+02  0.51959144061E+02  0.00000000000E+00 0.  1.
         21   -1    0    0  501  502 -0.00000000000E+00 -0.00000000000E+00 -0.75179259985E+02  0.75179259985E+02  0.00000000000E+00 0.  1.
         25    1    1    2    0    0  0.00000000000E+00  0.00000000000E+00 -0.23220115924E+02  0.12713840405E+03  0.12500000000E+03 0.  0.
<mgrwt>
<rscale>  0 0.12500000E+03</rscale>
<asrwt>0</asrwt>
<pdfrwt beam="1">  1       21 0.79937145E-02 0.12500000E+03</pdfrwt>
<pdfrwt beam="2">  1       21 0.11566040E-01 0.12500000E+03</pdfrwt>
<totfact> 0.73750307E+06</totfact>
</mgrwt>
</event>
<event>
 3    1  0.1628330E-001  0.1250000E+03  0.7546771E-02  0.1235069E+00
         21   -1    0    0  502  501  0.00000000000E+00  0.00000000000E+00  0.17859324750E+03  0.17859324750E+03  0.00000000000E+00 0. -1.
         21   -1    0    0  501  502 -0.00000000000E+00 -0.00000000000E+00 -0.21872327508E+02  0.21872327508E+02  0.00000000000E+00 0. -1.
         25    1    1    2    0    0  0.00000000000E+00  0.00000000000E+00  0.15672091999E+03  0.20046557501E+03  0.12500000000E+03 0.  0.
<mgrwt>
<rscale>  0 0.12500000E+03</rscale>
<asrwt>0</asrwt>
<pdfrwt beam="1">  1       21 0.27475883E-01 0.12500000E+03</pdfrwt>
<pdfrwt beam="2">  1       21 0.33649736E-02 0.12500000E+03</pdfrwt>
<totfact> 0.64876840E+06</totfact>
</mgrwt>
</event>
<event>
 3    1  0.1628330E-001  0.1250000E+03  0.7546771E-02  0.1235069E+00
         21   -1    0    0  502  501  0.00000000000E+00  0.00000000000E+00  0.17896943992E+03  0.17896943992E+03  0.00000000000E+00 0. -1.
         21   -1    0    0  501  502 -0.00000000000E+00 -0.00000000000E+00 -0.21826352039E+02  0.21826352039E+02  0.00000000000E+00 0. -1.
         25    1    1    2    0    0  0.00000000000E+00  0.00000000000E+00  0.15714308788E+03  0.20079579196E+03  0.12500000000E+03 0.  0.
<mgrwt>
<rscale>  0 0.12500000E+03</rscale>
<asrwt>0</asrwt>
<pdfrwt beam="1">  1       21 0.27533759E-01 0.12500000E+03</pdfrwt>
<pdfrwt beam="2">  1       21 0.33579004E-02 0.12500000E+03</pdfrwt>
<totfact> 0.64841125E+06</totfact>
</mgrwt>
</event>
<event>
 3    1  0.1628330E-001  0.1250000E+03  0.7546771E-02  0.1235069E+00
         21   -1    0    0  502  501  0.00000000000E+00  0.00000000000E+00  0.31597665206E+03  0.31597665206E+03  0.00000000000E+00 0.  1.
         21   -1    0    0  501  502 -0.00000000000E+00 -0.00000000000E+00 -0.12362464044E+02  0.12362464044E+02  0.00000000000E+00 0.  1.
         25    1    1    2    0    0  0.00000000000E+00  0.00000000000E+00  0.30361418802E+03  0.32833911611E+03  0.12500000000E+03 0.  0.
<mgrwt>
<rscale>  0 0.12500000E+03</rscale>
<asrwt>0</asrwt>
<pdfrwt beam="1">  1       21 0.48611787E-01 0.12500000E+03</pdfrwt>
<pdfrwt beam="2">  1       21 0.19019178E-02 0.12500000E+03</pdfrwt>
<totfact> 0.53179059E+06</totfact>
</mgrwt>
</event>
<event>
 3    1  0.1628330E-001  0.1250000E+03  0.7546771E-02  0.1235069E+00
         21   -1    0    0  502  501  0.00000000000E+00  0.00000000000E+00  0.24721850143E+02  0.24721850143E+02  0.00000000000E+00 0. -1.
         21   -1    0    0  501  502 -0.00000000000E+00 -0.00000000000E+00 -0.15800799606E+03  0.15800799606E+03  0.00000000000E+00 0. -1.
         25    1    1    2    0    0  0.00000000000E+00  0.00000000000E+00 -0.13328614592E+03  0.18272984620E+03  0.12500000000E+03 0.  0.
<mgrwt>
<rscale>  0 0.12500000E+03</rscale>
<asrwt>0</asrwt>
<pdfrwt beam="1">  1       21 0.38033615E-02 0.12500000E+03</pdfrwt>
<pdfrwt beam="2">  1       21 0.24308923E-01 0.12500000E+03</pdfrwt>
<totfact> 0.66839749E+06</totfact>
</mgrwt>
</event>
<event>
 3    1  0.1628330E-001  0.1250000E+03  0.7546771E-02  0.1235069E+00
         21   -1    0    0  502  501  0.00000000000E+00  0.00000000000E+00  0.24416927168E+04  0.24416927168E+04  0.00000000000E+00 0. -1.
         21   -1    0    0  501  502 -0.00000000000E+00 -0.00000000000E+00 -0.15998122831E+01  0.15998122831E+01  0.00000000000E+00 0. -1.
         25    1    1    2    0    0  0.00000000000E+00  0.00000000000E+00  0.24400929045E+04  0.24432925291E+04  0.12500000000E+03 0.  0.
<mgrwt>
<rscale>  0 0.12500000E+03</rscale>
<asrwt>0</asrwt>
<pdfrwt beam="1">  1       21 0.37564205E+00 0.12500000E+03</pdfrwt>
<pdfrwt beam="2">  1       21 0.24612692E-03 0.12500000E+03</pdfrwt>
<totfact> 0.43781992E+05</totfact>
</mgrwt>
</event>
<event>
 3    1  0.1628330E-001  0.1250000E+03  0.7546771E-02  0.1235069E+00
         21   -1    0    0  502  501  0.00000000000E+00  0.00000000000E+00  0.12896108832E+03  0.12896108832E+03  0.00000000000E+00 0. -1.
         21   -1    0    0  501  502 -0.00000000000E+00 -0.00000000000E+00 -0.30290144499E+02  0.30290144499E+02  0.00000000000E+00 0. -1.
         25    1    1    2    0    0  0.00000000000E+00  0.00000000000E+00  0.98670943825E+02  0.15925123282E+03  0.12500000000E+03 0.  0.
<mgrwt>
<rscale>  0 0.12500000E+03</rscale>
<asrwt>0</asrwt>
<pdfrwt beam="1">  1       21 0.19840167E-01 0.12500000E+03</pdfrwt>
<pdfrwt beam="2">  1       21 0.46600223E-02 0.12500000E+03</pdfrwt>
<totfact> 0.69611103E+06</totfact>
</mgrwt>
</event>
<event>
 3    1  0.1628330E-001  0.1250000E+03  0.7546771E-02  0.1235069E+00
         21   -1    0    0  502  501  0.00000000000E+00  0.00000000000E+00  0.27151643499E+01  0.27151643499E+01  0.00000000000E+00 0.  1.
         21   -1    0    0  501  502 -0.00000000000E+00 -0.00000000000E+00 -0.14386790251E+04  0.14386790251E+04  0.00000000000E+00 0.  1.
         25    1    1    2    0    0  0.00000000000E+00  0.00000000000E+00 -0.14359638608E+04  0.14413941895E+04  0.12500000000E+03 0.  0.
<mgrwt>
<rscale>  0 0.12500000E+03</rscale>
<asrwt>0</asrwt>
<pdfrwt beam="1">  1       21 0.41771702E-03 0.12500000E+03</pdfrwt>
<pdfrwt beam="2">  1       21 0.22133554E+00 0.12500000E+03</pdfrwt>
<totfact> 0.14884569E+06</totfact>
</mgrwt>
</event>
<event>
 3    1  0.1628330E-001  0.1250000E+03  0.7546771E-02  0.1235069E+00
         21   -1    0    0  502  501  0.00000000000E+00  0.00000000000E+00  0.21704088542E+02  0.21704088542E+02  0.00000000000E+00 0. -1.
         21   -1    0    0  501  502 -0.00000000000E+00 -0.00000000000E+00 -0.17997761078E+03  0.17997761078E+03  0.00000000000E+00 0. -1.
         25    1    1    2    0    0  0.00000000000E+00  0.00000000000E+00 -0.15827352224E+03  0.20168169933E+03  0.12500000000E+03 0.  0.
<mgrwt>
<rscale>  0 0.12500000E+03</rscale>
<asrwt>0</asrwt>
<pdfrwt beam="1">  1       21 0.33390905E-02 0.12500000E+03</pdfrwt>
<pdfrwt beam="2">  1       21 0.27688864E-01 0.12500000E+03</pdfrwt>
<totfact> 0.64745483E+06</totfact>
</mgrwt>
</event>
<event>
 3    1  0.1628330E-001  0.1250000E+03  0.7546771E-02  0.1235069E+00
         21   -1    0    0  502  501  0.00000000000E+00  0.00000000000E+00  0.20274161054E+03  0.20274161054E+03  0.00000000000E+00 0. -1.
         21   -1    0    0  501  502 -0.00000000000E+00 -0.00000000000E+00 -0.19267135097E+02  0.19267135097E+02  0.00000000000E+00 0. -1.
         25    1    1    2    0    0  0.00000000000E+00  0.00000000000E+00  0.18347447544E+03  0.22200874563E+03  0.12500000000E+03 0.  0.
<mgrwt>
<rscale>  0 0.12500000E+03</rscale>
<asrwt>0</asrwt>
<pdfrwt beam="1">  1       21 0.31191015E-01 0.12500000E+03</pdfrwt>
<pdfrwt beam="2">  1       21 0.29641748E-02 0.12500000E+03</pdfrwt>
<totfact> 0.62617804E+06</totfact>
</mgrwt>
</event>
<event>
 3    1  0.1628330E-001  0.1250000E+03  0.7546771E-02  0.1235069E+00
         21   -1    0    0  502  501  0.00000000000E+00  0.00000000000E+00  0.22703183198E+03  0.22703183198E+03  0.00000000000E+00 0.  1.
         21   -1    0    0  501  502 -0.00000000000E+00 -0.00000000000E+00 -0.17205737037E+02  0.17205737037E+02  0.00000000000E+00 0.  1.
         25    1    1    2    0    0  0.00000000000E+00  0.00000000000E+00  0.20982609495E+03  0.24423756902E+03  0.12500000000E+03 0.  0.
<mgrwt>
<rscale>  0 0.12500000E+03</rscale>
<asrwt>0</asrwt>
<pdfrwt beam="1">  1       21 0.34927972E-01 0.12500000E+03</pdfrwt>
<pdfrwt beam="2">  1       21 0.26470366E-02 0.12500000E+03</pdfrwt>
<totfact> 0.60424997E+06</totfact>
</mgrwt>
</event>
<event>
 3    1  0.1628330E-001  0.1250000E+03  0.7546771E-02  0.1235069E+00
         21   -1    0    0  502  501  0.00000000000E+00  0.00000000000E+00  0.10324483840E+02  0.10324483840E+02  0.00000000000E+00 0.  1.
         21   -1    0    0  501  502 -0.00000000000E+00 -0.00000000000E+00 -0.37834821195E+03  0.37834821195E+03  0.00000000000E+00 0.  1.
         25    1    1    2    0    0  0.00000000000E+00  0.00000000000E+00 -0.36802372811E+03  0.38867269579E+03  0.12500000000E+03 0.  0.
<mgrwt>
<rscale>  0 0.12500000E+03</rscale>
<asrwt>0</asrwt>
<pdfrwt beam="1">  1       21 0.15883823E-02 0.12500000E+03</pdfrwt>
<pdfrwt beam="2">  1       21 0.58207410E-01 0.12500000E+03</pdfrwt>
<totfact> 0.48801869E+06</totfact>
</mgrwt>
</event>
<event>
 3    1  0.1628330E-001  0.1250000E+03  0.7546771E-02  0.1235069E+00
         21   -1    0    0  502  501  0.00000000000E+00  0.00000000000E+00  0.35680393347E+02  0.35680393347E+02  0.00000000000E+00 0. -1.
         21   -1    0    0  501  502 -0.00000000000E+00 -0.00000000000E+00 -0.10947889397E+03  0.10947889397E+03  0.00000000000E+00 0. -1.
         25    1    1    2    0    0  0.00000000000E+00  0.00000000000E+00 -0.73798500621E+02  0.14515928732E+03  0.12500000000E+03 0.  0.
<mgrwt>
<rscale>  0 0.12500000E+03</rscale>
<asrwt>0</asrwt>
<pdfrwt beam="1">  1       21 0.54892913E-02 0.12500000E+03</pdfrwt>
<pdfrwt beam="2">  1       21 0.16842907E-01 0.12500000E+03</pdfrwt>
<totfact> 0.71372720E+06</totfact>
</mgrwt>
</event>
<event>
 3    1  0.1628330E-001  0.1250000E+03  0.7546771E-02  0.1235069E+00
         21   -1    0    0  502  501  0.00000000000E+00  0.00000000000E+00  0.18500396130E+02  0.18500396130E+02  0.00000000000E+00 0. -1.
         21   -1    0    0  501  502 -0.00000000000E+00 -0.00000000000E+00 -0.21114412754E+03  0.21114412754E+03  0.00000000000E+00 0. -1.
         25    1    1    2    0    0  0.00000000000E+00  0.00000000000E+00 -0.19264373141E+03  0.22964452367E+03  0.12500000000E+03 0.  0.
<mgrwt>
<rscale>  0 0.12500000E+03</rscale>
<asrwt>0</asrwt>
<pdfrwt beam="1">  1       21 0.28462149E-02 0.12500000E+03</pdfrwt>
<pdfrwt beam="2">  1       21 0.32483711E-01 0.12500000E+03</pdfrwt>
<totfact> 0.61849374E+06</totfact>
</mgrwt>
</event>
<event>
 3    1  0.1628330E-001  0.1250000E+03  0.7546771E-02  0.1235069E+00
         21   -1    0    0  502  501  0.00000000000E+00  0.00000000000E+00  0.13288849282E+02  0.13288849282E+02  0.00000000000E+00 0.  1.
         21   -1    0    0  501  502 -0.00000000000E+00 -0.00000000000E+00 -0.29394945469E+03  0.29394945469E+03  0.00000000000E+00 0.  1.
         25    1    1    2    0    0  0.00000000000E+00  0.00000000000E+00 -0.28066060541E+03  0.30723830397E+03  0.12500000000E+03 0.  0.
<mgrwt>
<rscale>  0 0.12500000E+03</rscale>
<asrwt>0</asrwt>
<pdfrwt beam="1">  1       21 0.20444384E-02 0.12500000E+03</pdfrwt>
<pdfrwt beam="2">  1       21 0.45222992E-01 0.12500000E+03</pdfrwt>
<totfact> 0.54859956E+06</totfact>
</mgrwt>
</event>
<event>
 3    1  0.1628330E-001  0.1250000E+03  0.7546771E-02  0.1235069E+00
         21   -1    0    0  502  501  0.00000000000E+00  0.00000000000E+00  0.11402084692E+03  0.11402084692E+03  0.00000000000E+00 0.  1.
         21   -1    0    0  501  502 -0.00000000000E+00 -0.00000000000E+00 -0.34259085995E+02  0.34259085995E+02  0.00000000000E+00 0.  1.
         25    1    1    2    0    0  0.00000000000E+00  0.00000000000E+00  0.79761760928E+02  0.14827993292E+03  0.12500000000E+03 0.  0.
<mgrwt>
<rscale>  0 0.12500000E+03</rscale>
<asrwt>0</asrwt>
<pdfrwt beam="1">  1       21 0.17541669E-01 0.12500000E+03</pdfrwt>
<pdfrwt beam="2">  1       21 0.52706287E-02 0.12500000E+03</pdfrwt>
<totfact> 0.70975947E+06</totfact>
</mgrwt>
</event>
<event>
 3    1  0.1628330E-001  0.1250000E+03  0.7546771E-02  0.1235069E+00
         21   -1    0    0  502  501  0.00000000000E+00  0.00000000000E+00  0.41961124447E+03  0.41961124447E+03  0.00000000000E+00 0. -1.
         21   -1    0    0  501  502 -0.00000000000E+00 -0.00000000000E+00 -0.93092119228E+01  0.93092119228E+01  0.00000000000E+00 0. -1.
         25    1    1    2    0    0  0.00000000000E+00  0.00000000000E+00  0.41030203255E+03  0.42892045640E+03  0.12500000000E+03 0.  0.
<mgrwt>
<rscale>  0 0.12500000E+03</rscale>
<asrwt>0</asrwt>
<pdfrwt beam="1">  1       21 0.64555561E-01 0.12500000E+03</pdfrwt>
<pdfrwt beam="2">  1       21 0.14321868E-02 0.12500000E+03</pdfrwt>
<totfact> 0.46180443E+06</totfact>
</mgrwt>
</event>
<event>
 3    1  0.1628330E-001  0.1250000E+03  0.7546771E-02  0.1235069E+00
         21   -1    0    0  502  501  0.00000000000E+00  0.00000000000E+00  0.71649050571E+02  0.71649050571E+02  0.00000000000E+00 0. -1.
         21   -1    0    0  501  502 -0.00000000000E+00 -0.00000000000E+00 -0.54519215103E+02  0.54519215103E+02  0.00000000000E+00 0. -1.
         25    1    1    2    0    0  0.00000000000E+00  0.00000000000E+00  0.17129835468E+02  0.12616826567E+03  0.12500000000E+03 0.  0.
<mgrwt>
<rscale>  0 0.12500000E+03</rscale>
<asrwt>0</asrwt>
<pdfrwt beam="1">  1       21 0.11022931E-01 0.12500000E+03</pdfrwt>
<pdfrwt beam="2">  1       21 0.83875716E-02 0.12500000E+03</pdfrwt>
<totfact> 0.73882872E+06</totfact>
</mgrwt>
</event>
<event>
 3    1  0.1628330E-001  0.1250000E+03  0.7546771E-02  0.1235069E+00
         21   -1    0    0  502  501  0.00000000000E+00  0.00000000000E+00  0.19842281728E+03  0.19842281728E+03  0.00000000000E+00 0.  1.
         21   -1    0    0  501  502 -0.00000000000E+00 -0.00000000000E+00 -0.19686496007E+02  0.19686496007E+02  0.00000000000E+00 0.  1.
         25    1    1    2    0    0  0.00000000000E+00  0.00000000000E+00  0.17873632127E+03  0.21810931329E+03  0.12500000000E+03 0.  0.
<mgrwt>
<rscale>  0 0.12500000E+03</rscale>
<asrwt>0</asrwt>
<pdfrwt beam="1">  1       21 0.30526586E-01 0.12500000E+03</pdfrwt>
<pdfrwt beam="2">  1       21 0.30286918E-02 0.12500000E+03</pdfrwt>
<totfact> 0.63016314E+06</totfact>
</mgrwt>
</event>
<event>
 3    1  0.1628330E-001  0.1250000E+03  0.7546771E-02  0.1235069E+00
         21   -1    0    0  502  501  0.00000000000E+00  0.00000000000E+00  0.56903201527E+02  0.56903201527E+02  0.00000000000E+00 0.  1.
         21   -1    0    0  501  502 -0.00000000000E+00 -0.00000000000E+00 -0.68647279858E+02  0.68647279858E+02  0.00000000000E+00 0.  1.
         25    1    1    2    0    0  0.00000000000E+00  0.00000000000E+00 -0.11744078331E+02  0.12555048138E+03  0.12500000000E+03 0.  0.
<mgrwt>
<rscale>  0 0.12500000E+03</rscale>
<asrwt>0</asrwt>
<pdfrwt beam="1">  1       21 0.87543387E-02 0.12500000E+03</pdfrwt>
<pdfrwt beam="2">  1       21 0.10561120E-01 0.12500000E+03</pdfrwt>
<totfact> 0.73968346E+06</totfact>
</mgrwt>
</event>
<event>
 3    1  0.1628330E-001  0.1250000E+03  0.7546771E-02  0.1235069E+00
         21   -1    0    0  502  501  0.00000000000E+00  0.00000000000E+00  0.67941153677E+02  0.67941153677E+02  0.00000000000E+00 0. -1.
         21   -1    0    0  501  502 -0.00000000000E+00 -0.00000000000E+00 -0.57494608033E+02  0.57494608033E+02  0.00000000000E+00 0. -1.
         25    1    1    2    0    0  0.00000000000E+00  0.00000000000E+00  0.10446545644E+02  0.12543576171E+03  0.12500000000E+03 0.  0.
<mgrwt>
<rscale>  0 0.12500000E+03</rscale>
<asrwt>0</asrwt>
<pdfrwt beam="1">  1       21 0.10452485E-01 0.12500000E+03</pdfrwt>
<pdfrwt beam="2">  1       21 0.88453243E-02 0.12500000E+03</pdfrwt>
<totfact> 0.73984392E+06</totfact>
</mgrwt>
</event>
<event>
 3    1  0.1628330E-001  0.1250000E+03  0.7546771E-02  0.1235069E+00
         21   -1    0    0  502  501  0.00000000000E+00  0.00000000000E+00  0.22199753301E+04  0.22199753301E+04  0.00000000000E+00 0.  1.
         21   -1    0    0  501  502 -0.00000000000E+00 -0.00000000000E+00 -0.17595916257E+01  0.17595916257E+01  0.00000000000E+00 0.  1.
         25    1    1    2    0    0  0.00000000000E+00  0.00000000000E+00  0.22182157384E+04  0.22217349217E+04  0.12500000000E+03 0.  0.
<mgrwt>
<rscale>  0 0.12500000E+03</rscale>
<asrwt>0</asrwt>
<pdfrwt beam="1">  1       21 0.34153243E+00 0.12500000E+03</pdfrwt>
<pdfrwt beam="2">  1       21 0.27070818E-03 0.12500000E+03</pdfrwt>
<totfact> 0.59811409E+05</totfact>
</mgrwt>
</event>
<event>
 3    1  0.1628330E-001  0.1250000E+03  0.7546771E-02  0.1235069E+00
         21   -1    0    0  502  501  0.00000000000E+00  0.00000000000E+00  0.92826852688E+03  0.92826852688E+03  0.00000000000E+00 0.  1.
         21   -1    0    0  501  502 -0.00000000000E+00 -0.00000000000E+00 -0.42081034602E+01  0.42081034602E+01  0.00000000000E+00 0.  1.
         25    1    1    2    0    0  0.00000000000E+00  0.00000000000E+00  0.92406042342E+03  0.93247663034E+03  0.12500000000E+03 0.  0.
<mgrwt>
<rscale>  0 0.12500000E+03</rscale>
<asrwt>0</asrwt>
<pdfrwt beam="1">  1       21 0.14281038E+00 0.12500000E+03</pdfrwt>
<pdfrwt beam="2">  1       21 0.64740127E-03 0.12500000E+03</pdfrwt>
<totfact> 0.25386543E+06</totfact>
</mgrwt>
</event>
<event>
 3    1  0.1628330E-001  0.1250000E+03  0.7546771E-02  0.1235069E+00
         21   -1    0    0  502  501  0.00000000000E+00  0.00000000000E+00  0.16810389945E+03  0.16810389945E+03  0.00000000000E+00 0.  1.
         21   -1    0    0  501  502 -0.00000000000E+00 -0.00000000000E+00 -0.23237117121E+02  0.23237117121E+02  0.00000000000E+00 0.  1.
         25    1    1    2    0    0  0.00000000000E+00  0.00000000000E+00  0.14486678233E+03  0.19134101657E+03  0.12500000000E+03 0.  0.
<mgrwt>
<rscale>  0 0.12500000E+03</rscale>
<asrwt>0</asrwt>
<pdfrwt beam="1">  1       21 0.25862138E-01 0.12500000E+03</pdfrwt>
<pdfrwt beam="2">  1       21 0.35749412E-02 0.12500000E+03</pdfrwt>
<totfact> 0.65873732E+06</totfact>
</mgrwt>
</event>
<event>
 3    1  0.1628330E-001  0.1250000E+03  0.7546771E-02  0.1235069E+00
         21   -1    0    0  502  501  0.00000000000E+00  0.00000000000E+00  0.14398170266E+03  0.14398170266E+03  0.00000000000E+00 0. -1.
         21   -1    0    0  501  502 -0.00000000000E+00 -0.00000000000E+00 -0.27130183403E+02  0.27130183403E+02  0.00000000000E+00 0. -1.
         25    1    1    2    0    0  0.00000000000E+00  0.00000000000E+00  0.11685151926E+03  0.17111188607E+03  0.12500000000E+03 0.  0.
<mgrwt>
<rscale>  0 0.12500000E+03</rscale>
<asrwt>0</asrwt>
<pdfrwt beam="1">  1       21 0.22151031E-01 0.12500000E+03</pdfrwt>
<pdfrwt beam="2">  1       21 0.41738745E-02 0.12500000E+03</pdfrwt>
<totfact> 0.68186072E+06</totfact>
</mgrwt>
</event>
<event>
 3    1  0.1628330E-001  0.1250000E+03  0.7546771E-02  0.1235069E+00
         21   -1    0    0  502  501  0.00000000000E+00  0.00000000000E+00  0.14937202021E+02  0.14937202021E+02  0.00000000000E+00 0.  1.
         21   -1    0    0  501  502 -0.00000000000E+00 -0.00000000000E+00 -0.26151149288E+03  0.26151149288E+03  0.00000000000E+00 0.  1.
         25    1    1    2    0    0  0.00000000000E+00  0.00000000000E+00 -0.24657429086E+03  0.27644869490E+03  0.12500000000E+03 0.  0.
<mgrwt>
<rscale>  0 0.12500000E+03</rscale>
<asrwt>0</asrwt>
<pdfrwt beam="1">  1       21 0.22980312E-02 0.12500000E+03</pdfrwt>
<pdfrwt beam="2">  1       21 0.40232535E-01 0.12500000E+03</pdfrwt>
<totfact> 0.57471988E+06</totfact>
</mgrwt>
</event>
<event>
 3    1  0.1628330E-001  0.1250000E+03  0.7546771E-02  0.1235069E+00
         21   -1    0    0  502  501  0.00000000000E+00  0.00000000000E+00  0.11678612404E+03  0.11678612404E+03  0.00000000000E+00 0.  1.
         21   -1    0    0  501  502 -0.00000000000E+00 -0.00000000000E+00 -0.33447894876E+02  0.33447894876E+02  0.00000000000E+00 0.  1.
         25    1    1    2    0    0  0.00000000000E+00  0.00000000000E+00  0.83338229168E+02  0.15023401892E+03  0.12500000000E+03 0.  0.
<mgrwt>
<rscale>  0 0.12500000E+03</rscale>
<asrwt>0</asrwt>
<pdfrwt beam="1">  1       21 0.17967096E-01 0.12500000E+03</pdfrwt>
<pdfrwt beam="2">  1       21 0.51458301E-02 0.12500000E+03</pdfrwt>
<totfact> 0.70729817E+06</totfact>
</mgrwt>
</event>
<event>
 3    1  0.1628330E-001  0.1250000E+03  0.7546771E-02  0.1235069E+00
         21   -1    0    0  502  501  0.00000000000E+00  0.00000000000E+00  0.22547227053E+03  0.22547227053E+03  0.00000000000E+00 0. -1.
         21   -1    0    0  501  502 -0.00000000000E+00 -0.00000000000E+00 -0.17324746811E+02  0.17324746811E+02  0.00000000000E+00 0. -1.
         25    1    1    2    0    0  0.00000000000E+00  0.00000000000E+00  0.20814752372E+03  0.24279701735E+03  0.12500000000E+03 0.  0.
<mgrwt>
<rscale>  0 0.12500000E+03</rscale>
<asrwt>0</asrwt>
<pdfrwt beam="1">  1       21 0.34688040E-01 0.12500000E+03</pdfrwt>
<pdfrwt beam="2">  1       21 0.26653458E-02 0.12500000E+03</pdfrwt>
<totfact> 0.60563048E+06</totfact>
</mgrwt>
</event>
<event>
 3    1  0.1628330E-001  0.1250000E+03  0.7546771E-02  0.1235069E+00
         21   -1    0    0  502  501  0.00000000000E+00  0.00000000000E+00  0.25314784258E+03  0.25314784258E+03  0.00000000000E+00 0.  1.
         21   -1    0    0  501  502 -0.00000000000E+00 -0.00000000000E+00 -0.15430706263E+02  0.15430706263E+02  0.00000000000E+00 0.  1.
         25    1    1    2    0    0  0.00000000000E+00  0.00000000000E+00  0.23771713632E+03  0.26857854884E+03  0.12500000000E+03 0.  0.
<mgrwt>
<rscale>  0 0.12500000E+03</rscale>
<asrwt>0</asrwt>
<pdfrwt beam="1">  1       21 0.38945819E-01 0.12500000E+03</pdfrwt>
<pdfrwt beam="2">  1       21 0.23739550E-02 0.12500000E+03</pdfrwt>
<totfact> 0.58171814E+06</totfact>
</mgrwt>
</event>
<event>
 3    1  0.1628330E-001  0.1250000E+03  0.7546771E-02  0.1235069E+00
         21   -1    0    0  502  501  0.00000000000E+00  0.00000000000E+00  0.80991351182E+03  0.80991351182E+03  0.00000000000E+00 0. -1.
         21   -1    0    0  501  502 -0.00000000000E+00 -0.00000000000E+00 -0.48230458475E+01  0.48230458475E+01  0.00000000000E+00 0. -1.
         25    1    1    2    0    0  0.00000000000E+00  0.00000000000E+00  0.80509046597E+03  0.81473655766E+03  0.12500000000E+03 0.  0.
<mgrwt>
<rscale>  0 0.12500000E+03</rscale>
<asrwt>0</asrwt>
<pdfrwt beam="1">  1       21 0.12460197E+00 0.12500000E+03</pdfrwt>
<pdfrwt beam="2">  1       21 0.74200770E-03 0.12500000E+03</pdfrwt>
<totfact> 0.28880364E+06</totfact>
</mgrwt>
</event>
<event>
 3    1  0.1628330E-001  0.1250000E+03  0.7546771E-02  0.1235069E+00
         21   -1    0    0  502  501  0.00000000000E+00  0.00000000000E+00  0.30102040883E+03  0.30102040883E+03  0.00000000000E+00 0. -1.
         21   -1    0    0  501  502 -0.00000000000E+00 -0.00000000000E+00 -0.12976694886E+02  0.12976694886E+02  0.00000000000E+00 0. -1.
         25    1    1    2    0    0  0.00000000000E+00  0.00000000000E+00  0.28804371395E+03  0.31399710372E+03  0.12500000000E+03 0.  0.
<mgrwt>
<rscale>  0 0.12500000E+03</rscale>
<asrwt>0</asrwt>
<pdfrwt beam="1">  1       21 0.46310827E-01 0.12500000E+03</pdfrwt>
<pdfrwt beam="2">  1       21 0.19964148E-02 0.12500000E+03</pdfrwt>
<totfact> 0.54312498E+06</totfact>
</mgrwt>
</event>
<event>
 3    1  0.1628330E-001  0.1250000E+03  0.7546771E-02  0.1235069E+00
         21   -1    0    0  502  501  0.00000000000E+00  0.00000000000E+00  0.79657746436E+01  0.79657746436E+01  0.00000000000E+00 0. -1.
         21   -1    0    0  501  502 -0.00000000000E+00 -0.00000000000E+00 -0.49037917526E+03  0.49037917526E+03  0.00000000000E+00 0. -1.
         25    1    1    2    0    0  0.00000000000E+00  0.00000000000E+00 -0.48241340061E+03  0.49834494990E+03  0.12500000000E+03 0.  0.
<mgrwt>
<rscale>  0 0.12500000E+03</rscale>
<asrwt>0</asrwt>
<pdfrwt beam="1">  1       21 0.12255033E-02 0.12500000E+03</pdfrwt>
<pdfrwt beam="2">  1       21 0.75442981E-01 0.12500000E+03</pdfrwt>
<totfact> 0.42133959E+06</totfact>
</mgrwt>
</event>
<event>
 3    1  0.1628330E-001  0.1250000E+03  0.7546771E-02  0.1235069E+00
         21   -1    0    0  502  501  0.00000000000E+00  0.00000000000E+00  0.70536080340E+01  0.70536080340E+01  0.00000000000E+00 0.  1.
         21   -1    0    0  501  502 -0.00000000000E+00 -0.00000000000E+00 -0.55379459437E+03  0.55379459437E+03  0.00000000000E+00 0.  1.
         25    1    1    2    0    0  0.00000000000E+00  0.00000000000E+00 -0.54674098633E+03  0.56084820240E+03  0.12500000000E+03 0.  0.
<mgrwt>
<rscale>  0 0.12500000E+03</rscale>
<asrwt>0</asrwt>
<pdfrwt beam="1">  1       21 0.10851701E-02 0.12500000E+03</pdfrwt>
<pdfrwt beam="2">  1       21 0.85199193E-01 0.12500000E+03</pdfrwt>
<totfact> 0.38925271E+06</totfact>
</mgrwt>
</event>
<event>
 3    1  0.1628330E-001  0.1250000E+03  0.7546771E-02  0.1235069E+00
         21   -1    0    0  502  501  0.00000000000E+00  0.00000000000E+00  0.73175360322E+01  0.73175360322E+01  0.00000000000E+00 0.  1.
         21   -1    0    0  501  502 -0.00000000000E+00 -0.00000000000E+00 -0.53382039840E+03  0.53382039840E+03  0.00000000000E+00 0.  1.
         25    1    1    2    0    0  0.00000000000E+00  0.00000000000E+00 -0.52650286237E+03  0.54113793443E+03  0.12500000000E+03 0.  0.
<mgrwt>
<rscale>  0 0.12500000E+03</rscale>
<asrwt>0</asrwt>
<pdfrwt beam="1">  1       21 0.11257744E-02 0.12500000E+03</pdfrwt>
<pdfrwt beam="2">  1       21 0.82126245E-01 0.12500000E+03</pdfrwt>
<totfact> 0.39897466E+06</totfact>
</mgrwt>
</event>
<event>
 3    1  0.1628330E-001  0.1250000E+03  0.7546771E-02  0.1235069E+00
         21   -1    0    0  502  501  0.00000000000E+00  0.00000000000E+00  0.90185460117E+03  0.90185460117E+03  0.00000000000E+00 0.  1.
         21   -1    0    0  501  502 -0.00000000000E+00 -0.00000000000E+00 -0.43313522988E+01  0.43313522988E+01  0.00000000000E+00 0.  1.
         25    1    1    2    0    0  0.00000000000E+00  0.00000000000E+00  0.89752324888E+03  0.90618595347E+03  0.12500000000E+03 0.  0.
<mgrwt>
<rscale>  0 0.12500000E+03</rscale>
<asrwt>0</asrwt>
<pdfrwt beam="1">  1       21 0.13874671E+00 0.12500000E+03</pdfrwt>
<pdfrwt beam="2">  1       21 0.66636261E-03 0.12500000E+03</pdfrwt>
<totfact> 0.26122056E+06</totfact>
</mgrwt>
</event>
<event>
 3    1  0.1628330E-001  0.1250000E+03  0.7546771E-02  0.1235069E+00
         21   -1    0    0  502  501  0.00000000000E+00  0.00000000000E+00  0.73858200233E+02  0.73858200233E+02  0.00000000000E+00 0. -1.
         21   -1    0    0  501  502 -0.00000000000E+00 -0.00000000000E+00 -0.52888507812E+02  0.52888507812E+02  0.00000000000E+00 0. -1.
         25    1    1    2    0    0  0.00000000000E+00  0.00000000000E+00  0.20969692422E+02  0.12674670805E+03  0.12500000000E+03 0.  0.
<mgrwt>
<rscale>  0 0.12500000E+03</rscale>
<asrwt>0</asrwt>
<pdfrwt beam="1">  1       21 0.11362800E-01 0.12500000E+03</pdfrwt>
<pdfrwt beam="2">  1       21 0.81366936E-02 0.12500000E+03</pdfrwt>
<totfact> 0.73803659E+06</totfact>
</mgrwt>
</event>
<event>
 3    1  0.1628330E-001  0.1250000E+03  0.7546771E-02  0.1235069E+00
         21   -1    0    0  502  501  0.00000000000E+00  0.00000000000E+00  0.93902825531E+01  0.93902825531E+01  0.00000000000E+00 0.  1.
         21   -1    0    0  501  502 -0.00000000000E+00 -0.00000000000E+00 -0.41598854751E+03  0.41598854751E+03  0.00000000000E+00 0.  1.
         25    1    1    2    0    0  0.00000000000E+00  0.00000000000E+00 -0.40659826496E+03  0.42537883006E+03  0.12500000000E+03 0.  0.
<mgrwt>
<rscale>  0 0.12500000E+03</rscale>
<asrwt>0</asrwt>
<pdfrwt beam="1">  1       21 0.14446585E-02 0.12500000E+03</pdfrwt>
<pdfrwt beam="2">  1       21 0.63998255E-01 0.12500000E+03</pdfrwt>
<totfact> 0.46402323E+06</totfact>
</mgrwt>
</event>
<event>
 3    1  0.1628330E-001  0.1250000E+03  0.7546771E-02  0.1235069E+00
         21   -1    0    0  502  501  0.00000000000E+00  0.00000000000E+00  0.11319032918E+02  0.11319032918E+02  0.00000000000E+00 0.  1.
         21   -1    0    0  501  502 -0.00000000000E+00 -0.00000000000E+00 -0.34510457107E+03  0.34510457107E+03  0.00000000000E+00 0.  1.
         25    1    1    2    0    0  0.00000000000E+00  0.00000000000E+00 -0.33378553816E+03  0.35642360399E+03  0.12500000000E+03 0.  0.
<mgrwt>
<rscale>  0 0.12500000E+03</rscale>
<asrwt>0</asrwt>
<pdfrwt beam="1">  1       21 0.17413898E-02 0.12500000E+03</pdfrwt>
<pdfrwt beam="2">  1       21 0.53093007E-01 0.12500000E+03</pdfrwt>
<totfact> 0.51067504E+06</totfact>
</mgrwt>
</event>
<event>
 3    1  0.1628330E-001  0.1250000E+03  0.7546771E-02  0.1235069E+00
         21   -1    0    0  502  501  0.00000000000E+00  0.00000000000E+00  0.12046396319E+04  0.12046396319E+04  0.00000000000E+00 0.  1.
         21   -1    0    0  501  502 -0.00000000000E+00 -0.00000000000E+00 -0.32426710003E+01  0.32426710003E+01  0.00000000000E+00 0.  1.
         25    1    1    2    0    0  0.00000000000E+00  0.00000000000E+00  0.12013969609E+04  0.12078823029E+04  0.12500000000E+03 0.  0.
<mgrwt>
<rscale>  0 0.12500000E+03</rscale>
<asrwt>0</asrwt>
<pdfrwt beam="1">  1       21 0.18532882E+00 0.12500000E+03</pdfrwt>
<pdfrwt beam="2">  1       21 0.49887342E-03 0.12500000E+03</pdfrwt>
<totfact> 0.18987036E+06</totfact>
</mgrwt>
</event>
<event>
 3    1  0.1628330E-001  0.1250000E+03  0.7546771E-02  0.1235069E+00
         21   -1    0    0  502  501  0.00000000000E+00  0.00000000000E+00  0.37859256465E+01  0.37859256465E+01  0.00000000000E+00 0. -1.
         21   -1    0    0  501  502 -0.00000000000E+00 -0.00000000000E+00 -0.10317820171E+04  0.10317820171E+04  0.00000000000E+00 0. -1.
         25    1    1    2    0    0  0.00000000000E+00  0.00000000000E+00 -0.10279960914E+04  0.10355679427E+04  0.12500000000E+03 0.  0.
<mgrwt>
<rscale>  0 0.12500000E+03</rscale>
<asrwt>0</asrwt>
<pdfrwt beam="1">  1       21 0.58244942E-03 0.12500000E+03</pdfrwt>
<pdfrwt beam="2">  1       21 0.15873588E+00 0.12500000E+03</pdfrwt>
<totfact> 0.22744030E+06</totfact>
</mgrwt>
</event>
<event>
 3    1  0.1628330E-001  0.1250000E+03  0.7546771E-02  0.1235069E+00
         21   -1    0    0  502  501  0.00000000000E+00  0.00000000000E+00  0.15947002450E+03  0.15947002450E+03  0.00000000000E+00 0.  1.
         21   -1    0    0  501  502 -0.00000000000E+00 -0.00000000000E+00 -0.24495199097E+02  0.24495199097E+02  0.00000000000E+00 0.  1.
         25    1    1    2    0    0  0.00000000000E+00  0.00000000000E+00  0.13497482540E+03  0.18396522359E+03  0.12500000000E+03 0.  0.
<mgrwt>
<rscale>  0 0.12500000E+03</rscale>
<asrwt>0</asrwt>
<pdfrwt beam="1">  1       21 0.24533849E-01 0.12500000E+03</pdfrwt>
<pdfrwt beam="2">  1       21 0.37684923E-02 0.12500000E+03</pdfrwt>
<totfact> 0.66699545E+06</totfact>
</mgrwt>
</event>
<event>
 3    1  0.1628330E-001  0.1250000E+03  0.7546771E-02  0.1235069E+00
         21   -1    0    0  502  501  0.00000000000E+00  0.00000000000E+00  0.25934117767E+03  0.25934117767E+03  0.00000000000E+00 0. -1.
         21   -1    0    0  501  502 -0.00000000000E+00 -0.00000000000E+00 -0.15062205066E+02  0.15062205066E+02  0.00000000000E+00 0. -1.
         25    1    1    2    0    0  0.00000000000E+00  0.00000000000E+00  0.24427897260E+03  0.27440338273E+03  0.12500000000E+03 0.  0.
<mgrwt>
<rscale>  0 0.12500000E+03</rscale>
<asrwt>0</asrwt>
<pdfrwt beam="1">  1       21 0.39898639E-01 0.12500000E+03</pdfrwt>
<pdfrwt beam="2">  1       21 0.23172625E-02 0.12500000E+03</pdfrwt>
<totfact> 0.57652774E+06</totfact>
</mgrwt>
</event>
<event>
 3    1  0.1628330E-001  0.1250000E+03  0.7546771E-02  0.1235069E+00
         21   -1    0    0  502  501  0.00000000000E+00  0.00000000000E+00  0.21010591747E+02  0.21010591747E+02  0.00000000000E+00 0.  1.
         21   -1    0    0  501  502 -0.00000000000E+00 -0.00000000000E+00 -0.18591813344E+03  0.18591813344E+03  0.00000000000E+00 0.  1.
         25    1    1    2    0    0  0.00000000000E+00  0.00000000000E+00 -0.16490754169E+03  0.20692872518E+03  0.12500000000E+03 0.  0.
<mgrwt>
<rscale>  0 0.12500000E+03</rscale>
<asrwt>0</asrwt>
<pdfrwt beam="1">  1       21 0.32323987E-02 0.12500000E+03</pdfrwt>
<pdfrwt beam="2">  1       21 0.28602790E-01 0.12500000E+03</pdfrwt>
<totfact> 0.64184124E+06</totfact>
</mgrwt>
</event>
<event>
 3    1  0.1628330E-001  0.1250000E+03  0.7546771E-02  0.1235069E+00
         21   -1    0    0  502  501  0.00000000000E+00  0.00000000000E+00  0.30489043940E+03  0.30489043940E+03  0.00000000000E+00 0. -1.
         21   -1    0    0  501  502 -0.00000000000E+00 -0.00000000000E+00 -0.12811979305E+02  0.12811979305E+02  0.00000000000E+00 0. -1.
         25    1    1    2    0    0  0.00000000000E+00  0.00000000000E+00  0.29207846010E+03  0.31770241871E+03  0.12500000000E+03 0.  0.
<mgrwt>
<rscale>  0 0.12500000E+03</rscale>
<asrwt>0</asrwt>
<pdfrwt beam="1">  1       21 0.46906216E-01 0.12500000E+03</pdfrwt>
<pdfrwt beam="2">  1       21 0.19710740E-02 0.12500000E+03</pdfrwt>
<totfact> 0.54015920E+06</totfact>
</mgrwt>
</event>
<event>
 3    1  0.1628330E-001  0.1250000E+03  0.7546771E-02  0.1235069E+00
         21   -1    0    0  502  501  0.00000000000E+00  0.00000000000E+00  0.18179951543E+02  0.18179951543E+02  0.00000000000E+00 0.  1.
         21   -1    0    0  501  502 -0.00000000000E+00 -0.00000000000E+00 -0.21486580922E+03  0.21486580922E+03  0.00000000000E+00 0.  1.
         25    1    1    2    0    0  0.00000000000E+00  0.00000000000E+00 -0.19668585768E+03  0.23304576077E+03  0.12500000000E+03 0.  0.
<mgrwt>
<rscale>  0 0.12500000E+03</rscale>
<asrwt>0</asrwt>
<pdfrwt beam="1">  1       21 0.27969157E-02 0.12500000E+03</pdfrwt>
<pdfrwt beam="2">  1       21 0.33056278E-01 0.12500000E+03</pdfrwt>
<totfact> 0.61512173E+06</totfact>
</mgrwt>
</event>
<event>
 3    1  0.1628330E-001  0.1250000E+03  0.7546771E-02  0.1235069E+00
         21   -1    0    0  502  501  0.00000000000E+00  0.00000000000E+00  0.86620643225E+02  0.86620643225E+02  0.00000000000E+00 0.  1.
         21   -1    0    0  501  502 -0.00000000000E+00 -0.00000000000E+00 -0.45096063185E+02  0.45096063185E+02  0.00000000000E+00 0.  1.
         25    1    1    2    0    0  0.00000000000E+00  0.00000000000E+00  0.41524580040E+02  0.13171670641E+03  0.12500000000E+03 0.  0.
<mgrwt>
<rscale>  0 0.12500000E+03</rscale>
<asrwt>0</asrwt>
<pdfrwt beam="1">  1       21 0.13326253E-01 0.12500000E+03</pdfrwt>
<pdfrwt beam="2">  1       21 0.69378559E-02 0.12500000E+03</pdfrwt>
<totfact> 0.73134252E+06</totfact>
</mgrwt>
</event>
<event>
 3    1  0.1628330E-001  0.1250000E+03  0.7546771E-02  0.1235069E+00
         21   -1    0    0  502  501  0.00000000000E+00  0.00000000000E+00  0.43614494126E+03  0.43614494126E+03  0.00000000000E+00 0.  1.
         21   -1    0    0  501  502 -0.00000000000E+00 -0.00000000000E+00 -0.89563116076E+01  0.89563116076E+01  0.00000000000E+00 0.  1.
         25    1    1    2    0    0  0.00000000000E+00  0.00000000000E+00  0.42718862965E+03  0.44510125287E+03  0.12500000000E+03 0.  0.
<mgrwt>
<rscale>  0 0.12500000E+03</rscale>
<asrwt>0</asrwt>
<pdfrwt beam="1">  1       21 0.67099205E-01 0.12500000E+03</pdfrwt>
<pdfrwt beam="2">  1       21 0.13778944E-02 0.12500000E+03</pdfrwt>
<totfact> 0.45186863E+06</totfact>
</mgrwt>
</event>
<event>
 3    1  0.1628330E-001  0.1250000E+03  0.7546771E-02  0.1235069E+00
         21   -1    0    0  502  501  0.00000000000E+00  0.00000000000E+00  0.37477637321E+01  0.37477637321E+01  0.00000000000E+00 0. -1.
         21   -1    0    0  501  502 -0.00000000000E+00 -0.00000000000E+00 -0.10422882228E+04  0.10422882228E+04  0.00000000000E+00 0. -1.
         25    1    1    2    0    0  0.00000000000E+00  0.00000000000E+00 -0.10385404591E+04  0.10460359866E+04  0.12500000000E+03 0.  0.
<mgrwt>
<rscale>  0 0.12500000E+03</rscale>
<asrwt>0</asrwt>
<pdfrwt beam="1">  1       21 0.57657891E-03 0.12500000E+03</pdfrwt>
<pdfrwt beam="2">  1       21 0.16035207E+00 0.12500000E+03</pdfrwt>
<totfact> 0.22493151E+06</totfact>
</mgrwt>
</event>
<event>
 3    1  0.1628330E-001  0.1250000E+03  0.7546771E-02  0.1235069E+00
         21   -1    0    0  502  501  0.00000000000E+00  0.00000000000E+00  0.75744391605E+02  0.75744391605E+02  0.00000000000E+00 0. -1.
         21   -1    0    0  501  502 -0.00000000000E+00 -0.00000000000E+00 -0.51571475026E+02  0.51571475026E+02  0.00000000000E+00 0. -1.
         25    1    1    2    0    0  0.00000000000E+00  0.00000000000E+00  0.24172916579E+02  0.12731586663E+03  0.12500000000E+03 0.  0.
<mgrwt>
<rscale>  0 0.12500000E+03</rscale>
<asrwt>0</asrwt>
<pdfrwt beam="1">  1       21 0.11652983E-01 0.12500000E+03</pdfrwt>
<pdfrwt beam="2">  1       21 0.79340730E-02 0.12500000E+03</pdfrwt>
<totfact> 0.73726197E+06</totfact>
</mgrwt>
</event>
<event>
 3    1  0.1628330E-001  0.1250000E+03  0.7546771E-02  0.1235069E+00
         21   -1    0    0  502  501  0.00000000000E+00  0.00000000000E+00  0.33082792176E+03  0.33082792176E+03  0.00000000000E+00 0. -1.
         21   -1    0    0  501  502 -0.00000000000E+00 -0.00000000000E+00 -0.11807497926E+02  0.11807497926E+02  0.00000000000E+00 0. -1.
         25    1    1    2    0    0  0.00000000000E+00  0.00000000000E+00  0.31902042383E+03  0.34263541968E+03  0.12500000000E+03 0.  0.
<mgrwt>
<rscale>  0 0.12500000E+03</rscale>
<asrwt>0</asrwt>
<pdfrwt beam="1">  1       21 0.50896596E-01 0.12500000E+03</pdfrwt>
<pdfrwt beam="2">  1       21 0.18165384E-02 0.12500000E+03</pdfrwt>
<totfact> 0.52086971E+06</totfact>
</mgrwt>
</event>
<event>
 3    1  0.1628330E-001  0.1250000E+03  0.7546771E-02  0.1235069E+00
         21   -1    0    0  502  501  0.00000000000E+00  0.00000000000E+00  0.13239836166E+03  0.13239836166E+03  0.00000000000E+00 0. -1.
         21   -1    0    0  501  502 -0.00000000000E+00 -0.00000000000E+00 -0.29503763877E+02  0.29503763877E+02  0.00000000000E+00 0. -1.
         25    1    1    2    0    0  0.00000000000E+00  0.00000000000E+00  0.10289459778E+03  0.16190212553E+03  0.12500000000E+03 0.  0.
<mgrwt>
<rscale>  0 0.12500000E+03</rscale>
<asrwt>0</asrwt>
<pdfrwt beam="1">  1       21 0.20368978E-01 0.12500000E+03</pdfrwt>
<pdfrwt beam="2">  1       21 0.45390407E-02 0.12500000E+03</pdfrwt>
<totfact> 0.69287821E+06</totfact>
</mgrwt>
</event>
<event>
 3    1  0.1628330E-001  0.1250000E+03  0.7546771E-02  0.1235069E+00
         21   -1    0    0  502  501  0.00000000000E+00  0.00000000000E+00  0.37939024500E+03  0.37939024500E+03  0.00000000000E+00 0.  1.
         21   -1    0    0  501  502 -0.00000000000E+00 -0.00000000000E+00 -0.10296126618E+02  0.10296126618E+02  0.00000000000E+00 0.  1.
         25    1    1    2    0    0  0.00000000000E+00  0.00000000000E+00  0.36909411838E+03  0.38968637161E+03  0.12500000000E+03 0.  0.
<mgrwt>
<rscale>  0 0.12500000E+03</rscale>
<asrwt>0</asrwt>
<pdfrwt beam="1">  1       21 0.58367719E-01 0.12500000E+03</pdfrwt>
<pdfrwt beam="2">  1       21 0.15840198E-02 0.12500000E+03</pdfrwt>
<totfact> 0.48733055E+06</totfact>
</mgrwt>
</event>
<event>
 3    1  0.1628330E-001  0.1250000E+03  0.7546771E-02  0.1235069E+00
         21   -1    0    0  502  501  0.00000000000E+00  0.00000000000E+00  0.24340501931E+03  0.24340501931E+03  0.00000000000E+00 0. -1.
         21   -1    0    0  501  502 -0.00000000000E+00 -0.00000000000E+00 -0.16048354348E+02  0.16048354348E+02  0.00000000000E+00 0. -1.
         25    1    1    2    0    0  0.00000000000E+00  0.00000000000E+00  0.22735666496E+03  0.25945337366E+03  0.12500000000E+03 0.  0.
<mgrwt>
<rscale>  0 0.12500000E+03</rscale>
<asrwt>0</asrwt>
<pdfrwt beam="1">  1       21 0.37446923E-01 0.12500000E+03</pdfrwt>
<pdfrwt beam="2">  1       21 0.24689778E-02 0.12500000E+03</pdfrwt>
<totfact> 0.58999410E+06</totfact>
</mgrwt>
</event>
<event>
 3    1  0.1628330E-001  0.1250000E+03  0.7546771E-02  0.1235069E+00
         21   -1    0    0  502  501  0.00000000000E+00  0.00000000000E+00  0.52527501115E+02  0.52527501115E+02  0.00000000000E+00 0. -1.
         21   -1    0    0  501  502 -0.00000000000E+00 -0.00000000000E+00 -0.74365806807E+02  0.74365806807E+02  0.00000000000E+00 0. -1.
         25    1    1    2    0    0  0.00000000000E+00  0.00000000000E+00 -0.21838305691E+02  0.12689330792E+03  0.12500000000E+03 0.  0.
<mgrwt>
<rscale>  0 0.12500000E+03</rscale>
<asrwt>0</asrwt>
<pdfrwt beam="1">  1       21 0.80811540E-02 0.12500000E+03</pdfrwt>
<pdfrwt beam="2">  1       21 0.11440893E-01 0.12500000E+03</pdfrwt>
<totfact> 0.73783667E+06</totfact>
</mgrwt>
</event>
<event>
 3    1  0.1628330E-001  0.1250000E+03  0.7546771E-02  0.1235069E+00
         21   -1    0    0  502  501  0.00000000000E+00  0.00000000000E+00  0.66632516616E+02  0.66632516616E+02  0.00000000000E+00 0.  1.
         21   -1    0    0  501  502 -0.00000000000E+00 -0.00000000000E+00 -0.58623780076E+02  0.58623780076E+02  0.00000000000E+00 0.  1.
         25    1    1    2    0    0  0.00000000000E+00  0.00000000000E+00  0.80087365396E+01  0.12525629669E+03  0.12500000000E+03 0.  0.
<mgrwt>
<rscale>  0 0.12500000E+03</rscale>
<asrwt>0</asrwt>
<pdfrwt beam="1">  1       21 0.10251156E-01 0.12500000E+03</pdfrwt>
<pdfrwt beam="2">  1       21 0.90190431E-02 0.12500000E+03</pdfrwt>
<totfact> 0.74008971E+06</totfact>
</mgrwt>
</event>
<event>
 3    1  0.1628330E-001  0.1250000E+03  0.7546771E-02  0.1235069E+00
         21   -1    0    0  502  501  0.00000000000E+00  0.00000000000E+00  0.65467697505E+02  0.65467697505E+02  0.00000000000E+00 0. -1.
         21   -1    0    0  501  502 -0.00000000000E+00 -0.00000000000E+00 -0.59666830343E+02  0.59666830343E+02  0.00000000000E+00 0. -1.
         25    1    1    2    0    0  0.00000000000E+00  0.00000000000E+00  0.58008671626E+01  0.12513452785E+03  0.12500000000E+03 0.  0.
<mgrwt>
<rscale>  0 0.12500000E+03</rscale>
<asrwt>0</asrwt>
<pdfrwt beam="1">  1       21 0.10071953E-01 0.12500000E+03</pdfrwt>
<pdfrwt beam="2">  1       21 0.91795123E-02 0.12500000E+03</pdfrwt>
<totfact> 0.74025413E+06</totfact>
</mgrwt>
</event>
<event>
 3    1  0.1628330E-001  0.1250000E+03  0.7546771E-02  0.1235069E+00
         21   -1    0    0  502  501  0.00000000000E+00  0.00000000000E+00  0.17783870368E+04  0.17783870368E+04  0.00000000000E+00 0.  1.
         21   -1    0    0  501  502 -0.00000000000E+00 -0.00000000000E+00 -0.21965128620E+01  0.21965128620E+01  0.00000000000E+00 0.  1.
         25    1    1    2    0    0  0.00000000000E+00  0.00000000000E+00  0.17761905239E+04  0.17805835497E+04  0.12500000000E+03 0.  0.
<mgrwt>
<rscale>  0 0.12500000E+03</rscale>
<asrwt>0</asrwt>
<pdfrwt beam="1">  1       21 0.27359685E+00 0.12500000E+03</pdfrwt>
<pdfrwt beam="2">  1       21 0.33792648E-03 0.12500000E+03</pdfrwt>
<totfact> 0.10295257E+06</totfact>
</mgrwt>
</event>
<event>
 3    1  0.1628330E-001  0.1250000E+03  0.7546771E-02  0.1235069E+00
         21   -1    0    0  502  501  0.00000000000E+00  0.00000000000E+00  0.29418955767E+02  0.29418955767E+02  0.00000000000E+00 0.  1.
         21   -1    0    0  501  502 -0.00000000000E+00 -0.00000000000E+00 -0.13278003580E+03  0.13278003580E+03  0.00000000000E+00 0.  1.
         25    1    1    2    0    0  0.00000000000E+00  0.00000000000E+00 -0.10336108003E+03  0.16219899157E+03  0.12500000000E+03 0.  0.
<mgrwt>
<rscale>  0 0.12500000E+03</rscale>
<asrwt>0</asrwt>
<pdfrwt beam="1">  1       21 0.45259932E-02 0.12500000E+03</pdfrwt>
<pdfrwt beam="2">  1       21 0.20427698E-01 0.12500000E+03</pdfrwt>
<totfact> 0.69251796E+06</totfact>
</mgrwt>
</event>
<event>
 3    1  0.1628330E-001  0.1250000E+03  0.7546771E-02  0.1235069E+00
         21   -1    0    0  502  501  0.00000000000E+00  0.00000000000E+00  0.51411333959E+02  0.51411333959E+02  0.00000000000E+00 0.  1.
         21   -1    0    0  501  502 -0.00000000000E+00 -0.00000000000E+00 -0.75980327667E+02  0.75980327667E+02  0.00000000000E+00 0.  1.
         25    1    1    2    0    0  0.00000000000E+00  0.00000000000E+00 -0.24568993708E+02  0.12739166163E+03  0.12500000000E+03 0.  0.
<mgrwt>
<rscale>  0 0.12500000E+03</rscale>
<asrwt>0</asrwt>
<pdfrwt beam="1">  1       21 0.79094360E-02 0.12500000E+03</pdfrwt>
<pdfrwt beam="2">  1       21 0.11689281E-01 0.12500000E+03</pdfrwt>
<totfact> 0.73715911E+06</totfact>
</mgrwt>
</event>
<event>
 3    1  0.1628330E-001  0.1250000E+03  0.7546771E-02  0.1235069E+00
         21   -1    0    0  502  501  0.00000000000E+00  0.00000000000E+00  0.50652114599E+02  0.50652114599E+02  0.00000000000E+00 0.  1.
         21   -1    0    0  501  502 -0.00000000000E+00 -0.00000000000E+00 -0.77119189020E+02  0.77119189020E+02  0.00000000000E+00 0.  1.
         25    1    1    2    0    0  0.00000000000E+00  0.00000000000E+00 -0.26467074421E+02  0.12777130362E+03  0.12500000000E+03 0.  0.
<mgrwt>
<rscale>  0 0.12500000E+03</rscale>
<asrwt>0</asrwt>
<pdfrwt beam="1">  1       21 0.77926330E-02 0.12500000E+03</pdfrwt>
<pdfrwt beam="2">  1       21 0.11864491E-01 0.12500000E+03</pdfrwt>
<totfact> 0.73664476E+06</totfact>
</mgrwt>
</event>
<event>
 3    1  0.1628330E-001  0.1250000E+03  0.7546771E-02  0.1235069E+00
         21   -1    0    0  502  501  0.00000000000E+00  0.00000000000E+00  0.54170814011E+02  0.54170814011E+02  0.00000000000E+00 0.  1.
         21   -1    0    0  501  502 -0.00000000000E+00 -0.00000000000E+00 -0.72109863426E+02  0.72109863426E+02  0.00000000000E+00 0.  1.
         25    1    1    2    0    0  0.00000000000E+00  0.00000000000E+00 -0.17939049415E+02  0.12628067744E+03  0.12500000000E+03 0.  0.
<mgrwt>
<rscale>  0 0.12500000E+03</rscale>
<asrwt>0</asrwt>
<pdfrwt beam="1">  1       21 0.83339714E-02 0.12500000E+03</pdfrwt>
<pdfrwt beam="2">  1       21 0.11093825E-01 0.12500000E+03</pdfrwt>
<totfact> 0.73867430E+06</totfact>
</mgrwt>
</event>
<event>
 3    1  0.1628330E-001  0.1250000E+03  0.7546771E-02  0.1235069E+00
         21   -1    0    0  502  501  0.00000000000E+00  0.00000000000E+00  0.25721146412E+03  0.25721146412E+03  0.00000000000E+00 0.  1.
         21   -1    0    0  501  502 -0.00000000000E+00 -0.00000000000E+00 -0.15186920277E+02  0.15186920277E+02  0.00000000000E+00 0.  1.
         25    1    1    2    0    0  0.00000000000E+00  0.00000000000E+00  0.24202454385E+03  0.27239838440E+03  0.12500000000E+03 0.  0.
<mgrwt>
<rscale>  0 0.12500000E+03</rscale>
<asrwt>0</asrwt>
<pdfrwt beam="1">  1       21 0.39570991E-01 0.12500000E+03</pdfrwt>
<pdfrwt beam="2">  1       21 0.23364495E-02 0.12500000E+03</pdfrwt>
<totfact> 0.57830917E+06</totfact>
</mgrwt>
</event>
<event>
 3    1  0.1628330E-001  0.1250000E+03  0.7546771E-02  0.1235069E+00
         21   -1    0    0  502  501  0.00000000000E+00  0.00000000000E+00  0.73335764911E+01  0.73335764911E+01  0.00000000000E+00 0.  1.
         21   -1    0    0  501  502 -0.00000000000E+00 -0.00000000000E+00 -0.53265279291E+03  0.53265279291E+03  0.00000000000E+00 0.  1.
         25    1    1    2    0    0  0.00000000000E+00  0.00000000000E+00 -0.52531921642E+03  0.53998636940E+03  0.12500000000E+03 0.  0.
<mgrwt>
<rscale>  0 0.12500000E+03</rscale>
<asrwt>0</asrwt>
<pdfrwt beam="1">  1       21 0.11282424E-02 0.12500000E+03</pdfrwt>
<pdfrwt beam="2">  1       21 0.81946592E-01 0.12500000E+03</pdfrwt>
<totfact> 0.39955354E+06</totfact>
</mgrwt>
</event>
<event>
 3    1  0.1628330E-001  0.1250000E+03  0.7546771E-02  0.1235069E+00
         21   -1    0    0  502  501  0.00000000000E+00  0.00000000000E+00  0.13719315688E+03  0.13719315688E+03  0.00000000000E+00 0. -1.
         21   -1    0    0  501  502 -0.00000000000E+00 -0.00000000000E+00 -0.28472630041E+02  0.28472630041E+02  0.00000000000E+00 0. -1.
         25    1    1    2    0    0  0.00000000000E+00  0.00000000000E+00  0.10872052684E+03  0.16566578692E+03  0.12500000000E+03 0.  0.
<mgrwt>
<rscale>  0 0.12500000E+03</rscale>
<asrwt>0</asrwt>
<pdfrwt beam="1">  1       21 0.21106639E-01 0.12500000E+03</pdfrwt>
<pdfrwt beam="2">  1       21 0.43804047E-02 0.12500000E+03</pdfrwt>
<totfact> 0.68833740E+06</totfact>
</mgrwt>
</event>
<event>
 3    1  0.1628330E-001  0.1250000E+03  0.7546771E-02  0.1235069E+00
         21   -1    0    0  502  501  0.00000000000E+00  0.00000000000E+00  0.21135394502E+02  0.21135394502E+02  0.00000000000E+00 0.  1.
         21   -1    0    0  501  502 -0.00000000000E+00 -0.00000000000E+00 -0.18482030225E+03  0.18482030225E+03  0.00000000000E+00 0.  1.
         25    1    1    2    0    0  0.00000000000E+00  0.00000000000E+00 -0.16368490774E+03  0.20595569675E+03  0.12500000000E+03 0.  0.
<mgrwt>
<rscale>  0 0.12500000E+03</rscale>
<asrwt>0</asrwt>
<pdfrwt beam="1">  1       21 0.32515990E-02 0.12500000E+03</pdfrwt>
<pdfrwt beam="2">  1       21 0.28433894E-01 0.12500000E+03</pdfrwt>
<totfact> 0.64287570E+06</totfact>
</mgrwt>
</event>
<event>
 3    1  0.1628330E-001  0.1250000E+03  0.7546771E-02  0.1235069E+00
         21   -1    0    0  502  501  0.00000000000E+00  0.00000000000E+00  0.23520418683E+03  0.23520418683E+03  0.00000000000E+00 0. -1.
         21   -1    0    0  501  502 -0.00000000000E+00 -0.00000000000E+00 -0.16607910142E+02  0.16607910142E+02  0.00000000000E+00 0. -1.
         25    1    1    2    0    0  0.00000000000E+00  0.00000000000E+00  0.21859627669E+03  0.25181209697E+03  0.12500000000E+03 0.  0.
<mgrwt>
<rscale>  0 0.12500000E+03</rscale>
<asrwt>0</asrwt>
<pdfrwt beam="1">  1       21 0.36185257E-01 0.12500000E+03</pdfrwt>
<pdfrwt beam="2">  1       21 0.25550633E-02 0.12500000E+03</pdfrwt>
<totfact> 0.59708002E+06</totfact>
</mgrwt>
</event>
<event>
 3    1  0.1628330E-001  0.1250000E+03  0.7546771E-02  0.1235069E+00
         21   -1    0    0  502  501  0.00000000000E+00  0.00000000000E+00  0.18746426021E+03  0.18746426021E+03  0.00000000000E+00 0. -1.
         21   -1    0    0  501  502 -0.00000000000E+00 -0.00000000000E+00 -0.20837305178E+02  0.20837305178E+02  0.00000000000E+00 0. -1.
         25    1    1    2    0    0  0.00000000000E+00  0.00000000000E+00  0.16662695503E+03  0.20830156539E+03  0.12500000000E+03 0.  0.
<mgrwt>
<rscale>  0 0.12500000E+03</rscale>
<asrwt>0</asrwt>
<pdfrwt beam="1">  1       21 0.28840654E-01 0.12500000E+03</pdfrwt>
<pdfrwt beam="2">  1       21 0.32057394E-02 0.12500000E+03</pdfrwt>
<totfact> 0.64038675E+06</totfact>
</mgrwt>
</event>
<event>
 3    1  0.1628330E-001  0.1250000E+03  0.7546771E-02  0.1235069E+00
         21   -1    0    0  502  501  0.00000000000E+00  0.00000000000E+00  0.59000167446E+02  0.59000167446E+02  0.00000000000E+00 0.  1.
         21   -1    0    0  501  502 -0.00000000000E+00 -0.00000000000E+00 -0.66207439218E+02  0.66207439218E+02  0.00000000000E+00 0.  1.
         25    1    1    2    0    0  0.00000000000E+00  0.00000000000E+00 -0.72072717716E+01  0.12520760666E+03  0.12500000000E+03 0.  0.
<mgrwt>
<rscale>  0 0.12500000E+03</rscale>
<asrwt>0</asrwt>
<pdfrwt beam="1">  1       21 0.90769489E-02 0.12500000E+03</pdfrwt>
<pdfrwt beam="2">  1       21 0.10185760E-01 0.12500000E+03</pdfrwt>
<totfact> 0.74015545E+06</totfact>
</mgrwt>
</event>
