<event>
 3    1  0.1602107E-001  0.1250000E+03  0.7546771E-02  0.1235069E+00
         21   -1    0    0  502  501  0.00000000000E+00  0.00000000000E+00  0.42099972086E+03  0.42099972086E+03  0.00000000000E+00 0. -1.
         21   -1    0    0  501  502 -0.00000000000E+00 -0.00000000000E+00 -0.92785097151E+01  0.92785097151E+01  0.00000000000E+00 0. -1.
         25    1    1    2    0    0  0.00000000000E+00  0.00000000000E+00  0.41172121114E+03  0.43027823057E+03  0.12500000000E+03 0.  0.
<mgrwt>
<rscale>  0 0.12500000E+03</rscale>
<asrwt>0</asrwt>
<pdfrwt beam="1">  1       21 0.64769173E-01 0.12500000E+03</pdfrwt>
<pdfrwt beam="2">  1       21 0.14274634E-02 0.12500000E+03</pdfrwt>
<totfact> 0.46095804E+06</totfact>
</mgrwt>
</event>
<event>
 3    1  0.1602107E-001  0.1250000E+03  0.7546771E-02  0.1235069E+00
         21   -1    0    0  502  501  0.00000000000E+00  0.00000000000E+00  0.13464154824E+03  0.13464154824E+03  0.00000000000E+00 0.  1.
         21   -1    0    0  501  502 -0.00000000000E+00 -0.00000000000E+00 -0.29012218375E+02  0.29012218375E+02  0.00000000000E+00 0.  1.
         25    1    1    2    0    0  0.00000000000E+00  0.00000000000E+00  0.10562932987E+03  0.16365376662E+03  0.12500000000E+03 0.  0.
<mgrwt>
<rscale>  0 0.12500000E+03</rscale>
<asrwt>0</asrwt>
<pdfrwt beam="1">  1       21 0.20714084E-01 0.12500000E+03</pdfrwt>
<pdfrwt beam="2">  1       21 0.44634183E-02 0.12500000E+03</pdfrwt>
<totfact> 0.69075779E+06</totfact>
</mgrwt>
</event>
<event>
 3    1  0.1602107E-001  0.1250000E+03  0.7546771E-02  0.1235069E+00
         21   -1    0    0  502  501  0.00000000000E+00  0.00000000000E+00  0.40415012991E+03  0.40415012991E+03  0.00000000000E+00 0.  1.
         21   -1    0    0  501  502 -0.00000000000E+00 -0.00000000000E+00 -0.96653439178E+01  0.96653439178E+01  0.00000000000E+00 0.  1.
         25    1    1    2    0    0  0.00000000000E+00  0.00000000000E+00  0.39448478599E+03  0.41381547383E+03  0.12500000000E+03 0.  0.
<mgrwt>
<rscale>  0 0.12500000E+03</rscale>
<asrwt>0</asrwt>
<pdfrwt beam="1">  1       21 0.62176930E-01 0.12500000E+03</pdfrwt>
<pdfrwt beam="2">  1       21 0.14869763E-02 0.12500000E+03</pdfrwt>
<totfact> 0.47138291E+06</totfact>
</mgrwt>
</event>
<event>
 3    1  0.1602107E-001  0.1250000E+03  0.7546771E-02  0.1235069E+00
         21   -1    0    0  502  501  0.00000000000E+00  0.00000000000E+00  0.32844731855E+02  0.32844731855E+02  0.00000000000E+00 0.  1.
         21   -1    0    0  501  502 -0.00000000000E+00 -0.00000000000E+00 -0.11893079284E+03  0.11893079284E+03  0.00000000000E+00 0.  1.
         25    1    1    2    0    0  0.00000000000E+00  0.00000000000E+00 -0.86086060981E+02  0.15177552469E+03  0.12500000000E+03 0.  0.
<mgrwt>
<rscale>  0 0.12500000E+03</rscale>
<asrwt>0</asrwt>
<pdfrwt beam="1">  1       21 0.50530356E-02 0.12500000E+03</pdfrwt>
<pdfrwt beam="2">  1       21 0.18297045E-01 0.12500000E+03</pdfrwt>
<totfact> 0.70536869E+06</totfact>
</mgrwt>
</event>
<event>
 3    1  0.1602107E-001  0.1250000E+03  0.7546771E-02  0.1235069E+00
         21   -1    0    0  502  501  0.00000000000E+00  0.00000000000E+00  0.37870023508E+02  0.37870023508E+02  0.00000000000E+00 0. -1.
         21   -1    0    0  501  502 -0.00000000000E+00 -0.00000000000E+00 -0.10314886652E+03  0.10314886652E+03  0.00000000000E+00 0. -1.
         25    1    1    2    0    0  0.00000000000E+00  0.00000000000E+00 -0.65278843015E+02  0.14101889003E+03  0.12500000000E+03 0.  0.
<mgrwt>
<rscale>  0 0.12500000E+03</rscale>
<asrwt>0</asrwt>
<pdfrwt beam="1">  1       21 0.58261576E-02 0.12500000E+03</pdfrwt>
<pdfrwt beam="2">  1       21 0.15869056E-01 0.12500000E+03</pdfrwt>
<totfact> 0.71906572E+06</totfact>
</mgrwt>
</event>
<event>
 3    1  0.1602107E-001  0.1250000E+03  0.7546771E-02  0.1235069E+00
         21   -1    0    0  502  501  0.00000000000E+00  0.00000000000E+00  0.59292772020E+02  0.59292772020E+02  0.00000000000E+00 0.  1.
         21   -1    0    0  501  502 -0.00000000000E+00 -0.00000000000E+00 -0.65880711373E+02  0.65880711373E+02  0.00000000000E+00 0.  1.
         25    1    1    2    0    0  0.00000000000E+00  0.00000000000E+00 -0.65879393530E+01  0.12517348339E+03  0.12500000000E+03 0.  0.
<mgrwt>
<rscale>  0 0.12500000E+03</rscale>
<asrwt>0</asrwt>
<pdfrwt beam="1">  1       21 0.91219649E-02 0.12500000E+03</pdfrwt>
<pdfrwt beam="2">  1       21 0.10135494E-01 0.12500000E+03</pdfrwt>
<totfact> 0.74020152E+06</totfact>
</mgrwt>
</event>
<event>
 3    1  0.1602107E-001  0.1250000E+03  0.7546771E-02  0.1235069E+00
         21   -1    0    0  502  501  0.00000000000E+00  0.00000000000E+00  0.31964809895E+03  0.31964809895E+03  0.00000000000E+00 0. -1.
         21   -1    0    0  501  502 -0.00000000000E+00 -0.00000000000E+00 -0.12220469988E+02  0.12220469988E+02  0.00000000000E+00 0. -1.
         25    1    1    2    0    0  0.00000000000E+00  0.00000000000E+00  0.30742762897E+03  0.33186856894E+03  0.12500000000E+03 0.  0.
<mgrwt>
<rscale>  0 0.12500000E+03</rscale>
<asrwt>0</asrwt>
<pdfrwt beam="1">  1       21 0.49176624E-01 0.12500000E+03</pdfrwt>
<pdfrwt beam="2">  1       21 0.18800725E-02 0.12500000E+03</pdfrwt>
<totfact> 0.52906023E+06</totfact>
</mgrwt>
</event>
<event>
 3    1  0.1602107E-001  0.1250000E+03  0.7546771E-02  0.1235069E+00
         21   -1    0    0  502  501  0.00000000000E+00  0.00000000000E+00  0.24028238719E+02  0.24028238719E+02  0.00000000000E+00 0.  1.
         21   -1    0    0  501  502 -0.00000000000E+00 -0.00000000000E+00 -0.16256913566E+03  0.16256913566E+03  0.00000000000E+00 0.  1.
         25    1    1    2    0    0  0.00000000000E+00  0.00000000000E+00 -0.13854089694E+03  0.18659737438E+03  0.12500000000E+03 0.  0.
<mgrwt>
<rscale>  0 0.12500000E+03</rscale>
<asrwt>0</asrwt>
<pdfrwt beam="1">  1       21 0.36966520E-02 0.12500000E+03</pdfrwt>
<pdfrwt beam="2">  1       21 0.25010637E-01 0.12500000E+03</pdfrwt>
<totfact> 0.66402646E+06</totfact>
</mgrwt>
</event>
<event>
 3    1  0.1602107E-001  0.1250000E+03  0.7546771E-02  0.1235069E+00
         21   -1    0    0  502  501  0.00000000000E+00  0.00000000000E+00  0.19969093076E+03  0.19969093076E+03  0.00000000000E+00 0.  1.
         21   -1    0    0  501  502 -0.00000000000E+00 -0.00000000000E+00 -0.19561479257E+02  0.19561479257E+02  0.00000000000E+00 0.  1.
         25    1    1    2    0    0  0.00000000000E+00  0.00000000000E+00  0.18012945150E+03  0.21925241002E+03  0.12500000000E+03 0.  0.
<mgrwt>
<rscale>  0 0.12500000E+03</rscale>
<asrwt>0</asrwt>
<pdfrwt beam="1">  1       21 0.30721680E-01 0.12500000E+03</pdfrwt>
<pdfrwt beam="2">  1       21 0.30094585E-02 0.12500000E+03</pdfrwt>
<totfact> 0.62899032E+06</totfact>
</mgrwt>
</event>
<event>
 3    1  0.1602107E-001  0.1250000E+03  0.7546771E-02  0.1235069E+00
         21   -1    0    0  502  501  0.00000000000E+00  0.00000000000E+00  0.51723340151E+03  0.51723340151E+03  0.00000000000E+00 0. -1.
         21   -1    0    0  501  502 -0.00000000000E+00 -0.00000000000E+00 -0.75521998165E+01  0.75521998165E+01  0.00000000000E+00 0. -1.
         25    1    1    2    0    0  0.00000000000E+00  0.00000000000E+00  0.50968120170E+03  0.52478560133E+03  0.12500000000E+03 0.  0.
<mgrwt>
<rscale>  0 0.12500000E+03</rscale>
<asrwt>0</asrwt>
<pdfrwt beam="1">  1       21 0.79574342E-01 0.12500000E+03</pdfrwt>
<pdfrwt beam="2">  1       21 0.11618773E-02 0.12500000E+03</pdfrwt>
<totfact> 0.40731030E+06</totfact>
</mgrwt>
</event>
<event>
 3    1  0.1602107E-001  0.1250000E+03  0.7546771E-02  0.1235069E+00
         21   -1    0    0  502  501  0.00000000000E+00  0.00000000000E+00  0.41446138733E+02  0.41446138733E+02  0.00000000000E+00 0. -1.
         21   -1    0    0  501  502 -0.00000000000E+00 -0.00000000000E+00 -0.94248827984E+02  0.94248827984E+02  0.00000000000E+00 0. -1.
         25    1    1    2    0    0  0.00000000000E+00  0.00000000000E+00 -0.52802689251E+02  0.13569496672E+03  0.12500000000E+03 0.  0.
<mgrwt>
<rscale>  0 0.12500000E+03</rscale>
<asrwt>0</asrwt>
<pdfrwt beam="1">  1       21 0.63763291E-02 0.12500000E+03</pdfrwt>
<pdfrwt beam="2">  1       21 0.14499820E-01 0.12500000E+03</pdfrwt>
<totfact> 0.72604585E+06</totfact>
</mgrwt>
</event>
<event>
 3    1  0.1602107E-001  0.1250000E+03  0.7546771E-02  0.1235069E+00
         21   -1    0    0  502  501  0.00000000000E+00  0.00000000000E+00  0.15752986725E+03  0.15752986725E+03  0.00000000000E+00 0. -1.
         21   -1    0    0  501  502 -0.00000000000E+00 -0.00000000000E+00 -0.24796884986E+02  0.24796884986E+02  0.00000000000E+00 0. -1.
         25    1    1    2    0    0  0.00000000000E+00  0.00000000000E+00  0.13273298226E+03  0.18232675223E+03  0.12500000000E+03 0.  0.
<mgrwt>
<rscale>  0 0.12500000E+03</rscale>
<asrwt>0</asrwt>
<pdfrwt beam="1">  1       21 0.24235364E-01 0.12500000E+03</pdfrwt>
<pdfrwt beam="2">  1       21 0.38149055E-02 0.12500000E+03</pdfrwt>
<totfact> 0.66885617E+06</totfact>
</mgrwt>
</event>
<event>
 3    1  0.1602107E-001  0.1250000E+03  0.7546771E-02  0.1235069E+00
         21   -1    0    0  502  501  0.00000000000E+00  0.00000000000E+00  0.82844201667E+01  0.82844201667E+01  0.00000000000E+00 0.  1.
         21   -1    0    0  501  502 -0.00000000000E+00 -0.00000000000E+00 -0.47151761034E+03  0.47151761034E+03  0.00000000000E+00 0.  1.
         25    1    1    2    0    0  0.00000000000E+00  0.00000000000E+00 -0.46323319017E+03  0.47980203050E+03  0.12500000000E+03 0.  0.
<mgrwt>
<rscale>  0 0.12500000E+03</rscale>
<asrwt>0</asrwt>
<pdfrwt beam="1">  1       21 0.12745258E-02 0.12500000E+03</pdfrwt>
<pdfrwt beam="2">  1       21 0.72541195E-01 0.12500000E+03</pdfrwt>
<totfact> 0.43161060E+06</totfact>
</mgrwt>
</event>
<event>
 3    1  0.1602107E-001  0.1250000E+03  0.7546771E-02  0.1235069E+00
         21   -1    0    0  502  501  0.00000000000E+00  0.00000000000E+00  0.53858406606E+03  0.53858406606E+03  0.00000000000E+00 0. -1.
         21   -1    0    0  501  502 -0.00000000000E+00 -0.00000000000E+00 -0.72528138989E+01  0.72528138989E+01  0.00000000000E+00 0. -1.
         25    1    1    2    0    0  0.00000000000E+00  0.00000000000E+00  0.53133125216E+03  0.54583687995E+03  0.12500000000E+03 0.  0.
<mgrwt>
<rscale>  0 0.12500000E+03</rscale>
<asrwt>0</asrwt>
<pdfrwt beam="1">  1       21 0.82859056E-01 0.12500000E+03</pdfrwt>
<pdfrwt beam="2">  1       21 0.11158179E-02 0.12500000E+03</pdfrwt>
<totfact> 0.39662565E+06</totfact>
</mgrwt>
</event>
<event>
 3    1  0.1602107E-001  0.1250000E+03  0.7546771E-02  0.1235069E+00
         21   -1    0    0  502  501  0.00000000000E+00  0.00000000000E+00  0.88780888392E+01  0.88780888392E+01  0.00000000000E+00 0. -1.
         21   -1    0    0  501  502 -0.00000000000E+00 -0.00000000000E+00 -0.43998771253E+03  0.43998771253E+03  0.00000000000E+00 0. -1.
         25    1    1    2    0    0  0.00000000000E+00  0.00000000000E+00 -0.43110962369E+03  0.44886580137E+03  0.12500000000E+03 0.  0.
<mgrwt>
<rscale>  0 0.12500000E+03</rscale>
<asrwt>0</asrwt>
<pdfrwt beam="1">  1       21 0.13658603E-02 0.12500000E+03</pdfrwt>
<pdfrwt beam="2">  1       21 0.67690391E-01 0.12500000E+03</pdfrwt>
<totfact> 0.44960224E+06</totfact>
</mgrwt>
</event>
<event>
 3    1  0.1602107E-001  0.1250000E+03  0.7546771E-02  0.1235069E+00
         21   -1    0    0  502  501  0.00000000000E+00  0.00000000000E+00  0.57046611580E+01  0.57046611580E+01  0.00000000000E+00 0.  1.
         21   -1    0    0  501  502 -0.00000000000E+00 -0.00000000000E+00 -0.68474706767E+03  0.68474706767E+03  0.00000000000E+00 0.  1.
         25    1    1    2    0    0  0.00000000000E+00  0.00000000000E+00 -0.67904240651E+03  0.69045172883E+03  0.12500000000E+03 0.  0.
<mgrwt>
<rscale>  0 0.12500000E+03</rscale>
<asrwt>0</asrwt>
<pdfrwt beam="1">  1       21 0.87764047E-03 0.12500000E+03</pdfrwt>
<pdfrwt beam="2">  1       21 0.10534567E+00 0.12500000E+03</pdfrwt>
<totfact> 0.33281529E+06</totfact>
</mgrwt>
</event>
<event>
 3    1  0.1602107E-001  0.1250000E+03  0.7546771E-02  0.1235069E+00
         21   -1    0    0  502  501  0.00000000000E+00  0.00000000000E+00  0.16137779215E+02  0.16137779215E+02  0.00000000000E+00 0.  1.
         21   -1    0    0  501  502 -0.00000000000E+00 -0.00000000000E+00 -0.24205623016E+03  0.24205623016E+03  0.00000000000E+00 0.  1.
         25    1    1    2    0    0  0.00000000000E+00  0.00000000000E+00 -0.22591845095E+03  0.25819400938E+03  0.12500000000E+03 0.  0.
<mgrwt>
<rscale>  0 0.12500000E+03</rscale>
<asrwt>0</asrwt>
<pdfrwt beam="1">  1       21 0.24827354E-02 0.12500000E+03</pdfrwt>
<pdfrwt beam="2">  1       21 0.37239419E-01 0.12500000E+03</pdfrwt>
<totfact> 0.59115199E+06</totfact>
</mgrwt>
</event>
<event>
 3    1  0.1602107E-001  0.1250000E+03  0.7546771E-02  0.1235069E+00
         21   -1    0    0  502  501  0.00000000000E+00  0.00000000000E+00  0.26959948292E+02  0.26959948292E+02  0.00000000000E+00 0.  1.
         21   -1    0    0  501  502 -0.00000000000E+00 -0.00000000000E+00 -0.14489085653E+03  0.14489085653E+03  0.00000000000E+00 0.  1.
         25    1    1    2    0    0  0.00000000000E+00  0.00000000000E+00 -0.11793090824E+03  0.17185080482E+03  0.12500000000E+03 0.  0.
<mgrwt>
<rscale>  0 0.12500000E+03</rscale>
<asrwt>0</asrwt>
<pdfrwt beam="1">  1       21 0.41476843E-02 0.12500000E+03</pdfrwt>
<pdfrwt beam="2">  1       21 0.22290901E-01 0.12500000E+03</pdfrwt>
<totfact> 0.68098907E+06</totfact>
</mgrwt>
</event>
<event>
 3    1  0.1602107E-001  0.1250000E+03  0.7546771E-02  0.1235069E+00
         21   -1    0    0  502  501  0.00000000000E+00  0.00000000000E+00  0.10537922526E+02  0.10537922526E+02  0.00000000000E+00 0.  1.
         21   -1    0    0  501  502 -0.00000000000E+00 -0.00000000000E+00 -0.37068501787E+03  0.37068501787E+03  0.00000000000E+00 0.  1.
         25    1    1    2    0    0  0.00000000000E+00  0.00000000000E+00 -0.36014709534E+03  0.38122294039E+03  0.12500000000E+03 0.  0.
<mgrwt>
<rscale>  0 0.12500000E+03</rscale>
<asrwt>0</asrwt>
<pdfrwt beam="1">  1       21 0.16212189E-02 0.12500000E+03</pdfrwt>
<pdfrwt beam="2">  1       21 0.57028464E-01 0.12500000E+03</pdfrwt>
<totfact> 0.49312012E+06</totfact>
</mgrwt>
</event>
<event>
 3    1  0.1602107E-001  0.1250000E+03  0.7546771E-02  0.1235069E+00
         21   -1    0    0  502  501  0.00000000000E+00  0.00000000000E+00  0.45760154989E+02  0.45760154989E+02  0.00000000000E+00 0. -1.
         21   -1    0    0  501  502 -0.00000000000E+00 -0.00000000000E+00 -0.85363565769E+02  0.85363565769E+02  0.00000000000E+00 0. -1.
         25    1    1    2    0    0  0.00000000000E+00  0.00000000000E+00 -0.39603410780E+02  0.13112372076E+03  0.12500000000E+03 0.  0.
<mgrwt>
<rscale>  0 0.12500000E+03</rscale>
<asrwt>0</asrwt>
<pdfrwt beam="1">  1       21 0.70400239E-02 0.12500000E+03</pdfrwt>
<pdfrwt beam="2">  1       21 0.13132856E-01 0.12500000E+03</pdfrwt>
<totfact> 0.73214004E+06</totfact>
</mgrwt>
</event>
<event>
 3    1  0.1602107E-001  0.1250000E+03  0.7546771E-02  0.1235069E+00
         21   -1    0    0  502  501  0.00000000000E+00  0.00000000000E+00  0.23123900814E+03  0.23123900814E+03  0.00000000000E+00 0. -1.
         21   -1    0    0  501  502 -0.00000000000E+00 -0.00000000000E+00 -0.16892694841E+02  0.16892694841E+02  0.00000000000E+00 0. -1.
         25    1    1    2    0    0  0.00000000000E+00  0.00000000000E+00  0.21434631330E+03  0.24813170299E+03  0.12500000000E+03 0.  0.
<mgrwt>
<rscale>  0 0.12500000E+03</rscale>
<asrwt>0</asrwt>
<pdfrwt beam="1">  1       21 0.35575230E-01 0.12500000E+03</pdfrwt>
<pdfrwt beam="2">  1       21 0.25988763E-02 0.12500000E+03</pdfrwt>
<totfact> 0.60054535E+06</totfact>
</mgrwt>
</event>
<event>
 3    1  0.1602107E-001  0.1250000E+03  0.7546771E-02  0.1235069E+00
         21   -1    0    0  502  501  0.00000000000E+00  0.00000000000E+00  0.13612675433E+04  0.13612675433E+04  0.00000000000E+00 0. -1.
         21   -1    0    0  501  502 -0.00000000000E+00 -0.00000000000E+00 -0.28695681603E+01  0.28695681603E+01  0.00000000000E+00 0. -1.
         25    1    1    2    0    0  0.00000000000E+00  0.00000000000E+00  0.13583979752E+04  0.13641371115E+04  0.12500000000E+03 0.  0.
<mgrwt>
<rscale>  0 0.12500000E+03</rscale>
<asrwt>0</asrwt>
<pdfrwt beam="1">  1       21 0.20942526E+00 0.12500000E+03</pdfrwt>
<pdfrwt beam="2">  1       21 0.44147311E-03 0.12500000E+03</pdfrwt>
<totfact> 0.16138669E+06</totfact>
</mgrwt>
</event>
<event>
 3    1  0.1602107E-001  0.1250000E+03  0.7546771E-02  0.1235069E+00
         21   -1    0    0  502  501  0.00000000000E+00  0.00000000000E+00  0.55827153127E+03  0.55827153127E+03  0.00000000000E+00 0.  1.
         21   -1    0    0  501  502 -0.00000000000E+00 -0.00000000000E+00 -0.69970431613E+01  0.69970431613E+01  0.00000000000E+00 0.  1.
         25    1    1    2    0    0  0.00000000000E+00  0.00000000000E+00  0.55127448811E+03  0.56526857443E+03  0.12500000000E+03 0.  0.
<mgrwt>
<rscale>  0 0.12500000E+03</rscale>
<asrwt>0</asrwt>
<pdfrwt beam="1">  1       21 0.85887893E-01 0.12500000E+03</pdfrwt>
<pdfrwt beam="2">  1       21 0.10764686E-02 0.12500000E+03</pdfrwt>
<totfact> 0.38711959E+06</totfact>
</mgrwt>
</event>
<event>
 3    1  0.1602107E-001  0.1250000E+03  0.7546771E-02  0.1235069E+00
         21   -1    0    0  502  501  0.00000000000E+00  0.00000000000E+00  0.26968126995E+02  0.26968126995E+02  0.00000000000E+00 0. -1.
         21   -1    0    0  501  502 -0.00000000000E+00 -0.00000000000E+00 -0.14484691505E+03  0.14484691505E+03  0.00000000000E+00 0. -1.
         25    1    1    2    0    0  0.00000000000E+00  0.00000000000E+00 -0.11787878806E+03  0.17181504205E+03  0.12500000000E+03 0.  0.
<mgrwt>
<rscale>  0 0.12500000E+03</rscale>
<asrwt>0</asrwt>
<pdfrwt beam="1">  1       21 0.41489426E-02 0.12500000E+03</pdfrwt>
<pdfrwt beam="2">  1       21 0.22284141E-01 0.12500000E+03</pdfrwt>
<totfact> 0.68103122E+06</totfact>
</mgrwt>
</event>
<event>
 3    1  0.1602107E-001  0.1250000E+03  0.7546771E-02  0.1235069E+00
         21   -1    0    0  502  501  0.00000000000E+00  0.00000000000E+00  0.30596888199E+02  0.30596888199E+02  0.00000000000E+00 0. -1.
         21   -1    0    0  501  502 -0.00000000000E+00 -0.00000000000E+00 -0.12766821170E+03  0.12766821170E+03  0.00000000000E+00 0. -1.
         25    1    1    2    0    0  0.00000000000E+00  0.00000000000E+00 -0.97071323501E+02  0.15826509990E+03  0.12500000000E+03 0.  0.
<mgrwt>
<rscale>  0 0.12500000E+03</rscale>
<asrwt>0</asrwt>
<pdfrwt beam="1">  1       21 0.47072136E-02 0.12500000E+03</pdfrwt>
<pdfrwt beam="2">  1       21 0.19641263E-01 0.12500000E+03</pdfrwt>
<totfact> 0.69732106E+06</totfact>
</mgrwt>
</event>
<event>
 3    1  0.1602107E-001  0.1250000E+03  0.7546771E-02  0.1235069E+00
         21   -1    0    0  502  501  0.00000000000E+00  0.00000000000E+00  0.46370035651E+01  0.46370035651E+01  0.00000000000E+00 0.  1.
         21   -1    0    0  501  502 -0.00000000000E+00 -0.00000000000E+00 -0.84240823738E+03  0.84240823738E+03  0.00000000000E+00 0.  1.
         25    1    1    2    0    0  0.00000000000E+00  0.00000000000E+00 -0.83777123381E+03  0.84704524094E+03  0.12500000000E+03 0.  0.
<mgrwt>
<rscale>  0 0.12500000E+03</rscale>
<asrwt>0</asrwt>
<pdfrwt beam="1">  1       21 0.71338495E-03 0.12500000E+03</pdfrwt>
<pdfrwt beam="2">  1       21 0.12960131E+00 0.12500000E+03</pdfrwt>
<totfact> 0.27862193E+06</totfact>
</mgrwt>
</event>
<event>
 3    1  0.1602107E-001  0.1250000E+03  0.7546771E-02  0.1235069E+00
         21   -1    0    0  502  501  0.00000000000E+00  0.00000000000E+00  0.52913249924E+03  0.52913249924E+03  0.00000000000E+00 0. -1.
         21   -1    0    0  501  502 -0.00000000000E+00 -0.00000000000E+00 -0.73823664311E+01  0.73823664311E+01  0.00000000000E+00 0. -1.
         25    1    1    2    0    0  0.00000000000E+00  0.00000000000E+00  0.52175013281E+03  0.53651486567E+03  0.12500000000E+03 0.  0.
<mgrwt>
<rscale>  0 0.12500000E+03</rscale>
<asrwt>0</asrwt>
<pdfrwt beam="1">  1       21 0.81404970E-01 0.12500000E+03</pdfrwt>
<pdfrwt beam="2">  1       21 0.11357491E-02 0.12500000E+03</pdfrwt>
<totfact> 0.40130596E+06</totfact>
</mgrwt>
</event>
<event>
 3    1  0.1602107E-001  0.1250000E+03  0.7546771E-02  0.1235069E+00
         21   -1    0    0  502  501  0.00000000000E+00  0.00000000000E+00  0.24310448146E+01  0.24310448146E+01  0.00000000000E+00 0.  1.
         21   -1    0    0  501  502 -0.00000000000E+00 -0.00000000000E+00 -0.16068194122E+04  0.16068194122E+04  0.00000000000E+00 0.  1.
         25    1    1    2    0    0  0.00000000000E+00  0.00000000000E+00 -0.16043883674E+04  0.16092504570E+04  0.12500000000E+03 0.  0.
<mgrwt>
<rscale>  0 0.12500000E+03</rscale>
<asrwt>0</asrwt>
<pdfrwt beam="1">  1       21 0.37400650E-03 0.12500000E+03</pdfrwt>
<pdfrwt beam="2">  1       21 0.24720325E+00 0.12500000E+03</pdfrwt>
<totfact> 0.12448591E+06</totfact>
</mgrwt>
</event>
<event>
 3    1  0.1602107E-001  0.1250000E+03  0.7546771E-02  0.1235069E+00
         21   -1    0    0  502  501  0.00000000000E+00  0.00000000000E+00  0.74610749307E+02  0.74610749307E+02  0.00000000000E+00 0.  1.
         21   -1    0    0  501  502 -0.00000000000E+00 -0.00000000000E+00 -0.52355056561E+02  0.52355056561E+02  0.00000000000E+00 0.  1.
         25    1    1    2    0    0  0.00000000000E+00  0.00000000000E+00  0.22255692747E+02  0.12696580587E+03  0.12500000000E+03 0.  0.
<mgrwt>
<rscale>  0 0.12500000E+03</rscale>
<asrwt>0</asrwt>
<pdfrwt beam="1">  1       21 0.11478577E-01 0.12500000E+03</pdfrwt>
<pdfrwt beam="2">  1       21 0.80546241E-02 0.12500000E+03</pdfrwt>
<totfact> 0.73773792E+06</totfact>
</mgrwt>
</event>
<event>
 3    1  0.1602107E-001  0.1250000E+03  0.7546771E-02  0.1235069E+00
         21   -1    0    0  502  501  0.00000000000E+00  0.00000000000E+00  0.87781467017E+02  0.87781467017E+02  0.00000000000E+00 0.  1.
         21   -1    0    0  501  502 -0.00000000000E+00 -0.00000000000E+00 -0.44499711986E+02  0.44499711986E+02  0.00000000000E+00 0.  1.
         25    1    1    2    0    0  0.00000000000E+00  0.00000000000E+00  0.43281755031E+02  0.13228117900E+03  0.12500000000E+03 0.  0.
<mgrwt>
<rscale>  0 0.12500000E+03</rscale>
<asrwt>0</asrwt>
<pdfrwt beam="1">  1       21 0.13504841E-01 0.12500000E+03</pdfrwt>
<pdfrwt beam="2">  1       21 0.68461095E-02 0.12500000E+03</pdfrwt>
<totfact> 0.73058538E+06</totfact>
</mgrwt>
</event>
<event>
 3    1  0.1602107E-001  0.1250000E+03  0.7546771E-02  0.1235069E+00
         21   -1    0    0  502  501  0.00000000000E+00  0.00000000000E+00  0.16315700134E+04  0.16315700134E+04  0.00000000000E+00 0.  1.
         21   -1    0    0  501  502 -0.00000000000E+00 -0.00000000000E+00 -0.23941663354E+01  0.23941663354E+01  0.00000000000E+00 0.  1.
         25    1    1    2    0    0  0.00000000000E+00  0.00000000000E+00  0.16291758471E+04  0.16339641797E+04  0.12500000000E+03 0.  0.
<mgrwt>
<rscale>  0 0.12500000E+03</rscale>
<asrwt>0</asrwt>
<pdfrwt beam="1">  1       21 0.25100988E+00 0.12500000E+03</pdfrwt>
<pdfrwt beam="2">  1       21 0.36833459E-03 0.12500000E+03</pdfrwt>
<totfact> 0.12118493E+06</totfact>
</mgrwt>
</event>
<event>
 3    1  0.1602107E-001  0.1250000E+03  0.7546771E-02  0.1235069E+00
         21   -1    0    0  502  501  0.00000000000E+00  0.00000000000E+00  0.69333490177E+03  0.69333490177E+03  0.00000000000E+00 0. -1.
         21   -1    0    0  501  502 -0.00000000000E+00 -0.00000000000E+00 -0.56340016780E+01  0.56340016780E+01  0.00000000000E+00 0. -1.
         25    1    1    2    0    0  0.00000000000E+00  0.00000000000E+00  0.68770090010E+03  0.69896890345E+03  0.12500000000E+03 0.  0.
<mgrwt>
<rscale>  0 0.12500000E+03</rscale>
<asrwt>0</asrwt>
<pdfrwt beam="1">  1       21 0.10666684E+00 0.12500000E+03</pdfrwt>
<pdfrwt beam="2">  1       21 0.86677004E-03 0.12500000E+03</pdfrwt>
<totfact> 0.32949946E+06</totfact>
</mgrwt>
</event>
<event>
 3    1  0.1602107E-001  0.1250000E+03  0.7546771E-02  0.1235069E+00
         21   -1    0    0  502  501  0.00000000000E+00  0.00000000000E+00  0.21461626286E+02  0.21461626286E+02  0.00000000000E+00 0.  1.
         21   -1    0    0  501  502 -0.00000000000E+00 -0.00000000000E+00 -0.18201090392E+03  0.18201090392E+03  0.00000000000E+00 0.  1.
         25    1    1    2    0    0  0.00000000000E+00  0.00000000000E+00 -0.16054927764E+03  0.20347253021E+03  0.12500000000E+03 0.  0.
<mgrwt>
<rscale>  0 0.12500000E+03</rscale>
<asrwt>0</asrwt>
<pdfrwt beam="1">  1       21 0.33017887E-02 0.12500000E+03</pdfrwt>
<pdfrwt beam="2">  1       21 0.28001677E-01 0.12500000E+03</pdfrwt>
<totfact> 0.64552912E+06</totfact>
</mgrwt>
</event>
<event>
 3    1  0.1602107E-001  0.1250000E+03  0.7546771E-02  0.1235069E+00
         21   -1    0    0  502  501  0.00000000000E+00  0.00000000000E+00  0.87095576945E+02  0.87095576945E+02  0.00000000000E+00 0.  1.
         21   -1    0    0  501  502 -0.00000000000E+00 -0.00000000000E+00 -0.44850153555E+02  0.44850153555E+02  0.00000000000E+00 0.  1.
         25    1    1    2    0    0  0.00000000000E+00  0.00000000000E+00  0.42245423390E+02  0.13194573050E+03  0.12500000000E+03 0.  0.
<mgrwt>
<rscale>  0 0.12500000E+03</rscale>
<asrwt>0</asrwt>
<pdfrwt beam="1">  1       21 0.13399319E-01 0.12500000E+03</pdfrwt>
<pdfrwt beam="2">  1       21 0.69000236E-02 0.12500000E+03</pdfrwt>
<totfact> 0.73103509E+06</totfact>
</mgrwt>
</event>
<event>
 3    1  0.1602107E-001  0.1250000E+03  0.7546771E-02  0.1235069E+00
         21   -1    0    0  502  501  0.00000000000E+00  0.00000000000E+00  0.15450965258E+03  0.15450965258E+03  0.00000000000E+00 0.  1.
         21   -1    0    0  501  502 -0.00000000000E+00 -0.00000000000E+00 -0.25281592023E+02  0.25281592023E+02  0.00000000000E+00 0.  1.
         25    1    1    2    0    0  0.00000000000E+00  0.00000000000E+00  0.12922806055E+03  0.17979124460E+03  0.12500000000E+03 0.  0.
<mgrwt>
<rscale>  0 0.12500000E+03</rscale>
<asrwt>0</asrwt>
<pdfrwt beam="1">  1       21 0.23770715E-01 0.12500000E+03</pdfrwt>
<pdfrwt beam="2">  1       21 0.38894758E-02 0.12500000E+03</pdfrwt>
<totfact> 0.67175492E+06</totfact>
</mgrwt>
</event>
<event>
 3    1  0.1602107E-001  0.1250000E+03  0.7546771E-02  0.1235069E+00
         21   -1    0    0  502  501  0.00000000000E+00  0.00000000000E+00  0.12336049246E+04  0.12336049246E+04  0.00000000000E+00 0. -1.
         21   -1    0    0  501  502 -0.00000000000E+00 -0.00000000000E+00 -0.31665324304E+01  0.31665324304E+01  0.00000000000E+00 0. -1.
         25    1    1    2    0    0  0.00000000000E+00  0.00000000000E+00  0.12304383922E+04  0.12367714570E+04  0.12500000000E+03 0.  0.
<mgrwt>
<rscale>  0 0.12500000E+03</rscale>
<asrwt>0</asrwt>
<pdfrwt beam="1">  1       21 0.18978499E+00 0.12500000E+03</pdfrwt>
<pdfrwt beam="2">  1       21 0.48715982E-03 0.12500000E+03</pdfrwt>
<totfact> 0.18425715E+06</totfact>
</mgrwt>
</event>
<event>
 3    1  0.1602107E-001  0.1250000E+03  0.7546771E-02  0.1235069E+00
         21   -1    0    0  502  501  0.00000000000E+00  0.00000000000E+00  0.45039390950E+01  0.45039390950E+01  0.00000000000E+00 0.  1.
         21   -1    0    0  501  502 -0.00000000000E+00 -0.00000000000E+00 -0.86729636384E+03  0.86729636384E+03  0.00000000000E+00 0.  1.
         25    1    1    2    0    0  0.00000000000E+00  0.00000000000E+00 -0.86279242474E+03  0.87180030293E+03  0.12500000000E+03 0.  0.
<mgrwt>
<rscale>  0 0.12500000E+03</rscale>
<asrwt>0</asrwt>
<pdfrwt beam="1">  1       21 0.69291391E-03 0.12500000E+03</pdfrwt>
<pdfrwt beam="2">  1       21 0.13343017E+00 0.12500000E+03</pdfrwt>
<totfact> 0.27117121E+06</totfact>
</mgrwt>
</event>
<event>
 3    1  0.1602107E-001  0.1250000E+03  0.7546771E-02  0.1235069E+00
         21   -1    0    0  502  501  0.00000000000E+00  0.00000000000E+00  0.36924999741E+01  0.36924999741E+01  0.00000000000E+00 0. -1.
         21   -1    0    0  501  502 -0.00000000000E+00 -0.00000000000E+00 -0.10578876175E+04  0.10578876175E+04  0.00000000000E+00 0. -1.
         25    1    1    2    0    0  0.00000000000E+00  0.00000000000E+00 -0.10541951175E+04  0.10615801174E+04  0.12500000000E+03 0.  0.
<mgrwt>
<rscale>  0 0.12500000E+03</rscale>
<asrwt>0</asrwt>
<pdfrwt beam="1">  1       21 0.56807662E-03 0.12500000E+03</pdfrwt>
<pdfrwt beam="2">  1       21 0.16275203E+00 0.12500000E+03</pdfrwt>
<totfact> 0.22126707E+06</totfact>
</mgrwt>
</event>
<event>
 3    1  0.1602107E-001  0.1250000E+03  0.7546771E-02  0.1235069E+00
         21   -1    0    0  502  501  0.00000000000E+00  0.00000000000E+00  0.22694229872E+03  0.22694229872E+03  0.00000000000E+00 0.  1.
         21   -1    0    0  501  502 -0.00000000000E+00 -0.00000000000E+00 -0.17212525043E+02  0.17212525043E+02  0.00000000000E+00 0.  1.
         25    1    1    2    0    0  0.00000000000E+00  0.00000000000E+00  0.20972977367E+03  0.24415482376E+03  0.12500000000E+03 0.  0.
<mgrwt>
<rscale>  0 0.12500000E+03</rscale>
<asrwt>0</asrwt>
<pdfrwt beam="1">  1       21 0.34914198E-01 0.12500000E+03</pdfrwt>
<pdfrwt beam="2">  1       21 0.26480809E-02 0.12500000E+03</pdfrwt>
<totfact> 0.60432912E+06</totfact>
</mgrwt>
</event>
<event>
 3    1  0.1602107E-001  0.1250000E+03  0.7546771E-02  0.1235069E+00
         21   -1    0    0  502  501  0.00000000000E+00  0.00000000000E+00  0.14296998067E+03  0.14296998067E+03  0.00000000000E+00 0.  1.
         21   -1    0    0  501  502 -0.00000000000E+00 -0.00000000000E+00 -0.27322169183E+02  0.27322169183E+02  0.00000000000E+00 0.  1.
         25    1    1    2    0    0  0.00000000000E+00  0.00000000000E+00  0.11564781149E+03  0.17029214986E+03  0.12500000000E+03 0.  0.
<mgrwt>
<rscale>  0 0.12500000E+03</rscale>
<asrwt>0</asrwt>
<pdfrwt beam="1">  1       21 0.21995381E-01 0.12500000E+03</pdfrwt>
<pdfrwt beam="2">  1       21 0.42034107E-02 0.12500000E+03</pdfrwt>
<totfact> 0.68283020E+06</totfact>
</mgrwt>
</event>
<event>
 3    1  0.1602107E-001  0.1250000E+03  0.7546771E-02  0.1235069E+00
         21   -1    0    0  502  501  0.00000000000E+00  0.00000000000E+00  0.63068633168E+03  0.63068633168E+03  0.00000000000E+00 0. -1.
         21   -1    0    0  501  502 -0.00000000000E+00 -0.00000000000E+00 -0.61936493686E+01  0.61936493686E+01  0.00000000000E+00 0. -1.
         25    1    1    2    0    0  0.00000000000E+00  0.00000000000E+00  0.62449268231E+03  0.63687998105E+03  0.12500000000E+03 0.  0.
<mgrwt>
<rscale>  0 0.12500000E+03</rscale>
<asrwt>0</asrwt>
<pdfrwt beam="1">  1       21 0.97028616E-01 0.12500000E+03</pdfrwt>
<pdfrwt beam="2">  1       21 0.95286963E-03 0.12500000E+03</pdfrwt>
<totfact> 0.35476155E+06</totfact>
</mgrwt>
</event>
<event>
 3    1  0.1602107E-001  0.1250000E+03  0.7546771E-02  0.1235069E+00
         21   -1    0    0  502  501  0.00000000000E+00  0.00000000000E+00  0.17744496572E+02  0.17744496572E+02  0.00000000000E+00 0.  1.
         21   -1    0    0  501  502 -0.00000000000E+00 -0.00000000000E+00 -0.22013867703E+03  0.22013867703E+03  0.00000000000E+00 0.  1.
         25    1    1    2    0    0  0.00000000000E+00  0.00000000000E+00 -0.20239418046E+03  0.23788317360E+03  0.12500000000E+03 0.  0.
<mgrwt>
<rscale>  0 0.12500000E+03</rscale>
<asrwt>0</asrwt>
<pdfrwt beam="1">  1       21 0.27299224E-02 0.12500000E+03</pdfrwt>
<pdfrwt beam="2">  1       21 0.33867491E-01 0.12500000E+03</pdfrwt>
<totfact> 0.61038105E+06</totfact>
</mgrwt>
</event>
<event>
 3    1  0.1602107E-001  0.1250000E+03  0.7546771E-02  0.1235069E+00
         21   -1    0    0  502  501  0.00000000000E+00  0.00000000000E+00  0.65155649903E+03  0.65155649903E+03  0.00000000000E+00 0.  1.
         21   -1    0    0  501  502 -0.00000000000E+00 -0.00000000000E+00 -0.59952590540E+01  0.59952590540E+01  0.00000000000E+00 0.  1.
         25    1    1    2    0    0  0.00000000000E+00  0.00000000000E+00  0.64556123997E+03  0.65755175808E+03  0.12500000000E+03 0.  0.
<mgrwt>
<rscale>  0 0.12500000E+03</rscale>
<asrwt>0</asrwt>
<pdfrwt beam="1">  1       21 0.10023941E+00 0.12500000E+03</pdfrwt>
<pdfrwt beam="2">  1       21 0.92234807E-03 0.12500000E+03</pdfrwt>
<totfact> 0.34611581E+06</totfact>
</mgrwt>
</event>
<event>
 3    1  0.1602107E-001  0.1250000E+03  0.7546771E-02  0.1235069E+00
         21   -1    0    0  502  501  0.00000000000E+00  0.00000000000E+00  0.11732352820E+03  0.11732352820E+03  0.00000000000E+00 0. -1.
         21   -1    0    0  501  502 -0.00000000000E+00 -0.00000000000E+00 -0.33294685729E+02  0.33294685729E+02  0.00000000000E+00 0. -1.
         25    1    1    2    0    0  0.00000000000E+00  0.00000000000E+00  0.84028842468E+02  0.15061821393E+03  0.12500000000E+03 0.  0.
<mgrwt>
<rscale>  0 0.12500000E+03</rscale>
<asrwt>0</asrwt>
<pdfrwt beam="1">  1       21 0.18049773E-01 0.12500000E+03</pdfrwt>
<pdfrwt beam="2">  1       21 0.51222594E-02 0.12500000E+03</pdfrwt>
<totfact> 0.70681629E+06</totfact>
</mgrwt>
</event>
<event>
 3    1  0.1602107E-001  0.1250000E+03  0.7546771E-02  0.1235069E+00
         21   -1    0    0  502  501  0.00000000000E+00  0.00000000000E+00  0.10403416888E+03  0.10403416888E+03  0.00000000000E+00 0.  1.
         21   -1    0    0  501  502 -0.00000000000E+00 -0.00000000000E+00 -0.37547759953E+02  0.37547759953E+02  0.00000000000E+00 0.  1.
         25    1    1    2    0    0  0.00000000000E+00  0.00000000000E+00  0.66486408928E+02  0.14158192883E+03  0.12500000000E+03 0.  0.
<mgrwt>
<rscale>  0 0.12500000E+03</rscale>
<asrwt>0</asrwt>
<pdfrwt beam="1">  1       21 0.16005257E-01 0.12500000E+03</pdfrwt>
<pdfrwt beam="2">  1       21 0.57765785E-02 0.12500000E+03</pdfrwt>
<totfact> 0.71833458E+06</totfact>
</mgrwt>
</event>
<event>
 3    1  0.1602107E-001  0.1250000E+03  0.7546771E-02  0.1235069E+00
         21   -1    0    0  502  501  0.00000000000E+00  0.00000000000E+00  0.89297382577E+02  0.89297382577E+02  0.00000000000E+00 0.  1.
         21   -1    0    0  501  502 -0.00000000000E+00 -0.00000000000E+00 -0.43744283284E+02  0.43744283284E+02  0.00000000000E+00 0.  1.
         25    1    1    2    0    0  0.00000000000E+00  0.00000000000E+00  0.45553099292E+02  0.13304166586E+03  0.12500000000E+03 0.  0.
<mgrwt>
<rscale>  0 0.12500000E+03</rscale>
<asrwt>0</asrwt>
<pdfrwt beam="1">  1       21 0.13738059E-01 0.12500000E+03</pdfrwt>
<pdfrwt beam="2">  1       21 0.67298897E-02 0.12500000E+03</pdfrwt>
<totfact> 0.72956835E+06</totfact>
</mgrwt>
</event>
<event>
 3    1  0.1602107E-001  0.1250000E+03  0.7546771E-02  0.1235069E+00
         21   -1    0    0  502  501  0.00000000000E+00  0.00000000000E+00  0.20817178311E+03  0.20817178311E+03  0.00000000000E+00 0.  1.
         21   -1    0    0  501  502 -0.00000000000E+00 -0.00000000000E+00 -0.18764550804E+02  0.18764550804E+02  0.00000000000E+00 0.  1.
         25    1    1    2    0    0  0.00000000000E+00  0.00000000000E+00  0.18940723231E+03  0.22693633391E+03  0.12500000000E+03 0.  0.
<mgrwt>
<rscale>  0 0.12500000E+03</rscale>
<asrwt>0</asrwt>
<pdfrwt beam="1">  1       21 0.32026427E-01 0.12500000E+03</pdfrwt>
<pdfrwt beam="2">  1       21 0.28868541E-02 0.12500000E+03</pdfrwt>
<totfact> 0.62120196E+06</totfact>
</mgrwt>
</event>
<event>
 3    1  0.1602107E-001  0.1250000E+03  0.7546771E-02  0.1235069E+00
         21   -1    0    0  502  501  0.00000000000E+00  0.00000000000E+00  0.52729989946E+02  0.52729989946E+02  0.00000000000E+00 0.  1.
         21   -1    0    0  501  502 -0.00000000000E+00 -0.00000000000E+00 -0.74080234113E+02  0.74080234113E+02  0.00000000000E+00 0.  1.
         25    1    1    2    0    0  0.00000000000E+00  0.00000000000E+00 -0.21350244167E+02  0.12681022406E+03  0.12500000000E+03 0.  0.
<mgrwt>
<rscale>  0 0.12500000E+03</rscale>
<asrwt>0</asrwt>
<pdfrwt beam="1">  1       21 0.81123061E-02 0.12500000E+03</pdfrwt>
<pdfrwt beam="2">  1       21 0.11396959E-01 0.12500000E+03</pdfrwt>
<totfact> 0.73794994E+06</totfact>
</mgrwt>
</event>
<event>
 3    1  0.1602107E-001  0.1250000E+03  0.7546771E-02  0.1235069E+00
         21   -1    0    0  502  501  0.00000000000E+00  0.00000000000E+00  0.15679563468E+04  0.15679563468E+04  0.00000000000E+00 0. -1.
         21   -1    0    0  501  502 -0.00000000000E+00 -0.00000000000E+00 -0.24913002253E+01  0.24913002253E+01  0.00000000000E+00 0. -1.
         25    1    1    2    0    0  0.00000000000E+00  0.00000000000E+00  0.15654650466E+04  0.15704476470E+04  0.12500000000E+03 0.  0.
<mgrwt>
<rscale>  0 0.12500000E+03</rscale>
<asrwt>0</asrwt>
<pdfrwt beam="1">  1       21 0.24122326E+00 0.12500000E+03</pdfrwt>
<pdfrwt beam="2">  1       21 0.38327821E-03 0.12500000E+03</pdfrwt>
<totfact> 0.12980092E+06</totfact>
</mgrwt>
</event>
<event>
 3    1  0.1602107E-001  0.1250000E+03  0.7546771E-02  0.1235069E+00
         21   -1    0    0  502  501  0.00000000000E+00  0.00000000000E+00  0.53350175784E+03  0.53350175784E+03  0.00000000000E+00 0. -1.
         21   -1    0    0  501  502 -0.00000000000E+00 -0.00000000000E+00 -0.73219065216E+01  0.73219065216E+01  0.00000000000E+00 0. -1.
         25    1    1    2    0    0  0.00000000000E+00  0.00000000000E+00  0.52617985132E+03  0.54082366436E+03  0.12500000000E+03 0.  0.
<mgrwt>
<rscale>  0 0.12500000E+03</rscale>
<asrwt>0</asrwt>
<pdfrwt beam="1">  1       21 0.82077163E-01 0.12500000E+03</pdfrwt>
<pdfrwt beam="2">  1       21 0.11264476E-02 0.12500000E+03</pdfrwt>
<totfact> 0.39913270E+06</totfact>
</mgrwt>
</event>
<event>
 3    1  0.1602107E-001  0.1250000E+03  0.7546771E-02  0.1235069E+00
         21   -1    0    0  502  501  0.00000000000E+00  0.00000000000E+00  0.55872620719E+02  0.55872620719E+02  0.00000000000E+00 0. -1.
         21   -1    0    0  501  502 -0.00000000000E+00 -0.00000000000E+00 -0.69913491613E+02  0.69913491613E+02  0.00000000000E+00 0. -1.
         25    1    1    2    0    0  0.00000000000E+00  0.00000000000E+00 -0.14040870894E+02  0.12578611233E+03  0.12500000000E+03 0.  0.
<mgrwt>
<rscale>  0 0.12500000E+03</rscale>
<asrwt>0</asrwt>
<pdfrwt beam="1">  1       21 0.85957879E-02 0.12500000E+03</pdfrwt>
<pdfrwt beam="2">  1       21 0.10755922E-01 0.12500000E+03</pdfrwt>
<totfact> 0.73935595E+06</totfact>
</mgrwt>
</event>
<event>
 3    1  0.1602107E-001  0.1250000E+03  0.7546771E-02  0.1235069E+00
         21   -1    0    0  502  501  0.00000000000E+00  0.00000000000E+00  0.21438929179E+02  0.21438929179E+02  0.00000000000E+00 0. -1.
         21   -1    0    0  501  502 -0.00000000000E+00 -0.00000000000E+00 -0.18220359643E+03  0.18220359643E+03  0.00000000000E+00 0. -1.
         25    1    1    2    0    0  0.00000000000E+00  0.00000000000E+00 -0.16076466725E+03  0.20364252561E+03  0.12500000000E+03 0.  0.
<mgrwt>
<rscale>  0 0.12500000E+03</rscale>
<asrwt>0</asrwt>
<pdfrwt beam="1">  1       21 0.32982968E-02 0.12500000E+03</pdfrwt>
<pdfrwt beam="2">  1       21 0.28031323E-01 0.12500000E+03</pdfrwt>
<totfact> 0.64534684E+06</totfact>
</mgrwt>
</event>
<event>
 3    1  0.1602107E-001  0.1250000E+03  0.7546771E-02  0.1235069E+00
         21   -1    0    0  502  501  0.00000000000E+00  0.00000000000E+00  0.40978813588E+02  0.40978813588E+02  0.00000000000E+00 0.  1.
         21   -1    0    0  501  502 -0.00000000000E+00 -0.00000000000E+00 -0.95323647952E+02  0.95323647952E+02  0.00000000000E+00 0.  1.
         25    1    1    2    0    0  0.00000000000E+00  0.00000000000E+00 -0.54344834364E+02  0.13630246154E+03  0.12500000000E+03 0.  0.
<mgrwt>
<rscale>  0 0.12500000E+03</rscale>
<asrwt>0</asrwt>
<pdfrwt beam="1">  1       21 0.63044329E-02 0.12500000E+03</pdfrwt>
<pdfrwt beam="2">  1       21 0.14665177E-01 0.12500000E+03</pdfrwt>
<totfact> 0.72524474E+06</totfact>
</mgrwt>
</event>
<event>
 3    1  0.1602107E-001  0.1250000E+03  0.7546771E-02  0.1235069E+00
         21   -1    0    0  502  501  0.00000000000E+00  0.00000000000E+00  0.10018408104E+03  0.10018408104E+03  0.00000000000E+00 0.  1.
         21   -1    0    0  501  502 -0.00000000000E+00 -0.00000000000E+00 -0.38990725466E+02  0.38990725466E+02  0.00000000000E+00 0.  1.
         25    1    1    2    0    0  0.00000000000E+00  0.00000000000E+00  0.61193355578E+02  0.13917480651E+03  0.12500000000E+03 0.  0.
<mgrwt>
<rscale>  0 0.12500000E+03</rscale>
<asrwt>0</asrwt>
<pdfrwt beam="1">  1       21 0.15412935E-01 0.12500000E+03</pdfrwt>
<pdfrwt beam="2">  1       21 0.59985732E-02 0.12500000E+03</pdfrwt>
<totfact> 0.72147219E+06</totfact>
</mgrwt>
</event>
<event>
 3    1  0.1602107E-001  0.1250000E+03  0.7546771E-02  0.1235069E+00
         21   -1    0    0  502  501  0.00000000000E+00  0.00000000000E+00  0.10680803351E+02  0.10680803351E+02  0.00000000000E+00 0. -1.
         21   -1    0    0  501  502 -0.00000000000E+00 -0.00000000000E+00 -0.36572623533E+03  0.36572623533E+03  0.00000000000E+00 0. -1.
         25    1    1    2    0    0  0.00000000000E+00  0.00000000000E+00 -0.35504543198E+03  0.37640703868E+03  0.12500000000E+03 0.  0.
<mgrwt>
<rscale>  0 0.12500000E+03</rscale>
<asrwt>0</asrwt>
<pdfrwt beam="1">  1       21 0.16432007E-02 0.12500000E+03</pdfrwt>
<pdfrwt beam="2">  1       21 0.56265568E-01 0.12500000E+03</pdfrwt>
<totfact> 0.49645397E+06</totfact>
</mgrwt>
</event>
<event>
 3    1  0.1602107E-001  0.1250000E+03  0.7546771E-02  0.1235069E+00
         21   -1    0    0  502  501  0.00000000000E+00  0.00000000000E+00  0.15584192446E+03  0.15584192446E+03  0.00000000000E+00 0.  1.
         21   -1    0    0  501  502 -0.00000000000E+00 -0.00000000000E+00 -0.25065463055E+02  0.25065463055E+02  0.00000000000E+00 0.  1.
         25    1    1    2    0    0  0.00000000000E+00  0.00000000000E+00  0.13077646141E+03  0.18090738752E+03  0.12500000000E+03 0.  0.
<mgrwt>
<rscale>  0 0.12500000E+03</rscale>
<asrwt>0</asrwt>
<pdfrwt beam="1">  1       21 0.23975680E-01 0.12500000E+03</pdfrwt>
<pdfrwt beam="2">  1       21 0.38562252E-02 0.12500000E+03</pdfrwt>
<totfact> 0.67047596E+06</totfact>
</mgrwt>
</event>
<event>
 3    1  0.1602107E-001  0.1250000E+03  0.7546771E-02  0.1235069E+00
         21   -1    0    0  502  501  0.00000000000E+00  0.00000000000E+00  0.16245167368E+02  0.16245167368E+02  0.00000000000E+00 0.  1.
         21   -1    0    0  501  502 -0.00000000000E+00 -0.00000000000E+00 -0.24045612529E+03  0.24045612529E+03  0.00000000000E+00 0.  1.
         25    1    1    2    0    0  0.00000000000E+00  0.00000000000E+00 -0.22421095793E+03  0.25670129266E+03  0.12500000000E+03 0.  0.
<mgrwt>
<rscale>  0 0.12500000E+03</rscale>
<asrwt>0</asrwt>
<pdfrwt beam="1">  1       21 0.24992566E-02 0.12500000E+03</pdfrwt>
<pdfrwt beam="2">  1       21 0.36993248E-01 0.12500000E+03</pdfrwt>
<totfact> 0.59252948E+06</totfact>
</mgrwt>
</event>
<event>
 3    1  0.1602107E-001  0.1250000E+03  0.7546771E-02  0.1235069E+00
         21   -1    0    0  502  501  0.00000000000E+00  0.00000000000E+00  0.73374245543E+03  0.73374245543E+03  0.00000000000E+00 0. -1.
         21   -1    0    0  501  502 -0.00000000000E+00 -0.00000000000E+00 -0.53237344672E+01  0.53237344672E+01  0.00000000000E+00 0. -1.
         25    1    1    2    0    0  0.00000000000E+00  0.00000000000E+00  0.72841872096E+03  0.73906618990E+03  0.12500000000E+03 0.  0.
<mgrwt>
<rscale>  0 0.12500000E+03</rscale>
<asrwt>0</asrwt>
<pdfrwt beam="1">  1       21 0.11288337E+00 0.12500000E+03</pdfrwt>
<pdfrwt beam="2">  1       21 0.81903665E-03 0.12500000E+03</pdfrwt>
<totfact> 0.31457225E+06</totfact>
</mgrwt>
</event>
<event>
 3    1  0.1602107E-001  0.1250000E+03  0.7546771E-02  0.1235069E+00
         21   -1    0    0  502  501  0.00000000000E+00  0.00000000000E+00  0.12486999642E+02  0.12486999642E+02  0.00000000000E+00 0. -1.
         21   -1    0    0  501  502 -0.00000000000E+00 -0.00000000000E+00 -0.31282534732E+03  0.31282534732E+03  0.00000000000E+00 0. -1.
         25    1    1    2    0    0  0.00000000000E+00  0.00000000000E+00 -0.30033834768E+03  0.32531234696E+03  0.12500000000E+03 0.  0.
<mgrwt>
<rscale>  0 0.12500000E+03</rscale>
<asrwt>0</asrwt>
<pdfrwt beam="1">  1       21 0.19210770E-02 0.12500000E+03</pdfrwt>
<pdfrwt beam="2">  1       21 0.48126974E-01 0.12500000E+03</pdfrwt>
<totfact> 0.53415034E+06</totfact>
</mgrwt>
</event>
<event>
 3    1  0.1602107E-001  0.1250000E+03  0.7546771E-02  0.1235069E+00
         21   -1    0    0  502  501  0.00000000000E+00  0.00000000000E+00  0.26179336751E+03  0.26179336751E+03  0.00000000000E+00 0. -1.
         21   -1    0    0  501  502 -0.00000000000E+00 -0.00000000000E+00 -0.14921119038E+02  0.14921119038E+02  0.00000000000E+00 0. -1.
         25    1    1    2    0    0  0.00000000000E+00  0.00000000000E+00  0.24687224847E+03  0.27671448655E+03  0.12500000000E+03 0.  0.
<mgrwt>
<rscale>  0 0.12500000E+03</rscale>
<asrwt>0</asrwt>
<pdfrwt beam="1">  1       21 0.40275899E-01 0.12500000E+03</pdfrwt>
<pdfrwt beam="2">  1       21 0.22955570E-02 0.12500000E+03</pdfrwt>
<totfact> 0.57448564E+06</totfact>
</mgrwt>
</event>
<event>
 3    1  0.1602107E-001  0.1250000E+03  0.7546771E-02  0.1235069E+00
         21   -1    0    0  502  501  0.00000000000E+00  0.00000000000E+00  0.30999504975E+02  0.30999504975E+02  0.00000000000E+00 0. -1.
         21   -1    0    0  501  502 -0.00000000000E+00 -0.00000000000E+00 -0.12601007671E+03  0.12601007671E+03  0.00000000000E+00 0. -1.
         25    1    1    2    0    0  0.00000000000E+00  0.00000000000E+00 -0.95010571739E+02  0.15700958169E+03  0.12500000000E+03 0.  0.
<mgrwt>
<rscale>  0 0.12500000E+03</rscale>
<asrwt>0</asrwt>
<pdfrwt beam="1">  1       21 0.47691546E-02 0.12500000E+03</pdfrwt>
<pdfrwt beam="2">  1       21 0.19386166E-01 0.12500000E+03</pdfrwt>
<totfact> 0.69886751E+06</totfact>
</mgrwt>
</event>
<event>
 3    1  0.1602107E-001  0.1250000E+03  0.7546771E-02  0.1235069E+00
         21   -1    0    0  502  501  0.00000000000E+00  0.00000000000E+00  0.11249529524E+03  0.11249529524E+03  0.00000000000E+00 0. -1.
         21   -1    0    0  501  502 -0.00000000000E+00 -0.00000000000E+00 -0.34723674370E+02  0.34723674370E+02  0.00000000000E+00 0. -1.
         25    1    1    2    0    0  0.00000000000E+00  0.00000000000E+00  0.77771620869E+02  0.14721896961E+03  0.12500000000E+03 0.  0.
<mgrwt>
<rscale>  0 0.12500000E+03</rscale>
<asrwt>0</asrwt>
<pdfrwt beam="1">  1       21 0.17306968E-01 0.12500000E+03</pdfrwt>
<pdfrwt beam="2">  1       21 0.53421038E-02 0.12500000E+03</pdfrwt>
<totfact> 0.71110322E+06</totfact>
</mgrwt>
</event>
<event>
 3    1  0.1602107E-001  0.1250000E+03  0.7546771E-02  0.1235069E+00
         21   -1    0    0  502  501  0.00000000000E+00  0.00000000000E+00  0.31578379599E+02  0.31578379599E+02  0.00000000000E+00 0. -1.
         21   -1    0    0  501  502 -0.00000000000E+00 -0.00000000000E+00 -0.12370014072E+03  0.12370014072E+03  0.00000000000E+00 0. -1.
         25    1    1    2    0    0  0.00000000000E+00  0.00000000000E+00 -0.92121761118E+02  0.15527852032E+03  0.12500000000E+03 0.  0.
<mgrwt>
<rscale>  0 0.12500000E+03</rscale>
<asrwt>0</asrwt>
<pdfrwt beam="1">  1       21 0.48582123E-02 0.12500000E+03</pdfrwt>
<pdfrwt beam="2">  1       21 0.19030791E-01 0.12500000E+03</pdfrwt>
<totfact> 0.70101059E+06</totfact>
</mgrwt>
</event>
<event>
 3    1  0.1602107E-001  0.1250000E+03  0.7546771E-02  0.1235069E+00
         21   -1    0    0  502  501  0.00000000000E+00  0.00000000000E+00  0.41568944713E+02  0.41568944713E+02  0.00000000000E+00 0. -1.
         21   -1    0    0  501  502 -0.00000000000E+00 -0.00000000000E+00 -0.93970391285E+02  0.93970391285E+02  0.00000000000E+00 0. -1.
         25    1    1    2    0    0  0.00000000000E+00  0.00000000000E+00 -0.52401446572E+02  0.13553933600E+03  0.12500000000E+03 0.  0.
<mgrwt>
<rscale>  0 0.12500000E+03</rscale>
<asrwt>0</asrwt>
<pdfrwt beam="1">  1       21 0.63952224E-02 0.12500000E+03</pdfrwt>
<pdfrwt beam="2">  1       21 0.14456983E-01 0.12500000E+03</pdfrwt>
<totfact> 0.72625139E+06</totfact>
</mgrwt>
</event>
<event>
 3    1  0.1602107E-001  0.1250000E+03  0.7546771E-02  0.1235069E+00
         21   -1    0    0  502  501  0.00000000000E+00  0.00000000000E+00  0.13094435171E+03  0.13094435171E+03  0.00000000000E+00 0. -1.
         21   -1    0    0  501  502 -0.00000000000E+00 -0.00000000000E+00 -0.29831374541E+02  0.29831374541E+02  0.00000000000E+00 0. -1.
         25    1    1    2    0    0  0.00000000000E+00  0.00000000000E+00  0.10111297717E+03  0.16077572626E+03  0.12500000000E+03 0.  0.
<mgrwt>
<rscale>  0 0.12500000E+03</rscale>
<asrwt>0</asrwt>
<pdfrwt beam="1">  1       21 0.20145285E-01 0.12500000E+03</pdfrwt>
<pdfrwt beam="2">  1       21 0.45894423E-02 0.12500000E+03</pdfrwt>
<totfact> 0.69424835E+06</totfact>
</mgrwt>
</event>
<event>
 3    1  0.1602107E-001  0.1250000E+03  0.7546771E-02  0.1235069E+00
         21   -1    0    0  502  501  0.00000000000E+00  0.00000000000E+00  0.32854776897E+02  0.32854776897E+02  0.00000000000E+00 0.  1.
         21   -1    0    0  501  502 -0.00000000000E+00 -0.00000000000E+00 -0.11889443085E+03  0.11889443085E+03  0.00000000000E+00 0.  1.
         25    1    1    2    0    0  0.00000000000E+00  0.00000000000E+00 -0.86039653957E+02  0.15174920775E+03  0.12500000000E+03 0.  0.
<mgrwt>
<rscale>  0 0.12500000E+03</rscale>
<asrwt>0</asrwt>
<pdfrwt beam="1">  1       21 0.50545811E-02 0.12500000E+03</pdfrwt>
<pdfrwt beam="2">  1       21 0.18291451E-01 0.12500000E+03</pdfrwt>
<totfact> 0.70540155E+06</totfact>
</mgrwt>
</event>
<event>
 3    1  0.1602107E-001  0.1250000E+03  0.7546771E-02  0.1235069E+00
         21   -1    0    0  502  501  0.00000000000E+00  0.00000000000E+00  0.85205201745E+01  0.85205201745E+01  0.00000000000E+00 0. -1.
         21   -1    0    0  501  502 -0.00000000000E+00 -0.00000000000E+00 -0.45845205692E+03  0.45845205692E+03  0.00000000000E+00 0. -1.
         25    1    1    2    0    0  0.00000000000E+00  0.00000000000E+00 -0.44993153674E+03  0.46697257709E+03  0.12500000000E+03 0.  0.
<mgrwt>
<rscale>  0 0.12500000E+03</rscale>
<asrwt>0</asrwt>
<pdfrwt beam="1">  1       21 0.13108491E-02 0.12500000E+03</pdfrwt>
<pdfrwt beam="2">  1       21 0.70531094E-01 0.12500000E+03</pdfrwt>
<totfact> 0.43893780E+06</totfact>
</mgrwt>
</event>
<event>
 3    1  0.1602107E-001  0.1250000E+03  0.7546771E-02  0.1235069E+00
         21   -1    0    0  502  501  0.00000000000E+00  0.00000000000E+00  0.37538928724E+03  0.37538928724E+03  0.00000000000E+00 0. -1.
         21   -1    0    0  501  502 -0.00000000000E+00 -0.00000000000E+00 -0.10405864346E+02  0.10405864346E+02  0.00000000000E+00 0. -1.
         25    1    1    2    0    0  0.00000000000E+00  0.00000000000E+00  0.36498342289E+03  0.38579515158E+03  0.12500000000E+03 0.  0.
<mgrwt>
<rscale>  0 0.12500000E+03</rscale>
<asrwt>0</asrwt>
<pdfrwt beam="1">  1       21 0.57752188E-01 0.12500000E+03</pdfrwt>
<pdfrwt beam="2">  1       21 0.16009025E-02 0.12500000E+03</pdfrwt>
<totfact> 0.48998042E+06</totfact>
</mgrwt>
</event>
<event>
 3    1  0.1602107E-001  0.1250000E+03  0.7546771E-02  0.1235069E+00
         21   -1    0    0  502  501  0.00000000000E+00  0.00000000000E+00  0.47893708250E+02  0.47893708250E+02  0.00000000000E+00 0. -1.
         21   -1    0    0  501  502 -0.00000000000E+00 -0.00000000000E+00 -0.81560817542E+02  0.81560817542E+02  0.00000000000E+00 0. -1.
         25    1    1    2    0    0  0.00000000000E+00  0.00000000000E+00 -0.33667109292E+02  0.12945452579E+03  0.12500000000E+03 0.  0.
<mgrwt>
<rscale>  0 0.12500000E+03</rscale>
<asrwt>0</asrwt>
<pdfrwt beam="1">  1       21 0.73682629E-02 0.12500000E+03</pdfrwt>
<pdfrwt beam="2">  1       21 0.12547818E-01 0.12500000E+03</pdfrwt>
<totfact> 0.73437909E+06</totfact>
</mgrwt>
</event>
<event>
 3    1  0.1602107E-001  0.1250000E+03  0.7546771E-02  0.1235069E+00
         21   -1    0    0  502  501  0.00000000000E+00  0.00000000000E+00  0.17691355407E+03  0.17691355407E+03  0.00000000000E+00 0.  1.
         21   -1    0    0  501  502 -0.00000000000E+00 -0.00000000000E+00 -0.22079992799E+02  0.22079992799E+02  0.00000000000E+00 0.  1.
         25    1    1    2    0    0  0.00000000000E+00  0.00000000000E+00  0.15483356127E+03  0.19899354687E+03  0.12500000000E+03 0.  0.
<mgrwt>
<rscale>  0 0.12500000E+03</rscale>
<asrwt>0</asrwt>
<pdfrwt beam="1">  1       21 0.27217469E-01 0.12500000E+03</pdfrwt>
<pdfrwt beam="2">  1       21 0.33969221E-02 0.12500000E+03</pdfrwt>
<totfact> 0.65036471E+06</totfact>
</mgrwt>
</event>
<event>
 3    1  0.1602107E-001  0.1250000E+03  0.7546771E-02  0.1235069E+00
         21   -1    0    0  502  501  0.00000000000E+00  0.00000000000E+00  0.24232639028E+01  0.24232639028E+01  0.00000000000E+00 0. -1.
         21   -1    0    0  501  502 -0.00000000000E+00 -0.00000000000E+00 -0.16119787843E+04  0.16119787843E+04  0.00000000000E+00 0. -1.
         25    1    1    2    0    0  0.00000000000E+00  0.00000000000E+00 -0.16095555204E+04  0.16144020482E+04  0.12500000000E+03 0.  0.
<mgrwt>
<rscale>  0 0.12500000E+03</rscale>
<asrwt>0</asrwt>
<pdfrwt beam="1">  1       21 0.37281093E-03 0.12500000E+03</pdfrwt>
<pdfrwt beam="2">  1       21 0.24799601E+00 0.12500000E+03</pdfrwt>
<totfact> 0.12379269E+06</totfact>
</mgrwt>
</event>
<event>
 3    1  0.1602107E-001  0.1250000E+03  0.7546771E-02  0.1235069E+00
         21   -1    0    0  502  501  0.00000000000E+00  0.00000000000E+00  0.65621440247E+01  0.65621440247E+01  0.00000000000E+00 0.  1.
         21   -1    0    0  501  502 -0.00000000000E+00 -0.00000000000E+00 -0.59527038500E+03  0.59527038500E+03  0.00000000000E+00 0.  1.
         25    1    1    2    0    0  0.00000000000E+00  0.00000000000E+00 -0.58870824097E+03  0.60183252902E+03  0.12500000000E+03 0.  0.
<mgrwt>
<rscale>  0 0.12500000E+03</rscale>
<asrwt>0</asrwt>
<pdfrwt beam="1">  1       21 0.10095605E-02 0.12500000E+03</pdfrwt>
<pdfrwt beam="2">  1       21 0.91580066E-01 0.12500000E+03</pdfrwt>
<totfact> 0.37009886E+06</totfact>
</mgrwt>
</event>
<event>
 3    1  0.1602107E-001  0.1250000E+03  0.7546771E-02  0.1235069E+00
         21   -1    0    0  502  501  0.00000000000E+00  0.00000000000E+00  0.10300090870E+02  0.10300090870E+02  0.00000000000E+00 0.  1.
         21   -1    0    0  501  502 -0.00000000000E+00 -0.00000000000E+00 -0.37924422698E+03  0.37924422698E+03  0.00000000000E+00 0.  1.
         25    1    1    2    0    0  0.00000000000E+00  0.00000000000E+00 -0.36894413611E+03  0.38954431785E+03  0.12500000000E+03 0.  0.
<mgrwt>
<rscale>  0 0.12500000E+03</rscale>
<asrwt>0</asrwt>
<pdfrwt beam="1">  1       21 0.15846295E-02 0.12500000E+03</pdfrwt>
<pdfrwt beam="2">  1       21 0.58345262E-01 0.12500000E+03</pdfrwt>
<totfact> 0.48742687E+06</totfact>
</mgrwt>
</event>
<event>
 3    1  0.1602107E-001  0.1250000E+03  0.7546771E-02  0.1235069E+00
         21   -1    0    0  502  501  0.00000000000E+00  0.00000000000E+00  0.33339237219E+01  0.33339237219E+01  0.00000000000E+00 0. -1.
         21   -1    0    0  501  502 -0.00000000000E+00 -0.00000000000E+00 -0.11716674783E+04  0.11716674783E+04  0.00000000000E+00 0. -1.
         25    1    1    2    0    0  0.00000000000E+00  0.00000000000E+00 -0.11683335546E+04  0.11750014020E+04  0.12500000000E+03 0.  0.
<mgrwt>
<rscale>  0 0.12500000E+03</rscale>
<asrwt>0</asrwt>
<pdfrwt beam="1">  1       21 0.51291169E-03 0.12500000E+03</pdfrwt>
<pdfrwt beam="2">  1       21 0.18025641E+00 0.12500000E+03</pdfrwt>
<totfact> 0.19648809E+06</totfact>
</mgrwt>
</event>
<event>
 3    1  0.1602107E-001  0.1250000E+03  0.7546771E-02  0.1235069E+00
         21   -1    0    0  502  501  0.00000000000E+00  0.00000000000E+00  0.64871843930E+02  0.64871843930E+02  0.00000000000E+00 0. -1.
         21   -1    0    0  501  502 -0.00000000000E+00 -0.00000000000E+00 -0.60214875412E+02  0.60214875412E+02  0.00000000000E+00 0. -1.
         25    1    1    2    0    0  0.00000000000E+00  0.00000000000E+00  0.46569685175E+01  0.12508671934E+03  0.12500000000E+03 0.  0.
<mgrwt>
<rscale>  0 0.12500000E+03</rscale>
<asrwt>0</asrwt>
<pdfrwt beam="1">  1       21 0.99802837E-02 0.12500000E+03</pdfrwt>
<pdfrwt beam="2">  1       21 0.92638270E-02 0.12500000E+03</pdfrwt>
<totfact> 0.74031869E+06</totfact>
</mgrwt>
</event>
<event>
 3    1  0.1602107E-001  0.1250000E+03  0.7546771E-02  0.1235069E+00
         21   -1    0    0  502  501  0.00000000000E+00  0.00000000000E+00  0.26724221101E+03  0.26724221101E+03  0.00000000000E+00 0.  1.
         21   -1    0    0  501  502 -0.00000000000E+00 -0.00000000000E+00 -0.14616889994E+02  0.14616889994E+02  0.00000000000E+00 0.  1.
         25    1    1    2    0    0  0.00000000000E+00  0.00000000000E+00  0.25262532102E+03  0.28185910100E+03  0.12500000000E+03 0.  0.
<mgrwt>
<rscale>  0 0.12500000E+03</rscale>
<asrwt>0</asrwt>
<pdfrwt beam="1">  1       21 0.41114183E-01 0.12500000E+03</pdfrwt>
<pdfrwt beam="2">  1       21 0.22487525E-02 0.12500000E+03</pdfrwt>
<totfact> 0.56998275E+06</totfact>
</mgrwt>
</event>
<event>
 3    1  0.1602107E-001  0.1250000E+03  0.7546771E-02  0.1235069E+00
         21   -1    0    0  502  501  0.00000000000E+00  0.00000000000E+00  0.91497362917E+02  0.91497362917E+02  0.00000000000E+00 0.  1.
         21   -1    0    0  501  502 -0.00000000000E+00 -0.00000000000E+00 -0.42692487253E+02  0.42692487253E+02  0.00000000000E+00 0.  1.
         25    1    1    2    0    0  0.00000000000E+00  0.00000000000E+00  0.48804875664E+02  0.13418985017E+03  0.12500000000E+03 0.  0.
<mgrwt>
<rscale>  0 0.12500000E+03</rscale>
<asrwt>0</asrwt>
<pdfrwt beam="1">  1       21 0.14076517E-01 0.12500000E+03</pdfrwt>
<pdfrwt beam="2">  1       21 0.65680750E-02 0.12500000E+03</pdfrwt>
<totfact> 0.72803921E+06</totfact>
</mgrwt>
</event>
<event>
 3    1  0.1602107E-001  0.1250000E+03  0.7546771E-02  0.1235069E+00
         21   -1    0    0  502  501  0.00000000000E+00  0.00000000000E+00  0.40655497568E+02  0.40655497568E+02  0.00000000000E+00 0.  1.
         21   -1    0    0  501  502 -0.00000000000E+00 -0.00000000000E+00 -0.96081716708E+02  0.96081716708E+02  0.00000000000E+00 0.  1.
         25    1    1    2    0    0  0.00000000000E+00  0.00000000000E+00 -0.55426219140E+02  0.13673721428E+03  0.12500000000E+03 0.  0.
<mgrwt>
<rscale>  0 0.12500000E+03</rscale>
<asrwt>0</asrwt>
<pdfrwt beam="1">  1       21 0.62546919E-02 0.12500000E+03</pdfrwt>
<pdfrwt beam="2">  1       21 0.14781803E-01 0.12500000E+03</pdfrwt>
<totfact> 0.72467261E+06</totfact>
</mgrwt>
</event>
<event>
 3    1  0.1602107E-001  0.1250000E+03  0.7546771E-02  0.1235069E+00
         21   -1    0    0  502  501  0.00000000000E+00  0.00000000000E+00  0.54911125678E+02  0.54911125678E+02  0.00000000000E+00 0.  1.
         21   -1    0    0  501  502 -0.00000000000E+00 -0.00000000000E+00 -0.71137678418E+02  0.71137678418E+02  0.00000000000E+00 0.  1.
         25    1    1    2    0    0  0.00000000000E+00  0.00000000000E+00 -0.16226552740E+02  0.12604880410E+03  0.12500000000E+03 0.  0.
<mgrwt>
<rscale>  0 0.12500000E+03</rscale>
<asrwt>0</asrwt>
<pdfrwt beam="1">  1       21 0.84478655E-02 0.12500000E+03</pdfrwt>
<pdfrwt beam="2">  1       21 0.10944258E-01 0.12500000E+03</pdfrwt>
<totfact> 0.73899312E+06</totfact>
</mgrwt>
</event>
<event>
 3    1  0.1602107E-001  0.1250000E+03  0.7546771E-02  0.1235069E+00
         21   -1    0    0  502  501  0.00000000000E+00  0.00000000000E+00  0.15452949913E+03  0.15452949913E+03  0.00000000000E+00 0.  1.
         21   -1    0    0  501  502 -0.00000000000E+00 -0.00000000000E+00 -0.25278345054E+02  0.25278345054E+02  0.00000000000E+00 0.  1.
         25    1    1    2    0    0  0.00000000000E+00  0.00000000000E+00  0.12925115407E+03  0.17980784418E+03  0.12500000000E+03 0.  0.
<mgrwt>
<rscale>  0 0.12500000E+03</rscale>
<asrwt>0</asrwt>
<pdfrwt beam="1">  1       21 0.23773769E-01 0.12500000E+03</pdfrwt>
<pdfrwt beam="2">  1       21 0.38889763E-02 0.12500000E+03</pdfrwt>
<totfact> 0.67173587E+06</totfact>
</mgrwt>
</event>
<event>
 3    1  0.1602107E-001  0.1250000E+03  0.7546771E-02  0.1235069E+00
         21   -1    0    0  502  501  0.00000000000E+00  0.00000000000E+00  0.31892698908E+03  0.31892698908E+03  0.00000000000E+00 0. -1.
         21   -1    0    0  501  502 -0.00000000000E+00 -0.00000000000E+00 -0.12248101082E+02  0.12248101082E+02  0.00000000000E+00 0. -1.
         25    1    1    2    0    0  0.00000000000E+00  0.00000000000E+00  0.30667888800E+03  0.33117509017E+03  0.12500000000E+03 0.  0.
<mgrwt>
<rscale>  0 0.12500000E+03</rscale>
<asrwt>0</asrwt>
<pdfrwt beam="1">  1       21 0.49065684E-01 0.12500000E+03</pdfrwt>
<pdfrwt beam="2">  1       21 0.18843235E-02 0.12500000E+03</pdfrwt>
<totfact> 0.52959490E+06</totfact>
</mgrwt>
</event>
<event>
 3    1  0.1602107E-001  0.1250000E+03  0.7546771E-02  0.1235069E+00
         21   -1    0    0  502  501  0.00000000000E+00  0.00000000000E+00  0.46489019121E+02  0.46489019121E+02  0.00000000000E+00 0. -1.
         21   -1    0    0  501  502 -0.00000000000E+00 -0.00000000000E+00 -0.84025218726E+02  0.84025218726E+02  0.00000000000E+00 0. -1.
         25    1    1    2    0    0  0.00000000000E+00  0.00000000000E+00 -0.37536199605E+02  0.13051423785E+03  0.12500000000E+03 0.  0.
<mgrwt>
<rscale>  0 0.12500000E+03</rscale>
<asrwt>0</asrwt>
<pdfrwt beam="1">  1       21 0.71521569E-02 0.12500000E+03</pdfrwt>
<pdfrwt beam="2">  1       21 0.12926957E-01 0.12500000E+03</pdfrwt>
<totfact> 0.73296208E+06</totfact>
</mgrwt>
</event>
<event>
 3    1  0.1602107E-001  0.1250000E+03  0.7546771E-02  0.1235069E+00
         21   -1    0    0  502  501  0.00000000000E+00  0.00000000000E+00  0.77644223901E+02  0.77644223901E+02  0.00000000000E+00 0. -1.
         21   -1    0    0  501  502 -0.00000000000E+00 -0.00000000000E+00 -0.50309601974E+02  0.50309601974E+02  0.00000000000E+00 0. -1.
         25    1    1    2    0    0  0.00000000000E+00  0.00000000000E+00  0.27334621927E+02  0.12795382587E+03  0.12500000000E+03 0.  0.
<mgrwt>
<rscale>  0 0.12500000E+03</rscale>
<asrwt>0</asrwt>
<pdfrwt beam="1">  1       21 0.11945265E-01 0.12500000E+03</pdfrwt>
<pdfrwt beam="2">  1       21 0.77399388E-02 0.12500000E+03</pdfrwt>
<totfact> 0.73639798E+06</totfact>
</mgrwt>
</event>
<event>
 3    1  0.1602107E-001  0.1250000E+03  0.7546771E-02  0.1235069E+00
         21   -1    0    0  502  501  0.00000000000E+00  0.00000000000E+00  0.14483491103E+04  0.14483491103E+04  0.00000000000E+00 0.  1.
         21   -1    0    0  501  502 -0.00000000000E+00 -0.00000000000E+00 -0.26970362134E+01  0.26970362134E+01  0.00000000000E+00 0.  1.
         25    1    1    2    0    0  0.00000000000E+00  0.00000000000E+00  0.14456520741E+04  0.14510461465E+04  0.12500000000E+03 0.  0.
<mgrwt>
<rscale>  0 0.12500000E+03</rscale>
<asrwt>0</asrwt>
<pdfrwt beam="1">  1       21 0.22282232E+00 0.12500000E+03</pdfrwt>
<pdfrwt beam="2">  1       21 0.41492980E-03 0.12500000E+03</pdfrwt>
<totfact> 0.14734519E+06</totfact>
</mgrwt>
</event>
<event>
 3    1  0.1602107E-001  0.1250000E+03  0.7546771E-02  0.1235069E+00
         21   -1    0    0  502  501  0.00000000000E+00  0.00000000000E+00  0.44274604897E+02  0.44274604897E+02  0.00000000000E+00 0.  1.
         21   -1    0    0  501  502 -0.00000000000E+00 -0.00000000000E+00 -0.88227777731E+02  0.88227777731E+02  0.00000000000E+00 0.  1.
         25    1    1    2    0    0  0.00000000000E+00  0.00000000000E+00 -0.43953172834E+02  0.13250238263E+03  0.12500000000E+03 0.  0.
<mgrwt>
<rscale>  0 0.12500000E+03</rscale>
<asrwt>0</asrwt>
<pdfrwt beam="1">  1       21 0.68114778E-02 0.12500000E+03</pdfrwt>
<pdfrwt beam="2">  1       21 0.13573504E-01 0.12500000E+03</pdfrwt>
<totfact> 0.73028920E+06</totfact>
</mgrwt>
</event>
<event>
 3    1  0.1602107E-001  0.1250000E+03  0.7546771E-02  0.1235069E+00
         21   -1    0    0  502  501  0.00000000000E+00  0.00000000000E+00  0.76962239122E+01  0.76962239122E+01  0.00000000000E+00 0. -1.
         21   -1    0    0  501  502 -0.00000000000E+00 -0.00000000000E+00 -0.50755409985E+03  0.50755409985E+03  0.00000000000E+00 0. -1.
         25    1    1    2    0    0  0.00000000000E+00  0.00000000000E+00 -0.49985787594E+03  0.51525032376E+03  0.12500000000E+03 0.  0.
<mgrwt>
<rscale>  0 0.12500000E+03</rscale>
<asrwt>0</asrwt>
<pdfrwt beam="1">  1       21 0.11840347E-02 0.12500000E+03</pdfrwt>
<pdfrwt beam="2">  1       21 0.78085229E-01 0.12500000E+03</pdfrwt>
<totfact> 0.41228912E+06</totfact>
</mgrwt>
</event>
<event>
 3    1  0.1602107E-001  0.1250000E+03  0.7546771E-02  0.1235069E+00
         21   -1    0    0  502  501  0.00000000000E+00  0.00000000000E+00  0.33866379961E+03  0.33866379961E+03  0.00000000000E+00 0. -1.
         21   -1    0    0  501  502 -0.00000000000E+00 -0.00000000000E+00 -0.11534300402E+02  0.11534300402E+02  0.00000000000E+00 0. -1.
         25    1    1    2    0    0  0.00000000000E+00  0.00000000000E+00  0.32712949921E+03  0.35019810001E+03  0.12500000000E+03 0.  0.
<mgrwt>
<rscale>  0 0.12500000E+03</rscale>
<asrwt>0</asrwt>
<pdfrwt beam="1">  1       21 0.52102115E-01 0.12500000E+03</pdfrwt>
<pdfrwt beam="2">  1       21 0.17745080E-02 0.12500000E+03</pdfrwt>
<totfact> 0.51523808E+06</totfact>
</mgrwt>
</event>
<event>
 3    1  0.1602107E-001  0.1250000E+03  0.7546771E-02  0.1235069E+00
         21   -1    0    0  502  501  0.00000000000E+00  0.00000000000E+00  0.10214097046E+02  0.10214097046E+02  0.00000000000E+00 0.  1.
         21   -1    0    0  501  502 -0.00000000000E+00 -0.00000000000E+00 -0.38243713394E+03  0.38243713394E+03  0.00000000000E+00 0.  1.
         25    1    1    2    0    0  0.00000000000E+00  0.00000000000E+00 -0.37222303690E+03  0.39265123099E+03  0.12500000000E+03 0.  0.
<mgrwt>
<rscale>  0 0.12500000E+03</rscale>
<asrwt>0</asrwt>
<pdfrwt beam="1">  1       21 0.15713996E-02 0.12500000E+03</pdfrwt>
<pdfrwt beam="2">  1       21 0.58836482E-01 0.12500000E+03</pdfrwt>
<totfact> 0.48532637E+06</totfact>
</mgrwt>
</event>
<event>
 3    1  0.1602107E-001  0.1250000E+03  0.7546771E-02  0.1235069E+00
         21   -1    0    0  502  501  0.00000000000E+00  0.00000000000E+00  0.13396350607E+02  0.13396350607E+02  0.00000000000E+00 0.  1.
         21   -1    0    0  501  502 -0.00000000000E+00 -0.00000000000E+00 -0.29159060661E+03  0.29159060661E+03  0.00000000000E+00 0.  1.
         25    1    1    2    0    0  0.00000000000E+00  0.00000000000E+00 -0.27819425600E+03  0.30498695722E+03  0.12500000000E+03 0.  0.
<mgrwt>
<rscale>  0 0.12500000E+03</rscale>
<asrwt>0</asrwt>
<pdfrwt beam="1">  1       21 0.20609772E-02 0.12500000E+03</pdfrwt>
<pdfrwt beam="2">  1       21 0.44860088E-01 0.12500000E+03</pdfrwt>
<totfact> 0.55044270E+06</totfact>
</mgrwt>
</event>
<event>
 3    1  0.1602107E-001  0.1250000E+03  0.7546771E-02  0.1235069E+00
         21   -1    0    0  502  501  0.00000000000E+00  0.00000000000E+00  0.29863810246E+03  0.29863810246E+03  0.00000000000E+00 0. -1.
         21   -1    0    0  501  502 -0.00000000000E+00 -0.00000000000E+00 -0.13080213033E+02  0.13080213033E+02  0.00000000000E+00 0. -1.
         25    1    1    2    0    0  0.00000000000E+00  0.00000000000E+00  0.28555788943E+03  0.31171831550E+03  0.12500000000E+03 0.  0.
<mgrwt>
<rscale>  0 0.12500000E+03</rscale>
<asrwt>0</asrwt>
<pdfrwt beam="1">  1       21 0.45944318E-01 0.12500000E+03</pdfrwt>
<pdfrwt beam="2">  1       21 0.20123407E-02 0.12500000E+03</pdfrwt>
<totfact> 0.54496182E+06</totfact>
</mgrwt>
</event>
<event>
 3    1  0.1602107E-001  0.1250000E+03  0.7546771E-02  0.1235069E+00
         21   -1    0    0  502  501  0.00000000000E+00  0.00000000000E+00  0.16849995092E+03  0.16849995092E+03  0.00000000000E+00 0.  1.
         21   -1    0    0  501  502 -0.00000000000E+00 -0.00000000000E+00 -0.23182499334E+02  0.23182499334E+02  0.00000000000E+00 0.  1.
         25    1    1    2    0    0  0.00000000000E+00  0.00000000000E+00  0.14531745159E+03  0.19168245026E+03  0.12500000000E+03 0.  0.
<mgrwt>
<rscale>  0 0.12500000E+03</rscale>
<asrwt>0</asrwt>
<pdfrwt beam="1">  1       21 0.25923069E-01 0.12500000E+03</pdfrwt>
<pdfrwt beam="2">  1       21 0.35665385E-02 0.12500000E+03</pdfrwt>
<totfact> 0.65835962E+06</totfact>
</mgrwt>
</event>
<event>
 3    1  0.1602107E-001  0.1250000E+03  0.7546771E-02  0.1235069E+00
         21   -1    0    0  502  501  0.00000000000E+00  0.00000000000E+00  0.34577445902E+03  0.34577445902E+03  0.00000000000E+00 0. -1.
         21   -1    0    0  501  502 -0.00000000000E+00 -0.00000000000E+00 -0.11297103930E+02  0.11297103930E+02  0.00000000000E+00 0. -1.
         25    1    1    2    0    0  0.00000000000E+00  0.00000000000E+00  0.33447735509E+03  0.35707156295E+03  0.12500000000E+03 0.  0.
<mgrwt>
<rscale>  0 0.12500000E+03</rscale>
<asrwt>0</asrwt>
<pdfrwt beam="1">  1       21 0.53196063E-01 0.12500000E+03</pdfrwt>
<pdfrwt beam="2">  1       21 0.17380163E-02 0.12500000E+03</pdfrwt>
<totfact> 0.51020384E+06</totfact>
</mgrwt>
</event>
<event>
 3    1  0.1602107E-001  0.1250000E+03  0.7546771E-02  0.1235069E+00
         21   -1    0    0  502  501  0.00000000000E+00  0.00000000000E+00  0.40074379516E+03  0.40074379516E+03  0.00000000000E+00 0. -1.
         21   -1    0    0  501  502 -0.00000000000E+00 -0.00000000000E+00 -0.97474996424E+01  0.97474996424E+01  0.00000000000E+00 0. -1.
         25    1    1    2    0    0  0.00000000000E+00  0.00000000000E+00  0.39099629551E+03  0.41049129480E+03  0.12500000000E+03 0.  0.
<mgrwt>
<rscale>  0 0.12500000E+03</rscale>
<asrwt>0</asrwt>
<pdfrwt beam="1">  1       21 0.61652879E-01 0.12500000E+03</pdfrwt>
<pdfrwt beam="2">  1       21 0.14996156E-02 0.12500000E+03</pdfrwt>
<totfact> 0.47353177E+06</totfact>
</mgrwt>
</event>
<event>
 3    1  0.1602107E-001  0.1250000E+03  0.7546771E-02  0.1235069E+00
         21   -1    0    0  502  501  0.00000000000E+00  0.00000000000E+00  0.59193617710E+01  0.59193617710E+01  0.00000000000E+00 0. -1.
         21   -1    0    0  501  502 -0.00000000000E+00 -0.00000000000E+00 -0.65991067131E+03  0.65991067131E+03  0.00000000000E+00 0. -1.
         25    1    1    2    0    0  0.00000000000E+00  0.00000000000E+00 -0.65399130954E+03  0.66583003308E+03  0.12500000000E+03 0.  0.
<mgrwt>
<rscale>  0 0.12500000E+03</rscale>
<asrwt>0</asrwt>
<pdfrwt beam="1">  1       21 0.91067151E-03 0.12500000E+03</pdfrwt>
<pdfrwt beam="2">  1       21 0.10152467E+00 0.12500000E+03</pdfrwt>
<totfact> 0.34269548E+06</totfact>
</mgrwt>
</event>
<event>
 3    1  0.1602107E-001  0.1250000E+03  0.7546771E-02  0.1235069E+00
         21   -1    0    0  502  501  0.00000000000E+00  0.00000000000E+00  0.18973746212E+03  0.18973746212E+03  0.00000000000E+00 0. -1.
         21   -1    0    0  501  502 -0.00000000000E+00 -0.00000000000E+00 -0.20587658106E+02  0.20587658106E+02  0.00000000000E+00 0. -1.
         25    1    1    2    0    0  0.00000000000E+00  0.00000000000E+00  0.16914980401E+03  0.21032512022E+03  0.12500000000E+03 0.  0.
<mgrwt>
<rscale>  0 0.12500000E+03</rscale>
<asrwt>0</asrwt>
<pdfrwt beam="1">  1       21 0.29190378E-01 0.12500000E+03</pdfrwt>
<pdfrwt beam="2">  1       21 0.31673322E-02 0.12500000E+03</pdfrwt>
<totfact> 0.63825346E+06</totfact>
</mgrwt>
</event>
<event>
 3    1  0.1602107E-001  0.1250000E+03  0.7546771E-02  0.1235069E+00
         21   -1    0    0  502  501  0.00000000000E+00  0.00000000000E+00  0.42192907386E+02  0.42192907386E+02  0.00000000000E+00 0.  1.
         21   -1    0    0  501  502 -0.00000000000E+00 -0.00000000000E+00 -0.92580726051E+02  0.92580726051E+02  0.00000000000E+00 0.  1.
         25    1    1    2    0    0  0.00000000000E+00  0.00000000000E+00 -0.50387818665E+02  0.13477363344E+03  0.12500000000E+03 0.  0.
<mgrwt>
<rscale>  0 0.12500000E+03</rscale>
<asrwt>0</asrwt>
<pdfrwt beam="1">  1       21 0.64912166E-02 0.12500000E+03</pdfrwt>
<pdfrwt beam="2">  1       21 0.14243188E-01 0.12500000E+03</pdfrwt>
<totfact> 0.72726458E+06</totfact>
</mgrwt>
</event>
<event>
 3    1  0.1602107E-001  0.1250000E+03  0.7546771E-02  0.1235069E+00
         21   -1    0    0  502  501  0.00000000000E+00  0.00000000000E+00  0.21816921570E+02  0.21816921570E+02  0.00000000000E+00 0.  1.
         21   -1    0    0  501  502 -0.00000000000E+00 -0.00000000000E+00 -0.17904680033E+03  0.17904680033E+03  0.00000000000E+00 0.  1.
         25    1    1    2    0    0  0.00000000000E+00  0.00000000000E+00 -0.15722987876E+03  0.20086372190E+03  0.12500000000E+03 0.  0.
<mgrwt>
<rscale>  0 0.12500000E+03</rscale>
<asrwt>0</asrwt>
<pdfrwt beam="1">  1       21 0.33564495E-02 0.12500000E+03</pdfrwt>
<pdfrwt beam="2">  1       21 0.27545662E-01 0.12500000E+03</pdfrwt>
<totfact> 0.64833782E+06</totfact>
</mgrwt>
</event>
<event>
 3    1  0.1602107E-001  0.1250000E+03  0.7546771E-02  0.1235069E+00
         21   -1    0    0  502  501  0.00000000000E+00  0.00000000000E+00  0.17139051106E+02  0.17139051106E+02  0.00000000000E+00 0. -1.
         21   -1    0    0  501  502 -0.00000000000E+00 -0.00000000000E+00 -0.22791518480E+03  0.22791518480E+03  0.00000000000E+00 0. -1.
         25    1    1    2    0    0  0.00000000000E+00  0.00000000000E+00 -0.21077613369E+03  0.24505423590E+03  0.12500000000E+03 0.  0.
<mgrwt>
<rscale>  0 0.12500000E+03</rscale>
<asrwt>0</asrwt>
<pdfrwt beam="1">  1       21 0.26367770E-02 0.12500000E+03</pdfrwt>
<pdfrwt beam="2">  1       21 0.35063876E-01 0.12500000E+03</pdfrwt>
<totfact> 0.60346975E+06</totfact>
</mgrwt>
</event>
<event>
 3    1  0.1602107E-001  0.1250000E+03  0.7546771E-02  0.1235069E+00
         21   -1    0    0  502  501  0.00000000000E+00  0.00000000000E+00  0.93435864049E+02  0.93435864049E+02  0.00000000000E+00 0. -1.
         21   -1    0    0  501  502 -0.00000000000E+00 -0.00000000000E+00 -0.41806752040E+02  0.41806752040E+02  0.00000000000E+00 0. -1.
         25    1    1    2    0    0  0.00000000000E+00  0.00000000000E+00  0.51629112009E+02  0.13524261609E+03  0.12500000000E+03 0.  0.
<mgrwt>
<rscale>  0 0.12500000E+03</rscale>
<asrwt>0</asrwt>
<pdfrwt beam="1">  1       21 0.14374748E-01 0.12500000E+03</pdfrwt>
<pdfrwt beam="2">  1       21 0.64318080E-02 0.12500000E+03</pdfrwt>
<totfact> 0.72664364E+06</totfact>
</mgrwt>
</event>
<event>
 3    1  0.1602107E-001  0.1250000E+03  0.7546771E-02  0.1235069E+00
         21   -1    0    0  502  501  0.00000000000E+00  0.00000000000E+00  0.17399972154E+03  0.17399972154E+03  0.00000000000E+00 0. -1.
         21   -1    0    0  501  502 -0.00000000000E+00 -0.00000000000E+00 -0.22449748570E+02  0.22449748570E+02  0.00000000000E+00 0. -1.
         25    1    1    2    0    0  0.00000000000E+00  0.00000000000E+00  0.15154997297E+03  0.19644947012E+03  0.12500000000E+03 0.  0.
<mgrwt>
<rscale>  0 0.12500000E+03</rscale>
<asrwt>0</asrwt>
<pdfrwt beam="1">  1       21 0.26769187E-01 0.12500000E+03</pdfrwt>
<pdfrwt beam="2">  1       21 0.34538076E-02 0.12500000E+03</pdfrwt>
<totfact> 0.65312731E+06</totfact>
</mgrwt>
</event>
<event>
 3    1  0.1602107E-001  0.1250000E+03  0.7546771E-02  0.1235069E+00
         21   -1    0    0  502  501  0.00000000000E+00  0.00000000000E+00  0.73214363500E+02  0.73214363500E+02  0.00000000000E+00 0.  1.
         21   -1    0    0  501  502 -0.00000000000E+00 -0.00000000000E+00 -0.53353601852E+02  0.53353601852E+02  0.00000000000E+00 0.  1.
         25    1    1    2    0    0  0.00000000000E+00  0.00000000000E+00  0.19860761648E+02  0.12656796535E+03  0.12500000000E+03 0.  0.
<mgrwt>
<rscale>  0 0.12500000E+03</rscale>
<asrwt>0</asrwt>
<pdfrwt beam="1">  1       21 0.11263748E-01 0.12500000E+03</pdfrwt>
<pdfrwt beam="2">  1       21 0.82082464E-02 0.12500000E+03</pdfrwt>
<totfact> 0.73828076E+06</totfact>
</mgrwt>
</event>
<event>
 3    1  0.1602107E-001  0.1250000E+03  0.7546771E-02  0.1235069E+00
         21   -1    0    0  502  501  0.00000000000E+00  0.00000000000E+00  0.63763841028E+03  0.63763841028E+03  0.00000000000E+00 0. -1.
         21   -1    0    0  501  502 -0.00000000000E+00 -0.00000000000E+00 -0.61261209128E+01  0.61261209128E+01  0.00000000000E+00 0. -1.
         25    1    1    2    0    0  0.00000000000E+00  0.00000000000E+00  0.63151228937E+03  0.64376453119E+03  0.12500000000E+03 0.  0.
<mgrwt>
<rscale>  0 0.12500000E+03</rscale>
<asrwt>0</asrwt>
<pdfrwt beam="1">  1       21 0.98098165E-01 0.12500000E+03</pdfrwt>
<pdfrwt beam="2">  1       21 0.94248064E-03 0.12500000E+03</pdfrwt>
<totfact> 0.35185212E+06</totfact>
</mgrwt>
</event>
<event>
 3    1  0.1602107E-001  0.1250000E+03  0.7546771E-02  0.1235069E+00
         21   -1    0    0  502  501  0.00000000000E+00  0.00000000000E+00  0.35874458027E+03  0.35874458027E+03  0.00000000000E+00 0.  1.
         21   -1    0    0  501  502 -0.00000000000E+00 -0.00000000000E+00 -0.10888666240E+02  0.10888666240E+02  0.00000000000E+00 0.  1.
         25    1    1    2    0    0  0.00000000000E+00  0.00000000000E+00  0.34785591403E+03  0.36963324651E+03  0.12500000000E+03 0.  0.
<mgrwt>
<rscale>  0 0.12500000E+03</rscale>
<asrwt>0</asrwt>
<pdfrwt beam="1">  1       21 0.55191465E-01 0.12500000E+03</pdfrwt>
<pdfrwt beam="2">  1       21 0.16751797E-02 0.12500000E+03</pdfrwt>
<totfact> 0.50120352E+06</totfact>
</mgrwt>
</event>
<event>
 3    1  0.1602107E-001  0.1250000E+03  0.7546771E-02  0.1235069E+00
         21   -1    0    0  502  501  0.00000000000E+00  0.00000000000E+00  0.74665012487E+02  0.74665012487E+02  0.00000000000E+00 0. -1.
         21   -1    0    0  501  502 -0.00000000000E+00 -0.00000000000E+00 -0.52317007256E+02  0.52317007256E+02  0.00000000000E+00 0. -1.
         25    1    1    2    0    0  0.00000000000E+00  0.00000000000E+00  0.22348005231E+02  0.12698201974E+03  0.12500000000E+03 0.  0.
<mgrwt>
<rscale>  0 0.12500000E+03</rscale>
<asrwt>0</asrwt>
<pdfrwt beam="1">  1       21 0.11486925E-01 0.12500000E+03</pdfrwt>
<pdfrwt beam="2">  1       21 0.80487703E-02 0.12500000E+03</pdfrwt>
<totfact> 0.73771584E+06</totfact>
</mgrwt>
</event>
<event>
 3    1  0.1602107E-001  0.1250000E+03  0.7546771E-02  0.1235069E+00
         21   -1    0    0  502  501  0.00000000000E+00  0.00000000000E+00  0.12133263134E+03  0.12133263134E+03  0.00000000000E+00 0. -1.
         21   -1    0    0  501  502 -0.00000000000E+00 -0.00000000000E+00 -0.32194554398E+02  0.32194554398E+02  0.00000000000E+00 0. -1.
         25    1    1    2    0    0  0.00000000000E+00  0.00000000000E+00  0.89138076942E+02  0.15352718574E+03  0.12500000000E+03 0.  0.
<mgrwt>
<rscale>  0 0.12500000E+03</rscale>
<asrwt>0</asrwt>
<pdfrwt beam="1">  1       21 0.18666558E-01 0.12500000E+03</pdfrwt>
<pdfrwt beam="2">  1       21 0.49530084E-02 0.12500000E+03</pdfrwt>
<totfact> 0.70318883E+06</totfact>
</mgrwt>
</event>
<event>
 3    1  0.1602107E-001  0.1250000E+03  0.7546771E-02  0.1235069E+00
         21   -1    0    0  502  501  0.00000000000E+00  0.00000000000E+00  0.90900506146E+01  0.90900506146E+01  0.00000000000E+00 0.  1.
         21   -1    0    0  501  502 -0.00000000000E+00 -0.00000000000E+00 -0.42972808025E+03  0.42972808025E+03  0.00000000000E+00 0.  1.
         25    1    1    2    0    0  0.00000000000E+00  0.00000000000E+00 -0.42063802964E+03  0.43881813086E+03  0.12500000000E+03 0.  0.
<mgrwt>
<rscale>  0 0.12500000E+03</rscale>
<asrwt>0</asrwt>
<pdfrwt beam="1">  1       21 0.13984695E-02 0.12500000E+03</pdfrwt>
<pdfrwt beam="2">  1       21 0.66112005E-01 0.12500000E+03</pdfrwt>
<totfact> 0.45568833E+06</totfact>
</mgrwt>
</event>
<event>
 3    1  0.1602107E-001  0.1250000E+03  0.7546771E-02  0.1235069E+00
         21   -1    0    0  502  501  0.00000000000E+00  0.00000000000E+00  0.39343397416E+03  0.39343397416E+03  0.00000000000E+00 0. -1.
         21   -1    0    0  501  502 -0.00000000000E+00 -0.00000000000E+00 -0.99286036706E+01  0.99286036706E+01  0.00000000000E+00 0. -1.
         25    1    1    2    0    0  0.00000000000E+00  0.00000000000E+00  0.38350537049E+03  0.40336257783E+03  0.12500000000E+03 0.  0.
<mgrwt>
<rscale>  0 0.12500000E+03</rscale>
<asrwt>0</asrwt>
<pdfrwt beam="1">  1       21 0.60528292E-01 0.12500000E+03</pdfrwt>
<pdfrwt beam="2">  1       21 0.15274778E-02 0.12500000E+03</pdfrwt>
<totfact> 0.47819117E+06</totfact>
</mgrwt>
</event>
<event>
 3    1  0.1602107E-001  0.1250000E+03  0.7546771E-02  0.1235069E+00
         21   -1    0    0  502  501  0.00000000000E+00  0.00000000000E+00  0.85085921917E+01  0.85085921917E+01  0.00000000000E+00 0. -1.
         21   -1    0    0  501  502 -0.00000000000E+00 -0.00000000000E+00 -0.45909474940E+03  0.45909474940E+03  0.00000000000E+00 0. -1.
         25    1    1    2    0    0  0.00000000000E+00  0.00000000000E+00 -0.45058615721E+03  0.46760334159E+03  0.12500000000E+03 0.  0.
<mgrwt>
<rscale>  0 0.12500000E+03</rscale>
<asrwt>0</asrwt>
<pdfrwt beam="1">  1       21 0.13090139E-02 0.12500000E+03</pdfrwt>
<pdfrwt beam="2">  1       21 0.70629976E-01 0.12500000E+03</pdfrwt>
<totfact> 0.43857318E+06</totfact>
</mgrwt>
</event>
<event>
 3    1  0.1602107E-001  0.1250000E+03  0.7546771E-02  0.1235069E+00
         21   -1    0    0  502  501  0.00000000000E+00  0.00000000000E+00  0.11813888051E+02  0.11813888051E+02  0.00000000000E+00 0.  1.
         21   -1    0    0  501  502 -0.00000000000E+00 -0.00000000000E+00 -0.33064897714E+03  0.33064897714E+03  0.00000000000E+00 0.  1.
         25    1    1    2    0    0  0.00000000000E+00  0.00000000000E+00 -0.31883508909E+03  0.34246286520E+03  0.12500000000E+03 0.  0.
<mgrwt>
<rscale>  0 0.12500000E+03</rscale>
<asrwt>0</asrwt>
<pdfrwt beam="1">  1       21 0.18175211E-02 0.12500000E+03</pdfrwt>
<pdfrwt beam="2">  1       21 0.50869078E-01 0.12500000E+03</pdfrwt>
<totfact> 0.52099930E+06</totfact>
</mgrwt>
</event>
<event>
 3    1  0.1602107E-001  0.1250000E+03  0.7546771E-02  0.1235069E+00
         21   -1    0    0  502  501  0.00000000000E+00  0.00000000000E+00  0.71382624162E+02  0.71382624162E+02  0.00000000000E+00 0.  1.
         21   -1    0    0  501  502 -0.00000000000E+00 -0.00000000000E+00 -0.54722701019E+02  0.54722701019E+02  0.00000000000E+00 0.  1.
         25    1    1    2    0    0  0.00000000000E+00  0.00000000000E+00  0.16659923143E+02  0.12610532518E+03  0.12500000000E+03 0.  0.
<mgrwt>
<rscale>  0 0.12500000E+03</rscale>
<asrwt>0</asrwt>
<pdfrwt beam="1">  1       21 0.10981942E-01 0.12500000E+03</pdfrwt>
<pdfrwt beam="2">  1       21 0.84188771E-02 0.12500000E+03</pdfrwt>
<totfact> 0.73891530E+06</totfact>
</mgrwt>
</event>
<event>
 3    1  0.1602107E-001  0.1250000E+03  0.7546771E-02  0.1235069E+00
         21   -1    0    0  502  501  0.00000000000E+00  0.00000000000E+00  0.14152388500E+02  0.14152388500E+02  0.00000000000E+00 0.  1.
         21   -1    0    0  501  502 -0.00000000000E+00 -0.00000000000E+00 -0.27601347999E+03  0.27601347999E+03  0.00000000000E+00 0.  1.
         25    1    1    2    0    0  0.00000000000E+00  0.00000000000E+00 -0.26186109149E+03  0.29016586849E+03  0.12500000000E+03 0.  0.
<mgrwt>
<rscale>  0 0.12500000E+03</rscale>
<asrwt>0</asrwt>
<pdfrwt beam="1">  1       21 0.21772905E-02 0.12500000E+03</pdfrwt>
<pdfrwt beam="2">  1       21 0.42463614E-01 0.12500000E+03</pdfrwt>
<totfact> 0.56283459E+06</totfact>
</mgrwt>
</event>
<event>
 3    1  0.1602107E-001  0.1250000E+03  0.7546771E-02  0.1235069E+00
         21   -1    0    0  502  501  0.00000000000E+00  0.00000000000E+00  0.57804404482E+01  0.57804404482E+01  0.00000000000E+00 0.  1.
         21   -1    0    0  501  502 -0.00000000000E+00 -0.00000000000E+00 -0.67577030418E+03  0.67577030418E+03  0.00000000000E+00 0.  1.
         25    1    1    2    0    0  0.00000000000E+00  0.00000000000E+00 -0.66998986373E+03  0.68155074463E+03  0.12500000000E+03 0.  0.
<mgrwt>
<rscale>  0 0.12500000E+03</rscale>
<asrwt>0</asrwt>
<pdfrwt beam="1">  1       21 0.88929860E-03 0.12500000E+03</pdfrwt>
<pdfrwt beam="2">  1       21 0.10396465E+00 0.12500000E+03</pdfrwt>
<totfact> 0.33633637E+06</totfact>
</mgrwt>
</event>
<event>
 3    1  0.1602107E-001  0.1250000E+03  0.7546771E-02  0.1235069E+00
         21   -1    0    0  502  501  0.00000000000E+00  0.00000000000E+00  0.36222394676E+01  0.36222394676E+01  0.00000000000E+00 0.  1.
         21   -1    0    0  501  502 -0.00000000000E+00 -0.00000000000E+00 -0.10784074424E+04  0.10784074424E+04  0.00000000000E+00 0.  1.
         25    1    1    2    0    0  0.00000000000E+00  0.00000000000E+00 -0.10747852029E+04  0.10820296819E+04  0.12500000000E+03 0.  0.
<mgrwt>
<rscale>  0 0.12500000E+03</rscale>
<asrwt>0</asrwt>
<pdfrwt beam="1">  1       21 0.55726717E-03 0.12500000E+03</pdfrwt>
<pdfrwt beam="2">  1       21 0.16590897E+00 0.12500000E+03</pdfrwt>
<totfact> 0.21655533E+06</totfact>
</mgrwt>
</event>
<event>
 3    1  0.1602107E-001  0.1250000E+03  0.7546771E-02  0.1235069E+00
         21   -1    0    0  502  501  0.00000000000E+00  0.00000000000E+00  0.10979476782E+02  0.10979476782E+02  0.00000000000E+00 0. -1.
         21   -1    0    0  501  502 -0.00000000000E+00 -0.00000000000E+00 -0.35577742705E+03  0.35577742705E+03  0.00000000000E+00 0. -1.
         25    1    1    2    0    0  0.00000000000E+00  0.00000000000E+00 -0.34479795027E+03  0.36675690384E+03  0.12500000000E+03 0.  0.
<mgrwt>
<rscale>  0 0.12500000E+03</rscale>
<asrwt>0</asrwt>
<pdfrwt beam="1">  1       21 0.16891505E-02 0.12500000E+03</pdfrwt>
<pdfrwt beam="2">  1       21 0.54734980E-01 0.12500000E+03</pdfrwt>
<totfact> 0.50324204E+06</totfact>
</mgrwt>
</event>
<event>
 3    1  0.1602107E-001  0.1250000E+03  0.7546771E-02  0.1235069E+00
         21   -1    0    0  502  501  0.00000000000E+00  0.00000000000E+00  0.37250051603E+02  0.37250051603E+02  0.00000000000E+00 0. -1.
         21   -1    0    0  501  502 -0.00000000000E+00 -0.00000000000E+00 -0.10486562654E+03  0.10486562654E+03  0.00000000000E+00 0. -1.
         25    1    1    2    0    0  0.00000000000E+00  0.00000000000E+00 -0.67615574938E+02  0.14211567814E+03  0.12500000000E+03 0.  0.
<mgrwt>
<rscale>  0 0.12500000E+03</rscale>
<asrwt>0</asrwt>
<pdfrwt beam="1">  1       21 0.57307773E-02 0.12500000E+03</pdfrwt>
<pdfrwt beam="2">  1       21 0.16133173E-01 0.12500000E+03</pdfrwt>
<totfact> 0.71764301E+06</totfact>
</mgrwt>
</event>
<event>
 3    1  0.1602107E-001  0.1250000E+03  0.7546771E-02  0.1235069E+00
         21   -1    0    0  502  501  0.00000000000E+00  0.00000000000E+00  0.23532640537E+02  0.23532640537E+02  0.00000000000E+00 0.  1.
         21   -1    0    0  501  502 -0.00000000000E+00 -0.00000000000E+00 -0.16599284700E+03  0.16599284700E+03  0.00000000000E+00 0.  1.
         25    1    1    2    0    0  0.00000000000E+00  0.00000000000E+00 -0.14246020646E+03  0.18952548753E+03  0.12500000000E+03 0.  0.
<mgrwt>
<rscale>  0 0.12500000E+03</rscale>
<asrwt>0</asrwt>
<pdfrwt beam="1">  1       21 0.36204061E-02 0.12500000E+03</pdfrwt>
<pdfrwt beam="2">  1       21 0.25537362E-01 0.12500000E+03</pdfrwt>
<totfact> 0.66075239E+06</totfact>
</mgrwt>
</event>
<event>
 3    1  0.1602107E-001  0.1250000E+03  0.7546771E-02  0.1235069E+00
         21   -1    0    0  502  501  0.00000000000E+00  0.00000000000E+00  0.60898615584E+02  0.60898615584E+02  0.00000000000E+00 0. -1.
         21   -1    0    0  501  502 -0.00000000000E+00 -0.00000000000E+00 -0.64143494274E+02  0.64143494274E+02  0.00000000000E+00 0. -1.
         25    1    1    2    0    0  0.00000000000E+00  0.00000000000E+00 -0.32448786896E+01  0.12504210986E+03  0.12500000000E+03 0.  0.
<mgrwt>
<rscale>  0 0.12500000E+03</rscale>
<asrwt>0</asrwt>
<pdfrwt beam="1">  1       21 0.93690178E-02 0.12500000E+03</pdfrwt>
<pdfrwt beam="2">  1       21 0.98682299E-02 0.12500000E+03</pdfrwt>
<totfact> 0.74037894E+06</totfact>
</mgrwt>
</event>
<event>
 3    1  0.1602107E-001  0.1250000E+03  0.7546771E-02  0.1235069E+00
         21   -1    0    0  502  501  0.00000000000E+00  0.00000000000E+00  0.49842309940E+02  0.49842309940E+02  0.00000000000E+00 0. -1.
         21   -1    0    0  501  502 -0.00000000000E+00 -0.00000000000E+00 -0.78372170244E+02  0.78372170244E+02  0.00000000000E+00 0. -1.
         25    1    1    2    0    0  0.00000000000E+00  0.00000000000E+00 -0.28529860304E+02  0.12821448018E+03  0.12500000000E+03 0.  0.
<mgrwt>
<rscale>  0 0.12500000E+03</rscale>
<asrwt>0</asrwt>
<pdfrwt beam="1">  1       21 0.76680477E-02 0.12500000E+03</pdfrwt>
<pdfrwt beam="2">  1       21 0.12057257E-01 0.12500000E+03</pdfrwt>
<totfact> 0.73604606E+06</totfact>
</mgrwt>
</event>
<event>
 3    1  0.1602107E-001  0.1250000E+03  0.7546771E-02  0.1235069E+00
         21   -1    0    0  502  501  0.00000000000E+00  0.00000000000E+00  0.19350536441E+02  0.19350536441E+02  0.00000000000E+00 0.  1.
         21   -1    0    0  501  502 -0.00000000000E+00 -0.00000000000E+00 -0.20186778862E+03  0.20186778862E+03  0.00000000000E+00 0.  1.
         25    1    1    2    0    0  0.00000000000E+00  0.00000000000E+00 -0.18251725218E+03  0.22121832506E+03  0.12500000000E+03 0.  0.
<mgrwt>
<rscale>  0 0.12500000E+03</rscale>
<asrwt>0</asrwt>
<pdfrwt beam="1">  1       21 0.29770055E-02 0.12500000E+03</pdfrwt>
<pdfrwt beam="2">  1       21 0.31056583E-01 0.12500000E+03</pdfrwt>
<totfact> 0.62698222E+06</totfact>
</mgrwt>
</event>
<event>
 3    1  0.1602107E-001  0.1250000E+03  0.7546771E-02  0.1235069E+00
         21   -1    0    0  502  501  0.00000000000E+00  0.00000000000E+00  0.14075487372E+03  0.14075487372E+03  0.00000000000E+00 0. -1.
         21   -1    0    0  501  502 -0.00000000000E+00 -0.00000000000E+00 -0.27752147381E+02  0.27752147381E+02  0.00000000000E+00 0. -1.
         25    1    1    2    0    0  0.00000000000E+00  0.00000000000E+00  0.11300272634E+03  0.16850702110E+03  0.12500000000E+03 0.  0.
<mgrwt>
<rscale>  0 0.12500000E+03</rscale>
<asrwt>0</asrwt>
<pdfrwt beam="1">  1       21 0.21654595E-01 0.12500000E+03</pdfrwt>
<pdfrwt beam="2">  1       21 0.42695612E-02 0.12500000E+03</pdfrwt>
<totfact> 0.68494681E+06</totfact>
</mgrwt>
</event>
<event>
 3    1  0.1602107E-001  0.1250000E+03  0.7546771E-02  0.1235069E+00
         21   -1    0    0  502  501  0.00000000000E+00  0.00000000000E+00  0.28034543776E+01  0.28034543776E+01  0.00000000000E+00 0. -1.
         21   -1    0    0  501  502 -0.00000000000E+00 -0.00000000000E+00 -0.13933702761E+04  0.13933702761E+04  0.00000000000E+00 0. -1.
         25    1    1    2    0    0  0.00000000000E+00  0.00000000000E+00 -0.13905668217E+04  0.13961737304E+04  0.12500000000E+03 0.  0.
<mgrwt>
<rscale>  0 0.12500000E+03</rscale>
<asrwt>0</asrwt>
<pdfrwt beam="1">  1       21 0.43130040E-03 0.12500000E+03</pdfrwt>
<pdfrwt beam="2">  1       21 0.21436479E+00 0.12500000E+03</pdfrwt>
<totfact> 0.15607153E+06</totfact>
</mgrwt>
</event>
<event>
 3    1  0.1602107E-001  0.1250000E+03  0.7546771E-02  0.1235069E+00
         21   -1    0    0  502  501  0.00000000000E+00  0.00000000000E+00  0.17760591408E+02  0.17760591408E+02  0.00000000000E+00 0. -1.
         21   -1    0    0  501  502 -0.00000000000E+00 -0.00000000000E+00 -0.21993918504E+03  0.21993918504E+03  0.00000000000E+00 0. -1.
         25    1    1    2    0    0  0.00000000000E+00  0.00000000000E+00 -0.20217859363E+03  0.23769977645E+03  0.12500000000E+03 0.  0.
<mgrwt>
<rscale>  0 0.12500000E+03</rscale>
<asrwt>0</asrwt>
<pdfrwt beam="1">  1       21 0.27323987E-02 0.12500000E+03</pdfrwt>
<pdfrwt beam="2">  1       21 0.33836797E-01 0.12500000E+03</pdfrwt>
<totfact> 0.61055963E+06</totfact>
</mgrwt>
</event>
<event>
 3    1  0.1602107E-001  0.1250000E+03  0.7546771E-02  0.1235069E+00
         21   -1    0    0  502  501  0.00000000000E+00  0.00000000000E+00  0.39755264607E+02  0.39755264607E+02  0.00000000000E+00 0.  1.
         21   -1    0    0  501  502 -0.00000000000E+00 -0.00000000000E+00 -0.98257426749E+02  0.98257426749E+02  0.00000000000E+00 0.  1.
         25    1    1    2    0    0  0.00000000000E+00  0.00000000000E+00 -0.58502162142E+02  0.13801269136E+03  0.12500000000E+03 0.  0.
<mgrwt>
<rscale>  0 0.12500000E+03</rscale>
<asrwt>0</asrwt>
<pdfrwt beam="1">  1       21 0.61161946E-02 0.12500000E+03</pdfrwt>
<pdfrwt beam="2">  1       21 0.15116527E-01 0.12500000E+03</pdfrwt>
<totfact> 0.72299821E+06</totfact>
</mgrwt>
</event>
<event>
 3    1  0.1602107E-001  0.1250000E+03  0.7546771E-02  0.1235069E+00
         21   -1    0    0  502  501  0.00000000000E+00  0.00000000000E+00  0.54880272114E+02  0.54880272114E+02  0.00000000000E+00 0.  1.
         21   -1    0    0  501  502 -0.00000000000E+00 -0.00000000000E+00 -0.71177671858E+02  0.71177671858E+02  0.00000000000E+00 0.  1.
         25    1    1    2    0    0  0.00000000000E+00  0.00000000000E+00 -0.16297399744E+02  0.12605794397E+03  0.12500000000E+03 0.  0.
<mgrwt>
<rscale>  0 0.12500000E+03</rscale>
<asrwt>0</asrwt>
<pdfrwt beam="1">  1       21 0.84431188E-02 0.12500000E+03</pdfrwt>
<pdfrwt beam="2">  1       21 0.10950411E-01 0.12500000E+03</pdfrwt>
<totfact> 0.73898053E+06</totfact>
</mgrwt>
</event>
<event>
 3    1  0.1602107E-001  0.1250000E+03  0.7546771E-02  0.1235069E+00
         21   -1    0    0  502  501  0.00000000000E+00  0.00000000000E+00  0.35589938970E+02  0.35589938970E+02  0.00000000000E+00 0. -1.
         21   -1    0    0  501  502 -0.00000000000E+00 -0.00000000000E+00 -0.10975714241E+03  0.10975714241E+03  0.00000000000E+00 0. -1.
         25    1    1    2    0    0  0.00000000000E+00  0.00000000000E+00 -0.74167203442E+02  0.14534708138E+03  0.12500000000E+03 0.  0.
<mgrwt>
<rscale>  0 0.12500000E+03</rscale>
<asrwt>0</asrwt>
<pdfrwt beam="1">  1       21 0.54753752E-02 0.12500000E+03</pdfrwt>
<pdfrwt beam="2">  1       21 0.16885714E-01 0.12500000E+03</pdfrwt>
<totfact> 0.71348710E+06</totfact>
</mgrwt>
</event>
<event>
 3    1  0.1602107E-001  0.1250000E+03  0.7546771E-02  0.1235069E+00
         21   -1    0    0  502  501  0.00000000000E+00  0.00000000000E+00  0.49948388174E+02  0.49948388174E+02  0.00000000000E+00 0. -1.
         21   -1    0    0  501  502 -0.00000000000E+00 -0.00000000000E+00 -0.78205726808E+02  0.78205726808E+02  0.00000000000E+00 0. -1.
         25    1    1    2    0    0  0.00000000000E+00  0.00000000000E+00 -0.28257338634E+02  0.12815411498E+03  0.12500000000E+03 0.  0.
<mgrwt>
<rscale>  0 0.12500000E+03</rscale>
<asrwt>0</asrwt>
<pdfrwt beam="1">  1       21 0.76843675E-02 0.12500000E+03</pdfrwt>
<pdfrwt beam="2">  1       21 0.12031650E-01 0.12500000E+03</pdfrwt>
<totfact> 0.73612751E+06</totfact>
</mgrwt>
</event>
<event>
 3    1  0.1602107E-001  0.1250000E+03  0.7546771E-02  0.1235069E+00
         21   -1    0    0  502  501  0.00000000000E+00  0.00000000000E+00  0.84541319119E+03  0.84541319119E+03  0.00000000000E+00 0. -1.
         21   -1    0    0  501  502 -0.00000000000E+00 -0.00000000000E+00 -0.46205217055E+01  0.46205217055E+01  0.00000000000E+00 0. -1.
         25    1    1    2    0    0  0.00000000000E+00  0.00000000000E+00  0.84079266949E+03  0.85003371290E+03  0.12500000000E+03 0.  0.
<mgrwt>
<rscale>  0 0.12500000E+03</rscale>
<asrwt>0</asrwt>
<pdfrwt beam="1">  1       21 0.13006345E+00 0.12500000E+03</pdfrwt>
<pdfrwt beam="2">  1       21 0.71085016E-03 0.12500000E+03</pdfrwt>
<totfact> 0.27770714E+06</totfact>
</mgrwt>
</event>
<event>
 3    1  0.1602107E-001  0.1250000E+03  0.7546771E-02  0.1235069E+00
         21   -1    0    0  502  501  0.00000000000E+00  0.00000000000E+00  0.14532811071E+02  0.14532811071E+02  0.00000000000E+00 0. -1.
         21   -1    0    0  501  502 -0.00000000000E+00 -0.00000000000E+00 -0.26878832876E+03  0.26878832876E+03  0.00000000000E+00 0. -1.
         25    1    1    2    0    0  0.00000000000E+00  0.00000000000E+00 -0.25425551769E+03  0.28332113983E+03  0.12500000000E+03 0.  0.
<mgrwt>
<rscale>  0 0.12500000E+03</rscale>
<asrwt>0</asrwt>
<pdfrwt beam="1">  1       21 0.22358175E-02 0.12500000E+03</pdfrwt>
<pdfrwt beam="2">  1       21 0.41352043E-01 0.12500000E+03</pdfrwt>
<totfact> 0.56871379E+06</totfact>
</mgrwt>
</event>
<event>
 3    1  0.1602107E-001  0.1250000E+03  0.7546771E-02  0.1235069E+00
         21   -1    0    0  502  501  0.00000000000E+00  0.00000000000E+00  0.18407537083E+02  0.18407537083E+02  0.00000000000E+00 0.  1.
         21   -1    0    0  501  502 -0.00000000000E+00 -0.00000000000E+00 -0.21220926963E+03  0.21220926963E+03  0.00000000000E+00 0.  1.
         25    1    1    2    0    0  0.00000000000E+00  0.00000000000E+00 -0.19380173255E+03  0.23061680671E+03  0.12500000000E+03 0.  0.
<mgrwt>
<rscale>  0 0.12500000E+03</rscale>
<asrwt>0</asrwt>
<pdfrwt beam="1">  1       21 0.28319288E-02 0.12500000E+03</pdfrwt>
<pdfrwt beam="2">  1       21 0.32647580E-01 0.12500000E+03</pdfrwt>
<totfact> 0.61752650E+06</totfact>
</mgrwt>
</event>
<event>
 3    1  0.1602107E-001  0.1250000E+03  0.7546771E-02  0.1235069E+00
         21   -1    0    0  502  501  0.00000000000E+00  0.00000000000E+00  0.14204600724E+03  0.14204600724E+03  0.00000000000E+00 0. -1.
         21   -1    0    0  501  502 -0.00000000000E+00 -0.00000000000E+00 -0.27499892999E+02  0.27499892999E+02  0.00000000000E+00 0. -1.
         25    1    1    2    0    0  0.00000000000E+00  0.00000000000E+00  0.11454611424E+03  0.16954590024E+03  0.12500000000E+03 0.  0.
<mgrwt>
<rscale>  0 0.12500000E+03</rscale>
<asrwt>0</asrwt>
<pdfrwt beam="1">  1       21 0.21853231E-01 0.12500000E+03</pdfrwt>
<pdfrwt beam="2">  1       21 0.42307529E-02 0.12500000E+03</pdfrwt>
<totfact> 0.68371492E+06</totfact>
</mgrwt>
</event>
<event>
 3    1  0.1602107E-001  0.1250000E+03  0.7546771E-02  0.1235069E+00
         21   -1    0    0  502  501  0.00000000000E+00  0.00000000000E+00  0.49527010593E+03  0.49527010593E+03  0.00000000000E+00 0.  1.
         21   -1    0    0  501  502 -0.00000000000E+00 -0.00000000000E+00 -0.78871103934E+01  0.78871103934E+01  0.00000000000E+00 0.  1.
         25    1    1    2    0    0  0.00000000000E+00  0.00000000000E+00  0.48738299553E+03  0.50315721632E+03  0.12500000000E+03 0.  0.
<mgrwt>
<rscale>  0 0.12500000E+03</rscale>
<asrwt>0</asrwt>
<pdfrwt beam="1">  1       21 0.76195376E-01 0.12500000E+03</pdfrwt>
<pdfrwt beam="2">  1       21 0.12134020E-02 0.12500000E+03</pdfrwt>
<totfact> 0.41873372E+06</totfact>
</mgrwt>
</event>
<event>
 3    1  0.1602107E-001  0.1250000E+03  0.7546771E-02  0.1235069E+00
         21   -1    0    0  502  501  0.00000000000E+00  0.00000000000E+00  0.30017758968E+03  0.30017758968E+03  0.00000000000E+00 0.  1.
         21   -1    0    0  501  502 -0.00000000000E+00 -0.00000000000E+00 -0.13013130008E+02  0.13013130008E+02  0.00000000000E+00 0.  1.
         25    1    1    2    0    0  0.00000000000E+00  0.00000000000E+00  0.28716445967E+03  0.31319071969E+03  0.12500000000E+03 0.  0.
<mgrwt>
<rscale>  0 0.12500000E+03</rscale>
<asrwt>0</asrwt>
<pdfrwt beam="1">  1       21 0.46181163E-01 0.12500000E+03</pdfrwt>
<pdfrwt beam="2">  1       21 0.20020202E-02 0.12500000E+03</pdfrwt>
<totfact> 0.54377395E+06</totfact>
</mgrwt>
</event>
<event>
 3    1  0.1602107E-001  0.1250000E+03  0.7546771E-02  0.1235069E+00
         21   -1    0    0  502  501  0.00000000000E+00  0.00000000000E+00  0.23372454648E+03  0.23372454648E+03  0.00000000000E+00 0.  1.
         21   -1    0    0  501  502 -0.00000000000E+00 -0.00000000000E+00 -0.16713049865E+02  0.16713049865E+02  0.00000000000E+00 0.  1.
         25    1    1    2    0    0  0.00000000000E+00  0.00000000000E+00  0.21701149662E+03  0.25043759635E+03  0.12500000000E+03 0.  0.
<mgrwt>
<rscale>  0 0.12500000E+03</rscale>
<asrwt>0</asrwt>
<pdfrwt beam="1">  1       21 0.35957620E-01 0.12500000E+03</pdfrwt>
<pdfrwt beam="2">  1       21 0.25712386E-02 0.12500000E+03</pdfrwt>
<totfact> 0.59837016E+06</totfact>
</mgrwt>
</event>
<event>
 3    1  0.1602107E-001  0.1250000E+03  0.7546771E-02  0.1235069E+00
         21   -1    0    0  502  501  0.00000000000E+00  0.00000000000E+00  0.58388955294E+01  0.58388955294E+01  0.00000000000E+00 0. -1.
         21   -1    0    0  501  502 -0.00000000000E+00 -0.00000000000E+00 -0.66900494800E+03  0.66900494800E+03  0.00000000000E+00 0. -1.
         25    1    1    2    0    0  0.00000000000E+00  0.00000000000E+00 -0.66316605247E+03  0.67484384353E+03  0.12500000000E+03 0.  0.
<mgrwt>
<rscale>  0 0.12500000E+03</rscale>
<asrwt>0</asrwt>
<pdfrwt beam="1">  1       21 0.89829234E-03 0.12500000E+03</pdfrwt>
<pdfrwt beam="2">  1       21 0.10292376E+00 0.12500000E+03</pdfrwt>
<totfact> 0.33902761E+06</totfact>
</mgrwt>
</event>
<event>
 3    1  0.1602107E-001  0.1250000E+03  0.7546771E-02  0.1235069E+00
         21   -1    0    0  502  501  0.00000000000E+00  0.00000000000E+00  0.52063496696E+01  0.52063496696E+01  0.00000000000E+00 0. -1.
         21   -1    0    0  501  502 -0.00000000000E+00 -0.00000000000E+00 -0.75028575641E+03  0.75028575641E+03  0.00000000000E+00 0. -1.
         25    1    1    2    0    0  0.00000000000E+00  0.00000000000E+00 -0.74507940674E+03  0.75549210608E+03  0.12500000000E+03 0.  0.
<mgrwt>
<rscale>  0 0.12500000E+03</rscale>
<asrwt>0</asrwt>
<pdfrwt beam="1">  1       21 0.80097660E-03 0.12500000E+03</pdfrwt>
<pdfrwt beam="2">  1       21 0.11542862E+00 0.12500000E+03</pdfrwt>
<totfact> 0.30876622E+06</totfact>
</mgrwt>
</event>
<event>
 3    1  0.1602107E-001  0.1250000E+03  0.7546771E-02  0.1235069E+00
         21   -1    0    0  502  501  0.00000000000E+00  0.00000000000E+00  0.56701519275E+02  0.56701519275E+02  0.00000000000E+00 0.  1.
         21   -1    0    0  501  502 -0.00000000000E+00 -0.00000000000E+00 -0.68891452115E+02  0.68891452115E+02  0.00000000000E+00 0.  1.
         25    1    1    2    0    0  0.00000000000E+00  0.00000000000E+00 -0.12189932839E+02  0.12559297139E+03  0.12500000000E+03 0.  0.
<mgrwt>
<rscale>  0 0.12500000E+03</rscale>
<asrwt>0</asrwt>
<pdfrwt beam="1">  1       21 0.87233107E-02 0.12500000E+03</pdfrwt>
<pdfrwt beam="2">  1       21 0.10598685E-01 0.12500000E+03</pdfrwt>
<totfact> 0.73962422E+06</totfact>
</mgrwt>
</event>
<event>
 3    1  0.1602107E-001  0.1250000E+03  0.7546771E-02  0.1235069E+00
         21   -1    0    0  502  501  0.00000000000E+00  0.00000000000E+00  0.69023229579E+02  0.69023229579E+02  0.00000000000E+00 0. -1.
         21   -1    0    0  501  502 -0.00000000000E+00 -0.00000000000E+00 -0.56593266119E+02  0.56593266119E+02  0.00000000000E+00 0. -1.
         25    1    1    2    0    0  0.00000000000E+00  0.00000000000E+00  0.12429963460E+02  0.12561649570E+03  0.12500000000E+03 0.  0.
<mgrwt>
<rscale>  0 0.12500000E+03</rscale>
<asrwt>0</asrwt>
<pdfrwt beam="1">  1       21 0.10618958E-01 0.12500000E+03</pdfrwt>
<pdfrwt beam="2">  1       21 0.87066563E-02 0.12500000E+03</pdfrwt>
<totfact> 0.73959146E+06</totfact>
</mgrwt>
</event>
<event>
 3    1  0.1602107E-001  0.1250000E+03  0.7546771E-02  0.1235069E+00
         21   -1    0    0  502  501  0.00000000000E+00  0.00000000000E+00  0.48395260835E+03  0.48395260835E+03  0.00000000000E+00 0. -1.
         21   -1    0    0  501  502 -0.00000000000E+00 -0.00000000000E+00 -0.80715548023E+01  0.80715548023E+01  0.00000000000E+00 0. -1.
         25    1    1    2    0    0  0.00000000000E+00  0.00000000000E+00  0.47588105355E+03  0.49202416315E+03  0.12500000000E+03 0.  0.
<mgrwt>
<rscale>  0 0.12500000E+03</rscale>
<asrwt>0</asrwt>
<pdfrwt beam="1">  1       21 0.74454225E-01 0.12500000E+03</pdfrwt>
<pdfrwt beam="2">  1       21 0.12417780E-02 0.12500000E+03</pdfrwt>
<totfact> 0.42479955E+06</totfact>
</mgrwt>
</event>
<event>
 3    1  0.1602107E-001  0.1250000E+03  0.7546771E-02  0.1235069E+00
         21   -1    0    0  502  501  0.00000000000E+00  0.00000000000E+00  0.73816688969E+02  0.73816688969E+02  0.00000000000E+00 0. -1.
         21   -1    0    0  501  502 -0.00000000000E+00 -0.00000000000E+00 -0.52918249986E+02  0.52918249986E+02  0.00000000000E+00 0. -1.
         25    1    1    2    0    0  0.00000000000E+00  0.00000000000E+00  0.20898438982E+02  0.12673493895E+03  0.12500000000E+03 0.  0.
<mgrwt>
<rscale>  0 0.12500000E+03</rscale>
<asrwt>0</asrwt>
<pdfrwt beam="1">  1       21 0.11356414E-01 0.12500000E+03</pdfrwt>
<pdfrwt beam="2">  1       21 0.81412692E-02 0.12500000E+03</pdfrwt>
<totfact> 0.73805265E+06</totfact>
</mgrwt>
</event>
<event>
 3    1  0.1602107E-001  0.1250000E+03  0.7546771E-02  0.1235069E+00
         21   -1    0    0  502  501  0.00000000000E+00  0.00000000000E+00  0.27505883850E+01  0.27505883850E+01  0.00000000000E+00 0.  1.
         21   -1    0    0  501  502 -0.00000000000E+00 -0.00000000000E+00 -0.14201506926E+04  0.14201506926E+04  0.00000000000E+00 0.  1.
         25    1    1    2    0    0  0.00000000000E+00  0.00000000000E+00 -0.14174001042E+04  0.14229012810E+04  0.12500000000E+03 0.  0.
<mgrwt>
<rscale>  0 0.12500000E+03</rscale>
<asrwt>0</asrwt>
<pdfrwt beam="1">  1       21 0.42316719E-03 0.12500000E+03</pdfrwt>
<pdfrwt beam="2">  1       21 0.21848485E+00 0.12500000E+03</pdfrwt>
<totfact> 0.15176213E+06</totfact>
</mgrwt>
</event>
<event>
 3    1  0.1602107E-001  0.1250000E+03  0.7546771E-02  0.1235069E+00
         21   -1    0    0  502  501  0.00000000000E+00  0.00000000000E+00  0.19751160373E+03  0.19751160373E+03  0.00000000000E+00 0.  1.
         21   -1    0    0  501  502 -0.00000000000E+00 -0.00000000000E+00 -0.19777319035E+02  0.19777319035E+02  0.00000000000E+00 0.  1.
         25    1    1    2    0    0  0.00000000000E+00  0.00000000000E+00  0.17773428469E+03  0.21728892276E+03  0.12500000000E+03 0.  0.
<mgrwt>
<rscale>  0 0.12500000E+03</rscale>
<asrwt>0</asrwt>
<pdfrwt beam="1">  1       21 0.30386399E-01 0.12500000E+03</pdfrwt>
<pdfrwt beam="2">  1       21 0.30426646E-02 0.12500000E+03</pdfrwt>
<totfact> 0.63100724E+06</totfact>
</mgrwt>
</event>
<event>
 3    1  0.1602107E-001  0.1250000E+03  0.7546771E-02  0.1235069E+00
         21   -1    0    0  502  501  0.00000000000E+00  0.00000000000E+00  0.29546997970E+03  0.29546997970E+03  0.00000000000E+00 0.  1.
         21   -1    0    0  501  502 -0.00000000000E+00 -0.00000000000E+00 -0.13220463223E+02  0.13220463223E+02  0.00000000000E+00 0.  1.
         25    1    1    2    0    0  0.00000000000E+00  0.00000000000E+00  0.28224951648E+03  0.30869044292E+03  0.12500000000E+03 0.  0.
<mgrwt>
<rscale>  0 0.12500000E+03</rscale>
<asrwt>0</asrwt>
<pdfrwt beam="1">  1       21 0.45456915E-01 0.12500000E+03</pdfrwt>
<pdfrwt beam="2">  1       21 0.20339176E-02 0.12500000E+03</pdfrwt>
<totfact> 0.54741611E+06</totfact>
</mgrwt>
</event>
<event>
 3    1  0.1602107E-001  0.1250000E+03  0.7546771E-02  0.1235069E+00
         21   -1    0    0  502  501  0.00000000000E+00  0.00000000000E+00  0.20682266016E+02  0.20682266016E+02  0.00000000000E+00 0. -1.
         21   -1    0    0  501  502 -0.00000000000E+00 -0.00000000000E+00 -0.18886953668E+03  0.18886953668E+03  0.00000000000E+00 0. -1.
         25    1    1    2    0    0  0.00000000000E+00  0.00000000000E+00 -0.16818727066E+03  0.20955180270E+03  0.12500000000E+03 0.  0.
<mgrwt>
<rscale>  0 0.12500000E+03</rscale>
<asrwt>0</asrwt>
<pdfrwt beam="1">  1       21 0.31818871E-02 0.12500000E+03</pdfrwt>
<pdfrwt beam="2">  1       21 0.29056852E-01 0.12500000E+03</pdfrwt>
<totfact> 0.63906722E+06</totfact>
</mgrwt>
</event>
<event>
 3    1  0.1602107E-001  0.1250000E+03  0.7546771E-02  0.1235069E+00
         21   -1    0    0  502  501  0.00000000000E+00  0.00000000000E+00  0.16751957399E+03  0.16751957399E+03  0.00000000000E+00 0. -1.
         21   -1    0    0  501  502 -0.00000000000E+00 -0.00000000000E+00 -0.23318170569E+02  0.23318170569E+02  0.00000000000E+00 0. -1.
         25    1    1    2    0    0  0.00000000000E+00  0.00000000000E+00  0.14420140342E+03  0.19083774456E+03  0.12500000000E+03 0.  0.
<mgrwt>
<rscale>  0 0.12500000E+03</rscale>
<asrwt>0</asrwt>
<pdfrwt beam="1">  1       21 0.25772241E-01 0.12500000E+03</pdfrwt>
<pdfrwt beam="2">  1       21 0.35874110E-02 0.12500000E+03</pdfrwt>
<totfact> 0.65929478E+06</totfact>
</mgrwt>
</event>
<event>
 3    1  0.1602107E-001  0.1250000E+03  0.7546771E-02  0.1235069E+00
         21   -1    0    0  502  501  0.00000000000E+00  0.00000000000E+00  0.10523215484E+02  0.10523215484E+02  0.00000000000E+00 0.  1.
         21   -1    0    0  501  502 -0.00000000000E+00 -0.00000000000E+00 -0.37120308009E+03  0.37120308009E+03  0.00000000000E+00 0.  1.
         25    1    1    2    0    0  0.00000000000E+00  0.00000000000E+00 -0.36067986460E+03  0.38172629557E+03  0.12500000000E+03 0.  0.
<mgrwt>
<rscale>  0 0.12500000E+03</rscale>
<asrwt>0</asrwt>
<pdfrwt beam="1">  1       21 0.16189566E-02 0.12500000E+03</pdfrwt>
<pdfrwt beam="2">  1       21 0.57108155E-01 0.12500000E+03</pdfrwt>
<totfact> 0.49277374E+06</totfact>
</mgrwt>
</event>
<event>
 3    1  0.1602107E-001  0.1250000E+03  0.7546771E-02  0.1235069E+00
         21   -1    0    0  502  501  0.00000000000E+00  0.00000000000E+00  0.89446181306E+02  0.89446181306E+02  0.00000000000E+00 0.  1.
         21   -1    0    0  501  502 -0.00000000000E+00 -0.00000000000E+00 -0.43671512221E+02  0.43671512221E+02  0.00000000000E+00 0.  1.
         25    1    1    2    0    0  0.00000000000E+00  0.00000000000E+00  0.45774669085E+02  0.13311769353E+03  0.12500000000E+03 0.  0.
<mgrwt>
<rscale>  0 0.12500000E+03</rscale>
<asrwt>0</asrwt>
<pdfrwt beam="1">  1       21 0.13760951E-01 0.12500000E+03</pdfrwt>
<pdfrwt beam="2">  1       21 0.67186942E-02 0.12500000E+03</pdfrwt>
<totfact> 0.72946686E+06</totfact>
</mgrwt>
</event>
<event>
 3    1  0.1602107E-001  0.1250000E+03  0.7546771E-02  0.1235069E+00
         21   -1    0    0  502  501  0.00000000000E+00  0.00000000000E+00  0.34049834210E+02  0.34049834210E+02  0.00000000000E+00 0. -1.
         21   -1    0    0  501  502 -0.00000000000E+00 -0.00000000000E+00 -0.11472155711E+03  0.11472155711E+03  0.00000000000E+00 0. -1.
         25    1    1    2    0    0  0.00000000000E+00  0.00000000000E+00 -0.80671722901E+02  0.14877139132E+03  0.12500000000E+03 0.  0.
<mgrwt>
<rscale>  0 0.12500000E+03</rscale>
<asrwt>0</asrwt>
<pdfrwt beam="1">  1       21 0.52384361E-02 0.12500000E+03</pdfrwt>
<pdfrwt beam="2">  1       21 0.17649470E-01 0.12500000E+03</pdfrwt>
<totfact> 0.70913879E+06</totfact>
</mgrwt>
</event>
<event>
 3    1  0.1602107E-001  0.1250000E+03  0.7546771E-02  0.1235069E+00
         21   -1    0    0  502  501  0.00000000000E+00  0.00000000000E+00  0.14567500038E+02  0.14567500038E+02  0.00000000000E+00 0. -1.
         21   -1    0    0  501  502 -0.00000000000E+00 -0.00000000000E+00 -0.26814827456E+03  0.26814827456E+03  0.00000000000E+00 0. -1.
         25    1    1    2    0    0  0.00000000000E+00  0.00000000000E+00 -0.25358077452E+03  0.28271577460E+03  0.12500000000E+03 0.  0.
<mgrwt>
<rscale>  0 0.12500000E+03</rscale>
<asrwt>0</asrwt>
<pdfrwt beam="1">  1       21 0.22411539E-02 0.12500000E+03</pdfrwt>
<pdfrwt beam="2">  1       21 0.41253581E-01 0.12500000E+03</pdfrwt>
<totfact> 0.56923861E+06</totfact>
</mgrwt>
</event>
<event>
 3    1  0.1602107E-001  0.1250000E+03  0.7546771E-02  0.1235069E+00
         21   -1    0    0  502  501  0.00000000000E+00  0.00000000000E+00  0.23647352476E+04  0.23647352476E+04  0.00000000000E+00 0.  1.
         21   -1    0    0  501  502 -0.00000000000E+00 -0.00000000000E+00 -0.16518762529E+01  0.16518762529E+01  0.00000000000E+00 0.  1.
         25    1    1    2    0    0  0.00000000000E+00  0.00000000000E+00  0.23630833713E+04  0.23663871238E+04  0.12500000000E+03 0.  0.
<mgrwt>
<rscale>  0 0.12500000E+03</rscale>
<asrwt>0</asrwt>
<pdfrwt beam="1">  1       21 0.36380271E+00 0.12500000E+03</pdfrwt>
<pdfrwt beam="2">  1       21 0.25413670E-03 0.12500000E+03</pdfrwt>
<totfact> 0.48955511E+05</totfact>
</mgrwt>
</event>
<event>
 3    1  0.1602107E-001  0.1250000E+03  0.7546771E-02  0.1235069E+00
         21   -1    0    0  502  501  0.00000000000E+00  0.00000000000E+00  0.64046398135E+02  0.64046398135E+02  0.00000000000E+00 0. -1.
         21   -1    0    0  501  502 -0.00000000000E+00 -0.00000000000E+00 -0.60990939596E+02  0.60990939596E+02  0.00000000000E+00 0. -1.
         25    1    1    2    0    0  0.00000000000E+00  0.00000000000E+00  0.30554585395E+01  0.12503733773E+03  0.12500000000E+03 0.  0.
<mgrwt>
<rscale>  0 0.12500000E+03</rscale>
<asrwt>0</asrwt>
<pdfrwt beam="1">  1       21 0.98532919E-02 0.12500000E+03</pdfrwt>
<pdfrwt beam="2">  1       21 0.93832215E-02 0.12500000E+03</pdfrwt>
<totfact> 0.74038538E+06</totfact>
</mgrwt>
</event>
<event>
 3    1  0.1602107E-001  0.1250000E+03  0.7546771E-02  0.1235069E+00
         21   -1    0    0  502  501  0.00000000000E+00  0.00000000000E+00  0.52519435326E+01  0.52519435326E+01  0.00000000000E+00 0. -1.
         21   -1    0    0  501  502 -0.00000000000E+00 -0.00000000000E+00 -0.74377227701E+03  0.74377227701E+03  0.00000000000E+00 0. -1.
         25    1    1    2    0    0  0.00000000000E+00  0.00000000000E+00 -0.73852033348E+03  0.74902422055E+03  0.12500000000E+03 0.  0.
<mgrwt>
<rscale>  0 0.12500000E+03</rscale>
<asrwt>0</asrwt>
<pdfrwt beam="1">  1       21 0.80799066E-03 0.12500000E+03</pdfrwt>
<pdfrwt beam="2">  1       21 0.11442660E+00 0.12500000E+03</pdfrwt>
<totfact> 0.31103187E+06</totfact>
</mgrwt>
</event>
<event>
 3    1  0.1602107E-001  0.1250000E+03  0.7546771E-02  0.1235069E+00
         21   -1    0    0  502  501  0.00000000000E+00  0.00000000000E+00  0.78822406949E+03  0.78822406949E+03  0.00000000000E+00 0.  1.
         21   -1    0    0  501  502 -0.00000000000E+00 -0.00000000000E+00 -0.49557608696E+01  0.49557608696E+01  0.00000000000E+00 0.  1.
         25    1    1    2    0    0  0.00000000000E+00  0.00000000000E+00  0.78326830862E+03  0.79317983036E+03  0.12500000000E+03 0.  0.
<mgrwt>
<rscale>  0 0.12500000E+03</rscale>
<asrwt>0</asrwt>
<pdfrwt beam="1">  1       21 0.12126514E+00 0.12500000E+03</pdfrwt>
<pdfrwt beam="2">  1       21 0.76242538E-03 0.12500000E+03</pdfrwt>
<totfact> 0.29590058E+06</totfact>
</mgrwt>
</event>
<event>
 3    1  0.1602107E-001  0.1250000E+03  0.7546771E-02  0.1235069E+00
         21   -1    0    0  502  501  0.00000000000E+00  0.00000000000E+00  0.38729647731E+03  0.38729647731E+03  0.00000000000E+00 0.  1.
         21   -1    0    0  501  502 -0.00000000000E+00 -0.00000000000E+00 -0.10085942498E+02  0.10085942498E+02  0.00000000000E+00 0.  1.
         25    1    1    2    0    0  0.00000000000E+00  0.00000000000E+00  0.37721053481E+03  0.39738241981E+03  0.12500000000E+03 0.  0.
<mgrwt>
<rscale>  0 0.12500000E+03</rscale>
<asrwt>0</asrwt>
<pdfrwt beam="1">  1       21 0.59584062E-01 0.12500000E+03</pdfrwt>
<pdfrwt beam="2">  1       21 0.15516838E-02 0.12500000E+03</pdfrwt>
<totfact> 0.48215462E+06</totfact>
</mgrwt>
</event>
<event>
 3    1  0.1602107E-001  0.1250000E+03  0.7546771E-02  0.1235069E+00
         21   -1    0    0  502  501  0.00000000000E+00  0.00000000000E+00  0.34685858666E+02  0.34685858666E+02  0.00000000000E+00 0. -1.
         21   -1    0    0  501  502 -0.00000000000E+00 -0.00000000000E+00 -0.11261794144E+03  0.11261794144E+03  0.00000000000E+00 0. -1.
         25    1    1    2    0    0  0.00000000000E+00  0.00000000000E+00 -0.77932082774E+02  0.14730380011E+03  0.12500000000E+03 0.  0.
<mgrwt>
<rscale>  0 0.12500000E+03</rscale>
<asrwt>0</asrwt>
<pdfrwt beam="1">  1       21 0.53362859E-02 0.12500000E+03</pdfrwt>
<pdfrwt beam="2">  1       21 0.17325837E-01 0.12500000E+03</pdfrwt>
<totfact> 0.71099558E+06</totfact>
</mgrwt>
</event>
<event>
 3    1  0.1602107E-001  0.1250000E+03  0.7546771E-02  0.1235069E+00
         21   -1    0    0  502  501  0.00000000000E+00  0.00000000000E+00  0.25907428825E+02  0.25907428825E+02  0.00000000000E+00 0.  1.
         21   -1    0    0  501  502 -0.00000000000E+00 -0.00000000000E+00 -0.15077721631E+03  0.15077721631E+03  0.00000000000E+00 0.  1.
         25    1    1    2    0    0  0.00000000000E+00  0.00000000000E+00 -0.12486978748E+03  0.17668464513E+03  0.12500000000E+03 0.  0.
<mgrwt>
<rscale>  0 0.12500000E+03</rscale>
<asrwt>0</asrwt>
<pdfrwt beam="1">  1       21 0.39857582E-02 0.12500000E+03</pdfrwt>
<pdfrwt beam="2">  1       21 0.23196495E-01 0.12500000E+03</pdfrwt>
<totfact> 0.67533913E+06</totfact>
</mgrwt>
</event>
<event>
 3    1  0.1602107E-001  0.1250000E+03  0.7546771E-02  0.1235069E+00
         21   -1    0    0  502  501  0.00000000000E+00  0.00000000000E+00  0.74925320345E+02  0.74925320345E+02  0.00000000000E+00 0. -1.
         21   -1    0    0  501  502 -0.00000000000E+00 -0.00000000000E+00 -0.52135245896E+02  0.52135245896E+02  0.00000000000E+00 0. -1.
         25    1    1    2    0    0  0.00000000000E+00  0.00000000000E+00  0.22790074449E+02  0.12706056624E+03  0.12500000000E+03 0.  0.
<mgrwt>
<rscale>  0 0.12500000E+03</rscale>
<asrwt>0</asrwt>
<pdfrwt beam="1">  1       21 0.11526972E-01 0.12500000E+03</pdfrwt>
<pdfrwt beam="2">  1       21 0.80208071E-02 0.12500000E+03</pdfrwt>
<totfact> 0.73760894E+06</totfact>
</mgrwt>
</event>
<event>
 3    1  0.1602107E-001  0.1250000E+03  0.7546771E-02  0.1235069E+00
         21   -1    0    0  502  501  0.00000000000E+00  0.00000000000E+00  0.61611224736E+03  0.61611224736E+03  0.00000000000E+00 0. -1.
         21   -1    0    0  501  502 -0.00000000000E+00 -0.00000000000E+00 -0.63401596328E+01  0.63401596328E+01  0.00000000000E+00 0. -1.
         25    1    1    2    0    0  0.00000000000E+00  0.00000000000E+00  0.60977208773E+03  0.62245240700E+03  0.12500000000E+03 0.  0.
<mgrwt>
<rscale>  0 0.12500000E+03</rscale>
<asrwt>0</asrwt>
<pdfrwt beam="1">  1       21 0.94786453E-01 0.12500000E+03</pdfrwt>
<pdfrwt beam="2">  1       21 0.97540966E-03 0.12500000E+03</pdfrwt>
<totfact> 0.36096553E+06</totfact>
</mgrwt>
</event>
<event>
 3    1  0.1602107E-001  0.1250000E+03  0.7546771E-02  0.1235069E+00
         21   -1    0    0  502  501  0.00000000000E+00  0.00000000000E+00  0.50654524076E+02  0.50654524076E+02  0.00000000000E+00 0. -1.
         21   -1    0    0  501  502 -0.00000000000E+00 -0.00000000000E+00 -0.77115520702E+02  0.77115520702E+02  0.00000000000E+00 0. -1.
         25    1    1    2    0    0  0.00000000000E+00  0.00000000000E+00 -0.26460996626E+02  0.12777004478E+03  0.12500000000E+03 0.  0.
<mgrwt>
<rscale>  0 0.12500000E+03</rscale>
<asrwt>0</asrwt>
<pdfrwt beam="1">  1       21 0.77930037E-02 0.12500000E+03</pdfrwt>
<pdfrwt beam="2">  1       21 0.11863926E-01 0.12500000E+03</pdfrwt>
<totfact> 0.73664647E+06</totfact>
</mgrwt>
</event>
<event>
 3    1  0.1602107E-001  0.1250000E+03  0.7546771E-02  0.1235069E+00
         21   -1    0    0  502  501  0.00000000000E+00  0.00000000000E+00  0.22971523227E+03  0.22971523227E+03  0.00000000000E+00 0.  1.
         21   -1    0    0  501  502 -0.00000000000E+00 -0.00000000000E+00 -0.17004749582E+02  0.17004749582E+02  0.00000000000E+00 0.  1.
         25    1    1    2    0    0  0.00000000000E+00  0.00000000000E+00  0.21271048269E+03  0.24671998185E+03  0.12500000000E+03 0.  0.
<mgrwt>
<rscale>  0 0.12500000E+03</rscale>
<asrwt>0</asrwt>
<pdfrwt beam="1">  1       21 0.35340803E-01 0.12500000E+03</pdfrwt>
<pdfrwt beam="2">  1       21 0.26161155E-02 0.12500000E+03</pdfrwt>
<totfact> 0.60188381E+06</totfact>
</mgrwt>
</event>
<event>
 3    1  0.1602107E-001  0.1250000E+03  0.7546771E-02  0.1235069E+00
         21   -1    0    0  502  501  0.00000000000E+00  0.00000000000E+00  0.16736592487E+02  0.16736592487E+02  0.00000000000E+00 0. -1.
         21   -1    0    0  501  502 -0.00000000000E+00 -0.00000000000E+00 -0.23339577653E+03  0.23339577653E+03  0.00000000000E+00 0. -1.
         25    1    1    2    0    0  0.00000000000E+00  0.00000000000E+00 -0.21665918404E+03  0.25013236902E+03  0.12500000000E+03 0.  0.
<mgrwt>
<rscale>  0 0.12500000E+03</rscale>
<asrwt>0</asrwt>
<pdfrwt beam="1">  1       21 0.25748605E-02 0.12500000E+03</pdfrwt>
<pdfrwt beam="2">  1       21 0.35907041E-01 0.12500000E+03</pdfrwt>
<totfact> 0.59865729E+06</totfact>
</mgrwt>
</event>
<event>
 3    1  0.1602107E-001  0.1250000E+03  0.7546771E-02  0.1235069E+00
         21   -1    0    0  502  501  0.00000000000E+00  0.00000000000E+00  0.96481868244E+01  0.96481868244E+01  0.00000000000E+00 0. -1.
         21   -1    0    0  501  502 -0.00000000000E+00 -0.00000000000E+00 -0.40486881847E+03  0.40486881847E+03  0.00000000000E+00 0. -1.
         25    1    1    2    0    0  0.00000000000E+00  0.00000000000E+00 -0.39522063165E+03  0.41451700530E+03  0.12500000000E+03 0.  0.
<mgrwt>
<rscale>  0 0.12500000E+03</rscale>
<asrwt>0</asrwt>
<pdfrwt beam="1">  1       21 0.14843368E-02 0.12500000E+03</pdfrwt>
<pdfrwt beam="2">  1       21 0.62287495E-01 0.12500000E+03</pdfrwt>
<totfact> 0.47093134E+06</totfact>
</mgrwt>
</event>
<event>
 3    1  0.1602107E-001  0.1250000E+03  0.7546771E-02  0.1235069E+00
         21   -1    0    0  502  501  0.00000000000E+00  0.00000000000E+00  0.19740065702E+03  0.19740065702E+03  0.00000000000E+00 0. -1.
         21   -1    0    0  501  502 -0.00000000000E+00 -0.00000000000E+00 -0.19788434643E+02  0.19788434643E+02  0.00000000000E+00 0. -1.
         25    1    1    2    0    0  0.00000000000E+00  0.00000000000E+00  0.17761222238E+03  0.21718909166E+03  0.12500000000E+03 0.  0.
<mgrwt>
<rscale>  0 0.12500000E+03</rscale>
<asrwt>0</asrwt>
<pdfrwt beam="1">  1       21 0.30369330E-01 0.12500000E+03</pdfrwt>
<pdfrwt beam="2">  1       21 0.30443747E-02 0.12500000E+03</pdfrwt>
<totfact> 0.63111009E+06</totfact>
</mgrwt>
</event>
<event>
 3    1  0.1602107E-001  0.1250000E+03  0.7546771E-02  0.1235069E+00
         21   -1    0    0  502  501  0.00000000000E+00  0.00000000000E+00  0.55543553217E+01  0.55543553217E+01  0.00000000000E+00 0.  1.
         21   -1    0    0  501  502 -0.00000000000E+00 -0.00000000000E+00 -0.70327693743E+03  0.70327693743E+03  0.00000000000E+00 0.  1.
         25    1    1    2    0    0  0.00000000000E+00  0.00000000000E+00 -0.69772258210E+03  0.70883129275E+03  0.12500000000E+03 0.  0.
<mgrwt>
<rscale>  0 0.12500000E+03</rscale>
<asrwt>0</asrwt>
<pdfrwt beam="1">  1       21 0.85451621E-03 0.12500000E+03</pdfrwt>
<pdfrwt beam="2">  1       21 0.10819645E+00 0.12500000E+03</pdfrwt>
<totfact> 0.32572434E+06</totfact>
</mgrwt>
</event>
<event>
 3    1  0.1602107E-001  0.1250000E+03  0.7546771E-02  0.1235069E+00
         21   -1    0    0  502  501  0.00000000000E+00  0.00000000000E+00  0.13675222339E+03  0.13675222339E+03  0.00000000000E+00 0. -1.
         21   -1    0    0  501  502 -0.00000000000E+00 -0.00000000000E+00 -0.28564435028E+02  0.28564435028E+02  0.00000000000E+00 0. -1.
         25    1    1    2    0    0  0.00000000000E+00  0.00000000000E+00  0.10818778836E+03  0.16531665842E+03  0.12500000000E+03 0.  0.
<mgrwt>
<rscale>  0 0.12500000E+03</rscale>
<asrwt>0</asrwt>
<pdfrwt beam="1">  1       21 0.21038803E-01 0.12500000E+03</pdfrwt>
<pdfrwt beam="2">  1       21 0.43945285E-02 0.12500000E+03</pdfrwt>
<totfact> 0.68875623E+06</totfact>
</mgrwt>
</event>
<event>
 3    1  0.1602107E-001  0.1250000E+03  0.7546771E-02  0.1235069E+00
         21   -1    0    0  502  501  0.00000000000E+00  0.00000000000E+00  0.15282632118E+03  0.15282632118E+03  0.00000000000E+00 0. -1.
         21   -1    0    0  501  502 -0.00000000000E+00 -0.00000000000E+00 -0.25560060400E+02  0.25560060400E+02  0.00000000000E+00 0. -1.
         25    1    1    2    0    0  0.00000000000E+00  0.00000000000E+00  0.12726626078E+03  0.17838638158E+03  0.12500000000E+03 0.  0.
<mgrwt>
<rscale>  0 0.12500000E+03</rscale>
<asrwt>0</asrwt>
<pdfrwt beam="1">  1       21 0.23511741E-01 0.12500000E+03</pdfrwt>
<pdfrwt beam="2">  1       21 0.39323171E-02 0.12500000E+03</pdfrwt>
<totfact> 0.67337129E+06</totfact>
</mgrwt>
</event>
<event>
 3    1  0.1602107E-001  0.1250000E+03  0.7546771E-02  0.1235069E+00
         21   -1    0    0  502  501  0.00000000000E+00  0.00000000000E+00  0.30835002910E+03  0.30835002910E+03  0.00000000000E+00 0. -1.
         21   -1    0    0  501  502 -0.00000000000E+00 -0.00000000000E+00 -0.12668232954E+02  0.12668232954E+02  0.00000000000E+00 0. -1.
         25    1    1    2    0    0  0.00000000000E+00  0.00000000000E+00  0.29568179615E+03  0.32101826205E+03  0.12500000000E+03 0.  0.
<mgrwt>
<rscale>  0 0.12500000E+03</rscale>
<asrwt>0</asrwt>
<pdfrwt beam="1">  1       21 0.47438460E-01 0.12500000E+03</pdfrwt>
<pdfrwt beam="2">  1       21 0.19489591E-02 0.12500000E+03</pdfrwt>
<totfact> 0.53752752E+06</totfact>
</mgrwt>
</event>
<event>
 3    1  0.1602107E-001  0.1250000E+03  0.7546771E-02  0.1235069E+00
         21   -1    0    0  502  501  0.00000000000E+00  0.00000000000E+00  0.34952823842E+03  0.34952823842E+03  0.00000000000E+00 0. -1.
         21   -1    0    0  501  502 -0.00000000000E+00 -0.00000000000E+00 -0.11175778008E+02  0.11175778008E+02  0.00000000000E+00 0. -1.
         25    1    1    2    0    0  0.00000000000E+00  0.00000000000E+00  0.33835246042E+03  0.36070401643E+03  0.12500000000E+03 0.  0.
<mgrwt>
<rscale>  0 0.12500000E+03</rscale>
<asrwt>0</asrwt>
<pdfrwt beam="1">  1       21 0.53773567E-01 0.12500000E+03</pdfrwt>
<pdfrwt beam="2">  1       21 0.17193507E-02 0.12500000E+03</pdfrwt>
<totfact> 0.50757500E+06</totfact>
</mgrwt>
</event>
<event>
 3    1  0.1602107E-001  0.1250000E+03  0.7546771E-02  0.1235069E+00
         21   -1    0    0  502  501  0.00000000000E+00  0.00000000000E+00  0.24538585940E+03  0.24538585940E+03  0.00000000000E+00 0. -1.
         21   -1    0    0  501  502 -0.00000000000E+00 -0.00000000000E+00 -0.15918806445E+02  0.15918806445E+02  0.00000000000E+00 0. -1.
         25    1    1    2    0    0  0.00000000000E+00  0.00000000000E+00  0.22946705295E+03  0.26130466584E+03  0.12500000000E+03 0.  0.
<mgrwt>
<rscale>  0 0.12500000E+03</rscale>
<asrwt>0</asrwt>
<pdfrwt beam="1">  1       21 0.37751668E-01 0.12500000E+03</pdfrwt>
<pdfrwt beam="2">  1       21 0.24490473E-02 0.12500000E+03</pdfrwt>
<totfact> 0.58829898E+06</totfact>
</mgrwt>
</event>
<event>
 3    1  0.1602107E-001  0.1250000E+03  0.7546771E-02  0.1235069E+00
         21   -1    0    0  502  501  0.00000000000E+00  0.00000000000E+00  0.67719976933E+02  0.67719976933E+02  0.00000000000E+00 0.  1.
         21   -1    0    0  501  502 -0.00000000000E+00 -0.00000000000E+00 -0.57682388225E+02  0.57682388225E+02  0.00000000000E+00 0.  1.
         25    1    1    2    0    0  0.00000000000E+00  0.00000000000E+00  0.10037588708E+02  0.12540236516E+03  0.12500000000E+03 0.  0.
<mgrwt>
<rscale>  0 0.12500000E+03</rscale>
<asrwt>0</asrwt>
<pdfrwt beam="1">  1       21 0.10418458E-01 0.12500000E+03</pdfrwt>
<pdfrwt beam="2">  1       21 0.88742136E-02 0.12500000E+03</pdfrwt>
<totfact> 0.73989079E+06</totfact>
</mgrwt>
</event>
<event>
 3    1  0.1602107E-001  0.1250000E+03  0.7546771E-02  0.1235069E+00
         21   -1    0    0  502  501  0.00000000000E+00  0.00000000000E+00  0.21160960375E+01  0.21160960375E+01  0.00000000000E+00 0. -1.
         21   -1    0    0  501  502 -0.00000000000E+00 -0.00000000000E+00 -0.18459700934E+04  0.18459700934E+04  0.00000000000E+00 0. -1.
         25    1    1    2    0    0  0.00000000000E+00  0.00000000000E+00 -0.18438539973E+04  0.18480861894E+04  0.12500000000E+03 0.  0.
<mgrwt>
<rscale>  0 0.12500000E+03</rscale>
<asrwt>0</asrwt>
<pdfrwt beam="1">  1       21 0.32555218E-03 0.12500000E+03</pdfrwt>
<pdfrwt beam="2">  1       21 0.28399632E+00 0.12500000E+03</pdfrwt>
<totfact> 0.95274670E+05</totfact>
</mgrwt>
</event>
<event>
 3    1  0.1602107E-001  0.1250000E+03  0.7546771E-02  0.1235069E+00
         21   -1    0    0  502  501  0.00000000000E+00  0.00000000000E+00  0.32144509352E+02  0.32144509352E+02  0.00000000000E+00 0. -1.
         21   -1    0    0  501  502 -0.00000000000E+00 -0.00000000000E+00 -0.12152153132E+03  0.12152153132E+03  0.00000000000E+00 0. -1.
         25    1    1    2    0    0  0.00000000000E+00  0.00000000000E+00 -0.89377021967E+02  0.15366604067E+03  0.12500000000E+03 0.  0.
<mgrwt>
<rscale>  0 0.12500000E+03</rscale>
<asrwt>0</asrwt>
<pdfrwt beam="1">  1       21 0.49453091E-02 0.12500000E+03</pdfrwt>
<pdfrwt beam="2">  1       21 0.18695620E-01 0.12500000E+03</pdfrwt>
<totfact> 0.70301659E+06</totfact>
</mgrwt>
</event>
<event>
 3    1  0.1602107E-001  0.1250000E+03  0.7546771E-02  0.1235069E+00
         21   -1    0    0  502  501  0.00000000000E+00  0.00000000000E+00  0.85382261736E+01  0.85382261736E+01  0.00000000000E+00 0. -1.
         21   -1    0    0  501  502 -0.00000000000E+00 -0.00000000000E+00 -0.45750134988E+03  0.45750134988E+03  0.00000000000E+00 0. -1.
         25    1    1    2    0    0  0.00000000000E+00  0.00000000000E+00 -0.44896312371E+03  0.46603957605E+03  0.12500000000E+03 0.  0.
<mgrwt>
<rscale>  0 0.12500000E+03</rscale>
<asrwt>0</asrwt>
<pdfrwt beam="1">  1       21 0.13135730E-02 0.12500000E+03</pdfrwt>
<pdfrwt beam="2">  1       21 0.70384838E-01 0.12500000E+03</pdfrwt>
<totfact> 0.43947790E+06</totfact>
</mgrwt>
</event>
<event>
 3    1  0.1602107E-001  0.1250000E+03  0.7546771E-02  0.1235069E+00
         21   -1    0    0  502  501  0.00000000000E+00  0.00000000000E+00  0.17846619590E+03  0.17846619590E+03  0.00000000000E+00 0. -1.
         21   -1    0    0  501  502 -0.00000000000E+00 -0.00000000000E+00 -0.21887898603E+02  0.21887898603E+02  0.00000000000E+00 0. -1.
         25    1    1    2    0    0  0.00000000000E+00  0.00000000000E+00  0.15657829730E+03  0.20035409450E+03  0.12500000000E+03 0.  0.
<mgrwt>
<rscale>  0 0.12500000E+03</rscale>
<asrwt>0</asrwt>
<pdfrwt beam="1">  1       21 0.27456337E-01 0.12500000E+03</pdfrwt>
<pdfrwt beam="2">  1       21 0.33673691E-02 0.12500000E+03</pdfrwt>
<totfact> 0.64888904E+06</totfact>
</mgrwt>
</event>
<event>
 3    1  0.1602107E-001  0.1250000E+03  0.7546771E-02  0.1235069E+00
         21   -1    0    0  502  501  0.00000000000E+00  0.00000000000E+00  0.60005872632E+02  0.60005872632E+02  0.00000000000E+00 0.  1.
         21   -1    0    0  501  502 -0.00000000000E+00 -0.00000000000E+00 -0.65097795077E+02  0.65097795077E+02  0.00000000000E+00 0.  1.
         25    1    1    2    0    0  0.00000000000E+00  0.00000000000E+00 -0.50919224452E+01  0.12510366771E+03  0.12500000000E+03 0.  0.
<mgrwt>
<rscale>  0 0.12500000E+03</rscale>
<asrwt>0</asrwt>
<pdfrwt beam="1">  1       21 0.92316728E-02 0.12500000E+03</pdfrwt>
<pdfrwt beam="2">  1       21 0.10015045E-01 0.12500000E+03</pdfrwt>
<totfact> 0.74029580E+06</totfact>
</mgrwt>
</event>
<event>
 3    1  0.1602107E-001  0.1250000E+03  0.7546771E-02  0.1235069E+00
         21   -1    0    0  502  501  0.00000000000E+00  0.00000000000E+00  0.18622182161E+02  0.18622182161E+02  0.00000000000E+00 0.  1.
         21   -1    0    0  501  502 -0.00000000000E+00 -0.00000000000E+00 -0.20976327942E+03  0.20976327942E+03  0.00000000000E+00 0.  1.
         25    1    1    2    0    0  0.00000000000E+00  0.00000000000E+00 -0.19114109726E+03  0.22838546158E+03  0.12500000000E+03 0.  0.
<mgrwt>
<rscale>  0 0.12500000E+03</rscale>
<asrwt>0</asrwt>
<pdfrwt beam="1">  1       21 0.28649512E-02 0.12500000E+03</pdfrwt>
<pdfrwt beam="2">  1       21 0.32271272E-01 0.12500000E+03</pdfrwt>
<totfact> 0.61975023E+06</totfact>
</mgrwt>
</event>
<event>
 3    1  0.1602107E-001  0.1250000E+03  0.7546771E-02  0.1235069E+00
         21   -1    0    0  502  501  0.00000000000E+00  0.00000000000E+00  0.31205464684E+03  0.31205464684E+03  0.00000000000E+00 0. -1.
         21   -1    0    0  501  502 -0.00000000000E+00 -0.00000000000E+00 -0.12517839550E+02  0.12517839550E+02  0.00000000000E+00 0. -1.
         25    1    1    2    0    0  0.00000000000E+00  0.00000000000E+00  0.29953680729E+03  0.32457248639E+03  0.12500000000E+03 0.  0.
<mgrwt>
<rscale>  0 0.12500000E+03</rscale>
<asrwt>0</asrwt>
<pdfrwt beam="1">  1       21 0.48008401E-01 0.12500000E+03</pdfrwt>
<pdfrwt beam="2">  1       21 0.19258217E-02 0.12500000E+03</pdfrwt>
<totfact> 0.53472977E+06</totfact>
</mgrwt>
</event>
<event>
 3    1  0.1602107E-001  0.1250000E+03  0.7546771E-02  0.1235069E+00
         21   -1    0    0  502  501  0.00000000000E+00  0.00000000000E+00  0.10321858976E+02  0.10321858976E+02  0.00000000000E+00 0.  1.
         21   -1    0    0  501  502 -0.00000000000E+00 -0.00000000000E+00 -0.37844442645E+03  0.37844442645E+03  0.00000000000E+00 0.  1.
         25    1    1    2    0    0  0.00000000000E+00  0.00000000000E+00 -0.36812256747E+03  0.38876628542E+03  0.12500000000E+03 0.  0.
<mgrwt>
<rscale>  0 0.12500000E+03</rscale>
<asrwt>0</asrwt>
<pdfrwt beam="1">  1       21 0.15879785E-02 0.12500000E+03</pdfrwt>
<pdfrwt beam="2">  1       21 0.58222211E-01 0.12500000E+03</pdfrwt>
<totfact> 0.48795510E+06</totfact>
</mgrwt>
</event>
<event>
 3    1  0.1602107E-001  0.1250000E+03  0.7546771E-02  0.1235069E+00
         21   -1    0    0  502  501  0.00000000000E+00  0.00000000000E+00  0.12850304011E+03  0.12850304011E+03  0.00000000000E+00 0. -1.
         21   -1    0    0  501  502 -0.00000000000E+00 -0.00000000000E+00 -0.30398113514E+02  0.30398113514E+02  0.00000000000E+00 0. -1.
         25    1    1    2    0    0  0.00000000000E+00  0.00000000000E+00  0.98104926592E+02  0.15890115362E+03  0.12500000000E+03 0.  0.
<mgrwt>
<rscale>  0 0.12500000E+03</rscale>
<asrwt>0</asrwt>
<pdfrwt beam="1">  1       21 0.19769698E-01 0.12500000E+03</pdfrwt>
<pdfrwt beam="2">  1       21 0.46766329E-02 0.12500000E+03</pdfrwt>
<totfact> 0.69654013E+06</totfact>
</mgrwt>
</event>
<event>
 3    1  0.1602107E-001  0.1250000E+03  0.7546771E-02  0.1235069E+00
         21   -1    0    0  502  501  0.00000000000E+00  0.00000000000E+00  0.70661000648E+01  0.70661000648E+01  0.00000000000E+00 0. -1.
         21   -1    0    0  501  502 -0.00000000000E+00 -0.00000000000E+00 -0.55281555089E+03  0.55281555089E+03  0.00000000000E+00 0. -1.
         25    1    1    2    0    0  0.00000000000E+00  0.00000000000E+00 -0.54574945083E+03  0.55988165096E+03  0.12500000000E+03 0.  0.
<mgrwt>
<rscale>  0 0.12500000E+03</rscale>
<asrwt>0</asrwt>
<pdfrwt beam="1">  1       21 0.10870923E-02 0.12500000E+03</pdfrwt>
<pdfrwt beam="2">  1       21 0.85048551E-01 0.12500000E+03</pdfrwt>
<totfact> 0.38972150E+06</totfact>
</mgrwt>
</event>
<event>
 3    1  0.1602107E-001  0.1250000E+03  0.7546771E-02  0.1235069E+00
         21   -1    0    0  502  501  0.00000000000E+00  0.00000000000E+00  0.34454370041E+03  0.34454370041E+03  0.00000000000E+00 0. -1.
         21   -1    0    0  501  502 -0.00000000000E+00 -0.00000000000E+00 -0.11337458776E+02  0.11337458776E+02  0.00000000000E+00 0. -1.
         25    1    1    2    0    0  0.00000000000E+00  0.00000000000E+00  0.33320624163E+03  0.35588115918E+03  0.12500000000E+03 0.  0.
<mgrwt>
<rscale>  0 0.12500000E+03</rscale>
<asrwt>0</asrwt>
<pdfrwt beam="1">  1       21 0.53006715E-01 0.12500000E+03</pdfrwt>
<pdfrwt beam="2">  1       21 0.17442247E-02 0.12500000E+03</pdfrwt>
<totfact> 0.51107007E+06</totfact>
</mgrwt>
</event>
<event>
 3    1  0.1602107E-001  0.1250000E+03  0.7546771E-02  0.1235069E+00
         21   -1    0    0  502  501  0.00000000000E+00  0.00000000000E+00  0.48379805987E+02  0.48379805987E+02  0.00000000000E+00 0.  1.
         21   -1    0    0  501  502 -0.00000000000E+00 -0.00000000000E+00 -0.80741332470E+02  0.80741332470E+02  0.00000000000E+00 0.  1.
         25    1    1    2    0    0  0.00000000000E+00  0.00000000000E+00 -0.32361526484E+02  0.12912113846E+03  0.12500000000E+03 0.  0.
<mgrwt>
<rscale>  0 0.12500000E+03</rscale>
<asrwt>0</asrwt>
<pdfrwt beam="1">  1       21 0.74430471E-02 0.12500000E+03</pdfrwt>
<pdfrwt beam="2">  1       21 0.12421743E-01 0.12500000E+03</pdfrwt>
<totfact> 0.73482617E+06</totfact>
</mgrwt>
</event>
<event>
 3    1  0.1602107E-001  0.1250000E+03  0.7546771E-02  0.1235069E+00
         21   -1    0    0  502  501  0.00000000000E+00  0.00000000000E+00  0.36012283879E+03  0.36012283879E+03  0.00000000000E+00 0.  1.
         21   -1    0    0  501  502 -0.00000000000E+00 -0.00000000000E+00 -0.10846993246E+02  0.10846993246E+02  0.00000000000E+00 0.  1.
         25    1    1    2    0    0  0.00000000000E+00  0.00000000000E+00  0.34927584554E+03  0.37096983203E+03  0.12500000000E+03 0.  0.
<mgrwt>
<rscale>  0 0.12500000E+03</rscale>
<asrwt>0</asrwt>
<pdfrwt beam="1">  1       21 0.55403505E-01 0.12500000E+03</pdfrwt>
<pdfrwt beam="2">  1       21 0.16687685E-02 0.12500000E+03</pdfrwt>
<totfact> 0.50026069E+06</totfact>
</mgrwt>
</event>
<event>
 3    1  0.1602107E-001  0.1250000E+03  0.7546771E-02  0.1235069E+00
         21   -1    0    0  502  501  0.00000000000E+00  0.00000000000E+00  0.70048415802E+02  0.70048415802E+02  0.00000000000E+00 0. -1.
         21   -1    0    0  501  502 -0.00000000000E+00 -0.00000000000E+00 -0.55765001325E+02  0.55765001325E+02  0.00000000000E+00 0. -1.
         25    1    1    2    0    0  0.00000000000E+00  0.00000000000E+00  0.14283414477E+02  0.12581341713E+03  0.12500000000E+03 0.  0.
<mgrwt>
<rscale>  0 0.12500000E+03</rscale>
<asrwt>0</asrwt>
<pdfrwt beam="1">  1       21 0.10776679E-01 0.12500000E+03</pdfrwt>
<pdfrwt beam="2">  1       21 0.85792309E-02 0.12500000E+03</pdfrwt>
<totfact> 0.73931814E+06</totfact>
</mgrwt>
</event>
<event>
 3    1  0.1602107E-001  0.1250000E+03  0.7546771E-02  0.1235069E+00
         21   -1    0    0  502  501  0.00000000000E+00  0.00000000000E+00  0.11790589575E+03  0.11790589575E+03  0.00000000000E+00 0.  1.
         21   -1    0    0  501  502 -0.00000000000E+00 -0.00000000000E+00 -0.33130234710E+02  0.33130234710E+02  0.00000000000E+00 0.  1.
         25    1    1    2    0    0  0.00000000000E+00  0.00000000000E+00  0.84775661042E+02  0.15103613046E+03  0.12500000000E+03 0.  0.
<mgrwt>
<rscale>  0 0.12500000E+03</rscale>
<asrwt>0</asrwt>
<pdfrwt beam="1">  1       21 0.18139368E-01 0.12500000E+03</pdfrwt>
<pdfrwt beam="2">  1       21 0.50969592E-02 0.12500000E+03</pdfrwt>
<totfact> 0.70629286E+06</totfact>
</mgrwt>
</event>
<event>
 3    1  0.1602107E-001  0.1250000E+03  0.7546771E-02  0.1235069E+00
         21   -1    0    0  502  501  0.00000000000E+00  0.00000000000E+00  0.15182203709E+02  0.15182203709E+02  0.00000000000E+00 0.  1.
         21   -1    0    0  501  502 -0.00000000000E+00 -0.00000000000E+00 -0.25729137053E+03  0.25729137053E+03  0.00000000000E+00 0.  1.
         25    1    1    2    0    0  0.00000000000E+00  0.00000000000E+00 -0.24210916682E+03  0.27247357424E+03  0.12500000000E+03 0.  0.
<mgrwt>
<rscale>  0 0.12500000E+03</rscale>
<asrwt>0</asrwt>
<pdfrwt beam="1">  1       21 0.23357237E-02 0.12500000E+03</pdfrwt>
<pdfrwt beam="2">  1       21 0.39583288E-01 0.12500000E+03</pdfrwt>
<totfact> 0.57824218E+06</totfact>
</mgrwt>
</event>
<event>
 3    1  0.1602107E-001  0.1250000E+03  0.7546771E-02  0.1235069E+00
         21   -1    0    0  502  501  0.00000000000E+00  0.00000000000E+00  0.18147923948E+02  0.18147923948E+02  0.00000000000E+00 0. -1.
         21   -1    0    0  501  502 -0.00000000000E+00 -0.00000000000E+00 -0.21524500605E+03  0.21524500605E+03  0.00000000000E+00 0. -1.
         25    1    1    2    0    0  0.00000000000E+00  0.00000000000E+00 -0.19709708210E+03  0.23339293000E+03  0.12500000000E+03 0.  0.
<mgrwt>
<rscale>  0 0.12500000E+03</rscale>
<asrwt>0</asrwt>
<pdfrwt beam="1">  1       21 0.27919881E-02 0.12500000E+03</pdfrwt>
<pdfrwt beam="2">  1       21 0.33114618E-01 0.12500000E+03</pdfrwt>
<totfact> 0.61477934E+06</totfact>
</mgrwt>
</event>
<event>
 3    1  0.1602107E-001  0.1250000E+03  0.7546771E-02  0.1235069E+00
         21   -1    0    0  502  501  0.00000000000E+00  0.00000000000E+00  0.29005569205E+03  0.29005569205E+03  0.00000000000E+00 0.  1.
         21   -1    0    0  501  502 -0.00000000000E+00 -0.00000000000E+00 -0.13467241317E+02  0.13467241317E+02  0.00000000000E+00 0.  1.
         25    1    1    2    0    0  0.00000000000E+00  0.00000000000E+00  0.27658845073E+03  0.30352293336E+03  0.12500000000E+03 0.  0.
<mgrwt>
<rscale>  0 0.12500000E+03</rscale>
<asrwt>0</asrwt>
<pdfrwt beam="1">  1       21 0.44623948E-01 0.12500000E+03</pdfrwt>
<pdfrwt beam="2">  1       21 0.20718835E-02 0.12500000E+03</pdfrwt>
<totfact> 0.55164671E+06</totfact>
</mgrwt>
</event>
<event>
 3    1  0.1602107E-001  0.1250000E+03  0.7546771E-02  0.1235069E+00
         21   -1    0    0  502  501  0.00000000000E+00  0.00000000000E+00  0.41354922693E+02  0.41354922693E+02  0.00000000000E+00 0. -1.
         21   -1    0    0  501  502 -0.00000000000E+00 -0.00000000000E+00 -0.94456711454E+02  0.94456711454E+02  0.00000000000E+00 0. -1.
         25    1    1    2    0    0  0.00000000000E+00  0.00000000000E+00 -0.53101788761E+02  0.13581163415E+03  0.12500000000E+03 0.  0.
<mgrwt>
<rscale>  0 0.12500000E+03</rscale>
<asrwt>0</asrwt>
<pdfrwt beam="1">  1       21 0.63622959E-02 0.12500000E+03</pdfrwt>
<pdfrwt beam="2">  1       21 0.14531802E-01 0.12500000E+03</pdfrwt>
<totfact> 0.72589184E+06</totfact>
</mgrwt>
</event>
<event>
 3    1  0.1602107E-001  0.1250000E+03  0.7546771E-02  0.1235069E+00
         21   -1    0    0  502  501  0.00000000000E+00  0.00000000000E+00  0.16650723162E+03  0.16650723162E+03  0.00000000000E+00 0.  1.
         21   -1    0    0  501  502 -0.00000000000E+00 -0.00000000000E+00 -0.23459942022E+02  0.23459942022E+02  0.00000000000E+00 0.  1.
         25    1    1    2    0    0  0.00000000000E+00  0.00000000000E+00  0.14304728960E+03  0.18996717364E+03  0.12500000000E+03 0.  0.
<mgrwt>
<rscale>  0 0.12500000E+03</rscale>
<asrwt>0</asrwt>
<pdfrwt beam="1">  1       21 0.25616496E-01 0.12500000E+03</pdfrwt>
<pdfrwt beam="2">  1       21 0.36092219E-02 0.12500000E+03</pdfrwt>
<totfact> 0.66026113E+06</totfact>
</mgrwt>
</event>
<event>
 3    1  0.1602107E-001  0.1250000E+03  0.7546771E-02  0.1235069E+00
         21   -1    0    0  502  501  0.00000000000E+00  0.00000000000E+00  0.91148108017E+02  0.91148108017E+02  0.00000000000E+00 0. -1.
         21   -1    0    0  501  502 -0.00000000000E+00 -0.00000000000E+00 -0.42856073318E+02  0.42856073318E+02  0.00000000000E+00 0. -1.
         25    1    1    2    0    0  0.00000000000E+00  0.00000000000E+00  0.48292034699E+02  0.13400418134E+03  0.12500000000E+03 0.  0.
<mgrwt>
<rscale>  0 0.12500000E+03</rscale>
<asrwt>0</asrwt>
<pdfrwt beam="1">  1       21 0.14022786E-01 0.12500000E+03</pdfrwt>
<pdfrwt beam="2">  1       21 0.65932421E-02 0.12500000E+03</pdfrwt>
<totfact> 0.72828597E+06</totfact>
</mgrwt>
</event>
<event>
 3    1  0.1602107E-001  0.1250000E+03  0.7546771E-02  0.1235069E+00
         21   -1    0    0  502  501  0.00000000000E+00  0.00000000000E+00  0.16806350813E+03  0.16806350813E+03  0.00000000000E+00 0.  1.
         21   -1    0    0  501  502 -0.00000000000E+00 -0.00000000000E+00 -0.23242701783E+02  0.23242701783E+02  0.00000000000E+00 0.  1.
         25    1    1    2    0    0  0.00000000000E+00  0.00000000000E+00  0.14482080634E+03  0.19130620991E+03  0.12500000000E+03 0.  0.
<mgrwt>
<rscale>  0 0.12500000E+03</rscale>
<asrwt>0</asrwt>
<pdfrwt beam="1">  1       21 0.25855924E-01 0.12500000E+03</pdfrwt>
<pdfrwt beam="2">  1       21 0.35758004E-02 0.12500000E+03</pdfrwt>
<totfact> 0.65877585E+06</totfact>
</mgrwt>
</event>
<event>
 3    1  0.1602107E-001  0.1250000E+03  0.7546771E-02  0.1235069E+00
         21   -1    0    0  502  501  0.00000000000E+00  0.00000000000E+00  0.31746708903E+03  0.31746708903E+03  0.00000000000E+00 0.  1.
         21   -1    0    0  501  502 -0.00000000000E+00 -0.00000000000E+00 -0.12304425041E+02  0.12304425041E+02  0.00000000000E+00 0.  1.
         25    1    1    2    0    0  0.00000000000E+00  0.00000000000E+00  0.30516266399E+03  0.32977151407E+03  0.12500000000E+03 0.  0.
<mgrwt>
<rscale>  0 0.12500000E+03</rscale>
<asrwt>0</asrwt>
<pdfrwt beam="1">  1       21 0.48841084E-01 0.12500000E+03</pdfrwt>
<pdfrwt beam="2">  1       21 0.18929887E-02 0.12500000E+03</pdfrwt>
<totfact> 0.53067975E+06</totfact>
</mgrwt>
</event>
<event>
 3    1  0.1602107E-001  0.1250000E+03  0.7546771E-02  0.1235069E+00
         21   -1    0    0  502  501  0.00000000000E+00  0.00000000000E+00  0.36128270143E+03  0.36128270143E+03  0.00000000000E+00 0.  1.
         21   -1    0    0  501  502 -0.00000000000E+00 -0.00000000000E+00 -0.10812170039E+02  0.10812170039E+02  0.00000000000E+00 0.  1.
         25    1    1    2    0    0  0.00000000000E+00  0.00000000000E+00  0.35047053139E+03  0.37209487147E+03  0.12500000000E+03 0.  0.
<mgrwt>
<rscale>  0 0.12500000E+03</rscale>
<asrwt>0</asrwt>
<pdfrwt beam="1">  1       21 0.55581945E-01 0.12500000E+03</pdfrwt>
<pdfrwt beam="2">  1       21 0.16634111E-02 0.12500000E+03</pdfrwt>
<totfact> 0.49946926E+06</totfact>
</mgrwt>
</event>
<event>
 3    1  0.1602107E-001  0.1250000E+03  0.7546771E-02  0.1235069E+00
         21   -1    0    0  502  501  0.00000000000E+00  0.00000000000E+00  0.16400976566E+02  0.16400976566E+02  0.00000000000E+00 0. -1.
         21   -1    0    0  501  502 -0.00000000000E+00 -0.00000000000E+00 -0.23817179326E+03  0.23817179326E+03  0.00000000000E+00 0. -1.
         25    1    1    2    0    0  0.00000000000E+00  0.00000000000E+00 -0.22177081669E+03  0.25457276983E+03  0.12500000000E+03 0.  0.
<mgrwt>
<rscale>  0 0.12500000E+03</rscale>
<asrwt>0</asrwt>
<pdfrwt beam="1">  1       21 0.25232271E-02 0.12500000E+03</pdfrwt>
<pdfrwt beam="2">  1       21 0.36641815E-01 0.12500000E+03</pdfrwt>
<totfact> 0.59450321E+06</totfact>
</mgrwt>
</event>
<event>
 3    1  0.1602107E-001  0.1250000E+03  0.7546771E-02  0.1235069E+00
         21   -1    0    0  502  501  0.00000000000E+00  0.00000000000E+00  0.51188780967E+02  0.51188780967E+02  0.00000000000E+00 0.  1.
         21   -1    0    0  501  502 -0.00000000000E+00 -0.00000000000E+00 -0.76310666639E+02  0.76310666639E+02  0.00000000000E+00 0.  1.
         25    1    1    2    0    0  0.00000000000E+00  0.00000000000E+00 -0.25121885672E+02  0.12749944761E+03  0.12500000000E+03 0.  0.
<mgrwt>
<rscale>  0 0.12500000E+03</rscale>
<asrwt>0</asrwt>
<pdfrwt beam="1">  1       21 0.78751971E-02 0.12500000E+03</pdfrwt>
<pdfrwt beam="2">  1       21 0.11740103E-01 0.12500000E+03</pdfrwt>
<totfact> 0.73701293E+06</totfact>
</mgrwt>
</event>
<event>
 3    1  0.1602107E-001  0.1250000E+03  0.7546771E-02  0.1235069E+00
         21   -1    0    0  502  501  0.00000000000E+00  0.00000000000E+00  0.37381668793E+03  0.37381668793E+03  0.00000000000E+00 0. -1.
         21   -1    0    0  501  502 -0.00000000000E+00 -0.00000000000E+00 -0.10449640495E+02  0.10449640495E+02  0.00000000000E+00 0. -1.
         25    1    1    2    0    0  0.00000000000E+00  0.00000000000E+00  0.36336704743E+03  0.38426632842E+03  0.12500000000E+03 0.  0.
<mgrwt>
<rscale>  0 0.12500000E+03</rscale>
<asrwt>0</asrwt>
<pdfrwt beam="1">  1       21 0.57510250E-01 0.12500000E+03</pdfrwt>
<pdfrwt beam="2">  1       21 0.16076373E-02 0.12500000E+03</pdfrwt>
<totfact> 0.49102765E+06</totfact>
</mgrwt>
</event>
<event>
 3    1  0.1602107E-001  0.1250000E+03  0.7546771E-02  0.1235069E+00
         21   -1    0    0  502  501  0.00000000000E+00  0.00000000000E+00  0.11499870990E+04  0.11499870990E+04  0.00000000000E+00 0.  1.
         21   -1    0    0  501  502 -0.00000000000E+00 -0.00000000000E+00 -0.33967772363E+01  0.33967772363E+01  0.00000000000E+00 0.  1.
         25    1    1    2    0    0  0.00000000000E+00  0.00000000000E+00  0.11465903218E+04  0.11533838763E+04  0.12500000000E+03 0.  0.
<mgrwt>
<rscale>  0 0.12500000E+03</rscale>
<asrwt>0</asrwt>
<pdfrwt beam="1">  1       21 0.17692078E+00 0.12500000E+03</pdfrwt>
<pdfrwt beam="2">  1       21 0.52258203E-03 0.12500000E+03</pdfrwt>
<totfact> 0.20097877E+06</totfact>
</mgrwt>
</event>
<event>
 3    1  0.1602107E-001  0.1250000E+03  0.7546771E-02  0.1235069E+00
         21   -1    0    0  502  501  0.00000000000E+00  0.00000000000E+00  0.10534274933E+04  0.10534274933E+04  0.00000000000E+00 0.  1.
         21   -1    0    0  501  502 -0.00000000000E+00 -0.00000000000E+00 -0.37081337109E+01  0.37081337109E+01  0.00000000000E+00 0.  1.
         25    1    1    2    0    0  0.00000000000E+00  0.00000000000E+00  0.10497193596E+04  0.10571356270E+04  0.12500000000E+03 0.  0.
<mgrwt>
<rscale>  0 0.12500000E+03</rscale>
<asrwt>0</asrwt>
<pdfrwt beam="1">  1       21 0.16206553E+00 0.12500000E+03</pdfrwt>
<pdfrwt beam="2">  1       21 0.57048295E-03 0.12500000E+03</pdfrwt>
<totfact> 0.22230790E+06</totfact>
</mgrwt>
</event>
<event>
 3    1  0.1602107E-001  0.1250000E+03  0.7546771E-02  0.1235069E+00
         21   -1    0    0  502  501  0.00000000000E+00  0.00000000000E+00  0.47312727525E+02  0.47312727525E+02  0.00000000000E+00 0.  1.
         21   -1    0    0  501  502 -0.00000000000E+00 -0.00000000000E+00 -0.82562350648E+02  0.82562350648E+02  0.00000000000E+00 0.  1.
         25    1    1    2    0    0  0.00000000000E+00  0.00000000000E+00 -0.35249623123E+02  0.12987507817E+03  0.12500000000E+03 0.  0.
<mgrwt>
<rscale>  0 0.12500000E+03</rscale>
<asrwt>0</asrwt>
<pdfrwt beam="1">  1       21 0.72788812E-02 0.12500000E+03</pdfrwt>
<pdfrwt beam="2">  1       21 0.12701900E-01 0.12500000E+03</pdfrwt>
<totfact> 0.73381615E+06</totfact>
</mgrwt>
</event>
<event>
 3    1  0.1602107E-001  0.1250000E+03  0.7546771E-02  0.1235069E+00
         21   -1    0    0  502  501  0.00000000000E+00  0.00000000000E+00  0.46333664345E+01  0.46333664345E+01  0.00000000000E+00 0.  1.
         21   -1    0    0  501  502 -0.00000000000E+00 -0.00000000000E+00 -0.84306951656E+03  0.84306951656E+03  0.00000000000E+00 0.  1.
         25    1    1    2    0    0  0.00000000000E+00  0.00000000000E+00 -0.83843615013E+03  0.84770288300E+03  0.12500000000E+03 0.  0.
<mgrwt>
<rscale>  0 0.12500000E+03</rscale>
<asrwt>0</asrwt>
<pdfrwt beam="1">  1       21 0.71282602E-03 0.12500000E+03</pdfrwt>
<pdfrwt beam="2">  1       21 0.12970293E+00 0.12500000E+03</pdfrwt>
<totfact> 0.27842040E+06</totfact>
</mgrwt>
</event>
<event>
 3    1  0.1602107E-001  0.1250000E+03  0.7546771E-02  0.1235069E+00
         21   -1    0    0  502  501  0.00000000000E+00  0.00000000000E+00  0.55855810499E+02  0.55855810499E+02  0.00000000000E+00 0. -1.
         21   -1    0    0  501  502 -0.00000000000E+00 -0.00000000000E+00 -0.69934532596E+02  0.69934532596E+02  0.00000000000E+00 0. -1.
         25    1    1    2    0    0  0.00000000000E+00  0.00000000000E+00 -0.14078722097E+02  0.12579034309E+03  0.12500000000E+03 0.  0.
<mgrwt>
<rscale>  0 0.12500000E+03</rscale>
<asrwt>0</asrwt>
<pdfrwt beam="1">  1       21 0.85932016E-02 0.12500000E+03</pdfrwt>
<pdfrwt beam="2">  1       21 0.10759159E-01 0.12500000E+03</pdfrwt>
<totfact> 0.73935009E+06</totfact>
</mgrwt>
</event>
<event>
 3    1  0.1602107E-001  0.1250000E+03  0.7546771E-02  0.1235069E+00
         21   -1    0    0  502  501  0.00000000000E+00  0.00000000000E+00  0.63236768434E+02  0.63236768434E+02  0.00000000000E+00 0.  1.
         21   -1    0    0  501  502 -0.00000000000E+00 -0.00000000000E+00 -0.61771815618E+02  0.61771815618E+02  0.00000000000E+00 0.  1.
         25    1    1    2    0    0  0.00000000000E+00  0.00000000000E+00  0.14649528166E+01  0.12500858405E+03  0.12500000000E+03 0.  0.
<mgrwt>
<rscale>  0 0.12500000E+03</rscale>
<asrwt>0</asrwt>
<pdfrwt beam="1">  1       21 0.97287336E-02 0.12500000E+03</pdfrwt>
<pdfrwt beam="2">  1       21 0.95033562E-02 0.12500000E+03</pdfrwt>
<totfact> 0.74042422E+06</totfact>
</mgrwt>
</event>
<event>
 3    1  0.1602107E-001  0.1250000E+03  0.7546771E-02  0.1235069E+00
         21   -1    0    0  502  501  0.00000000000E+00  0.00000000000E+00  0.71296551788E+01  0.71296551788E+01  0.00000000000E+00 0. -1.
         21   -1    0    0  501  502 -0.00000000000E+00 -0.00000000000E+00 -0.54788764702E+03  0.54788764702E+03  0.00000000000E+00 0. -1.
         25    1    1    2    0    0  0.00000000000E+00  0.00000000000E+00 -0.54075799184E+03  0.55501730220E+03  0.12500000000E+03 0.  0.
<mgrwt>
<rscale>  0 0.12500000E+03</rscale>
<asrwt>0</asrwt>
<pdfrwt beam="1">  1       21 0.10968697E-02 0.12500000E+03</pdfrwt>
<pdfrwt beam="2">  1       21 0.84290435E-01 0.12500000E+03</pdfrwt>
<totfact> 0.39209279E+06</totfact>
</mgrwt>
</event>
<event>
 3    1  0.1602107E-001  0.1250000E+03  0.7546771E-02  0.1235069E+00
         21   -1    0    0  502  501  0.00000000000E+00  0.00000000000E+00  0.46457744208E+03  0.46457744208E+03  0.00000000000E+00 0.  1.
         21   -1    0    0  501  502 -0.00000000000E+00 -0.00000000000E+00 -0.84081783707E+01  0.84081783707E+01  0.00000000000E+00 0.  1.
         25    1    1    2    0    0  0.00000000000E+00  0.00000000000E+00  0.45616926371E+03  0.47298562045E+03  0.12500000000E+03 0.  0.
<mgrwt>
<rscale>  0 0.12500000E+03</rscale>
<asrwt>0</asrwt>
<pdfrwt beam="1">  1       21 0.71473433E-01 0.12500000E+03</pdfrwt>
<pdfrwt beam="2">  1       21 0.12935663E-02 0.12500000E+03</pdfrwt>
<totfact> 0.43548067E+06</totfact>
</mgrwt>
</event>
<event>
 3    1  0.1602107E-001  0.1250000E+03  0.7546771E-02  0.1235069E+00
         21   -1    0    0  502  501  0.00000000000E+00  0.00000000000E+00  0.59449330402E+02  0.59449330402E+02  0.00000000000E+00 0.  1.
         21   -1    0    0  501  502 -0.00000000000E+00 -0.00000000000E+00 -0.65707216104E+02  0.65707216104E+02  0.00000000000E+00 0.  1.
         25    1    1    2    0    0  0.00000000000E+00  0.00000000000E+00 -0.62578857021E+01  0.12515654651E+03  0.12500000000E+03 0.  0.
<mgrwt>
<rscale>  0 0.12500000E+03</rscale>
<asrwt>0</asrwt>
<pdfrwt beam="1">  1       21 0.91460508E-02 0.12500000E+03</pdfrwt>
<pdfrwt beam="2">  1       21 0.10108803E-01 0.12500000E+03</pdfrwt>
<totfact> 0.74022439E+06</totfact>
</mgrwt>
</event>
<event>
 3    1  0.1602107E-001  0.1250000E+03  0.7546771E-02  0.1235069E+00
         21   -1    0    0  502  501  0.00000000000E+00  0.00000000000E+00  0.78090013257E+02  0.78090013257E+02  0.00000000000E+00 0.  1.
         21   -1    0    0  501  502 -0.00000000000E+00 -0.00000000000E+00 -0.50022401548E+02  0.50022401548E+02  0.00000000000E+00 0.  1.
         25    1    1    2    0    0  0.00000000000E+00  0.00000000000E+00  0.28067611710E+02  0.12811241480E+03  0.12500000000E+03 0.  0.
<mgrwt>
<rscale>  0 0.12500000E+03</rscale>
<asrwt>0</asrwt>
<pdfrwt beam="1">  1       21 0.12013848E-01 0.12500000E+03</pdfrwt>
<pdfrwt beam="2">  1       21 0.76957541E-02 0.12500000E+03</pdfrwt>
<totfact> 0.73618379E+06</totfact>
</mgrwt>
</event>
<event>
 3    1  0.1602107E-001  0.1250000E+03  0.7546771E-02  0.1235069E+00
         21   -1    0    0  502  501  0.00000000000E+00  0.00000000000E+00  0.11092390181E+03  0.11092390181E+03  0.00000000000E+00 0.  1.
         21   -1    0    0  501  502 -0.00000000000E+00 -0.00000000000E+00 -0.35215584164E+02  0.35215584164E+02  0.00000000000E+00 0.  1.
         25    1    1    2    0    0  0.00000000000E+00  0.00000000000E+00  0.75708317646E+02  0.14613948597E+03  0.12500000000E+03 0.  0.
<mgrwt>
<rscale>  0 0.12500000E+03</rscale>
<asrwt>0</asrwt>
<pdfrwt beam="1">  1       21 0.17065216E-01 0.12500000E+03</pdfrwt>
<pdfrwt beam="2">  1       21 0.54177822E-02 0.12500000E+03</pdfrwt>
<totfact> 0.71247590E+06</totfact>
</mgrwt>
</event>
<event>
 3    1  0.1602107E-001  0.1250000E+03  0.7546771E-02  0.1235069E+00
         21   -1    0    0  502  501  0.00000000000E+00  0.00000000000E+00  0.10419990856E+02  0.10419990856E+02  0.00000000000E+00 0. -1.
         21   -1    0    0  501  502 -0.00000000000E+00 -0.00000000000E+00 -0.37488036736E+03  0.37488036736E+03  0.00000000000E+00 0. -1.
         25    1    1    2    0    0  0.00000000000E+00  0.00000000000E+00 -0.36446037651E+03  0.38530035822E+03  0.12500000000E+03 0.  0.
<mgrwt>
<rscale>  0 0.12500000E+03</rscale>
<asrwt>0</asrwt>
<pdfrwt beam="1">  1       21 0.16030757E-02 0.12500000E+03</pdfrwt>
<pdfrwt beam="2">  1       21 0.57673897E-01 0.12500000E+03</pdfrwt>
<totfact> 0.49031895E+06</totfact>
</mgrwt>
</event>
<event>
 3    1  0.1602107E-001  0.1250000E+03  0.7546771E-02  0.1235069E+00
         21   -1    0    0  502  501  0.00000000000E+00  0.00000000000E+00  0.12604123985E+02  0.12604123985E+02  0.00000000000E+00 0. -1.
         21   -1    0    0  501  502 -0.00000000000E+00 -0.00000000000E+00 -0.30991840485E+03  0.30991840485E+03  0.00000000000E+00 0. -1.
         25    1    1    2    0    0  0.00000000000E+00  0.00000000000E+00 -0.29731428086E+03  0.32252252883E+03  0.12500000000E+03 0.  0.
<mgrwt>
<rscale>  0 0.12500000E+03</rscale>
<asrwt>0</asrwt>
<pdfrwt beam="1">  1       21 0.19390962E-02 0.12500000E+03</pdfrwt>
<pdfrwt beam="2">  1       21 0.47679751E-01 0.12500000E+03</pdfrwt>
<totfact> 0.53634050E+06</totfact>
</mgrwt>
</event>
<event>
 3    1  0.1602107E-001  0.1250000E+03  0.7546771E-02  0.1235069E+00
         21   -1    0    0  502  501  0.00000000000E+00  0.00000000000E+00  0.57912569854E+01  0.57912569854E+01  0.00000000000E+00 0.  1.
         21   -1    0    0  501  502 -0.00000000000E+00 -0.00000000000E+00 -0.67450814389E+03  0.67450814389E+03  0.00000000000E+00 0.  1.
         25    1    1    2    0    0  0.00000000000E+00  0.00000000000E+00 -0.66871688690E+03  0.68029940087E+03  0.12500000000E+03 0.  0.
<mgrwt>
<rscale>  0 0.12500000E+03</rscale>
<asrwt>0</asrwt>
<pdfrwt beam="1">  1       21 0.89096311E-03 0.12500000E+03</pdfrwt>
<pdfrwt beam="2">  1       21 0.10377043E+00 0.12500000E+03</pdfrwt>
<totfact> 0.33683611E+06</totfact>
</mgrwt>
</event>
<event>
 3    1  0.1602107E-001  0.1250000E+03  0.7546771E-02  0.1235069E+00
         21   -1    0    0  502  501  0.00000000000E+00  0.00000000000E+00  0.44993190402E+02  0.44993190402E+02  0.00000000000E+00 0. -1.
         21   -1    0    0  501  502 -0.00000000000E+00 -0.00000000000E+00 -0.86818693343E+02  0.86818693343E+02  0.00000000000E+00 0. -1.
         25    1    1    2    0    0  0.00000000000E+00  0.00000000000E+00 -0.41825502942E+02  0.13181188374E+03  0.12500000000E+03 0.  0.
<mgrwt>
<rscale>  0 0.12500000E+03</rscale>
<asrwt>0</asrwt>
<pdfrwt beam="1">  1       21 0.69220293E-02 0.12500000E+03</pdfrwt>
<pdfrwt beam="2">  1       21 0.13356722E-01 0.12500000E+03</pdfrwt>
<totfact> 0.73121472E+06</totfact>
</mgrwt>
</event>
<event>
 3    1  0.1602107E-001  0.1250000E+03  0.7546771E-02  0.1235069E+00
         21   -1    0    0  502  501  0.00000000000E+00  0.00000000000E+00  0.38983532823E+03  0.38983532823E+03  0.00000000000E+00 0.  1.
         21   -1    0    0  501  502 -0.00000000000E+00 -0.00000000000E+00 -0.10020256547E+02  0.10020256547E+02  0.00000000000E+00 0.  1.
         25    1    1    2    0    0  0.00000000000E+00  0.00000000000E+00  0.37981507168E+03  0.39985558478E+03  0.12500000000E+03 0.  0.
<mgrwt>
<rscale>  0 0.12500000E+03</rscale>
<asrwt>0</asrwt>
<pdfrwt beam="1">  1       21 0.59974654E-01 0.12500000E+03</pdfrwt>
<pdfrwt beam="2">  1       21 0.15415782E-02 0.12500000E+03</pdfrwt>
<totfact> 0.48050936E+06</totfact>
</mgrwt>
</event>
<event>
 3    1  0.1602107E-001  0.1250000E+03  0.7546771E-02  0.1235069E+00
         21   -1    0    0  502  501  0.00000000000E+00  0.00000000000E+00  0.23487215928E+02  0.23487215928E+02  0.00000000000E+00 0.  1.
         21   -1    0    0  501  502 -0.00000000000E+00 -0.00000000000E+00 -0.16631387952E+03  0.16631387952E+03  0.00000000000E+00 0.  1.
         25    1    1    2    0    0  0.00000000000E+00  0.00000000000E+00 -0.14282666359E+03  0.18980109545E+03  0.12500000000E+03 0.  0.
<mgrwt>
<rscale>  0 0.12500000E+03</rscale>
<asrwt>0</asrwt>
<pdfrwt beam="1">  1       21 0.36134177E-02 0.12500000E+03</pdfrwt>
<pdfrwt beam="2">  1       21 0.25586752E-01 0.12500000E+03</pdfrwt>
<totfact> 0.66044576E+06</totfact>
</mgrwt>
</event>
<event>
 3    1  0.1602107E-001  0.1250000E+03  0.7546771E-02  0.1235069E+00
         21   -1    0    0  502  501  0.00000000000E+00  0.00000000000E+00  0.93438383450E+02  0.93438383450E+02  0.00000000000E+00 0.  1.
         21   -1    0    0  501  502 -0.00000000000E+00 -0.00000000000E+00 -0.41805624796E+02  0.41805624796E+02  0.00000000000E+00 0.  1.
         25    1    1    2    0    0  0.00000000000E+00  0.00000000000E+00  0.51632758654E+02  0.13524400825E+03  0.12500000000E+03 0.  0.
<mgrwt>
<rscale>  0 0.12500000E+03</rscale>
<asrwt>0</asrwt>
<pdfrwt beam="1">  1       21 0.14375136E-01 0.12500000E+03</pdfrwt>
<pdfrwt beam="2">  1       21 0.64316346E-02 0.12500000E+03</pdfrwt>
<totfact> 0.72664180E+06</totfact>
</mgrwt>
</event>
<event>
 3    1  0.1602107E-001  0.1250000E+03  0.7546771E-02  0.1235069E+00
         21   -1    0    0  502  501  0.00000000000E+00  0.00000000000E+00  0.82460475713E+02  0.82460475713E+02  0.00000000000E+00 0. -1.
         21   -1    0    0  501  502 -0.00000000000E+00 -0.00000000000E+00 -0.47371179540E+02  0.47371179540E+02  0.00000000000E+00 0. -1.
         25    1    1    2    0    0  0.00000000000E+00  0.00000000000E+00  0.35089296173E+02  0.12983165525E+03  0.12500000000E+03 0.  0.
<mgrwt>
<rscale>  0 0.12500000E+03</rscale>
<asrwt>0</asrwt>
<pdfrwt beam="1">  1       21 0.12686227E-01 0.12500000E+03</pdfrwt>
<pdfrwt beam="2">  1       21 0.72878738E-02 0.12500000E+03</pdfrwt>
<totfact> 0.73387423E+06</totfact>
</mgrwt>
</event>
<event>
 3    1  0.1602107E-001  0.1250000E+03  0.7546771E-02  0.1235069E+00
         21   -1    0    0  502  501  0.00000000000E+00  0.00000000000E+00  0.49144267919E+01  0.49144267919E+01  0.00000000000E+00 0. -1.
         21   -1    0    0  501  502 -0.00000000000E+00 -0.00000000000E+00 -0.79485363510E+03  0.79485363510E+03  0.00000000000E+00 0. -1.
         25    1    1    2    0    0  0.00000000000E+00  0.00000000000E+00 -0.78993920831E+03  0.79976806189E+03  0.12500000000E+03 0.  0.
<mgrwt>
<rscale>  0 0.12500000E+03</rscale>
<asrwt>0</asrwt>
<pdfrwt beam="1">  1       21 0.75606556E-03 0.12500000E+03</pdfrwt>
<pdfrwt beam="2">  1       21 0.12228519E+00 0.12500000E+03</pdfrwt>
<totfact> 0.29370498E+06</totfact>
</mgrwt>
</event>
<event>
 3    1  0.1602107E-001  0.1250000E+03  0.7546771E-02  0.1235069E+00
         21   -1    0    0  502  501  0.00000000000E+00  0.00000000000E+00  0.56431459504E+01  0.56431459504E+01  0.00000000000E+00 0. -1.
         21   -1    0    0  501  502 -0.00000000000E+00 -0.00000000000E+00 -0.69221140732E+03  0.69221140732E+03  0.00000000000E+00 0. -1.
         25    1    1    2    0    0  0.00000000000E+00  0.00000000000E+00 -0.68656826136E+03  0.69785455327E+03  0.12500000000E+03 0.  0.
<mgrwt>
<rscale>  0 0.12500000E+03</rscale>
<asrwt>0</asrwt>
<pdfrwt beam="1">  1       21 0.86817676E-03 0.12500000E+03</pdfrwt>
<pdfrwt beam="2">  1       21 0.10649401E+00 0.12500000E+03</pdfrwt>
<totfact> 0.32993032E+06</totfact>
</mgrwt>
</event>
<event>
 3    1  0.1602107E-001  0.1250000E+03  0.7546771E-02  0.1235069E+00
         21   -1    0    0  502  501  0.00000000000E+00  0.00000000000E+00  0.19363544749E+02  0.19363544749E+02  0.00000000000E+00 0. -1.
         21   -1    0    0  501  502 -0.00000000000E+00 -0.00000000000E+00 -0.20173217511E+03  0.20173217511E+03  0.00000000000E+00 0. -1.
         25    1    1    2    0    0  0.00000000000E+00  0.00000000000E+00 -0.18236863036E+03  0.22109571985E+03  0.12500000000E+03 0.  0.
<mgrwt>
<rscale>  0 0.12500000E+03</rscale>
<asrwt>0</asrwt>
<pdfrwt beam="1">  1       21 0.29790067E-02 0.12500000E+03</pdfrwt>
<pdfrwt beam="2">  1       21 0.31035721E-01 0.12500000E+03</pdfrwt>
<totfact> 0.62710712E+06</totfact>
</mgrwt>
</event>
<event>
 3    1  0.1602107E-001  0.1250000E+03  0.7546771E-02  0.1235069E+00
         21   -1    0    0  502  501  0.00000000000E+00  0.00000000000E+00  0.84988134055E+03  0.84988134055E+03  0.00000000000E+00 0. -1.
         21   -1    0    0  501  502 -0.00000000000E+00 -0.00000000000E+00 -0.45962298660E+01  0.45962298660E+01  0.00000000000E+00 0. -1.
         25    1    1    2    0    0  0.00000000000E+00  0.00000000000E+00  0.84528511068E+03  0.85447757041E+03  0.12500000000E+03 0.  0.
<mgrwt>
<rscale>  0 0.12500000E+03</rscale>
<asrwt>0</asrwt>
<pdfrwt beam="1">  1       21 0.13075085E+00 0.12500000E+03</pdfrwt>
<pdfrwt beam="2">  1       21 0.70711296E-03 0.12500000E+03</pdfrwt>
<totfact> 0.27635445E+06</totfact>
</mgrwt>
</event>
<event>
 3    1  0.1602107E-001  0.1250000E+03  0.7546771E-02  0.1235069E+00
         21   -1    0    0  502  501  0.00000000000E+00  0.00000000000E+00  0.73549063149E+02  0.73549063149E+02  0.00000000000E+00 0. -1.
         21   -1    0    0  501  502 -0.00000000000E+00 -0.00000000000E+00 -0.53110805668E+02  0.53110805668E+02  0.00000000000E+00 0. -1.
         25    1    1    2    0    0  0.00000000000E+00  0.00000000000E+00  0.20438257481E+02  0.12665986882E+03  0.12500000000E+03 0.  0.
<mgrwt>
<rscale>  0 0.12500000E+03</rscale>
<asrwt>0</asrwt>
<pdfrwt beam="1">  1       21 0.11315241E-01 0.12500000E+03</pdfrwt>
<pdfrwt beam="2">  1       21 0.81708932E-02 0.12500000E+03</pdfrwt>
<totfact> 0.73815515E+06</totfact>
</mgrwt>
</event>
<event>
 3    1  0.1602107E-001  0.1250000E+03  0.7546771E-02  0.1235069E+00
         21   -1    0    0  502  501  0.00000000000E+00  0.00000000000E+00  0.26315466304E+02  0.26315466304E+02  0.00000000000E+00 0. -1.
         21   -1    0    0  501  502 -0.00000000000E+00 -0.00000000000E+00 -0.14843932290E+03  0.14843932290E+03  0.00000000000E+00 0. -1.
         25    1    1    2    0    0  0.00000000000E+00  0.00000000000E+00 -0.12212385660E+03  0.17475478921E+03  0.12500000000E+03 0.  0.
<mgrwt>
<rscale>  0 0.12500000E+03</rscale>
<asrwt>0</asrwt>
<pdfrwt beam="1">  1       21 0.40485333E-02 0.12500000E+03</pdfrwt>
<pdfrwt beam="2">  1       21 0.22836819E-01 0.12500000E+03</pdfrwt>
<totfact> 0.67758404E+06</totfact>
</mgrwt>
</event>
<event>
 3    1  0.1602107E-001  0.1250000E+03  0.7546771E-02  0.1235069E+00
         21   -1    0    0  502  501  0.00000000000E+00  0.00000000000E+00  0.46745799092E+03  0.46745799092E+03  0.00000000000E+00 0. -1.
         21   -1    0    0  501  502 -0.00000000000E+00 -0.00000000000E+00 -0.83563658679E+01  0.83563658679E+01  0.00000000000E+00 0. -1.
         25    1    1    2    0    0  0.00000000000E+00  0.00000000000E+00  0.45910162505E+03  0.47581435679E+03  0.12500000000E+03 0.  0.
<mgrwt>
<rscale>  0 0.12500000E+03</rscale>
<asrwt>0</asrwt>
<pdfrwt beam="1">  1       21 0.71916593E-01 0.12500000E+03</pdfrwt>
<pdfrwt beam="2">  1       21 0.12855951E-02 0.12500000E+03</pdfrwt>
<totfact> 0.43386841E+06</totfact>
</mgrwt>
</event>
<event>
 3    1  0.1602107E-001  0.1250000E+03  0.7546771E-02  0.1235069E+00
         21   -1    0    0  502  501  0.00000000000E+00  0.00000000000E+00  0.66808188984E+02  0.66808188984E+02  0.00000000000E+00 0.  1.
         21   -1    0    0  501  502 -0.00000000000E+00 -0.00000000000E+00 -0.58469628640E+02  0.58469628640E+02  0.00000000000E+00 0.  1.
         25    1    1    2    0    0  0.00000000000E+00  0.00000000000E+00  0.83385603441E+01  0.12527781762E+03  0.12500000000E+03 0.  0.
<mgrwt>
<rscale>  0 0.12500000E+03</rscale>
<asrwt>0</asrwt>
<pdfrwt beam="1">  1       21 0.10278183E-01 0.12500000E+03</pdfrwt>
<pdfrwt beam="2">  1       21 0.89953275E-02 0.12500000E+03</pdfrwt>
<totfact> 0.74006066E+06</totfact>
</mgrwt>
</event>
<event>
 3    1  0.1602107E-001  0.1250000E+03  0.7546771E-02  0.1235069E+00
         21   -1    0    0  502  501  0.00000000000E+00  0.00000000000E+00  0.19934203582E+02  0.19934203582E+02  0.00000000000E+00 0. -1.
         21   -1    0    0  501  502 -0.00000000000E+00 -0.00000000000E+00 -0.19595716397E+03  0.19595716397E+03  0.00000000000E+00 0. -1.
         25    1    1    2    0    0  0.00000000000E+00  0.00000000000E+00 -0.17602296039E+03  0.21589136755E+03  0.12500000000E+03 0.  0.
<mgrwt>
<rscale>  0 0.12500000E+03</rscale>
<asrwt>0</asrwt>
<pdfrwt beam="1">  1       21 0.30668007E-02 0.12500000E+03</pdfrwt>
<pdfrwt beam="2">  1       21 0.30147255E-01 0.12500000E+03</pdfrwt>
<totfact> 0.63244978E+06</totfact>
</mgrwt>
</event>
<event>
 3    1  0.1602107E-001  0.1250000E+03  0.7546771E-02  0.1235069E+00
         21   -1    0    0  502  501  0.00000000000E+00  0.00000000000E+00  0.48004107344E+01  0.48004107344E+01  0.00000000000E+00 0.  1.
         21   -1    0    0  501  502 -0.00000000000E+00 -0.00000000000E+00 -0.81373245252E+03  0.81373245252E+03  0.00000000000E+00 0.  1.
         25    1    1    2    0    0  0.00000000000E+00  0.00000000000E+00 -0.80893204179E+03  0.81853286326E+03  0.12500000000E+03 0.  0.
<mgrwt>
<rscale>  0 0.12500000E+03</rscale>
<asrwt>0</asrwt>
<pdfrwt beam="1">  1       21 0.73852432E-03 0.12500000E+03</pdfrwt>
<pdfrwt beam="2">  1       21 0.12518968E+00 0.12500000E+03</pdfrwt>
<totfact> 0.28757899E+06</totfact>
</mgrwt>
</event>
<event>
 3    1  0.1602107E-001  0.1250000E+03  0.7546771E-02  0.1235069E+00
         21   -1    0    0  502  501  0.00000000000E+00  0.00000000000E+00  0.88434857208E+01  0.88434857208E+01  0.00000000000E+00 0.  1.
         21   -1    0    0  501  502 -0.00000000000E+00 -0.00000000000E+00 -0.44170931274E+03  0.44170931274E+03  0.00000000000E+00 0.  1.
         25    1    1    2    0    0  0.00000000000E+00  0.00000000000E+00 -0.43286582702E+03  0.45055279846E+03  0.12500000000E+03 0.  0.
<mgrwt>
<rscale>  0 0.12500000E+03</rscale>
<asrwt>0</asrwt>
<pdfrwt beam="1">  1       21 0.13605364E-02 0.12500000E+03</pdfrwt>
<pdfrwt beam="2">  1       21 0.67955273E-01 0.12500000E+03</pdfrwt>
<totfact> 0.44859211E+06</totfact>
</mgrwt>
</event>
<event>
 3    1  0.1602107E-001  0.1250000E+03  0.7546771E-02  0.1235069E+00
         21   -1    0    0  502  501  0.00000000000E+00  0.00000000000E+00  0.19894646085E+02  0.19894646085E+02  0.00000000000E+00 0. -1.
         21   -1    0    0  501  502 -0.00000000000E+00 -0.00000000000E+00 -0.19634679518E+03  0.19634679518E+03  0.00000000000E+00 0. -1.
         25    1    1    2    0    0  0.00000000000E+00  0.00000000000E+00 -0.17645214909E+03  0.21624144126E+03  0.12500000000E+03 0.  0.
<mgrwt>
<rscale>  0 0.12500000E+03</rscale>
<asrwt>0</asrwt>
<pdfrwt beam="1">  1       21 0.30607147E-02 0.12500000E+03</pdfrwt>
<pdfrwt beam="2">  1       21 0.30207200E-01 0.12500000E+03</pdfrwt>
<totfact> 0.63208788E+06</totfact>
</mgrwt>
</event>
<event>
 3    1  0.1602107E-001  0.1250000E+03  0.7546771E-02  0.1235069E+00
         21   -1    0    0  502  501  0.00000000000E+00  0.00000000000E+00  0.58889675823E+03  0.58889675823E+03  0.00000000000E+00 0.  1.
         21   -1    0    0  501  502 -0.00000000000E+00 -0.00000000000E+00 -0.66331660778E+01  0.66331660778E+01  0.00000000000E+00 0.  1.
         25    1    1    2    0    0  0.00000000000E+00  0.00000000000E+00  0.58226359215E+03  0.59552992431E+03  0.12500000000E+03 0.  0.
<mgrwt>
<rscale>  0 0.12500000E+03</rscale>
<asrwt>0</asrwt>
<pdfrwt beam="1">  1       21 0.90599460E-01 0.12500000E+03</pdfrwt>
<pdfrwt beam="2">  1       21 0.10204876E-02 0.12500000E+03</pdfrwt>
<totfact> 0.37295580E+06</totfact>
</mgrwt>
</event>
<event>
 3    1  0.1602107E-001  0.1250000E+03  0.7546771E-02  0.1235069E+00
         21   -1    0    0  502  501  0.00000000000E+00  0.00000000000E+00  0.42072137629E+02  0.42072137629E+02  0.00000000000E+00 0. -1.
         21   -1    0    0  501  502 -0.00000000000E+00 -0.00000000000E+00 -0.92846482736E+02  0.92846482736E+02  0.00000000000E+00 0. -1.
         25    1    1    2    0    0  0.00000000000E+00  0.00000000000E+00 -0.50774345107E+02  0.13491862036E+03  0.12500000000E+03 0.  0.
<mgrwt>
<rscale>  0 0.12500000E+03</rscale>
<asrwt>0</asrwt>
<pdfrwt beam="1">  1       21 0.64726367E-02 0.12500000E+03</pdfrwt>
<pdfrwt beam="2">  1       21 0.14284074E-01 0.12500000E+03</pdfrwt>
<totfact> 0.72707249E+06</totfact>
</mgrwt>
</event>
<event>
 3    1  0.1602107E-001  0.1250000E+03  0.7546771E-02  0.1235069E+00
         21   -1    0    0  502  501  0.00000000000E+00  0.00000000000E+00  0.15734353641E+03  0.15734353641E+03  0.00000000000E+00 0. -1.
         21   -1    0    0  501  502 -0.00000000000E+00 -0.00000000000E+00 -0.24826250185E+02  0.24826250185E+02  0.00000000000E+00 0. -1.
         25    1    1    2    0    0  0.00000000000E+00  0.00000000000E+00  0.13251728623E+03  0.18216978660E+03  0.12500000000E+03 0.  0.
<mgrwt>
<rscale>  0 0.12500000E+03</rscale>
<asrwt>0</asrwt>
<pdfrwt beam="1">  1       21 0.24206697E-01 0.12500000E+03</pdfrwt>
<pdfrwt beam="2">  1       21 0.38194232E-02 0.12500000E+03</pdfrwt>
<totfact> 0.66903494E+06</totfact>
</mgrwt>
</event>
<event>
 3    1  0.1602107E-001  0.1250000E+03  0.7546771E-02  0.1235069E+00
         21   -1    0    0  502  501  0.00000000000E+00  0.00000000000E+00  0.19184656000E+02  0.19184656000E+02  0.00000000000E+00 0. -1.
         21   -1    0    0  501  502 -0.00000000000E+00 -0.00000000000E+00 -0.20361324174E+03  0.20361324174E+03  0.00000000000E+00 0. -1.
         25    1    1    2    0    0  0.00000000000E+00  0.00000000000E+00 -0.18442858574E+03  0.22279789774E+03  0.12500000000E+03 0.  0.
<mgrwt>
<rscale>  0 0.12500000E+03</rscale>
<asrwt>0</asrwt>
<pdfrwt beam="1">  1       21 0.29514856E-02 0.12500000E+03</pdfrwt>
<pdfrwt beam="2">  1       21 0.31325114E-01 0.12500000E+03</pdfrwt>
<totfact> 0.62537692E+06</totfact>
</mgrwt>
</event>
<event>
 3    1  0.1602107E-001  0.1250000E+03  0.7546771E-02  0.1235069E+00
         21   -1    0    0  502  501  0.00000000000E+00  0.00000000000E+00  0.60513076464E+01  0.60513076464E+01  0.00000000000E+00 0.  1.
         21   -1    0    0  501  502 -0.00000000000E+00 -0.00000000000E+00 -0.64552163404E+03  0.64552163404E+03  0.00000000000E+00 0.  1.
         25    1    1    2    0    0  0.00000000000E+00  0.00000000000E+00 -0.63947032639E+03  0.65157294169E+03  0.12500000000E+03 0.  0.
<mgrwt>
<rscale>  0 0.12500000E+03</rscale>
<asrwt>0</asrwt>
<pdfrwt beam="1">  1       21 0.93097033E-03 0.12500000E+03</pdfrwt>
<pdfrwt beam="2">  1       21 0.99311029E-01 0.12500000E+03</pdfrwt>
<totfact> 0.34859197E+06</totfact>
</mgrwt>
</event>
<event>
 3    1  0.1602107E-001  0.1250000E+03  0.7546771E-02  0.1235069E+00
         21   -1    0    0  502  501  0.00000000000E+00  0.00000000000E+00  0.82443985911E+02  0.82443985911E+02  0.00000000000E+00 0. -1.
         21   -1    0    0  501  502 -0.00000000000E+00 -0.00000000000E+00 -0.47380654354E+02  0.47380654354E+02  0.00000000000E+00 0. -1.
         25    1    1    2    0    0  0.00000000000E+00  0.00000000000E+00  0.35063331558E+02  0.12982464026E+03  0.12500000000E+03 0.  0.
<mgrwt>
<rscale>  0 0.12500000E+03</rscale>
<asrwt>0</asrwt>
<pdfrwt beam="1">  1       21 0.12683690E-01 0.12500000E+03</pdfrwt>
<pdfrwt beam="2">  1       21 0.72893314E-02 0.12500000E+03</pdfrwt>
<totfact> 0.73388361E+06</totfact>
</mgrwt>
</event>
<event>
 3    1  0.1602107E-001  0.1250000E+03  0.7546771E-02  0.1235069E+00
         21   -1    0    0  502  501  0.00000000000E+00  0.00000000000E+00  0.15515596543E+03  0.15515596543E+03  0.00000000000E+00 0. -1.
         21   -1    0    0  501  502 -0.00000000000E+00 -0.00000000000E+00 -0.25176279811E+02  0.25176279811E+02  0.00000000000E+00 0. -1.
         25    1    1    2    0    0  0.00000000000E+00  0.00000000000E+00  0.12997968562E+03  0.18033224524E+03  0.12500000000E+03 0.  0.
<mgrwt>
<rscale>  0 0.12500000E+03</rscale>
<asrwt>0</asrwt>
<pdfrwt beam="1">  1       21 0.23870148E-01 0.12500000E+03</pdfrwt>
<pdfrwt beam="2">  1       21 0.38732739E-02 0.12500000E+03</pdfrwt>
<totfact> 0.67113443E+06</totfact>
</mgrwt>
</event>
<event>
 3    1  0.1602107E-001  0.1250000E+03  0.7546771E-02  0.1235069E+00
         21   -1    0    0  502  501  0.00000000000E+00  0.00000000000E+00  0.18425896269E+03  0.18425896269E+03  0.00000000000E+00 0.  1.
         21   -1    0    0  501  502 -0.00000000000E+00 -0.00000000000E+00 -0.21199782865E+02  0.21199782865E+02  0.00000000000E+00 0.  1.
         25    1    1    2    0    0  0.00000000000E+00  0.00000000000E+00  0.16305917982E+03  0.20545874555E+03  0.12500000000E+03 0.  0.
<mgrwt>
<rscale>  0 0.12500000E+03</rscale>
<asrwt>0</asrwt>
<pdfrwt beam="1">  1       21 0.28347532E-01 0.12500000E+03</pdfrwt>
<pdfrwt beam="2">  1       21 0.32615052E-02 0.12500000E+03</pdfrwt>
<totfact> 0.64340518E+06</totfact>
</mgrwt>
</event>
<event>
 3    1  0.1602107E-001  0.1250000E+03  0.7546771E-02  0.1235069E+00
         21   -1    0    0  502  501  0.00000000000E+00  0.00000000000E+00  0.24469144050E+02  0.24469144050E+02  0.00000000000E+00 0. -1.
         21   -1    0    0  501  502 -0.00000000000E+00 -0.00000000000E+00 -0.15963983015E+03  0.15963983015E+03  0.00000000000E+00 0. -1.
         25    1    1    2    0    0  0.00000000000E+00  0.00000000000E+00 -0.13517068610E+03  0.18410897420E+03  0.12500000000E+03 0.  0.
<mgrwt>
<rscale>  0 0.12500000E+03</rscale>
<asrwt>0</asrwt>
<pdfrwt beam="1">  1       21 0.37644837E-02 0.12500000E+03</pdfrwt>
<pdfrwt beam="2">  1       21 0.24559974E-01 0.12500000E+03</pdfrwt>
<totfact> 0.66683266E+06</totfact>
</mgrwt>
</event>
<event>
 3    1  0.1602107E-001  0.1250000E+03  0.7546771E-02  0.1235069E+00
         21   -1    0    0  502  501  0.00000000000E+00  0.00000000000E+00  0.73423788640E+02  0.73423788640E+02  0.00000000000E+00 0.  1.
         21   -1    0    0  501  502 -0.00000000000E+00 -0.00000000000E+00 -0.53201422486E+02  0.53201422486E+02  0.00000000000E+00 0.  1.
         25    1    1    2    0    0  0.00000000000E+00  0.00000000000E+00  0.20222366154E+02  0.12662521113E+03  0.12500000000E+03 0.  0.
<mgrwt>
<rscale>  0 0.12500000E+03</rscale>
<asrwt>0</asrwt>
<pdfrwt beam="1">  1       21 0.11295968E-01 0.12500000E+03</pdfrwt>
<pdfrwt beam="2">  1       21 0.81848342E-02 0.12500000E+03</pdfrwt>
<totfact> 0.73820250E+06</totfact>
</mgrwt>
</event>
<event>
 3    1  0.1602107E-001  0.1250000E+03  0.7546771E-02  0.1235069E+00
         21   -1    0    0  502  501  0.00000000000E+00  0.00000000000E+00  0.12634945095E+03  0.12634945095E+03  0.00000000000E+00 0.  1.
         21   -1    0    0  501  502 -0.00000000000E+00 -0.00000000000E+00 -0.30916240401E+02  0.30916240401E+02  0.00000000000E+00 0.  1.
         25    1    1    2    0    0  0.00000000000E+00  0.00000000000E+00  0.95433210545E+02  0.15726569135E+03  0.12500000000E+03 0.  0.
<mgrwt>
<rscale>  0 0.12500000E+03</rscale>
<asrwt>0</asrwt>
<pdfrwt beam="1">  1       21 0.19438377E-01 0.12500000E+03</pdfrwt>
<pdfrwt beam="2">  1       21 0.47563448E-02 0.12500000E+03</pdfrwt>
<totfact> 0.69855152E+06</totfact>
</mgrwt>
</event>
<event>
 3    1  0.1602107E-001  0.1250000E+03  0.7546771E-02  0.1235069E+00
         21   -1    0    0  502  501  0.00000000000E+00  0.00000000000E+00  0.36374793154E+02  0.36374793154E+02  0.00000000000E+00 0. -1.
         21   -1    0    0  501  502 -0.00000000000E+00 -0.00000000000E+00 -0.10738892682E+03  0.10738892682E+03  0.00000000000E+00 0. -1.
         25    1    1    2    0    0  0.00000000000E+00  0.00000000000E+00 -0.71014133665E+02  0.14376371997E+03  0.12500000000E+03 0.  0.
<mgrwt>
<rscale>  0 0.12500000E+03</rscale>
<asrwt>0</asrwt>
<pdfrwt beam="1">  1       21 0.55961221E-02 0.12500000E+03</pdfrwt>
<pdfrwt beam="2">  1       21 0.16521373E-01 0.12500000E+03</pdfrwt>
<totfact> 0.71551690E+06</totfact>
</mgrwt>
</event>
<event>
 3    1  0.1602107E-001  0.1250000E+03  0.7546771E-02  0.1235069E+00
         21   -1    0    0  502  501  0.00000000000E+00  0.00000000000E+00  0.34073030539E+02  0.34073030539E+02  0.00000000000E+00 0. -1.
         21   -1    0    0  501  502 -0.00000000000E+00 -0.00000000000E+00 -0.11464345667E+03  0.11464345667E+03  0.00000000000E+00 0. -1.
         25    1    1    2    0    0  0.00000000000E+00  0.00000000000E+00 -0.80570426127E+02  0.14871648720E+03  0.12500000000E+03 0.  0.
<mgrwt>
<rscale>  0 0.12500000E+03</rscale>
<asrwt>0</asrwt>
<pdfrwt beam="1">  1       21 0.52420048E-02 0.12500000E+03</pdfrwt>
<pdfrwt beam="2">  1       21 0.17637455E-01 0.12500000E+03</pdfrwt>
<totfact> 0.70920808E+06</totfact>
</mgrwt>
</event>
<event>
 3    1  0.1602107E-001  0.1250000E+03  0.7546771E-02  0.1235069E+00
         21   -1    0    0  502  501  0.00000000000E+00  0.00000000000E+00  0.80204213574E+02  0.80204213574E+02  0.00000000000E+00 0. -1.
         21   -1    0    0  501  502 -0.00000000000E+00 -0.00000000000E+00 -0.48703800286E+02  0.48703800286E+02  0.00000000000E+00 0. -1.
         25    1    1    2    0    0  0.00000000000E+00  0.00000000000E+00  0.31500413288E+02  0.12890801386E+03  0.12500000000E+03 0.  0.
<mgrwt>
<rscale>  0 0.12500000E+03</rscale>
<asrwt>0</asrwt>
<pdfrwt beam="1">  1       21 0.12339110E-01 0.12500000E+03</pdfrwt>
<pdfrwt beam="2">  1       21 0.74928923E-02 0.12500000E+03</pdfrwt>
<totfact> 0.73511237E+06</totfact>
</mgrwt>
</event>
<event>
 3    1  0.1602107E-001  0.1250000E+03  0.7546771E-02  0.1235069E+00
         21   -1    0    0  502  501  0.00000000000E+00  0.00000000000E+00  0.64601424039E+02  0.64601424039E+02  0.00000000000E+00 0. -1.
         21   -1    0    0  501  502 -0.00000000000E+00 -0.00000000000E+00 -0.60466933324E+02  0.60466933324E+02  0.00000000000E+00 0. -1.
         25    1    1    2    0    0  0.00000000000E+00  0.00000000000E+00  0.41344907151E+01  0.12506835736E+03  0.12500000000E+03 0.  0.
<mgrwt>
<rscale>  0 0.12500000E+03</rscale>
<asrwt>0</asrwt>
<pdfrwt beam="1">  1       21 0.99386806E-02 0.12500000E+03</pdfrwt>
<pdfrwt beam="2">  1       21 0.93026051E-02 0.12500000E+03</pdfrwt>
<totfact> 0.74034349E+06</totfact>
</mgrwt>
</event>
<event>
 3    1  0.1602107E-001  0.1250000E+03  0.7546771E-02  0.1235069E+00
         21   -1    0    0  502  501  0.00000000000E+00  0.00000000000E+00  0.59827304932E+03  0.59827304932E+03  0.00000000000E+00 0. -1.
         21   -1    0    0  501  502 -0.00000000000E+00 -0.00000000000E+00 -0.65292093710E+01  0.65292093710E+01  0.00000000000E+00 0. -1.
         25    1    1    2    0    0  0.00000000000E+00  0.00000000000E+00  0.59174383994E+03  0.60480225869E+03  0.12500000000E+03 0.  0.
<mgrwt>
<rscale>  0 0.12500000E+03</rscale>
<asrwt>0</asrwt>
<pdfrwt beam="1">  1       21 0.92041964E-01 0.12500000E+03</pdfrwt>
<pdfrwt beam="2">  1       21 0.10044942E-02 0.12500000E+03</pdfrwt>
<totfact> 0.36876364E+06</totfact>
</mgrwt>
</event>
<event>
 3    1  0.1602107E-001  0.1250000E+03  0.7546771E-02  0.1235069E+00
         21   -1    0    0  502  501  0.00000000000E+00  0.00000000000E+00  0.22346356511E+03  0.22346356511E+03  0.00000000000E+00 0.  1.
         21   -1    0    0  501  502 -0.00000000000E+00 -0.00000000000E+00 -0.17480478296E+02  0.17480478296E+02  0.00000000000E+00 0.  1.
         25    1    1    2    0    0  0.00000000000E+00  0.00000000000E+00  0.20598308682E+03  0.24094404341E+03  0.12500000000E+03 0.  0.
<mgrwt>
<rscale>  0 0.12500000E+03</rscale>
<asrwt>0</asrwt>
<pdfrwt beam="1">  1       21 0.34379008E-01 0.12500000E+03</pdfrwt>
<pdfrwt beam="2">  1       21 0.26893045E-02 0.12500000E+03</pdfrwt>
<totfact> 0.60741430E+06</totfact>
</mgrwt>
</event>
<event>
 3    1  0.1602107E-001  0.1250000E+03  0.7546771E-02  0.1235069E+00
         21   -1    0    0  502  501  0.00000000000E+00  0.00000000000E+00  0.17274563499E+02  0.17274563499E+02  0.00000000000E+00 0. -1.
         21   -1    0    0  501  502 -0.00000000000E+00 -0.00000000000E+00 -0.22612727669E+03  0.22612727669E+03  0.00000000000E+00 0. -1.
         25    1    1    2    0    0  0.00000000000E+00  0.00000000000E+00 -0.20885271319E+03  0.24340184019E+03  0.12500000000E+03 0.  0.
<mgrwt>
<rscale>  0 0.12500000E+03</rscale>
<asrwt>0</asrwt>
<pdfrwt beam="1">  1       21 0.26576250E-02 0.12500000E+03</pdfrwt>
<pdfrwt beam="2">  1       21 0.34788813E-01 0.12500000E+03</pdfrwt>
<totfact> 0.60505018E+06</totfact>
</mgrwt>
</event>
<event>
 3    1  0.1602107E-001  0.1250000E+03  0.7546771E-02  0.1235069E+00
         21   -1    0    0  502  501  0.00000000000E+00  0.00000000000E+00  0.49786565818E+01  0.49786565818E+01  0.00000000000E+00 0.  1.
         21   -1    0    0  501  502 -0.00000000000E+00 -0.00000000000E+00 -0.78459920579E+03  0.78459920579E+03  0.00000000000E+00 0.  1.
         25    1    1    2    0    0  0.00000000000E+00  0.00000000000E+00 -0.77962054921E+03  0.78957786237E+03  0.12500000000E+03 0.  0.
<mgrwt>
<rscale>  0 0.12500000E+03</rscale>
<asrwt>0</asrwt>
<pdfrwt beam="1">  1       21 0.76594699E-03 0.12500000E+03</pdfrwt>
<pdfrwt beam="2">  1       21 0.12070760E+00 0.12500000E+03</pdfrwt>
<totfact> 0.29711045E+06</totfact>
</mgrwt>
</event>
<event>
 3    1  0.1602107E-001  0.1250000E+03  0.7546771E-02  0.1235069E+00
         21   -1    0    0  502  501  0.00000000000E+00  0.00000000000E+00  0.28792315075E+02  0.28792315075E+02  0.00000000000E+00 0.  1.
         21   -1    0    0  501  502 -0.00000000000E+00 -0.00000000000E+00 -0.13566988239E+03  0.13566988239E+03  0.00000000000E+00 0.  1.
         25    1    1    2    0    0  0.00000000000E+00  0.00000000000E+00 -0.10687756732E+03  0.16446219747E+03  0.12500000000E+03 0.  0.
<mgrwt>
<rscale>  0 0.12500000E+03</rscale>
<asrwt>0</asrwt>
<pdfrwt beam="1">  1       21 0.44295871E-02 0.12500000E+03</pdfrwt>
<pdfrwt beam="2">  1       21 0.20872289E-01 0.12500000E+03</pdfrwt>
<totfact> 0.68978333E+06</totfact>
</mgrwt>
</event>
<event>
 3    1  0.1602107E-001  0.1250000E+03  0.7546771E-02  0.1235069E+00
         21   -1    0    0  502  501  0.00000000000E+00  0.00000000000E+00  0.25703915584E+03  0.25703915584E+03  0.00000000000E+00 0. -1.
         21   -1    0    0  501  502 -0.00000000000E+00 -0.00000000000E+00 -0.15197100953E+02  0.15197100953E+02  0.00000000000E+00 0. -1.
         25    1    1    2    0    0  0.00000000000E+00  0.00000000000E+00  0.24184205488E+03  0.27223625679E+03  0.12500000000E+03 0.  0.
<mgrwt>
<rscale>  0 0.12500000E+03</rscale>
<asrwt>0</asrwt>
<pdfrwt beam="1">  1       21 0.39544482E-01 0.12500000E+03</pdfrwt>
<pdfrwt beam="2">  1       21 0.23380157E-02 0.12500000E+03</pdfrwt>
<totfact> 0.57845362E+06</totfact>
</mgrwt>
</event>
<event>
 3    1  0.1602107E-001  0.1250000E+03  0.7546771E-02  0.1235069E+00
         21   -1    0    0  502  501  0.00000000000E+00  0.00000000000E+00  0.21818641665E+03  0.21818641665E+03  0.00000000000E+00 0. -1.
         21   -1    0    0  501  502 -0.00000000000E+00 -0.00000000000E+00 -0.17903268498E+02  0.17903268498E+02  0.00000000000E+00 0. -1.
         25    1    1    2    0    0  0.00000000000E+00  0.00000000000E+00  0.20028314815E+03  0.23608968515E+03  0.12500000000E+03 0.  0.
<mgrwt>
<rscale>  0 0.12500000E+03</rscale>
<asrwt>0</asrwt>
<pdfrwt beam="1">  1       21 0.33567139E-01 0.12500000E+03</pdfrwt>
<pdfrwt beam="2">  1       21 0.27543492E-02 0.12500000E+03</pdfrwt>
<totfact> 0.61213121E+06</totfact>
</mgrwt>
</event>
<event>
 3    1  0.1602107E-001  0.1250000E+03  0.7546771E-02  0.1235069E+00
         21   -1    0    0  502  501  0.00000000000E+00  0.00000000000E+00  0.18981930300E+03  0.18981930300E+03  0.00000000000E+00 0. -1.
         21   -1    0    0  501  502 -0.00000000000E+00 -0.00000000000E+00 -0.20578781705E+02  0.20578781705E+02  0.00000000000E+00 0. -1.
         25    1    1    2    0    0  0.00000000000E+00  0.00000000000E+00  0.16924052130E+03  0.21039808471E+03  0.12500000000E+03 0.  0.
<mgrwt>
<rscale>  0 0.12500000E+03</rscale>
<asrwt>0</asrwt>
<pdfrwt beam="1">  1       21 0.29202968E-01 0.12500000E+03</pdfrwt>
<pdfrwt beam="2">  1       21 0.31659665E-02 0.12500000E+03</pdfrwt>
<totfact> 0.63817678E+06</totfact>
</mgrwt>
</event>
<event>
 3    1  0.1602107E-001  0.1250000E+03  0.7546771E-02  0.1235069E+00
         21   -1    0    0  502  501  0.00000000000E+00  0.00000000000E+00  0.64537373997E+02  0.64537373997E+02  0.00000000000E+00 0.  1.
         21   -1    0    0  501  502 -0.00000000000E+00 -0.00000000000E+00 -0.60526943662E+02  0.60526943662E+02  0.00000000000E+00 0.  1.
         25    1    1    2    0    0  0.00000000000E+00  0.00000000000E+00  0.40104303342E+01  0.12506431766E+03  0.12500000000E+03 0.  0.
<mgrwt>
<rscale>  0 0.12500000E+03</rscale>
<asrwt>0</asrwt>
<pdfrwt beam="1">  1       21 0.99288268E-02 0.12500000E+03</pdfrwt>
<pdfrwt beam="2">  1       21 0.93118374E-02 0.12500000E+03</pdfrwt>
<totfact> 0.74034894E+06</totfact>
</mgrwt>
</event>
<event>
 3    1  0.1602107E-001  0.1250000E+03  0.7546771E-02  0.1235069E+00
         21   -1    0    0  502  501  0.00000000000E+00  0.00000000000E+00  0.28641060583E+03  0.28641060583E+03  0.00000000000E+00 0. -1.
         21   -1    0    0  501  502 -0.00000000000E+00 -0.00000000000E+00 -0.13638636002E+02  0.13638636002E+02  0.00000000000E+00 0. -1.
         25    1    1    2    0    0  0.00000000000E+00  0.00000000000E+00  0.27277196982E+03  0.30004924183E+03  0.12500000000E+03 0.  0.
<mgrwt>
<rscale>  0 0.12500000E+03</rscale>
<asrwt>0</asrwt>
<pdfrwt beam="1">  1       21 0.44063166E-01 0.12500000E+03</pdfrwt>
<pdfrwt beam="2">  1       21 0.20982519E-02 0.12500000E+03</pdfrwt>
<totfact> 0.55452084E+06</totfact>
</mgrwt>
</event>
<event>
 3    1  0.1602107E-001  0.1250000E+03  0.7546771E-02  0.1235069E+00
         21   -1    0    0  502  501  0.00000000000E+00  0.00000000000E+00  0.35324703329E+03  0.35324703329E+03  0.00000000000E+00 0.  1.
         21   -1    0    0  501  502 -0.00000000000E+00 -0.00000000000E+00 -0.11058125425E+02  0.11058125425E+02  0.00000000000E+00 0.  1.
         25    1    1    2    0    0  0.00000000000E+00  0.00000000000E+00  0.34218890786E+03  0.36430515871E+03  0.12500000000E+03 0.  0.
<mgrwt>
<rscale>  0 0.12500000E+03</rscale>
<asrwt>0</asrwt>
<pdfrwt beam="1">  1       21 0.54345689E-01 0.12500000E+03</pdfrwt>
<pdfrwt beam="2">  1       21 0.17012503E-02 0.12500000E+03</pdfrwt>
<totfact> 0.50499002E+06</totfact>
</mgrwt>
</event>
<event>
 3    1  0.1602107E-001  0.1250000E+03  0.7546771E-02  0.1235069E+00
         21   -1    0    0  502  501  0.00000000000E+00  0.00000000000E+00  0.43690363360E+02  0.43690363360E+02  0.00000000000E+00 0. -1.
         21   -1    0    0  501  502 -0.00000000000E+00 -0.00000000000E+00 -0.89407587843E+02  0.89407587843E+02  0.00000000000E+00 0. -1.
         25    1    1    2    0    0  0.00000000000E+00  0.00000000000E+00 -0.45717224483E+02  0.13309795120E+03  0.12500000000E+03 0.  0.
<mgrwt>
<rscale>  0 0.12500000E+03</rscale>
<asrwt>0</asrwt>
<pdfrwt beam="1">  1       21 0.67215943E-02 0.12500000E+03</pdfrwt>
<pdfrwt beam="2">  1       21 0.13755014E-01 0.12500000E+03</pdfrwt>
<totfact> 0.72949321E+06</totfact>
</mgrwt>
</event>
<event>
 3    1  0.1602107E-001  0.1250000E+03  0.7546771E-02  0.1235069E+00
         21   -1    0    0  502  501  0.00000000000E+00  0.00000000000E+00  0.36825614319E+02  0.36825614319E+02  0.00000000000E+00 0. -1.
         21   -1    0    0  501  502 -0.00000000000E+00 -0.00000000000E+00 -0.10607426576E+03  0.10607426576E+03  0.00000000000E+00 0. -1.
         25    1    1    2    0    0  0.00000000000E+00  0.00000000000E+00 -0.69248651440E+02  0.14289988008E+03  0.12500000000E+03 0.  0.
<mgrwt>
<rscale>  0 0.12500000E+03</rscale>
<asrwt>0</asrwt>
<pdfrwt beam="1">  1       21 0.56654792E-02 0.12500000E+03</pdfrwt>
<pdfrwt beam="2">  1       21 0.16319118E-01 0.12500000E+03</pdfrwt>
<totfact> 0.71662959E+06</totfact>
</mgrwt>
</event>
<event>
 3    1  0.1602107E-001  0.1250000E+03  0.7546771E-02  0.1235069E+00
         21   -1    0    0  502  501  0.00000000000E+00  0.00000000000E+00  0.11027610578E+03  0.11027610578E+03  0.00000000000E+00 0.  1.
         21   -1    0    0  501  502 -0.00000000000E+00 -0.00000000000E+00 -0.35422451422E+02  0.35422451422E+02  0.00000000000E+00 0.  1.
         25    1    1    2    0    0  0.00000000000E+00  0.00000000000E+00  0.74853654358E+02  0.14569855720E+03  0.12500000000E+03 0.  0.
<mgrwt>
<rscale>  0 0.12500000E+03</rscale>
<asrwt>0</asrwt>
<pdfrwt beam="1">  1       21 0.16965555E-01 0.12500000E+03</pdfrwt>
<pdfrwt beam="2">  1       21 0.54496079E-02 0.12500000E+03</pdfrwt>
<totfact> 0.71303820E+06</totfact>
</mgrwt>
</event>
<event>
 3    1  0.1602107E-001  0.1250000E+03  0.7546771E-02  0.1235069E+00
         21   -1    0    0  502  501  0.00000000000E+00  0.00000000000E+00  0.16247426768E+02  0.16247426768E+02  0.00000000000E+00 0.  1.
         21   -1    0    0  501  502 -0.00000000000E+00 -0.00000000000E+00 -0.24042268698E+03  0.24042268698E+03  0.00000000000E+00 0.  1.
         25    1    1    2    0    0  0.00000000000E+00  0.00000000000E+00 -0.22417526021E+03  0.25667011375E+03  0.12500000000E+03 0.  0.
<mgrwt>
<rscale>  0 0.12500000E+03</rscale>
<asrwt>0</asrwt>
<pdfrwt beam="1">  1       21 0.24996040E-02 0.12500000E+03</pdfrwt>
<pdfrwt beam="2">  1       21 0.36988107E-01 0.12500000E+03</pdfrwt>
<totfact> 0.59255829E+06</totfact>
</mgrwt>
</event>
<event>
 3    1  0.1602107E-001  0.1250000E+03  0.7546771E-02  0.1235069E+00
         21   -1    0    0  502  501  0.00000000000E+00  0.00000000000E+00  0.10884029186E+02  0.10884029186E+02  0.00000000000E+00 0.  1.
         21   -1    0    0  501  502 -0.00000000000E+00 -0.00000000000E+00 -0.35889742055E+03  0.35889742055E+03  0.00000000000E+00 0.  1.
         25    1    1    2    0    0  0.00000000000E+00  0.00000000000E+00 -0.34801339137E+03  0.36978144974E+03  0.12500000000E+03 0.  0.
<mgrwt>
<rscale>  0 0.12500000E+03</rscale>
<asrwt>0</asrwt>
<pdfrwt beam="1">  1       21 0.16744663E-02 0.12500000E+03</pdfrwt>
<pdfrwt beam="2">  1       21 0.55214978E-01 0.12500000E+03</pdfrwt>
<totfact> 0.50109884E+06</totfact>
</mgrwt>
</event>
<event>
 3    1  0.1602107E-001  0.1250000E+03  0.7546771E-02  0.1235069E+00
         21   -1    0    0  502  501  0.00000000000E+00  0.00000000000E+00  0.32831529184E+03  0.32831529184E+03  0.00000000000E+00 0.  1.
         21   -1    0    0  501  502 -0.00000000000E+00 -0.00000000000E+00 -0.11897861894E+02  0.11897861894E+02  0.00000000000E+00 0.  1.
         25    1    1    2    0    0  0.00000000000E+00  0.00000000000E+00  0.31641742994E+03  0.34021315373E+03  0.12500000000E+03 0.  0.
<mgrwt>
<rscale>  0 0.12500000E+03</rscale>
<asrwt>0</asrwt>
<pdfrwt beam="1">  1       21 0.50510038E-01 0.12500000E+03</pdfrwt>
<pdfrwt beam="2">  1       21 0.18304405E-02 0.12500000E+03</pdfrwt>
<totfact> 0.52269444E+06</totfact>
</mgrwt>
</event>
<event>
 3    1  0.1602107E-001  0.1250000E+03  0.7546771E-02  0.1235069E+00
         21   -1    0    0  502  501  0.00000000000E+00  0.00000000000E+00  0.92202408161E+02  0.92202408161E+02  0.00000000000E+00 0.  1.
         21   -1    0    0  501  502 -0.00000000000E+00 -0.00000000000E+00 -0.42366030106E+02  0.42366030106E+02  0.00000000000E+00 0.  1.
         25    1    1    2    0    0  0.00000000000E+00  0.00000000000E+00  0.49836378054E+02  0.13456843827E+03  0.12500000000E+03 0.  0.
<mgrwt>
<rscale>  0 0.12500000E+03</rscale>
<asrwt>0</asrwt>
<pdfrwt beam="1">  1       21 0.14184986E-01 0.12500000E+03</pdfrwt>
<pdfrwt beam="2">  1       21 0.65178508E-02 0.12500000E+03</pdfrwt>
<totfact> 0.72753664E+06</totfact>
</mgrwt>
</event>
<event>
 3    1  0.1602107E-001  0.1250000E+03  0.7546771E-02  0.1235069E+00
         21   -1    0    0  502  501  0.00000000000E+00  0.00000000000E+00  0.26855634228E+03  0.26855634228E+03  0.00000000000E+00 0.  1.
         21   -1    0    0  501  502 -0.00000000000E+00 -0.00000000000E+00 -0.14545364920E+02  0.14545364920E+02  0.00000000000E+00 0.  1.
         25    1    1    2    0    0  0.00000000000E+00  0.00000000000E+00  0.25401097736E+03  0.28310170720E+03  0.12500000000E+03 0.  0.
<mgrwt>
<rscale>  0 0.12500000E+03</rscale>
<asrwt>0</asrwt>
<pdfrwt beam="1">  1       21 0.41316357E-01 0.12500000E+03</pdfrwt>
<pdfrwt beam="2">  1       21 0.22377487E-02 0.12500000E+03</pdfrwt>
<totfact> 0.56890393E+06</totfact>
</mgrwt>
</event>
<event>
 3    1  0.1602107E-001  0.1250000E+03  0.7546771E-02  0.1235069E+00
         21   -1    0    0  502  501  0.00000000000E+00  0.00000000000E+00  0.76243698309E+02  0.76243698309E+02  0.00000000000E+00 0. -1.
         21   -1    0    0  501  502 -0.00000000000E+00 -0.00000000000E+00 -0.51233742416E+02  0.51233742416E+02  0.00000000000E+00 0. -1.
         25    1    1    2    0    0  0.00000000000E+00  0.00000000000E+00  0.25009955894E+02  0.12747744073E+03  0.12500000000E+03 0.  0.
<mgrwt>
<rscale>  0 0.12500000E+03</rscale>
<asrwt>0</asrwt>
<pdfrwt beam="1">  1       21 0.11729800E-01 0.12500000E+03</pdfrwt>
<pdfrwt beam="2">  1       21 0.78821143E-02 0.12500000E+03</pdfrwt>
<totfact> 0.73704276E+06</totfact>
</mgrwt>
</event>
<event>
 3    1  0.1602107E-001  0.1250000E+03  0.7546771E-02  0.1235069E+00
         21   -1    0    0  502  501  0.00000000000E+00  0.00000000000E+00  0.20286369850E+01  0.20286369850E+01  0.00000000000E+00 0. -1.
         21   -1    0    0  501  502 -0.00000000000E+00 -0.00000000000E+00 -0.19255539700E+04  0.19255539700E+04  0.00000000000E+00 0. -1.
         25    1    1    2    0    0  0.00000000000E+00  0.00000000000E+00 -0.19235253330E+04  0.19275826070E+04  0.12500000000E+03 0.  0.
<mgrwt>
<rscale>  0 0.12500000E+03</rscale>
<asrwt>0</asrwt>
<pdfrwt beam="1">  1       21 0.31209681E-03 0.12500000E+03</pdfrwt>
<pdfrwt beam="2">  1       21 0.29624020E+00 0.12500000E+03</pdfrwt>
<totfact> 0.86758756E+05</totfact>
</mgrwt>
</event>
<event>
 3    1  0.1602107E-001  0.1250000E+03  0.7546771E-02  0.1235069E+00
         21   -1    0    0  502  501  0.00000000000E+00  0.00000000000E+00  0.24092633738E+03  0.24092633738E+03  0.00000000000E+00 0.  1.
         21   -1    0    0  501  502 -0.00000000000E+00 -0.00000000000E+00 -0.16213461934E+02  0.16213461934E+02  0.00000000000E+00 0.  1.
         25    1    1    2    0    0  0.00000000000E+00  0.00000000000E+00  0.22471287544E+03  0.25713979931E+03  0.12500000000E+03 0.  0.
<mgrwt>
<rscale>  0 0.12500000E+03</rscale>
<asrwt>0</asrwt>
<pdfrwt beam="1">  1       21 0.37065588E-01 0.12500000E+03</pdfrwt>
<pdfrwt beam="2">  1       21 0.24943789E-02 0.12500000E+03</pdfrwt>
<totfact> 0.59212426E+06</totfact>
</mgrwt>
</event>
<event>
 3    1  0.1602107E-001  0.1250000E+03  0.7546771E-02  0.1235069E+00
         21   -1    0    0  502  501  0.00000000000E+00  0.00000000000E+00  0.12602227050E+03  0.12602227050E+03  0.00000000000E+00 0.  1.
         21   -1    0    0  501  502 -0.00000000000E+00 -0.00000000000E+00 -0.30996505494E+02  0.30996505494E+02  0.00000000000E+00 0.  1.
         25    1    1    2    0    0  0.00000000000E+00  0.00000000000E+00  0.95025765006E+02  0.15701877600E+03  0.12500000000E+03 0.  0.
<mgrwt>
<rscale>  0 0.12500000E+03</rscale>
<asrwt>0</asrwt>
<pdfrwt beam="1">  1       21 0.19388041E-01 0.12500000E+03</pdfrwt>
<pdfrwt beam="2">  1       21 0.47686932E-02 0.12500000E+03</pdfrwt>
<totfact> 0.69885616E+06</totfact>
</mgrwt>
</event>
<event>
 3    1  0.1602107E-001  0.1250000E+03  0.7546771E-02  0.1235069E+00
         21   -1    0    0  502  501  0.00000000000E+00  0.00000000000E+00  0.76504997978E+02  0.76504997978E+02  0.00000000000E+00 0.  1.
         21   -1    0    0  501  502 -0.00000000000E+00 -0.00000000000E+00 -0.51058755680E+02  0.51058755680E+02  0.00000000000E+00 0.  1.
         25    1    1    2    0    0  0.00000000000E+00  0.00000000000E+00  0.25446242298E+02  0.12756375366E+03  0.12500000000E+03 0.  0.
<mgrwt>
<rscale>  0 0.12500000E+03</rscale>
<asrwt>0</asrwt>
<pdfrwt beam="1">  1       21 0.11770000E-01 0.12500000E+03</pdfrwt>
<pdfrwt beam="2">  1       21 0.78551932E-02 0.12500000E+03</pdfrwt>
<totfact> 0.73692578E+06</totfact>
</mgrwt>
</event>
<event>
 3    1  0.1602107E-001  0.1250000E+03  0.7546771E-02  0.1235069E+00
         21   -1    0    0  502  501  0.00000000000E+00  0.00000000000E+00  0.30234313132E+01  0.30234313132E+01  0.00000000000E+00 0.  1.
         21   -1    0    0  501  502 -0.00000000000E+00 -0.00000000000E+00 -0.12919923079E+04  0.12919923079E+04  0.00000000000E+00 0.  1.
         25    1    1    2    0    0  0.00000000000E+00  0.00000000000E+00 -0.12889688765E+04  0.12950157392E+04  0.12500000000E+03 0.  0.
<mgrwt>
<rscale>  0 0.12500000E+03</rscale>
<asrwt>0</asrwt>
<pdfrwt beam="1">  1       21 0.46514199E-03 0.12500000E+03</pdfrwt>
<pdfrwt beam="2">  1       21 0.19876860E+00 0.12500000E+03</pdfrwt>
<totfact> 0.17342007E+06</totfact>
</mgrwt>
</event>
<event>
 3    1  0.1602107E-001  0.1250000E+03  0.7546771E-02  0.1235069E+00
         21   -1    0    0  502  501  0.00000000000E+00  0.00000000000E+00  0.28902302486E+02  0.28902302486E+02  0.00000000000E+00 0.  1.
         21   -1    0    0  501  502 -0.00000000000E+00 -0.00000000000E+00 -0.13515359207E+03  0.13515359207E+03  0.00000000000E+00 0.  1.
         25    1    1    2    0    0  0.00000000000E+00  0.00000000000E+00 -0.10625128958E+03  0.16405589455E+03  0.12500000000E+03 0.  0.
<mgrwt>
<rscale>  0 0.12500000E+03</rscale>
<asrwt>0</asrwt>
<pdfrwt beam="1">  1       21 0.44465082E-02 0.12500000E+03</pdfrwt>
<pdfrwt beam="2">  1       21 0.20792860E-01 0.12500000E+03</pdfrwt>
<totfact> 0.69027275E+06</totfact>
</mgrwt>
</event>
<event>
 3    1  0.1602107E-001  0.1250000E+03  0.7546771E-02  0.1235069E+00
         21   -1    0    0  502  501  0.00000000000E+00  0.00000000000E+00  0.87255003875E+02  0.87255003875E+02  0.00000000000E+00 0.  1.
         21   -1    0    0  501  502 -0.00000000000E+00 -0.00000000000E+00 -0.44768206138E+02  0.44768206138E+02  0.00000000000E+00 0.  1.
         25    1    1    2    0    0  0.00000000000E+00  0.00000000000E+00  0.42486797737E+02  0.13202321001E+03  0.12500000000E+03 0.  0.
<mgrwt>
<rscale>  0 0.12500000E+03</rscale>
<asrwt>0</asrwt>
<pdfrwt beam="1">  1       21 0.13423847E-01 0.12500000E+03</pdfrwt>
<pdfrwt beam="2">  1       21 0.68874163E-02 0.12500000E+03</pdfrwt>
<totfact> 0.73093116E+06</totfact>
</mgrwt>
</event>
<event>
 3    1  0.1602107E-001  0.1250000E+03  0.7546771E-02  0.1235069E+00
         21   -1    0    0  502  501  0.00000000000E+00  0.00000000000E+00  0.11690569133E+02  0.11690569133E+02  0.00000000000E+00 0.  1.
         21   -1    0    0  501  502 -0.00000000000E+00 -0.00000000000E+00 -0.33413685473E+03  0.33413685473E+03  0.00000000000E+00 0.  1.
         25    1    1    2    0    0  0.00000000000E+00  0.00000000000E+00 -0.32244628559E+03  0.34582742386E+03  0.12500000000E+03 0.  0.
<mgrwt>
<rscale>  0 0.12500000E+03</rscale>
<asrwt>0</asrwt>
<pdfrwt beam="1">  1       21 0.17985492E-02 0.12500000E+03</pdfrwt>
<pdfrwt beam="2">  1       21 0.51405667E-01 0.12500000E+03</pdfrwt>
<totfact> 0.51848073E+06</totfact>
</mgrwt>
</event>
<event>
 3    1  0.1602107E-001  0.1250000E+03  0.7546771E-02  0.1235069E+00
         21   -1    0    0  502  501  0.00000000000E+00  0.00000000000E+00  0.22466398803E+03  0.22466398803E+03  0.00000000000E+00 0. -1.
         21   -1    0    0  501  502 -0.00000000000E+00 -0.00000000000E+00 -0.17387076738E+02  0.17387076738E+02  0.00000000000E+00 0. -1.
         25    1    1    2    0    0  0.00000000000E+00  0.00000000000E+00  0.20727691129E+03  0.24205106476E+03  0.12500000000E+03 0.  0.
<mgrwt>
<rscale>  0 0.12500000E+03</rscale>
<asrwt>0</asrwt>
<pdfrwt beam="1">  1       21 0.34563688E-01 0.12500000E+03</pdfrwt>
<pdfrwt beam="2">  1       21 0.26749350E-02 0.12500000E+03</pdfrwt>
<totfact> 0.60634749E+06</totfact>
</mgrwt>
</event>
<event>
 3    1  0.1602107E-001  0.1250000E+03  0.7546771E-02  0.1235069E+00
         21   -1    0    0  502  501  0.00000000000E+00  0.00000000000E+00  0.42672247209E+01  0.42672247209E+01  0.00000000000E+00 0. -1.
         21   -1    0    0  501  502 -0.00000000000E+00 -0.00000000000E+00 -0.91540761397E+03  0.91540761397E+03  0.00000000000E+00 0. -1.
         25    1    1    2    0    0  0.00000000000E+00  0.00000000000E+00 -0.91114038925E+03  0.91967483869E+03  0.12500000000E+03 0.  0.
<mgrwt>
<rscale>  0 0.12500000E+03</rscale>
<asrwt>0</asrwt>
<pdfrwt beam="1">  1       21 0.65649663E-03 0.12500000E+03</pdfrwt>
<pdfrwt beam="2">  1       21 0.14083183E+00 0.12500000E+03</pdfrwt>
<totfact> 0.25741267E+06</totfact>
</mgrwt>
</event>
<event>
 3    1  0.1602107E-001  0.1250000E+03  0.7546771E-02  0.1235069E+00
         21   -1    0    0  502  501  0.00000000000E+00  0.00000000000E+00  0.58397775392E+03  0.58397775392E+03  0.00000000000E+00 0.  1.
         21   -1    0    0  501  502 -0.00000000000E+00 -0.00000000000E+00 -0.66890390494E+01  0.66890390494E+01  0.00000000000E+00 0.  1.
         25    1    1    2    0    0  0.00000000000E+00  0.00000000000E+00  0.57728871487E+03  0.59066679297E+03  0.12500000000E+03 0.  0.
<mgrwt>
<rscale>  0 0.12500000E+03</rscale>
<asrwt>0</asrwt>
<pdfrwt beam="1">  1       21 0.89842691E-01 0.12500000E+03</pdfrwt>
<pdfrwt beam="2">  1       21 0.10290834E-02 0.12500000E+03</pdfrwt>
<totfact> 0.37518155E+06</totfact>
</mgrwt>
</event>
<event>
 3    1  0.1602107E-001  0.1250000E+03  0.7546771E-02  0.1235069E+00
         21   -1    0    0  502  501  0.00000000000E+00  0.00000000000E+00  0.50513043577E+03  0.50513043577E+03  0.00000000000E+00 0. -1.
         21   -1    0    0  501  502 -0.00000000000E+00 -0.00000000000E+00 -0.77331511297E+01  0.77331511297E+01  0.00000000000E+00 0. -1.
         25    1    1    2    0    0  0.00000000000E+00  0.00000000000E+00  0.49739728464E+03  0.51286358690E+03  0.12500000000E+03 0.  0.
<mgrwt>
<rscale>  0 0.12500000E+03</rscale>
<asrwt>0</asrwt>
<pdfrwt beam="1">  1       21 0.77712349E-01 0.12500000E+03</pdfrwt>
<pdfrwt beam="2">  1       21 0.11897160E-02 0.12500000E+03</pdfrwt>
<totfact> 0.41354941E+06</totfact>
</mgrwt>
</event>
<event>
 3    1  0.1602107E-001  0.1250000E+03  0.7546771E-02  0.1235069E+00
         21   -1    0    0  502  501  0.00000000000E+00  0.00000000000E+00  0.56369654846E+02  0.56369654846E+02  0.00000000000E+00 0.  1.
         21   -1    0    0  501  502 -0.00000000000E+00 -0.00000000000E+00 -0.69297035979E+02  0.69297035979E+02  0.00000000000E+00 0.  1.
         25    1    1    2    0    0  0.00000000000E+00  0.00000000000E+00 -0.12927381133E+02  0.12566669083E+03  0.12500000000E+03 0.  0.
<mgrwt>
<rscale>  0 0.12500000E+03</rscale>
<asrwt>0</asrwt>
<pdfrwt beam="1">  1       21 0.86722546E-02 0.12500000E+03</pdfrwt>
<pdfrwt beam="2">  1       21 0.10661082E-01 0.12500000E+03</pdfrwt>
<totfact> 0.73952164E+06</totfact>
</mgrwt>
</event>
<event>
 3    1  0.1602107E-001  0.1250000E+03  0.7546771E-02  0.1235069E+00
         21   -1    0    0  502  501  0.00000000000E+00  0.00000000000E+00  0.40025493060E+02  0.40025493060E+02  0.00000000000E+00 0.  1.
         21   -1    0    0  501  502 -0.00000000000E+00 -0.00000000000E+00 -0.97594050726E+02  0.97594050726E+02  0.00000000000E+00 0.  1.
         25    1    1    2    0    0  0.00000000000E+00  0.00000000000E+00 -0.57568557666E+02  0.13761954379E+03  0.12500000000E+03 0.  0.
<mgrwt>
<rscale>  0 0.12500000E+03</rscale>
<asrwt>0</asrwt>
<pdfrwt beam="1">  1       21 0.61577682E-02 0.12500000E+03</pdfrwt>
<pdfrwt beam="2">  1       21 0.15014469E-01 0.12500000E+03</pdfrwt>
<totfact> 0.72351448E+06</totfact>
</mgrwt>
</event>
<event>
 3    1  0.1602107E-001  0.1250000E+03  0.7546771E-02  0.1235069E+00
         21   -1    0    0  502  501  0.00000000000E+00  0.00000000000E+00  0.11946527202E+03  0.11946527202E+03  0.00000000000E+00 0.  1.
         21   -1    0    0  501  502 -0.00000000000E+00 -0.00000000000E+00 -0.32697786845E+02  0.32697786845E+02  0.00000000000E+00 0.  1.
         25    1    1    2    0    0  0.00000000000E+00  0.00000000000E+00  0.86767485178E+02  0.15216305887E+03  0.12500000000E+03 0.  0.
<mgrwt>
<rscale>  0 0.12500000E+03</rscale>
<asrwt>0</asrwt>
<pdfrwt beam="1">  1       21 0.18379272E-01 0.12500000E+03</pdfrwt>
<pdfrwt beam="2">  1       21 0.50304288E-02 0.12500000E+03</pdfrwt>
<totfact> 0.70488528E+06</totfact>
</mgrwt>
</event>
<event>
 3    1  0.1602107E-001  0.1250000E+03  0.7546771E-02  0.1235069E+00
         21   -1    0    0  502  501  0.00000000000E+00  0.00000000000E+00  0.13871456770E+03  0.13871456770E+03  0.00000000000E+00 0.  1.
         21   -1    0    0  501  502 -0.00000000000E+00 -0.00000000000E+00 -0.28160344402E+02  0.28160344402E+02  0.00000000000E+00 0.  1.
         25    1    1    2    0    0  0.00000000000E+00  0.00000000000E+00  0.11055422330E+03  0.16687491210E+03  0.12500000000E+03 0.  0.
<mgrwt>
<rscale>  0 0.12500000E+03</rscale>
<asrwt>0</asrwt>
<pdfrwt beam="1">  1       21 0.21340702E-01 0.12500000E+03</pdfrwt>
<pdfrwt beam="2">  1       21 0.43323607E-02 0.12500000E+03</pdfrwt>
<totfact> 0.68689061E+06</totfact>
</mgrwt>
</event>
<event>
 3    1  0.1602107E-001  0.1250000E+03  0.7546771E-02  0.1235069E+00
         21   -1    0    0  502  501  0.00000000000E+00  0.00000000000E+00  0.11828187465E+02  0.11828187465E+02  0.00000000000E+00 0.  1.
         21   -1    0    0  501  502 -0.00000000000E+00 -0.00000000000E+00 -0.33024924668E+03  0.33024924668E+03  0.00000000000E+00 0.  1.
         25    1    1    2    0    0  0.00000000000E+00  0.00000000000E+00 -0.31842105922E+03  0.34207743415E+03  0.12500000000E+03 0.  0.
<mgrwt>
<rscale>  0 0.12500000E+03</rscale>
<asrwt>0</asrwt>
<pdfrwt beam="1">  1       21 0.18197212E-02 0.12500000E+03</pdfrwt>
<pdfrwt beam="2">  1       21 0.50807576E-01 0.12500000E+03</pdfrwt>
<totfact> 0.52128911E+06</totfact>
</mgrwt>
</event>
<event>
 3    1  0.1602107E-001  0.1250000E+03  0.7546771E-02  0.1235069E+00
         21   -1    0    0  502  501  0.00000000000E+00  0.00000000000E+00  0.15570489993E+02  0.15570489993E+02  0.00000000000E+00 0. -1.
         21   -1    0    0  501  502 -0.00000000000E+00 -0.00000000000E+00 -0.25087521342E+03  0.25087521342E+03  0.00000000000E+00 0. -1.
         25    1    1    2    0    0  0.00000000000E+00  0.00000000000E+00 -0.23530472342E+03  0.26644570341E+03  0.12500000000E+03 0.  0.
<mgrwt>
<rscale>  0 0.12500000E+03</rscale>
<asrwt>0</asrwt>
<pdfrwt beam="1">  1       21 0.23954600E-02 0.12500000E+03</pdfrwt>
<pdfrwt beam="2">  1       21 0.38596187E-01 0.12500000E+03</pdfrwt>
<totfact> 0.58363479E+06</totfact>
</mgrwt>
</event>
<event>
 3    1  0.1602107E-001  0.1250000E+03  0.7546771E-02  0.1235069E+00
         21   -1    0    0  502  501  0.00000000000E+00  0.00000000000E+00  0.20712881412E+03  0.20712881412E+03  0.00000000000E+00 0.  1.
         21   -1    0    0  501  502 -0.00000000000E+00 -0.00000000000E+00 -0.18859037149E+02  0.18859037149E+02  0.00000000000E+00 0.  1.
         25    1    1    2    0    0  0.00000000000E+00  0.00000000000E+00  0.18826977697E+03  0.22598785127E+03  0.12500000000E+03 0.  0.
<mgrwt>
<rscale>  0 0.12500000E+03</rscale>
<asrwt>0</asrwt>
<pdfrwt beam="1">  1       21 0.31865970E-01 0.12500000E+03</pdfrwt>
<pdfrwt beam="2">  1       21 0.29013905E-02 0.12500000E+03</pdfrwt>
<totfact> 0.62215539E+06</totfact>
</mgrwt>
</event>
<event>
 3    1  0.1602107E-001  0.1250000E+03  0.7546771E-02  0.1235069E+00
         21   -1    0    0  502  501  0.00000000000E+00  0.00000000000E+00  0.49666797846E+03  0.49666797846E+03  0.00000000000E+00 0.  1.
         21   -1    0    0  501  502 -0.00000000000E+00 -0.00000000000E+00 -0.78649121132E+01  0.78649121132E+01  0.00000000000E+00 0.  1.
         25    1    1    2    0    0  0.00000000000E+00  0.00000000000E+00  0.48880306634E+03  0.50453289057E+03  0.12500000000E+03 0.  0.
<mgrwt>
<rscale>  0 0.12500000E+03</rscale>
<asrwt>0</asrwt>
<pdfrwt beam="1">  1       21 0.76410434E-01 0.12500000E+03</pdfrwt>
<pdfrwt beam="2">  1       21 0.12099869E-02 0.12500000E+03</pdfrwt>
<totfact> 0.41799312E+06</totfact>
</mgrwt>
</event>
<event>
 3    1  0.1602107E-001  0.1250000E+03  0.7546771E-02  0.1235069E+00
         21   -1    0    0  502  501  0.00000000000E+00  0.00000000000E+00  0.21763573621E+02  0.21763573621E+02  0.00000000000E+00 0. -1.
         21   -1    0    0  501  502 -0.00000000000E+00 -0.00000000000E+00 -0.17948568870E+03  0.17948568870E+03  0.00000000000E+00 0. -1.
         25    1    1    2    0    0  0.00000000000E+00  0.00000000000E+00 -0.15772211508E+03  0.20124926232E+03  0.12500000000E+03 0.  0.
<mgrwt>
<rscale>  0 0.12500000E+03</rscale>
<asrwt>0</asrwt>
<pdfrwt beam="1">  1       21 0.33482423E-02 0.12500000E+03</pdfrwt>
<pdfrwt beam="2">  1       21 0.27613182E-01 0.12500000E+03</pdfrwt>
<totfact> 0.64792138E+06</totfact>
</mgrwt>
</event>
<event>
 3    1  0.1602107E-001  0.1250000E+03  0.7546771E-02  0.1235069E+00
         21   -1    0    0  502  501  0.00000000000E+00  0.00000000000E+00  0.64569471533E+01  0.64569471533E+01  0.00000000000E+00 0. -1.
         21   -1    0    0  501  502 -0.00000000000E+00 -0.00000000000E+00 -0.60496855670E+03  0.60496855670E+03  0.00000000000E+00 0. -1.
         25    1    1    2    0    0  0.00000000000E+00  0.00000000000E+00 -0.59851160955E+03  0.61142550385E+03  0.12500000000E+03 0.  0.
<mgrwt>
<rscale>  0 0.12500000E+03</rscale>
<asrwt>0</asrwt>
<pdfrwt beam="1">  1       21 0.99337671E-03 0.12500000E+03</pdfrwt>
<pdfrwt beam="2">  1       21 0.93072064E-01 0.12500000E+03</pdfrwt>
<totfact> 0.36580978E+06</totfact>
</mgrwt>
</event>
<event>
 3    1  0.1602107E-001  0.1250000E+03  0.7546771E-02  0.1235069E+00
         21   -1    0    0  502  501  0.00000000000E+00  0.00000000000E+00  0.86880363316E+02  0.86880363316E+02  0.00000000000E+00 0. -1.
         21   -1    0    0  501  502 -0.00000000000E+00 -0.00000000000E+00 -0.44961253049E+02  0.44961253049E+02  0.00000000000E+00 0. -1.
         25    1    1    2    0    0  0.00000000000E+00  0.00000000000E+00  0.41919110267E+02  0.13184161636E+03  0.12500000000E+03 0.  0.
<mgrwt>
<rscale>  0 0.12500000E+03</rscale>
<asrwt>0</asrwt>
<pdfrwt beam="1">  1       21 0.13366210E-01 0.12500000E+03</pdfrwt>
<pdfrwt beam="2">  1       21 0.69171159E-02 0.12500000E+03</pdfrwt>
<totfact> 0.73117481E+06</totfact>
</mgrwt>
</event>
<event>
 3    1  0.1602107E-001  0.1250000E+03  0.7546771E-02  0.1235069E+00
         21   -1    0    0  502  501  0.00000000000E+00  0.00000000000E+00  0.40625027493E+02  0.40625027493E+02  0.00000000000E+00 0.  1.
         21   -1    0    0  501  502 -0.00000000000E+00 -0.00000000000E+00 -0.96153781081E+02  0.96153781081E+02  0.00000000000E+00 0.  1.
         25    1    1    2    0    0  0.00000000000E+00  0.00000000000E+00 -0.55528753587E+02  0.13677880857E+03  0.12500000000E+03 0.  0.
<mgrwt>
<rscale>  0 0.12500000E+03</rscale>
<asrwt>0</asrwt>
<pdfrwt beam="1">  1       21 0.62500043E-02 0.12500000E+03</pdfrwt>
<pdfrwt beam="2">  1       21 0.14792889E-01 0.12500000E+03</pdfrwt>
<totfact> 0.72461793E+06</totfact>
</mgrwt>
</event>
<event>
 3    1  0.1602107E-001  0.1250000E+03  0.7546771E-02  0.1235069E+00
         21   -1    0    0  502  501  0.00000000000E+00  0.00000000000E+00  0.14264752342E+02  0.14264752342E+02  0.00000000000E+00 0.  1.
         21   -1    0    0  501  502 -0.00000000000E+00 -0.00000000000E+00 -0.27383931431E+03  0.27383931431E+03  0.00000000000E+00 0.  1.
         25    1    1    2    0    0  0.00000000000E+00  0.00000000000E+00 -0.25957456196E+03  0.28810406665E+03  0.12500000000E+03 0.  0.
<mgrwt>
<rscale>  0 0.12500000E+03</rscale>
<asrwt>0</asrwt>
<pdfrwt beam="1">  1       21 0.21945774E-02 0.12500000E+03</pdfrwt>
<pdfrwt beam="2">  1       21 0.42129124E-01 0.12500000E+03</pdfrwt>
<totfact> 0.56459493E+06</totfact>
</mgrwt>
</event>
<event>
 3    1  0.1602107E-001  0.1250000E+03  0.7546771E-02  0.1235069E+00
         21   -1    0    0  502  501  0.00000000000E+00  0.00000000000E+00  0.75757605189E+02  0.75757605189E+02  0.00000000000E+00 0.  1.
         21   -1    0    0  501  502 -0.00000000000E+00 -0.00000000000E+00 -0.51562479968E+02  0.51562479968E+02  0.00000000000E+00 0.  1.
         25    1    1    2    0    0  0.00000000000E+00  0.00000000000E+00  0.24195125221E+02  0.12732008516E+03  0.12500000000E+03 0.  0.
<mgrwt>
<rscale>  0 0.12500000E+03</rscale>
<asrwt>0</asrwt>
<pdfrwt beam="1">  1       21 0.11655016E-01 0.12500000E+03</pdfrwt>
<pdfrwt beam="2">  1       21 0.79326893E-02 0.12500000E+03</pdfrwt>
<totfact> 0.73725625E+06</totfact>
</mgrwt>
</event>
<event>
 3    1  0.1602107E-001  0.1250000E+03  0.7546771E-02  0.1235069E+00
         21   -1    0    0  502  501  0.00000000000E+00  0.00000000000E+00  0.17423500381E+04  0.17423500381E+04  0.00000000000E+00 0. -1.
         21   -1    0    0  501  502 -0.00000000000E+00 -0.00000000000E+00 -0.22419433034E+01  0.22419433034E+01  0.00000000000E+00 0. -1.
         25    1    1    2    0    0  0.00000000000E+00  0.00000000000E+00  0.17401080948E+04  0.17445919814E+04  0.12500000000E+03 0.  0.
<mgrwt>
<rscale>  0 0.12500000E+03</rscale>
<asrwt>0</asrwt>
<pdfrwt beam="1">  1       21 0.26805277E+00 0.12500000E+03</pdfrwt>
<pdfrwt beam="2">  1       21 0.34491575E-03 0.12500000E+03</pdfrwt>
<totfact> 0.10722676E+06</totfact>
</mgrwt>
</event>
<event>
 3    1  0.1602107E-001  0.1250000E+03  0.7546771E-02  0.1235069E+00
         21   -1    0    0  502  501  0.00000000000E+00  0.00000000000E+00  0.30423586102E+02  0.30423586102E+02  0.00000000000E+00 0.  1.
         21   -1    0    0  501  502 -0.00000000000E+00 -0.00000000000E+00 -0.12839544907E+03  0.12839544907E+03  0.00000000000E+00 0.  1.
         25    1    1    2    0    0  0.00000000000E+00  0.00000000000E+00 -0.97971862969E+02  0.15881903517E+03  0.12500000000E+03 0.  0.
<mgrwt>
<rscale>  0 0.12500000E+03</rscale>
<asrwt>0</asrwt>
<pdfrwt beam="1">  1       21 0.46805518E-02 0.12500000E+03</pdfrwt>
<pdfrwt beam="2">  1       21 0.19753146E-01 0.12500000E+03</pdfrwt>
<totfact> 0.69664086E+06</totfact>
</mgrwt>
</event>
<event>
 3    1  0.1602107E-001  0.1250000E+03  0.7546771E-02  0.1235069E+00
         21   -1    0    0  502  501  0.00000000000E+00  0.00000000000E+00  0.13788290889E+02  0.13788290889E+02  0.00000000000E+00 0. -1.
         21   -1    0    0  501  502 -0.00000000000E+00 -0.00000000000E+00 -0.28330197204E+03  0.28330197204E+03  0.00000000000E+00 0. -1.
         25    1    1    2    0    0  0.00000000000E+00  0.00000000000E+00 -0.26951368115E+03  0.29709026293E+03  0.12500000000E+03 0.  0.
<mgrwt>
<rscale>  0 0.12500000E+03</rscale>
<asrwt>0</asrwt>
<pdfrwt beam="1">  1       21 0.21212754E-02 0.12500000E+03</pdfrwt>
<pdfrwt beam="2">  1       21 0.43584921E-01 0.12500000E+03</pdfrwt>
<totfact> 0.55698853E+06</totfact>
</mgrwt>
</event>
<event>
 3    1  0.1602107E-001  0.1250000E+03  0.7546771E-02  0.1235069E+00
         21   -1    0    0  502  501  0.00000000000E+00  0.00000000000E+00  0.13414633760E+03  0.13414633760E+03  0.00000000000E+00 0.  1.
         21   -1    0    0  501  502 -0.00000000000E+00 -0.00000000000E+00 -0.29119319021E+02  0.29119319021E+02  0.00000000000E+00 0.  1.
         25    1    1    2    0    0  0.00000000000E+00  0.00000000000E+00  0.10502701858E+03  0.16326565662E+03  0.12500000000E+03 0.  0.
<mgrwt>
<rscale>  0 0.12500000E+03</rscale>
<asrwt>0</asrwt>
<pdfrwt beam="1">  1       21 0.20637898E-01 0.12500000E+03</pdfrwt>
<pdfrwt beam="2">  1       21 0.44798953E-02 0.12500000E+03</pdfrwt>
<totfact> 0.69122653E+06</totfact>
</mgrwt>
</event>
<event>
 3    1  0.1602107E-001  0.1250000E+03  0.7546771E-02  0.1235069E+00
         21   -1    0    0  502  501  0.00000000000E+00  0.00000000000E+00  0.29942180295E+02  0.29942180295E+02  0.00000000000E+00 0. -1.
         21   -1    0    0  501  502 -0.00000000000E+00 -0.00000000000E+00 -0.13045977152E+03  0.13045977152E+03  0.00000000000E+00 0. -1.
         25    1    1    2    0    0  0.00000000000E+00  0.00000000000E+00 -0.10051759122E+03  0.16040195181E+03  0.12500000000E+03 0.  0.
<mgrwt>
<rscale>  0 0.12500000E+03</rscale>
<asrwt>0</asrwt>
<pdfrwt beam="1">  1       21 0.46064892E-02 0.12500000E+03</pdfrwt>
<pdfrwt beam="2">  1       21 0.20070734E-01 0.12500000E+03</pdfrwt>
<totfact> 0.69470415E+06</totfact>
</mgrwt>
</event>
<event>
 3    1  0.1602107E-001  0.1250000E+03  0.7546771E-02  0.1235069E+00
         21   -1    0    0  502  501  0.00000000000E+00  0.00000000000E+00  0.23881636766E+03  0.23881636766E+03  0.00000000000E+00 0.  1.
         21   -1    0    0  501  502 -0.00000000000E+00 -0.00000000000E+00 -0.16356709711E+02  0.16356709711E+02  0.00000000000E+00 0.  1.
         25    1    1    2    0    0  0.00000000000E+00  0.00000000000E+00  0.22245965795E+03  0.25517307737E+03  0.12500000000E+03 0.  0.
<mgrwt>
<rscale>  0 0.12500000E+03</rscale>
<asrwt>0</asrwt>
<pdfrwt beam="1">  1       21 0.36740977E-01 0.12500000E+03</pdfrwt>
<pdfrwt beam="2">  1       21 0.25164171E-02 0.12500000E+03</pdfrwt>
<totfact> 0.59394543E+06</totfact>
</mgrwt>
</event>
<event>
 3    1  0.1602107E-001  0.1250000E+03  0.7546771E-02  0.1235069E+00
         21   -1    0    0  502  501  0.00000000000E+00  0.00000000000E+00  0.74885842736E+01  0.74885842736E+01  0.00000000000E+00 0. -1.
         21   -1    0    0  501  502 -0.00000000000E+00 -0.00000000000E+00 -0.52162730060E+03  0.52162730060E+03  0.00000000000E+00 0. -1.
         25    1    1    2    0    0  0.00000000000E+00  0.00000000000E+00 -0.51413871633E+03  0.52911588488E+03  0.12500000000E+03 0.  0.
<mgrwt>
<rscale>  0 0.12500000E+03</rscale>
<asrwt>0</asrwt>
<pdfrwt beam="1">  1       21 0.11520897E-02 0.12500000E+03</pdfrwt>
<pdfrwt beam="2">  1       21 0.80250364E-01 0.12500000E+03</pdfrwt>
<totfact> 0.40507824E+06</totfact>
</mgrwt>
</event>
<event>
 3    1  0.1602107E-001  0.1250000E+03  0.7546771E-02  0.1235069E+00
         21   -1    0    0  502  501  0.00000000000E+00  0.00000000000E+00  0.51925131781E+03  0.51925131781E+03  0.00000000000E+00 0. -1.
         21   -1    0    0  501  502 -0.00000000000E+00 -0.00000000000E+00 -0.75228504311E+01  0.75228504311E+01  0.00000000000E+00 0. -1.
         25    1    1    2    0    0  0.00000000000E+00  0.00000000000E+00  0.51172846738E+03  0.52677416824E+03  0.12500000000E+03 0.  0.
<mgrwt>
<rscale>  0 0.12500000E+03</rscale>
<asrwt>0</asrwt>
<pdfrwt beam="1">  1       21 0.79884790E-01 0.12500000E+03</pdfrwt>
<pdfrwt beam="2">  1       21 0.11573620E-02 0.12500000E+03</pdfrwt>
<totfact> 0.40628311E+06</totfact>
</mgrwt>
</event>
<event>
 3    1  0.1602107E-001  0.1250000E+03  0.7546771E-02  0.1235069E+00
         21   -1    0    0  502  501  0.00000000000E+00  0.00000000000E+00  0.25614994751E+03  0.25614994751E+03  0.00000000000E+00 0. -1.
         21   -1    0    0  501  502 -0.00000000000E+00 -0.00000000000E+00 -0.15249856726E+02  0.15249856726E+02  0.00000000000E+00 0. -1.
         25    1    1    2    0    0  0.00000000000E+00  0.00000000000E+00  0.24090009079E+03  0.27139980424E+03  0.12500000000E+03 0.  0.
<mgrwt>
<rscale>  0 0.12500000E+03</rscale>
<asrwt>0</asrwt>
<pdfrwt beam="1">  1       21 0.39407681E-01 0.12500000E+03</pdfrwt>
<pdfrwt beam="2">  1       21 0.23461320E-02 0.12500000E+03</pdfrwt>
<totfact> 0.57919910E+06</totfact>
</mgrwt>
</event>
<event>
 3    1  0.1602107E-001  0.1250000E+03  0.7546771E-02  0.1235069E+00
         21   -1    0    0  502  501  0.00000000000E+00  0.00000000000E+00  0.34146688127E+02  0.34146688127E+02  0.00000000000E+00 0.  1.
         21   -1    0    0  501  502 -0.00000000000E+00 -0.00000000000E+00 -0.11439616005E+03  0.11439616005E+03  0.00000000000E+00 0.  1.
         25    1    1    2    0    0  0.00000000000E+00  0.00000000000E+00 -0.80249471919E+02  0.14854284817E+03  0.12500000000E+03 0.  0.
<mgrwt>
<rscale>  0 0.12500000E+03</rscale>
<asrwt>0</asrwt>
<pdfrwt beam="1">  1       21 0.52533367E-02 0.12500000E+03</pdfrwt>
<pdfrwt beam="2">  1       21 0.17599409E-01 0.12500000E+03</pdfrwt>
<totfact> 0.70942729E+06</totfact>
</mgrwt>
</event>
<event>
 3    1  0.1602107E-001  0.1250000E+03  0.7546771E-02  0.1235069E+00
         21   -1    0    0  502  501  0.00000000000E+00  0.00000000000E+00  0.87082983999E+03  0.87082983999E+03  0.00000000000E+00 0.  1.
         21   -1    0    0  501  502 -0.00000000000E+00 -0.00000000000E+00 -0.44856639272E+01  0.44856639272E+01  0.00000000000E+00 0.  1.
         25    1    1    2    0    0  0.00000000000E+00  0.00000000000E+00  0.86634417606E+03  0.87531550391E+03  0.12500000000E+03 0.  0.
<mgrwt>
<rscale>  0 0.12500000E+03</rscale>
<asrwt>0</asrwt>
<pdfrwt beam="1">  1       21 0.13397369E+00 0.12500000E+03</pdfrwt>
<pdfrwt beam="2">  1       21 0.69010283E-03 0.12500000E+03</pdfrwt>
<totfact> 0.27013660E+06</totfact>
</mgrwt>
</event>
<event>
 3    1  0.1602107E-001  0.1250000E+03  0.7546771E-02  0.1235069E+00
         21   -1    0    0  502  501  0.00000000000E+00  0.00000000000E+00  0.22600970948E+02  0.22600970948E+02  0.00000000000E+00 0. -1.
         21   -1    0    0  501  502 -0.00000000000E+00 -0.00000000000E+00 -0.17283549494E+03  0.17283549494E+03  0.00000000000E+00 0. -1.
         25    1    1    2    0    0  0.00000000000E+00  0.00000000000E+00 -0.15023452399E+03  0.19543646589E+03  0.12500000000E+03 0.  0.
<mgrwt>
<rscale>  0 0.12500000E+03</rscale>
<asrwt>0</asrwt>
<pdfrwt beam="1">  1       21 0.34770723E-02 0.12500000E+03</pdfrwt>
<pdfrwt beam="2">  1       21 0.26590077E-01 0.12500000E+03</pdfrwt>
<totfact> 0.65423284E+06</totfact>
</mgrwt>
</event>
<event>
 3    1  0.1602107E-001  0.1250000E+03  0.7546771E-02  0.1235069E+00
         21   -1    0    0  502  501  0.00000000000E+00  0.00000000000E+00  0.93904180681E+02  0.93904180681E+02  0.00000000000E+00 0. -1.
         21   -1    0    0  501  502 -0.00000000000E+00 -0.00000000000E+00 -0.41598254430E+02  0.41598254430E+02  0.00000000000E+00 0. -1.
         25    1    1    2    0    0  0.00000000000E+00  0.00000000000E+00  0.52305926251E+02  0.13550243511E+03  0.12500000000E+03 0.  0.
<mgrwt>
<rscale>  0 0.12500000E+03</rscale>
<asrwt>0</asrwt>
<pdfrwt beam="1">  1       21 0.14446797E-01 0.12500000E+03</pdfrwt>
<pdfrwt beam="2">  1       21 0.63997315E-02 0.12500000E+03</pdfrwt>
<totfact> 0.72630015E+06</totfact>
</mgrwt>
</event>
<event>
 3    1  0.1602107E-001  0.1250000E+03  0.7546771E-02  0.1235069E+00
         21   -1    0    0  502  501  0.00000000000E+00  0.00000000000E+00  0.69663550417E+02  0.69663550417E+02  0.00000000000E+00 0. -1.
         21   -1    0    0  501  502 -0.00000000000E+00 -0.00000000000E+00 -0.56073082359E+02  0.56073082359E+02  0.00000000000E+00 0. -1.
         25    1    1    2    0    0  0.00000000000E+00  0.00000000000E+00  0.13590468058E+02  0.12573663278E+03  0.12500000000E+03 0.  0.
<mgrwt>
<rscale>  0 0.12500000E+03</rscale>
<asrwt>0</asrwt>
<pdfrwt beam="1">  1       21 0.10717469E-01 0.12500000E+03</pdfrwt>
<pdfrwt beam="2">  1       21 0.86266281E-02 0.12500000E+03</pdfrwt>
<totfact> 0.73942454E+06</totfact>
</mgrwt>
</event>
<event>
 3    1  0.1602107E-001  0.1250000E+03  0.7546771E-02  0.1235069E+00
         21   -1    0    0  502  501  0.00000000000E+00  0.00000000000E+00  0.11292774308E+02  0.11292774308E+02  0.00000000000E+00 0.  1.
         21   -1    0    0  501  502 -0.00000000000E+00 -0.00000000000E+00 -0.34590702810E+03  0.34590702810E+03  0.00000000000E+00 0.  1.
         25    1    1    2    0    0  0.00000000000E+00  0.00000000000E+00 -0.33461425379E+03  0.35719980241E+03  0.12500000000E+03 0.  0.
<mgrwt>
<rscale>  0 0.12500000E+03</rscale>
<asrwt>0</asrwt>
<pdfrwt beam="1">  1       21 0.17373502E-02 0.12500000E+03</pdfrwt>
<pdfrwt beam="2">  1       21 0.53216458E-01 0.12500000E+03</pdfrwt>
<totfact> 0.51011066E+06</totfact>
</mgrwt>
</event>
<event>
 3    1  0.1602107E-001  0.1250000E+03  0.7546771E-02  0.1235069E+00
         21   -1    0    0  502  501  0.00000000000E+00  0.00000000000E+00  0.23443026985E+02  0.23443026985E+02  0.00000000000E+00 0. -1.
         21   -1    0    0  501  502 -0.00000000000E+00 -0.00000000000E+00 -0.16662737293E+03  0.16662737293E+03  0.00000000000E+00 0. -1.
         25    1    1    2    0    0  0.00000000000E+00  0.00000000000E+00 -0.14318434594E+03  0.19007039991E+03  0.12500000000E+03 0.  0.
<mgrwt>
<rscale>  0 0.12500000E+03</rscale>
<asrwt>0</asrwt>
<pdfrwt beam="1">  1       21 0.36066195E-02 0.12500000E+03</pdfrwt>
<pdfrwt beam="2">  1       21 0.25634981E-01 0.12500000E+03</pdfrwt>
<totfact> 0.66014640E+06</totfact>
</mgrwt>
</event>
<event>
 3    1  0.1602107E-001  0.1250000E+03  0.7546771E-02  0.1235069E+00
         21   -1    0    0  502  501  0.00000000000E+00  0.00000000000E+00  0.10876224676E+03  0.10876224676E+03  0.00000000000E+00 0. -1.
         21   -1    0    0  501  502 -0.00000000000E+00 -0.00000000000E+00 -0.35915495647E+02  0.35915495647E+02  0.00000000000E+00 0. -1.
         25    1    1    2    0    0  0.00000000000E+00  0.00000000000E+00  0.72846751111E+02  0.14467774240E+03  0.12500000000E+03 0.  0.
<mgrwt>
<rscale>  0 0.12500000E+03</rscale>
<asrwt>0</asrwt>
<pdfrwt beam="1">  1       21 0.16732653E-01 0.12500000E+03</pdfrwt>
<pdfrwt beam="2">  1       21 0.55254609E-02 0.12500000E+03</pdfrwt>
<totfact> 0.71434365E+06</totfact>
</mgrwt>
</event>
<event>
 3    1  0.1602107E-001  0.1250000E+03  0.7546771E-02  0.1235069E+00
         21   -1    0    0  502  501  0.00000000000E+00  0.00000000000E+00  0.25123256699E+03  0.25123256699E+03  0.00000000000E+00 0.  1.
         21   -1    0    0  501  502 -0.00000000000E+00 -0.00000000000E+00 -0.15548342505E+02  0.15548342505E+02  0.00000000000E+00 0.  1.
         25    1    1    2    0    0  0.00000000000E+00  0.00000000000E+00  0.23568422448E+03  0.26678090949E+03  0.12500000000E+03 0.  0.
<mgrwt>
<rscale>  0 0.12500000E+03</rscale>
<asrwt>0</asrwt>
<pdfrwt beam="1">  1       21 0.38651161E-01 0.12500000E+03</pdfrwt>
<pdfrwt beam="2">  1       21 0.23920529E-02 0.12500000E+03</pdfrwt>
<totfact> 0.58333287E+06</totfact>
</mgrwt>
</event>
<event>
 3    1  0.1602107E-001  0.1250000E+03  0.7546771E-02  0.1235069E+00
         21   -1    0    0  502  501  0.00000000000E+00  0.00000000000E+00  0.84946592975E+02  0.84946592975E+02  0.00000000000E+00 0.  1.
         21   -1    0    0  501  502 -0.00000000000E+00 -0.00000000000E+00 -0.45984775412E+02  0.45984775412E+02  0.00000000000E+00 0.  1.
         25    1    1    2    0    0  0.00000000000E+00  0.00000000000E+00  0.38961817563E+02  0.13093136839E+03  0.12500000000E+03 0.  0.
<mgrwt>
<rscale>  0 0.12500000E+03</rscale>
<asrwt>0</asrwt>
<pdfrwt beam="1">  1       21 0.13068707E-01 0.12500000E+03</pdfrwt>
<pdfrwt beam="2">  1       21 0.70745808E-02 0.12500000E+03</pdfrwt>
<totfact> 0.73239921E+06</totfact>
</mgrwt>
</event>
<event>
 3    1  0.1602107E-001  0.1250000E+03  0.7546771E-02  0.1235069E+00
         21   -1    0    0  502  501  0.00000000000E+00  0.00000000000E+00  0.68094697387E+03  0.68094697387E+03  0.00000000000E+00 0. -1.
         21   -1    0    0  501  502 -0.00000000000E+00 -0.00000000000E+00 -0.57364965995E+01  0.57364965995E+01  0.00000000000E+00 0. -1.
         25    1    1    2    0    0  0.00000000000E+00  0.00000000000E+00  0.67521047727E+03  0.68668347046E+03  0.12500000000E+03 0.  0.
<mgrwt>
<rscale>  0 0.12500000E+03</rscale>
<asrwt>0</asrwt>
<pdfrwt beam="1">  1       21 0.10476101E+00 0.12500000E+03</pdfrwt>
<pdfrwt beam="2">  1       21 0.88253848E-03 0.12500000E+03</pdfrwt>
<totfact> 0.33429907E+06</totfact>
</mgrwt>
</event>
<event>
 3    1  0.1602107E-001  0.1250000E+03  0.7546771E-02  0.1235069E+00
         21   -1    0    0  502  501  0.00000000000E+00  0.00000000000E+00  0.36637496792E+02  0.36637496792E+02  0.00000000000E+00 0. -1.
         21   -1    0    0  501  502 -0.00000000000E+00 -0.00000000000E+00 -0.10661891074E+03  0.10661891074E+03  0.00000000000E+00 0. -1.
         25    1    1    2    0    0  0.00000000000E+00  0.00000000000E+00 -0.69981413944E+02  0.14325640753E+03  0.12500000000E+03 0.  0.
<mgrwt>
<rscale>  0 0.12500000E+03</rscale>
<asrwt>0</asrwt>
<pdfrwt beam="1">  1       21 0.56365380E-02 0.12500000E+03</pdfrwt>
<pdfrwt beam="2">  1       21 0.16402909E-01 0.12500000E+03</pdfrwt>
<totfact> 0.71616990E+06</totfact>
</mgrwt>
</event>
<event>
 3    1  0.1602107E-001  0.1250000E+03  0.7546771E-02  0.1235069E+00
         21   -1    0    0  502  501  0.00000000000E+00  0.00000000000E+00  0.15001553856E+03  0.15001553856E+03  0.00000000000E+00 0.  1.
         21   -1    0    0  501  502 -0.00000000000E+00 -0.00000000000E+00 -0.26038969279E+02  0.26038969279E+02  0.00000000000E+00 0.  1.
         25    1    1    2    0    0  0.00000000000E+00  0.00000000000E+00  0.12397656929E+03  0.17605450784E+03  0.12500000000E+03 0.  0.
<mgrwt>
<rscale>  0 0.12500000E+03</rscale>
<asrwt>0</asrwt>
<pdfrwt beam="1">  1       21 0.23079313E-01 0.12500000E+03</pdfrwt>
<pdfrwt beam="2">  1       21 0.40059954E-02 0.12500000E+03</pdfrwt>
<totfact> 0.67607059E+06</totfact>
</mgrwt>
</event>
<event>
 3    1  0.1602107E-001  0.1250000E+03  0.7546771E-02  0.1235069E+00
         21   -1    0    0  502  501  0.00000000000E+00  0.00000000000E+00  0.10734392514E+02  0.10734392514E+02  0.00000000000E+00 0.  1.
         21   -1    0    0  501  502 -0.00000000000E+00 -0.00000000000E+00 -0.36390042520E+03  0.36390042520E+03  0.00000000000E+00 0.  1.
         25    1    1    2    0    0  0.00000000000E+00  0.00000000000E+00 -0.35316603269E+03  0.37463481771E+03  0.12500000000E+03 0.  0.
<mgrwt>
<rscale>  0 0.12500000E+03</rscale>
<asrwt>0</asrwt>
<pdfrwt beam="1">  1       21 0.16514451E-02 0.12500000E+03</pdfrwt>
<pdfrwt beam="2">  1       21 0.55984679E-01 0.12500000E+03</pdfrwt>
<totfact> 0.49768970E+06</totfact>
</mgrwt>
</event>
<event>
 3    1  0.1602107E-001  0.1250000E+03  0.7546771E-02  0.1235069E+00
         21   -1    0    0  502  501  0.00000000000E+00  0.00000000000E+00  0.45150184274E+03  0.45150184274E+03  0.00000000000E+00 0.  1.
         21   -1    0    0  501  502 -0.00000000000E+00 -0.00000000000E+00 -0.86516811897E+01  0.86516811897E+01  0.00000000000E+00 0.  1.
         25    1    1    2    0    0  0.00000000000E+00  0.00000000000E+00  0.44285016155E+03  0.46015352393E+03  0.12500000000E+03 0.  0.
<mgrwt>
<rscale>  0 0.12500000E+03</rscale>
<asrwt>0</asrwt>
<pdfrwt beam="1">  1       21 0.69461803E-01 0.12500000E+03</pdfrwt>
<pdfrwt beam="2">  1       21 0.13310282E-02 0.12500000E+03</pdfrwt>
<totfact> 0.44290880E+06</totfact>
</mgrwt>
</event>
<event>
 3    1  0.1602107E-001  0.1250000E+03  0.7546771E-02  0.1235069E+00
         21   -1    0    0  502  501  0.00000000000E+00  0.00000000000E+00  0.75133893353E+01  0.75133893353E+01  0.00000000000E+00 0.  1.
         21   -1    0    0  501  502 -0.00000000000E+00 -0.00000000000E+00 -0.51990517537E+03  0.51990517537E+03  0.00000000000E+00 0.  1.
         25    1    1    2    0    0  0.00000000000E+00  0.00000000000E+00 -0.51239178603E+03  0.52741856470E+03  0.12500000000E+03 0.  0.
<mgrwt>
<rscale>  0 0.12500000E+03</rscale>
<asrwt>0</asrwt>
<pdfrwt beam="1">  1       21 0.11559062E-02 0.12500000E+03</pdfrwt>
<pdfrwt beam="2">  1       21 0.79985399E-01 0.12500000E+03</pdfrwt>
<totfact> 0.40595101E+06</totfact>
</mgrwt>
</event>
<event>
 3    1  0.1602107E-001  0.1250000E+03  0.7546771E-02  0.1235069E+00
         21   -1    0    0  502  501  0.00000000000E+00  0.00000000000E+00  0.45511526719E+03  0.45511526719E+03  0.00000000000E+00 0. -1.
         21   -1    0    0  501  502 -0.00000000000E+00 -0.00000000000E+00 -0.85829904677E+01  0.85829904677E+01  0.00000000000E+00 0. -1.
         25    1    1    2    0    0  0.00000000000E+00  0.00000000000E+00  0.44653227672E+03  0.46369825766E+03  0.12500000000E+03 0.  0.
<mgrwt>
<rscale>  0 0.12500000E+03</rscale>
<asrwt>0</asrwt>
<pdfrwt beam="1">  1       21 0.70017714E-01 0.12500000E+03</pdfrwt>
<pdfrwt beam="2">  1       21 0.13204604E-02 0.12500000E+03</pdfrwt>
<totfact> 0.44083788E+06</totfact>
</mgrwt>
</event>
<event>
 3    1  0.1602107E-001  0.1250000E+03  0.7546771E-02  0.1235069E+00
         21   -1    0    0  502  501  0.00000000000E+00  0.00000000000E+00  0.30103016435E+03  0.30103016435E+03  0.00000000000E+00 0. -1.
         21   -1    0    0  501  502 -0.00000000000E+00 -0.00000000000E+00 -0.12976274349E+02  0.12976274349E+02  0.00000000000E+00 0. -1.
         25    1    1    2    0    0  0.00000000000E+00  0.00000000000E+00  0.28805389000E+03  0.31400643870E+03  0.12500000000E+03 0.  0.
<mgrwt>
<rscale>  0 0.12500000E+03</rscale>
<asrwt>0</asrwt>
<pdfrwt beam="1">  1       21 0.46312328E-01 0.12500000E+03</pdfrwt>
<pdfrwt beam="2">  1       21 0.19963501E-02 0.12500000E+03</pdfrwt>
<totfact> 0.54311748E+06</totfact>
</mgrwt>
</event>
<event>
 3    1  0.1602107E-001  0.1250000E+03  0.7546771E-02  0.1235069E+00
         21   -1    0    0  502  501  0.00000000000E+00  0.00000000000E+00  0.84107388825E+02  0.84107388825E+02  0.00000000000E+00 0. -1.
         21   -1    0    0  501  502 -0.00000000000E+00 -0.00000000000E+00 -0.46443600908E+02  0.46443600908E+02  0.00000000000E+00 0. -1.
         25    1    1    2    0    0  0.00000000000E+00  0.00000000000E+00  0.37663787917E+02  0.13055098973E+03  0.12500000000E+03 0.  0.
<mgrwt>
<rscale>  0 0.12500000E+03</rscale>
<asrwt>0</asrwt>
<pdfrwt beam="1">  1       21 0.12939598E-01 0.12500000E+03</pdfrwt>
<pdfrwt beam="2">  1       21 0.71451694E-02 0.12500000E+03</pdfrwt>
<totfact> 0.73291244E+06</totfact>
</mgrwt>
</event>
<event>
 3    1  0.1602107E-001  0.1250000E+03  0.7546771E-02  0.1235069E+00
         21   -1    0    0  502  501  0.00000000000E+00  0.00000000000E+00  0.13907448822E+03  0.13907448822E+03  0.00000000000E+00 0. -1.
         21   -1    0    0  501  502 -0.00000000000E+00 -0.00000000000E+00 -0.28087466292E+02  0.28087466292E+02  0.00000000000E+00 0. -1.
         25    1    1    2    0    0  0.00000000000E+00  0.00000000000E+00  0.11098702193E+03  0.16716195451E+03  0.12500000000E+03 0.  0.
<mgrwt>
<rscale>  0 0.12500000E+03</rscale>
<asrwt>0</asrwt>
<pdfrwt beam="1">  1       21 0.21396075E-01 0.12500000E+03</pdfrwt>
<pdfrwt beam="2">  1       21 0.43211487E-02 0.12500000E+03</pdfrwt>
<totfact> 0.68654799E+06</totfact>
</mgrwt>
</event>
<event>
 3    1  0.1602107E-001  0.1250000E+03  0.7546771E-02  0.1235069E+00
         21   -1    0    0  502  501  0.00000000000E+00  0.00000000000E+00  0.19170152945E+03  0.19170152945E+03  0.00000000000E+00 0.  1.
         21   -1    0    0  501  502 -0.00000000000E+00 -0.00000000000E+00 -0.20376728403E+02  0.20376728403E+02  0.00000000000E+00 0.  1.
         25    1    1    2    0    0  0.00000000000E+00  0.00000000000E+00  0.17132480105E+03  0.21207825785E+03  0.12500000000E+03 0.  0.
<mgrwt>
<rscale>  0 0.12500000E+03</rscale>
<asrwt>0</asrwt>
<pdfrwt beam="1">  1       21 0.29492542E-01 0.12500000E+03</pdfrwt>
<pdfrwt beam="2">  1       21 0.31348814E-02 0.12500000E+03</pdfrwt>
<totfact> 0.63641541E+06</totfact>
</mgrwt>
</event>
<event>
 3    1  0.1602107E-001  0.1250000E+03  0.7546771E-02  0.1235069E+00
         21   -1    0    0  502  501  0.00000000000E+00  0.00000000000E+00  0.36471156923E+03  0.36471156923E+03  0.00000000000E+00 0. -1.
         21   -1    0    0  501  502 -0.00000000000E+00 -0.00000000000E+00 -0.10710518474E+02  0.10710518474E+02  0.00000000000E+00 0. -1.
         25    1    1    2    0    0  0.00000000000E+00  0.00000000000E+00  0.35400105076E+03  0.37542208771E+03  0.12500000000E+03 0.  0.
<mgrwt>
<rscale>  0 0.12500000E+03</rscale>
<asrwt>0</asrwt>
<pdfrwt beam="1">  1       21 0.56109463E-01 0.12500000E+03</pdfrwt>
<pdfrwt beam="2">  1       21 0.16477724E-02 0.12500000E+03</pdfrwt>
<totfact> 0.49714018E+06</totfact>
</mgrwt>
</event>
<event>
 3    1  0.1602107E-001  0.1250000E+03  0.7546771E-02  0.1235069E+00
         21   -1    0    0  502  501  0.00000000000E+00  0.00000000000E+00  0.51140271649E+01  0.51140271649E+01  0.00000000000E+00 0.  1.
         21   -1    0    0  501  502 -0.00000000000E+00 -0.00000000000E+00 -0.76383051440E+03  0.76383051440E+03  0.00000000000E+00 0.  1.
         25    1    1    2    0    0  0.00000000000E+00  0.00000000000E+00 -0.75871648724E+03  0.76894454157E+03  0.12500000000E+03 0.  0.
<mgrwt>
<rscale>  0 0.12500000E+03</rscale>
<asrwt>0</asrwt>
<pdfrwt beam="1">  1       21 0.78677323E-03 0.12500000E+03</pdfrwt>
<pdfrwt beam="2">  1       21 0.11751241E+00 0.12500000E+03</pdfrwt>
<totfact> 0.30413468E+06</totfact>
</mgrwt>
</event>
<event>
 3    1  0.1602107E-001  0.1250000E+03  0.7546771E-02  0.1235069E+00
         21   -1    0    0  502  501  0.00000000000E+00  0.00000000000E+00  0.69307345926E+03  0.69307345926E+03  0.00000000000E+00 0.  1.
         21   -1    0    0  501  502 -0.00000000000E+00 -0.00000000000E+00 -0.56361269470E+01  0.56361269470E+01  0.00000000000E+00 0.  1.
         25    1    1    2    0    0  0.00000000000E+00  0.00000000000E+00  0.68743733232E+03  0.69870958621E+03  0.12500000000E+03 0.  0.
<mgrwt>
<rscale>  0 0.12500000E+03</rscale>
<asrwt>0</asrwt>
<pdfrwt beam="1">  1       21 0.10662662E+00 0.12500000E+03</pdfrwt>
<pdfrwt beam="2">  1       21 0.86709700E-03 0.12500000E+03</pdfrwt>
<totfact> 0.32959965E+06</totfact>
</mgrwt>
</event>
<event>
 3    1  0.1602107E-001  0.1250000E+03  0.7546771E-02  0.1235069E+00
         21   -1    0    0  502  501  0.00000000000E+00  0.00000000000E+00  0.11209103344E+02  0.11209103344E+02  0.00000000000E+00 0. -1.
         21   -1    0    0  501  502 -0.00000000000E+00 -0.00000000000E+00 -0.34848907002E+03  0.34848907002E+03  0.00000000000E+00 0. -1.
         25    1    1    2    0    0  0.00000000000E+00  0.00000000000E+00 -0.33727996668E+03  0.35969817337E+03  0.12500000000E+03 0.  0.
<mgrwt>
<rscale>  0 0.12500000E+03</rscale>
<asrwt>0</asrwt>
<pdfrwt beam="1">  1       21 0.17244777E-02 0.12500000E+03</pdfrwt>
<pdfrwt beam="2">  1       21 0.53613695E-01 0.12500000E+03</pdfrwt>
<totfact> 0.50830077E+06</totfact>
</mgrwt>
</event>
<event>
 3    1  0.1602107E-001  0.1250000E+03  0.7546771E-02  0.1235069E+00
         21   -1    0    0  502  501  0.00000000000E+00  0.00000000000E+00  0.24000262114E+03  0.24000262114E+03  0.00000000000E+00 0. -1.
         21   -1    0    0  501  502 -0.00000000000E+00 -0.00000000000E+00 -0.16275863911E+02  0.16275863911E+02  0.00000000000E+00 0. -1.
         25    1    1    2    0    0  0.00000000000E+00  0.00000000000E+00  0.22372675723E+03  0.25627848505E+03  0.12500000000E+03 0.  0.
<mgrwt>
<rscale>  0 0.12500000E+03</rscale>
<asrwt>0</asrwt>
<pdfrwt beam="1">  1       21 0.36923478E-01 0.12500000E+03</pdfrwt>
<pdfrwt beam="2">  1       21 0.25039792E-02 0.12500000E+03</pdfrwt>
<totfact> 0.59292065E+06</totfact>
</mgrwt>
</event>
<event>
 3    1  0.1602107E-001  0.1250000E+03  0.7546771E-02  0.1235069E+00
         21   -1    0    0  502  501  0.00000000000E+00  0.00000000000E+00  0.31010750845E+02  0.31010750845E+02  0.00000000000E+00 0. -1.
         21   -1    0    0  501  502 -0.00000000000E+00 -0.00000000000E+00 -0.12596437988E+03  0.12596437988E+03  0.00000000000E+00 0. -1.
         25    1    1    2    0    0  0.00000000000E+00  0.00000000000E+00 -0.94953629039E+02  0.15697513073E+03  0.12500000000E+03 0.  0.
<mgrwt>
<rscale>  0 0.12500000E+03</rscale>
<asrwt>0</asrwt>
<pdfrwt beam="1">  1       21 0.47708848E-02 0.12500000E+03</pdfrwt>
<pdfrwt beam="2">  1       21 0.19379135E-01 0.12500000E+03</pdfrwt>
<totfact> 0.69891004E+06</totfact>
</mgrwt>
</event>
<event>
 3    1  0.1602107E-001  0.1250000E+03  0.7546771E-02  0.1235069E+00
         21   -1    0    0  502  501  0.00000000000E+00  0.00000000000E+00  0.49348266710E+02  0.49348266710E+02  0.00000000000E+00 0. -1.
         21   -1    0    0  501  502 -0.00000000000E+00 -0.00000000000E+00 -0.79156782202E+02  0.79156782202E+02  0.00000000000E+00 0. -1.
         25    1    1    2    0    0  0.00000000000E+00  0.00000000000E+00 -0.29808515493E+02  0.12850504891E+03  0.12500000000E+03 0.  0.
<mgrwt>
<rscale>  0 0.12500000E+03</rscale>
<asrwt>0</asrwt>
<pdfrwt beam="1">  1       21 0.75920411E-02 0.12500000E+03</pdfrwt>
<pdfrwt beam="2">  1       21 0.12177966E-01 0.12500000E+03</pdfrwt>
<totfact> 0.73565442E+06</totfact>
</mgrwt>
</event>
<event>
 3    1  0.1602107E-001  0.1250000E+03  0.7546771E-02  0.1235069E+00
         21   -1    0    0  502  501  0.00000000000E+00  0.00000000000E+00  0.14526954209E+03  0.14526954209E+03  0.00000000000E+00 0. -1.
         21   -1    0    0  501  502 -0.00000000000E+00 -0.00000000000E+00 -0.26889669671E+02  0.26889669671E+02  0.00000000000E+00 0. -1.
         25    1    1    2    0    0  0.00000000000E+00  0.00000000000E+00  0.11837987242E+03  0.17215921176E+03  0.12500000000E+03 0.  0.
<mgrwt>
<rscale>  0 0.12500000E+03</rscale>
<asrwt>0</asrwt>
<pdfrwt beam="1">  1       21 0.22349160E-01 0.12500000E+03</pdfrwt>
<pdfrwt beam="2">  1       21 0.41368724E-02 0.12500000E+03</pdfrwt>
<totfact> 0.68062591E+06</totfact>
</mgrwt>
</event>
<event>
 3    1  0.1602107E-001  0.1250000E+03  0.7546771E-02  0.1235069E+00
         21   -1    0    0  502  501  0.00000000000E+00  0.00000000000E+00  0.27264784507E+02  0.27264784507E+02  0.00000000000E+00 0.  1.
         21   -1    0    0  501  502 -0.00000000000E+00 -0.00000000000E+00 -0.14327089213E+03  0.14327089213E+03  0.00000000000E+00 0.  1.
         25    1    1    2    0    0  0.00000000000E+00  0.00000000000E+00 -0.11600610762E+03  0.17053567663E+03  0.12500000000E+03 0.  0.
<mgrwt>
<rscale>  0 0.12500000E+03</rscale>
<asrwt>0</asrwt>
<pdfrwt beam="1">  1       21 0.41945822E-02 0.12500000E+03</pdfrwt>
<pdfrwt beam="2">  1       21 0.22041676E-01 0.12500000E+03</pdfrwt>
<totfact> 0.68254191E+06</totfact>
</mgrwt>
</event>
<event>
 3    1  0.1602107E-001  0.1250000E+03  0.7546771E-02  0.1235069E+00
         21   -1    0    0  502  501  0.00000000000E+00  0.00000000000E+00  0.88929991709E+03  0.88929991709E+03  0.00000000000E+00 0.  1.
         21   -1    0    0  501  502 -0.00000000000E+00 -0.00000000000E+00 -0.43925001284E+01  0.43925001284E+01  0.00000000000E+00 0.  1.
         25    1    1    2    0    0  0.00000000000E+00  0.00000000000E+00  0.88490741696E+03  0.89369241721E+03  0.12500000000E+03 0.  0.
<mgrwt>
<rscale>  0 0.12500000E+03</rscale>
<asrwt>0</asrwt>
<pdfrwt beam="1">  1       21 0.13681523E+00 0.12500000E+03</pdfrwt>
<pdfrwt beam="2">  1       21 0.67576996E-03 0.12500000E+03</pdfrwt>
<totfact> 0.26481311E+06</totfact>
</mgrwt>
</event>
<event>
 3    1  0.1602107E-001  0.1250000E+03  0.7546771E-02  0.1235069E+00
         21   -1    0    0  502  501  0.00000000000E+00  0.00000000000E+00  0.43667638576E+02  0.43667638576E+02  0.00000000000E+00 0.  1.
         21   -1    0    0  501  502 -0.00000000000E+00 -0.00000000000E+00 -0.89454115848E+02  0.89454115848E+02  0.00000000000E+00 0.  1.
         25    1    1    2    0    0  0.00000000000E+00  0.00000000000E+00 -0.45786477272E+02  0.13312175442E+03  0.12500000000E+03 0.  0.
<mgrwt>
<rscale>  0 0.12500000E+03</rscale>
<asrwt>0</asrwt>
<pdfrwt beam="1">  1       21 0.67180983E-02 0.12500000E+03</pdfrwt>
<pdfrwt beam="2">  1       21 0.13762171E-01 0.12500000E+03</pdfrwt>
<totfact> 0.72946144E+06</totfact>
</mgrwt>
</event>
<event>
 3    1  0.1602107E-001  0.1250000E+03  0.7546771E-02  0.1235069E+00
         21   -1    0    0  502  501  0.00000000000E+00  0.00000000000E+00  0.20335755436E+02  0.20335755436E+02  0.00000000000E+00 0. -1.
         21   -1    0    0  501  502 -0.00000000000E+00 -0.00000000000E+00 -0.19208777428E+03  0.19208777428E+03  0.00000000000E+00 0. -1.
         25    1    1    2    0    0  0.00000000000E+00  0.00000000000E+00 -0.17175201885E+03  0.21242352972E+03  0.12500000000E+03 0.  0.
<mgrwt>
<rscale>  0 0.12500000E+03</rscale>
<asrwt>0</asrwt>
<pdfrwt beam="1">  1       21 0.31285779E-02 0.12500000E+03</pdfrwt>
<pdfrwt beam="2">  1       21 0.29551964E-01 0.12500000E+03</pdfrwt>
<totfact> 0.63605452E+06</totfact>
</mgrwt>
</event>
<event>
 3    1  0.1602107E-001  0.1250000E+03  0.7546771E-02  0.1235069E+00
         21   -1    0    0  502  501  0.00000000000E+00  0.00000000000E+00  0.67660709770E+02  0.67660709770E+02  0.00000000000E+00 0. -1.
         21   -1    0    0  501  502 -0.00000000000E+00 -0.00000000000E+00 -0.57732914912E+02  0.57732914912E+02  0.00000000000E+00 0. -1.
         25    1    1    2    0    0  0.00000000000E+00  0.00000000000E+00  0.99277948583E+01  0.12539362468E+03  0.12500000000E+03 0.  0.
<mgrwt>
<rscale>  0 0.12500000E+03</rscale>
<asrwt>0</asrwt>
<pdfrwt beam="1">  1       21 0.10409340E-01 0.12500000E+03</pdfrwt>
<pdfrwt beam="2">  1       21 0.88819869E-02 0.12500000E+03</pdfrwt>
<totfact> 0.73990308E+06</totfact>
</mgrwt>
</event>
<event>
 3    1  0.1602107E-001  0.1250000E+03  0.7546771E-02  0.1235069E+00
         21   -1    0    0  502  501  0.00000000000E+00  0.00000000000E+00  0.57176427136E+03  0.57176427136E+03  0.00000000000E+00 0.  1.
         21   -1    0    0  501  502 -0.00000000000E+00 -0.00000000000E+00 -0.68319239164E+01  0.68319239164E+01  0.00000000000E+00 0.  1.
         25    1    1    2    0    0  0.00000000000E+00  0.00000000000E+00  0.56493234744E+03  0.57859619527E+03  0.12500000000E+03 0.  0.
<mgrwt>
<rscale>  0 0.12500000E+03</rscale>
<asrwt>0</asrwt>
<pdfrwt beam="1">  1       21 0.87963697E-01 0.12500000E+03</pdfrwt>
<pdfrwt beam="2">  1       21 0.10510657E-02 0.12500000E+03</pdfrwt>
<totfact> 0.38078843E+06</totfact>
</mgrwt>
</event>
<event>
 3    1  0.1602107E-001  0.1250000E+03  0.7546771E-02  0.1235069E+00
         21   -1    0    0  502  501  0.00000000000E+00  0.00000000000E+00  0.50893972202E+03  0.50893972202E+03  0.00000000000E+00 0. -1.
         21   -1    0    0  501  502 -0.00000000000E+00 -0.00000000000E+00 -0.76752704318E+01  0.76752704318E+01  0.00000000000E+00 0. -1.
         25    1    1    2    0    0  0.00000000000E+00  0.00000000000E+00  0.50126445159E+03  0.51661499246E+03  0.12500000000E+03 0.  0.
<mgrwt>
<rscale>  0 0.12500000E+03</rscale>
<asrwt>0</asrwt>
<pdfrwt beam="1">  1       21 0.78298392E-01 0.12500000E+03</pdfrwt>
<pdfrwt beam="2">  1       21 0.11808112E-02 0.12500000E+03</pdfrwt>
<totfact> 0.41157112E+06</totfact>
</mgrwt>
</event>
<event>
 3    1  0.1602107E-001  0.1250000E+03  0.7546771E-02  0.1235069E+00
         21   -1    0    0  502  501  0.00000000000E+00  0.00000000000E+00  0.14300902203E+02  0.14300902203E+02  0.00000000000E+00 0.  1.
         21   -1    0    0  501  502 -0.00000000000E+00 -0.00000000000E+00 -0.27314710251E+03  0.27314710251E+03  0.00000000000E+00 0.  1.
         25    1    1    2    0    0  0.00000000000E+00  0.00000000000E+00 -0.25884620031E+03  0.28744800471E+03  0.12500000000E+03 0.  0.
<mgrwt>
<rscale>  0 0.12500000E+03</rscale>
<asrwt>0</asrwt>
<pdfrwt beam="1">  1       21 0.22001388E-02 0.12500000E+03</pdfrwt>
<pdfrwt beam="2">  1       21 0.42022630E-01 0.12500000E+03</pdfrwt>
<totfact> 0.56515697E+06</totfact>
</mgrwt>
</event>
<event>
 3    1  0.1602107E-001  0.1250000E+03  0.7546771E-02  0.1235069E+00
         21   -1    0    0  502  501  0.00000000000E+00  0.00000000000E+00  0.10263776309E+02  0.10263776309E+02  0.00000000000E+00 0. -1.
         21   -1    0    0  501  502 -0.00000000000E+00 -0.00000000000E+00 -0.38058604187E+03  0.38058604187E+03  0.00000000000E+00 0. -1.
         25    1    1    2    0    0  0.00000000000E+00  0.00000000000E+00 -0.37032226556E+03  0.39084981817E+03  0.12500000000E+03 0.  0.
<mgrwt>
<rscale>  0 0.12500000E+03</rscale>
<asrwt>0</asrwt>
<pdfrwt beam="1">  1       21 0.15790424E-02 0.12500000E+03</pdfrwt>
<pdfrwt beam="2">  1       21 0.58551703E-01 0.12500000E+03</pdfrwt>
<totfact> 0.48654251E+06</totfact>
</mgrwt>
</event>
<event>
 3    1  0.1602107E-001  0.1250000E+03  0.7546771E-02  0.1235069E+00
         21   -1    0    0  502  501  0.00000000000E+00  0.00000000000E+00  0.13025060174E+03  0.13025060174E+03  0.00000000000E+00 0. -1.
         21   -1    0    0  501  502 -0.00000000000E+00 -0.00000000000E+00 -0.29990264521E+02  0.29990264521E+02  0.00000000000E+00 0. -1.
         25    1    1    2    0    0  0.00000000000E+00  0.00000000000E+00  0.10026033721E+03  0.16024086626E+03  0.12500000000E+03 0.  0.
<mgrwt>
<rscale>  0 0.12500000E+03</rscale>
<asrwt>0</asrwt>
<pdfrwt beam="1">  1       21 0.20038554E-01 0.12500000E+03</pdfrwt>
<pdfrwt beam="2">  1       21 0.46138869E-02 0.12500000E+03</pdfrwt>
<totfact> 0.69490077E+06</totfact>
</mgrwt>
</event>
<event>
 3    1  0.1602107E-001  0.1250000E+03  0.7546771E-02  0.1235069E+00
         21   -1    0    0  502  501  0.00000000000E+00  0.00000000000E+00  0.15439941693E+03  0.15439941693E+03  0.00000000000E+00 0.  1.
         21   -1    0    0  501  502 -0.00000000000E+00 -0.00000000000E+00 -0.25299642173E+02  0.25299642173E+02  0.00000000000E+00 0.  1.
         25    1    1    2    0    0  0.00000000000E+00  0.00000000000E+00  0.12909977476E+03  0.17969905910E+03  0.12500000000E+03 0.  0.
<mgrwt>
<rscale>  0 0.12500000E+03</rscale>
<asrwt>0</asrwt>
<pdfrwt beam="1">  1       21 0.23753756E-01 0.12500000E+03</pdfrwt>
<pdfrwt beam="2">  1       21 0.38922527E-02 0.12500000E+03</pdfrwt>
<totfact> 0.67186076E+06</totfact>
</mgrwt>
</event>
<event>
 3    1  0.1602107E-001  0.1250000E+03  0.7546771E-02  0.1235069E+00
         21   -1    0    0  502  501  0.00000000000E+00  0.00000000000E+00  0.38321263080E+02  0.38321263080E+02  0.00000000000E+00 0.  1.
         21   -1    0    0  501  502 -0.00000000000E+00 -0.00000000000E+00 -0.10193427059E+03  0.10193427059E+03  0.00000000000E+00 0.  1.
         25    1    1    2    0    0  0.00000000000E+00  0.00000000000E+00 -0.63613007507E+02  0.14025553367E+03  0.12500000000E+03 0.  0.
<mgrwt>
<rscale>  0 0.12500000E+03</rscale>
<asrwt>0</asrwt>
<pdfrwt beam="1">  1       21 0.58955789E-02 0.12500000E+03</pdfrwt>
<pdfrwt beam="2">  1       21 0.15682195E-01 0.12500000E+03</pdfrwt>
<totfact> 0.72005966E+06</totfact>
</mgrwt>
</event>
<event>
 3    1  0.1602107E-001  0.1250000E+03  0.7546771E-02  0.1235069E+00
         21   -1    0    0  502  501  0.00000000000E+00  0.00000000000E+00  0.57423187160E+02  0.57423187160E+02  0.00000000000E+00 0. -1.
         21   -1    0    0  501  502 -0.00000000000E+00 -0.00000000000E+00 -0.68025656415E+02  0.68025656415E+02  0.00000000000E+00 0. -1.
         25    1    1    2    0    0  0.00000000000E+00  0.00000000000E+00 -0.10602469255E+02  0.12544884357E+03  0.12500000000E+03 0.  0.
<mgrwt>
<rscale>  0 0.12500000E+03</rscale>
<asrwt>0</asrwt>
<pdfrwt beam="1">  1       21 0.88343365E-02 0.12500000E+03</pdfrwt>
<pdfrwt beam="2">  1       21 0.10465486E-01 0.12500000E+03</pdfrwt>
<totfact> 0.73982557E+06</totfact>
</mgrwt>
</event>
<event>
 3    1  0.1602107E-001  0.1250000E+03  0.7546771E-02  0.1235069E+00
         21   -1    0    0  502  501  0.00000000000E+00  0.00000000000E+00  0.10653937960E+03  0.10653937960E+03  0.00000000000E+00 0.  1.
         21   -1    0    0  501  502 -0.00000000000E+00 -0.00000000000E+00 -0.36664846506E+02  0.36664846506E+02  0.00000000000E+00 0.  1.
         25    1    1    2    0    0  0.00000000000E+00  0.00000000000E+00  0.69874533097E+02  0.14320422611E+03  0.12500000000E+03 0.  0.
<mgrwt>
<rscale>  0 0.12500000E+03</rscale>
<asrwt>0</asrwt>
<pdfrwt beam="1">  1       21 0.16390674E-01 0.12500000E+03</pdfrwt>
<pdfrwt beam="2">  1       21 0.56407457E-02 0.12500000E+03</pdfrwt>
<totfact> 0.71623714E+06</totfact>
</mgrwt>
</event>
<event>
 3    1  0.1602107E-001  0.1250000E+03  0.7546771E-02  0.1235069E+00
         21   -1    0    0  502  501  0.00000000000E+00  0.00000000000E+00  0.29970596943E+02  0.29970596943E+02  0.00000000000E+00 0. -1.
         21   -1    0    0  501  502 -0.00000000000E+00 -0.00000000000E+00 -0.13033607597E+03  0.13033607597E+03  0.00000000000E+00 0. -1.
         25    1    1    2    0    0  0.00000000000E+00  0.00000000000E+00 -0.10036547903E+03  0.16030667291E+03  0.12500000000E+03 0.  0.
<mgrwt>
<rscale>  0 0.12500000E+03</rscale>
<asrwt>0</asrwt>
<pdfrwt beam="1">  1       21 0.46108610E-02 0.12500000E+03</pdfrwt>
<pdfrwt beam="2">  1       21 0.20051704E-01 0.12500000E+03</pdfrwt>
<totfact> 0.69482043E+06</totfact>
</mgrwt>
</event>
<event>
 3    1  0.1602107E-001  0.1250000E+03  0.7546771E-02  0.1235069E+00
         21   -1    0    0  502  501  0.00000000000E+00  0.00000000000E+00  0.37398811523E+02  0.37398811523E+02  0.00000000000E+00 0.  1.
         21   -1    0    0  501  502 -0.00000000000E+00 -0.00000000000E+00 -0.10444850627E+03  0.10444850627E+03  0.00000000000E+00 0.  1.
         25    1    1    2    0    0  0.00000000000E+00  0.00000000000E+00 -0.67049694751E+02  0.14184731780E+03  0.12500000000E+03 0.  0.
<mgrwt>
<rscale>  0 0.12500000E+03</rscale>
<asrwt>0</asrwt>
<pdfrwt beam="1">  1       21 0.57536632E-02 0.12500000E+03</pdfrwt>
<pdfrwt beam="2">  1       21 0.16069001E-01 0.12500000E+03</pdfrwt>
<totfact> 0.71799053E+06</totfact>
</mgrwt>
</event>
<event>
 3    1  0.1602107E-001  0.1250000E+03  0.7546771E-02  0.1235069E+00
         21   -1    0    0  502  501  0.00000000000E+00  0.00000000000E+00  0.33426646879E+02  0.33426646879E+02  0.00000000000E+00 0. -1.
         21   -1    0    0  501  502 -0.00000000000E+00 -0.00000000000E+00 -0.11686036036E+03  0.11686036036E+03  0.00000000000E+00 0. -1.
         25    1    1    2    0    0  0.00000000000E+00  0.00000000000E+00 -0.83433713484E+02  0.15028700724E+03  0.12500000000E+03 0.  0.
<mgrwt>
<rscale>  0 0.12500000E+03</rscale>
<asrwt>0</asrwt>
<pdfrwt beam="1">  1       21 0.51425611E-02 0.12500000E+03</pdfrwt>
<pdfrwt beam="2">  1       21 0.17978517E-01 0.12500000E+03</pdfrwt>
<totfact> 0.70723167E+06</totfact>
</mgrwt>
</event>
<event>
 3    1  0.1602107E-001  0.1250000E+03  0.7546771E-02  0.1235069E+00
         21   -1    0    0  502  501  0.00000000000E+00  0.00000000000E+00  0.12185728537E+02  0.12185728537E+02  0.00000000000E+00 0.  1.
         21   -1    0    0  501  502 -0.00000000000E+00 -0.00000000000E+00 -0.32055941409E+03  0.32055941409E+03  0.00000000000E+00 0.  1.
         25    1    1    2    0    0  0.00000000000E+00  0.00000000000E+00 -0.30837368555E+03  0.33274514262E+03  0.12500000000E+03 0.  0.
<mgrwt>
<rscale>  0 0.12500000E+03</rscale>
<asrwt>0</asrwt>
<pdfrwt beam="1">  1       21 0.18747272E-02 0.12500000E+03</pdfrwt>
<pdfrwt beam="2">  1       21 0.49316841E-01 0.12500000E+03</pdfrwt>
<totfact> 0.52838557E+06</totfact>
</mgrwt>
</event>
<event>
 3    1  0.1602107E-001  0.1250000E+03  0.7546771E-02  0.1235069E+00
         21   -1    0    0  502  501  0.00000000000E+00  0.00000000000E+00  0.19386053653E+03  0.19386053653E+03  0.00000000000E+00 0.  1.
         21   -1    0    0  501  502 -0.00000000000E+00 -0.00000000000E+00 -0.20149794641E+02  0.20149794641E+02  0.00000000000E+00 0.  1.
         25    1    1    2    0    0  0.00000000000E+00  0.00000000000E+00  0.17371074189E+03  0.21401033117E+03  0.12500000000E+03 0.  0.
<mgrwt>
<rscale>  0 0.12500000E+03</rscale>
<asrwt>0</asrwt>
<pdfrwt beam="1">  1       21 0.29824697E-01 0.12500000E+03</pdfrwt>
<pdfrwt beam="2">  1       21 0.30999685E-02 0.12500000E+03</pdfrwt>
<totfact> 0.63440058E+06</totfact>
</mgrwt>
</event>
<event>
 3    1  0.1602107E-001  0.1250000E+03  0.7546771E-02  0.1235069E+00
         21   -1    0    0  502  501  0.00000000000E+00  0.00000000000E+00  0.11216467989E+02  0.11216467989E+02  0.00000000000E+00 0. -1.
         21   -1    0    0  501  502 -0.00000000000E+00 -0.00000000000E+00 -0.34826025482E+03  0.34826025482E+03  0.00000000000E+00 0. -1.
         25    1    1    2    0    0  0.00000000000E+00  0.00000000000E+00 -0.33704378683E+03  0.35947672281E+03  0.12500000000E+03 0.  0.
<mgrwt>
<rscale>  0 0.12500000E+03</rscale>
<asrwt>0</asrwt>
<pdfrwt beam="1">  1       21 0.17256107E-02 0.12500000E+03</pdfrwt>
<pdfrwt beam="2">  1       21 0.53578494E-01 0.12500000E+03</pdfrwt>
<totfact> 0.50846078E+06</totfact>
</mgrwt>
</event>
<event>
 3    1  0.1602107E-001  0.1250000E+03  0.7546771E-02  0.1235069E+00
         21   -1    0    0  502  501  0.00000000000E+00  0.00000000000E+00  0.31770893031E+02  0.31770893031E+02  0.00000000000E+00 0. -1.
         21   -1    0    0  501  502 -0.00000000000E+00 -0.00000000000E+00 -0.12295058865E+03  0.12295058865E+03  0.00000000000E+00 0. -1.
         25    1    1    2    0    0  0.00000000000E+00  0.00000000000E+00 -0.91179695614E+02  0.15472148168E+03  0.12500000000E+03 0.  0.
<mgrwt>
<rscale>  0 0.12500000E+03</rscale>
<asrwt>0</asrwt>
<pdfrwt beam="1">  1       21 0.48878298E-02 0.12500000E+03</pdfrwt>
<pdfrwt beam="2">  1       21 0.18915475E-01 0.12500000E+03</pdfrwt>
<totfact> 0.70170292E+06</totfact>
</mgrwt>
</event>
<event>
 3    1  0.1602107E-001  0.1250000E+03  0.7546771E-02  0.1235069E+00
         21   -1    0    0  502  501  0.00000000000E+00  0.00000000000E+00  0.16380244980E+03  0.16380244980E+03  0.00000000000E+00 0.  1.
         21   -1    0    0  501  502 -0.00000000000E+00 -0.00000000000E+00 -0.23847323436E+02  0.23847323436E+02  0.00000000000E+00 0.  1.
         25    1    1    2    0    0  0.00000000000E+00  0.00000000000E+00  0.13995512636E+03  0.18764977323E+03  0.12500000000E+03 0.  0.
<mgrwt>
<rscale>  0 0.12500000E+03</rscale>
<asrwt>0</asrwt>
<pdfrwt beam="1">  1       21 0.25200376E-01 0.12500000E+03</pdfrwt>
<pdfrwt beam="2">  1       21 0.36688191E-02 0.12500000E+03</pdfrwt>
<totfact> 0.66284627E+06</totfact>
</mgrwt>
</event>
<event>
 3    1  0.1602107E-001  0.1250000E+03  0.7546771E-02  0.1235069E+00
         21   -1    0    0  502  501  0.00000000000E+00  0.00000000000E+00  0.30319802800E+02  0.30319802800E+02  0.00000000000E+00 0.  1.
         21   -1    0    0  501  502 -0.00000000000E+00 -0.00000000000E+00 -0.12883494084E+03  0.12883494084E+03  0.00000000000E+00 0.  1.
         25    1    1    2    0    0  0.00000000000E+00  0.00000000000E+00 -0.98515138039E+02  0.15915474364E+03  0.12500000000E+03 0.  0.
<mgrwt>
<rscale>  0 0.12500000E+03</rscale>
<asrwt>0</asrwt>
<pdfrwt beam="1">  1       21 0.46645851E-02 0.12500000E+03</pdfrwt>
<pdfrwt beam="2">  1       21 0.19820760E-01 0.12500000E+03</pdfrwt>
<totfact> 0.69622925E+06</totfact>
</mgrwt>
</event>
<event>
 3    1  0.1602107E-001  0.1250000E+03  0.7546771E-02  0.1235069E+00
         21   -1    0    0  502  501  0.00000000000E+00  0.00000000000E+00  0.10282036356E+04  0.10282036356E+04  0.00000000000E+00 0. -1.
         21   -1    0    0  501  502 -0.00000000000E+00 -0.00000000000E+00 -0.37991015248E+01  0.37991015248E+01  0.00000000000E+00 0. -1.
         25    1    1    2    0    0  0.00000000000E+00  0.00000000000E+00  0.10244045341E+04  0.10320027372E+04  0.12500000000E+03 0.  0.
<mgrwt>
<rscale>  0 0.12500000E+03</rscale>
<asrwt>0</asrwt>
<pdfrwt beam="1">  1       21 0.15818495E+00 0.12500000E+03</pdfrwt>
<pdfrwt beam="2">  1       21 0.58447798E-03 0.12500000E+03</pdfrwt>
<totfact> 0.22830314E+06</totfact>
</mgrwt>
</event>
<event>
 3    1  0.1602107E-001  0.1250000E+03  0.7546771E-02  0.1235069E+00
         21   -1    0    0  502  501  0.00000000000E+00  0.00000000000E+00  0.60876698184E+02  0.60876698184E+02  0.00000000000E+00 0.  1.
         21   -1    0    0  501  502 -0.00000000000E+00 -0.00000000000E+00 -0.64166587817E+02  0.64166587817E+02  0.00000000000E+00 0.  1.
         25    1    1    2    0    0  0.00000000000E+00  0.00000000000E+00 -0.32898896330E+01  0.12504328600E+03  0.12500000000E+03 0.  0.
<mgrwt>
<rscale>  0 0.12500000E+03</rscale>
<asrwt>0</asrwt>
<pdfrwt beam="1">  1       21 0.93656458E-02 0.12500000E+03</pdfrwt>
<pdfrwt beam="2">  1       21 0.98717828E-02 0.12500000E+03</pdfrwt>
<totfact> 0.74037735E+06</totfact>
</mgrwt>
</event>
<event>
 3    1  0.1602107E-001  0.1250000E+03  0.7546771E-02  0.1235069E+00
         21   -1    0    0  502  501  0.00000000000E+00  0.00000000000E+00  0.14333318440E+02  0.14333318440E+02  0.00000000000E+00 0.  1.
         21   -1    0    0  501  502 -0.00000000000E+00 -0.00000000000E+00 -0.27252935294E+03  0.27252935294E+03  0.00000000000E+00 0.  1.
         25    1    1    2    0    0  0.00000000000E+00  0.00000000000E+00 -0.25819603450E+03  0.28686267138E+03  0.12500000000E+03 0.  0.
<mgrwt>
<rscale>  0 0.12500000E+03</rscale>
<asrwt>0</asrwt>
<pdfrwt beam="1">  1       21 0.22051260E-02 0.12500000E+03</pdfrwt>
<pdfrwt beam="2">  1       21 0.41927591E-01 0.12500000E+03</pdfrwt>
<totfact> 0.56565920E+06</totfact>
</mgrwt>
</event>
<event>
 3    1  0.1602107E-001  0.1250000E+03  0.7546771E-02  0.1235069E+00
         21   -1    0    0  502  501  0.00000000000E+00  0.00000000000E+00  0.27083207374E+03  0.27083207374E+03  0.00000000000E+00 0. -1.
         21   -1    0    0  501  502 -0.00000000000E+00 -0.00000000000E+00 -0.14423144002E+02  0.14423144002E+02  0.00000000000E+00 0. -1.
         25    1    1    2    0    0  0.00000000000E+00  0.00000000000E+00  0.25640892974E+03  0.28525521774E+03  0.12500000000E+03 0.  0.
<mgrwt>
<rscale>  0 0.12500000E+03</rscale>
<asrwt>0</asrwt>
<pdfrwt beam="1">  1       21 0.41666469E-01 0.12500000E+03</pdfrwt>
<pdfrwt beam="2">  1       21 0.22189454E-02 0.12500000E+03</pdfrwt>
<totfact> 0.56704226E+06</totfact>
</mgrwt>
</event>
<event>
 3    1  0.1602107E-001  0.1250000E+03  0.7546771E-02  0.1235069E+00
         21   -1    0    0  502  501  0.00000000000E+00  0.00000000000E+00  0.38128409190E+02  0.38128409190E+02  0.00000000000E+00 0. -1.
         21   -1    0    0  501  502 -0.00000000000E+00 -0.00000000000E+00 -0.10244985519E+03  0.10244985519E+03  0.00000000000E+00 0. -1.
         25    1    1    2    0    0  0.00000000000E+00  0.00000000000E+00 -0.64321445998E+02  0.14057826438E+03  0.12500000000E+03 0.  0.
<mgrwt>
<rscale>  0 0.12500000E+03</rscale>
<asrwt>0</asrwt>
<pdfrwt beam="1">  1       21 0.58659093E-02 0.12500000E+03</pdfrwt>
<pdfrwt beam="2">  1       21 0.15761516E-01 0.12500000E+03</pdfrwt>
<totfact> 0.71963907E+06</totfact>
</mgrwt>
</event>
<event>
 3    1  0.1602107E-001  0.1250000E+03  0.7546771E-02  0.1235069E+00
         21   -1    0    0  502  501  0.00000000000E+00  0.00000000000E+00  0.32420891955E+01  0.32420891955E+01  0.00000000000E+00 0.  1.
         21   -1    0    0  501  502 -0.00000000000E+00 -0.00000000000E+00 -0.12048558089E+04  0.12048558089E+04  0.00000000000E+00 0.  1.
         25    1    1    2    0    0  0.00000000000E+00  0.00000000000E+00 -0.12016137197E+04  0.12080978980E+04  0.12500000000E+03 0.  0.
<mgrwt>
<rscale>  0 0.12500000E+03</rscale>
<asrwt>0</asrwt>
<pdfrwt beam="1">  1       21 0.49878226E-03 0.12500000E+03</pdfrwt>
<pdfrwt beam="2">  1       21 0.18536269E+00 0.12500000E+03</pdfrwt>
<totfact> 0.18982700E+06</totfact>
</mgrwt>
</event>
<event>
 3    1  0.1602107E-001  0.1250000E+03  0.7546771E-02  0.1235069E+00
         21   -1    0    0  502  501  0.00000000000E+00  0.00000000000E+00  0.28133746951E+02  0.28133746951E+02  0.00000000000E+00 0.  1.
         21   -1    0    0  501  502 -0.00000000000E+00 -0.00000000000E+00 -0.13884570750E+03  0.13884570750E+03  0.00000000000E+00 0.  1.
         25    1    1    2    0    0  0.00000000000E+00  0.00000000000E+00 -0.11071196055E+03  0.16697945445E+03  0.12500000000E+03 0.  0.
<mgrwt>
<rscale>  0 0.12500000E+03</rscale>
<asrwt>0</asrwt>
<pdfrwt beam="1">  1       21 0.43282687E-02 0.12500000E+03</pdfrwt>
<pdfrwt beam="2">  1       21 0.21360878E-01 0.12500000E+03</pdfrwt>
<totfact> 0.68676579E+06</totfact>
</mgrwt>
</event>
<event>
 3    1  0.1602107E-001  0.1250000E+03  0.7546771E-02  0.1235069E+00
         21   -1    0    0  502  501  0.00000000000E+00  0.00000000000E+00  0.37994383684E+03  0.37994383684E+03  0.00000000000E+00 0. -1.
         21   -1    0    0  501  502 -0.00000000000E+00 -0.00000000000E+00 -0.10281124791E+02  0.10281124791E+02  0.00000000000E+00 0. -1.
         25    1    1    2    0    0  0.00000000000E+00  0.00000000000E+00  0.36966271204E+03  0.39022496163E+03  0.12500000000E+03 0.  0.
<mgrwt>
<rscale>  0 0.12500000E+03</rscale>
<asrwt>0</asrwt>
<pdfrwt beam="1">  1       21 0.58452887E-01 0.12500000E+03</pdfrwt>
<pdfrwt beam="2">  1       21 0.15817118E-02 0.12500000E+03</pdfrwt>
<totfact> 0.48696553E+06</totfact>
</mgrwt>
</event>
<event>
 3    1  0.1602107E-001  0.1250000E+03  0.7546771E-02  0.1235069E+00
         21   -1    0    0  502  501  0.00000000000E+00  0.00000000000E+00  0.58323888260E+02  0.58323888260E+02  0.00000000000E+00 0.  1.
         21   -1    0    0  501  502 -0.00000000000E+00 -0.00000000000E+00 -0.66975130029E+02  0.66975130029E+02  0.00000000000E+00 0.  1.
         25    1    1    2    0    0  0.00000000000E+00  0.00000000000E+00 -0.86512417687E+01  0.12529901829E+03  0.12500000000E+03 0.  0.
<mgrwt>
<rscale>  0 0.12500000E+03</rscale>
<asrwt>0</asrwt>
<pdfrwt beam="1">  1       21 0.89729059E-02 0.12500000E+03</pdfrwt>
<pdfrwt beam="2">  1       21 0.10303866E-01 0.12500000E+03</pdfrwt>
<totfact> 0.74003204E+06</totfact>
</mgrwt>
</event>
<event>
 3    1  0.1602107E-001  0.1250000E+03  0.7546771E-02  0.1235069E+00
         21   -1    0    0  502  501  0.00000000000E+00  0.00000000000E+00  0.17876820305E+02  0.17876820305E+02  0.00000000000E+00 0. -1.
         21   -1    0    0  501  502 -0.00000000000E+00 -0.00000000000E+00 -0.21850921659E+03  0.21850921659E+03  0.00000000000E+00 0. -1.
         25    1    1    2    0    0  0.00000000000E+00  0.00000000000E+00 -0.20063239629E+03  0.23638603690E+03  0.12500000000E+03 0.  0.
<mgrwt>
<rscale>  0 0.12500000E+03</rscale>
<asrwt>0</asrwt>
<pdfrwt beam="1">  1       21 0.27502801E-02 0.12500000E+03</pdfrwt>
<pdfrwt beam="2">  1       21 0.33616801E-01 0.12500000E+03</pdfrwt>
<totfact> 0.61184142E+06</totfact>
</mgrwt>
</event>
<event>
 3    1  0.1602107E-001  0.1250000E+03  0.7546771E-02  0.1235069E+00
         21   -1    0    0  502  501  0.00000000000E+00  0.00000000000E+00  0.10399749950E+04  0.10399749950E+04  0.00000000000E+00 0.  1.
         21   -1    0    0  501  502 -0.00000000000E+00 -0.00000000000E+00 -0.37560999244E+01  0.37560999244E+01  0.00000000000E+00 0.  1.
         25    1    1    2    0    0  0.00000000000E+00  0.00000000000E+00  0.10362188950E+04  0.10437310949E+04  0.12500000000E+03 0.  0.
<mgrwt>
<rscale>  0 0.12500000E+03</rscale>
<asrwt>0</asrwt>
<pdfrwt beam="1">  1       21 0.15999592E+00 0.12500000E+03</pdfrwt>
<pdfrwt beam="2">  1       21 0.57786236E-03 0.12500000E+03</pdfrwt>
<totfact> 0.22548149E+06</totfact>
</mgrwt>
</event>
<event>
 3    1  0.1602107E-001  0.1250000E+03  0.7546771E-02  0.1235069E+00
         21   -1    0    0  502  501  0.00000000000E+00  0.00000000000E+00  0.38620763648E+02  0.38620763648E+02  0.00000000000E+00 0.  1.
         21   -1    0    0  501  502 -0.00000000000E+00 -0.00000000000E+00 -0.10114377944E+03  0.10114377944E+03  0.00000000000E+00 0.  1.
         25    1    1    2    0    0  0.00000000000E+00  0.00000000000E+00 -0.62523015788E+02  0.13976454308E+03  0.12500000000E+03 0.  0.
<mgrwt>
<rscale>  0 0.12500000E+03</rscale>
<asrwt>0</asrwt>
<pdfrwt beam="1">  1       21 0.59416560E-02 0.12500000E+03</pdfrwt>
<pdfrwt beam="2">  1       21 0.15560581E-01 0.12500000E+03</pdfrwt>
<totfact> 0.72070061E+06</totfact>
</mgrwt>
</event>
<event>
 3    1  0.1602107E-001  0.1250000E+03  0.7546771E-02  0.1235069E+00
         21   -1    0    0  502  501  0.00000000000E+00  0.00000000000E+00  0.89124317304E+01  0.89124317304E+01  0.00000000000E+00 0.  1.
         21   -1    0    0  501  502 -0.00000000000E+00 -0.00000000000E+00 -0.43829227737E+03  0.43829227737E+03  0.00000000000E+00 0.  1.
         25    1    1    2    0    0  0.00000000000E+00  0.00000000000E+00 -0.42937984564E+03  0.44720470910E+03  0.12500000000E+03 0.  0.
<mgrwt>
<rscale>  0 0.12500000E+03</rscale>
<asrwt>0</asrwt>
<pdfrwt beam="1">  1       21 0.13711433E-02 0.12500000E+03</pdfrwt>
<pdfrwt beam="2">  1       21 0.67429583E-01 0.12500000E+03</pdfrwt>
<totfact> 0.45060005E+06</totfact>
</mgrwt>
</event>
<event>
 3    1  0.1602107E-001  0.1250000E+03  0.7546771E-02  0.1235069E+00
         21   -1    0    0  502  501  0.00000000000E+00  0.00000000000E+00  0.49431064644E+03  0.49431064644E+03  0.00000000000E+00 0.  1.
         21   -1    0    0  501  502 -0.00000000000E+00 -0.00000000000E+00 -0.79024193149E+01  0.79024193149E+01  0.00000000000E+00 0.  1.
         25    1    1    2    0    0  0.00000000000E+00  0.00000000000E+00  0.48640822712E+03  0.50221306575E+03  0.12500000000E+03 0.  0.
<mgrwt>
<rscale>  0 0.12500000E+03</rscale>
<asrwt>0</asrwt>
<pdfrwt beam="1">  1       21 0.76047768E-01 0.12500000E+03</pdfrwt>
<pdfrwt beam="2">  1       21 0.12157572E-02 0.12500000E+03</pdfrwt>
<totfact> 0.41924313E+06</totfact>
</mgrwt>
</event>
<event>
 3    1  0.1602107E-001  0.1250000E+03  0.7546771E-02  0.1235069E+00
         21   -1    0    0  502  501  0.00000000000E+00  0.00000000000E+00  0.72035735266E+02  0.72035735266E+02  0.00000000000E+00 0. -1.
         21   -1    0    0  501  502 -0.00000000000E+00 -0.00000000000E+00 -0.54226558326E+02  0.54226558326E+02  0.00000000000E+00 0. -1.
         25    1    1    2    0    0  0.00000000000E+00  0.00000000000E+00  0.17809176940E+02  0.12626229359E+03  0.12500000000E+03 0.  0.
<mgrwt>
<rscale>  0 0.12500000E+03</rscale>
<asrwt>0</asrwt>
<pdfrwt beam="1">  1       21 0.11082421E-01 0.12500000E+03</pdfrwt>
<pdfrwt beam="2">  1       21 0.83425474E-02 0.12500000E+03</pdfrwt>
<totfact> 0.73869954E+06</totfact>
</mgrwt>
</event>
<event>
 3    1  0.1602107E-001  0.1250000E+03  0.7546771E-02  0.1235069E+00
         21   -1    0    0  502  501  0.00000000000E+00  0.00000000000E+00  0.11103546333E+03  0.11103546333E+03  0.00000000000E+00 0.  1.
         21   -1    0    0  501  502 -0.00000000000E+00 -0.00000000000E+00 -0.35180201738E+02  0.35180201738E+02  0.00000000000E+00 0.  1.
         25    1    1    2    0    0  0.00000000000E+00  0.00000000000E+00  0.75855261592E+02  0.14621566507E+03  0.12500000000E+03 0.  0.
<mgrwt>
<rscale>  0 0.12500000E+03</rscale>
<asrwt>0</asrwt>
<pdfrwt beam="1">  1       21 0.17082379E-01 0.12500000E+03</pdfrwt>
<pdfrwt beam="2">  1       21 0.54123388E-02 0.12500000E+03</pdfrwt>
<totfact> 0.71237885E+06</totfact>
</mgrwt>
</event>
<event>
 3    1  0.1602107E-001  0.1250000E+03  0.7546771E-02  0.1235069E+00
         21   -1    0    0  502  501  0.00000000000E+00  0.00000000000E+00  0.24651533890E+02  0.24651533890E+02  0.00000000000E+00 0.  1.
         21   -1    0    0  501  502 -0.00000000000E+00 -0.00000000000E+00 -0.15845869947E+03  0.15845869947E+03  0.00000000000E+00 0.  1.
         25    1    1    2    0    0  0.00000000000E+00  0.00000000000E+00 -0.13380716558E+03  0.18311023335E+03  0.12500000000E+03 0.  0.
<mgrwt>
<rscale>  0 0.12500000E+03</rscale>
<asrwt>0</asrwt>
<pdfrwt beam="1">  1       21 0.37925437E-02 0.12500000E+03</pdfrwt>
<pdfrwt beam="2">  1       21 0.24378261E-01 0.12500000E+03</pdfrwt>
<totfact> 0.66796519E+06</totfact>
</mgrwt>
</event>
<event>
 3    1  0.1602107E-001  0.1250000E+03  0.7546771E-02  0.1235069E+00
         21   -1    0    0  502  501  0.00000000000E+00  0.00000000000E+00  0.30230841050E+03  0.30230841050E+03  0.00000000000E+00 0. -1.
         21   -1    0    0  501  502 -0.00000000000E+00 -0.00000000000E+00 -0.12921406962E+02  0.12921406962E+02  0.00000000000E+00 0. -1.
         25    1    1    2    0    0  0.00000000000E+00  0.00000000000E+00  0.28938700354E+03  0.31522981746E+03  0.12500000000E+03 0.  0.
<mgrwt>
<rscale>  0 0.12500000E+03</rscale>
<asrwt>0</asrwt>
<pdfrwt beam="1">  1       21 0.46508981E-01 0.12500000E+03</pdfrwt>
<pdfrwt beam="2">  1       21 0.19879090E-02 0.12500000E+03</pdfrwt>
<totfact> 0.54213536E+06</totfact>
</mgrwt>
</event>
<event>
 3    1  0.1602107E-001  0.1250000E+03  0.7546771E-02  0.1235069E+00
         21   -1    0    0  502  501  0.00000000000E+00  0.00000000000E+00  0.97664166616E+02  0.97664166616E+02  0.00000000000E+00 0.  1.
         21   -1    0    0  501  502 -0.00000000000E+00 -0.00000000000E+00 -0.39996757617E+02  0.39996757617E+02  0.00000000000E+00 0.  1.
         25    1    1    2    0    0  0.00000000000E+00  0.00000000000E+00  0.57667408999E+02  0.13766092423E+03  0.12500000000E+03 0.  0.
<mgrwt>
<rscale>  0 0.12500000E+03</rscale>
<asrwt>0</asrwt>
<pdfrwt beam="1">  1       21 0.15025256E-01 0.12500000E+03</pdfrwt>
<pdfrwt beam="2">  1       21 0.61533473E-02 0.12500000E+03</pdfrwt>
<totfact> 0.72346027E+06</totfact>
</mgrwt>
</event>
<event>
 3    1  0.1602107E-001  0.1250000E+03  0.7546771E-02  0.1235069E+00
         21   -1    0    0  502  501  0.00000000000E+00  0.00000000000E+00  0.70611415639E+02  0.70611415639E+02  0.00000000000E+00 0.  1.
         21   -1    0    0  501  502 -0.00000000000E+00 -0.00000000000E+00 -0.55320375107E+02  0.55320375107E+02  0.00000000000E+00 0.  1.
         25    1    1    2    0    0  0.00000000000E+00  0.00000000000E+00  0.15291040531E+02  0.12593179075E+03  0.12500000000E+03 0.  0.
<mgrwt>
<rscale>  0 0.12500000E+03</rscale>
<asrwt>0</asrwt>
<pdfrwt beam="1">  1       21 0.10863295E-01 0.12500000E+03</pdfrwt>
<pdfrwt beam="2">  1       21 0.85108269E-02 0.12500000E+03</pdfrwt>
<totfact> 0.73915450E+06</totfact>
</mgrwt>
</event>
<event>
 3    1  0.1602107E-001  0.1250000E+03  0.7546771E-02  0.1235069E+00
         21   -1    0    0  502  501  0.00000000000E+00  0.00000000000E+00  0.13149304089E+04  0.13149304089E+04  0.00000000000E+00 0. -1.
         21   -1    0    0  501  502 -0.00000000000E+00 -0.00000000000E+00 -0.29706895313E+01  0.29706895313E+01  0.00000000000E+00 0. -1.
         25    1    1    2    0    0  0.00000000000E+00  0.00000000000E+00  0.13119597193E+04  0.13179010984E+04  0.12500000000E+03 0.  0.
<mgrwt>
<rscale>  0 0.12500000E+03</rscale>
<asrwt>0</asrwt>
<pdfrwt beam="1">  1       21 0.20229652E+00 0.12500000E+03</pdfrwt>
<pdfrwt beam="2">  1       21 0.45703021E-03 0.12500000E+03</pdfrwt>
<totfact> 0.16934009E+06</totfact>
</mgrwt>
</event>
<event>
 3    1  0.1602107E-001  0.1250000E+03  0.7546771E-02  0.1235069E+00
         21   -1    0    0  502  501  0.00000000000E+00  0.00000000000E+00  0.24878457204E+02  0.24878457204E+02  0.00000000000E+00 0.  1.
         21   -1    0    0  501  502 -0.00000000000E+00 -0.00000000000E+00 -0.15701335368E+03  0.15701335368E+03  0.00000000000E+00 0.  1.
         25    1    1    2    0    0  0.00000000000E+00  0.00000000000E+00 -0.13213489647E+03  0.18189181088E+03  0.12500000000E+03 0.  0.
<mgrwt>
<rscale>  0 0.12500000E+03</rscale>
<asrwt>0</asrwt>
<pdfrwt beam="1">  1       21 0.38274550E-02 0.12500000E+03</pdfrwt>
<pdfrwt beam="2">  1       21 0.24155900E-01 0.12500000E+03</pdfrwt>
<totfact> 0.66935174E+06</totfact>
</mgrwt>
</event>
<event>
 3    1  0.1602107E-001  0.1250000E+03  0.7546771E-02  0.1235069E+00
         21   -1    0    0  502  501  0.00000000000E+00  0.00000000000E+00  0.11967672883E+03  0.11967672883E+03  0.00000000000E+00 0. -1.
         21   -1    0    0  501  502 -0.00000000000E+00 -0.00000000000E+00 -0.32640013128E+02  0.32640013128E+02  0.00000000000E+00 0. -1.
         25    1    1    2    0    0  0.00000000000E+00  0.00000000000E+00  0.87036715700E+02  0.15231674196E+03  0.12500000000E+03 0.  0.
<mgrwt>
<rscale>  0 0.12500000E+03</rscale>
<asrwt>0</asrwt>
<pdfrwt beam="1">  1       21 0.18411804E-01 0.12500000E+03</pdfrwt>
<pdfrwt beam="2">  1       21 0.50215405E-02 0.12500000E+03</pdfrwt>
<totfact> 0.70469375E+06</totfact>
</mgrwt>
</event>
<event>
 3    1  0.1602107E-001  0.1250000E+03  0.7546771E-02  0.1235069E+00
         21   -1    0    0  502  501  0.00000000000E+00  0.00000000000E+00  0.28915370609E+03  0.28915370609E+03  0.00000000000E+00 0. -1.
         21   -1    0    0  501  502 -0.00000000000E+00 -0.00000000000E+00 -0.13509251024E+02  0.13509251024E+02  0.00000000000E+00 0. -1.
         25    1    1    2    0    0  0.00000000000E+00  0.00000000000E+00  0.27564445507E+03  0.30266295712E+03  0.12500000000E+03 0.  0.
<mgrwt>
<rscale>  0 0.12500000E+03</rscale>
<asrwt>0</asrwt>
<pdfrwt beam="1">  1       21 0.44485181E-01 0.12500000E+03</pdfrwt>
<pdfrwt beam="2">  1       21 0.20783465E-02 0.12500000E+03</pdfrwt>
<totfact> 0.55235597E+06</totfact>
</mgrwt>
</event>
<event>
 3    1  0.1602107E-001  0.1250000E+03  0.7546771E-02  0.1235069E+00
         21   -1    0    0  502  501  0.00000000000E+00  0.00000000000E+00  0.12472709912E+02  0.12472709912E+02  0.00000000000E+00 0.  1.
         21   -1    0    0  501  502 -0.00000000000E+00 -0.00000000000E+00 -0.31318374495E+03  0.31318374495E+03  0.00000000000E+00 0.  1.
         25    1    1    2    0    0  0.00000000000E+00  0.00000000000E+00 -0.30071103504E+03  0.32565645487E+03  0.12500000000E+03 0.  0.
<mgrwt>
<rscale>  0 0.12500000E+03</rscale>
<asrwt>0</asrwt>
<pdfrwt beam="1">  1       21 0.19188786E-02 0.12500000E+03</pdfrwt>
<pdfrwt beam="2">  1       21 0.48182112E-01 0.12500000E+03</pdfrwt>
<totfact> 0.53388121E+06</totfact>
</mgrwt>
</event>
<event>
 3    1  0.1602107E-001  0.1250000E+03  0.7546771E-02  0.1235069E+00
         21   -1    0    0  502  501  0.00000000000E+00  0.00000000000E+00  0.37789731432E+03  0.37789731432E+03  0.00000000000E+00 0. -1.
         21   -1    0    0  501  502 -0.00000000000E+00 -0.00000000000E+00 -0.10336802756E+02  0.10336802756E+02  0.00000000000E+00 0. -1.
         25    1    1    2    0    0  0.00000000000E+00  0.00000000000E+00  0.36756051156E+03  0.38823411707E+03  0.12500000000E+03 0.  0.
<mgrwt>
<rscale>  0 0.12500000E+03</rscale>
<asrwt>0</asrwt>
<pdfrwt beam="1">  1       21 0.58138038E-01 0.12500000E+03</pdfrwt>
<pdfrwt beam="2">  1       21 0.15902776E-02 0.12500000E+03</pdfrwt>
<totfact> 0.48831691E+06</totfact>
</mgrwt>
</event>
<event>
 3    1  0.1602107E-001  0.1250000E+03  0.7546771E-02  0.1235069E+00
         21   -1    0    0  502  501  0.00000000000E+00  0.00000000000E+00  0.16152942591E+03  0.16152942591E+03  0.00000000000E+00 0. -1.
         21   -1    0    0  501  502 -0.00000000000E+00 -0.00000000000E+00 -0.24182900286E+02  0.24182900286E+02  0.00000000000E+00 0. -1.
         25    1    1    2    0    0  0.00000000000E+00  0.00000000000E+00  0.13734652562E+03  0.18571232619E+03  0.12500000000E+03 0.  0.
<mgrwt>
<rscale>  0 0.12500000E+03</rscale>
<asrwt>0</asrwt>
<pdfrwt beam="1">  1       21 0.24850680E-01 0.12500000E+03</pdfrwt>
<pdfrwt beam="2">  1       21 0.37204463E-02 0.12500000E+03</pdfrwt>
<totfact> 0.66502201E+06</totfact>
</mgrwt>
</event>
<event>
 3    1  0.1602107E-001  0.1250000E+03  0.7546771E-02  0.1235069E+00
         21   -1    0    0  502  501  0.00000000000E+00  0.00000000000E+00  0.88673385104E+01  0.88673385104E+01  0.00000000000E+00 0.  1.
         21   -1    0    0  501  502 -0.00000000000E+00 -0.00000000000E+00 -0.44052113217E+03  0.44052113217E+03  0.00000000000E+00 0.  1.
         25    1    1    2    0    0  0.00000000000E+00  0.00000000000E+00 -0.43165379366E+03  0.44938847069E+03  0.12500000000E+03 0.  0.
<mgrwt>
<rscale>  0 0.12500000E+03</rscale>
<asrwt>0</asrwt>
<pdfrwt beam="1">  1       21 0.13642064E-02 0.12500000E+03</pdfrwt>
<pdfrwt beam="2">  1       21 0.67772456E-01 0.12500000E+03</pdfrwt>
<totfact> 0.44928894E+06</totfact>
</mgrwt>
</event>
<event>
 3    1  0.1602107E-001  0.1250000E+03  0.7546771E-02  0.1235069E+00
         21   -1    0    0  502  501  0.00000000000E+00  0.00000000000E+00  0.30580085591E+03  0.30580085591E+03  0.00000000000E+00 0.  1.
         21   -1    0    0  501  502 -0.00000000000E+00 -0.00000000000E+00 -0.12773836059E+02  0.12773836059E+02  0.00000000000E+00 0.  1.
         25    1    1    2    0    0  0.00000000000E+00  0.00000000000E+00  0.29302701985E+03  0.31857469197E+03  0.12500000000E+03 0.  0.
<mgrwt>
<rscale>  0 0.12500000E+03</rscale>
<asrwt>0</asrwt>
<pdfrwt beam="1">  1       21 0.47046280E-01 0.12500000E+03</pdfrwt>
<pdfrwt beam="2">  1       21 0.19652058E-02 0.12500000E+03</pdfrwt>
<totfact> 0.53946487E+06</totfact>
</mgrwt>
</event>
<event>
 3    1  0.1602107E-001  0.1250000E+03  0.7546771E-02  0.1235069E+00
         21   -1    0    0  502  501  0.00000000000E+00  0.00000000000E+00  0.11148873509E+02  0.11148873509E+02  0.00000000000E+00 0. -1.
         21   -1    0    0  501  502 -0.00000000000E+00 -0.00000000000E+00 -0.35037172113E+03  0.35037172113E+03  0.00000000000E+00 0. -1.
         25    1    1    2    0    0  0.00000000000E+00  0.00000000000E+00 -0.33922284762E+03  0.36152059464E+03  0.12500000000E+03 0.  0.
<mgrwt>
<rscale>  0 0.12500000E+03</rscale>
<asrwt>0</asrwt>
<pdfrwt beam="1">  1       21 0.17152115E-02 0.12500000E+03</pdfrwt>
<pdfrwt beam="2">  1       21 0.53903337E-01 0.12500000E+03</pdfrwt>
<totfact> 0.50698698E+06</totfact>
</mgrwt>
</event>
<event>
 3    1  0.1602107E-001  0.1250000E+03  0.7546771E-02  0.1235069E+00
         21   -1    0    0  502  501  0.00000000000E+00  0.00000000000E+00  0.42814065190E+02  0.42814065190E+02  0.00000000000E+00 0.  1.
         21   -1    0    0  501  502 -0.00000000000E+00 -0.00000000000E+00 -0.91237540343E+02  0.91237540343E+02  0.00000000000E+00 0.  1.
         25    1    1    2    0    0  0.00000000000E+00  0.00000000000E+00 -0.48423475153E+02  0.13405160553E+03  0.12500000000E+03 0.  0.
<mgrwt>
<rscale>  0 0.12500000E+03</rscale>
<asrwt>0</asrwt>
<pdfrwt beam="1">  1       21 0.65867793E-02 0.12500000E+03</pdfrwt>
<pdfrwt beam="2">  1       21 0.14036545E-01 0.12500000E+03</pdfrwt>
<totfact> 0.72822292E+06</totfact>
</mgrwt>
</event>
<event>
 3    1  0.1602107E-001  0.1250000E+03  0.7546771E-02  0.1235069E+00
         21   -1    0    0  502  501  0.00000000000E+00  0.00000000000E+00  0.17670627320E+02  0.17670627320E+02  0.00000000000E+00 0. -1.
         21   -1    0    0  501  502 -0.00000000000E+00 -0.00000000000E+00 -0.22105893182E+03  0.22105893182E+03  0.00000000000E+00 0. -1.
         25    1    1    2    0    0  0.00000000000E+00  0.00000000000E+00 -0.20338830451E+03  0.23872955914E+03  0.12500000000E+03 0.  0.
<mgrwt>
<rscale>  0 0.12500000E+03</rscale>
<asrwt>0</asrwt>
<pdfrwt beam="1">  1       21 0.27185579E-02 0.12500000E+03</pdfrwt>
<pdfrwt beam="2">  1       21 0.34009069E-01 0.12500000E+03</pdfrwt>
<totfact> 0.60955816E+06</totfact>
</mgrwt>
</event>
<event>
 3    1  0.1602107E-001  0.1250000E+03  0.7546771E-02  0.1235069E+00
         21   -1    0    0  502  501  0.00000000000E+00  0.00000000000E+00  0.11900117013E+02  0.11900117013E+02  0.00000000000E+00 0. -1.
         21   -1    0    0  501  502 -0.00000000000E+00 -0.00000000000E+00 -0.32825307479E+03  0.32825307479E+03  0.00000000000E+00 0. -1.
         25    1    1    2    0    0  0.00000000000E+00  0.00000000000E+00 -0.31635295778E+03  0.34015319181E+03  0.12500000000E+03 0.  0.
<mgrwt>
<rscale>  0 0.12500000E+03</rscale>
<asrwt>0</asrwt>
<pdfrwt beam="1">  1       21 0.18307875E-02 0.12500000E+03</pdfrwt>
<pdfrwt beam="2">  1       21 0.50500465E-01 0.12500000E+03</pdfrwt>
<totfact> 0.52273974E+06</totfact>
</mgrwt>
</event>
<event>
 3    1  0.1602107E-001  0.1250000E+03  0.7546771E-02  0.1235069E+00
         21   -1    0    0  502  501  0.00000000000E+00  0.00000000000E+00  0.35885918443E+02  0.35885918443E+02  0.00000000000E+00 0. -1.
         21   -1    0    0  501  502 -0.00000000000E+00 -0.00000000000E+00 -0.10885188869E+03  0.10885188869E+03  0.00000000000E+00 0. -1.
         25    1    1    2    0    0  0.00000000000E+00  0.00000000000E+00 -0.72965970251E+02  0.14473780714E+03  0.12500000000E+03 0.  0.
<mgrwt>
<rscale>  0 0.12500000E+03</rscale>
<asrwt>0</asrwt>
<pdfrwt beam="1">  1       21 0.55209106E-02 0.12500000E+03</pdfrwt>
<pdfrwt beam="2">  1       21 0.16746444E-01 0.12500000E+03</pdfrwt>
<totfact> 0.71426670E+06</totfact>
</mgrwt>
</event>
<event>
 3    1  0.1602107E-001  0.1250000E+03  0.7546771E-02  0.1235069E+00
         21   -1    0    0  502  501  0.00000000000E+00  0.00000000000E+00  0.20563227919E+02  0.20563227919E+02  0.00000000000E+00 0.  1.
         21   -1    0    0  501  502 -0.00000000000E+00 -0.00000000000E+00 -0.18996288011E+03  0.18996288011E+03  0.00000000000E+00 0.  1.
         25    1    1    2    0    0  0.00000000000E+00  0.00000000000E+00 -0.16939965220E+03  0.21052610803E+03  0.12500000000E+03 0.  0.
<mgrwt>
<rscale>  0 0.12500000E+03</rscale>
<asrwt>0</asrwt>
<pdfrwt beam="1">  1       21 0.31635735E-02 0.12500000E+03</pdfrwt>
<pdfrwt beam="2">  1       21 0.29225059E-01 0.12500000E+03</pdfrwt>
<totfact> 0.63804225E+06</totfact>
</mgrwt>
</event>
<event>
 3    1  0.1602107E-001  0.1250000E+03  0.7546771E-02  0.1235069E+00
         21   -1    0    0  502  501  0.00000000000E+00  0.00000000000E+00  0.72677165806E+03  0.72677165806E+03  0.00000000000E+00 0. -1.
         21   -1    0    0  501  502 -0.00000000000E+00 -0.00000000000E+00 -0.53747968247E+01  0.53747968247E+01  0.00000000000E+00 0. -1.
         25    1    1    2    0    0  0.00000000000E+00  0.00000000000E+00  0.72139686123E+03  0.73214645488E+03  0.12500000000E+03 0.  0.
<mgrwt>
<rscale>  0 0.12500000E+03</rscale>
<asrwt>0</asrwt>
<pdfrwt beam="1">  1       21 0.11181095E+00 0.12500000E+03</pdfrwt>
<pdfrwt beam="2">  1       21 0.82689240E-03 0.12500000E+03</pdfrwt>
<totfact> 0.31707007E+06</totfact>
</mgrwt>
</event>
<event>
 3    1  0.1602107E-001  0.1250000E+03  0.7546771E-02  0.1235069E+00
         21   -1    0    0  502  501  0.00000000000E+00  0.00000000000E+00  0.68032433209E+02  0.68032433209E+02  0.00000000000E+00 0.  1.
         21   -1    0    0  501  502 -0.00000000000E+00 -0.00000000000E+00 -0.57417467166E+02  0.57417467166E+02  0.00000000000E+00 0.  1.
         25    1    1    2    0    0  0.00000000000E+00  0.00000000000E+00  0.10614966044E+02  0.12544990038E+03  0.12500000000E+03 0.  0.
<mgrwt>
<rscale>  0 0.12500000E+03</rscale>
<asrwt>0</asrwt>
<pdfrwt beam="1">  1       21 0.10466528E-01 0.12500000E+03</pdfrwt>
<pdfrwt beam="2">  1       21 0.88334564E-02 0.12500000E+03</pdfrwt>
<totfact> 0.73982409E+06</totfact>
</mgrwt>
</event>
<event>
 3    1  0.1602107E-001  0.1250000E+03  0.7546771E-02  0.1235069E+00
         21   -1    0    0  502  501  0.00000000000E+00  0.00000000000E+00  0.19778135728E+03  0.19778135728E+03  0.00000000000E+00 0. -1.
         21   -1    0    0  501  502 -0.00000000000E+00 -0.00000000000E+00 -0.19750344793E+02  0.19750344793E+02  0.00000000000E+00 0. -1.
         25    1    1    2    0    0  0.00000000000E+00  0.00000000000E+00  0.17803101249E+03  0.21753170208E+03  0.12500000000E+03 0.  0.
<mgrwt>
<rscale>  0 0.12500000E+03</rscale>
<asrwt>0</asrwt>
<pdfrwt beam="1">  1       21 0.30427900E-01 0.12500000E+03</pdfrwt>
<pdfrwt beam="2">  1       21 0.30385147E-02 0.12500000E+03</pdfrwt>
<totfact> 0.63075723E+06</totfact>
</mgrwt>
</event>
<event>
 3    1  0.1602107E-001  0.1250000E+03  0.7546771E-02  0.1235069E+00
         21   -1    0    0  502  501  0.00000000000E+00  0.00000000000E+00  0.12608350565E+02  0.12608350565E+02  0.00000000000E+00 0.  1.
         21   -1    0    0  501  502 -0.00000000000E+00 -0.00000000000E+00 -0.30981451380E+03  0.30981451380E+03  0.00000000000E+00 0.  1.
         25    1    1    2    0    0  0.00000000000E+00  0.00000000000E+00 -0.29720616323E+03  0.32242286436E+03  0.12500000000E+03 0.  0.
<mgrwt>
<rscale>  0 0.12500000E+03</rscale>
<asrwt>0</asrwt>
<pdfrwt beam="1">  1       21 0.19397465E-02 0.12500000E+03</pdfrwt>
<pdfrwt beam="2">  1       21 0.47663764E-01 0.12500000E+03</pdfrwt>
<totfact> 0.53641903E+06</totfact>
</mgrwt>
</event>
<event>
 3    1  0.1602107E-001  0.1250000E+03  0.7546771E-02  0.1235069E+00
         21   -1    0    0  502  501  0.00000000000E+00  0.00000000000E+00  0.49543821441E+02  0.49543821441E+02  0.00000000000E+00 0. -1.
         21   -1    0    0  501  502 -0.00000000000E+00 -0.00000000000E+00 -0.78844341966E+02  0.78844341966E+02  0.00000000000E+00 0. -1.
         25    1    1    2    0    0  0.00000000000E+00  0.00000000000E+00 -0.29300520526E+02  0.12838816341E+03  0.12500000000E+03 0.  0.
<mgrwt>
<rscale>  0 0.12500000E+03</rscale>
<asrwt>0</asrwt>
<pdfrwt beam="1">  1       21 0.76221264E-02 0.12500000E+03</pdfrwt>
<pdfrwt beam="2">  1       21 0.12129899E-01 0.12500000E+03</pdfrwt>
<totfact> 0.73581188E+06</totfact>
</mgrwt>
</event>
<event>
 3    1  0.1602107E-001  0.1250000E+03  0.7546771E-02  0.1235069E+00
         21   -1    0    0  502  501  0.00000000000E+00  0.00000000000E+00  0.82108900824E+03  0.82108900824E+03  0.00000000000E+00 0. -1.
         21   -1    0    0  501  502 -0.00000000000E+00 -0.00000000000E+00 -0.47574014033E+01  0.47574014033E+01  0.00000000000E+00 0. -1.
         25    1    1    2    0    0  0.00000000000E+00  0.00000000000E+00  0.81633160684E+03  0.82584640964E+03  0.12500000000E+03 0.  0.
<mgrwt>
<rscale>  0 0.12500000E+03</rscale>
<asrwt>0</asrwt>
<pdfrwt beam="1">  1       21 0.12632127E+00 0.12500000E+03</pdfrwt>
<pdfrwt beam="2">  1       21 0.73190856E-03 0.12500000E+03</pdfrwt>
<totfact> 0.28524207E+06</totfact>
</mgrwt>
</event>
<event>
 3    1  0.1602107E-001  0.1250000E+03  0.7546771E-02  0.1235069E+00
         21   -1    0    0  502  501  0.00000000000E+00  0.00000000000E+00  0.11964646854E+03  0.11964646854E+03  0.00000000000E+00 0. -1.
         21   -1    0    0  501  502 -0.00000000000E+00 -0.00000000000E+00 -0.32648268248E+02  0.32648268248E+02  0.00000000000E+00 0. -1.
         25    1    1    2    0    0  0.00000000000E+00  0.00000000000E+00  0.86998200296E+02  0.15229473679E+03  0.12500000000E+03 0.  0.
<mgrwt>
<rscale>  0 0.12500000E+03</rscale>
<asrwt>0</asrwt>
<pdfrwt beam="1">  1       21 0.18407149E-01 0.12500000E+03</pdfrwt>
<pdfrwt beam="2">  1       21 0.50228105E-02 0.12500000E+03</pdfrwt>
<totfact> 0.70472117E+06</totfact>
</mgrwt>
</event>
<event>
 3    1  0.1602107E-001  0.1250000E+03  0.7546771E-02  0.1235069E+00
         21   -1    0    0  502  501  0.00000000000E+00  0.00000000000E+00  0.29399245577E+03  0.29399245577E+03  0.00000000000E+00 0. -1.
         21   -1    0    0  501  502 -0.00000000000E+00 -0.00000000000E+00 -0.13286905577E+02  0.13286905577E+02  0.00000000000E+00 0. -1.
         25    1    1    2    0    0  0.00000000000E+00  0.00000000000E+00  0.28070555019E+03  0.30727936134E+03  0.12500000000E+03 0.  0.
<mgrwt>
<rscale>  0 0.12500000E+03</rscale>
<asrwt>0</asrwt>
<pdfrwt beam="1">  1       21 0.45229604E-01 0.12500000E+03</pdfrwt>
<pdfrwt beam="2">  1       21 0.20441395E-02 0.12500000E+03</pdfrwt>
<totfact> 0.54856606E+06</totfact>
</mgrwt>
</event>
<event>
 3    1  0.1602107E-001  0.1250000E+03  0.7546771E-02  0.1235069E+00
         21   -1    0    0  502  501  0.00000000000E+00  0.00000000000E+00  0.11114938638E+03  0.11114938638E+03  0.00000000000E+00 0. -1.
         21   -1    0    0  501  502 -0.00000000000E+00 -0.00000000000E+00 -0.35144143635E+02  0.35144143635E+02  0.00000000000E+00 0. -1.
         25    1    1    2    0    0  0.00000000000E+00  0.00000000000E+00  0.76005242750E+02  0.14629353002E+03  0.12500000000E+03 0.  0.
<mgrwt>
<rscale>  0 0.12500000E+03</rscale>
<asrwt>0</asrwt>
<pdfrwt beam="1">  1       21 0.17099905E-01 0.12500000E+03</pdfrwt>
<pdfrwt beam="2">  1       21 0.54067914E-02 0.12500000E+03</pdfrwt>
<totfact> 0.71227968E+06</totfact>
</mgrwt>
</event>
<event>
 3    1  0.1602107E-001  0.1250000E+03  0.7546771E-02  0.1235069E+00
         21   -1    0    0  502  501  0.00000000000E+00  0.00000000000E+00  0.21920391902E+03  0.21920391902E+03  0.00000000000E+00 0.  1.
         21   -1    0    0  501  502 -0.00000000000E+00 -0.00000000000E+00 -0.17820164975E+02  0.17820164975E+02  0.00000000000E+00 0.  1.
         25    1    1    2    0    0  0.00000000000E+00  0.00000000000E+00  0.20138375404E+03  0.23702408399E+03  0.12500000000E+03 0.  0.
<mgrwt>
<rscale>  0 0.12500000E+03</rscale>
<asrwt>0</asrwt>
<pdfrwt beam="1">  1       21 0.33723678E-01 0.12500000E+03</pdfrwt>
<pdfrwt beam="2">  1       21 0.27415640E-02 0.12500000E+03</pdfrwt>
<totfact> 0.61121831E+06</totfact>
</mgrwt>
</event>
<event>
 3    1  0.1602107E-001  0.1250000E+03  0.7546771E-02  0.1235069E+00
         21   -1    0    0  502  501  0.00000000000E+00  0.00000000000E+00  0.65110355493E+02  0.65110355493E+02  0.00000000000E+00 0.  1.
         21   -1    0    0  501  502 -0.00000000000E+00 -0.00000000000E+00 -0.59994296920E+02  0.59994296920E+02  0.00000000000E+00 0.  1.
         25    1    1    2    0    0  0.00000000000E+00  0.00000000000E+00  0.51160585735E+01  0.12510465241E+03  0.12500000000E+03 0.  0.
<mgrwt>
<rscale>  0 0.12500000E+03</rscale>
<asrwt>0</asrwt>
<pdfrwt beam="1">  1       21 0.10016978E-01 0.12500000E+03</pdfrwt>
<pdfrwt beam="2">  1       21 0.92298918E-02 0.12500000E+03</pdfrwt>
<totfact> 0.74029447E+06</totfact>
</mgrwt>
</event>
<event>
 3    1  0.1602107E-001  0.1250000E+03  0.7546771E-02  0.1235069E+00
         21   -1    0    0  502  501  0.00000000000E+00  0.00000000000E+00  0.30316875921E+02  0.30316875921E+02  0.00000000000E+00 0.  1.
         21   -1    0    0  501  502 -0.00000000000E+00 -0.00000000000E+00 -0.12884737894E+03  0.12884737894E+03  0.00000000000E+00 0.  1.
         25    1    1    2    0    0  0.00000000000E+00  0.00000000000E+00 -0.98530503018E+02  0.15916425486E+03  0.12500000000E+03 0.  0.
<mgrwt>
<rscale>  0 0.12500000E+03</rscale>
<asrwt>0</asrwt>
<pdfrwt beam="1">  1       21 0.46641348E-02 0.12500000E+03</pdfrwt>
<pdfrwt beam="2">  1       21 0.19822674E-01 0.12500000E+03</pdfrwt>
<totfact> 0.69621759E+06</totfact>
</mgrwt>
</event>
<event>
 3    1  0.1602107E-001  0.1250000E+03  0.7546771E-02  0.1235069E+00
         21   -1    0    0  502  501  0.00000000000E+00  0.00000000000E+00  0.14117228965E+03  0.14117228965E+03  0.00000000000E+00 0.  1.
         21   -1    0    0  501  502 -0.00000000000E+00 -0.00000000000E+00 -0.27670090282E+02  0.27670090282E+02  0.00000000000E+00 0.  1.
         25    1    1    2    0    0  0.00000000000E+00  0.00000000000E+00  0.11350219937E+03  0.16884237994E+03  0.12500000000E+03 0.  0.
<mgrwt>
<rscale>  0 0.12500000E+03</rscale>
<asrwt>0</asrwt>
<pdfrwt beam="1">  1       21 0.21718813E-01 0.12500000E+03</pdfrwt>
<pdfrwt beam="2">  1       21 0.42569370E-02 0.12500000E+03</pdfrwt>
<totfact> 0.68454869E+06</totfact>
</mgrwt>
</event>
<event>
 3    1  0.1602107E-001  0.1250000E+03  0.7546771E-02  0.1235069E+00
         21   -1    0    0  502  501  0.00000000000E+00  0.00000000000E+00  0.87555038858E+00  0.87555038858E+00  0.00000000000E+00 0. -1.
         21   -1    0    0  501  502 -0.00000000000E+00 -0.00000000000E+00 -0.44614793745E+04  0.44614793745E+04  0.00000000000E+00 0. -1.
         25    1    1    2    0    0  0.00000000000E+00  0.00000000000E+00 -0.44606038241E+04  0.44623549249E+04  0.12500000000E+03 0.  0.
<mgrwt>
<rscale>  0 0.12500000E+03</rscale>
<asrwt>0</asrwt>
<pdfrwt beam="1">  1       21 0.13469788E-03 0.12500000E+03</pdfrwt>
<pdfrwt beam="2">  1       21 0.68639255E+00 0.12500000E+03</pdfrwt>
<totfact> 0.60453047E+03</totfact>
</mgrwt>
</event>
<event>
 3    1  0.1602107E-001  0.1250000E+03  0.7546771E-02  0.1235069E+00
         21   -1    0    0  502  501  0.00000000000E+00  0.00000000000E+00  0.73138582566E+01  0.73138582566E+01  0.00000000000E+00 0. -1.
         21   -1    0    0  501  502 -0.00000000000E+00 -0.00000000000E+00 -0.53408883013E+03  0.53408883013E+03  0.00000000000E+00 0. -1.
         25    1    1    2    0    0  0.00000000000E+00  0.00000000000E+00 -0.52677497188E+03  0.54140268839E+03  0.12500000000E+03 0.  0.
<mgrwt>
<rscale>  0 0.12500000E+03</rscale>
<asrwt>0</asrwt>
<pdfrwt beam="1">  1       21 0.11252088E-02 0.12500000E+03</pdfrwt>
<pdfrwt beam="2">  1       21 0.82167524E-01 0.12500000E+03</pdfrwt>
<totfact> 0.39884182E+06</totfact>
</mgrwt>
</event>
<event>
 3    1  0.1602107E-001  0.1250000E+03  0.7546771E-02  0.1235069E+00
         21   -1    0    0  502  501  0.00000000000E+00  0.00000000000E+00  0.86924073600E+01  0.86924073600E+01  0.00000000000E+00 0. -1.
         21   -1    0    0  501  502 -0.00000000000E+00 -0.00000000000E+00 -0.44938644017E+03  0.44938644017E+03  0.00000000000E+00 0. -1.
         25    1    1    2    0    0  0.00000000000E+00  0.00000000000E+00 -0.44069403281E+03  0.45807884753E+03  0.12500000000E+03 0.  0.
<mgrwt>
<rscale>  0 0.12500000E+03</rscale>
<asrwt>0</asrwt>
<pdfrwt beam="1">  1       21 0.13372936E-02 0.12500000E+03</pdfrwt>
<pdfrwt beam="2">  1       21 0.69136366E-01 0.12500000E+03</pdfrwt>
<totfact> 0.44412766E+06</totfact>
</mgrwt>
</event>
<event>
 3    1  0.1602107E-001  0.1250000E+03  0.7546771E-02  0.1235069E+00
         21   -1    0    0  502  501  0.00000000000E+00  0.00000000000E+00  0.53406524919E+02  0.53406524919E+02  0.00000000000E+00 0.  1.
         21   -1    0    0  501  502 -0.00000000000E+00 -0.00000000000E+00 -0.73141811903E+02  0.73141811903E+02  0.00000000000E+00 0.  1.
         25    1    1    2    0    0  0.00000000000E+00  0.00000000000E+00 -0.19735286985E+02  0.12654833682E+03  0.12500000000E+03 0.  0.
<mgrwt>
<rscale>  0 0.12500000E+03</rscale>
<asrwt>0</asrwt>
<pdfrwt beam="1">  1       21 0.82163884E-02 0.12500000E+03</pdfrwt>
<pdfrwt beam="2">  1       21 0.11252586E-01 0.12500000E+03</pdfrwt>
<totfact> 0.73830760E+06</totfact>
</mgrwt>
</event>
<event>
 3    1  0.1602107E-001  0.1250000E+03  0.7546771E-02  0.1235069E+00
         21   -1    0    0  502  501  0.00000000000E+00  0.00000000000E+00  0.70829859367E+01  0.70829859367E+01  0.00000000000E+00 0. -1.
         21   -1    0    0  501  502 -0.00000000000E+00 -0.00000000000E+00 -0.55149763602E+03  0.55149763602E+03  0.00000000000E+00 0. -1.
         25    1    1    2    0    0  0.00000000000E+00  0.00000000000E+00 -0.54441465008E+03  0.55858062195E+03  0.12500000000E+03 0.  0.
<mgrwt>
<rscale>  0 0.12500000E+03</rscale>
<asrwt>0</asrwt>
<pdfrwt beam="1">  1       21 0.10896895E-02 0.12500000E+03</pdfrwt>
<pdfrwt beam="2">  1       21 0.84845840E-01 0.12500000E+03</pdfrwt>
<totfact> 0.39035357E+06</totfact>
</mgrwt>
</event>
<event>
 3    1  0.1602107E-001  0.1250000E+03  0.7546771E-02  0.1235069E+00
         21   -1    0    0  502  501  0.00000000000E+00  0.00000000000E+00  0.24817440716E+02  0.24817440716E+02  0.00000000000E+00 0. -1.
         21   -1    0    0  501  502 -0.00000000000E+00 -0.00000000000E+00 -0.15739938879E+03  0.15739938879E+03  0.00000000000E+00 0. -1.
         25    1    1    2    0    0  0.00000000000E+00  0.00000000000E+00 -0.13258194808E+03  0.18221682951E+03  0.12500000000E+03 0.  0.
<mgrwt>
<rscale>  0 0.12500000E+03</rscale>
<asrwt>0</asrwt>
<pdfrwt beam="1">  1       21 0.38180679E-02 0.12500000E+03</pdfrwt>
<pdfrwt beam="2">  1       21 0.24215290E-01 0.12500000E+03</pdfrwt>
<totfact> 0.66898135E+06</totfact>
</mgrwt>
</event>
<event>
 3    1  0.1602107E-001  0.1250000E+03  0.7546771E-02  0.1235069E+00
         21   -1    0    0  502  501  0.00000000000E+00  0.00000000000E+00  0.21627597767E+03  0.21627597767E+03  0.00000000000E+00 0. -1.
         21   -1    0    0  501  502 -0.00000000000E+00 -0.00000000000E+00 -0.18061414134E+02  0.18061414134E+02  0.00000000000E+00 0. -1.
         25    1    1    2    0    0  0.00000000000E+00  0.00000000000E+00  0.19821456354E+03  0.23433739181E+03  0.12500000000E+03 0.  0.
<mgrwt>
<rscale>  0 0.12500000E+03</rscale>
<asrwt>0</asrwt>
<pdfrwt beam="1">  1       21 0.33273226E-01 0.12500000E+03</pdfrwt>
<pdfrwt beam="2">  1       21 0.27786792E-02 0.12500000E+03</pdfrwt>
<totfact> 0.61384965E+06</totfact>
</mgrwt>
</event>
<event>
 3    1  0.1602107E-001  0.1250000E+03  0.7546771E-02  0.1235069E+00
         21   -1    0    0  502  501  0.00000000000E+00  0.00000000000E+00  0.59227638452E+03  0.59227638452E+03  0.00000000000E+00 0. -1.
         21   -1    0    0  501  502 -0.00000000000E+00 -0.00000000000E+00 -0.65953161431E+01  0.65953161431E+01  0.00000000000E+00 0. -1.
         25    1    1    2    0    0  0.00000000000E+00  0.00000000000E+00  0.58568106837E+03  0.59887170066E+03  0.12500000000E+03 0.  0.
<mgrwt>
<rscale>  0 0.12500000E+03</rscale>
<asrwt>0</asrwt>
<pdfrwt beam="1">  1       21 0.91119402E-01 0.12500000E+03</pdfrwt>
<pdfrwt beam="2">  1       21 0.10146645E-02 0.12500000E+03</pdfrwt>
<totfact> 0.37143719E+06</totfact>
</mgrwt>
</event>
<event>
 3    1  0.1602107E-001  0.1250000E+03  0.7546771E-02  0.1235069E+00
         21   -1    0    0  502  501  0.00000000000E+00  0.00000000000E+00  0.92069942907E+01  0.92069942907E+01  0.00000000000E+00 0. -1.
         21   -1    0    0  501  502 -0.00000000000E+00 -0.00000000000E+00 -0.42426984059E+03  0.42426984059E+03  0.00000000000E+00 0. -1.
         25    1    1    2    0    0  0.00000000000E+00  0.00000000000E+00 -0.41506284630E+03  0.43347683488E+03  0.12500000000E+03 0.  0.
<mgrwt>
<rscale>  0 0.12500000E+03</rscale>
<asrwt>0</asrwt>
<pdfrwt beam="1">  1       21 0.14164607E-02 0.12500000E+03</pdfrwt>
<pdfrwt beam="2">  1       21 0.65272279E-01 0.12500000E+03</pdfrwt>
<totfact> 0.45897343E+06</totfact>
</mgrwt>
</event>
<event>
 3    1  0.1602107E-001  0.1250000E+03  0.7546771E-02  0.1235069E+00
         21   -1    0    0  502  501  0.00000000000E+00  0.00000000000E+00  0.18063782277E+02  0.18063782277E+02  0.00000000000E+00 0. -1.
         21   -1    0    0  501  502 -0.00000000000E+00 -0.00000000000E+00 -0.21624762412E+03  0.21624762412E+03  0.00000000000E+00 0. -1.
         25    1    1    2    0    0  0.00000000000E+00  0.00000000000E+00 -0.19818384184E+03  0.23431140639E+03  0.12500000000E+03 0.  0.
<mgrwt>
<rscale>  0 0.12500000E+03</rscale>
<asrwt>0</asrwt>
<pdfrwt beam="1">  1       21 0.27790435E-02 0.12500000E+03</pdfrwt>
<pdfrwt beam="2">  1       21 0.33268865E-01 0.12500000E+03</pdfrwt>
<totfact> 0.61387518E+06</totfact>
</mgrwt>
</event>
<event>
 3    1  0.1602107E-001  0.1250000E+03  0.7546771E-02  0.1235069E+00
         21   -1    0    0  502  501  0.00000000000E+00  0.00000000000E+00  0.22888246189E+03  0.22888246189E+03  0.00000000000E+00 0. -1.
         21   -1    0    0  501  502 -0.00000000000E+00 -0.00000000000E+00 -0.17066619992E+02  0.17066619992E+02  0.00000000000E+00 0. -1.
         25    1    1    2    0    0  0.00000000000E+00  0.00000000000E+00  0.21181584190E+03  0.24594908188E+03  0.12500000000E+03 0.  0.
<mgrwt>
<rscale>  0 0.12500000E+03</rscale>
<asrwt>0</asrwt>
<pdfrwt beam="1">  1       21 0.35212684E-01 0.12500000E+03</pdfrwt>
<pdfrwt beam="2">  1       21 0.26256340E-02 0.12500000E+03</pdfrwt>
<totfact> 0.60261688E+06</totfact>
</mgrwt>
</event>
<event>
 3    1  0.1602107E-001  0.1250000E+03  0.7546771E-02  0.1235069E+00
         21   -1    0    0  502  501  0.00000000000E+00  0.00000000000E+00  0.59229952682E+02  0.59229952682E+02  0.00000000000E+00 0. -1.
         21   -1    0    0  501  502 -0.00000000000E+00 -0.00000000000E+00 -0.65950584512E+02  0.65950584512E+02  0.00000000000E+00 0. -1.
         25    1    1    2    0    0  0.00000000000E+00  0.00000000000E+00 -0.67206318307E+01  0.12518053719E+03  0.12500000000E+03 0.  0.
<mgrwt>
<rscale>  0 0.12500000E+03</rscale>
<asrwt>0</asrwt>
<pdfrwt beam="1">  1       21 0.91123004E-02 0.12500000E+03</pdfrwt>
<pdfrwt beam="2">  1       21 0.10146244E-01 0.12500000E+03</pdfrwt>
<totfact> 0.74019200E+06</totfact>
</mgrwt>
</event>
<event>
 3    1  0.1602107E-001  0.1250000E+03  0.7546771E-02  0.1235069E+00
         21   -1    0    0  502  501  0.00000000000E+00  0.00000000000E+00  0.20636388888E+02  0.20636388888E+02  0.00000000000E+00 0.  1.
         21   -1    0    0  501  502 -0.00000000000E+00 -0.00000000000E+00 -0.18928941595E+03  0.18928941595E+03  0.00000000000E+00 0.  1.
         25    1    1    2    0    0  0.00000000000E+00  0.00000000000E+00 -0.16865302706E+03  0.20992580484E+03  0.12500000000E+03 0.  0.
<mgrwt>
<rscale>  0 0.12500000E+03</rscale>
<asrwt>0</asrwt>
<pdfrwt beam="1">  1       21 0.31748292E-02 0.12500000E+03</pdfrwt>
<pdfrwt beam="2">  1       21 0.29121447E-01 0.12500000E+03</pdfrwt>
<totfact> 0.63867343E+06</totfact>
</mgrwt>
</event>
<event>
 3    1  0.1602107E-001  0.1250000E+03  0.7546771E-02  0.1235069E+00
         21   -1    0    0  502  501  0.00000000000E+00  0.00000000000E+00  0.68270844879E+03  0.68270844879E+03  0.00000000000E+00 0.  1.
         21   -1    0    0  501  502 -0.00000000000E+00 -0.00000000000E+00 -0.57216957062E+01  0.57216957062E+01  0.00000000000E+00 0.  1.
         25    1    1    2    0    0  0.00000000000E+00  0.00000000000E+00  0.67698675308E+03  0.68843014449E+03  0.12500000000E+03 0.  0.
<mgrwt>
<rscale>  0 0.12500000E+03</rscale>
<asrwt>0</asrwt>
<pdfrwt beam="1">  1       21 0.10503200E+00 0.12500000E+03</pdfrwt>
<pdfrwt beam="2">  1       21 0.88026142E-03 0.12500000E+03</pdfrwt>
<totfact> 0.33361007E+06</totfact>
</mgrwt>
</event>
<event>
 3    1  0.1602107E-001  0.1250000E+03  0.7546771E-02  0.1235069E+00
         21   -1    0    0  502  501  0.00000000000E+00  0.00000000000E+00  0.50634739180E+03  0.50634739180E+03  0.00000000000E+00 0. -1.
         21   -1    0    0  501  502 -0.00000000000E+00 -0.00000000000E+00 -0.77145652634E+01  0.77145652634E+01  0.00000000000E+00 0. -1.
         25    1    1    2    0    0  0.00000000000E+00  0.00000000000E+00  0.49863282654E+03  0.51406195706E+03  0.12500000000E+03 0.  0.
<mgrwt>
<rscale>  0 0.12500000E+03</rscale>
<asrwt>0</asrwt>
<pdfrwt beam="1">  1       21 0.77899573E-01 0.12500000E+03</pdfrwt>
<pdfrwt beam="2">  1       21 0.11868566E-02 0.12500000E+03</pdfrwt>
<totfact> 0.41291593E+06</totfact>
</mgrwt>
</event>
<event>
 3    1  0.1602107E-001  0.1250000E+03  0.7546771E-02  0.1235069E+00
         21   -1    0    0  502  501  0.00000000000E+00  0.00000000000E+00  0.61623793124E+01  0.61623793124E+01  0.00000000000E+00 0. -1.
         21   -1    0    0  501  502 -0.00000000000E+00 -0.00000000000E+00 -0.63388665351E+03  0.63388665351E+03  0.00000000000E+00 0. -1.
         25    1    1    2    0    0  0.00000000000E+00  0.00000000000E+00 -0.62772427420E+03  0.64004903282E+03  0.12500000000E+03 0.  0.
<mgrwt>
<rscale>  0 0.12500000E+03</rscale>
<asrwt>0</asrwt>
<pdfrwt beam="1">  1       21 0.94805896E-03 0.12500000E+03</pdfrwt>
<pdfrwt beam="2">  1       21 0.97520961E-01 0.12500000E+03</pdfrwt>
<totfact> 0.35341820E+06</totfact>
</mgrwt>
</event>
<event>
 3    1  0.1602107E-001  0.1250000E+03  0.7546771E-02  0.1235069E+00
         21   -1    0    0  502  501  0.00000000000E+00  0.00000000000E+00  0.22479642932E+03  0.22479642932E+03  0.00000000000E+00 0.  1.
         21   -1    0    0  501  502 -0.00000000000E+00 -0.00000000000E+00 -0.17376832950E+02  0.17376832950E+02  0.00000000000E+00 0.  1.
         25    1    1    2    0    0  0.00000000000E+00  0.00000000000E+00  0.20741959637E+03  0.24217326227E+03  0.12500000000E+03 0.  0.
<mgrwt>
<rscale>  0 0.12500000E+03</rscale>
<asrwt>0</asrwt>
<pdfrwt beam="1">  1       21 0.34584064E-01 0.12500000E+03</pdfrwt>
<pdfrwt beam="2">  1       21 0.26733591E-02 0.12500000E+03</pdfrwt>
<totfact> 0.60622994E+06</totfact>
</mgrwt>
</event>
<event>
 3    1  0.1602107E-001  0.1250000E+03  0.7546771E-02  0.1235069E+00
         21   -1    0    0  502  501  0.00000000000E+00  0.00000000000E+00  0.74654388101E+02  0.74654388101E+02  0.00000000000E+00 0.  1.
         21   -1    0    0  501  502 -0.00000000000E+00 -0.00000000000E+00 -0.52324452713E+02  0.52324452713E+02  0.00000000000E+00 0.  1.
         25    1    1    2    0    0  0.00000000000E+00  0.00000000000E+00  0.22329935388E+02  0.12697884081E+03  0.12500000000E+03 0.  0.
<mgrwt>
<rscale>  0 0.12500000E+03</rscale>
<asrwt>0</asrwt>
<pdfrwt beam="1">  1       21 0.11485290E-01 0.12500000E+03</pdfrwt>
<pdfrwt beam="2">  1       21 0.80499158E-02 0.12500000E+03</pdfrwt>
<totfact> 0.73772017E+06</totfact>
</mgrwt>
</event>
<event>
 3    1  0.1602107E-001  0.1250000E+03  0.7546771E-02  0.1235069E+00
         21   -1    0    0  502  501  0.00000000000E+00  0.00000000000E+00  0.85353289106E+02  0.85353289106E+02  0.00000000000E+00 0. -1.
         21   -1    0    0  501  502 -0.00000000000E+00 -0.00000000000E+00 -0.45765664580E+02  0.45765664580E+02  0.00000000000E+00 0. -1.
         25    1    1    2    0    0  0.00000000000E+00  0.00000000000E+00  0.39587624526E+02  0.13111895369E+03  0.12500000000E+03 0.  0.
<mgrwt>
<rscale>  0 0.12500000E+03</rscale>
<asrwt>0</asrwt>
<pdfrwt beam="1">  1       21 0.13131275E-01 0.12500000E+03</pdfrwt>
<pdfrwt beam="2">  1       21 0.70408715E-02 0.12500000E+03</pdfrwt>
<totfact> 0.73214646E+06</totfact>
</mgrwt>
</event>
<event>
 3    1  0.1602107E-001  0.1250000E+03  0.7546771E-02  0.1235069E+00
         21   -1    0    0  502  501  0.00000000000E+00  0.00000000000E+00  0.21902808431E+01  0.21902808431E+01  0.00000000000E+00 0. -1.
         21   -1    0    0  501  502 -0.00000000000E+00 -0.00000000000E+00 -0.17834470918E+04  0.17834470918E+04  0.00000000000E+00 0. -1.
         25    1    1    2    0    0  0.00000000000E+00  0.00000000000E+00 -0.17812568110E+04  0.17856373727E+04  0.12500000000E+03 0.  0.
<mgrwt>
<rscale>  0 0.12500000E+03</rscale>
<asrwt>0</asrwt>
<pdfrwt beam="1">  1       21 0.33696592E-03 0.12500000E+03</pdfrwt>
<pdfrwt beam="2">  1       21 0.27437677E+00 0.12500000E+03</pdfrwt>
<totfact> 0.10236159E+06</totfact>
</mgrwt>
</event>
<event>
 3    1  0.1602107E-001  0.1250000E+03  0.7546771E-02  0.1235069E+00
         21   -1    0    0  502  501  0.00000000000E+00  0.00000000000E+00  0.35747395469E+03  0.35747395469E+03  0.00000000000E+00 0. -1.
         21   -1    0    0  501  502 -0.00000000000E+00 -0.00000000000E+00 -0.10927369529E+02  0.10927369529E+02  0.00000000000E+00 0. -1.
         25    1    1    2    0    0  0.00000000000E+00  0.00000000000E+00  0.34654658516E+03  0.36840132422E+03  0.12500000000E+03 0.  0.
<mgrwt>
<rscale>  0 0.12500000E+03</rscale>
<asrwt>0</asrwt>
<pdfrwt beam="1">  1       21 0.54995984E-01 0.12500000E+03</pdfrwt>
<pdfrwt beam="2">  1       21 0.16811340E-02 0.12500000E+03</pdfrwt>
<totfact> 0.50207500E+06</totfact>
</mgrwt>
</event>
<event>
 3    1  0.1602107E-001  0.1250000E+03  0.7546771E-02  0.1235069E+00
         21   -1    0    0  502  501  0.00000000000E+00  0.00000000000E+00  0.32291005042E+02  0.32291005042E+02  0.00000000000E+00 0.  1.
         21   -1    0    0  501  502 -0.00000000000E+00 -0.00000000000E+00 -0.12097022050E+03  0.12097022050E+03  0.00000000000E+00 0.  1.
         25    1    1    2    0    0  0.00000000000E+00  0.00000000000E+00 -0.88679215454E+02  0.15326122554E+03  0.12500000000E+03 0.  0.
<mgrwt>
<rscale>  0 0.12500000E+03</rscale>
<asrwt>0</asrwt>
<pdfrwt beam="1">  1       21 0.49678469E-02 0.12500000E+03</pdfrwt>
<pdfrwt beam="2">  1       21 0.18610803E-01 0.12500000E+03</pdfrwt>
<totfact> 0.70351895E+06</totfact>
</mgrwt>
</event>
<event>
 3    1  0.1602107E-001  0.1250000E+03  0.7546771E-02  0.1235069E+00
         21   -1    0    0  502  501  0.00000000000E+00  0.00000000000E+00  0.31275348193E+02  0.31275348193E+02  0.00000000000E+00 0.  1.
         21   -1    0    0  501  502 -0.00000000000E+00 -0.00000000000E+00 -0.12489868941E+03  0.12489868941E+03  0.00000000000E+00 0.  1.
         25    1    1    2    0    0  0.00000000000E+00  0.00000000000E+00 -0.93623341213E+02  0.15617403760E+03  0.12500000000E+03 0.  0.
<mgrwt>
<rscale>  0 0.12500000E+03</rscale>
<asrwt>0</asrwt>
<pdfrwt beam="1">  1       21 0.48115920E-02 0.12500000E+03</pdfrwt>
<pdfrwt beam="2">  1       21 0.19215183E-01 0.12500000E+03</pdfrwt>
<totfact> 0.69990034E+06</totfact>
</mgrwt>
</event>
<event>
 3    1  0.1602107E-001  0.1250000E+03  0.7546771E-02  0.1235069E+00
         21   -1    0    0  502  501  0.00000000000E+00  0.00000000000E+00  0.78022379254E+02  0.78022379254E+02  0.00000000000E+00 0. -1.
         21   -1    0    0  501  502 -0.00000000000E+00 -0.00000000000E+00 -0.50065763661E+02  0.50065763661E+02  0.00000000000E+00 0. -1.
         25    1    1    2    0    0  0.00000000000E+00  0.00000000000E+00  0.27956615593E+02  0.12808814291E+03  0.12500000000E+03 0.  0.
<mgrwt>
<rscale>  0 0.12500000E+03</rscale>
<asrwt>0</asrwt>
<pdfrwt beam="1">  1       21 0.12003443E-01 0.12500000E+03</pdfrwt>
<pdfrwt beam="2">  1       21 0.77024252E-02 0.12500000E+03</pdfrwt>
<totfact> 0.73621656E+06</totfact>
</mgrwt>
</event>
<event>
 3    1  0.1602107E-001  0.1250000E+03  0.7546771E-02  0.1235069E+00
         21   -1    0    0  502  501  0.00000000000E+00  0.00000000000E+00  0.57594653139E+01  0.57594653139E+01  0.00000000000E+00 0.  1.
         21   -1    0    0  501  502 -0.00000000000E+00 -0.00000000000E+00 -0.67823136127E+03  0.67823136127E+03  0.00000000000E+00 0.  1.
         25    1    1    2    0    0  0.00000000000E+00  0.00000000000E+00 -0.67247189595E+03  0.68399082658E+03  0.12500000000E+03 0.  0.
<mgrwt>
<rscale>  0 0.12500000E+03</rscale>
<asrwt>0</asrwt>
<pdfrwt beam="1">  1       21 0.88607169E-03 0.12500000E+03</pdfrwt>
<pdfrwt beam="2">  1       21 0.10434327E+00 0.12500000E+03</pdfrwt>
<totfact> 0.33536541E+06</totfact>
</mgrwt>
</event>
<event>
 3    1  0.1602107E-001  0.1250000E+03  0.7546771E-02  0.1235069E+00
         21   -1    0    0  502  501  0.00000000000E+00  0.00000000000E+00  0.18859597223E+03  0.18859597223E+03  0.00000000000E+00 0. -1.
         21   -1    0    0  501  502 -0.00000000000E+00 -0.00000000000E+00 -0.20712266301E+02  0.20712266301E+02  0.00000000000E+00 0. -1.
         25    1    1    2    0    0  0.00000000000E+00  0.00000000000E+00  0.16788370592E+03  0.20930823853E+03  0.12500000000E+03 0.  0.
<mgrwt>
<rscale>  0 0.12500000E+03</rscale>
<asrwt>0</asrwt>
<pdfrwt beam="1">  1       21 0.29014764E-01 0.12500000E+03</pdfrwt>
<pdfrwt beam="2">  1       21 0.31865026E-02 0.12500000E+03</pdfrwt>
<totfact> 0.63932391E+06</totfact>
</mgrwt>
</event>
<event>
 3    1  0.1602107E-001  0.1250000E+03  0.7546771E-02  0.1235069E+00
         21   -1    0    0  502  501  0.00000000000E+00  0.00000000000E+00  0.80189309801E+02  0.80189309801E+02  0.00000000000E+00 0.  1.
         21   -1    0    0  501  502 -0.00000000000E+00 -0.00000000000E+00 -0.48712852245E+02  0.48712852245E+02  0.00000000000E+00 0.  1.
         25    1    1    2    0    0  0.00000000000E+00  0.00000000000E+00  0.31476457556E+02  0.12890216205E+03  0.12500000000E+03 0.  0.
<mgrwt>
<rscale>  0 0.12500000E+03</rscale>
<asrwt>0</asrwt>
<pdfrwt beam="1">  1       21 0.12336817E-01 0.12500000E+03</pdfrwt>
<pdfrwt beam="2">  1       21 0.74942849E-02 0.12500000E+03</pdfrwt>
<totfact> 0.73512024E+06</totfact>
</mgrwt>
</event>
<event>
 3    1  0.1602107E-001  0.1250000E+03  0.7546771E-02  0.1235069E+00
         21   -1    0    0  502  501  0.00000000000E+00  0.00000000000E+00  0.88503753368E+01  0.88503753368E+01  0.00000000000E+00 0.  1.
         21   -1    0    0  501  502 -0.00000000000E+00 -0.00000000000E+00 -0.44136546207E+03  0.44136546207E+03  0.00000000000E+00 0.  1.
         25    1    1    2    0    0  0.00000000000E+00  0.00000000000E+00 -0.43251508673E+03  0.45021583741E+03  0.12500000000E+03 0.  0.
<mgrwt>
<rscale>  0 0.12500000E+03</rscale>
<asrwt>0</asrwt>
<pdfrwt beam="1">  1       21 0.13615965E-02 0.12500000E+03</pdfrwt>
<pdfrwt beam="2">  1       21 0.67902366E-01 0.12500000E+03</pdfrwt>
<totfact> 0.44879361E+06</totfact>
</mgrwt>
</event>
<event>
 3    1  0.1602107E-001  0.1250000E+03  0.7546771E-02  0.1235069E+00
         21   -1    0    0  502  501  0.00000000000E+00  0.00000000000E+00  0.71970344166E+03  0.71970344166E+03  0.00000000000E+00 0. -1.
         21   -1    0    0  501  502 -0.00000000000E+00 -0.00000000000E+00 -0.54275827707E+01  0.54275827707E+01  0.00000000000E+00 0. -1.
         25    1    1    2    0    0  0.00000000000E+00  0.00000000000E+00  0.71427585889E+03  0.72513102443E+03  0.12500000000E+03 0.  0.
<mgrwt>
<rscale>  0 0.12500000E+03</rscale>
<asrwt>0</asrwt>
<pdfrwt beam="1">  1       21 0.11072353E+00 0.12500000E+03</pdfrwt>
<pdfrwt beam="2">  1       21 0.83501330E-03 0.12500000E+03</pdfrwt>
<totfact> 0.31963501E+06</totfact>
</mgrwt>
</event>
<event>
 3    1  0.1602107E-001  0.1250000E+03  0.7546771E-02  0.1235069E+00
         21   -1    0    0  502  501  0.00000000000E+00  0.00000000000E+00  0.15913336667E+02  0.15913336667E+02  0.00000000000E+00 0.  1.
         21   -1    0    0  501  502 -0.00000000000E+00 -0.00000000000E+00 -0.24547020413E+03  0.24547020413E+03  0.00000000000E+00 0.  1.
         25    1    1    2    0    0  0.00000000000E+00  0.00000000000E+00 -0.22955686747E+03  0.26138354080E+03  0.12500000000E+03 0.  0.
<mgrwt>
<rscale>  0 0.12500000E+03</rscale>
<asrwt>0</asrwt>
<pdfrwt beam="1">  1       21 0.24482056E-02 0.12500000E+03</pdfrwt>
<pdfrwt beam="2">  1       21 0.37764647E-01 0.12500000E+03</pdfrwt>
<totfact> 0.58822693E+06</totfact>
</mgrwt>
</event>
<event>
 3    1  0.1602107E-001  0.1250000E+03  0.7546771E-02  0.1235069E+00
         21   -1    0    0  502  501  0.00000000000E+00  0.00000000000E+00  0.44617348794E+01  0.44617348794E+01  0.00000000000E+00 0.  1.
         21   -1    0    0  501  502 -0.00000000000E+00 -0.00000000000E+00 -0.87550024946E+03  0.87550024946E+03  0.00000000000E+00 0.  1.
         25    1    1    2    0    0  0.00000000000E+00  0.00000000000E+00 -0.87103851459E+03  0.87996198434E+03  0.12500000000E+03 0.  0.
<mgrwt>
<rscale>  0 0.12500000E+03</rscale>
<asrwt>0</asrwt>
<pdfrwt beam="1">  1       21 0.68641976E-03 0.12500000E+03</pdfrwt>
<pdfrwt beam="2">  1       21 0.13469254E+00 0.12500000E+03</pdfrwt>
<totfact> 0.26877667E+06</totfact>
</mgrwt>
</event>
<event>
 3    1  0.1602107E-001  0.1250000E+03  0.7546771E-02  0.1235069E+00
         21   -1    0    0  502  501  0.00000000000E+00  0.00000000000E+00  0.15892447322E+03  0.15892447322E+03  0.00000000000E+00 0.  1.
         21   -1    0    0  501  502 -0.00000000000E+00 -0.00000000000E+00 -0.24579285499E+02  0.24579285499E+02  0.00000000000E+00 0.  1.
         25    1    1    2    0    0  0.00000000000E+00  0.00000000000E+00  0.13434518772E+03  0.18350375872E+03  0.12500000000E+03 0.  0.
<mgrwt>
<rscale>  0 0.12500000E+03</rscale>
<asrwt>0</asrwt>
<pdfrwt beam="1">  1       21 0.24449918E-01 0.12500000E+03</pdfrwt>
<pdfrwt beam="2">  1       21 0.37814286E-02 0.12500000E+03</pdfrwt>
<totfact> 0.66751852E+06</totfact>
</mgrwt>
</event>
<event>
 3    1  0.1602107E-001  0.1250000E+03  0.7546771E-02  0.1235069E+00
         21   -1    0    0  502  501  0.00000000000E+00  0.00000000000E+00  0.43431826515E+03  0.43431826515E+03  0.00000000000E+00 0.  1.
         21   -1    0    0  501  502 -0.00000000000E+00 -0.00000000000E+00 -0.89939804826E+01  0.89939804826E+01  0.00000000000E+00 0.  1.
         25    1    1    2    0    0  0.00000000000E+00  0.00000000000E+00  0.42532428467E+03  0.44331224563E+03  0.12500000000E+03 0.  0.
<mgrwt>
<rscale>  0 0.12500000E+03</rscale>
<asrwt>0</asrwt>
<pdfrwt beam="1">  1       21 0.66818178E-01 0.12500000E+03</pdfrwt>
<pdfrwt beam="2">  1       21 0.13836896E-02 0.12500000E+03</pdfrwt>
<totfact> 0.45295177E+06</totfact>
</mgrwt>
</event>
<event>
 3    1  0.1602107E-001  0.1250000E+03  0.7546771E-02  0.1235069E+00
         21   -1    0    0  502  501  0.00000000000E+00  0.00000000000E+00  0.73512451139E+01  0.73512451139E+01  0.00000000000E+00 0.  1.
         21   -1    0    0  501  502 -0.00000000000E+00 -0.00000000000E+00 -0.53137256880E+03  0.53137256880E+03  0.00000000000E+00 0.  1.
         25    1    1    2    0    0  0.00000000000E+00  0.00000000000E+00 -0.52402132368E+03  0.53872381391E+03  0.12500000000E+03 0.  0.
<mgrwt>
<rscale>  0 0.12500000E+03</rscale>
<asrwt>0</asrwt>
<pdfrwt beam="1">  1       21 0.11309607E-02 0.12500000E+03</pdfrwt>
<pdfrwt beam="2">  1       21 0.81749633E-01 0.12500000E+03</pdfrwt>
<totfact> 0.40018955E+06</totfact>
</mgrwt>
</event>
<event>
 3    1  0.1602107E-001  0.1250000E+03  0.7546771E-02  0.1235069E+00
         21   -1    0    0  502  501  0.00000000000E+00  0.00000000000E+00  0.52082220734E+01  0.52082220734E+01  0.00000000000E+00 0. -1.
         21   -1    0    0  501  502 -0.00000000000E+00 -0.00000000000E+00 -0.75001602177E+03  0.75001602177E+03  0.00000000000E+00 0. -1.
         25    1    1    2    0    0  0.00000000000E+00  0.00000000000E+00 -0.74480779970E+03  0.75522424384E+03  0.12500000000E+03 0.  0.
<mgrwt>
<rscale>  0 0.12500000E+03</rscale>
<asrwt>0</asrwt>
<pdfrwt beam="1">  1       21 0.80126546E-03 0.12500000E+03</pdfrwt>
<pdfrwt beam="2">  1       21 0.11538700E+00 0.12500000E+03</pdfrwt>
<totfact> 0.30885980E+06</totfact>
</mgrwt>
</event>
<event>
 3    1  0.1602107E-001  0.1250000E+03  0.7546771E-02  0.1235069E+00
         21   -1    0    0  502  501  0.00000000000E+00  0.00000000000E+00  0.45829601520E+02  0.45829601520E+02  0.00000000000E+00 0.  1.
         21   -1    0    0  501  502 -0.00000000000E+00 -0.00000000000E+00 -0.85234212615E+02  0.85234212615E+02  0.00000000000E+00 0.  1.
         25    1    1    2    0    0  0.00000000000E+00  0.00000000000E+00 -0.39404611095E+02  0.13106381413E+03  0.12500000000E+03 0.  0.
<mgrwt>
<rscale>  0 0.12500000E+03</rscale>
<asrwt>0</asrwt>
<pdfrwt beam="1">  1       21 0.70507080E-02 0.12500000E+03</pdfrwt>
<pdfrwt beam="2">  1       21 0.13112956E-01 0.12500000E+03</pdfrwt>
<totfact> 0.73222073E+06</totfact>
</mgrwt>
</event>
<event>
 3    1  0.1602107E-001  0.1250000E+03  0.7546771E-02  0.1235069E+00
         21   -1    0    0  502  501  0.00000000000E+00  0.00000000000E+00  0.11135118227E+03  0.11135118227E+03  0.00000000000E+00 0.  1.
         21   -1    0    0  501  502 -0.00000000000E+00 -0.00000000000E+00 -0.35080453753E+02  0.35080453753E+02  0.00000000000E+00 0.  1.
         25    1    1    2    0    0  0.00000000000E+00  0.00000000000E+00  0.76270728519E+02  0.14643163602E+03  0.12500000000E+03 0.  0.
<mgrwt>
<rscale>  0 0.12500000E+03</rscale>
<asrwt>0</asrwt>
<pdfrwt beam="1">  1       21 0.17130951E-01 0.12500000E+03</pdfrwt>
<pdfrwt beam="2">  1       21 0.53969930E-02 0.12500000E+03</pdfrwt>
<totfact> 0.71210385E+06</totfact>
</mgrwt>
</event>
<event>
 3    1  0.1602107E-001  0.1250000E+03  0.7546771E-02  0.1235069E+00
         21   -1    0    0  502  501  0.00000000000E+00  0.00000000000E+00  0.15031048995E+04  0.15031048995E+04  0.00000000000E+00 0.  1.
         21   -1    0    0  501  502 -0.00000000000E+00 -0.00000000000E+00 -0.25987873510E+01  0.25987873510E+01  0.00000000000E+00 0.  1.
         25    1    1    2    0    0  0.00000000000E+00  0.00000000000E+00  0.15005061121E+04  0.15057036868E+04  0.12500000000E+03 0.  0.
<mgrwt>
<rscale>  0 0.12500000E+03</rscale>
<asrwt>0</asrwt>
<pdfrwt beam="1">  1       21 0.23124621E+00 0.12500000E+03</pdfrwt>
<pdfrwt beam="2">  1       21 0.39981464E-03 0.12500000E+03</pdfrwt>
<totfact> 0.13908690E+06</totfact>
</mgrwt>
</event>
<event>
 3    1  0.1602107E-001  0.1250000E+03  0.7546771E-02  0.1235069E+00
         21   -1    0    0  502  501  0.00000000000E+00  0.00000000000E+00  0.18281093945E+02  0.18281093945E+02  0.00000000000E+00 0. -1.
         21   -1    0    0  501  502 -0.00000000000E+00 -0.00000000000E+00 -0.21367703770E+03  0.21367703770E+03  0.00000000000E+00 0. -1.
         25    1    1    2    0    0  0.00000000000E+00  0.00000000000E+00 -0.19539594376E+03  0.23195813165E+03  0.12500000000E+03 0.  0.
<mgrwt>
<rscale>  0 0.12500000E+03</rscale>
<asrwt>0</asrwt>
<pdfrwt beam="1">  1       21 0.28124760E-02 0.12500000E+03</pdfrwt>
<pdfrwt beam="2">  1       21 0.32873390E-01 0.12500000E+03</pdfrwt>
<totfact> 0.61619649E+06</totfact>
</mgrwt>
</event>
<event>
 3    1  0.1602107E-001  0.1250000E+03  0.7546771E-02  0.1235069E+00
         21   -1    0    0  502  501  0.00000000000E+00  0.00000000000E+00  0.86601148239E+02  0.86601148239E+02  0.00000000000E+00 0.  1.
         21   -1    0    0  501  502 -0.00000000000E+00 -0.00000000000E+00 -0.45106214865E+02  0.45106214865E+02  0.00000000000E+00 0.  1.
         25    1    1    2    0    0  0.00000000000E+00  0.00000000000E+00  0.41494933374E+02  0.13170736310E+03  0.12500000000E+03 0.  0.
<mgrwt>
<rscale>  0 0.12500000E+03</rscale>
<asrwt>0</asrwt>
<pdfrwt beam="1">  1       21 0.13323254E-01 0.12500000E+03</pdfrwt>
<pdfrwt beam="2">  1       21 0.69394177E-02 0.12500000E+03</pdfrwt>
<totfact> 0.73135507E+06</totfact>
</mgrwt>
</event>
<event>
 3    1  0.1602107E-001  0.1250000E+03  0.7546771E-02  0.1235069E+00
         21   -1    0    0  502  501  0.00000000000E+00  0.00000000000E+00  0.26419124823E+02  0.26419124823E+02  0.00000000000E+00 0.  1.
         21   -1    0    0  501  502 -0.00000000000E+00 -0.00000000000E+00 -0.14785690390E+03  0.14785690390E+03  0.00000000000E+00 0.  1.
         25    1    1    2    0    0  0.00000000000E+00  0.00000000000E+00 -0.12143777908E+03  0.17427602872E+03  0.12500000000E+03 0.  0.
<mgrwt>
<rscale>  0 0.12500000E+03</rscale>
<asrwt>0</asrwt>
<pdfrwt beam="1">  1       21 0.40644807E-02 0.12500000E+03</pdfrwt>
<pdfrwt beam="2">  1       21 0.22747216E-01 0.12500000E+03</pdfrwt>
<totfact> 0.67814317E+06</totfact>
</mgrwt>
</event>
<event>
 3    1  0.1602107E-001  0.1250000E+03  0.7546771E-02  0.1235069E+00
         21   -1    0    0  502  501  0.00000000000E+00  0.00000000000E+00  0.22303740234E+02  0.22303740234E+02  0.00000000000E+00 0. -1.
         21   -1    0    0  501  502 -0.00000000000E+00 -0.00000000000E+00 -0.17513878655E+03  0.17513878655E+03  0.00000000000E+00 0. -1.
         25    1    1    2    0    0  0.00000000000E+00  0.00000000000E+00 -0.15283504631E+03  0.19744252678E+03  0.12500000000E+03 0.  0.
<mgrwt>
<rscale>  0 0.12500000E+03</rscale>
<asrwt>0</asrwt>
<pdfrwt beam="1">  1       21 0.34313445E-02 0.12500000E+03</pdfrwt>
<pdfrwt beam="2">  1       21 0.26944430E-01 0.12500000E+03</pdfrwt>
<totfact> 0.65204681E+06</totfact>
</mgrwt>
</event>
<event>
 3    1  0.1602107E-001  0.1250000E+03  0.7546771E-02  0.1235069E+00
         21   -1    0    0  502  501  0.00000000000E+00  0.00000000000E+00  0.33340735400E+03  0.33340735400E+03  0.00000000000E+00 0. -1.
         21   -1    0    0  501  502 -0.00000000000E+00 -0.00000000000E+00 -0.11716148289E+02  0.11716148289E+02  0.00000000000E+00 0. -1.
         25    1    1    2    0    0  0.00000000000E+00  0.00000000000E+00  0.32169120571E+03  0.34512350228E+03  0.12500000000E+03 0.  0.
<mgrwt>
<rscale>  0 0.12500000E+03</rscale>
<asrwt>0</asrwt>
<pdfrwt beam="1">  1       21 0.51293432E-01 0.12500000E+03</pdfrwt>
<pdfrwt beam="2">  1       21 0.18024846E-02 0.12500000E+03</pdfrwt>
<totfact> 0.51900606E+06</totfact>
</mgrwt>
</event>
<event>
 3    1  0.1602107E-001  0.1250000E+03  0.7546771E-02  0.1235069E+00
         21   -1    0    0  502  501  0.00000000000E+00  0.00000000000E+00  0.56400084521E+02  0.56400084521E+02  0.00000000000E+00 0.  1.
         21   -1    0    0  501  502 -0.00000000000E+00 -0.00000000000E+00 -0.69259647981E+02  0.69259647981E+02  0.00000000000E+00 0.  1.
         25    1    1    2    0    0  0.00000000000E+00  0.00000000000E+00 -0.12859563460E+02  0.12565973250E+03  0.12500000000E+03 0.  0.
<mgrwt>
<rscale>  0 0.12500000E+03</rscale>
<asrwt>0</asrwt>
<pdfrwt beam="1">  1       21 0.86769361E-02 0.12500000E+03</pdfrwt>
<pdfrwt beam="2">  1       21 0.10655330E-01 0.12500000E+03</pdfrwt>
<totfact> 0.73953131E+06</totfact>
</mgrwt>
</event>
<event>
 3    1  0.1602107E-001  0.1250000E+03  0.7546771E-02  0.1235069E+00
         21   -1    0    0  502  501  0.00000000000E+00  0.00000000000E+00  0.11672975185E+03  0.11672975185E+03  0.00000000000E+00 0. -1.
         21   -1    0    0  501  502 -0.00000000000E+00 -0.00000000000E+00 -0.33464047837E+02  0.33464047837E+02  0.00000000000E+00 0. -1.
         25    1    1    2    0    0  0.00000000000E+00  0.00000000000E+00  0.83265704016E+02  0.15019379969E+03  0.12500000000E+03 0.  0.
<mgrwt>
<rscale>  0 0.12500000E+03</rscale>
<asrwt>0</asrwt>
<pdfrwt beam="1">  1       21 0.17958423E-01 0.12500000E+03</pdfrwt>
<pdfrwt beam="2">  1       21 0.51483151E-02 0.12500000E+03</pdfrwt>
<totfact> 0.70734865E+06</totfact>
</mgrwt>
</event>
<event>
 3    1  0.1602107E-001  0.1250000E+03  0.7546771E-02  0.1235069E+00
         21   -1    0    0  502  501  0.00000000000E+00  0.00000000000E+00  0.41465296577E+03  0.41465296577E+03  0.00000000000E+00 0. -1.
         21   -1    0    0  501  502 -0.00000000000E+00 -0.00000000000E+00 -0.94205283030E+01  0.94205283030E+01  0.00000000000E+00 0. -1.
         25    1    1    2    0    0  0.00000000000E+00  0.00000000000E+00  0.40523243747E+03  0.42407349408E+03  0.12500000000E+03 0.  0.
<mgrwt>
<rscale>  0 0.12500000E+03</rscale>
<asrwt>0</asrwt>
<pdfrwt beam="1">  1       21 0.63792750E-01 0.12500000E+03</pdfrwt>
<pdfrwt beam="2">  1       21 0.14493124E-02 0.12500000E+03</pdfrwt>
<totfact> 0.46484530E+06</totfact>
</mgrwt>
</event>
<event>
 3    1  0.1602107E-001  0.1250000E+03  0.7546771E-02  0.1235069E+00
         21   -1    0    0  502  501  0.00000000000E+00  0.00000000000E+00  0.40292378246E+03  0.40292378246E+03  0.00000000000E+00 0.  1.
         21   -1    0    0  501  502 -0.00000000000E+00 -0.00000000000E+00 -0.96947615654E+01  0.96947615654E+01  0.00000000000E+00 0.  1.
         25    1    1    2    0    0  0.00000000000E+00  0.00000000000E+00  0.39322902090E+03  0.41261854403E+03  0.12500000000E+03 0.  0.
<mgrwt>
<rscale>  0 0.12500000E+03</rscale>
<asrwt>0</asrwt>
<pdfrwt beam="1">  1       21 0.61988261E-01 0.12500000E+03</pdfrwt>
<pdfrwt beam="2">  1       21 0.14915021E-02 0.12500000E+03</pdfrwt>
<totfact> 0.47215492E+06</totfact>
</mgrwt>
</event>
<event>
 3    1  0.1602107E-001  0.1250000E+03  0.7546771E-02  0.1235069E+00
         21   -1    0    0  502  501  0.00000000000E+00  0.00000000000E+00  0.89136702538E+02  0.89136702538E+02  0.00000000000E+00 0. -1.
         21   -1    0    0  501  502 -0.00000000000E+00 -0.00000000000E+00 -0.43823137819E+02  0.43823137819E+02  0.00000000000E+00 0. -1.
         25    1    1    2    0    0  0.00000000000E+00  0.00000000000E+00  0.45313564719E+02  0.13295984036E+03  0.12500000000E+03 0.  0.
<mgrwt>
<rscale>  0 0.12500000E+03</rscale>
<asrwt>0</asrwt>
<pdfrwt beam="1">  1       21 0.13713339E-01 0.12500000E+03</pdfrwt>
<pdfrwt beam="2">  1       21 0.67420212E-02 0.12500000E+03</pdfrwt>
<totfact> 0.72967761E+06</totfact>
</mgrwt>
</event>
<event>
 3    1  0.1602107E-001  0.1250000E+03  0.7546771E-02  0.1235069E+00
         21   -1    0    0  502  501  0.00000000000E+00  0.00000000000E+00  0.32931925665E+02  0.32931925665E+02  0.00000000000E+00 0.  1.
         21   -1    0    0  501  502 -0.00000000000E+00 -0.00000000000E+00 -0.11861589996E+03  0.11861589996E+03  0.00000000000E+00 0.  1.
         25    1    1    2    0    0  0.00000000000E+00  0.00000000000E+00 -0.85683974291E+02  0.15154782562E+03  0.12500000000E+03 0.  0.
<mgrwt>
<rscale>  0 0.12500000E+03</rscale>
<asrwt>0</asrwt>
<pdfrwt beam="1">  1       21 0.50664501E-02 0.12500000E+03</pdfrwt>
<pdfrwt beam="2">  1       21 0.18248600E-01 0.12500000E+03</pdfrwt>
<totfact> 0.70565304E+06</totfact>
</mgrwt>
</event>
<event>
 3    1  0.1602107E-001  0.1250000E+03  0.7546771E-02  0.1235069E+00
         21   -1    0    0  502  501  0.00000000000E+00  0.00000000000E+00  0.27783173285E+03  0.27783173285E+03  0.00000000000E+00 0.  1.
         21   -1    0    0  501  502 -0.00000000000E+00 -0.00000000000E+00 -0.14059769055E+02  0.14059769055E+02  0.00000000000E+00 0.  1.
         25    1    1    2    0    0  0.00000000000E+00  0.00000000000E+00  0.26377196379E+03  0.29189150190E+03  0.12500000000E+03 0.  0.
<mgrwt>
<rscale>  0 0.12500000E+03</rscale>
<asrwt>0</asrwt>
<pdfrwt beam="1">  1       21 0.42743340E-01 0.12500000E+03</pdfrwt>
<pdfrwt beam="2">  1       21 0.21630416E-02 0.12500000E+03</pdfrwt>
<totfact> 0.56136827E+06</totfact>
</mgrwt>
</event>
<event>
 3    1  0.1602107E-001  0.1250000E+03  0.7546771E-02  0.1235069E+00
         21   -1    0    0  502  501  0.00000000000E+00  0.00000000000E+00  0.11443220482E+02  0.11443220482E+02  0.00000000000E+00 0.  1.
         21   -1    0    0  501  502 -0.00000000000E+00 -0.00000000000E+00 -0.34135932329E+03  0.34135932329E+03  0.00000000000E+00 0.  1.
         25    1    1    2    0    0  0.00000000000E+00  0.00000000000E+00 -0.32991610281E+03  0.35280254377E+03  0.12500000000E+03 0.  0.
<mgrwt>
<rscale>  0 0.12500000E+03</rscale>
<asrwt>0</asrwt>
<pdfrwt beam="1">  1       21 0.17604955E-02 0.12500000E+03</pdfrwt>
<pdfrwt beam="2">  1       21 0.52516819E-01 0.12500000E+03</pdfrwt>
<totfact> 0.51332120E+06</totfact>
</mgrwt>
</event>
<event>
 3    1  0.1602107E-001  0.1250000E+03  0.7546771E-02  0.1235069E+00
         21   -1    0    0  502  501  0.00000000000E+00  0.00000000000E+00  0.13783832245E+04  0.13783832245E+04  0.00000000000E+00 0.  1.
         21   -1    0    0  501  502 -0.00000000000E+00 -0.00000000000E+00 -0.28339361148E+01  0.28339361148E+01  0.00000000000E+00 0.  1.
         25    1    1    2    0    0  0.00000000000E+00  0.00000000000E+00  0.13755492884E+04  0.13812171606E+04  0.12500000000E+03 0.  0.
<mgrwt>
<rscale>  0 0.12500000E+03</rscale>
<asrwt>0</asrwt>
<pdfrwt beam="1">  1       21 0.21205842E+00 0.12500000E+03</pdfrwt>
<pdfrwt beam="2">  1       21 0.43599127E-03 0.12500000E+03</pdfrwt>
<totfact> 0.15853392E+06</totfact>
</mgrwt>
</event>
<event>
 3    1  0.1602107E-001  0.1250000E+03  0.7546771E-02  0.1235069E+00
         21   -1    0    0  502  501  0.00000000000E+00  0.00000000000E+00  0.15080441042E+03  0.15080441042E+03  0.00000000000E+00 0.  1.
         21   -1    0    0  501  502 -0.00000000000E+00 -0.00000000000E+00 -0.25902757016E+02  0.25902757016E+02  0.00000000000E+00 0.  1.
         25    1    1    2    0    0  0.00000000000E+00  0.00000000000E+00  0.12490165340E+03  0.17670716744E+03  0.12500000000E+03 0.  0.
<mgrwt>
<rscale>  0 0.12500000E+03</rscale>
<asrwt>0</asrwt>
<pdfrwt beam="1">  1       21 0.23200678E-01 0.12500000E+03</pdfrwt>
<pdfrwt beam="2">  1       21 0.39850396E-02 0.12500000E+03</pdfrwt>
<totfact> 0.67531302E+06</totfact>
</mgrwt>
</event>
<event>
 3    1  0.1602107E-001  0.1250000E+03  0.7546771E-02  0.1235069E+00
         21   -1    0    0  502  501  0.00000000000E+00  0.00000000000E+00  0.38886959656E+03  0.38886959656E+03  0.00000000000E+00 0. -1.
         21   -1    0    0  501  502 -0.00000000000E+00 -0.00000000000E+00 -0.10045141185E+02  0.10045141185E+02  0.00000000000E+00 0. -1.
         25    1    1    2    0    0  0.00000000000E+00  0.00000000000E+00  0.37882445538E+03  0.39891473775E+03  0.12500000000E+03 0.  0.
<mgrwt>
<rscale>  0 0.12500000E+03</rscale>
<asrwt>0</asrwt>
<pdfrwt beam="1">  1       21 0.59826080E-01 0.12500000E+03</pdfrwt>
<pdfrwt beam="2">  1       21 0.15454066E-02 0.12500000E+03</pdfrwt>
<totfact> 0.48113423E+06</totfact>
</mgrwt>
</event>
<event>
 3    1  0.1602107E-001  0.1250000E+03  0.7546771E-02  0.1235069E+00
         21   -1    0    0  502  501  0.00000000000E+00  0.00000000000E+00  0.79558681183E+02  0.79558681183E+02  0.00000000000E+00 0.  1.
         21   -1    0    0  501  502 -0.00000000000E+00 -0.00000000000E+00 -0.49098978791E+02  0.49098978791E+02  0.00000000000E+00 0.  1.
         25    1    1    2    0    0  0.00000000000E+00  0.00000000000E+00  0.30459702392E+02  0.12865765997E+03  0.12500000000E+03 0.  0.
<mgrwt>
<rscale>  0 0.12500000E+03</rscale>
<asrwt>0</asrwt>
<pdfrwt beam="1">  1       21 0.12239797E-01 0.12500000E+03</pdfrwt>
<pdfrwt beam="2">  1       21 0.75536890E-02 0.12500000E+03</pdfrwt>
<totfact> 0.73544899E+06</totfact>
</mgrwt>
</event>
<event>
 3    1  0.1602107E-001  0.1250000E+03  0.7546771E-02  0.1235069E+00
         21   -1    0    0  502  501  0.00000000000E+00  0.00000000000E+00  0.43814852270E+02  0.43814852270E+02  0.00000000000E+00 0.  1.
         21   -1    0    0  501  502 -0.00000000000E+00 -0.00000000000E+00 -0.89153558614E+02  0.89153558614E+02  0.00000000000E+00 0.  1.
         25    1    1    2    0    0  0.00000000000E+00  0.00000000000E+00 -0.45338706345E+02  0.13296841088E+03  0.12500000000E+03 0.  0.
<mgrwt>
<rscale>  0 0.12500000E+03</rscale>
<asrwt>0</asrwt>
<pdfrwt beam="1">  1       21 0.67407466E-02 0.12500000E+03</pdfrwt>
<pdfrwt beam="2">  1       21 0.13715932E-01 0.12500000E+03</pdfrwt>
<totfact> 0.72966617E+06</totfact>
</mgrwt>
</event>
<event>
 3    1  0.1602107E-001  0.1250000E+03  0.7546771E-02  0.1235069E+00
         21   -1    0    0  502  501  0.00000000000E+00  0.00000000000E+00  0.85231779118E+01  0.85231779118E+01  0.00000000000E+00 0. -1.
         21   -1    0    0  501  502 -0.00000000000E+00 -0.00000000000E+00 -0.45830910025E+03  0.45830910025E+03  0.00000000000E+00 0. -1.
         25    1    1    2    0    0  0.00000000000E+00  0.00000000000E+00 -0.44978592233E+03  0.46683227816E+03  0.12500000000E+03 0.  0.
<mgrwt>
<rscale>  0 0.12500000E+03</rscale>
<asrwt>0</asrwt>
<pdfrwt beam="1">  1       21 0.13112578E-02 0.12500000E+03</pdfrwt>
<pdfrwt beam="2">  1       21 0.70509111E-01 0.12500000E+03</pdfrwt>
<totfact> 0.43901892E+06</totfact>
</mgrwt>
</event>
<event>
 3    1  0.1602107E-001  0.1250000E+03  0.7546771E-02  0.1235069E+00
         21   -1    0    0  502  501  0.00000000000E+00  0.00000000000E+00  0.16569230328E+02  0.16569230328E+02  0.00000000000E+00 0. -1.
         21   -1    0    0  501  502 -0.00000000000E+00 -0.00000000000E+00 -0.23575325605E+03  0.23575325605E+03  0.00000000000E+00 0. -1.
         25    1    1    2    0    0  0.00000000000E+00  0.00000000000E+00 -0.21918402572E+03  0.25232248637E+03  0.12500000000E+03 0.  0.
<mgrwt>
<rscale>  0 0.12500000E+03</rscale>
<asrwt>0</asrwt>
<pdfrwt beam="1">  1       21 0.25491125E-02 0.12500000E+03</pdfrwt>
<pdfrwt beam="2">  1       21 0.36269729E-01 0.12500000E+03</pdfrwt>
<totfact> 0.59660218E+06</totfact>
</mgrwt>
</event>
<event>
 3    1  0.1602107E-001  0.1250000E+03  0.7546771E-02  0.1235069E+00
         21   -1    0    0  502  501  0.00000000000E+00  0.00000000000E+00  0.11044936481E+02  0.11044936481E+02  0.00000000000E+00 0. -1.
         21   -1    0    0  501  502 -0.00000000000E+00 -0.00000000000E+00 -0.35366885147E+03  0.35366885147E+03  0.00000000000E+00 0. -1.
         25    1    1    2    0    0  0.00000000000E+00  0.00000000000E+00 -0.34262391499E+03  0.36471378796E+03  0.12500000000E+03 0.  0.
<mgrwt>
<rscale>  0 0.12500000E+03</rscale>
<asrwt>0</asrwt>
<pdfrwt beam="1">  1       21 0.16992212E-02 0.12500000E+03</pdfrwt>
<pdfrwt beam="2">  1       21 0.54410587E-01 0.12500000E+03</pdfrwt>
<totfact> 0.50469800E+06</totfact>
</mgrwt>
</event>
<event>
 3    1  0.1602107E-001  0.1250000E+03  0.7546771E-02  0.1235069E+00
         21   -1    0    0  502  501  0.00000000000E+00  0.00000000000E+00  0.85158141632E+03  0.85158141632E+03  0.00000000000E+00 0. -1.
         21   -1    0    0  501  502 -0.00000000000E+00 -0.00000000000E+00 -0.45870540680E+01  0.45870540680E+01  0.00000000000E+00 0. -1.
         25    1    1    2    0    0  0.00000000000E+00  0.00000000000E+00  0.84699436225E+03  0.85616847039E+03  0.12500000000E+03 0.  0.
<mgrwt>
<rscale>  0 0.12500000E+03</rscale>
<asrwt>0</asrwt>
<pdfrwt beam="1">  1       21 0.13101240E+00 0.12500000E+03</pdfrwt>
<pdfrwt beam="2">  1       21 0.70570130E-03 0.12500000E+03</pdfrwt>
<totfact> 0.27584226E+06</totfact>
</mgrwt>
</event>
<event>
 3    1  0.1602107E-001  0.1250000E+03  0.7546771E-02  0.1235069E+00
         21   -1    0    0  502  501  0.00000000000E+00  0.00000000000E+00  0.12920627707E+03  0.12920627707E+03  0.00000000000E+00 0. -1.
         21   -1    0    0  501  502 -0.00000000000E+00 -0.00000000000E+00 -0.30232664300E+02  0.30232664300E+02  0.00000000000E+00 0. -1.
         25    1    1    2    0    0  0.00000000000E+00  0.00000000000E+00  0.98973612765E+02  0.15943894137E+03  0.12500000000E+03 0.  0.
<mgrwt>
<rscale>  0 0.12500000E+03</rscale>
<asrwt>0</asrwt>
<pdfrwt beam="1">  1       21 0.19877889E-01 0.12500000E+03</pdfrwt>
<pdfrwt beam="2">  1       21 0.46511792E-02 0.12500000E+03</pdfrwt>
<totfact> 0.69588116E+06</totfact>
</mgrwt>
</event>
<event>
 3    1  0.1602107E-001  0.1250000E+03  0.7546771E-02  0.1235069E+00
         21   -1    0    0  502  501  0.00000000000E+00  0.00000000000E+00  0.51968289679E+02  0.51968289679E+02  0.00000000000E+00 0. -1.
         21   -1    0    0  501  502 -0.00000000000E+00 -0.00000000000E+00 -0.75166029595E+02  0.75166029595E+02  0.00000000000E+00 0. -1.
         25    1    1    2    0    0  0.00000000000E+00  0.00000000000E+00 -0.23197739917E+02  0.12713431927E+03  0.12500000000E+03 0.  0.
<mgrwt>
<rscale>  0 0.12500000E+03</rscale>
<asrwt>0</asrwt>
<pdfrwt beam="1">  1       21 0.79951215E-02 0.12500000E+03</pdfrwt>
<pdfrwt beam="2">  1       21 0.11564005E-01 0.12500000E+03</pdfrwt>
<totfact> 0.73750862E+06</totfact>
</mgrwt>
</event>
<event>
 3    1  0.1602107E-001  0.1250000E+03  0.7546771E-02  0.1235069E+00
         21   -1    0    0  502  501  0.00000000000E+00  0.00000000000E+00  0.63950091895E+01  0.63950091895E+01  0.00000000000E+00 0. -1.
         21   -1    0    0  501  502 -0.00000000000E+00 -0.00000000000E+00 -0.61082789473E+03  0.61082789473E+03  0.00000000000E+00 0. -1.
         25    1    1    2    0    0  0.00000000000E+00  0.00000000000E+00 -0.60443288554E+03  0.61722290392E+03  0.12500000000E+03 0.  0.
<mgrwt>
<rscale>  0 0.12500000E+03</rscale>
<asrwt>0</asrwt>
<pdfrwt beam="1">  1       21 0.98384740E-03 0.12500000E+03</pdfrwt>
<pdfrwt beam="2">  1       21 0.93973538E-01 0.12500000E+03</pdfrwt>
<totfact> 0.36325147E+06</totfact>
</mgrwt>
</event>
<event>
 3    1  0.1602107E-001  0.1250000E+03  0.7546771E-02  0.1235069E+00
         21   -1    0    0  502  501  0.00000000000E+00  0.00000000000E+00  0.75079368015E+02  0.75079368015E+02  0.00000000000E+00 0. -1.
         21   -1    0    0  501  502 -0.00000000000E+00 -0.00000000000E+00 -0.52028274922E+02  0.52028274922E+02  0.00000000000E+00 0. -1.
         25    1    1    2    0    0  0.00000000000E+00  0.00000000000E+00  0.23051093093E+02  0.12710764294E+03  0.12500000000E+03 0.  0.
<mgrwt>
<rscale>  0 0.12500000E+03</rscale>
<asrwt>0</asrwt>
<pdfrwt beam="1">  1       21 0.11550672E-01 0.12500000E+03</pdfrwt>
<pdfrwt beam="2">  1       21 0.80043500E-02 0.12500000E+03</pdfrwt>
<totfact> 0.73754490E+06</totfact>
</mgrwt>
</event>
<event>
 3    1  0.1602107E-001  0.1250000E+03  0.7546771E-02  0.1235069E+00
         21   -1    0    0  502  501  0.00000000000E+00  0.00000000000E+00  0.44136963342E+03  0.44136963342E+03  0.00000000000E+00 0. -1.
         21   -1    0    0  501  502 -0.00000000000E+00 -0.00000000000E+00 -0.88502916925E+01  0.88502916925E+01  0.00000000000E+00 0. -1.
         25    1    1    2    0    0  0.00000000000E+00  0.00000000000E+00  0.43251934173E+03  0.45021992511E+03  0.12500000000E+03 0.  0.
<mgrwt>
<rscale>  0 0.12500000E+03</rscale>
<asrwt>0</asrwt>
<pdfrwt beam="1">  1       21 0.67903003E-01 0.12500000E+03</pdfrwt>
<pdfrwt beam="2">  1       21 0.13615837E-02 0.12500000E+03</pdfrwt>
<totfact> 0.44879118E+06</totfact>
</mgrwt>
</event>
<event>
 3    1  0.1602107E-001  0.1250000E+03  0.7546771E-02  0.1235069E+00
         21   -1    0    0  502  501  0.00000000000E+00  0.00000000000E+00  0.49708666757E+02  0.49708666757E+02  0.00000000000E+00 0.  1.
         21   -1    0    0  501  502 -0.00000000000E+00 -0.00000000000E+00 -0.78582876082E+02  0.78582876082E+02  0.00000000000E+00 0.  1.
         25    1    1    2    0    0  0.00000000000E+00  0.00000000000E+00 -0.28874209325E+02  0.12829154284E+03  0.12500000000E+03 0.  0.
<mgrwt>
<rscale>  0 0.12500000E+03</rscale>
<asrwt>0</asrwt>
<pdfrwt beam="1">  1       21 0.76474872E-02 0.12500000E+03</pdfrwt>
<pdfrwt beam="2">  1       21 0.12089673E-01 0.12500000E+03</pdfrwt>
<totfact> 0.73594212E+06</totfact>
</mgrwt>
</event>
<event>
 3    1  0.1602107E-001  0.1250000E+03  0.7546771E-02  0.1235069E+00
         21   -1    0    0  502  501  0.00000000000E+00  0.00000000000E+00  0.22270102715E+03  0.22270102715E+03  0.00000000000E+00 0.  1.
         21   -1    0    0  501  502 -0.00000000000E+00 -0.00000000000E+00 -0.17540332211E+02  0.17540332211E+02  0.00000000000E+00 0.  1.
         25    1    1    2    0    0  0.00000000000E+00  0.00000000000E+00  0.20516069494E+03  0.24024135936E+03  0.12500000000E+03 0.  0.
<mgrwt>
<rscale>  0 0.12500000E+03</rscale>
<asrwt>0</asrwt>
<pdfrwt beam="1">  1       21 0.34261694E-01 0.12500000E+03</pdfrwt>
<pdfrwt beam="2">  1       21 0.26985128E-02 0.12500000E+03</pdfrwt>
<totfact> 0.60809316E+06</totfact>
</mgrwt>
</event>
<event>
 3    1  0.1602107E-001  0.1250000E+03  0.7546771E-02  0.1235069E+00
         21   -1    0    0  502  501  0.00000000000E+00  0.00000000000E+00  0.96214559832E+01  0.96214559832E+01  0.00000000000E+00 0. -1.
         21   -1    0    0  501  502 -0.00000000000E+00 -0.00000000000E+00 -0.40599364658E+03  0.40599364658E+03  0.00000000000E+00 0. -1.
         25    1    1    2    0    0  0.00000000000E+00  0.00000000000E+00 -0.39637219059E+03  0.41561510256E+03  0.12500000000E+03 0.  0.
<mgrwt>
<rscale>  0 0.12500000E+03</rscale>
<asrwt>0</asrwt>
<pdfrwt beam="1">  1       21 0.14802242E-02 0.12500000E+03</pdfrwt>
<pdfrwt beam="2">  1       21 0.62460554E-01 0.12500000E+03</pdfrwt>
<totfact> 0.47022579E+06</totfact>
</mgrwt>
</event>
<event>
 3    1  0.1602107E-001  0.1250000E+03  0.7546771E-02  0.1235069E+00
         21   -1    0    0  502  501  0.00000000000E+00  0.00000000000E+00  0.11183802086E+03  0.11183802086E+03  0.00000000000E+00 0.  1.
         21   -1    0    0  501  502 -0.00000000000E+00 -0.00000000000E+00 -0.34927746128E+02  0.34927746128E+02  0.00000000000E+00 0.  1.
         25    1    1    2    0    0  0.00000000000E+00  0.00000000000E+00  0.76910274729E+02  0.14676576699E+03  0.12500000000E+03 0.  0.
<mgrwt>
<rscale>  0 0.12500000E+03</rscale>
<asrwt>0</asrwt>
<pdfrwt beam="1">  1       21 0.17205849E-01 0.12500000E+03</pdfrwt>
<pdfrwt beam="2">  1       21 0.53734995E-02 0.12500000E+03</pdfrwt>
<totfact> 0.71167884E+06</totfact>
</mgrwt>
</event>
<event>
 3    1  0.1602107E-001  0.1250000E+03  0.7546771E-02  0.1235069E+00
         21   -1    0    0  502  501  0.00000000000E+00  0.00000000000E+00  0.15600205611E+02  0.15600205611E+02  0.00000000000E+00 0. -1.
         21   -1    0    0  501  502 -0.00000000000E+00 -0.00000000000E+00 -0.25039734075E+03  0.25039734075E+03  0.00000000000E+00 0. -1.
         25    1    1    2    0    0  0.00000000000E+00  0.00000000000E+00 -0.23479713514E+03  0.26599754636E+03  0.12500000000E+03 0.  0.
<mgrwt>
<rscale>  0 0.12500000E+03</rscale>
<asrwt>0</asrwt>
<pdfrwt beam="1">  1       21 0.24000318E-02 0.12500000E+03</pdfrwt>
<pdfrwt beam="2">  1       21 0.38522665E-01 0.12500000E+03</pdfrwt>
<totfact> 0.58403890E+06</totfact>
</mgrwt>
</event>
<event>
 3    1  0.1602107E-001  0.1250000E+03  0.7546771E-02  0.1235069E+00
         21   -1    0    0  502  501  0.00000000000E+00  0.00000000000E+00  0.22762555070E+02  0.22762555070E+02  0.00000000000E+00 0.  1.
         21   -1    0    0  501  502 -0.00000000000E+00 -0.00000000000E+00 -0.17160859087E+03  0.17160859087E+03  0.00000000000E+00 0.  1.
         25    1    1    2    0    0  0.00000000000E+00  0.00000000000E+00 -0.14884603580E+03  0.19437114594E+03  0.12500000000E+03 0.  0.
<mgrwt>
<rscale>  0 0.12500000E+03</rscale>
<asrwt>0</asrwt>
<pdfrwt beam="1">  1       21 0.35019315E-02 0.12500000E+03</pdfrwt>
<pdfrwt beam="2">  1       21 0.26401322E-01 0.12500000E+03</pdfrwt>
<totfact> 0.65539914E+06</totfact>
</mgrwt>
</event>
<event>
 3    1  0.1602107E-001  0.1250000E+03  0.7546771E-02  0.1235069E+00
         21   -1    0    0  502  501  0.00000000000E+00  0.00000000000E+00  0.19701386468E+01  0.19701386468E+01  0.00000000000E+00 0.  1.
         21   -1    0    0  501  502 -0.00000000000E+00 -0.00000000000E+00 -0.19827284777E+04  0.19827284777E+04  0.00000000000E+00 0.  1.
         25    1    1    2    0    0  0.00000000000E+00  0.00000000000E+00 -0.19807583390E+04  0.19846986163E+04  0.12500000000E+03 0.  0.
<mgrwt>
<rscale>  0 0.12500000E+03</rscale>
<asrwt>0</asrwt>
<pdfrwt beam="1">  1       21 0.30309693E-03 0.12500000E+03</pdfrwt>
<pdfrwt beam="2">  1       21 0.30503649E+00 0.12500000E+03</pdfrwt>
<totfact> 0.80980652E+05</totfact>
</mgrwt>
</event>
<event>
 3    1  0.1602107E-001  0.1250000E+03  0.7546771E-02  0.1235069E+00
         21   -1    0    0  502  501  0.00000000000E+00  0.00000000000E+00  0.31676640671E+01  0.31676640671E+01  0.00000000000E+00 0. -1.
         21   -1    0    0  501  502 -0.00000000000E+00 -0.00000000000E+00 -0.12331642236E+04  0.12331642236E+04  0.00000000000E+00 0. -1.
         25    1    1    2    0    0  0.00000000000E+00  0.00000000000E+00 -0.12299965596E+04  0.12363318877E+04  0.12500000000E+03 0.  0.
<mgrwt>
<rscale>  0 0.12500000E+03</rscale>
<asrwt>0</asrwt>
<pdfrwt beam="1">  1       21 0.48733235E-03 0.12500000E+03</pdfrwt>
<pdfrwt beam="2">  1       21 0.18971780E+00 0.12500000E+03</pdfrwt>
<totfact> 0.18434045E+06</totfact>
</mgrwt>
</event>
<event>
 3    1  0.1602107E-001  0.1250000E+03  0.7546771E-02  0.1235069E+00
         21   -1    0    0  502  501  0.00000000000E+00  0.00000000000E+00  0.31407631754E+02  0.31407631754E+02  0.00000000000E+00 0.  1.
         21   -1    0    0  501  502 -0.00000000000E+00 -0.00000000000E+00 -0.12437263754E+03  0.12437263754E+03  0.00000000000E+00 0.  1.
         25    1    1    2    0    0  0.00000000000E+00  0.00000000000E+00 -0.92965005784E+02  0.15578026929E+03  0.12500000000E+03 0.  0.
<mgrwt>
<rscale>  0 0.12500000E+03</rscale>
<asrwt>0</asrwt>
<pdfrwt beam="1">  1       21 0.48319435E-02 0.12500000E+03</pdfrwt>
<pdfrwt beam="2">  1       21 0.19134251E-01 0.12500000E+03</pdfrwt>
<totfact> 0.70038811E+06</totfact>
</mgrwt>
</event>
<event>
 3    1  0.1602107E-001  0.1250000E+03  0.7546771E-02  0.1235069E+00
         21   -1    0    0  502  501  0.00000000000E+00  0.00000000000E+00  0.35809929325E+02  0.35809929325E+02  0.00000000000E+00 0.  1.
         21   -1    0    0  501  502 -0.00000000000E+00 -0.00000000000E+00 -0.10908287376E+03  0.10908287376E+03  0.00000000000E+00 0.  1.
         25    1    1    2    0    0  0.00000000000E+00  0.00000000000E+00 -0.73272944436E+02  0.14489280309E+03  0.12500000000E+03 0.  0.
<mgrwt>
<rscale>  0 0.12500000E+03</rscale>
<asrwt>0</asrwt>
<pdfrwt beam="1">  1       21 0.55092199E-02 0.12500000E+03</pdfrwt>
<pdfrwt beam="2">  1       21 0.16781981E-01 0.12500000E+03</pdfrwt>
<totfact> 0.71406820E+06</totfact>
</mgrwt>
</event>
<event>
 3    1  0.1602107E-001  0.1250000E+03  0.7546771E-02  0.1235069E+00
         21   -1    0    0  502  501  0.00000000000E+00  0.00000000000E+00  0.13113097122E+03  0.13113097122E+03  0.00000000000E+00 0.  1.
         21   -1    0    0  501  502 -0.00000000000E+00 -0.00000000000E+00 -0.29788919914E+02  0.29788919914E+02  0.00000000000E+00 0.  1.
         25    1    1    2    0    0  0.00000000000E+00  0.00000000000E+00  0.10134205131E+03  0.16091989114E+03  0.12500000000E+03 0.  0.
<mgrwt>
<rscale>  0 0.12500000E+03</rscale>
<asrwt>0</asrwt>
<pdfrwt beam="1">  1       21 0.20173995E-01 0.12500000E+03</pdfrwt>
<pdfrwt beam="2">  1       21 0.45829108E-02 0.12500000E+03</pdfrwt>
<totfact> 0.69407270E+06</totfact>
</mgrwt>
</event>
<event>
 3    1  0.1602107E-001  0.1250000E+03  0.7546771E-02  0.1235069E+00
         21   -1    0    0  502  501  0.00000000000E+00  0.00000000000E+00  0.21823782402E+03  0.21823782402E+03  0.00000000000E+00 0. -1.
         21   -1    0    0  501  502 -0.00000000000E+00 -0.00000000000E+00 -0.17899051264E+02  0.17899051264E+02  0.00000000000E+00 0. -1.
         25    1    1    2    0    0  0.00000000000E+00  0.00000000000E+00  0.20033877276E+03  0.23613687529E+03  0.12500000000E+03 0.  0.
<mgrwt>
<rscale>  0 0.12500000E+03</rscale>
<asrwt>0</asrwt>
<pdfrwt beam="1">  1       21 0.33575048E-01 0.12500000E+03</pdfrwt>
<pdfrwt beam="2">  1       21 0.27537004E-02 0.12500000E+03</pdfrwt>
<totfact> 0.61208505E+06</totfact>
</mgrwt>
</event>
<event>
 3    1  0.1602107E-001  0.1250000E+03  0.7546771E-02  0.1235069E+00
         21   -1    0    0  502  501  0.00000000000E+00  0.00000000000E+00  0.48212905399E+02  0.48212905399E+02  0.00000000000E+00 0.  1.
         21   -1    0    0  501  502 -0.00000000000E+00 -0.00000000000E+00 -0.81020838045E+02  0.81020838045E+02  0.00000000000E+00 0.  1.
         25    1    1    2    0    0  0.00000000000E+00  0.00000000000E+00 -0.32807932646E+02  0.12923374344E+03  0.12500000000E+03 0.  0.
<mgrwt>
<rscale>  0 0.12500000E+03</rscale>
<asrwt>0</asrwt>
<pdfrwt beam="1">  1       21 0.74173701E-02 0.12500000E+03</pdfrwt>
<pdfrwt beam="2">  1       21 0.12464744E-01 0.12500000E+03</pdfrwt>
<totfact> 0.73467508E+06</totfact>
</mgrwt>
</event>
<event>
 3    1  0.1602107E-001  0.1250000E+03  0.7546771E-02  0.1235069E+00
         21   -1    0    0  502  501  0.00000000000E+00  0.00000000000E+00  0.10111080360E+03  0.10111080360E+03  0.00000000000E+00 0.  1.
         21   -1    0    0  501  502 -0.00000000000E+00 -0.00000000000E+00 -0.38633359254E+02  0.38633359254E+02  0.00000000000E+00 0.  1.
         25    1    1    2    0    0  0.00000000000E+00  0.00000000000E+00  0.62477444349E+02  0.13974416286E+03  0.12500000000E+03 0.  0.
<mgrwt>
<rscale>  0 0.12500000E+03</rscale>
<asrwt>0</asrwt>
<pdfrwt beam="1">  1       21 0.15555508E-01 0.12500000E+03</pdfrwt>
<pdfrwt beam="2">  1       21 0.59435938E-02 0.12500000E+03</pdfrwt>
<totfact> 0.72072725E+06</totfact>
</mgrwt>
</event>
<event>
 3    1  0.1602107E-001  0.1250000E+03  0.7546771E-02  0.1235069E+00
         21   -1    0    0  502  501  0.00000000000E+00  0.00000000000E+00  0.22189886579E+02  0.22189886579E+02  0.00000000000E+00 0. -1.
         21   -1    0    0  501  502 -0.00000000000E+00 -0.00000000000E+00 -0.17603740272E+03  0.17603740272E+03  0.00000000000E+00 0. -1.
         25    1    1    2    0    0  0.00000000000E+00  0.00000000000E+00 -0.15384751614E+03  0.19822728930E+03  0.12500000000E+03 0.  0.
<mgrwt>
<rscale>  0 0.12500000E+03</rscale>
<asrwt>0</asrwt>
<pdfrwt beam="1">  1       21 0.34138286E-02 0.12500000E+03</pdfrwt>
<pdfrwt beam="2">  1       21 0.27082678E-01 0.12500000E+03</pdfrwt>
<totfact> 0.65119524E+06</totfact>
</mgrwt>
</event>
<event>
 3    1  0.1602107E-001  0.1250000E+03  0.7546771E-02  0.1235069E+00
         21   -1    0    0  502  501  0.00000000000E+00  0.00000000000E+00  0.35711195950E+03  0.35711195950E+03  0.00000000000E+00 0. -1.
         21   -1    0    0  501  502 -0.00000000000E+00 -0.00000000000E+00 -0.10938446322E+02  0.10938446322E+02  0.00000000000E+00 0. -1.
         25    1    1    2    0    0  0.00000000000E+00  0.00000000000E+00  0.34617351318E+03  0.36805040583E+03  0.12500000000E+03 0.  0.
<mgrwt>
<rscale>  0 0.12500000E+03</rscale>
<asrwt>0</asrwt>
<pdfrwt beam="1">  1       21 0.54940292E-01 0.12500000E+03</pdfrwt>
<pdfrwt beam="2">  1       21 0.16828382E-02 0.12500000E+03</pdfrwt>
<totfact> 0.50232369E+06</totfact>
</mgrwt>
</event>
<event>
 3    1  0.1602107E-001  0.1250000E+03  0.7546771E-02  0.1235069E+00
         21   -1    0    0  502  501  0.00000000000E+00  0.00000000000E+00  0.25231123438E+02  0.25231123438E+02  0.00000000000E+00 0. -1.
         21   -1    0    0  501  502 -0.00000000000E+00 -0.00000000000E+00 -0.15481871070E+03  0.15481871070E+03  0.00000000000E+00 0. -1.
         25    1    1    2    0    0  0.00000000000E+00  0.00000000000E+00 -0.12958758726E+03  0.18004983413E+03  0.12500000000E+03 0.  0.
<mgrwt>
<rscale>  0 0.12500000E+03</rscale>
<asrwt>0</asrwt>
<pdfrwt beam="1">  1       21 0.38817113E-02 0.12500000E+03</pdfrwt>
<pdfrwt beam="2">  1       21 0.23818263E-01 0.12500000E+03</pdfrwt>
<totfact> 0.67145820E+06</totfact>
</mgrwt>
</event>
<event>
 3    1  0.1602107E-001  0.1250000E+03  0.7546771E-02  0.1235069E+00
         21   -1    0    0  502  501  0.00000000000E+00  0.00000000000E+00  0.39131644454E+02  0.39131644454E+02  0.00000000000E+00 0. -1.
         21   -1    0    0  501  502 -0.00000000000E+00 -0.00000000000E+00 -0.99823302968E+02  0.99823302968E+02  0.00000000000E+00 0. -1.
         25    1    1    2    0    0  0.00000000000E+00  0.00000000000E+00 -0.60691658514E+02  0.13895494742E+03  0.12500000000E+03 0.  0.
<mgrwt>
<rscale>  0 0.12500000E+03</rscale>
<asrwt>0</asrwt>
<pdfrwt beam="1">  1       21 0.60202530E-02 0.12500000E+03</pdfrwt>
<pdfrwt beam="2">  1       21 0.15357431E-01 0.12500000E+03</pdfrwt>
<totfact> 0.72176033E+06</totfact>
</mgrwt>
</event>
<event>
 3    1  0.1602107E-001  0.1250000E+03  0.7546771E-02  0.1235069E+00
         21   -1    0    0  502  501  0.00000000000E+00  0.00000000000E+00  0.64311241630E+02  0.64311241630E+02  0.00000000000E+00 0. -1.
         21   -1    0    0  501  502 -0.00000000000E+00 -0.00000000000E+00 -0.60739769611E+02  0.60739769611E+02  0.00000000000E+00 0. -1.
         25    1    1    2    0    0  0.00000000000E+00  0.00000000000E+00  0.35714720190E+01  0.12505101124E+03  0.12500000000E+03 0.  0.
<mgrwt>
<rscale>  0 0.12500000E+03</rscale>
<asrwt>0</asrwt>
<pdfrwt beam="1">  1       21 0.98940372E-02 0.12500000E+03</pdfrwt>
<pdfrwt beam="2">  1       21 0.93445800E-02 0.12500000E+03</pdfrwt>
<totfact> 0.74036691E+06</totfact>
</mgrwt>
</event>
<event>
 3    1  0.1602107E-001  0.1250000E+03  0.7546771E-02  0.1235069E+00
         21   -1    0    0  502  501  0.00000000000E+00  0.00000000000E+00  0.24815449409E+03  0.24815449409E+03  0.00000000000E+00 0. -1.
         21   -1    0    0  501  502 -0.00000000000E+00 -0.00000000000E+00 -0.15741201925E+02  0.15741201925E+02  0.00000000000E+00 0. -1.
         25    1    1    2    0    0  0.00000000000E+00  0.00000000000E+00  0.23241329217E+03  0.26389569602E+03  0.12500000000E+03 0.  0.
<mgrwt>
<rscale>  0 0.12500000E+03</rscale>
<asrwt>0</asrwt>
<pdfrwt beam="1">  1       21 0.38177612E-01 0.12500000E+03</pdfrwt>
<pdfrwt beam="2">  1       21 0.24217236E-02 0.12500000E+03</pdfrwt>
<totfact> 0.58594041E+06</totfact>
</mgrwt>
</event>
<event>
 3    1  0.1602107E-001  0.1250000E+03  0.7546771E-02  0.1235069E+00
         21   -1    0    0  502  501  0.00000000000E+00  0.00000000000E+00  0.42975088039E+03  0.42975088039E+03  0.00000000000E+00 0. -1.
         21   -1    0    0  501  502 -0.00000000000E+00 -0.00000000000E+00 -0.90895683481E+01  0.90895683481E+01  0.00000000000E+00 0. -1.
         25    1    1    2    0    0  0.00000000000E+00  0.00000000000E+00  0.42066131205E+03  0.43884044874E+03  0.12500000000E+03 0.  0.
<mgrwt>
<rscale>  0 0.12500000E+03</rscale>
<asrwt>0</asrwt>
<pdfrwt beam="1">  1       21 0.66115505E-01 0.12500000E+03</pdfrwt>
<pdfrwt beam="2">  1       21 0.13983955E-02 0.12500000E+03</pdfrwt>
<totfact> 0.45567471E+06</totfact>
</mgrwt>
</event>
<event>
 3    1  0.1602107E-001  0.1250000E+03  0.7546771E-02  0.1235069E+00
         21   -1    0    0  502  501  0.00000000000E+00  0.00000000000E+00  0.39186297476E+02  0.39186297476E+02  0.00000000000E+00 0. -1.
         21   -1    0    0  501  502 -0.00000000000E+00 -0.00000000000E+00 -0.99684079681E+02  0.99684079681E+02  0.00000000000E+00 0. -1.
         25    1    1    2    0    0  0.00000000000E+00  0.00000000000E+00 -0.60497782205E+02  0.13887037716E+03  0.12500000000E+03 0.  0.
<mgrwt>
<rscale>  0 0.12500000E+03</rscale>
<asrwt>0</asrwt>
<pdfrwt beam="1">  1       21 0.60286612E-02 0.12500000E+03</pdfrwt>
<pdfrwt beam="2">  1       21 0.15336012E-01 0.12500000E+03</pdfrwt>
<totfact> 0.72187123E+06</totfact>
</mgrwt>
</event>
<event>
 3    1  0.1602107E-001  0.1250000E+03  0.7546771E-02  0.1235069E+00
         21   -1    0    0  502  501  0.00000000000E+00  0.00000000000E+00  0.17044262981E+04  0.17044262981E+04  0.00000000000E+00 0. -1.
         21   -1    0    0  501  502 -0.00000000000E+00 -0.00000000000E+00 -0.22918268770E+01  0.22918268770E+01  0.00000000000E+00 0. -1.
         25    1    1    2    0    0  0.00000000000E+00  0.00000000000E+00  0.17021344713E+04  0.17067181250E+04  0.12500000000E+03 0.  0.
<mgrwt>
<rscale>  0 0.12500000E+03</rscale>
<asrwt>0</asrwt>
<pdfrwt beam="1">  1       21 0.26221842E+00 0.12500000E+03</pdfrwt>
<pdfrwt beam="2">  1       21 0.35259011E-03 0.12500000E+03</pdfrwt>
<totfact> 0.11186123E+06</totfact>
</mgrwt>
</event>
<event>
 3    1  0.1602107E-001  0.1250000E+03  0.7546771E-02  0.1235069E+00
         21   -1    0    0  502  501  0.00000000000E+00  0.00000000000E+00  0.94970480386E+01  0.94970480386E+01  0.00000000000E+00 0. -1.
         21   -1    0    0  501  502 -0.00000000000E+00 -0.00000000000E+00 -0.41131201865E+03  0.41131201865E+03  0.00000000000E+00 0. -1.
         25    1    1    2    0    0  0.00000000000E+00  0.00000000000E+00 -0.40181497061E+03  0.42080906669E+03  0.12500000000E+03 0.  0.
<mgrwt>
<rscale>  0 0.12500000E+03</rscale>
<asrwt>0</asrwt>
<pdfrwt beam="1">  1       21 0.14610839E-02 0.12500000E+03</pdfrwt>
<pdfrwt beam="2">  1       21 0.63278788E-01 0.12500000E+03</pdfrwt>
<totfact> 0.46691050E+06</totfact>
</mgrwt>
</event>
<event>
 3    1  0.1602107E-001  0.1250000E+03  0.7546771E-02  0.1235069E+00
         21   -1    0    0  502  501  0.00000000000E+00  0.00000000000E+00  0.73841520036E+02  0.73841520036E+02  0.00000000000E+00 0. -1.
         21   -1    0    0  501  502 -0.00000000000E+00 -0.00000000000E+00 -0.52900454895E+02  0.52900454895E+02  0.00000000000E+00 0. -1.
         25    1    1    2    0    0  0.00000000000E+00  0.00000000000E+00  0.20941065141E+02  0.12674197493E+03  0.12500000000E+03 0.  0.
<mgrwt>
<rscale>  0 0.12500000E+03</rscale>
<asrwt>0</asrwt>
<pdfrwt beam="1">  1       21 0.11360234E-01 0.12500000E+03</pdfrwt>
<pdfrwt beam="2">  1       21 0.81385315E-02 0.12500000E+03</pdfrwt>
<totfact> 0.73804305E+06</totfact>
</mgrwt>
</event>
<event>
 3    1  0.1602107E-001  0.1250000E+03  0.7546771E-02  0.1235069E+00
         21   -1    0    0  502  501  0.00000000000E+00  0.00000000000E+00  0.87355936985E+02  0.87355936985E+02  0.00000000000E+00 0.  1.
         21   -1    0    0  501  502 -0.00000000000E+00 -0.00000000000E+00 -0.44716479896E+02  0.44716479896E+02  0.00000000000E+00 0.  1.
         25    1    1    2    0    0  0.00000000000E+00  0.00000000000E+00  0.42639457089E+02  0.13207241688E+03  0.12500000000E+03 0.  0.
<mgrwt>
<rscale>  0 0.12500000E+03</rscale>
<asrwt>0</asrwt>
<pdfrwt beam="1">  1       21 0.13439375E-01 0.12500000E+03</pdfrwt>
<pdfrwt beam="2">  1       21 0.68794585E-02 0.12500000E+03</pdfrwt>
<totfact> 0.73086517E+06</totfact>
</mgrwt>
</event>
<event>
 3    1  0.1602107E-001  0.1250000E+03  0.7546771E-02  0.1235069E+00
         21   -1    0    0  502  501  0.00000000000E+00  0.00000000000E+00  0.57498269947E+01  0.57498269947E+01  0.00000000000E+00 0.  1.
         21   -1    0    0  501  502 -0.00000000000E+00 -0.00000000000E+00 -0.67936826683E+03  0.67936826683E+03  0.00000000000E+00 0.  1.
         25    1    1    2    0    0  0.00000000000E+00  0.00000000000E+00 -0.67361843984E+03  0.68511809383E+03  0.12500000000E+03 0.  0.
<mgrwt>
<rscale>  0 0.12500000E+03</rscale>
<asrwt>0</asrwt>
<pdfrwt beam="1">  1       21 0.88458862E-03 0.12500000E+03</pdfrwt>
<pdfrwt beam="2">  1       21 0.10451821E+00 0.12500000E+03</pdfrwt>
<totfact> 0.33491822E+06</totfact>
</mgrwt>
</event>
<event>
 3    1  0.1602107E-001  0.1250000E+03  0.7546771E-02  0.1235069E+00
         21   -1    0    0  502  501  0.00000000000E+00  0.00000000000E+00  0.27786486356E+03  0.27786486356E+03  0.00000000000E+00 0.  1.
         21   -1    0    0  501  502 -0.00000000000E+00 -0.00000000000E+00 -0.14058092664E+02  0.14058092664E+02  0.00000000000E+00 0.  1.
         25    1    1    2    0    0  0.00000000000E+00  0.00000000000E+00  0.26380677089E+03  0.29192295622E+03  0.12500000000E+03 0.  0.
<mgrwt>
<rscale>  0 0.12500000E+03</rscale>
<asrwt>0</asrwt>
<pdfrwt beam="1">  1       21 0.42748437E-01 0.12500000E+03</pdfrwt>
<pdfrwt beam="2">  1       21 0.21627837E-02 0.12500000E+03</pdfrwt>
<totfact> 0.56134161E+06</totfact>
</mgrwt>
</event>
<event>
 3    1  0.1602107E-001  0.1250000E+03  0.7546771E-02  0.1235069E+00
         21   -1    0    0  502  501  0.00000000000E+00  0.00000000000E+00  0.23829673479E+02  0.23829673479E+02  0.00000000000E+00 0.  1.
         21   -1    0    0  501  502 -0.00000000000E+00 -0.00000000000E+00 -0.16392377358E+03  0.16392377358E+03  0.00000000000E+00 0.  1.
         25    1    1    2    0    0  0.00000000000E+00  0.00000000000E+00 -0.14009410011E+03  0.18775344706E+03  0.12500000000E+03 0.  0.
<mgrwt>
<rscale>  0 0.12500000E+03</rscale>
<asrwt>0</asrwt>
<pdfrwt beam="1">  1       21 0.36661034E-02 0.12500000E+03</pdfrwt>
<pdfrwt beam="2">  1       21 0.25219044E-01 0.12500000E+03</pdfrwt>
<totfact> 0.66273021E+06</totfact>
</mgrwt>
</event>
<event>
 3    1  0.1602107E-001  0.1250000E+03  0.7546771E-02  0.1235069E+00
         21   -1    0    0  502  501  0.00000000000E+00  0.00000000000E+00  0.10067048299E+03  0.10067048299E+03  0.00000000000E+00 0. -1.
         21   -1    0    0  501  502 -0.00000000000E+00 -0.00000000000E+00 -0.38802336933E+02  0.38802336933E+02  0.00000000000E+00 0. -1.
         25    1    1    2    0    0  0.00000000000E+00  0.00000000000E+00  0.61868146053E+02  0.13947281992E+03  0.12500000000E+03 0.  0.
<mgrwt>
<rscale>  0 0.12500000E+03</rscale>
<asrwt>0</asrwt>
<pdfrwt beam="1">  1       21 0.15487766E-01 0.12500000E+03</pdfrwt>
<pdfrwt beam="2">  1       21 0.59695903E-02 0.12500000E+03</pdfrwt>
<totfact> 0.72108205E+06</totfact>
</mgrwt>
</event>
<event>
 3    1  0.1602107E-001  0.1250000E+03  0.7546771E-02  0.1235069E+00
         21   -1    0    0  502  501  0.00000000000E+00  0.00000000000E+00  0.52935915044E+02  0.52935915044E+02  0.00000000000E+00 0. -1.
         21   -1    0    0  501  502 -0.00000000000E+00 -0.00000000000E+00 -0.73792055861E+02  0.73792055861E+02  0.00000000000E+00 0. -1.
         25    1    1    2    0    0  0.00000000000E+00  0.00000000000E+00 -0.20856140817E+02  0.12672797091E+03  0.12500000000E+03 0.  0.
<mgrwt>
<rscale>  0 0.12500000E+03</rscale>
<asrwt>0</asrwt>
<pdfrwt beam="1">  1       21 0.81439869E-02 0.12500000E+03</pdfrwt>
<pdfrwt beam="2">  1       21 0.11352624E-01 0.12500000E+03</pdfrwt>
<totfact> 0.73806216E+06</totfact>
</mgrwt>
</event>
<event>
 3    1  0.1602107E-001  0.1250000E+03  0.7546771E-02  0.1235069E+00
         21   -1    0    0  502  501  0.00000000000E+00  0.00000000000E+00  0.47794151034E+03  0.47794151034E+03  0.00000000000E+00 0.  1.
         21   -1    0    0  501  502 -0.00000000000E+00 -0.00000000000E+00 -0.81730712136E+01  0.81730712136E+01  0.00000000000E+00 0.  1.
         25    1    1    2    0    0  0.00000000000E+00  0.00000000000E+00  0.46976843913E+03  0.48611458156E+03  0.12500000000E+03 0.  0.
<mgrwt>
<rscale>  0 0.12500000E+03</rscale>
<asrwt>0</asrwt>
<pdfrwt beam="1">  1       21 0.73529441E-01 0.12500000E+03</pdfrwt>
<pdfrwt beam="2">  1       21 0.12573959E-02 0.12500000E+03</pdfrwt>
<totfact> 0.42807267E+06</totfact>
</mgrwt>
</event>
<event>
 3    1  0.1602107E-001  0.1250000E+03  0.7546771E-02  0.1235069E+00
         21   -1    0    0  502  501  0.00000000000E+00  0.00000000000E+00  0.65015076318E+03  0.65015076318E+03  0.00000000000E+00 0.  1.
         21   -1    0    0  501  502 -0.00000000000E+00 -0.00000000000E+00 -0.60082218175E+01  0.60082218175E+01  0.00000000000E+00 0.  1.
         25    1    1    2    0    0  0.00000000000E+00  0.00000000000E+00  0.64414254136E+03  0.65615898500E+03  0.12500000000E+03 0.  0.
<mgrwt>
<rscale>  0 0.12500000E+03</rscale>
<asrwt>0</asrwt>
<pdfrwt beam="1">  1       21 0.10002314E+00 0.12500000E+03</pdfrwt>
<pdfrwt beam="2">  1       21 0.92434233E-03 0.12500000E+03</pdfrwt>
<totfact> 0.34669610E+06</totfact>
</mgrwt>
</event>
<event>
 3    1  0.1602107E-001  0.1250000E+03  0.7546771E-02  0.1235069E+00
         21   -1    0    0  502  501  0.00000000000E+00  0.00000000000E+00  0.40618251628E+01  0.40618251628E+01  0.00000000000E+00 0.  1.
         21   -1    0    0  501  502 -0.00000000000E+00 -0.00000000000E+00 -0.96169821285E+03  0.96169821285E+03  0.00000000000E+00 0.  1.
         25    1    1    2    0    0  0.00000000000E+00  0.00000000000E+00 -0.95763638768E+03  0.96576003801E+03  0.12500000000E+03 0.  0.
<mgrwt>
<rscale>  0 0.12500000E+03</rscale>
<asrwt>0</asrwt>
<pdfrwt beam="1">  1       21 0.62489570E-03 0.12500000E+03</pdfrwt>
<pdfrwt beam="2">  1       21 0.14795369E+00 0.12500000E+03</pdfrwt>
<totfact> 0.24494126E+06</totfact>
</mgrwt>
</event>
<event>
 3    1  0.1602107E-001  0.1250000E+03  0.7546771E-02  0.1235069E+00
         21   -1    0    0  502  501  0.00000000000E+00  0.00000000000E+00  0.11694770393E+03  0.11694770393E+03  0.00000000000E+00 0. -1.
         21   -1    0    0  501  502 -0.00000000000E+00 -0.00000000000E+00 -0.33401681852E+02  0.33401681852E+02  0.00000000000E+00 0. -1.
         25    1    1    2    0    0  0.00000000000E+00  0.00000000000E+00  0.83546022077E+02  0.15034938578E+03  0.12500000000E+03 0.  0.
<mgrwt>
<rscale>  0 0.12500000E+03</rscale>
<asrwt>0</asrwt>
<pdfrwt beam="1">  1       21 0.17991954E-01 0.12500000E+03</pdfrwt>
<pdfrwt beam="2">  1       21 0.51387203E-02 0.12500000E+03</pdfrwt>
<totfact> 0.70715340E+06</totfact>
</mgrwt>
</event>
<event>
 3    1  0.1602107E-001  0.1250000E+03  0.7546771E-02  0.1235069E+00
         21   -1    0    0  502  501  0.00000000000E+00  0.00000000000E+00  0.10358505033E+02  0.10358505033E+02  0.00000000000E+00 0.  1.
         21   -1    0    0  501  502 -0.00000000000E+00 -0.00000000000E+00 -0.37710557534E+03  0.37710557534E+03  0.00000000000E+00 0.  1.
         25    1    1    2    0    0  0.00000000000E+00  0.00000000000E+00 -0.36674707031E+03  0.38746408037E+03  0.12500000000E+03 0.  0.
<mgrwt>
<rscale>  0 0.12500000E+03</rscale>
<asrwt>0</asrwt>
<pdfrwt beam="1">  1       21 0.15936161E-02 0.12500000E+03</pdfrwt>
<pdfrwt beam="2">  1       21 0.58016243E-01 0.12500000E+03</pdfrwt>
<totfact> 0.48884112E+06</totfact>
</mgrwt>
</event>
<event>
 3    1  0.1602107E-001  0.1250000E+03  0.7546771E-02  0.1235069E+00
         21   -1    0    0  502  501  0.00000000000E+00  0.00000000000E+00  0.10733708640E+02  0.10733708640E+02  0.00000000000E+00 0.  1.
         21   -1    0    0  501  502 -0.00000000000E+00 -0.00000000000E+00 -0.36392361028E+03  0.36392361028E+03  0.00000000000E+00 0.  1.
         25    1    1    2    0    0  0.00000000000E+00  0.00000000000E+00 -0.35318990164E+03  0.37465731892E+03  0.12500000000E+03 0.  0.
<mgrwt>
<rscale>  0 0.12500000E+03</rscale>
<asrwt>0</asrwt>
<pdfrwt beam="1">  1       21 0.16513398E-02 0.12500000E+03</pdfrwt>
<pdfrwt beam="2">  1       21 0.55988246E-01 0.12500000E+03</pdfrwt>
<totfact> 0.49767397E+06</totfact>
</mgrwt>
</event>
<event>
 3    1  0.1602107E-001  0.1250000E+03  0.7546771E-02  0.1235069E+00
         21   -1    0    0  502  501  0.00000000000E+00  0.00000000000E+00  0.42583674606E+01  0.42583674606E+01  0.00000000000E+00 0.  1.
         21   -1    0    0  501  502 -0.00000000000E+00 -0.00000000000E+00 -0.91731163083E+03  0.91731163083E+03  0.00000000000E+00 0.  1.
         25    1    1    2    0    0  0.00000000000E+00  0.00000000000E+00 -0.91305326337E+03  0.92156999829E+03  0.12500000000E+03 0.  0.
<mgrwt>
<rscale>  0 0.12500000E+03</rscale>
<asrwt>0</asrwt>
<pdfrwt beam="1">  1       21 0.65513272E-03 0.12500000E+03</pdfrwt>
<pdfrwt beam="2">  1       21 0.14112503E+00 0.12500000E+03</pdfrwt>
<totfact> 0.25688292E+06</totfact>
</mgrwt>
</event>
<event>
 3    1  0.1602107E-001  0.1250000E+03  0.7546771E-02  0.1235069E+00
         21   -1    0    0  502  501  0.00000000000E+00  0.00000000000E+00  0.63058717306E+02  0.63058717306E+02  0.00000000000E+00 0.  1.
         21   -1    0    0  501  502 -0.00000000000E+00 -0.00000000000E+00 -0.61946233081E+02  0.61946233081E+02  0.00000000000E+00 0.  1.
         25    1    1    2    0    0  0.00000000000E+00  0.00000000000E+00  0.11124842252E+01  0.12500495039E+03  0.12500000000E+03 0.  0.
<mgrwt>
<rscale>  0 0.12500000E+03</rscale>
<asrwt>0</asrwt>
<pdfrwt beam="1">  1       21 0.97013412E-02 0.12500000E+03</pdfrwt>
<pdfrwt beam="2">  1       21 0.95301897E-02 0.12500000E+03</pdfrwt>
<totfact> 0.74042913E+06</totfact>
</mgrwt>
</event>
<event>
 3    1  0.1602107E-001  0.1250000E+03  0.7546771E-02  0.1235069E+00
         21   -1    0    0  502  501  0.00000000000E+00  0.00000000000E+00  0.18859583808E+03  0.18859583808E+03  0.00000000000E+00 0.  1.
         21   -1    0    0  501  502 -0.00000000000E+00 -0.00000000000E+00 -0.20712281033E+02  0.20712281033E+02  0.00000000000E+00 0.  1.
         25    1    1    2    0    0  0.00000000000E+00  0.00000000000E+00  0.16788355704E+03  0.20930811911E+03  0.12500000000E+03 0.  0.
<mgrwt>
<rscale>  0 0.12500000E+03</rscale>
<asrwt>0</asrwt>
<pdfrwt beam="1">  1       21 0.29014743E-01 0.12500000E+03</pdfrwt>
<pdfrwt beam="2">  1       21 0.31865049E-02 0.12500000E+03</pdfrwt>
<totfact> 0.63932403E+06</totfact>
</mgrwt>
</event>
<event>
 3    1  0.1602107E-001  0.1250000E+03  0.7546771E-02  0.1235069E+00
         21   -1    0    0  502  501  0.00000000000E+00  0.00000000000E+00  0.17427602049E+02  0.17427602049E+02  0.00000000000E+00 0. -1.
         21   -1    0    0  501  502 -0.00000000000E+00 -0.00000000000E+00 -0.22414156515E+03  0.22414156515E+03  0.00000000000E+00 0. -1.
         25    1    1    2    0    0  0.00000000000E+00  0.00000000000E+00 -0.20671396310E+03  0.24156916720E+03  0.12500000000E+03 0.  0.
<mgrwt>
<rscale>  0 0.12500000E+03</rscale>
<asrwt>0</asrwt>
<pdfrwt beam="1">  1       21 0.26811697E-02 0.12500000E+03</pdfrwt>
<pdfrwt beam="2">  1       21 0.34483316E-01 0.12500000E+03</pdfrwt>
<totfact> 0.60681148E+06</totfact>
</mgrwt>
</event>
<event>
 3    1  0.1602107E-001  0.1250000E+03  0.7546771E-02  0.1235069E+00
         21   -1    0    0  502  501  0.00000000000E+00  0.00000000000E+00  0.33967998326E+02  0.33967998326E+02  0.00000000000E+00 0. -1.
         21   -1    0    0  501  502 -0.00000000000E+00 -0.00000000000E+00 -0.11499794490E+03  0.11499794490E+03  0.00000000000E+00 0. -1.
         25    1    1    2    0    0  0.00000000000E+00  0.00000000000E+00 -0.81029946578E+02  0.14896594323E+03  0.12500000000E+03 0.  0.
<mgrwt>
<rscale>  0 0.12500000E+03</rscale>
<asrwt>0</asrwt>
<pdfrwt beam="1">  1       21 0.52258459E-02 0.12500000E+03</pdfrwt>
<pdfrwt beam="2">  1       21 0.17691992E-01 0.12500000E+03</pdfrwt>
<totfact> 0.70889340E+06</totfact>
</mgrwt>
</event>
<event>
 3    1  0.1602107E-001  0.1250000E+03  0.7546771E-02  0.1235069E+00
         21   -1    0    0  502  501  0.00000000000E+00  0.00000000000E+00  0.36119639370E+02  0.36119639370E+02  0.00000000000E+00 0.  1.
         21   -1    0    0  501  502 -0.00000000000E+00 -0.00000000000E+00 -0.10814753603E+03  0.10814753603E+03  0.00000000000E+00 0.  1.
         25    1    1    2    0    0  0.00000000000E+00  0.00000000000E+00 -0.72027896657E+02  0.14426717540E+03  0.12500000000E+03 0.  0.
<mgrwt>
<rscale>  0 0.12500000E+03</rscale>
<asrwt>0</asrwt>
<pdfrwt beam="1">  1       21 0.55568676E-02 0.12500000E+03</pdfrwt>
<pdfrwt beam="2">  1       21 0.16638082E-01 0.12500000E+03</pdfrwt>
<totfact> 0.71487014E+06</totfact>
</mgrwt>
</event>
<event>
 3    1  0.1602107E-001  0.1250000E+03  0.7546771E-02  0.1235069E+00
         21   -1    0    0  502  501  0.00000000000E+00  0.00000000000E+00  0.49891071903E+02  0.49891071903E+02  0.00000000000E+00 0. -1.
         21   -1    0    0  501  502 -0.00000000000E+00 -0.00000000000E+00 -0.78295571753E+02  0.78295571753E+02  0.00000000000E+00 0. -1.
         25    1    1    2    0    0  0.00000000000E+00  0.00000000000E+00 -0.28404499850E+02  0.12818664366E+03  0.12500000000E+03 0.  0.
<mgrwt>
<rscale>  0 0.12500000E+03</rscale>
<asrwt>0</asrwt>
<pdfrwt beam="1">  1       21 0.76755495E-02 0.12500000E+03</pdfrwt>
<pdfrwt beam="2">  1       21 0.12045473E-01 0.12500000E+03</pdfrwt>
<totfact> 0.73608361E+06</totfact>
</mgrwt>
</event>
<event>
 3    1  0.1602107E-001  0.1250000E+03  0.7546771E-02  0.1235069E+00
         21   -1    0    0  502  501  0.00000000000E+00  0.00000000000E+00  0.13228022323E+03  0.13228022323E+03  0.00000000000E+00 0.  1.
         21   -1    0    0  501  502 -0.00000000000E+00 -0.00000000000E+00 -0.29530113456E+02  0.29530113456E+02  0.00000000000E+00 0.  1.
         25    1    1    2    0    0  0.00000000000E+00  0.00000000000E+00  0.10275010978E+03  0.16181033669E+03  0.12500000000E+03 0.  0.
<mgrwt>
<rscale>  0 0.12500000E+03</rscale>
<asrwt>0</asrwt>
<pdfrwt beam="1">  1       21 0.20350803E-01 0.12500000E+03</pdfrwt>
<pdfrwt beam="2">  1       21 0.45430944E-02 0.12500000E+03</pdfrwt>
<totfact> 0.69298966E+06</totfact>
</mgrwt>
</event>
<event>
 3    1  0.1602107E-001  0.1250000E+03  0.7546771E-02  0.1235069E+00
         21   -1    0    0  502  501  0.00000000000E+00  0.00000000000E+00  0.20402319835E+02  0.20402319835E+02  0.00000000000E+00 0.  1.
         21   -1    0    0  501  502 -0.00000000000E+00 -0.00000000000E+00 -0.19146107068E+03  0.19146107068E+03  0.00000000000E+00 0.  1.
         25    1    1    2    0    0  0.00000000000E+00  0.00000000000E+00 -0.17105875085E+03  0.21186339052E+03  0.12500000000E+03 0.  0.
<mgrwt>
<rscale>  0 0.12500000E+03</rscale>
<asrwt>0</asrwt>
<pdfrwt beam="1">  1       21 0.31388184E-02 0.12500000E+03</pdfrwt>
<pdfrwt beam="2">  1       21 0.29455550E-01 0.12500000E+03</pdfrwt>
<totfact> 0.63664017E+06</totfact>
</mgrwt>
</event>
<event>
 3    1  0.1602107E-001  0.1250000E+03  0.7546771E-02  0.1235069E+00
         21   -1    0    0  502  501  0.00000000000E+00  0.00000000000E+00  0.11479742257E+03  0.11479742257E+03  0.00000000000E+00 0.  1.
         21   -1    0    0  501  502 -0.00000000000E+00 -0.00000000000E+00 -0.34027331908E+02  0.34027331908E+02  0.00000000000E+00 0.  1.
         25    1    1    2    0    0  0.00000000000E+00  0.00000000000E+00  0.80770090663E+02  0.14882475448E+03  0.12500000000E+03 0.  0.
<mgrwt>
<rscale>  0 0.12500000E+03</rscale>
<asrwt>0</asrwt>
<pdfrwt beam="1">  1       21 0.17661142E-01 0.12500000E+03</pdfrwt>
<pdfrwt beam="2">  1       21 0.52349742E-02 0.12500000E+03</pdfrwt>
<totfact> 0.70907147E+06</totfact>
</mgrwt>
</event>
<event>
 3    1  0.1602107E-001  0.1250000E+03  0.7546771E-02  0.1235069E+00
         21   -1    0    0  502  501  0.00000000000E+00  0.00000000000E+00  0.11546955824E+03  0.11546955824E+03  0.00000000000E+00 0.  1.
         21   -1    0    0  501  502 -0.00000000000E+00 -0.00000000000E+00 -0.33829262530E+02  0.33829262530E+02  0.00000000000E+00 0.  1.
         25    1    1    2    0    0  0.00000000000E+00  0.00000000000E+00  0.81640295714E+02  0.14929882077E+03  0.12500000000E+03 0.  0.
<mgrwt>
<rscale>  0 0.12500000E+03</rscale>
<asrwt>0</asrwt>
<pdfrwt beam="1">  1       21 0.17764547E-01 0.12500000E+03</pdfrwt>
<pdfrwt beam="2">  1       21 0.52045020E-02 0.12500000E+03</pdfrwt>
<totfact> 0.70847393E+06</totfact>
</mgrwt>
</event>
<event>
 3    1  0.1602107E-001  0.1250000E+03  0.7546771E-02  0.1235069E+00
         21   -1    0    0  502  501  0.00000000000E+00  0.00000000000E+00  0.20994218736E+03  0.20994218736E+03  0.00000000000E+00 0.  1.
         21   -1    0    0  501  502 -0.00000000000E+00 -0.00000000000E+00 -0.18606312762E+02  0.18606312762E+02  0.00000000000E+00 0.  1.
         25    1    1    2    0    0  0.00000000000E+00  0.00000000000E+00  0.19133587460E+03  0.22854850012E+03  0.12500000000E+03 0.  0.
<mgrwt>
<rscale>  0 0.12500000E+03</rscale>
<asrwt>0</asrwt>
<pdfrwt beam="1">  1       21 0.32298796E-01 0.12500000E+03</pdfrwt>
<pdfrwt beam="2">  1       21 0.28625098E-02 0.12500000E+03</pdfrwt>
<totfact> 0.61958727E+06</totfact>
</mgrwt>
</event>
<event>
 3    1  0.1602107E-001  0.1250000E+03  0.7546771E-02  0.1235069E+00
         21   -1    0    0  502  501  0.00000000000E+00  0.00000000000E+00  0.32003364259E+02  0.32003364259E+02  0.00000000000E+00 0.  1.
         21   -1    0    0  501  502 -0.00000000000E+00 -0.00000000000E+00 -0.12205748022E+03  0.12205748022E+03  0.00000000000E+00 0.  1.
         25    1    1    2    0    0  0.00000000000E+00  0.00000000000E+00 -0.90054115963E+02  0.15406084448E+03  0.12500000000E+03 0.  0.
<mgrwt>
<rscale>  0 0.12500000E+03</rscale>
<asrwt>0</asrwt>
<pdfrwt beam="1">  1       21 0.49235945E-02 0.12500000E+03</pdfrwt>
<pdfrwt beam="2">  1       21 0.18778074E-01 0.12500000E+03</pdfrwt>
<totfact> 0.70252572E+06</totfact>
</mgrwt>
</event>
<event>
 3    1  0.1602107E-001  0.1250000E+03  0.7546771E-02  0.1235069E+00
         21   -1    0    0  502  501  0.00000000000E+00  0.00000000000E+00  0.53447081541E+01  0.53447081541E+01  0.00000000000E+00 0. -1.
         21   -1    0    0  501  502 -0.00000000000E+00 -0.00000000000E+00 -0.73086310560E+03  0.73086310560E+03  0.00000000000E+00 0. -1.
         25    1    1    2    0    0  0.00000000000E+00  0.00000000000E+00 -0.72551839744E+03  0.73620781375E+03  0.12500000000E+03 0.  0.
<mgrwt>
<rscale>  0 0.12500000E+03</rscale>
<asrwt>0</asrwt>
<pdfrwt beam="1">  1       21 0.82226297E-03 0.12500000E+03</pdfrwt>
<pdfrwt beam="2">  1       21 0.11244045E+00 0.12500000E+03</pdfrwt>
<totfact> 0.31560009E+06</totfact>
</mgrwt>
</event>
<event>
 3    1  0.1602107E-001  0.1250000E+03  0.7546771E-02  0.1235069E+00
         21   -1    0    0  502  501  0.00000000000E+00  0.00000000000E+00  0.64200301796E+02  0.64200301796E+02  0.00000000000E+00 0.  1.
         21   -1    0    0  501  502 -0.00000000000E+00 -0.00000000000E+00 -0.60844729553E+02  0.60844729553E+02  0.00000000000E+00 0.  1.
         25    1    1    2    0    0  0.00000000000E+00  0.00000000000E+00  0.33555722424E+01  0.12504503135E+03  0.12500000000E+03 0.  0.
<mgrwt>
<rscale>  0 0.12500000E+03</rscale>
<asrwt>0</asrwt>
<pdfrwt beam="1">  1       21 0.98769695E-02 0.12500000E+03</pdfrwt>
<pdfrwt beam="2">  1       21 0.93607277E-02 0.12500000E+03</pdfrwt>
<totfact> 0.74037499E+06</totfact>
</mgrwt>
</event>
<event>
 3    1  0.1602107E-001  0.1250000E+03  0.7546771E-02  0.1235069E+00
         21   -1    0    0  502  501  0.00000000000E+00  0.00000000000E+00  0.62624313453E+02  0.62624313453E+02  0.00000000000E+00 0.  1.
         21   -1    0    0  501  502 -0.00000000000E+00 -0.00000000000E+00 -0.62375933318E+02  0.62375933318E+02  0.00000000000E+00 0.  1.
         25    1    1    2    0    0  0.00000000000E+00  0.00000000000E+00  0.24838013471E+00  0.12500024677E+03  0.12500000000E+03 0.  0.
<mgrwt>
<rscale>  0 0.12500000E+03</rscale>
<asrwt>0</asrwt>
<pdfrwt beam="1">  1       21 0.96345097E-02 0.12500000E+03</pdfrwt>
<pdfrwt beam="2">  1       21 0.95962975E-02 0.12500000E+03</pdfrwt>
<totfact> 0.74043548E+06</totfact>
</mgrwt>
</event>
<event>
 3    1  0.1602107E-001  0.1250000E+03  0.7546771E-02  0.1235069E+00
         21   -1    0    0  502  501  0.00000000000E+00  0.00000000000E+00  0.28324849499E+02  0.28324849499E+02  0.00000000000E+00 0. -1.
         21   -1    0    0  501  502 -0.00000000000E+00 -0.00000000000E+00 -0.13790894106E+03  0.13790894106E+03  0.00000000000E+00 0. -1.
         25    1    1    2    0    0  0.00000000000E+00  0.00000000000E+00 -0.10958409156E+03  0.16623379055E+03  0.12500000000E+03 0.  0.
<mgrwt>
<rscale>  0 0.12500000E+03</rscale>
<asrwt>0</asrwt>
<pdfrwt beam="1">  1       21 0.43576692E-02 0.12500000E+03</pdfrwt>
<pdfrwt beam="2">  1       21 0.21216760E-01 0.12500000E+03</pdfrwt>
<totfact> 0.68765703E+06</totfact>
</mgrwt>
</event>
<event>
 3    1  0.1602107E-001  0.1250000E+03  0.7546771E-02  0.1235069E+00
         21   -1    0    0  502  501  0.00000000000E+00  0.00000000000E+00  0.27997742396E+02  0.27997742396E+02  0.00000000000E+00 0.  1.
         21   -1    0    0  501  502 -0.00000000000E+00 -0.00000000000E+00 -0.13952017791E+03  0.13952017791E+03  0.00000000000E+00 0.  1.
         25    1    1    2    0    0  0.00000000000E+00  0.00000000000E+00 -0.11152243551E+03  0.16751792030E+03  0.12500000000E+03 0.  0.
<mgrwt>
<rscale>  0 0.12500000E+03</rscale>
<asrwt>0</asrwt>
<pdfrwt beam="1">  1       21 0.43073450E-02 0.12500000E+03</pdfrwt>
<pdfrwt beam="2">  1       21 0.21464643E-01 0.12500000E+03</pdfrwt>
<totfact> 0.68612356E+06</totfact>
</mgrwt>
</event>
<event>
 3    1  0.1602107E-001  0.1250000E+03  0.7546771E-02  0.1235069E+00
         21   -1    0    0  502  501  0.00000000000E+00  0.00000000000E+00  0.14820089886E+03  0.14820089886E+03  0.00000000000E+00 0. -1.
         21   -1    0    0  501  502 -0.00000000000E+00 -0.00000000000E+00 -0.26357802348E+02  0.26357802348E+02  0.00000000000E+00 0. -1.
         25    1    1    2    0    0  0.00000000000E+00  0.00000000000E+00  0.12184309652E+03  0.17455870121E+03  0.12500000000E+03 0.  0.
<mgrwt>
<rscale>  0 0.12500000E+03</rscale>
<asrwt>0</asrwt>
<pdfrwt beam="1">  1       21 0.22800138E-01 0.12500000E+03</pdfrwt>
<pdfrwt beam="2">  1       21 0.40550466E-02 0.12500000E+03</pdfrwt>
<totfact> 0.67781294E+06</totfact>
</mgrwt>
</event>
<event>
 3    1  0.1602107E-001  0.1250000E+03  0.7546771E-02  0.1235069E+00
         21   -1    0    0  502  501  0.00000000000E+00  0.00000000000E+00  0.60299674969E+02  0.60299674969E+02  0.00000000000E+00 0.  1.
         21   -1    0    0  501  502 -0.00000000000E+00 -0.00000000000E+00 -0.64780614523E+02  0.64780614523E+02  0.00000000000E+00 0.  1.
         25    1    1    2    0    0  0.00000000000E+00  0.00000000000E+00 -0.44809395543E+01  0.12508028949E+03  0.12500000000E+03 0.  0.
<mgrwt>
<rscale>  0 0.12500000E+03</rscale>
<asrwt>0</asrwt>
<pdfrwt beam="1">  1       21 0.92768731E-02 0.12500000E+03</pdfrwt>
<pdfrwt beam="2">  1       21 0.99662484E-02 0.12500000E+03</pdfrwt>
<totfact> 0.74032737E+06</totfact>
</mgrwt>
</event>
<event>
 3    1  0.1602107E-001  0.1250000E+03  0.7546771E-02  0.1235069E+00
         21   -1    0    0  502  501  0.00000000000E+00  0.00000000000E+00  0.11053936933E+03  0.11053936933E+03  0.00000000000E+00 0.  1.
         21   -1    0    0  501  502 -0.00000000000E+00 -0.00000000000E+00 -0.35338088355E+02  0.35338088355E+02  0.00000000000E+00 0.  1.
         25    1    1    2    0    0  0.00000000000E+00  0.00000000000E+00  0.75201280974E+02  0.14587745768E+03  0.12500000000E+03 0.  0.
<mgrwt>
<rscale>  0 0.12500000E+03</rscale>
<asrwt>0</asrwt>
<pdfrwt beam="1">  1       21 0.17006057E-01 0.12500000E+03</pdfrwt>
<pdfrwt beam="2">  1       21 0.54366290E-02 0.12500000E+03</pdfrwt>
<totfact> 0.71280995E+06</totfact>
</mgrwt>
</event>
<event>
 3    1  0.1602107E-001  0.1250000E+03  0.7546771E-02  0.1235069E+00
         21   -1    0    0  502  501  0.00000000000E+00  0.00000000000E+00  0.13616725416E+02  0.13616725416E+02  0.00000000000E+00 0.  1.
         21   -1    0    0  501  502 -0.00000000000E+00 -0.00000000000E+00 -0.28687146730E+03  0.28687146730E+03  0.00000000000E+00 0.  1.
         25    1    1    2    0    0  0.00000000000E+00  0.00000000000E+00 -0.27325474189E+03  0.30048819272E+03  0.12500000000E+03 0.  0.
<mgrwt>
<rscale>  0 0.12500000E+03</rscale>
<asrwt>0</asrwt>
<pdfrwt beam="1">  1       21 0.20948807E-02 0.12500000E+03</pdfrwt>
<pdfrwt beam="2">  1       21 0.44134075E-01 0.12500000E+03</pdfrwt>
<totfact> 0.55415625E+06</totfact>
</mgrwt>
</event>
<event>
 3    1  0.1602107E-001  0.1250000E+03  0.7546771E-02  0.1235069E+00
         21   -1    0    0  502  501  0.00000000000E+00  0.00000000000E+00  0.13564712773E+02  0.13564712773E+02  0.00000000000E+00 0.  1.
         21   -1    0    0  501  502 -0.00000000000E+00 -0.00000000000E+00 -0.28797144955E+03  0.28797144955E+03  0.00000000000E+00 0.  1.
         25    1    1    2    0    0  0.00000000000E+00  0.00000000000E+00 -0.27440673678E+03  0.30153616233E+03  0.12500000000E+03 0.  0.
<mgrwt>
<rscale>  0 0.12500000E+03</rscale>
<asrwt>0</asrwt>
<pdfrwt beam="1">  1       21 0.20868788E-02 0.12500000E+03</pdfrwt>
<pdfrwt beam="2">  1       21 0.44303301E-01 0.12500000E+03</pdfrwt>
<totfact> 0.55328753E+06</totfact>
</mgrwt>
</event>
<event>
 3    1  0.1602107E-001  0.1250000E+03  0.7546771E-02  0.1235069E+00
         21   -1    0    0  502  501  0.00000000000E+00  0.00000000000E+00  0.64171484015E+01  0.64171484015E+01  0.00000000000E+00 0.  1.
         21   -1    0    0  501  502 -0.00000000000E+00 -0.00000000000E+00 -0.60872053373E+03  0.60872053373E+03  0.00000000000E+00 0.  1.
         25    1    1    2    0    0  0.00000000000E+00  0.00000000000E+00 -0.60230338533E+03  0.61513768214E+03  0.12500000000E+03 0.  0.
<mgrwt>
<rscale>  0 0.12500000E+03</rscale>
<asrwt>0</asrwt>
<pdfrwt beam="1">  1       21 0.98725336E-03 0.12500000E+03</pdfrwt>
<pdfrwt beam="2">  1       21 0.93649336E-01 0.12500000E+03</pdfrwt>
<totfact> 0.36416869E+06</totfact>
</mgrwt>
</event>
<event>
 3    1  0.1602107E-001  0.1250000E+03  0.7546771E-02  0.1235069E+00
         21   -1    0    0  502  501  0.00000000000E+00  0.00000000000E+00  0.20484393738E+02  0.20484393738E+02  0.00000000000E+00 0.  1.
         21   -1    0    0  501  502 -0.00000000000E+00 -0.00000000000E+00 -0.19069395218E+03  0.19069395218E+03  0.00000000000E+00 0.  1.
         25    1    1    2    0    0  0.00000000000E+00  0.00000000000E+00 -0.17020955844E+03  0.21117834592E+03  0.12500000000E+03 0.  0.
<mgrwt>
<rscale>  0 0.12500000E+03</rscale>
<asrwt>0</asrwt>
<pdfrwt beam="1">  1       21 0.31514452E-02 0.12500000E+03</pdfrwt>
<pdfrwt beam="2">  1       21 0.29337531E-01 0.12500000E+03</pdfrwt>
<totfact> 0.63735773E+06</totfact>
</mgrwt>
</event>
<event>
 3    1  0.1602107E-001  0.1250000E+03  0.7546771E-02  0.1235069E+00
         21   -1    0    0  502  501  0.00000000000E+00  0.00000000000E+00  0.10827064674E+04  0.10827064674E+04  0.00000000000E+00 0.  1.
         21   -1    0    0  501  502 -0.00000000000E+00 -0.00000000000E+00 -0.36078569009E+01  0.36078569009E+01  0.00000000000E+00 0.  1.
         25    1    1    2    0    0  0.00000000000E+00  0.00000000000E+00  0.10790986105E+04  0.10863143243E+04  0.12500000000E+03 0.  0.
<mgrwt>
<rscale>  0 0.12500000E+03</rscale>
<asrwt>0</asrwt>
<pdfrwt beam="1">  1       21 0.16656997E+00 0.12500000E+03</pdfrwt>
<pdfrwt beam="2">  1       21 0.55505577E-03 0.12500000E+03</pdfrwt>
<totfact> 0.21558404E+06</totfact>
</mgrwt>
</event>
<event>
 3    1  0.1602107E-001  0.1250000E+03  0.7546771E-02  0.1235069E+00
         21   -1    0    0  502  501  0.00000000000E+00  0.00000000000E+00  0.23107015815E+02  0.23107015815E+02  0.00000000000E+00 0.  1.
         21   -1    0    0  501  502 -0.00000000000E+00 -0.00000000000E+00 -0.16905038847E+03  0.16905038847E+03  0.00000000000E+00 0.  1.
         25    1    1    2    0    0  0.00000000000E+00  0.00000000000E+00 -0.14594337266E+03  0.19215740429E+03  0.12500000000E+03 0.  0.
<mgrwt>
<rscale>  0 0.12500000E+03</rscale>
<asrwt>0</asrwt>
<pdfrwt beam="1">  1       21 0.35549255E-02 0.12500000E+03</pdfrwt>
<pdfrwt beam="2">  1       21 0.26007752E-01 0.12500000E+03</pdfrwt>
<totfact> 0.65783488E+06</totfact>
</mgrwt>
</event>
<event>
 3    1  0.1602107E-001  0.1250000E+03  0.7546771E-02  0.1235069E+00
         21   -1    0    0  502  501  0.00000000000E+00  0.00000000000E+00  0.58639430435E+03  0.58639430435E+03  0.00000000000E+00 0. -1.
         21   -1    0    0  501  502 -0.00000000000E+00 -0.00000000000E+00 -0.66614732971E+01  0.66614732971E+01  0.00000000000E+00 0. -1.
         25    1    1    2    0    0  0.00000000000E+00  0.00000000000E+00  0.57973283105E+03  0.59305577765E+03  0.12500000000E+03 0.  0.
<mgrwt>
<rscale>  0 0.12500000E+03</rscale>
<asrwt>0</asrwt>
<pdfrwt beam="1">  1       21 0.90214468E-01 0.12500000E+03</pdfrwt>
<pdfrwt beam="2">  1       21 0.10248425E-02 0.12500000E+03</pdfrwt>
<totfact> 0.37408581E+06</totfact>
</mgrwt>
</event>
<event>
 3    1  0.1602107E-001  0.1250000E+03  0.7546771E-02  0.1235069E+00
         21   -1    0    0  502  501  0.00000000000E+00  0.00000000000E+00  0.52663798973E+03  0.52663798973E+03  0.00000000000E+00 0. -1.
         21   -1    0    0  501  502 -0.00000000000E+00 -0.00000000000E+00 -0.74173342526E+01  0.74173342526E+01  0.00000000000E+00 0. -1.
         25    1    1    2    0    0  0.00000000000E+00  0.00000000000E+00  0.51922065548E+03  0.53405532399E+03  0.12500000000E+03 0.  0.
<mgrwt>
<rscale>  0 0.12500000E+03</rscale>
<asrwt>0</asrwt>
<pdfrwt beam="1">  1       21 0.81021200E-01 0.12500000E+03</pdfrwt>
<pdfrwt beam="2">  1       21 0.11411288E-02 0.12500000E+03</pdfrwt>
<totfact> 0.40255425E+06</totfact>
</mgrwt>
</event>
<event>
 3    1  0.1602107E-001  0.1250000E+03  0.7546771E-02  0.1235069E+00
         21   -1    0    0  502  501  0.00000000000E+00  0.00000000000E+00  0.16790684410E+02  0.16790684410E+02  0.00000000000E+00 0.  1.
         21   -1    0    0  501  502 -0.00000000000E+00 -0.00000000000E+00 -0.23264388185E+03  0.23264388185E+03  0.00000000000E+00 0.  1.
         25    1    1    2    0    0  0.00000000000E+00  0.00000000000E+00 -0.21585319744E+03  0.24943456626E+03  0.12500000000E+03 0.  0.
<mgrwt>
<rscale>  0 0.12500000E+03</rscale>
<asrwt>0</asrwt>
<pdfrwt beam="1">  1       21 0.25831823E-02 0.12500000E+03</pdfrwt>
<pdfrwt beam="2">  1       21 0.35791366E-01 0.12500000E+03</pdfrwt>
<totfact> 0.59931465E+06</totfact>
</mgrwt>
</event>
<event>
 3    1  0.1602107E-001  0.1250000E+03  0.7546771E-02  0.1235069E+00
         21   -1    0    0  502  501  0.00000000000E+00  0.00000000000E+00  0.98842580128E+02  0.98842580128E+02  0.00000000000E+00 0.  1.
         21   -1    0    0  501  502 -0.00000000000E+00 -0.00000000000E+00 -0.39519911307E+02  0.39519911307E+02  0.00000000000E+00 0.  1.
         25    1    1    2    0    0  0.00000000000E+00  0.00000000000E+00  0.59322668821E+02  0.13836249143E+03  0.12500000000E+03 0.  0.
<mgrwt>
<rscale>  0 0.12500000E+03</rscale>
<asrwt>0</asrwt>
<pdfrwt beam="1">  1       21 0.15206551E-01 0.12500000E+03</pdfrwt>
<pdfrwt beam="2">  1       21 0.60799864E-02 0.12500000E+03</pdfrwt>
<totfact> 0.72253809E+06</totfact>
</mgrwt>
</event>
<event>
 3    1  0.1602107E-001  0.1250000E+03  0.7546771E-02  0.1235069E+00
         21   -1    0    0  502  501  0.00000000000E+00  0.00000000000E+00  0.15866499471E+03  0.15866499471E+03  0.00000000000E+00 0. -1.
         21   -1    0    0  501  502 -0.00000000000E+00 -0.00000000000E+00 -0.24619482118E+02  0.24619482118E+02  0.00000000000E+00 0. -1.
         25    1    1    2    0    0  0.00000000000E+00  0.00000000000E+00  0.13404551259E+03  0.18328447683E+03  0.12500000000E+03 0.  0.
<mgrwt>
<rscale>  0 0.12500000E+03</rscale>
<asrwt>0</asrwt>
<pdfrwt beam="1">  1       21 0.24409999E-01 0.12500000E+03</pdfrwt>
<pdfrwt beam="2">  1       21 0.37876127E-02 0.12500000E+03</pdfrwt>
<totfact> 0.66776735E+06</totfact>
</mgrwt>
</event>
<event>
 3    1  0.1602107E-001  0.1250000E+03  0.7546771E-02  0.1235069E+00
         21   -1    0    0  502  501  0.00000000000E+00  0.00000000000E+00  0.34929796216E+02  0.34929796216E+02  0.00000000000E+00 0. -1.
         21   -1    0    0  501  502 -0.00000000000E+00 -0.00000000000E+00 -0.11183145690E+03  0.11183145690E+03  0.00000000000E+00 0. -1.
         25    1    1    2    0    0  0.00000000000E+00  0.00000000000E+00 -0.76901660684E+02  0.14676125312E+03  0.12500000000E+03 0.  0.
<mgrwt>
<rscale>  0 0.12500000E+03</rscale>
<asrwt>0</asrwt>
<pdfrwt beam="1">  1       21 0.53738148E-02 0.12500000E+03</pdfrwt>
<pdfrwt beam="2">  1       21 0.17204839E-01 0.12500000E+03</pdfrwt>
<totfact> 0.71168458E+06</totfact>
</mgrwt>
</event>
<event>
 3    1  0.1602107E-001  0.1250000E+03  0.7546771E-02  0.1235069E+00
         21   -1    0    0  502  501  0.00000000000E+00  0.00000000000E+00  0.22761697458E+02  0.22761697458E+02  0.00000000000E+00 0.  1.
         21   -1    0    0  501  502 -0.00000000000E+00 -0.00000000000E+00 -0.17161505670E+03  0.17161505670E+03  0.00000000000E+00 0.  1.
         25    1    1    2    0    0  0.00000000000E+00  0.00000000000E+00 -0.14885335924E+03  0.19437675416E+03  0.12500000000E+03 0.  0.
<mgrwt>
<rscale>  0 0.12500000E+03</rscale>
<asrwt>0</asrwt>
<pdfrwt beam="1">  1       21 0.35017996E-02 0.12500000E+03</pdfrwt>
<pdfrwt beam="2">  1       21 0.26402317E-01 0.12500000E+03</pdfrwt>
<totfact> 0.65539299E+06</totfact>
</mgrwt>
</event>
<event>
 3    1  0.1602107E-001  0.1250000E+03  0.7546771E-02  0.1235069E+00
         21   -1    0    0  502  501  0.00000000000E+00  0.00000000000E+00  0.31005153388E+02  0.31005153388E+02  0.00000000000E+00 0. -1.
         21   -1    0    0  501  502 -0.00000000000E+00 -0.00000000000E+00 -0.12598712063E+03  0.12598712063E+03  0.00000000000E+00 0. -1.
         25    1    1    2    0    0  0.00000000000E+00  0.00000000000E+00 -0.94981967242E+02  0.15699227402E+03  0.12500000000E+03 0.  0.
<mgrwt>
<rscale>  0 0.12500000E+03</rscale>
<asrwt>0</asrwt>
<pdfrwt beam="1">  1       21 0.47700237E-02 0.12500000E+03</pdfrwt>
<pdfrwt beam="2">  1       21 0.19382634E-01 0.12500000E+03</pdfrwt>
<totfact> 0.69888887E+06</totfact>
</mgrwt>
</event>
<event>
 3    1  0.1602107E-001  0.1250000E+03  0.7546771E-02  0.1235069E+00
         21   -1    0    0  502  501  0.00000000000E+00  0.00000000000E+00  0.11957632422E+03  0.11957632422E+03  0.00000000000E+00 0.  1.
         21   -1    0    0  501  502 -0.00000000000E+00 -0.00000000000E+00 -0.32667419956E+02  0.32667419956E+02  0.00000000000E+00 0.  1.
         25    1    1    2    0    0  0.00000000000E+00  0.00000000000E+00  0.86908904260E+02  0.15224374417E+03  0.12500000000E+03 0.  0.
<mgrwt>
<rscale>  0 0.12500000E+03</rscale>
<asrwt>0</asrwt>
<pdfrwt beam="1">  1       21 0.18396357E-01 0.12500000E+03</pdfrwt>
<pdfrwt beam="2">  1       21 0.50257570E-02 0.12500000E+03</pdfrwt>
<totfact> 0.70478471E+06</totfact>
</mgrwt>
</event>
<event>
 3    1  0.1602107E-001  0.1250000E+03  0.7546771E-02  0.1235069E+00
         21   -1    0    0  502  501  0.00000000000E+00  0.00000000000E+00  0.54524118720E+03  0.54524118720E+03  0.00000000000E+00 0. -1.
         21   -1    0    0  501  502 -0.00000000000E+00 -0.00000000000E+00 -0.71642606827E+01  0.71642606827E+01  0.00000000000E+00 0. -1.
         25    1    1    2    0    0  0.00000000000E+00  0.00000000000E+00  0.53807692651E+03  0.55240544788E+03  0.12500000000E+03 0.  0.
<mgrwt>
<rscale>  0 0.12500000E+03</rscale>
<asrwt>0</asrwt>
<pdfrwt beam="1">  1       21 0.83883227E-01 0.12500000E+03</pdfrwt>
<pdfrwt beam="2">  1       21 0.11021944E-02 0.12500000E+03</pdfrwt>
<totfact> 0.39337488E+06</totfact>
</mgrwt>
</event>
<event>
 3    1  0.1602107E-001  0.1250000E+03  0.7546771E-02  0.1235069E+00
         21   -1    0    0  502  501  0.00000000000E+00  0.00000000000E+00  0.60244978766E+02  0.60244978766E+02  0.00000000000E+00 0.  1.
         21   -1    0    0  501  502 -0.00000000000E+00 -0.00000000000E+00 -0.64839428613E+02  0.64839428613E+02  0.00000000000E+00 0.  1.
         25    1    1    2    0    0  0.00000000000E+00  0.00000000000E+00 -0.45944498475E+01  0.12508440738E+03  0.12500000000E+03 0.  0.
<mgrwt>
<rscale>  0 0.12500000E+03</rscale>
<asrwt>0</asrwt>
<pdfrwt beam="1">  1       21 0.92684583E-02 0.12500000E+03</pdfrwt>
<pdfrwt beam="2">  1       21 0.99752967E-02 0.12500000E+03</pdfrwt>
<totfact> 0.74032181E+06</totfact>
</mgrwt>
</event>
<event>
 3    1  0.1602107E-001  0.1250000E+03  0.7546771E-02  0.1235069E+00
         21   -1    0    0  502  501  0.00000000000E+00  0.00000000000E+00  0.15167316817E+02  0.15167316817E+02  0.00000000000E+00 0. -1.
         21   -1    0    0  501  502 -0.00000000000E+00 -0.00000000000E+00 -0.25754390490E+03  0.25754390490E+03  0.00000000000E+00 0. -1.
         25    1    1    2    0    0  0.00000000000E+00  0.00000000000E+00 -0.24237658808E+03  0.27271122172E+03  0.12500000000E+03 0.  0.
<mgrwt>
<rscale>  0 0.12500000E+03</rscale>
<asrwt>0</asrwt>
<pdfrwt beam="1">  1       21 0.23334334E-02 0.12500000E+03</pdfrwt>
<pdfrwt beam="2">  1       21 0.39622139E-01 0.12500000E+03</pdfrwt>
<totfact> 0.57803059E+06</totfact>
</mgrwt>
</event>
<event>
 3    1  0.1602107E-001  0.1250000E+03  0.7546771E-02  0.1235069E+00
         21   -1    0    0  502  501  0.00000000000E+00  0.00000000000E+00  0.59176526089E+03  0.59176526089E+03  0.00000000000E+00 0.  1.
         21   -1    0    0  501  502 -0.00000000000E+00 -0.00000000000E+00 -0.66010126957E+01  0.66010126957E+01  0.00000000000E+00 0.  1.
         25    1    1    2    0    0  0.00000000000E+00  0.00000000000E+00  0.58516424819E+03  0.59836627358E+03  0.12500000000E+03 0.  0.
<mgrwt>
<rscale>  0 0.12500000E+03</rscale>
<asrwt>0</asrwt>
<pdfrwt beam="1">  1       21 0.91040767E-01 0.12500000E+03</pdfrwt>
<pdfrwt beam="2">  1       21 0.10155409E-02 0.12500000E+03</pdfrwt>
<totfact> 0.37166631E+06</totfact>
</mgrwt>
</event>
<event>
 3    1  0.1602107E-001  0.1250000E+03  0.7546771E-02  0.1235069E+00
         21   -1    0    0  502  501  0.00000000000E+00  0.00000000000E+00  0.10251496407E+03  0.10251496407E+03  0.00000000000E+00 0. -1.
         21   -1    0    0  501  502 -0.00000000000E+00 -0.00000000000E+00 -0.38104193232E+02  0.38104193232E+02  0.00000000000E+00 0. -1.
         25    1    1    2    0    0  0.00000000000E+00  0.00000000000E+00  0.64410770836E+02  0.14061915730E+03  0.12500000000E+03 0.  0.
<mgrwt>
<rscale>  0 0.12500000E+03</rscale>
<asrwt>0</asrwt>
<pdfrwt beam="1">  1       21 0.15771533E-01 0.12500000E+03</pdfrwt>
<pdfrwt beam="2">  1       21 0.58621836E-02 0.12500000E+03</pdfrwt>
<totfact> 0.71958582E+06</totfact>
</mgrwt>
</event>
<event>
 3    1  0.1602107E-001  0.1250000E+03  0.7546771E-02  0.1235069E+00
         21   -1    0    0  502  501  0.00000000000E+00  0.00000000000E+00  0.26915386943E+02  0.26915386943E+02  0.00000000000E+00 0. -1.
         21   -1    0    0  501  502 -0.00000000000E+00 -0.00000000000E+00 -0.14513073909E+03  0.14513073909E+03  0.00000000000E+00 0. -1.
         25    1    1    2    0    0  0.00000000000E+00  0.00000000000E+00 -0.11821535215E+03  0.17204612603E+03  0.12500000000E+03 0.  0.
<mgrwt>
<rscale>  0 0.12500000E+03</rscale>
<asrwt>0</asrwt>
<pdfrwt beam="1">  1       21 0.41408288E-02 0.12500000E+03</pdfrwt>
<pdfrwt beam="2">  1       21 0.22327806E-01 0.12500000E+03</pdfrwt>
<totfact> 0.68075903E+06</totfact>
</mgrwt>
</event>
<event>
 3    1  0.1602107E-001  0.1250000E+03  0.7546771E-02  0.1235069E+00
         21   -1    0    0  502  501  0.00000000000E+00  0.00000000000E+00  0.15221750472E+03  0.15221750472E+03  0.00000000000E+00 0.  1.
         21   -1    0    0  501  502 -0.00000000000E+00 -0.00000000000E+00 -0.25662291648E+02  0.25662291648E+02  0.00000000000E+00 0.  1.
         25    1    1    2    0    0  0.00000000000E+00  0.00000000000E+00  0.12655521307E+03  0.17787979637E+03  0.12500000000E+03 0.  0.
<mgrwt>
<rscale>  0 0.12500000E+03</rscale>
<asrwt>0</asrwt>
<pdfrwt beam="1">  1       21 0.23418077E-01 0.12500000E+03</pdfrwt>
<pdfrwt beam="2">  1       21 0.39480450E-02 0.12500000E+03</pdfrwt>
<totfact> 0.67395596E+06</totfact>
</mgrwt>
</event>
<event>
 3    1  0.1602107E-001  0.1250000E+03  0.7546771E-02  0.1235069E+00
         21   -1    0    0  502  501  0.00000000000E+00  0.00000000000E+00  0.21748387553E+02  0.21748387553E+02  0.00000000000E+00 0. -1.
         21   -1    0    0  501  502 -0.00000000000E+00 -0.00000000000E+00 -0.17961101670E+03  0.17961101670E+03  0.00000000000E+00 0. -1.
         25    1    1    2    0    0  0.00000000000E+00  0.00000000000E+00 -0.15786262915E+03  0.20135940425E+03  0.12500000000E+03 0.  0.
<mgrwt>
<rscale>  0 0.12500000E+03</rscale>
<asrwt>0</asrwt>
<pdfrwt beam="1">  1       21 0.33459058E-02 0.12500000E+03</pdfrwt>
<pdfrwt beam="2">  1       21 0.27632464E-01 0.12500000E+03</pdfrwt>
<totfact> 0.64780249E+06</totfact>
</mgrwt>
</event>
<event>
 3    1  0.1602107E-001  0.1250000E+03  0.7546771E-02  0.1235069E+00
         21   -1    0    0  502  501  0.00000000000E+00  0.00000000000E+00  0.34959065997E+03  0.34959065997E+03  0.00000000000E+00 0.  1.
         21   -1    0    0  501  502 -0.00000000000E+00 -0.00000000000E+00 -0.11173782504E+02  0.11173782504E+02  0.00000000000E+00 0.  1.
         25    1    1    2    0    0  0.00000000000E+00  0.00000000000E+00  0.33841687747E+03  0.36076444248E+03  0.12500000000E+03 0.  0.
<mgrwt>
<rscale>  0 0.12500000E+03</rscale>
<asrwt>0</asrwt>
<pdfrwt beam="1">  1       21 0.53783170E-01 0.12500000E+03</pdfrwt>
<pdfrwt beam="2">  1       21 0.17190437E-02 0.12500000E+03</pdfrwt>
<totfact> 0.50753145E+06</totfact>
</mgrwt>
</event>
<event>
 3    1  0.1602107E-001  0.1250000E+03  0.7546771E-02  0.1235069E+00
         21   -1    0    0  502  501  0.00000000000E+00  0.00000000000E+00  0.26278273204E+02  0.26278273204E+02  0.00000000000E+00 0.  1.
         21   -1    0    0  501  502 -0.00000000000E+00 -0.00000000000E+00 -0.14864941732E+03  0.14864941732E+03  0.00000000000E+00 0.  1.
         25    1    1    2    0    0  0.00000000000E+00  0.00000000000E+00 -0.12237114412E+03  0.17492769053E+03  0.12500000000E+03 0.  0.
<mgrwt>
<rscale>  0 0.12500000E+03</rscale>
<asrwt>0</asrwt>
<pdfrwt beam="1">  1       21 0.40428112E-02 0.12500000E+03</pdfrwt>
<pdfrwt beam="2">  1       21 0.22869141E-01 0.12500000E+03</pdfrwt>
<totfact> 0.67738234E+06</totfact>
</mgrwt>
</event>
<event>
 3    1  0.1602107E-001  0.1250000E+03  0.7546771E-02  0.1235069E+00
         21   -1    0    0  502  501  0.00000000000E+00  0.00000000000E+00  0.26087028871E+01  0.26087028871E+01  0.00000000000E+00 0. -1.
         21   -1    0    0  501  502 -0.00000000000E+00 -0.00000000000E+00 -0.14973916805E+04  0.14973916805E+04  0.00000000000E+00 0. -1.
         25    1    1    2    0    0  0.00000000000E+00  0.00000000000E+00 -0.14947829776E+04  0.15000003834E+04  0.12500000000E+03 0.  0.
<mgrwt>
<rscale>  0 0.12500000E+03</rscale>
<asrwt>0</asrwt>
<pdfrwt beam="1">  1       21 0.40133819E-03 0.12500000E+03</pdfrwt>
<pdfrwt beam="2">  1       21 0.23036836E+00 0.12500000E+03</pdfrwt>
<totfact> 0.13993031E+06</totfact>
</mgrwt>
</event>
<event>
 3    1  0.1602107E-001  0.1250000E+03  0.7546771E-02  0.1235069E+00
         21   -1    0    0  502  501  0.00000000000E+00  0.00000000000E+00  0.12217035556E+03  0.12217035556E+03  0.00000000000E+00 0. -1.
         21   -1    0    0  501  502 -0.00000000000E+00 -0.00000000000E+00 -0.31973795788E+02  0.31973795788E+02  0.00000000000E+00 0. -1.
         25    1    1    2    0    0  0.00000000000E+00  0.00000000000E+00  0.90196559770E+02  0.15414415135E+03  0.12500000000E+03 0.  0.
<mgrwt>
<rscale>  0 0.12500000E+03</rscale>
<asrwt>0</asrwt>
<pdfrwt beam="1">  1       21 0.18795439E-01 0.12500000E+03</pdfrwt>
<pdfrwt beam="2">  1       21 0.49190456E-02 0.12500000E+03</pdfrwt>
<totfact> 0.70242186E+06</totfact>
</mgrwt>
</event>
<event>
 3    1  0.1602107E-001  0.1250000E+03  0.7546771E-02  0.1235069E+00
         21   -1    0    0  502  501  0.00000000000E+00  0.00000000000E+00  0.42899488725E+02  0.42899488725E+02  0.00000000000E+00 0.  1.
         21   -1    0    0  501  502 -0.00000000000E+00 -0.00000000000E+00 -0.91055863744E+02  0.91055863744E+02  0.00000000000E+00 0.  1.
         25    1    1    2    0    0  0.00000000000E+00  0.00000000000E+00 -0.48156375020E+02  0.13395535247E+03  0.12500000000E+03 0.  0.
<mgrwt>
<rscale>  0 0.12500000E+03</rscale>
<asrwt>0</asrwt>
<pdfrwt beam="1">  1       21 0.65999214E-02 0.12500000E+03</pdfrwt>
<pdfrwt beam="2">  1       21 0.14008594E-01 0.12500000E+03</pdfrwt>
<totfact> 0.72835090E+06</totfact>
</mgrwt>
</event>
<event>
 3    1  0.1602107E-001  0.1250000E+03  0.7546771E-02  0.1235069E+00
         21   -1    0    0  502  501  0.00000000000E+00  0.00000000000E+00  0.99458749470E+01  0.99458749470E+01  0.00000000000E+00 0. -1.
         21   -1    0    0  501  502 -0.00000000000E+00 -0.00000000000E+00 -0.39275076560E+03  0.39275076560E+03  0.00000000000E+00 0. -1.
         25    1    1    2    0    0  0.00000000000E+00  0.00000000000E+00 -0.38280489065E+03  0.40269664055E+03  0.12500000000E+03 0.  0.
<mgrwt>
<rscale>  0 0.12500000E+03</rscale>
<asrwt>0</asrwt>
<pdfrwt beam="1">  1       21 0.15301349E-02 0.12500000E+03</pdfrwt>
<pdfrwt beam="2">  1       21 0.60423183E-01 0.12500000E+03</pdfrwt>
<totfact> 0.47863003E+06</totfact>
</mgrwt>
</event>
<event>
 3    1  0.1602107E-001  0.1250000E+03  0.7546771E-02  0.1235069E+00
         21   -1    0    0  502  501  0.00000000000E+00  0.00000000000E+00  0.13552961875E+03  0.13552961875E+03  0.00000000000E+00 0. -1.
         21   -1    0    0  501  502 -0.00000000000E+00 -0.00000000000E+00 -0.28822113099E+02  0.28822113099E+02  0.00000000000E+00 0. -1.
         25    1    1    2    0    0  0.00000000000E+00  0.00000000000E+00  0.10670750566E+03  0.16435173185E+03  0.12500000000E+03 0.  0.
<mgrwt>
<rscale>  0 0.12500000E+03</rscale>
<asrwt>0</asrwt>
<pdfrwt beam="1">  1       21 0.20850710E-01 0.12500000E+03</pdfrwt>
<pdfrwt beam="2">  1       21 0.44341713E-02 0.12500000E+03</pdfrwt>
<totfact> 0.68991633E+06</totfact>
</mgrwt>
</event>
<event>
 3    1  0.1602107E-001  0.1250000E+03  0.7546771E-02  0.1235069E+00
         21   -1    0    0  502  501  0.00000000000E+00  0.00000000000E+00  0.39991079196E+03  0.39991079196E+03  0.00000000000E+00 0.  1.
         21   -1    0    0  501  502 -0.00000000000E+00 -0.00000000000E+00 -0.97678034165E+01  0.97678034165E+01  0.00000000000E+00 0.  1.
         25    1    1    2    0    0  0.00000000000E+00  0.00000000000E+00  0.39014298855E+03  0.40967859538E+03  0.12500000000E+03 0.  0.
<mgrwt>
<rscale>  0 0.12500000E+03</rscale>
<asrwt>0</asrwt>
<pdfrwt beam="1">  1       21 0.61524725E-01 0.12500000E+03</pdfrwt>
<pdfrwt beam="2">  1       21 0.15027393E-02 0.12500000E+03</pdfrwt>
<totfact> 0.47405942E+06</totfact>
</mgrwt>
</event>
<event>
 3    1  0.1602107E-001  0.1250000E+03  0.7546771E-02  0.1235069E+00
         21   -1    0    0  502  501  0.00000000000E+00  0.00000000000E+00  0.46121279153E+02  0.46121279153E+02  0.00000000000E+00 0. -1.
         21   -1    0    0  501  502 -0.00000000000E+00 -0.00000000000E+00 -0.84695179140E+02  0.84695179140E+02  0.00000000000E+00 0. -1.
         25    1    1    2    0    0  0.00000000000E+00  0.00000000000E+00 -0.38573899987E+02  0.13081645829E+03  0.12500000000E+03 0.  0.
<mgrwt>
<rscale>  0 0.12500000E+03</rscale>
<asrwt>0</asrwt>
<pdfrwt beam="1">  1       21 0.70955816E-02 0.12500000E+03</pdfrwt>
<pdfrwt beam="2">  1       21 0.13030027E-01 0.12500000E+03</pdfrwt>
<totfact> 0.73255416E+06</totfact>
</mgrwt>
</event>
<event>
 3    1  0.1602107E-001  0.1250000E+03  0.7546771E-02  0.1235069E+00
         21   -1    0    0  502  501  0.00000000000E+00  0.00000000000E+00  0.11613152154E+02  0.11613152154E+02  0.00000000000E+00 0.  1.
         21   -1    0    0  501  502 -0.00000000000E+00 -0.00000000000E+00 -0.33636431765E+03  0.33636431765E+03  0.00000000000E+00 0.  1.
         25    1    1    2    0    0  0.00000000000E+00  0.00000000000E+00 -0.32475116550E+03  0.34797746980E+03  0.12500000000E+03 0.  0.
<mgrwt>
<rscale>  0 0.12500000E+03</rscale>
<asrwt>0</asrwt>
<pdfrwt beam="1">  1       21 0.17866389E-02 0.12500000E+03</pdfrwt>
<pdfrwt beam="2">  1       21 0.51748353E-01 0.12500000E+03</pdfrwt>
<totfact> 0.51688150E+06</totfact>
</mgrwt>
</event>
<event>
 3    1  0.1602107E-001  0.1250000E+03  0.7546771E-02  0.1235069E+00
         21   -1    0    0  502  501  0.00000000000E+00  0.00000000000E+00  0.89041760009E+02  0.89041760009E+02  0.00000000000E+00 0. -1.
         21   -1    0    0  501  502 -0.00000000000E+00 -0.00000000000E+00 -0.43869865102E+02  0.43869865102E+02  0.00000000000E+00 0. -1.
         25    1    1    2    0    0  0.00000000000E+00  0.00000000000E+00  0.45171894908E+02  0.13291162511E+03  0.12500000000E+03 0.  0.
<mgrwt>
<rscale>  0 0.12500000E+03</rscale>
<asrwt>0</asrwt>
<pdfrwt beam="1">  1       21 0.13698732E-01 0.12500000E+03</pdfrwt>
<pdfrwt beam="2">  1       21 0.67492100E-02 0.12500000E+03</pdfrwt>
<totfact> 0.72974202E+06</totfact>
</mgrwt>
</event>
<event>
 3    1  0.1602107E-001  0.1250000E+03  0.7546771E-02  0.1235069E+00
         21   -1    0    0  502  501  0.00000000000E+00  0.00000000000E+00  0.15607714999E+04  0.15607714999E+04  0.00000000000E+00 0. -1.
         21   -1    0    0  501  502 -0.00000000000E+00 -0.00000000000E+00 -0.25027686629E+01  0.25027686629E+01  0.00000000000E+00 0. -1.
         25    1    1    2    0    0  0.00000000000E+00  0.00000000000E+00  0.15582687313E+04  0.15632742686E+04  0.12500000000E+03 0.  0.
<mgrwt>
<rscale>  0 0.12500000E+03</rscale>
<asrwt>0</asrwt>
<pdfrwt beam="1">  1       21 0.24011792E+00 0.12500000E+03</pdfrwt>
<pdfrwt beam="2">  1       21 0.38504258E-03 0.12500000E+03</pdfrwt>
<totfact> 0.13080327E+06</totfact>
</mgrwt>
</event>
<event>
 3    1  0.1602107E-001  0.1250000E+03  0.7546771E-02  0.1235069E+00
         21   -1    0    0  502  501  0.00000000000E+00  0.00000000000E+00  0.18488310684E+02  0.18488310684E+02  0.00000000000E+00 0. -1.
         21   -1    0    0  501  502 -0.00000000000E+00 -0.00000000000E+00 -0.21128214831E+03  0.21128214831E+03  0.00000000000E+00 0. -1.
         25    1    1    2    0    0  0.00000000000E+00  0.00000000000E+00 -0.19279383763E+03  0.22977045899E+03  0.12500000000E+03 0.  0.
<mgrwt>
<rscale>  0 0.12500000E+03</rscale>
<asrwt>0</asrwt>
<pdfrwt beam="1">  1       21 0.28443553E-02 0.12500000E+03</pdfrwt>
<pdfrwt beam="2">  1       21 0.32504948E-01 0.12500000E+03</pdfrwt>
<totfact> 0.61836829E+06</totfact>
</mgrwt>
</event>
<event>
 3    1  0.1602107E-001  0.1250000E+03  0.7546771E-02  0.1235069E+00
         21   -1    0    0  502  501  0.00000000000E+00  0.00000000000E+00  0.23649356165E+03  0.23649356165E+03  0.00000000000E+00 0.  1.
         21   -1    0    0  501  502 -0.00000000000E+00 -0.00000000000E+00 -0.16517362979E+02  0.16517362979E+02  0.00000000000E+00 0.  1.
         25    1    1    2    0    0  0.00000000000E+00  0.00000000000E+00  0.21997619867E+03  0.25301092463E+03  0.12500000000E+03 0.  0.
<mgrwt>
<rscale>  0 0.12500000E+03</rscale>
<asrwt>0</asrwt>
<pdfrwt beam="1">  1       21 0.36383622E-01 0.12500000E+03</pdfrwt>
<pdfrwt beam="2">  1       21 0.25411329E-02 0.12500000E+03</pdfrwt>
<totfact> 0.59595869E+06</totfact>
</mgrwt>
</event>
<event>
 3    1  0.1602107E-001  0.1250000E+03  0.7546771E-02  0.1235069E+00
         21   -1    0    0  502  501  0.00000000000E+00  0.00000000000E+00  0.78883308747E+01  0.78883308747E+01  0.00000000000E+00 0.  1.
         21   -1    0    0  501  502 -0.00000000000E+00 -0.00000000000E+00 -0.49519347782E+03  0.49519347782E+03  0.00000000000E+00 0.  1.
         25    1    1    2    0    0  0.00000000000E+00  0.00000000000E+00 -0.48730514694E+03  0.50308180869E+03  0.12500000000E+03 0.  0.
<mgrwt>
<rscale>  0 0.12500000E+03</rscale>
<asrwt>0</asrwt>
<pdfrwt beam="1">  1       21 0.12135890E-02 0.12500000E+03</pdfrwt>
<pdfrwt beam="2">  1       21 0.76183634E-01 0.12500000E+03</pdfrwt>
<totfact> 0.41877421E+06</totfact>
</mgrwt>
</event>
<event>
 3    1  0.1602107E-001  0.1250000E+03  0.7546771E-02  0.1235069E+00
         21   -1    0    0  502  501  0.00000000000E+00  0.00000000000E+00  0.33023078429E+02  0.33023078429E+02  0.00000000000E+00 0. -1.
         21   -1    0    0  501  502 -0.00000000000E+00 -0.00000000000E+00 -0.11828848750E+03  0.11828848750E+03  0.00000000000E+00 0. -1.
         25    1    1    2    0    0  0.00000000000E+00  0.00000000000E+00 -0.85265409070E+02  0.15131156593E+03  0.12500000000E+03 0.  0.
<mgrwt>
<rscale>  0 0.12500000E+03</rscale>
<asrwt>0</asrwt>
<pdfrwt beam="1">  1       21 0.50804736E-02 0.12500000E+03</pdfrwt>
<pdfrwt beam="2">  1       21 0.18198229E-01 0.12500000E+03</pdfrwt>
<totfact> 0.70594831E+06</totfact>
</mgrwt>
</event>
<event>
 3    1  0.1602107E-001  0.1250000E+03  0.7546771E-02  0.1235069E+00
         21   -1    0    0  502  501  0.00000000000E+00  0.00000000000E+00  0.55225225538E+01  0.55225225538E+01  0.00000000000E+00 0.  1.
         21   -1    0    0  501  502 -0.00000000000E+00 -0.00000000000E+00 -0.70733074641E+03  0.70733074641E+03  0.00000000000E+00 0.  1.
         25    1    1    2    0    0  0.00000000000E+00  0.00000000000E+00 -0.70180822385E+03  0.71285326896E+03  0.12500000000E+03 0.  0.
<mgrwt>
<rscale>  0 0.12500000E+03</rscale>
<asrwt>0</asrwt>
<pdfrwt beam="1">  1       21 0.84961932E-03 0.12500000E+03</pdfrwt>
<pdfrwt beam="2">  1       21 0.10882005E+00 0.12500000E+03</pdfrwt>
<totfact> 0.32420474E+06</totfact>
</mgrwt>
</event>
<event>
 3    1  0.1602107E-001  0.1250000E+03  0.7546771E-02  0.1235069E+00
         21   -1    0    0  502  501  0.00000000000E+00  0.00000000000E+00  0.27378964045E+03  0.27378964045E+03  0.00000000000E+00 0.  1.
         21   -1    0    0  501  502 -0.00000000000E+00 -0.00000000000E+00 -0.14267340406E+02  0.14267340406E+02  0.00000000000E+00 0.  1.
         25    1    1    2    0    0  0.00000000000E+00  0.00000000000E+00  0.25952230004E+03  0.28805698085E+03  0.12500000000E+03 0.  0.
<mgrwt>
<rscale>  0 0.12500000E+03</rscale>
<asrwt>0</asrwt>
<pdfrwt beam="1">  1       21 0.42121479E-01 0.12500000E+03</pdfrwt>
<pdfrwt beam="2">  1       21 0.21949756E-02 0.12500000E+03</pdfrwt>
<totfact> 0.56463525E+06</totfact>
</mgrwt>
</event>
<event>
 3    1  0.1602107E-001  0.1250000E+03  0.7546771E-02  0.1235069E+00
         21   -1    0    0  502  501  0.00000000000E+00  0.00000000000E+00  0.11166922887E+03  0.11166922887E+03  0.00000000000E+00 0. -1.
         21   -1    0    0  501  502 -0.00000000000E+00 -0.00000000000E+00 -0.34980540653E+02  0.34980540653E+02  0.00000000000E+00 0. -1.
         25    1    1    2    0    0  0.00000000000E+00  0.00000000000E+00  0.76688688213E+02  0.14664976952E+03  0.12500000000E+03 0.  0.
<mgrwt>
<rscale>  0 0.12500000E+03</rscale>
<asrwt>0</asrwt>
<pdfrwt beam="1">  1       21 0.17179881E-01 0.12500000E+03</pdfrwt>
<pdfrwt beam="2">  1       21 0.53816217E-02 0.12500000E+03</pdfrwt>
<totfact> 0.71182633E+06</totfact>
</mgrwt>
</event>
<event>
 3    1  0.1602107E-001  0.1250000E+03  0.7546771E-02  0.1235069E+00
         21   -1    0    0  502  501  0.00000000000E+00  0.00000000000E+00  0.31190248973E+02  0.31190248973E+02  0.00000000000E+00 0. -1.
         21   -1    0    0  501  502 -0.00000000000E+00 -0.00000000000E+00 -0.12523946197E+03  0.12523946197E+03  0.00000000000E+00 0. -1.
         25    1    1    2    0    0  0.00000000000E+00  0.00000000000E+00 -0.94049212993E+02  0.15642971094E+03  0.12500000000E+03 0.  0.
<mgrwt>
<rscale>  0 0.12500000E+03</rscale>
<asrwt>0</asrwt>
<pdfrwt beam="1">  1       21 0.47984999E-02 0.12500000E+03</pdfrwt>
<pdfrwt beam="2">  1       21 0.19267609E-01 0.12500000E+03</pdfrwt>
<totfact> 0.69958399E+06</totfact>
</mgrwt>
</event>
<event>
 3    1  0.1602107E-001  0.1250000E+03  0.7546771E-02  0.1235069E+00
         21   -1    0    0  502  501  0.00000000000E+00  0.00000000000E+00  0.90919930821E+02  0.90919930821E+02  0.00000000000E+00 0.  1.
         21   -1    0    0  501  502 -0.00000000000E+00 -0.00000000000E+00 -0.42963627059E+02  0.42963627059E+02  0.00000000000E+00 0.  1.
         25    1    1    2    0    0  0.00000000000E+00  0.00000000000E+00  0.47956303762E+02  0.13388355788E+03  0.12500000000E+03 0.  0.
<mgrwt>
<rscale>  0 0.12500000E+03</rscale>
<asrwt>0</asrwt>
<pdfrwt beam="1">  1       21 0.13987682E-01 0.12500000E+03</pdfrwt>
<pdfrwt beam="2">  1       21 0.66097888E-02 0.12500000E+03</pdfrwt>
<totfact> 0.72844639E+06</totfact>
</mgrwt>
</event>
<event>
 3    1  0.1602107E-001  0.1250000E+03  0.7546771E-02  0.1235069E+00
         21   -1    0    0  502  501  0.00000000000E+00  0.00000000000E+00  0.20211116060E+03  0.20211116060E+03  0.00000000000E+00 0.  1.
         21   -1    0    0  501  502 -0.00000000000E+00 -0.00000000000E+00 -0.19327235509E+02  0.19327235509E+02  0.00000000000E+00 0.  1.
         25    1    1    2    0    0  0.00000000000E+00  0.00000000000E+00  0.18278392509E+03  0.22143839611E+03  0.12500000000E+03 0.  0.
<mgrwt>
<rscale>  0 0.12500000E+03</rscale>
<asrwt>0</asrwt>
<pdfrwt beam="1">  1       21 0.31094023E-01 0.12500000E+03</pdfrwt>
<pdfrwt beam="2">  1       21 0.29734210E-02 0.12500000E+03</pdfrwt>
<totfact> 0.62675815E+06</totfact>
</mgrwt>
</event>
<event>
 3    1  0.1602107E-001  0.1250000E+03  0.7546771E-02  0.1235069E+00
         21   -1    0    0  502  501  0.00000000000E+00  0.00000000000E+00  0.92611331659E+01  0.92611331659E+01  0.00000000000E+00 0. -1.
         21   -1    0    0  501  502 -0.00000000000E+00 -0.00000000000E+00 -0.42178963740E+03  0.42178963740E+03  0.00000000000E+00 0. -1.
         25    1    1    2    0    0  0.00000000000E+00  0.00000000000E+00 -0.41252850424E+03  0.43105077057E+03  0.12500000000E+03 0.  0.
<mgrwt>
<rscale>  0 0.12500000E+03</rscale>
<asrwt>0</asrwt>
<pdfrwt beam="1">  1       21 0.14247895E-02 0.12500000E+03</pdfrwt>
<pdfrwt beam="2">  1       21 0.64890722E-01 0.12500000E+03</pdfrwt>
<totfact> 0.46047743E+06</totfact>
</mgrwt>
</event>
<event>
 3    1  0.1602107E-001  0.1250000E+03  0.7546771E-02  0.1235069E+00
         21   -1    0    0  502  501  0.00000000000E+00  0.00000000000E+00  0.14405248082E+03  0.14405248082E+03  0.00000000000E+00 0.  1.
         21   -1    0    0  501  502 -0.00000000000E+00 -0.00000000000E+00 -0.27116853370E+02  0.27116853370E+02  0.00000000000E+00 0.  1.
         25    1    1    2    0    0  0.00000000000E+00  0.00000000000E+00  0.11693562745E+03  0.17116933419E+03  0.12500000000E+03 0.  0.
<mgrwt>
<rscale>  0 0.12500000E+03</rscale>
<asrwt>0</asrwt>
<pdfrwt beam="1">  1       21 0.22161920E-01 0.12500000E+03</pdfrwt>
<pdfrwt beam="2">  1       21 0.41718237E-02 0.12500000E+03</pdfrwt>
<totfact> 0.68179288E+06</totfact>
</mgrwt>
</event>
<event>
 3    1  0.1602107E-001  0.1250000E+03  0.7546771E-02  0.1235069E+00
         21   -1    0    0  502  501  0.00000000000E+00  0.00000000000E+00  0.26258474364E+03  0.26258474364E+03  0.00000000000E+00 0.  1.
         21   -1    0    0  501  502 -0.00000000000E+00 -0.00000000000E+00 -0.14876149870E+02  0.14876149870E+02  0.00000000000E+00 0.  1.
         25    1    1    2    0    0  0.00000000000E+00  0.00000000000E+00  0.24770859377E+03  0.27746089351E+03  0.12500000000E+03 0.  0.
<mgrwt>
<rscale>  0 0.12500000E+03</rscale>
<asrwt>0</asrwt>
<pdfrwt beam="1">  1       21 0.40397650E-01 0.12500000E+03</pdfrwt>
<pdfrwt beam="2">  1       21 0.22886386E-02 0.12500000E+03</pdfrwt>
<totfact> 0.57382868E+06</totfact>
</mgrwt>
</event>
<event>
 3    1  0.1602107E-001  0.1250000E+03  0.7546771E-02  0.1235069E+00
         21   -1    0    0  502  501  0.00000000000E+00  0.00000000000E+00  0.68168972005E+02  0.68168972005E+02  0.00000000000E+00 0. -1.
         21   -1    0    0  501  502 -0.00000000000E+00 -0.00000000000E+00 -0.57302463058E+02  0.57302463058E+02  0.00000000000E+00 0. -1.
         25    1    1    2    0    0  0.00000000000E+00  0.00000000000E+00  0.10866508947E+02  0.12547143506E+03  0.12500000000E+03 0.  0.
<mgrwt>
<rscale>  0 0.12500000E+03</rscale>
<asrwt>0</asrwt>
<pdfrwt beam="1">  1       21 0.10487534E-01 0.12500000E+03</pdfrwt>
<pdfrwt beam="2">  1       21 0.88157636E-02 0.12500000E+03</pdfrwt>
<totfact> 0.73979393E+06</totfact>
</mgrwt>
</event>
<event>
 3    1  0.1602107E-001  0.1250000E+03  0.7546771E-02  0.1235069E+00
         21   -1    0    0  502  501  0.00000000000E+00  0.00000000000E+00  0.15644717492E+02  0.15644717492E+02  0.00000000000E+00 0. -1.
         21   -1    0    0  501  502 -0.00000000000E+00 -0.00000000000E+00 -0.24968491773E+03  0.24968491773E+03  0.00000000000E+00 0. -1.
         25    1    1    2    0    0  0.00000000000E+00  0.00000000000E+00 -0.23404020024E+03  0.26532963522E+03  0.12500000000E+03 0.  0.
<mgrwt>
<rscale>  0 0.12500000E+03</rscale>
<asrwt>0</asrwt>
<pdfrwt beam="1">  1       21 0.24068797E-02 0.12500000E+03</pdfrwt>
<pdfrwt beam="2">  1       21 0.38413063E-01 0.12500000E+03</pdfrwt>
<totfact> 0.58464201E+06</totfact>
</mgrwt>
</event>
<event>
 3    1  0.1602107E-001  0.1250000E+03  0.7546771E-02  0.1235069E+00
         21   -1    0    0  502  501  0.00000000000E+00  0.00000000000E+00  0.10527982056E+04  0.10527982056E+04  0.00000000000E+00 0. -1.
         21   -1    0    0  501  502 -0.00000000000E+00 -0.00000000000E+00 -0.37103501690E+01  0.37103501690E+01  0.00000000000E+00 0. -1.
         25    1    1    2    0    0  0.00000000000E+00  0.00000000000E+00  0.10490878554E+04  0.10565085558E+04  0.12500000000E+03 0.  0.
<mgrwt>
<rscale>  0 0.12500000E+03</rscale>
<asrwt>0</asrwt>
<pdfrwt beam="1">  1       21 0.16196872E+00 0.12500000E+03</pdfrwt>
<pdfrwt beam="2">  1       21 0.57082394E-03 0.12500000E+03</pdfrwt>
<totfact> 0.22245515E+06</totfact>
</mgrwt>
</event>
<event>
 3    1  0.1602107E-001  0.1250000E+03  0.7546771E-02  0.1235069E+00
         21   -1    0    0  502  501  0.00000000000E+00  0.00000000000E+00  0.82059905490E+01  0.82059905490E+01  0.00000000000E+00 0. -1.
         21   -1    0    0  501  502 -0.00000000000E+00 -0.00000000000E+00 -0.47602418948E+03  0.47602418948E+03  0.00000000000E+00 0. -1.
         25    1    1    2    0    0  0.00000000000E+00  0.00000000000E+00 -0.46781819893E+03  0.48423018003E+03  0.12500000000E+03 0.  0.
<mgrwt>
<rscale>  0 0.12500000E+03</rscale>
<asrwt>0</asrwt>
<pdfrwt beam="1">  1       21 0.12624599E-02 0.12500000E+03</pdfrwt>
<pdfrwt beam="2">  1       21 0.73234500E-01 0.12500000E+03</pdfrwt>
<totfact> 0.42912418E+06</totfact>
</mgrwt>
</event>
<event>
 3    1  0.1602107E-001  0.1250000E+03  0.7546771E-02  0.1235069E+00
         21   -1    0    0  502  501  0.00000000000E+00  0.00000000000E+00  0.22557005685E+03  0.22557005685E+03  0.00000000000E+00 0. -1.
         21   -1    0    0  501  502 -0.00000000000E+00 -0.00000000000E+00 -0.17317236403E+02  0.17317236403E+02  0.00000000000E+00 0. -1.
         25    1    1    2    0    0  0.00000000000E+00  0.00000000000E+00  0.20825282045E+03  0.24288729326E+03  0.12500000000E+03 0.  0.
<mgrwt>
<rscale>  0 0.12500000E+03</rscale>
<asrwt>0</asrwt>
<pdfrwt beam="1">  1       21 0.34703084E-01 0.12500000E+03</pdfrwt>
<pdfrwt beam="2">  1       21 0.26641904E-02 0.12500000E+03</pdfrwt>
<totfact> 0.60554380E+06</totfact>
</mgrwt>
</event>
<event>
 3    1  0.1602107E-001  0.1250000E+03  0.7546771E-02  0.1235069E+00
         21   -1    0    0  502  501  0.00000000000E+00  0.00000000000E+00  0.29746204828E+02  0.29746204828E+02  0.00000000000E+00 0.  1.
         21   -1    0    0  501  502 -0.00000000000E+00 -0.00000000000E+00 -0.13131927325E+03  0.13131927325E+03  0.00000000000E+00 0.  1.
         25    1    1    2    0    0  0.00000000000E+00  0.00000000000E+00 -0.10157306843E+03  0.16106547808E+03  0.12500000000E+03 0.  0.
<mgrwt>
<rscale>  0 0.12500000E+03</rscale>
<asrwt>0</asrwt>
<pdfrwt beam="1">  1       21 0.45763391E-02 0.12500000E+03</pdfrwt>
<pdfrwt beam="2">  1       21 0.20202965E-01 0.12500000E+03</pdfrwt>
<totfact> 0.69389539E+06</totfact>
</mgrwt>
</event>
<event>
 3    1  0.1602107E-001  0.1250000E+03  0.7546771E-02  0.1235069E+00
         21   -1    0    0  502  501  0.00000000000E+00  0.00000000000E+00  0.46545595220E+03  0.46545595220E+03  0.00000000000E+00 0. -1.
         21   -1    0    0  501  502 -0.00000000000E+00 -0.00000000000E+00 -0.83923086203E+01  0.83923086203E+01  0.00000000000E+00 0. -1.
         25    1    1    2    0    0  0.00000000000E+00  0.00000000000E+00  0.45706364358E+03  0.47384826082E+03  0.12500000000E+03 0.  0.
<mgrwt>
<rscale>  0 0.12500000E+03</rscale>
<asrwt>0</asrwt>
<pdfrwt beam="1">  1       21 0.71608588E-01 0.12500000E+03</pdfrwt>
<pdfrwt beam="2">  1       21 0.12911248E-02 0.12500000E+03</pdfrwt>
<totfact> 0.43498804E+06</totfact>
</mgrwt>
</event>
<event>
 3    1  0.1602107E-001  0.1250000E+03  0.7546771E-02  0.1235069E+00
         21   -1    0    0  502  501  0.00000000000E+00  0.00000000000E+00  0.23854406949E+02  0.23854406949E+02  0.00000000000E+00 0. -1.
         21   -1    0    0  501  502 -0.00000000000E+00 -0.00000000000E+00 -0.16375380903E+03  0.16375380903E+03  0.00000000000E+00 0. -1.
         25    1    1    2    0    0  0.00000000000E+00  0.00000000000E+00 -0.13989940208E+03  0.18760821598E+03  0.12500000000E+03 0.  0.
<mgrwt>
<rscale>  0 0.12500000E+03</rscale>
<asrwt>0</asrwt>
<pdfrwt beam="1">  1       21 0.36699088E-02 0.12500000E+03</pdfrwt>
<pdfrwt beam="2">  1       21 0.25192894E-01 0.12500000E+03</pdfrwt>
<totfact> 0.66289280E+06</totfact>
</mgrwt>
</event>
<event>
 3    1  0.1602107E-001  0.1250000E+03  0.7546771E-02  0.1235069E+00
         21   -1    0    0  502  501  0.00000000000E+00  0.00000000000E+00  0.28636561115E+03  0.28636561115E+03  0.00000000000E+00 0. -1.
         21   -1    0    0  501  502 -0.00000000000E+00 -0.00000000000E+00 -0.13640778948E+02  0.13640778948E+02  0.00000000000E+00 0. -1.
         25    1    1    2    0    0  0.00000000000E+00  0.00000000000E+00  0.27272483221E+03  0.30000639010E+03  0.12500000000E+03 0.  0.
<mgrwt>
<rscale>  0 0.12500000E+03</rscale>
<asrwt>0</asrwt>
<pdfrwt beam="1">  1       21 0.44056243E-01 0.12500000E+03</pdfrwt>
<pdfrwt beam="2">  1       21 0.20985816E-02 0.12500000E+03</pdfrwt>
<totfact> 0.55455645E+06</totfact>
</mgrwt>
</event>
<event>
 3    1  0.1602107E-001  0.1250000E+03  0.7546771E-02  0.1235069E+00
         21   -1    0    0  502  501  0.00000000000E+00  0.00000000000E+00  0.26752235592E+02  0.26752235592E+02  0.00000000000E+00 0.  1.
         21   -1    0    0  501  502 -0.00000000000E+00 -0.00000000000E+00 -0.14601583432E+03  0.14601583432E+03  0.00000000000E+00 0.  1.
         25    1    1    2    0    0  0.00000000000E+00  0.00000000000E+00 -0.11926359873E+03  0.17276806991E+03  0.12500000000E+03 0.  0.
<mgrwt>
<rscale>  0 0.12500000E+03</rscale>
<asrwt>0</asrwt>
<pdfrwt beam="1">  1       21 0.41157286E-02 0.12500000E+03</pdfrwt>
<pdfrwt beam="2">  1       21 0.22463974E-01 0.12500000E+03</pdfrwt>
<totfact> 0.67991002E+06</totfact>
</mgrwt>
</event>
<event>
 3    1  0.1602107E-001  0.1250000E+03  0.7546771E-02  0.1235069E+00
         21   -1    0    0  502  501  0.00000000000E+00  0.00000000000E+00  0.63144327685E+02  0.63144327685E+02  0.00000000000E+00 0. -1.
         21   -1    0    0  501  502 -0.00000000000E+00 -0.00000000000E+00 -0.61862247065E+02  0.61862247065E+02  0.00000000000E+00 0. -1.
         25    1    1    2    0    0  0.00000000000E+00  0.00000000000E+00  0.12820806199E+01  0.12500657475E+03  0.12500000000E+03 0.  0.
<mgrwt>
<rscale>  0 0.12500000E+03</rscale>
<asrwt>0</asrwt>
<pdfrwt beam="1">  1       21 0.97145120E-02 0.12500000E+03</pdfrwt>
<pdfrwt beam="2">  1       21 0.95172688E-02 0.12500000E+03</pdfrwt>
<totfact> 0.74042693E+06</totfact>
</mgrwt>
</event>
<event>
 3    1  0.1602107E-001  0.1250000E+03  0.7546771E-02  0.1235069E+00
         21   -1    0    0  502  501  0.00000000000E+00  0.00000000000E+00  0.11406644477E+03  0.11406644477E+03  0.00000000000E+00 0. -1.
         21   -1    0    0  501  502 -0.00000000000E+00 -0.00000000000E+00 -0.34245390990E+02  0.34245390990E+02  0.00000000000E+00 0. -1.
         25    1    1    2    0    0  0.00000000000E+00  0.00000000000E+00  0.79821053781E+02  0.14831183576E+03  0.12500000000E+03 0.  0.
<mgrwt>
<rscale>  0 0.12500000E+03</rscale>
<asrwt>0</asrwt>
<pdfrwt beam="1">  1       21 0.17548684E-01 0.12500000E+03</pdfrwt>
<pdfrwt beam="2">  1       21 0.52685217E-02 0.12500000E+03</pdfrwt>
<totfact> 0.70971914E+06</totfact>
</mgrwt>
</event>
<event>
 3    1  0.1602107E-001  0.1250000E+03  0.7546771E-02  0.1235069E+00
         21   -1    0    0  502  501  0.00000000000E+00  0.00000000000E+00  0.85262552516E+03  0.85262552516E+03  0.00000000000E+00 0.  1.
         21   -1    0    0  501  502 -0.00000000000E+00 -0.00000000000E+00 -0.45814368498E+01  0.45814368498E+01  0.00000000000E+00 0.  1.
         25    1    1    2    0    0  0.00000000000E+00  0.00000000000E+00  0.84804408831E+03  0.85720696201E+03  0.12500000000E+03 0.  0.
<mgrwt>
<rscale>  0 0.12500000E+03</rscale>
<asrwt>0</asrwt>
<pdfrwt beam="1">  1       21 0.13117303E+00 0.12500000E+03</pdfrwt>
<pdfrwt beam="2">  1       21 0.70483712E-03 0.12500000E+03</pdfrwt>
<totfact> 0.27552838E+06</totfact>
</mgrwt>
</event>
<event>
 3    1  0.1602107E-001  0.1250000E+03  0.7546771E-02  0.1235069E+00
         21   -1    0    0  502  501  0.00000000000E+00  0.00000000000E+00  0.17747377469E+02  0.17747377469E+02  0.00000000000E+00 0.  1.
         21   -1    0    0  501  502 -0.00000000000E+00 -0.00000000000E+00 -0.22010294235E+03  0.22010294235E+03  0.00000000000E+00 0.  1.
         25    1    1    2    0    0  0.00000000000E+00  0.00000000000E+00 -0.20235556488E+03  0.23785031982E+03  0.12500000000E+03 0.  0.
<mgrwt>
<rscale>  0 0.12500000E+03</rscale>
<asrwt>0</asrwt>
<pdfrwt beam="1">  1       21 0.27303659E-02 0.12500000E+03</pdfrwt>
<pdfrwt beam="2">  1       21 0.33861990E-01 0.12500000E+03</pdfrwt>
<totfact> 0.61041305E+06</totfact>
</mgrwt>
</event>
<event>
 3    1  0.1602107E-001  0.1250000E+03  0.7546771E-02  0.1235069E+00
         21   -1    0    0  502  501  0.00000000000E+00  0.00000000000E+00  0.11102138593E+03  0.11102138593E+03  0.00000000000E+00 0. -1.
         21   -1    0    0  501  502 -0.00000000000E+00 -0.00000000000E+00 -0.35184662551E+02  0.35184662551E+02  0.00000000000E+00 0. -1.
         25    1    1    2    0    0  0.00000000000E+00  0.00000000000E+00  0.75836723383E+02  0.14620604848E+03  0.12500000000E+03 0.  0.
<mgrwt>
<rscale>  0 0.12500000E+03</rscale>
<asrwt>0</asrwt>
<pdfrwt beam="1">  1       21 0.17080213E-01 0.12500000E+03</pdfrwt>
<pdfrwt beam="2">  1       21 0.54130251E-02 0.12500000E+03</pdfrwt>
<totfact> 0.71239110E+06</totfact>
</mgrwt>
</event>
<event>
 3    1  0.1602107E-001  0.1250000E+03  0.7546771E-02  0.1235069E+00
         21   -1    0    0  502  501  0.00000000000E+00  0.00000000000E+00  0.36320460821E+03  0.36320460821E+03  0.00000000000E+00 0.  1.
         21   -1    0    0  501  502 -0.00000000000E+00 -0.00000000000E+00 -0.10754957155E+02  0.10754957155E+02  0.00000000000E+00 0.  1.
         25    1    1    2    0    0  0.00000000000E+00  0.00000000000E+00  0.35244965106E+03  0.37395956537E+03  0.12500000000E+03 0.  0.
<mgrwt>
<rscale>  0 0.12500000E+03</rscale>
<asrwt>0</asrwt>
<pdfrwt beam="1">  1       21 0.55877623E-01 0.12500000E+03</pdfrwt>
<pdfrwt beam="2">  1       21 0.16546091E-02 0.12500000E+03</pdfrwt>
<totfact> 0.49816185E+06</totfact>
</mgrwt>
</event>
<event>
 3    1  0.1602107E-001  0.1250000E+03  0.7546771E-02  0.1235069E+00
         21   -1    0    0  502  501  0.00000000000E+00  0.00000000000E+00  0.47902844737E+02  0.47902844737E+02  0.00000000000E+00 0. -1.
         21   -1    0    0  501  502 -0.00000000000E+00 -0.00000000000E+00 -0.81545261486E+02  0.81545261486E+02  0.00000000000E+00 0. -1.
         25    1    1    2    0    0  0.00000000000E+00  0.00000000000E+00 -0.33642416749E+02  0.12944810622E+03  0.12500000000E+03 0.  0.
<mgrwt>
<rscale>  0 0.12500000E+03</rscale>
<asrwt>0</asrwt>
<pdfrwt beam="1">  1       21 0.73696685E-02 0.12500000E+03</pdfrwt>
<pdfrwt beam="2">  1       21 0.12545425E-01 0.12500000E+03</pdfrwt>
<totfact> 0.73438769E+06</totfact>
</mgrwt>
</event>
<event>
 3    1  0.1602107E-001  0.1250000E+03  0.7546771E-02  0.1235069E+00
         21   -1    0    0  502  501  0.00000000000E+00  0.00000000000E+00  0.15869654534E+03  0.15869654534E+03  0.00000000000E+00 0. -1.
         21   -1    0    0  501  502 -0.00000000000E+00 -0.00000000000E+00 -0.24614587492E+02  0.24614587492E+02  0.00000000000E+00 0. -1.
         25    1    1    2    0    0  0.00000000000E+00  0.00000000000E+00  0.13408195785E+03  0.18331113283E+03  0.12500000000E+03 0.  0.
<mgrwt>
<rscale>  0 0.12500000E+03</rscale>
<asrwt>0</asrwt>
<pdfrwt beam="1">  1       21 0.24414852E-01 0.12500000E+03</pdfrwt>
<pdfrwt beam="2">  1       21 0.37868597E-02 0.12500000E+03</pdfrwt>
<totfact> 0.66773710E+06</totfact>
</mgrwt>
</event>
<event>
 3    1  0.1602107E-001  0.1250000E+03  0.7546771E-02  0.1235069E+00
         21   -1    0    0  502  501  0.00000000000E+00  0.00000000000E+00  0.21471778663E+03  0.21471778663E+03  0.00000000000E+00 0. -1.
         21   -1    0    0  501  502 -0.00000000000E+00 -0.00000000000E+00 -0.18192484476E+02  0.18192484476E+02  0.00000000000E+00 0. -1.
         25    1    1    2    0    0  0.00000000000E+00  0.00000000000E+00  0.19652530215E+03  0.23291027110E+03  0.12500000000E+03 0.  0.
<mgrwt>
<rscale>  0 0.12500000E+03</rscale>
<asrwt>0</asrwt>
<pdfrwt beam="1">  1       21 0.33033504E-01 0.12500000E+03</pdfrwt>
<pdfrwt beam="2">  1       21 0.27988439E-02 0.12500000E+03</pdfrwt>
<totfact> 0.61525545E+06</totfact>
</mgrwt>
</event>
<event>
 3    1  0.1602107E-001  0.1250000E+03  0.7546771E-02  0.1235069E+00
         21   -1    0    0  502  501  0.00000000000E+00  0.00000000000E+00  0.74854098268E+02  0.74854098268E+02  0.00000000000E+00 0.  1.
         21   -1    0    0  501  502 -0.00000000000E+00 -0.00000000000E+00 -0.52184851469E+02  0.52184851469E+02  0.00000000000E+00 0.  1.
         25    1    1    2    0    0  0.00000000000E+00  0.00000000000E+00  0.22669246799E+02  0.12703894974E+03  0.12500000000E+03 0.  0.
<mgrwt>
<rscale>  0 0.12500000E+03</rscale>
<asrwt>0</asrwt>
<pdfrwt beam="1">  1       21 0.11516015E-01 0.12500000E+03</pdfrwt>
<pdfrwt beam="2">  1       21 0.80284387E-02 0.12500000E+03</pdfrwt>
<totfact> 0.73763835E+06</totfact>
</mgrwt>
</event>
<event>
 3    1  0.1602107E-001  0.1250000E+03  0.7546771E-02  0.1235069E+00
         21   -1    0    0  502  501  0.00000000000E+00  0.00000000000E+00  0.38048174122E+03  0.38048174122E+03  0.00000000000E+00 0.  1.
         21   -1    0    0  501  502 -0.00000000000E+00 -0.00000000000E+00 -0.10266589896E+02  0.10266589896E+02  0.00000000000E+00 0.  1.
         25    1    1    2    0    0  0.00000000000E+00  0.00000000000E+00  0.37021515132E+03  0.39074833112E+03  0.12500000000E+03 0.  0.
<mgrwt>
<rscale>  0 0.12500000E+03</rscale>
<asrwt>0</asrwt>
<pdfrwt beam="1">  1       21 0.58535642E-01 0.12500000E+03</pdfrwt>
<pdfrwt beam="2">  1       21 0.15794757E-02 0.12500000E+03</pdfrwt>
<totfact> 0.48661123E+06</totfact>
</mgrwt>
</event>
<event>
 3    1  0.1602107E-001  0.1250000E+03  0.7546771E-02  0.1235069E+00
         21   -1    0    0  502  501  0.00000000000E+00  0.00000000000E+00  0.95137435374E+02  0.95137435374E+02  0.00000000000E+00 0. -1.
         21   -1    0    0  501  502 -0.00000000000E+00 -0.00000000000E+00 -0.41059021453E+02  0.41059021453E+02  0.00000000000E+00 0. -1.
         25    1    1    2    0    0  0.00000000000E+00  0.00000000000E+00  0.54078413921E+02  0.13619645683E+03  0.12500000000E+03 0.  0.
<mgrwt>
<rscale>  0 0.12500000E+03</rscale>
<asrwt>0</asrwt>
<pdfrwt beam="1">  1       21 0.14636528E-01 0.12500000E+03</pdfrwt>
<pdfrwt beam="2">  1       21 0.63167725E-02 0.12500000E+03</pdfrwt>
<totfact> 0.72538439E+06</totfact>
</mgrwt>
</event>
<event>
 3    1  0.1602107E-001  0.1250000E+03  0.7546771E-02  0.1235069E+00
         21   -1    0    0  502  501  0.00000000000E+00  0.00000000000E+00  0.11768343607E+02  0.11768343607E+02  0.00000000000E+00 0. -1.
         21   -1    0    0  501  502 -0.00000000000E+00 -0.00000000000E+00 -0.33192861549E+03  0.33192861549E+03  0.00000000000E+00 0. -1.
         25    1    1    2    0    0  0.00000000000E+00  0.00000000000E+00 -0.32016027188E+03  0.34369695909E+03  0.12500000000E+03 0.  0.
<mgrwt>
<rscale>  0 0.12500000E+03</rscale>
<asrwt>0</asrwt>
<pdfrwt beam="1">  1       21 0.18105147E-02 0.12500000E+03</pdfrwt>
<pdfrwt beam="2">  1       21 0.51065932E-01 0.12500000E+03</pdfrwt>
<totfact> 0.52007328E+06</totfact>
</mgrwt>
</event>
<event>
 3    1  0.1602107E-001  0.1250000E+03  0.7546771E-02  0.1235069E+00
         21   -1    0    0  502  501  0.00000000000E+00  0.00000000000E+00  0.20637476766E+03  0.20637476766E+03  0.00000000000E+00 0.  1.
         21   -1    0    0  501  502 -0.00000000000E+00 -0.00000000000E+00 -0.18927943781E+02  0.18927943781E+02  0.00000000000E+00 0.  1.
         25    1    1    2    0    0  0.00000000000E+00  0.00000000000E+00  0.18744682387E+03  0.22530271144E+03  0.12500000000E+03 0.  0.
<mgrwt>
<rscale>  0 0.12500000E+03</rscale>
<asrwt>0</asrwt>
<pdfrwt beam="1">  1       21 0.31749963E-01 0.12500000E+03</pdfrwt>
<pdfrwt beam="2">  1       21 0.29119915E-02 0.12500000E+03</pdfrwt>
<totfact> 0.62284570E+06</totfact>
</mgrwt>
</event>
<event>
 3    1  0.1602107E-001  0.1250000E+03  0.7546771E-02  0.1235069E+00
         21   -1    0    0  502  501  0.00000000000E+00  0.00000000000E+00  0.19923672651E+03  0.19923672651E+03  0.00000000000E+00 0. -1.
         21   -1    0    0  501  502 -0.00000000000E+00 -0.00000000000E+00 -0.19606073982E+02  0.19606073982E+02  0.00000000000E+00 0. -1.
         25    1    1    2    0    0  0.00000000000E+00  0.00000000000E+00  0.17963065253E+03  0.21884280050E+03  0.12500000000E+03 0.  0.
<mgrwt>
<rscale>  0 0.12500000E+03</rscale>
<asrwt>0</asrwt>
<pdfrwt beam="1">  1       21 0.30651803E-01 0.12500000E+03</pdfrwt>
<pdfrwt beam="2">  1       21 0.30163192E-02 0.12500000E+03</pdfrwt>
<totfact> 0.62941013E+06</totfact>
</mgrwt>
</event>
<event>
 3    1  0.1602107E-001  0.1250000E+03  0.7546771E-02  0.1235069E+00
         21   -1    0    0  502  501  0.00000000000E+00  0.00000000000E+00  0.22733465262E+03  0.22733465262E+03  0.00000000000E+00 0.  1.
         21   -1    0    0  501  502 -0.00000000000E+00 -0.00000000000E+00 -0.17182818171E+02  0.17182818171E+02  0.00000000000E+00 0.  1.
         25    1    1    2    0    0  0.00000000000E+00  0.00000000000E+00  0.21015183445E+03  0.24451747080E+03  0.12500000000E+03 0.  0.
<mgrwt>
<rscale>  0 0.12500000E+03</rscale>
<asrwt>0</asrwt>
<pdfrwt beam="1">  1       21 0.34974560E-01 0.12500000E+03</pdfrwt>
<pdfrwt beam="2">  1       21 0.26435106E-02 0.12500000E+03</pdfrwt>
<totfact> 0.60398237E+06</totfact>
</mgrwt>
</event>
<event>
 3    1  0.1602107E-001  0.1250000E+03  0.7546771E-02  0.1235069E+00
         21   -1    0    0  502  501  0.00000000000E+00  0.00000000000E+00  0.10389292027E+02  0.10389292027E+02  0.00000000000E+00 0.  1.
         21   -1    0    0  501  502 -0.00000000000E+00 -0.00000000000E+00 -0.37598808369E+03  0.37598808369E+03  0.00000000000E+00 0.  1.
         25    1    1    2    0    0  0.00000000000E+00  0.00000000000E+00 -0.36559879166E+03  0.38637737571E+03  0.12500000000E+03 0.  0.
<mgrwt>
<rscale>  0 0.12500000E+03</rscale>
<asrwt>0</asrwt>
<pdfrwt beam="1">  1       21 0.15983528E-02 0.12500000E+03</pdfrwt>
<pdfrwt beam="2">  1       21 0.57844314E-01 0.12500000E+03</pdfrwt>
<totfact> 0.48958249E+06</totfact>
</mgrwt>
</event>
<event>
 3    1  0.1602107E-001  0.1250000E+03  0.7546771E-02  0.1235069E+00
         21   -1    0    0  502  501  0.00000000000E+00  0.00000000000E+00  0.18599520900E+02  0.18599520900E+02  0.00000000000E+00 0. -1.
         21   -1    0    0  501  502 -0.00000000000E+00 -0.00000000000E+00 -0.21001885053E+03  0.21001885053E+03  0.00000000000E+00 0. -1.
         25    1    1    2    0    0  0.00000000000E+00  0.00000000000E+00 -0.19141932963E+03  0.22861837143E+03  0.12500000000E+03 0.  0.
<mgrwt>
<rscale>  0 0.12500000E+03</rscale>
<asrwt>0</asrwt>
<pdfrwt beam="1">  1       21 0.28614648E-02 0.12500000E+03</pdfrwt>
<pdfrwt beam="2">  1       21 0.32310592E-01 0.12500000E+03</pdfrwt>
<totfact> 0.61951745E+06</totfact>
</mgrwt>
</event>
<event>
 3    1  0.1602107E-001  0.1250000E+03  0.7546771E-02  0.1235069E+00
         21   -1    0    0  502  501  0.00000000000E+00  0.00000000000E+00  0.20314670771E+02  0.20314670771E+02  0.00000000000E+00 0. -1.
         21   -1    0    0  501  502 -0.00000000000E+00 -0.00000000000E+00 -0.19228714282E+03  0.19228714282E+03  0.00000000000E+00 0. -1.
         25    1    1    2    0    0  0.00000000000E+00  0.00000000000E+00 -0.17197247205E+03  0.21260181359E+03  0.12500000000E+03 0.  0.
<mgrwt>
<rscale>  0 0.12500000E+03</rscale>
<asrwt>0</asrwt>
<pdfrwt beam="1">  1       21 0.31253339E-02 0.12500000E+03</pdfrwt>
<pdfrwt beam="2">  1       21 0.29582638E-01 0.12500000E+03</pdfrwt>
<totfact> 0.63586830E+06</totfact>
</mgrwt>
</event>
<event>
 3    1  0.1602107E-001  0.1250000E+03  0.7546771E-02  0.1235069E+00
         21   -1    0    0  502  501  0.00000000000E+00  0.00000000000E+00  0.47334678349E+02  0.47334678349E+02  0.00000000000E+00 0. -1.
         21   -1    0    0  501  502 -0.00000000000E+00 -0.00000000000E+00 -0.82524063462E+02  0.82524063462E+02  0.00000000000E+00 0. -1.
         25    1    1    2    0    0  0.00000000000E+00  0.00000000000E+00 -0.35189385113E+02  0.12985874181E+03  0.12500000000E+03 0.  0.
<mgrwt>
<rscale>  0 0.12500000E+03</rscale>
<asrwt>0</asrwt>
<pdfrwt beam="1">  1       21 0.72822582E-02 0.12500000E+03</pdfrwt>
<pdfrwt beam="2">  1       21 0.12696010E-01 0.12500000E+03</pdfrwt>
<totfact> 0.73383800E+06</totfact>
</mgrwt>
</event>
<event>
 3    1  0.1602107E-001  0.1250000E+03  0.7546771E-02  0.1235069E+00
         21   -1    0    0  502  501  0.00000000000E+00  0.00000000000E+00  0.99233198594E+02  0.99233198594E+02  0.00000000000E+00 0.  1.
         21   -1    0    0  501  502 -0.00000000000E+00 -0.00000000000E+00 -0.39364346361E+02  0.39364346361E+02  0.00000000000E+00 0.  1.
         25    1    1    2    0    0  0.00000000000E+00  0.00000000000E+00  0.59868852233E+02  0.13859754496E+03  0.12500000000E+03 0.  0.
<mgrwt>
<rscale>  0 0.12500000E+03</rscale>
<asrwt>0</asrwt>
<pdfrwt beam="1">  1       21 0.15266646E-01 0.12500000E+03</pdfrwt>
<pdfrwt beam="2">  1       21 0.60560533E-02 0.12500000E+03</pdfrwt>
<totfact> 0.72222929E+06</totfact>
</mgrwt>
</event>
<event>
 3    1  0.1602107E-001  0.1250000E+03  0.7546771E-02  0.1235069E+00
         21   -1    0    0  502  501  0.00000000000E+00  0.00000000000E+00  0.23467605604E+02  0.23467605604E+02  0.00000000000E+00 0. -1.
         21   -1    0    0  501  502 -0.00000000000E+00 -0.00000000000E+00 -0.16645285701E+03  0.16645285701E+03  0.00000000000E+00 0. -1.
         25    1    1    2    0    0  0.00000000000E+00  0.00000000000E+00 -0.14298525141E+03  0.18992046262E+03  0.12500000000E+03 0.  0.
<mgrwt>
<rscale>  0 0.12500000E+03</rscale>
<asrwt>0</asrwt>
<pdfrwt beam="1">  1       21 0.36104010E-02 0.12500000E+03</pdfrwt>
<pdfrwt beam="2">  1       21 0.25608131E-01 0.12500000E+03</pdfrwt>
<totfact> 0.66031305E+06</totfact>
</mgrwt>
</event>
<event>
 3    1  0.1602107E-001  0.1250000E+03  0.7546771E-02  0.1235069E+00
         21   -1    0    0  502  501  0.00000000000E+00  0.00000000000E+00  0.67572917155E+02  0.67572917155E+02  0.00000000000E+00 0.  1.
         21   -1    0    0  501  502 -0.00000000000E+00 -0.00000000000E+00 -0.57807923122E+02  0.57807923122E+02  0.00000000000E+00 0.  1.
         25    1    1    2    0    0  0.00000000000E+00  0.00000000000E+00  0.97649940335E+01  0.12538084028E+03  0.12500000000E+03 0.  0.
<mgrwt>
<rscale>  0 0.12500000E+03</rscale>
<asrwt>0</asrwt>
<pdfrwt beam="1">  1       21 0.10395833E-01 0.12500000E+03</pdfrwt>
<pdfrwt beam="2">  1       21 0.88935266E-02 0.12500000E+03</pdfrwt>
<totfact> 0.73992106E+06</totfact>
</mgrwt>
</event>
<event>
 3    1  0.1602107E-001  0.1250000E+03  0.7546771E-02  0.1235069E+00
         21   -1    0    0  502  501  0.00000000000E+00  0.00000000000E+00  0.41417586517E+02  0.41417586517E+02  0.00000000000E+00 0. -1.
         21   -1    0    0  501  502 -0.00000000000E+00 -0.00000000000E+00 -0.94313800693E+02  0.94313800693E+02  0.00000000000E+00 0. -1.
         25    1    1    2    0    0  0.00000000000E+00  0.00000000000E+00 -0.52896214176E+02  0.13573138721E+03  0.12500000000E+03 0.  0.
<mgrwt>
<rscale>  0 0.12500000E+03</rscale>
<asrwt>0</asrwt>
<pdfrwt beam="1">  1       21 0.63719364E-02 0.12500000E+03</pdfrwt>
<pdfrwt beam="2">  1       21 0.14509815E-01 0.12500000E+03</pdfrwt>
<totfact> 0.72599776E+06</totfact>
</mgrwt>
</event>
<event>
 3    1  0.1602107E-001  0.1250000E+03  0.7546771E-02  0.1235069E+00
         21   -1    0    0  502  501  0.00000000000E+00  0.00000000000E+00  0.20939736106E+02  0.20939736106E+02  0.00000000000E+00 0.  1.
         21   -1    0    0  501  502 -0.00000000000E+00 -0.00000000000E+00 -0.18654724111E+03  0.18654724111E+03  0.00000000000E+00 0.  1.
         25    1    1    2    0    0  0.00000000000E+00  0.00000000000E+00 -0.16560750500E+03  0.20748697721E+03  0.12500000000E+03 0.  0.
<mgrwt>
<rscale>  0 0.12500000E+03</rscale>
<asrwt>0</asrwt>
<pdfrwt beam="1">  1       21 0.32214978E-02 0.12500000E+03</pdfrwt>
<pdfrwt beam="2">  1       21 0.28699576E-01 0.12500000E+03</pdfrwt>
<totfact> 0.64124908E+06</totfact>
</mgrwt>
</event>
<event>
 3    1  0.1602107E-001  0.1250000E+03  0.7546771E-02  0.1235069E+00
         21   -1    0    0  502  501  0.00000000000E+00  0.00000000000E+00  0.19560077602E+03  0.19560077602E+03  0.00000000000E+00 0. -1.
         21   -1    0    0  501  502 -0.00000000000E+00 -0.00000000000E+00 -0.19970524042E+02  0.19970524042E+02  0.00000000000E+00 0. -1.
         25    1    1    2    0    0  0.00000000000E+00  0.00000000000E+00  0.17563025197E+03  0.21557130006E+03  0.12500000000E+03 0.  0.
<mgrwt>
<rscale>  0 0.12500000E+03</rscale>
<asrwt>0</asrwt>
<pdfrwt beam="1">  1       21 0.30092426E-01 0.12500000E+03</pdfrwt>
<pdfrwt beam="2">  1       21 0.30723884E-02 0.12500000E+03</pdfrwt>
<totfact> 0.63278097E+06</totfact>
</mgrwt>
</event>
<event>
 3    1  0.1602107E-001  0.1250000E+03  0.7546771E-02  0.1235069E+00
         21   -1    0    0  502  501  0.00000000000E+00  0.00000000000E+00  0.47785616098E+03  0.47785616098E+03  0.00000000000E+00 0.  1.
         21   -1    0    0  501  502 -0.00000000000E+00 -0.00000000000E+00 -0.81745309970E+01  0.81745309970E+01  0.00000000000E+00 0.  1.
         25    1    1    2    0    0  0.00000000000E+00  0.00000000000E+00  0.46968162998E+03  0.48603069197E+03  0.12500000000E+03 0.  0.
<mgrwt>
<rscale>  0 0.12500000E+03</rscale>
<asrwt>0</asrwt>
<pdfrwt beam="1">  1       21 0.73516310E-01 0.12500000E+03</pdfrwt>
<pdfrwt beam="2">  1       21 0.12576205E-02 0.12500000E+03</pdfrwt>
<totfact> 0.42811940E+06</totfact>
</mgrwt>
</event>
<event>
 3    1  0.1602107E-001  0.1250000E+03  0.7546771E-02  0.1235069E+00
         21   -1    0    0  502  501  0.00000000000E+00  0.00000000000E+00  0.11031243855E+02  0.11031243855E+02  0.00000000000E+00 0. -1.
         21   -1    0    0  501  502 -0.00000000000E+00 -0.00000000000E+00 -0.35410784599E+03  0.35410784599E+03  0.00000000000E+00 0. -1.
         25    1    1    2    0    0  0.00000000000E+00  0.00000000000E+00 -0.34307660214E+03  0.36513908985E+03  0.12500000000E+03 0.  0.
<mgrwt>
<rscale>  0 0.12500000E+03</rscale>
<asrwt>0</asrwt>
<pdfrwt beam="1">  1       21 0.16971143E-02 0.12500000E+03</pdfrwt>
<pdfrwt beam="2">  1       21 0.54478134E-01 0.12500000E+03</pdfrwt>
<totfact> 0.50439433E+06</totfact>
</mgrwt>
</event>
<event>
 3    1  0.1602107E-001  0.1250000E+03  0.7546771E-02  0.1235069E+00
         21   -1    0    0  502  501  0.00000000000E+00  0.00000000000E+00  0.21011569696E+02  0.21011569696E+02  0.00000000000E+00 0. -1.
         21   -1    0    0  501  502 -0.00000000000E+00 -0.00000000000E+00 -0.18590948018E+03  0.18590948018E+03  0.00000000000E+00 0. -1.
         25    1    1    2    0    0  0.00000000000E+00  0.00000000000E+00 -0.16489791049E+03  0.20692104988E+03  0.12500000000E+03 0.  0.
<mgrwt>
<rscale>  0 0.12500000E+03</rscale>
<asrwt>0</asrwt>
<pdfrwt beam="1">  1       21 0.32325491E-02 0.12500000E+03</pdfrwt>
<pdfrwt beam="2">  1       21 0.28601459E-01 0.12500000E+03</pdfrwt>
<totfact> 0.64184939E+06</totfact>
</mgrwt>
</event>
<event>
 3    1  0.1602107E-001  0.1250000E+03  0.7546771E-02  0.1235069E+00
         21   -1    0    0  502  501  0.00000000000E+00  0.00000000000E+00  0.50726984022E+02  0.50726984022E+02  0.00000000000E+00 0. -1.
         21   -1    0    0  501  502 -0.00000000000E+00 -0.00000000000E+00 -0.77005366578E+02  0.77005366578E+02  0.00000000000E+00 0. -1.
         25    1    1    2    0    0  0.00000000000E+00  0.00000000000E+00 -0.26278382556E+02  0.12773235060E+03  0.12500000000E+03 0.  0.
<mgrwt>
<rscale>  0 0.12500000E+03</rscale>
<asrwt>0</asrwt>
<pdfrwt beam="1">  1       21 0.78041514E-02 0.12500000E+03</pdfrwt>
<pdfrwt beam="2">  1       21 0.11846979E-01 0.12500000E+03</pdfrwt>
<totfact> 0.73669747E+06</totfact>
</mgrwt>
</event>
<event>
 3    1  0.1602107E-001  0.1250000E+03  0.7546771E-02  0.1235069E+00
         21   -1    0    0  502  501  0.00000000000E+00  0.00000000000E+00  0.44577805045E+02  0.44577805045E+02  0.00000000000E+00 0. -1.
         21   -1    0    0  501  502 -0.00000000000E+00 -0.00000000000E+00 -0.87627688174E+02  0.87627688174E+02  0.00000000000E+00 0. -1.
         25    1    1    2    0    0  0.00000000000E+00  0.00000000000E+00 -0.43049883129E+02  0.13220549322E+03  0.12500000000E+03 0.  0.
<mgrwt>
<rscale>  0 0.12500000E+03</rscale>
<asrwt>0</asrwt>
<pdfrwt beam="1">  1       21 0.68581239E-02 0.12500000E+03</pdfrwt>
<pdfrwt beam="2">  1       21 0.13481183E-01 0.12500000E+03</pdfrwt>
<totfact> 0.73068678E+06</totfact>
</mgrwt>
</event>
<event>
 3    1  0.1602107E-001  0.1250000E+03  0.7546771E-02  0.1235069E+00
         21   -1    0    0  502  501  0.00000000000E+00  0.00000000000E+00  0.24774728043E+02  0.24774728043E+02  0.00000000000E+00 0. -1.
         21   -1    0    0  501  502 -0.00000000000E+00 -0.00000000000E+00 -0.15767075195E+03  0.15767075195E+03  0.00000000000E+00 0. -1.
         25    1    1    2    0    0  0.00000000000E+00  0.00000000000E+00 -0.13289602391E+03  0.18244548000E+03  0.12500000000E+03 0.  0.
<mgrwt>
<rscale>  0 0.12500000E+03</rscale>
<asrwt>0</asrwt>
<pdfrwt beam="1">  1       21 0.38114967E-02 0.12500000E+03</pdfrwt>
<pdfrwt beam="2">  1       21 0.24257038E-01 0.12500000E+03</pdfrwt>
<totfact> 0.66872101E+06</totfact>
</mgrwt>
</event>
<event>
 3    1  0.1602107E-001  0.1250000E+03  0.7546771E-02  0.1235069E+00
         21   -1    0    0  502  501  0.00000000000E+00  0.00000000000E+00  0.26141379434E+03  0.26141379434E+03  0.00000000000E+00 0. -1.
         21   -1    0    0  501  502 -0.00000000000E+00 -0.00000000000E+00 -0.14942784523E+02  0.14942784523E+02  0.00000000000E+00 0. -1.
         25    1    1    2    0    0  0.00000000000E+00  0.00000000000E+00  0.24647100981E+03  0.27635657886E+03  0.12500000000E+03 0.  0.
<mgrwt>
<rscale>  0 0.12500000E+03</rscale>
<asrwt>0</asrwt>
<pdfrwt beam="1">  1       21 0.40217503E-01 0.12500000E+03</pdfrwt>
<pdfrwt beam="2">  1       21 0.22988901E-02 0.12500000E+03</pdfrwt>
<totfact> 0.57480110E+06</totfact>
</mgrwt>
</event>
<event>
 3    1  0.1602107E-001  0.1250000E+03  0.7546771E-02  0.1235069E+00
         21   -1    0    0  502  501  0.00000000000E+00  0.00000000000E+00  0.99258024754E+03  0.99258024754E+03  0.00000000000E+00 0.  1.
         21   -1    0    0  501  502 -0.00000000000E+00 -0.00000000000E+00 -0.39354500653E+01  0.39354500653E+01  0.00000000000E+00 0.  1.
         25    1    1    2    0    0  0.00000000000E+00  0.00000000000E+00  0.98864479747E+03  0.99651569760E+03  0.12500000000E+03 0.  0.
<mgrwt>
<rscale>  0 0.12500000E+03</rscale>
<asrwt>0</asrwt>
<pdfrwt beam="1">  1       21 0.15270445E+00 0.12500000E+03</pdfrwt>
<pdfrwt beam="2">  1       21 0.60545465E-03 0.12500000E+03</pdfrwt>
<totfact> 0.23705953E+06</totfact>
</mgrwt>
</event>
<event>
 3    1  0.1602107E-001  0.1250000E+03  0.7546771E-02  0.1235069E+00
         21   -1    0    0  502  501  0.00000000000E+00  0.00000000000E+00  0.16092486078E+03  0.16092486078E+03  0.00000000000E+00 0. -1.
         21   -1    0    0  501  502 -0.00000000000E+00 -0.00000000000E+00 -0.24273750998E+02  0.24273750998E+02  0.00000000000E+00 0. -1.
         25    1    1    2    0    0  0.00000000000E+00  0.00000000000E+00  0.13665110978E+03  0.18519861178E+03  0.12500000000E+03 0.  0.
<mgrwt>
<rscale>  0 0.12500000E+03</rscale>
<asrwt>0</asrwt>
<pdfrwt beam="1">  1       21 0.24757670E-01 0.12500000E+03</pdfrwt>
<pdfrwt beam="2">  1       21 0.37344233E-02 0.12500000E+03</pdfrwt>
<totfact> 0.66560115E+06</totfact>
</mgrwt>
</event>
<event>
 3    1  0.1602107E-001  0.1250000E+03  0.7546771E-02  0.1235069E+00
         21   -1    0    0  502  501  0.00000000000E+00  0.00000000000E+00  0.39639468644E+02  0.39639468644E+02  0.00000000000E+00 0.  1.
         21   -1    0    0  501  502 -0.00000000000E+00 -0.00000000000E+00 -0.98544459187E+02  0.98544459187E+02  0.00000000000E+00 0.  1.
         25    1    1    2    0    0  0.00000000000E+00  0.00000000000E+00 -0.58904990542E+02  0.13818392783E+03  0.12500000000E+03 0.  0.
<mgrwt>
<rscale>  0 0.12500000E+03</rscale>
<asrwt>0</asrwt>
<pdfrwt beam="1">  1       21 0.60983798E-02 0.12500000E+03</pdfrwt>
<pdfrwt beam="2">  1       21 0.15160686E-01 0.12500000E+03</pdfrwt>
<totfact> 0.72277288E+06</totfact>
</mgrwt>
</event>
<event>
 3    1  0.1602107E-001  0.1250000E+03  0.7546771E-02  0.1235069E+00
         21   -1    0    0  502  501  0.00000000000E+00  0.00000000000E+00  0.71290503027E+03  0.71290503027E+03  0.00000000000E+00 0. -1.
         21   -1    0    0  501  502 -0.00000000000E+00 -0.00000000000E+00 -0.54793413346E+01  0.54793413346E+01  0.00000000000E+00 0. -1.
         25    1    1    2    0    0  0.00000000000E+00  0.00000000000E+00  0.70742568894E+03  0.71838437161E+03  0.12500000000E+03 0.  0.
<mgrwt>
<rscale>  0 0.12500000E+03</rscale>
<asrwt>0</asrwt>
<pdfrwt beam="1">  1       21 0.10967762E+00 0.12500000E+03</pdfrwt>
<pdfrwt beam="2">  1       21 0.84297615E-03 0.12500000E+03</pdfrwt>
<totfact> 0.32213322E+06</totfact>
</mgrwt>
</event>
<event>
 3    1  0.1602107E-001  0.1250000E+03  0.7546771E-02  0.1235069E+00
         21   -1    0    0  502  501  0.00000000000E+00  0.00000000000E+00  0.29832410825E+02  0.29832410825E+02  0.00000000000E+00 0. -1.
         21   -1    0    0  501  502 -0.00000000000E+00 -0.00000000000E+00 -0.13093980312E+03  0.13093980312E+03  0.00000000000E+00 0. -1.
         25    1    1    2    0    0  0.00000000000E+00  0.00000000000E+00 -0.10110739229E+03  0.16077221394E+03  0.12500000000E+03 0.  0.
<mgrwt>
<rscale>  0 0.12500000E+03</rscale>
<asrwt>0</asrwt>
<pdfrwt beam="1">  1       21 0.45896016E-02 0.12500000E+03</pdfrwt>
<pdfrwt beam="2">  1       21 0.20144585E-01 0.12500000E+03</pdfrwt>
<totfact> 0.69425262E+06</totfact>
</mgrwt>
</event>
<event>
 3    1  0.1602107E-001  0.1250000E+03  0.7546771E-02  0.1235069E+00
         21   -1    0    0  502  501  0.00000000000E+00  0.00000000000E+00  0.24683140460E+02  0.24683140460E+02  0.00000000000E+00 0. -1.
         21   -1    0    0  501  502 -0.00000000000E+00 -0.00000000000E+00 -0.15825579433E+03  0.15825579433E+03  0.00000000000E+00 0. -1.
         25    1    1    2    0    0  0.00000000000E+00  0.00000000000E+00 -0.13357265387E+03  0.18293893479E+03  0.12500000000E+03 0.  0.
<mgrwt>
<rscale>  0 0.12500000E+03</rscale>
<asrwt>0</asrwt>
<pdfrwt beam="1">  1       21 0.37974063E-02 0.12500000E+03</pdfrwt>
<pdfrwt beam="2">  1       21 0.24347045E-01 0.12500000E+03</pdfrwt>
<totfact> 0.66815981E+06</totfact>
</mgrwt>
</event>
<event>
 3    1  0.1602107E-001  0.1250000E+03  0.7546771E-02  0.1235069E+00
         21   -1    0    0  502  501  0.00000000000E+00  0.00000000000E+00  0.75768706446E+01  0.75768706446E+01  0.00000000000E+00 0. -1.
         21   -1    0    0  501  502 -0.00000000000E+00 -0.00000000000E+00 -0.51554925288E+03  0.51554925288E+03  0.00000000000E+00 0. -1.
         25    1    1    2    0    0  0.00000000000E+00  0.00000000000E+00 -0.50797238224E+03  0.52312612353E+03  0.12500000000E+03 0.  0.
<mgrwt>
<rscale>  0 0.12500000E+03</rscale>
<asrwt>0</asrwt>
<pdfrwt beam="1">  1       21 0.11656720E-02 0.12500000E+03</pdfrwt>
<pdfrwt beam="2">  1       21 0.79315298E-01 0.12500000E+03</pdfrwt>
<totfact> 0.40817024E+06</totfact>
</mgrwt>
</event>
<event>
 3    1  0.1602107E-001  0.1250000E+03  0.7546771E-02  0.1235069E+00
         21   -1    0    0  502  501  0.00000000000E+00  0.00000000000E+00  0.11307739593E+03  0.11307739593E+03  0.00000000000E+00 0. -1.
         21   -1    0    0  501  502 -0.00000000000E+00 -0.00000000000E+00 -0.34544923571E+02  0.34544923571E+02  0.00000000000E+00 0. -1.
         25    1    1    2    0    0  0.00000000000E+00  0.00000000000E+00  0.78532472359E+02  0.14762231950E+03  0.12500000000E+03 0.  0.
<mgrwt>
<rscale>  0 0.12500000E+03</rscale>
<asrwt>0</asrwt>
<pdfrwt beam="1">  1       21 0.17396522E-01 0.12500000E+03</pdfrwt>
<pdfrwt beam="2">  1       21 0.53146037E-02 0.12500000E+03</pdfrwt>
<totfact> 0.71059174E+06</totfact>
</mgrwt>
</event>
<event>
 3    1  0.1602107E-001  0.1250000E+03  0.7546771E-02  0.1235069E+00
         21   -1    0    0  502  501  0.00000000000E+00  0.00000000000E+00  0.70139307057E+02  0.70139307057E+02  0.00000000000E+00 0.  1.
         21   -1    0    0  501  502 -0.00000000000E+00 -0.00000000000E+00 -0.55692737266E+02  0.55692737266E+02  0.00000000000E+00 0.  1.
         25    1    1    2    0    0  0.00000000000E+00  0.00000000000E+00  0.14446569791E+02  0.12583204432E+03  0.12500000000E+03 0.  0.
<mgrwt>
<rscale>  0 0.12500000E+03</rscale>
<asrwt>0</asrwt>
<pdfrwt beam="1">  1       21 0.10790663E-01 0.12500000E+03</pdfrwt>
<pdfrwt beam="2">  1       21 0.85681134E-02 0.12500000E+03</pdfrwt>
<totfact> 0.73929236E+06</totfact>
</mgrwt>
</event>
<event>
 3    1  0.1602107E-001  0.1250000E+03  0.7546771E-02  0.1235069E+00
         21   -1    0    0  502  501  0.00000000000E+00  0.00000000000E+00  0.16524633922E+03  0.16524633922E+03  0.00000000000E+00 0.  1.
         21   -1    0    0  501  502 -0.00000000000E+00 -0.00000000000E+00 -0.23638950299E+02  0.23638950299E+02  0.00000000000E+00 0.  1.
         25    1    1    2    0    0  0.00000000000E+00  0.00000000000E+00  0.14160738892E+03  0.18888528952E+03  0.12500000000E+03 0.  0.
<mgrwt>
<rscale>  0 0.12500000E+03</rscale>
<asrwt>0</asrwt>
<pdfrwt beam="1">  1       21 0.25422513E-01 0.12500000E+03</pdfrwt>
<pdfrwt beam="2">  1       21 0.36367617E-02 0.12500000E+03</pdfrwt>
<totfact> 0.66146568E+06</totfact>
</mgrwt>
</event>
<event>
 3    1  0.1602107E-001  0.1250000E+03  0.7546771E-02  0.1235069E+00
         21   -1    0    0  502  501  0.00000000000E+00  0.00000000000E+00  0.24967822105E+02  0.24967822105E+02  0.00000000000E+00 0.  1.
         21   -1    0    0  501  502 -0.00000000000E+00 -0.00000000000E+00 -0.15645137103E+03  0.15645137103E+03  0.00000000000E+00 0.  1.
         25    1    1    2    0    0  0.00000000000E+00  0.00000000000E+00 -0.13148354893E+03  0.18141919314E+03  0.12500000000E+03 0.  0.
<mgrwt>
<rscale>  0 0.12500000E+03</rscale>
<asrwt>0</asrwt>
<pdfrwt beam="1">  1       21 0.38412035E-02 0.12500000E+03</pdfrwt>
<pdfrwt beam="2">  1       21 0.24069441E-01 0.12500000E+03</pdfrwt>
<totfact> 0.66989103E+06</totfact>
</mgrwt>
</event>
<event>
 3    1  0.1602107E-001  0.1250000E+03  0.7546771E-02  0.1235069E+00
         21   -1    0    0  502  501  0.00000000000E+00  0.00000000000E+00  0.37088943959E+02  0.37088943959E+02  0.00000000000E+00 0.  1.
         21   -1    0    0  501  502 -0.00000000000E+00 -0.00000000000E+00 -0.10532114380E+03  0.10532114380E+03  0.00000000000E+00 0.  1.
         25    1    1    2    0    0  0.00000000000E+00  0.00000000000E+00 -0.68232199839E+02  0.14241008776E+03  0.12500000000E+03 0.  0.
<mgrwt>
<rscale>  0 0.12500000E+03</rscale>
<asrwt>0</asrwt>
<pdfrwt beam="1">  1       21 0.57059914E-02 0.12500000E+03</pdfrwt>
<pdfrwt beam="2">  1       21 0.16203253E-01 0.12500000E+03</pdfrwt>
<totfact> 0.71726217E+06</totfact>
</mgrwt>
</event>
<event>
 3    1  0.1602107E-001  0.1250000E+03  0.7546771E-02  0.1235069E+00
         21   -1    0    0  502  501  0.00000000000E+00  0.00000000000E+00  0.22030164371E+03  0.22030164371E+03  0.00000000000E+00 0.  1.
         21   -1    0    0  501  502 -0.00000000000E+00 -0.00000000000E+00 -0.17731370198E+02  0.17731370198E+02  0.00000000000E+00 0.  1.
         25    1    1    2    0    0  0.00000000000E+00  0.00000000000E+00  0.20257027351E+03  0.23803301391E+03  0.12500000000E+03 0.  0.
<mgrwt>
<rscale>  0 0.12500000E+03</rscale>
<asrwt>0</asrwt>
<pdfrwt beam="1">  1       21 0.33892559E-01 0.12500000E+03</pdfrwt>
<pdfrwt beam="2">  1       21 0.27279033E-02 0.12500000E+03</pdfrwt>
<totfact> 0.61023525E+06</totfact>
</mgrwt>
</event>
<event>
 3    1  0.1602107E-001  0.1250000E+03  0.7546771E-02  0.1235069E+00
         21   -1    0    0  502  501  0.00000000000E+00  0.00000000000E+00  0.28792948903E+03  0.28792948903E+03  0.00000000000E+00 0.  1.
         21   -1    0    0  501  502 -0.00000000000E+00 -0.00000000000E+00 -0.13566689585E+02  0.13566689585E+02  0.00000000000E+00 0.  1.
         25    1    1    2    0    0  0.00000000000E+00  0.00000000000E+00  0.27436279944E+03  0.30149617861E+03  0.12500000000E+03 0.  0.
<mgrwt>
<rscale>  0 0.12500000E+03</rscale>
<asrwt>0</asrwt>
<pdfrwt beam="1">  1       21 0.44296840E-01 0.12500000E+03</pdfrwt>
<pdfrwt beam="2">  1       21 0.20871832E-02 0.12500000E+03</pdfrwt>
<totfact> 0.55332066E+06</totfact>
</mgrwt>
</event>
<event>
 3    1  0.1602107E-001  0.1250000E+03  0.7546771E-02  0.1235069E+00
         21   -1    0    0  502  501  0.00000000000E+00  0.00000000000E+00  0.10566459601E+03  0.10566459601E+03  0.00000000000E+00 0. -1.
         21   -1    0    0  501  502 -0.00000000000E+00 -0.00000000000E+00 -0.36968390052E+02  0.36968390052E+02  0.00000000000E+00 0. -1.
         25    1    1    2    0    0  0.00000000000E+00  0.00000000000E+00  0.68696205957E+02  0.14263298606E+03  0.12500000000E+03 0.  0.
<mgrwt>
<rscale>  0 0.12500000E+03</rscale>
<asrwt>0</asrwt>
<pdfrwt beam="1">  1       21 0.16256092E-01 0.12500000E+03</pdfrwt>
<pdfrwt beam="2">  1       21 0.56874447E-02 0.12500000E+03</pdfrwt>
<totfact> 0.71697414E+06</totfact>
</mgrwt>
</event>
<event>
 3    1  0.1602107E-001  0.1250000E+03  0.7546771E-02  0.1235069E+00
         21   -1    0    0  502  501  0.00000000000E+00  0.00000000000E+00  0.15037232736E+02  0.15037232736E+02  0.00000000000E+00 0. -1.
         21   -1    0    0  501  502 -0.00000000000E+00 -0.00000000000E+00 -0.25977186552E+03  0.25977186552E+03  0.00000000000E+00 0. -1.
         25    1    1    2    0    0  0.00000000000E+00  0.00000000000E+00 -0.24473463278E+03  0.27480909825E+03  0.12500000000E+03 0.  0.
<mgrwt>
<rscale>  0 0.12500000E+03</rscale>
<asrwt>0</asrwt>
<pdfrwt beam="1">  1       21 0.23134205E-02 0.12500000E+03</pdfrwt>
<pdfrwt beam="2">  1       21 0.39964901E-01 0.12500000E+03</pdfrwt>
<totfact> 0.57616836E+06</totfact>
</mgrwt>
</event>
<event>
 3    1  0.1602107E-001  0.1250000E+03  0.7546771E-02  0.1235069E+00
         21   -1    0    0  502  501  0.00000000000E+00  0.00000000000E+00  0.87372104635E+02  0.87372104635E+02  0.00000000000E+00 0. -1.
         21   -1    0    0  501  502 -0.00000000000E+00 -0.00000000000E+00 -0.44708205397E+02  0.44708205397E+02  0.00000000000E+00 0. -1.
         25    1    1    2    0    0  0.00000000000E+00  0.00000000000E+00  0.42663899237E+02  0.13208031003E+03  0.12500000000E+03 0.  0.
<mgrwt>
<rscale>  0 0.12500000E+03</rscale>
<asrwt>0</asrwt>
<pdfrwt beam="1">  1       21 0.13441862E-01 0.12500000E+03</pdfrwt>
<pdfrwt beam="2">  1       21 0.68781854E-02 0.12500000E+03</pdfrwt>
<totfact> 0.73085459E+06</totfact>
</mgrwt>
</event>
<event>
 3    1  0.1602107E-001  0.1250000E+03  0.7546771E-02  0.1235069E+00
         21   -1    0    0  502  501  0.00000000000E+00  0.00000000000E+00  0.18988932331E+03  0.18988932331E+03  0.00000000000E+00 0. -1.
         21   -1    0    0  501  502 -0.00000000000E+00 -0.00000000000E+00 -0.20571193430E+02  0.20571193430E+02  0.00000000000E+00 0. -1.
         25    1    1    2    0    0  0.00000000000E+00  0.00000000000E+00  0.16931812988E+03  0.21046051674E+03  0.12500000000E+03 0.  0.
<mgrwt>
<rscale>  0 0.12500000E+03</rscale>
<asrwt>0</asrwt>
<pdfrwt beam="1">  1       21 0.29213741E-01 0.12500000E+03</pdfrwt>
<pdfrwt beam="2">  1       21 0.31647991E-02 0.12500000E+03</pdfrwt>
<totfact> 0.63811117E+06</totfact>
</mgrwt>
</event>
<event>
 3    1  0.1602107E-001  0.1250000E+03  0.7546771E-02  0.1235069E+00
         21   -1    0    0  502  501  0.00000000000E+00  0.00000000000E+00  0.45986246672E+01  0.45986246672E+01  0.00000000000E+00 0.  1.
         21   -1    0    0  501  502 -0.00000000000E+00 -0.00000000000E+00 -0.84943875240E+03  0.84943875240E+03  0.00000000000E+00 0.  1.
         25    1    1    2    0    0  0.00000000000E+00  0.00000000000E+00 -0.84484012773E+03  0.85403737706E+03  0.12500000000E+03 0.  0.
<mgrwt>
<rscale>  0 0.12500000E+03</rscale>
<asrwt>0</asrwt>
<pdfrwt beam="1">  1       21 0.70748155E-03 0.12500000E+03</pdfrwt>
<pdfrwt beam="2">  1       21 0.13068273E+00 0.12500000E+03</pdfrwt>
<totfact> 0.27648807E+06</totfact>
</mgrwt>
</event>
<event>
 3    1  0.1602107E-001  0.1250000E+03  0.7546771E-02  0.1235069E+00
         21   -1    0    0  502  501  0.00000000000E+00  0.00000000000E+00  0.10281169265E+02  0.10281169265E+02  0.00000000000E+00 0. -1.
         21   -1    0    0  501  502 -0.00000000000E+00 -0.00000000000E+00 -0.37994219329E+03  0.37994219329E+03  0.00000000000E+00 0. -1.
         25    1    1    2    0    0  0.00000000000E+00  0.00000000000E+00 -0.36966102402E+03  0.39022336255E+03  0.12500000000E+03 0.  0.
<mgrwt>
<rscale>  0 0.12500000E+03</rscale>
<asrwt>0</asrwt>
<pdfrwt beam="1">  1       21 0.15817185E-02 0.12500000E+03</pdfrwt>
<pdfrwt beam="2">  1       21 0.58452641E-01 0.12500000E+03</pdfrwt>
<totfact> 0.48696659E+06</totfact>
</mgrwt>
</event>
<event>
 3    1  0.1602107E-001  0.1250000E+03  0.7546771E-02  0.1235069E+00
         21   -1    0    0  502  501  0.00000000000E+00  0.00000000000E+00  0.13379572281E+02  0.13379572281E+02  0.00000000000E+00 0. -1.
         21   -1    0    0  501  502 -0.00000000000E+00 -0.00000000000E+00 -0.29195626870E+03  0.29195626870E+03  0.00000000000E+00 0. -1.
         25    1    1    2    0    0  0.00000000000E+00  0.00000000000E+00 -0.27857669642E+03  0.30533584098E+03  0.12500000000E+03 0.  0.
<mgrwt>
<rscale>  0 0.12500000E+03</rscale>
<asrwt>0</asrwt>
<pdfrwt beam="1">  1       21 0.20583958E-02 0.12500000E+03</pdfrwt>
<pdfrwt beam="2">  1       21 0.44916347E-01 0.12500000E+03</pdfrwt>
<totfact> 0.55015640E+06</totfact>
</mgrwt>
</event>
<event>
 3    1  0.1602107E-001  0.1250000E+03  0.7546771E-02  0.1235069E+00
         21   -1    0    0  502  501  0.00000000000E+00  0.00000000000E+00  0.14743055922E+03  0.14743055922E+03  0.00000000000E+00 0. -1.
         21   -1    0    0  501  502 -0.00000000000E+00 -0.00000000000E+00 -0.26495524542E+02  0.26495524542E+02  0.00000000000E+00 0. -1.
         25    1    1    2    0    0  0.00000000000E+00  0.00000000000E+00  0.12093503468E+03  0.17392608376E+03  0.12500000000E+03 0.  0.
<mgrwt>
<rscale>  0 0.12500000E+03</rscale>
<asrwt>0</asrwt>
<pdfrwt beam="1">  1       21 0.22681624E-01 0.12500000E+03</pdfrwt>
<pdfrwt beam="2">  1       21 0.40762346E-02 0.12500000E+03</pdfrwt>
<totfact> 0.67855241E+06</totfact>
</mgrwt>
</event>
<event>
 3    1  0.1602107E-001  0.1250000E+03  0.7546771E-02  0.1235069E+00
         21   -1    0    0  502  501  0.00000000000E+00  0.00000000000E+00  0.13228588629E+02  0.13228588629E+02  0.00000000000E+00 0.  1.
         21   -1    0    0  501  502 -0.00000000000E+00 -0.00000000000E+00 -0.29528849293E+03  0.29528849293E+03  0.00000000000E+00 0.  1.
         25    1    1    2    0    0  0.00000000000E+00  0.00000000000E+00 -0.28205990430E+03  0.30851708156E+03  0.12500000000E+03 0.  0.
<mgrwt>
<rscale>  0 0.12500000E+03</rscale>
<asrwt>0</asrwt>
<pdfrwt beam="1">  1       21 0.20351676E-02 0.12500000E+03</pdfrwt>
<pdfrwt beam="2">  1       21 0.45428997E-01 0.12500000E+03</pdfrwt>
<totfact> 0.54755716E+06</totfact>
</mgrwt>
</event>
<event>
 3    1  0.1602107E-001  0.1250000E+03  0.7546771E-02  0.1235069E+00
         21   -1    0    0  502  501  0.00000000000E+00  0.00000000000E+00  0.29749919640E+03  0.29749919640E+03  0.00000000000E+00 0. -1.
         21   -1    0    0  501  502 -0.00000000000E+00 -0.00000000000E+00 -0.13130287568E+02  0.13130287568E+02  0.00000000000E+00 0. -1.
         25    1    1    2    0    0  0.00000000000E+00  0.00000000000E+00  0.28436890884E+03  0.31062948397E+03  0.12500000000E+03 0.  0.
<mgrwt>
<rscale>  0 0.12500000E+03</rscale>
<asrwt>0</asrwt>
<pdfrwt beam="1">  1       21 0.45769102E-01 0.12500000E+03</pdfrwt>
<pdfrwt beam="2">  1       21 0.20200445E-02 0.12500000E+03</pdfrwt>
<totfact> 0.54584232E+06</totfact>
</mgrwt>
</event>
<event>
 3    1  0.1602107E-001  0.1250000E+03  0.7546771E-02  0.1235069E+00
         21   -1    0    0  502  501  0.00000000000E+00  0.00000000000E+00  0.14865502169E+02  0.14865502169E+02  0.00000000000E+00 0. -1.
         21   -1    0    0  501  502 -0.00000000000E+00 -0.00000000000E+00 -0.26277282500E+03  0.26277282500E+03  0.00000000000E+00 0. -1.
         25    1    1    2    0    0  0.00000000000E+00  0.00000000000E+00 -0.24790732283E+03  0.27763832717E+03  0.12500000000E+03 0.  0.
<mgrwt>
<rscale>  0 0.12500000E+03</rscale>
<asrwt>0</asrwt>
<pdfrwt beam="1">  1       21 0.22870004E-02 0.12500000E+03</pdfrwt>
<pdfrwt beam="2">  1       21 0.40426588E-01 0.12500000E+03</pdfrwt>
<totfact> 0.57367268E+06</totfact>
</mgrwt>
</event>
<event>
 3    1  0.1602107E-001  0.1250000E+03  0.7546771E-02  0.1235069E+00
         21   -1    0    0  502  501  0.00000000000E+00  0.00000000000E+00  0.23449131418E+03  0.23449131418E+03  0.00000000000E+00 0. -1.
         21   -1    0    0  501  502 -0.00000000000E+00 -0.00000000000E+00 -0.16658399539E+02  0.16658399539E+02  0.00000000000E+00 0. -1.
         25    1    1    2    0    0  0.00000000000E+00  0.00000000000E+00  0.21783291464E+03  0.25114971372E+03  0.12500000000E+03 0.  0.
<mgrwt>
<rscale>  0 0.12500000E+03</rscale>
<asrwt>0</asrwt>
<pdfrwt beam="1">  1       21 0.36075585E-01 0.12500000E+03</pdfrwt>
<pdfrwt beam="2">  1       21 0.25628309E-02 0.12500000E+03</pdfrwt>
<totfact> 0.59770115E+06</totfact>
</mgrwt>
</event>
<event>
 3    1  0.1602107E-001  0.1250000E+03  0.7546771E-02  0.1235069E+00
         21   -1    0    0  502  501  0.00000000000E+00  0.00000000000E+00  0.52610711923E+03  0.52610711923E+03  0.00000000000E+00 0. -1.
         21   -1    0    0  501  502 -0.00000000000E+00 -0.00000000000E+00 -0.74248187436E+01  0.74248187436E+01  0.00000000000E+00 0. -1.
         25    1    1    2    0    0  0.00000000000E+00  0.00000000000E+00  0.51868230048E+03  0.53353193797E+03  0.12500000000E+03 0.  0.
<mgrwt>
<rscale>  0 0.12500000E+03</rscale>
<asrwt>0</asrwt>
<pdfrwt beam="1">  1       21 0.80939527E-01 0.12500000E+03</pdfrwt>
<pdfrwt beam="2">  1       21 0.11422802E-02 0.12500000E+03</pdfrwt>
<totfact> 0.40282062E+06</totfact>
</mgrwt>
</event>
<event>
 3    1  0.1602107E-001  0.1250000E+03  0.7546771E-02  0.1235069E+00
         21   -1    0    0  502  501  0.00000000000E+00  0.00000000000E+00  0.11815369899E+04  0.11815369899E+04  0.00000000000E+00 0.  1.
         21   -1    0    0  501  502 -0.00000000000E+00 -0.00000000000E+00 -0.33060750814E+01  0.33060750814E+01  0.00000000000E+00 0.  1.
         25    1    1    2    0    0  0.00000000000E+00  0.00000000000E+00  0.11782309148E+04  0.11848430650E+04  0.12500000000E+03 0.  0.
<mgrwt>
<rscale>  0 0.12500000E+03</rscale>
<asrwt>0</asrwt>
<pdfrwt beam="1">  1       21 0.18177458E+00 0.12500000E+03</pdfrwt>
<pdfrwt beam="2">  1       21 0.50862788E-03 0.12500000E+03</pdfrwt>
<totfact> 0.19448110E+06</totfact>
</mgrwt>
</event>
<event>
 3    1  0.1602107E-001  0.1250000E+03  0.7546771E-02  0.1235069E+00
         21   -1    0    0  502  501  0.00000000000E+00  0.00000000000E+00  0.33379276888E+02  0.33379276888E+02  0.00000000000E+00 0. -1.
         21   -1    0    0  501  502 -0.00000000000E+00 -0.00000000000E+00 -0.11702620201E+03  0.11702620201E+03  0.00000000000E+00 0. -1.
         25    1    1    2    0    0  0.00000000000E+00  0.00000000000E+00 -0.83646925119E+02  0.15040547890E+03  0.12500000000E+03 0.  0.
<mgrwt>
<rscale>  0 0.12500000E+03</rscale>
<asrwt>0</asrwt>
<pdfrwt beam="1">  1       21 0.51352733E-02 0.12500000E+03</pdfrwt>
<pdfrwt beam="2">  1       21 0.18004031E-01 0.12500000E+03</pdfrwt>
<totfact> 0.70708303E+06</totfact>
</mgrwt>
</event>
<event>
 3    1  0.1602107E-001  0.1250000E+03  0.7546771E-02  0.1235069E+00
         21   -1    0    0  502  501  0.00000000000E+00  0.00000000000E+00  0.11273788713E+03  0.11273788713E+03  0.00000000000E+00 0. -1.
         21   -1    0    0  501  502 -0.00000000000E+00 -0.00000000000E+00 -0.34648955196E+02  0.34648955196E+02  0.00000000000E+00 0. -1.
         25    1    1    2    0    0  0.00000000000E+00  0.00000000000E+00  0.78088931931E+02  0.14738684232E+03  0.12500000000E+03 0.  0.
<mgrwt>
<rscale>  0 0.12500000E+03</rscale>
<asrwt>0</asrwt>
<pdfrwt beam="1">  1       21 0.17344290E-01 0.12500000E+03</pdfrwt>
<pdfrwt beam="2">  1       21 0.53306085E-02 0.12500000E+03</pdfrwt>
<totfact> 0.71089025E+06</totfact>
</mgrwt>
</event>
<event>
 3    1  0.1602107E-001  0.1250000E+03  0.7546771E-02  0.1235069E+00
         21   -1    0    0  502  501  0.00000000000E+00  0.00000000000E+00  0.41603890817E+03  0.41603890817E+03  0.00000000000E+00 0. -1.
         21   -1    0    0  501  502 -0.00000000000E+00 -0.00000000000E+00 -0.93891458786E+01  0.93891458786E+01  0.00000000000E+00 0. -1.
         25    1    1    2    0    0  0.00000000000E+00  0.00000000000E+00  0.40664976229E+03  0.42542805405E+03  0.12500000000E+03 0.  0.
<mgrwt>
<rscale>  0 0.12500000E+03</rscale>
<asrwt>0</asrwt>
<pdfrwt beam="1">  1       21 0.64005972E-01 0.12500000E+03</pdfrwt>
<pdfrwt beam="2">  1       21 0.14444843E-02 0.12500000E+03</pdfrwt>
<totfact> 0.46399241E+06</totfact>
</mgrwt>
</event>
<event>
 3    1  0.1602107E-001  0.1250000E+03  0.7546771E-02  0.1235069E+00
         21   -1    0    0  502  501  0.00000000000E+00  0.00000000000E+00  0.50459195857E+03  0.50459195857E+03  0.00000000000E+00 0.  1.
         21   -1    0    0  501  502 -0.00000000000E+00 -0.00000000000E+00 -0.77414035909E+01  0.77414035909E+01  0.00000000000E+00 0.  1.
         25    1    1    2    0    0  0.00000000000E+00  0.00000000000E+00  0.49685055497E+03  0.51233336216E+03  0.12500000000E+03 0.  0.
<mgrwt>
<rscale>  0 0.12500000E+03</rscale>
<asrwt>0</asrwt>
<pdfrwt beam="1">  1       21 0.77629507E-01 0.12500000E+03</pdfrwt>
<pdfrwt beam="2">  1       21 0.11909856E-02 0.12500000E+03</pdfrwt>
<totfact> 0.41383016E+06</totfact>
</mgrwt>
</event>
<event>
 3    1  0.1602107E-001  0.1250000E+03  0.7546771E-02  0.1235069E+00
         21   -1    0    0  502  501  0.00000000000E+00  0.00000000000E+00  0.57926221631E+02  0.57926221631E+02  0.00000000000E+00 0.  1.
         21   -1    0    0  501  502 -0.00000000000E+00 -0.00000000000E+00 -0.67434917901E+02  0.67434917901E+02  0.00000000000E+00 0.  1.
         25    1    1    2    0    0  0.00000000000E+00  0.00000000000E+00 -0.95086962694E+01  0.12536113953E+03  0.12500000000E+03 0.  0.
<mgrwt>
<rscale>  0 0.12500000E+03</rscale>
<asrwt>0</asrwt>
<pdfrwt beam="1">  1       21 0.89117264E-02 0.12500000E+03</pdfrwt>
<pdfrwt beam="2">  1       21 0.10374603E-01 0.12500000E+03</pdfrwt>
<totfact> 0.73994819E+06</totfact>
</mgrwt>
</event>
<event>
 3    1  0.1602107E-001  0.1250000E+03  0.7546771E-02  0.1235069E+00
         21   -1    0    0  502  501  0.00000000000E+00  0.00000000000E+00  0.10964510797E+03  0.10964510797E+03  0.00000000000E+00 0. -1.
         21   -1    0    0  501  502 -0.00000000000E+00 -0.00000000000E+00 -0.35626304468E+02  0.35626304468E+02  0.00000000000E+00 0. -1.
         25    1    1    2    0    0  0.00000000000E+00  0.00000000000E+00  0.74018803504E+02  0.14527141244E+03  0.12500000000E+03 0.  0.
<mgrwt>
<rscale>  0 0.12500000E+03</rscale>
<asrwt>0</asrwt>
<pdfrwt beam="1">  1       21 0.16868478E-01 0.12500000E+03</pdfrwt>
<pdfrwt beam="2">  1       21 0.54809700E-02 0.12500000E+03</pdfrwt>
<totfact> 0.71358383E+06</totfact>
</mgrwt>
</event>
<event>
 3    1  0.1602107E-001  0.1250000E+03  0.7546771E-02  0.1235069E+00
         21   -1    0    0  502  501  0.00000000000E+00  0.00000000000E+00  0.83402790531E+03  0.83402790531E+03  0.00000000000E+00 0.  1.
         21   -1    0    0  501  502 -0.00000000000E+00 -0.00000000000E+00 -0.46835962863E+01  0.46835962863E+01  0.00000000000E+00 0.  1.
         25    1    1    2    0    0  0.00000000000E+00  0.00000000000E+00  0.82934430902E+03  0.83871150159E+03  0.12500000000E+03 0.  0.
<mgrwt>
<rscale>  0 0.12500000E+03</rscale>
<asrwt>0</asrwt>
<pdfrwt beam="1">  1       21 0.12831187E+00 0.12500000E+03</pdfrwt>
<pdfrwt beam="2">  1       21 0.72055394E-03 0.12500000E+03</pdfrwt>
<totfact> 0.28119754E+06</totfact>
</mgrwt>
</event>
<event>
 3    1  0.1602107E-001  0.1250000E+03  0.7546771E-02  0.1235069E+00
         21   -1    0    0  502  501  0.00000000000E+00  0.00000000000E+00  0.96493317415E+01  0.96493317415E+01  0.00000000000E+00 0.  1.
         21   -1    0    0  501  502 -0.00000000000E+00 -0.00000000000E+00 -0.40482077978E+03  0.40482077978E+03  0.00000000000E+00 0.  1.
         25    1    1    2    0    0  0.00000000000E+00  0.00000000000E+00 -0.39517144804E+03  0.41447011153E+03  0.12500000000E+03 0.  0.
<mgrwt>
<rscale>  0 0.12500000E+03</rscale>
<asrwt>0</asrwt>
<pdfrwt beam="1">  1       21 0.14845126E-02 0.12500000E+03</pdfrwt>
<pdfrwt beam="2">  1       21 0.62280121E-01 0.12500000E+03</pdfrwt>
<totfact> 0.47096144E+06</totfact>
</mgrwt>
</event>
<event>
 3    1  0.1602107E-001  0.1250000E+03  0.7546771E-02  0.1235069E+00
         21   -1    0    0  502  501  0.00000000000E+00  0.00000000000E+00  0.14300360120E+03  0.14300360120E+03  0.00000000000E+00 0.  1.
         21   -1    0    0  501  502 -0.00000000000E+00 -0.00000000000E+00 -0.27315745667E+02  0.27315745667E+02  0.00000000000E+00 0.  1.
         25    1    1    2    0    0  0.00000000000E+00  0.00000000000E+00  0.11568785554E+03  0.17031934687E+03  0.12500000000E+03 0.  0.
<mgrwt>
<rscale>  0 0.12500000E+03</rscale>
<asrwt>0</asrwt>
<pdfrwt beam="1">  1       21 0.22000554E-01 0.12500000E+03</pdfrwt>
<pdfrwt beam="2">  1       21 0.42024225E-02 0.12500000E+03</pdfrwt>
<totfact> 0.68279799E+06</totfact>
</mgrwt>
</event>
<event>
 3    1  0.1602107E-001  0.1250000E+03  0.7546771E-02  0.1235069E+00
         21   -1    0    0  502  501  0.00000000000E+00  0.00000000000E+00  0.20855305788E+02  0.20855305788E+02  0.00000000000E+00 0.  1.
         21   -1    0    0  501  502 -0.00000000000E+00 -0.00000000000E+00 -0.18730245625E+03  0.18730245625E+03  0.00000000000E+00 0.  1.
         25    1    1    2    0    0  0.00000000000E+00  0.00000000000E+00 -0.16644715046E+03  0.20815776204E+03  0.12500000000E+03 0.  0.
<mgrwt>
<rscale>  0 0.12500000E+03</rscale>
<asrwt>0</asrwt>
<pdfrwt beam="1">  1       21 0.32085085E-02 0.12500000E+03</pdfrwt>
<pdfrwt beam="2">  1       21 0.28815764E-01 0.12500000E+03</pdfrwt>
<totfact> 0.64053882E+06</totfact>
</mgrwt>
</event>
<event>
 3    1  0.1602107E-001  0.1250000E+03  0.7546771E-02  0.1235069E+00
         21   -1    0    0  502  501  0.00000000000E+00  0.00000000000E+00  0.10222710429E+02  0.10222710429E+02  0.00000000000E+00 0.  1.
         21   -1    0    0  501  502 -0.00000000000E+00 -0.00000000000E+00 -0.38211490260E+03  0.38211490260E+03  0.00000000000E+00 0.  1.
         25    1    1    2    0    0  0.00000000000E+00  0.00000000000E+00 -0.37189219217E+03  0.39233761303E+03  0.12500000000E+03 0.  0.
<mgrwt>
<rscale>  0 0.12500000E+03</rscale>
<asrwt>0</asrwt>
<pdfrwt beam="1">  1       21 0.15727249E-02 0.12500000E+03</pdfrwt>
<pdfrwt beam="2">  1       21 0.58786900E-01 0.12500000E+03</pdfrwt>
<totfact> 0.48553779E+06</totfact>
</mgrwt>
</event>
<event>
 3    1  0.1602107E-001  0.1250000E+03  0.7546771E-02  0.1235069E+00
         21   -1    0    0  502  501  0.00000000000E+00  0.00000000000E+00  0.97347139531E+02  0.97347139531E+02  0.00000000000E+00 0.  1.
         21   -1    0    0  501  502 -0.00000000000E+00 -0.00000000000E+00 -0.40127013683E+02  0.40127013683E+02  0.00000000000E+00 0.  1.
         25    1    1    2    0    0  0.00000000000E+00  0.00000000000E+00  0.57220125847E+02  0.13747415321E+03  0.12500000000E+03 0.  0.
<mgrwt>
<rscale>  0 0.12500000E+03</rscale>
<asrwt>0</asrwt>
<pdfrwt beam="1">  1       21 0.14976483E-01 0.12500000E+03</pdfrwt>
<pdfrwt beam="2">  1       21 0.61733867E-02 0.12500000E+03</pdfrwt>
<totfact> 0.72370505E+06</totfact>
</mgrwt>
</event>
<event>
 3    1  0.1602107E-001  0.1250000E+03  0.7546771E-02  0.1235069E+00
         21   -1    0    0  502  501  0.00000000000E+00  0.00000000000E+00  0.11550001169E+03  0.11550001169E+03  0.00000000000E+00 0.  1.
         21   -1    0    0  501  502 -0.00000000000E+00 -0.00000000000E+00 -0.33820342896E+02  0.33820342896E+02  0.00000000000E+00 0.  1.
         25    1    1    2    0    0  0.00000000000E+00  0.00000000000E+00  0.81679668799E+02  0.14932035459E+03  0.12500000000E+03 0.  0.
<mgrwt>
<rscale>  0 0.12500000E+03</rscale>
<asrwt>0</asrwt>
<pdfrwt beam="1">  1       21 0.17769232E-01 0.12500000E+03</pdfrwt>
<pdfrwt beam="2">  1       21 0.52031297E-02 0.12500000E+03</pdfrwt>
<totfact> 0.70844681E+06</totfact>
</mgrwt>
</event>
<event>
 3    1  0.1602107E-001  0.1250000E+03  0.7546771E-02  0.1235069E+00
         21   -1    0    0  502  501  0.00000000000E+00  0.00000000000E+00  0.34507608119E+03  0.34507608119E+03  0.00000000000E+00 0.  1.
         21   -1    0    0  501  502 -0.00000000000E+00 -0.00000000000E+00 -0.11319967430E+02  0.11319967430E+02  0.00000000000E+00 0.  1.
         25    1    1    2    0    0  0.00000000000E+00  0.00000000000E+00  0.33375611376E+03  0.35639604862E+03  0.12500000000E+03 0.  0.
<mgrwt>
<rscale>  0 0.12500000E+03</rscale>
<asrwt>0</asrwt>
<pdfrwt beam="1">  1       21 0.53088620E-01 0.12500000E+03</pdfrwt>
<pdfrwt beam="2">  1       21 0.17415337E-02 0.12500000E+03</pdfrwt>
<totfact> 0.51069511E+06</totfact>
</mgrwt>
</event>
<event>
 3    1  0.1602107E-001  0.1250000E+03  0.7546771E-02  0.1235069E+00
         21   -1    0    0  502  501  0.00000000000E+00  0.00000000000E+00  0.68267206306E+02  0.68267206306E+02  0.00000000000E+00 0.  1.
         21   -1    0    0  501  502 -0.00000000000E+00 -0.00000000000E+00 -0.57220006667E+02  0.57220006667E+02  0.00000000000E+00 0.  1.
         25    1    1    2    0    0  0.00000000000E+00  0.00000000000E+00  0.11047199639E+02  0.12548721297E+03  0.12500000000E+03 0.  0.
<mgrwt>
<rscale>  0 0.12500000E+03</rscale>
<asrwt>0</asrwt>
<pdfrwt beam="1">  1       21 0.10502647E-01 0.12500000E+03</pdfrwt>
<pdfrwt beam="2">  1       21 0.88030780E-02 0.12500000E+03</pdfrwt>
<totfact> 0.73977185E+06</totfact>
</mgrwt>
</event>
<event>
 3    1  0.1602107E-001  0.1250000E+03  0.7546771E-02  0.1235069E+00
         21   -1    0    0  502  501  0.00000000000E+00  0.00000000000E+00  0.77129201679E+02  0.77129201679E+02  0.00000000000E+00 0. -1.
         21   -1    0    0  501  502 -0.00000000000E+00 -0.00000000000E+00 -0.50645539108E+02  0.50645539108E+02  0.00000000000E+00 0. -1.
         25    1    1    2    0    0  0.00000000000E+00  0.00000000000E+00  0.26483662570E+02  0.12777474079E+03  0.12500000000E+03 0.  0.
<mgrwt>
<rscale>  0 0.12500000E+03</rscale>
<asrwt>0</asrwt>
<pdfrwt beam="1">  1       21 0.11866031E-01 0.12500000E+03</pdfrwt>
<pdfrwt beam="2">  1       21 0.77916214E-02 0.12500000E+03</pdfrwt>
<totfact> 0.73664011E+06</totfact>
</mgrwt>
</event>
<event>
 3    1  0.1602107E-001  0.1250000E+03  0.7546771E-02  0.1235069E+00
         21   -1    0    0  502  501  0.00000000000E+00  0.00000000000E+00  0.48126266645E+03  0.48126266645E+03  0.00000000000E+00 0. -1.
         21   -1    0    0  501  502 -0.00000000000E+00 -0.00000000000E+00 -0.81166694870E+01  0.81166694870E+01  0.00000000000E+00 0. -1.
         25    1    1    2    0    0  0.00000000000E+00  0.00000000000E+00  0.47314599696E+03  0.48937933593E+03  0.12500000000E+03 0.  0.
<mgrwt>
<rscale>  0 0.12500000E+03</rscale>
<asrwt>0</asrwt>
<pdfrwt beam="1">  1       21 0.74040388E-01 0.12500000E+03</pdfrwt>
<pdfrwt beam="2">  1       21 0.12487188E-02 0.12500000E+03</pdfrwt>
<totfact> 0.42625980E+06</totfact>
</mgrwt>
</event>
<event>
 3    1  0.1602107E-001  0.1250000E+03  0.7546771E-02  0.1235069E+00
         21   -1    0    0  502  501  0.00000000000E+00  0.00000000000E+00  0.14856707105E+02  0.14856707105E+02  0.00000000000E+00 0.  1.
         21   -1    0    0  501  502 -0.00000000000E+00 -0.00000000000E+00 -0.26292838463E+03  0.26292838463E+03  0.00000000000E+00 0.  1.
         25    1    1    2    0    0  0.00000000000E+00  0.00000000000E+00 -0.24807167753E+03  0.27778509174E+03  0.12500000000E+03 0.  0.
<mgrwt>
<rscale>  0 0.12500000E+03</rscale>
<asrwt>0</asrwt>
<pdfrwt beam="1">  1       21 0.22856474E-02 0.12500000E+03</pdfrwt>
<pdfrwt beam="2">  1       21 0.40450517E-01 0.12500000E+03</pdfrwt>
<totfact> 0.57354372E+06</totfact>
</mgrwt>
</event>
<event>
 3    1  0.1602107E-001  0.1250000E+03  0.7546771E-02  0.1235069E+00
         21   -1    0    0  502  501  0.00000000000E+00  0.00000000000E+00  0.57991557795E+03  0.57991557795E+03  0.00000000000E+00 0.  1.
         21   -1    0    0  501  502 -0.00000000000E+00 -0.00000000000E+00 -0.67358942380E+01  0.67358942380E+01  0.00000000000E+00 0.  1.
         25    1    1    2    0    0  0.00000000000E+00  0.00000000000E+00  0.57317968371E+03  0.58665147219E+03  0.12500000000E+03 0.  0.
<mgrwt>
<rscale>  0 0.12500000E+03</rscale>
<asrwt>0</asrwt>
<pdfrwt beam="1">  1       21 0.89217742E-01 0.12500000E+03</pdfrwt>
<pdfrwt beam="2">  1       21 0.10362919E-02 0.12500000E+03</pdfrwt>
<totfact> 0.37703354E+06</totfact>
</mgrwt>
</event>
<event>
 3    1  0.1602107E-001  0.1250000E+03  0.7546771E-02  0.1235069E+00
         21   -1    0    0  502  501  0.00000000000E+00  0.00000000000E+00  0.10979694341E+02  0.10979694341E+02  0.00000000000E+00 0. -1.
         21   -1    0    0  501  502 -0.00000000000E+00 -0.00000000000E+00 -0.35577037746E+03  0.35577037746E+03  0.00000000000E+00 0. -1.
         25    1    1    2    0    0  0.00000000000E+00  0.00000000000E+00 -0.34479068311E+03  0.36675007180E+03  0.12500000000E+03 0.  0.
<mgrwt>
<rscale>  0 0.12500000E+03</rscale>
<asrwt>0</asrwt>
<pdfrwt beam="1">  1       21 0.16891836E-02 0.12500000E+03</pdfrwt>
<pdfrwt beam="2">  1       21 0.54733909E-01 0.12500000E+03</pdfrwt>
<totfact> 0.50324683E+06</totfact>
</mgrwt>
</event>
<event>
 3    1  0.1602107E-001  0.1250000E+03  0.7546771E-02  0.1235069E+00
         21   -1    0    0  502  501  0.00000000000E+00  0.00000000000E+00  0.14977471914E+02  0.14977471914E+02  0.00000000000E+00 0. -1.
         21   -1    0    0  501  502 -0.00000000000E+00 -0.00000000000E+00 -0.26080836755E+03  0.26080836755E+03  0.00000000000E+00 0. -1.
         25    1    1    2    0    0  0.00000000000E+00  0.00000000000E+00 -0.24583089564E+03  0.27578583946E+03  0.12500000000E+03 0.  0.
<mgrwt>
<rscale>  0 0.12500000E+03</rscale>
<asrwt>0</asrwt>
<pdfrwt beam="1">  1       21 0.23042266E-02 0.12500000E+03</pdfrwt>
<pdfrwt beam="2">  1       21 0.40124362E-01 0.12500000E+03</pdfrwt>
<totfact> 0.57530474E+06</totfact>
</mgrwt>
</event>
<event>
 3    1  0.1602107E-001  0.1250000E+03  0.7546771E-02  0.1235069E+00
         21   -1    0    0  502  501  0.00000000000E+00  0.00000000000E+00  0.24828745707E+03  0.24828745707E+03  0.00000000000E+00 0. -1.
         21   -1    0    0  501  502 -0.00000000000E+00 -0.00000000000E+00 -0.15732772191E+02  0.15732772191E+02  0.00000000000E+00 0. -1.
         25    1    1    2    0    0  0.00000000000E+00  0.00000000000E+00  0.23255468488E+03  0.26402022926E+03  0.12500000000E+03 0.  0.
<mgrwt>
<rscale>  0 0.12500000E+03</rscale>
<asrwt>0</asrwt>
<pdfrwt beam="1">  1       21 0.38198068E-01 0.12500000E+03</pdfrwt>
<pdfrwt beam="2">  1       21 0.24204267E-02 0.12500000E+03</pdfrwt>
<totfact> 0.58582746E+06</totfact>
</mgrwt>
</event>
<event>
 3    1  0.1602107E-001  0.1250000E+03  0.7546771E-02  0.1235069E+00
         21   -1    0    0  502  501  0.00000000000E+00  0.00000000000E+00  0.11128082304E+02  0.11128082304E+02  0.00000000000E+00 0. -1.
         21   -1    0    0  501  502 -0.00000000000E+00 -0.00000000000E+00 -0.35102633979E+03  0.35102633979E+03  0.00000000000E+00 0. -1.
         25    1    1    2    0    0  0.00000000000E+00  0.00000000000E+00 -0.33989825749E+03  0.36215442209E+03  0.12500000000E+03 0.  0.
<mgrwt>
<rscale>  0 0.12500000E+03</rscale>
<asrwt>0</asrwt>
<pdfrwt beam="1">  1       21 0.17120128E-02 0.12500000E+03</pdfrwt>
<pdfrwt beam="2">  1       21 0.54004047E-01 0.12500000E+03</pdfrwt>
<totfact> 0.50653133E+06</totfact>
</mgrwt>
</event>
<event>
 3    1  0.1602107E-001  0.1250000E+03  0.7546771E-02  0.1235069E+00
         21   -1    0    0  502  501  0.00000000000E+00  0.00000000000E+00  0.47565874133E+02  0.47565874133E+02  0.00000000000E+00 0. -1.
         21   -1    0    0  501  502 -0.00000000000E+00 -0.00000000000E+00 -0.82122952036E+02  0.82122952036E+02  0.00000000000E+00 0. -1.
         25    1    1    2    0    0  0.00000000000E+00  0.00000000000E+00 -0.34557077903E+02  0.12968882617E+03  0.12500000000E+03 0.  0.
<mgrwt>
<rscale>  0 0.12500000E+03</rscale>
<asrwt>0</asrwt>
<pdfrwt beam="1">  1       21 0.73178268E-02 0.12500000E+03</pdfrwt>
<pdfrwt beam="2">  1       21 0.12634300E-01 0.12500000E+03</pdfrwt>
<totfact> 0.73406533E+06</totfact>
</mgrwt>
</event>
<event>
 3    1  0.1602107E-001  0.1250000E+03  0.7546771E-02  0.1235069E+00
         21   -1    0    0  502  501  0.00000000000E+00  0.00000000000E+00  0.26311654729E+03  0.26311654729E+03  0.00000000000E+00 0. -1.
         21   -1    0    0  501  502 -0.00000000000E+00 -0.00000000000E+00 -0.14846082621E+02  0.14846082621E+02  0.00000000000E+00 0. -1.
         25    1    1    2    0    0  0.00000000000E+00  0.00000000000E+00  0.24827046467E+03  0.27796262991E+03  0.12500000000E+03 0.  0.
<mgrwt>
<rscale>  0 0.12500000E+03</rscale>
<asrwt>0</asrwt>
<pdfrwt beam="1">  1       21 0.40479465E-01 0.12500000E+03</pdfrwt>
<pdfrwt beam="2">  1       21 0.22840129E-02 0.12500000E+03</pdfrwt>
<totfact> 0.57338777E+06</totfact>
</mgrwt>
</event>
<event>
 3    1  0.1602107E-001  0.1250000E+03  0.7546771E-02  0.1235069E+00
         21   -1    0    0  502  501  0.00000000000E+00  0.00000000000E+00  0.22562977915E+02  0.22562977915E+02  0.00000000000E+00 0.  1.
         21   -1    0    0  501  502 -0.00000000000E+00 -0.00000000000E+00 -0.17312652677E+03  0.17312652677E+03  0.00000000000E+00 0.  1.
         25    1    1    2    0    0  0.00000000000E+00  0.00000000000E+00 -0.15056354885E+03  0.19568950468E+03  0.12500000000E+03 0.  0.
<mgrwt>
<rscale>  0 0.12500000E+03</rscale>
<asrwt>0</asrwt>
<pdfrwt beam="1">  1       21 0.34712273E-02 0.12500000E+03</pdfrwt>
<pdfrwt beam="2">  1       21 0.26634851E-01 0.12500000E+03</pdfrwt>
<totfact> 0.65395637E+06</totfact>
</mgrwt>
</event>
<event>
 3    1  0.1602107E-001  0.1250000E+03  0.7546771E-02  0.1235069E+00
         21   -1    0    0  502  501  0.00000000000E+00  0.00000000000E+00  0.11084808221E+04  0.11084808221E+04  0.00000000000E+00 0.  1.
         21   -1    0    0  501  502 -0.00000000000E+00 -0.00000000000E+00 -0.35239671469E+01  0.35239671469E+01  0.00000000000E+00 0.  1.
         25    1    1    2    0    0  0.00000000000E+00  0.00000000000E+00  0.11049568549E+04  0.11120047892E+04  0.12500000000E+03 0.  0.
<mgrwt>
<rscale>  0 0.12500000E+03</rscale>
<asrwt>0</asrwt>
<pdfrwt beam="1">  1       21 0.17053523E+00 0.12500000E+03</pdfrwt>
<pdfrwt beam="2">  1       21 0.54214967E-03 0.12500000E+03</pdfrwt>
<totfact> 0.20986425E+06</totfact>
</mgrwt>
</event>
<event>
 3    1  0.1602107E-001  0.1250000E+03  0.7546771E-02  0.1235069E+00
         21   -1    0    0  502  501  0.00000000000E+00  0.00000000000E+00  0.48799009869E+02  0.48799009869E+02  0.00000000000E+00 0. -1.
         21   -1    0    0  501  502 -0.00000000000E+00 -0.00000000000E+00 -0.80047730691E+02  0.80047730691E+02  0.00000000000E+00 0. -1.
         25    1    1    2    0    0  0.00000000000E+00  0.00000000000E+00 -0.31248720822E+02  0.12884674056E+03  0.12500000000E+03 0.  0.
<mgrwt>
<rscale>  0 0.12500000E+03</rscale>
<asrwt>0</asrwt>
<pdfrwt beam="1">  1       21 0.75075401E-02 0.12500000E+03</pdfrwt>
<pdfrwt beam="2">  1       21 0.12315035E-01 0.12500000E+03</pdfrwt>
<totfact> 0.73519472E+06</totfact>
</mgrwt>
</event>
<event>
 3    1  0.1602107E-001  0.1250000E+03  0.7546771E-02  0.1235069E+00
         21   -1    0    0  502  501  0.00000000000E+00  0.00000000000E+00  0.26714530853E+02  0.26714530853E+02  0.00000000000E+00 0. -1.
         21   -1    0    0  501  502 -0.00000000000E+00 -0.00000000000E+00 -0.14622192026E+03  0.14622192026E+03  0.00000000000E+00 0. -1.
         25    1    1    2    0    0  0.00000000000E+00  0.00000000000E+00 -0.11950738940E+03  0.17293645111E+03  0.12500000000E+03 0.  0.
<mgrwt>
<rscale>  0 0.12500000E+03</rscale>
<asrwt>0</asrwt>
<pdfrwt beam="1">  1       21 0.41099277E-02 0.12500000E+03</pdfrwt>
<pdfrwt beam="2">  1       21 0.22495681E-01 0.12500000E+03</pdfrwt>
<totfact> 0.67971229E+06</totfact>
</mgrwt>
</event>
<event>
 3    1  0.1602107E-001  0.1250000E+03  0.7546771E-02  0.1235069E+00
         21   -1    0    0  502  501  0.00000000000E+00  0.00000000000E+00  0.32654723975E+02  0.32654723975E+02  0.00000000000E+00 0.  1.
         21   -1    0    0  501  502 -0.00000000000E+00 -0.00000000000E+00 -0.11962281485E+03  0.11962281485E+03  0.00000000000E+00 0.  1.
         25    1    1    2    0    0  0.00000000000E+00  0.00000000000E+00 -0.86968090875E+02  0.15227753882E+03  0.12500000000E+03 0.  0.
<mgrwt>
<rscale>  0 0.12500000E+03</rscale>
<asrwt>0</asrwt>
<pdfrwt beam="1">  1       21 0.50238038E-02 0.12500000E+03</pdfrwt>
<pdfrwt beam="2">  1       21 0.18403510E-01 0.12500000E+03</pdfrwt>
<totfact> 0.70474260E+06</totfact>
</mgrwt>
</event>
<event>
 3    1  0.1602107E-001  0.1250000E+03  0.7546771E-02  0.1235069E+00
         21   -1    0    0  502  501  0.00000000000E+00  0.00000000000E+00  0.39136324236E+02  0.39136324236E+02  0.00000000000E+00 0.  1.
         21   -1    0    0  501  502 -0.00000000000E+00 -0.00000000000E+00 -0.99811366456E+02  0.99811366456E+02  0.00000000000E+00 0.  1.
         25    1    1    2    0    0  0.00000000000E+00  0.00000000000E+00 -0.60675042220E+02  0.13894769069E+03  0.12500000000E+03 0.  0.
<mgrwt>
<rscale>  0 0.12500000E+03</rscale>
<asrwt>0</asrwt>
<pdfrwt beam="1">  1       21 0.60209730E-02 0.12500000E+03</pdfrwt>
<pdfrwt beam="2">  1       21 0.15355595E-01 0.12500000E+03</pdfrwt>
<totfact> 0.72176984E+06</totfact>
</mgrwt>
</event>
<event>
 3    1  0.1602107E-001  0.1250000E+03  0.7546771E-02  0.1235069E+00
         21   -1    0    0  502  501  0.00000000000E+00  0.00000000000E+00  0.47881533816E+02  0.47881533816E+02  0.00000000000E+00 0.  1.
         21   -1    0    0  501  502 -0.00000000000E+00 -0.00000000000E+00 -0.81581555324E+02  0.81581555324E+02  0.00000000000E+00 0.  1.
         25    1    1    2    0    0  0.00000000000E+00  0.00000000000E+00 -0.33700021508E+02  0.12946308914E+03  0.12500000000E+03 0.  0.
<mgrwt>
<rscale>  0 0.12500000E+03</rscale>
<asrwt>0</asrwt>
<pdfrwt beam="1">  1       21 0.73663898E-02 0.12500000E+03</pdfrwt>
<pdfrwt beam="2">  1       21 0.12551008E-01 0.12500000E+03</pdfrwt>
<totfact> 0.73436762E+06</totfact>
</mgrwt>
</event>
<event>
 3    1  0.1602107E-001  0.1250000E+03  0.7546771E-02  0.1235069E+00
         21   -1    0    0  502  501  0.00000000000E+00  0.00000000000E+00  0.85620382582E+01  0.85620382582E+01  0.00000000000E+00 0. -1.
         21   -1    0    0  501  502 -0.00000000000E+00 -0.00000000000E+00 -0.45622898219E+03  0.45622898219E+03  0.00000000000E+00 0. -1.
         25    1    1    2    0    0  0.00000000000E+00  0.00000000000E+00 -0.44766694393E+03  0.46479102045E+03  0.12500000000E+03 0.  0.
<mgrwt>
<rscale>  0 0.12500000E+03</rscale>
<asrwt>0</asrwt>
<pdfrwt beam="1">  1       21 0.13172364E-02 0.12500000E+03</pdfrwt>
<pdfrwt beam="2">  1       21 0.70189090E-01 0.12500000E+03</pdfrwt>
<totfact> 0.44020228E+06</totfact>
</mgrwt>
</event>
<event>
 3    1  0.1602107E-001  0.1250000E+03  0.7546771E-02  0.1235069E+00
         21   -1    0    0  502  501  0.00000000000E+00  0.00000000000E+00  0.11794791983E+04  0.11794791983E+04  0.00000000000E+00 0.  1.
         21   -1    0    0  501  502 -0.00000000000E+00 -0.00000000000E+00 -0.33118430622E+01  0.33118430622E+01  0.00000000000E+00 0.  1.
         25    1    1    2    0    0  0.00000000000E+00  0.00000000000E+00  0.11761673553E+04  0.11827910414E+04  0.12500000000E+03 0.  0.
<mgrwt>
<rscale>  0 0.12500000E+03</rscale>
<asrwt>0</asrwt>
<pdfrwt beam="1">  1       21 0.18145800E+00 0.12500000E+03</pdfrwt>
<pdfrwt beam="2">  1       21 0.50951526E-03 0.12500000E+03</pdfrwt>
<totfact> 0.19489774E+06</totfact>
</mgrwt>
</event>
<event>
 3    1  0.1602107E-001  0.1250000E+03  0.7546771E-02  0.1235069E+00
         21   -1    0    0  502  501  0.00000000000E+00  0.00000000000E+00  0.17283027744E+02  0.17283027744E+02  0.00000000000E+00 0. -1.
         21   -1    0    0  501  502 -0.00000000000E+00 -0.00000000000E+00 -0.22601653240E+03  0.22601653240E+03  0.00000000000E+00 0. -1.
         25    1    1    2    0    0  0.00000000000E+00  0.00000000000E+00 -0.20873350466E+03  0.24329956014E+03  0.12500000000E+03 0.  0.
<mgrwt>
<rscale>  0 0.12500000E+03</rscale>
<asrwt>0</asrwt>
<pdfrwt beam="1">  1       21 0.26589273E-02 0.12500000E+03</pdfrwt>
<pdfrwt beam="2">  1       21 0.34771775E-01 0.12500000E+03</pdfrwt>
<totfact> 0.60514824E+06</totfact>
</mgrwt>
</event>
<event>
 3    1  0.1602107E-001  0.1250000E+03  0.7546771E-02  0.1235069E+00
         21   -1    0    0  502  501  0.00000000000E+00  0.00000000000E+00  0.57813248781E+01  0.57813248781E+01  0.00000000000E+00 0. -1.
         21   -1    0    0  501  502 -0.00000000000E+00 -0.00000000000E+00 -0.67566692451E+03  0.67566692451E+03  0.00000000000E+00 0. -1.
         25    1    1    2    0    0  0.00000000000E+00  0.00000000000E+00 -0.66988559963E+03  0.68144824939E+03  0.12500000000E+03 0.  0.
<mgrwt>
<rscale>  0 0.12500000E+03</rscale>
<asrwt>0</asrwt>
<pdfrwt beam="1">  1       21 0.88943459E-03 0.12500000E+03</pdfrwt>
<pdfrwt beam="2">  1       21 0.10394876E+00 0.12500000E+03</pdfrwt>
<totfact> 0.33637723E+06</totfact>
</mgrwt>
</event>
<event>
 3    1  0.1602107E-001  0.1250000E+03  0.7546771E-02  0.1235069E+00
         21   -1    0    0  502  501  0.00000000000E+00  0.00000000000E+00  0.21663602956E+02  0.21663602956E+02  0.00000000000E+00 0.  1.
         21   -1    0    0  501  502 -0.00000000000E+00 -0.00000000000E+00 -0.18031395830E+03  0.18031395830E+03  0.00000000000E+00 0.  1.
         25    1    1    2    0    0  0.00000000000E+00  0.00000000000E+00 -0.15865035534E+03  0.20197756126E+03  0.12500000000E+03 0.  0.
<mgrwt>
<rscale>  0 0.12500000E+03</rscale>
<asrwt>0</asrwt>
<pdfrwt beam="1">  1       21 0.33328620E-02 0.12500000E+03</pdfrwt>
<pdfrwt beam="2">  1       21 0.27740609E-01 0.12500000E+03</pdfrwt>
<totfact> 0.64713598E+06</totfact>
</mgrwt>
</event>
<event>
 3    1  0.1602107E-001  0.1250000E+03  0.7546771E-02  0.1235069E+00
         21   -1    0    0  502  501  0.00000000000E+00  0.00000000000E+00  0.40842078120E+03  0.40842078120E+03  0.00000000000E+00 0.  1.
         21   -1    0    0  501  502 -0.00000000000E+00 -0.00000000000E+00 -0.95642782636E+01  0.95642782636E+01  0.00000000000E+00 0.  1.
         25    1    1    2    0    0  0.00000000000E+00  0.00000000000E+00  0.39885650293E+03  0.41798505946E+03  0.12500000000E+03 0.  0.
<mgrwt>
<rscale>  0 0.12500000E+03</rscale>
<asrwt>0</asrwt>
<pdfrwt beam="1">  1       21 0.62833953E-01 0.12500000E+03</pdfrwt>
<pdfrwt beam="2">  1       21 0.14714277E-02 0.12500000E+03</pdfrwt>
<totfact> 0.46870866E+06</totfact>
</mgrwt>
</event>
<event>
 3    1  0.1602107E-001  0.1250000E+03  0.7546771E-02  0.1235069E+00
         21   -1    0    0  502  501  0.00000000000E+00  0.00000000000E+00  0.44171493267E+03  0.44171493267E+03  0.00000000000E+00 0.  1.
         21   -1    0    0  501  502 -0.00000000000E+00 -0.00000000000E+00 -0.88433732053E+01  0.88433732053E+01  0.00000000000E+00 0.  1.
         25    1    1    2    0    0  0.00000000000E+00  0.00000000000E+00  0.43287155947E+03  0.45055830588E+03  0.12500000000E+03 0.  0.
<mgrwt>
<rscale>  0 0.12500000E+03</rscale>
<asrwt>0</asrwt>
<pdfrwt beam="1">  1       21 0.67956126E-01 0.12500000E+03</pdfrwt>
<pdfrwt beam="2">  1       21 0.13605193E-02 0.12500000E+03</pdfrwt>
<totfact> 0.44858886E+06</totfact>
</mgrwt>
</event>
<event>
 3    1  0.1602107E-001  0.1250000E+03  0.7546771E-02  0.1235069E+00
         21   -1    0    0  502  501  0.00000000000E+00  0.00000000000E+00  0.59175526703E+02  0.59175526703E+02  0.00000000000E+00 0. -1.
         21   -1    0    0  501  502 -0.00000000000E+00 -0.00000000000E+00 -0.66011241769E+02  0.66011241769E+02  0.00000000000E+00 0. -1.
         25    1    1    2    0    0  0.00000000000E+00  0.00000000000E+00 -0.68357150669E+01  0.12518676847E+03  0.12500000000E+03 0.  0.
<mgrwt>
<rscale>  0 0.12500000E+03</rscale>
<asrwt>0</asrwt>
<pdfrwt beam="1">  1       21 0.91039272E-02 0.12500000E+03</pdfrwt>
<pdfrwt beam="2">  1       21 0.10155576E-01 0.12500000E+03</pdfrwt>
<totfact> 0.74018359E+06</totfact>
</mgrwt>
</event>
<event>
 3    1  0.1602107E-001  0.1250000E+03  0.7546771E-02  0.1235069E+00
         21   -1    0    0  502  501  0.00000000000E+00  0.00000000000E+00  0.10869629109E+04  0.10869629109E+04  0.00000000000E+00 0. -1.
         21   -1    0    0  501  502 -0.00000000000E+00 -0.00000000000E+00 -0.35937288761E+01  0.35937288761E+01  0.00000000000E+00 0. -1.
         25    1    1    2    0    0  0.00000000000E+00  0.00000000000E+00  0.10833691820E+04  0.10905566397E+04  0.12500000000E+03 0.  0.
<mgrwt>
<rscale>  0 0.12500000E+03</rscale>
<asrwt>0</asrwt>
<pdfrwt beam="1">  1       21 0.16722480E+00 0.12500000E+03</pdfrwt>
<pdfrwt beam="2">  1       21 0.55288223E-03 0.12500000E+03</pdfrwt>
<totfact> 0.21462691E+06</totfact>
</mgrwt>
</event>
<event>
 3    1  0.1602107E-001  0.1250000E+03  0.7546771E-02  0.1235069E+00
         21   -1    0    0  502  501  0.00000000000E+00  0.00000000000E+00  0.11575804329E+03  0.11575804329E+03  0.00000000000E+00 0. -1.
         21   -1    0    0  501  502 -0.00000000000E+00 -0.00000000000E+00 -0.33744955332E+02  0.33744955332E+02  0.00000000000E+00 0. -1.
         25    1    1    2    0    0  0.00000000000E+00  0.00000000000E+00  0.82013087953E+02  0.14950299862E+03  0.12500000000E+03 0.  0.
<mgrwt>
<rscale>  0 0.12500000E+03</rscale>
<asrwt>0</asrwt>
<pdfrwt beam="1">  1       21 0.17808929E-01 0.12500000E+03</pdfrwt>
<pdfrwt beam="2">  1       21 0.51915317E-02 0.12500000E+03</pdfrwt>
<totfact> 0.70821689E+06</totfact>
</mgrwt>
</event>
<event>
 3    1  0.1602107E-001  0.1250000E+03  0.7546771E-02  0.1235069E+00
         21   -1    0    0  502  501  0.00000000000E+00  0.00000000000E+00  0.10147848474E+03  0.10147848474E+03  0.00000000000E+00 0. -1.
         21   -1    0    0  501  502 -0.00000000000E+00 -0.00000000000E+00 -0.38493381232E+02  0.38493381232E+02  0.00000000000E+00 0. -1.
         25    1    1    2    0    0  0.00000000000E+00  0.00000000000E+00  0.62985103509E+02  0.13997186597E+03  0.12500000000E+03 0.  0.
<mgrwt>
<rscale>  0 0.12500000E+03</rscale>
<asrwt>0</asrwt>
<pdfrwt beam="1">  1       21 0.15612074E-01 0.12500000E+03</pdfrwt>
<pdfrwt beam="2">  1       21 0.59220587E-02 0.12500000E+03</pdfrwt>
<totfact> 0.72042981E+06</totfact>
</mgrwt>
</event>
<event>
 3    1  0.1602107E-001  0.1250000E+03  0.7546771E-02  0.1235069E+00
         21   -1    0    0  502  501  0.00000000000E+00  0.00000000000E+00  0.22227052897E+02  0.22227052897E+02  0.00000000000E+00 0. -1.
         21   -1    0    0  501  502 -0.00000000000E+00 -0.00000000000E+00 -0.17574304691E+03  0.17574304691E+03  0.00000000000E+00 0. -1.
         25    1    1    2    0    0  0.00000000000E+00  0.00000000000E+00 -0.15351599401E+03  0.19797009981E+03  0.12500000000E+03 0.  0.
<mgrwt>
<rscale>  0 0.12500000E+03</rscale>
<asrwt>0</asrwt>
<pdfrwt beam="1">  1       21 0.34195467E-02 0.12500000E+03</pdfrwt>
<pdfrwt beam="2">  1       21 0.27037391E-01 0.12500000E+03</pdfrwt>
<totfact> 0.65147411E+06</totfact>
</mgrwt>
</event>
<event>
 3    1  0.1602107E-001  0.1250000E+03  0.7546771E-02  0.1235069E+00
         21   -1    0    0  502  501  0.00000000000E+00  0.00000000000E+00  0.20150726381E+03  0.20150726381E+03  0.00000000000E+00 0. -1.
         21   -1    0    0  501  502 -0.00000000000E+00 -0.00000000000E+00 -0.19385157270E+02  0.19385157270E+02  0.00000000000E+00 0. -1.
         25    1    1    2    0    0  0.00000000000E+00  0.00000000000E+00  0.18212210654E+03  0.22089242108E+03  0.12500000000E+03 0.  0.
<mgrwt>
<rscale>  0 0.12500000E+03</rscale>
<asrwt>0</asrwt>
<pdfrwt beam="1">  1       21 0.31001116E-01 0.12500000E+03</pdfrwt>
<pdfrwt beam="2">  1       21 0.29823320E-02 0.12500000E+03</pdfrwt>
<totfact> 0.62731435E+06</totfact>
</mgrwt>
</event>
<event>
 3    1  0.1602107E-001  0.1250000E+03  0.7546771E-02  0.1235069E+00
         21   -1    0    0  502  501  0.00000000000E+00  0.00000000000E+00  0.13947320500E+03  0.13947320500E+03  0.00000000000E+00 0. -1.
         21   -1    0    0  501  502 -0.00000000000E+00 -0.00000000000E+00 -0.28007171700E+02  0.28007171700E+02  0.00000000000E+00 0. -1.
         25    1    1    2    0    0  0.00000000000E+00  0.00000000000E+00  0.11146603330E+03  0.16748037670E+03  0.12500000000E+03 0.  0.
<mgrwt>
<rscale>  0 0.12500000E+03</rscale>
<asrwt>0</asrwt>
<pdfrwt beam="1">  1       21 0.21457416E-01 0.12500000E+03</pdfrwt>
<pdfrwt beam="2">  1       21 0.43087957E-02 0.12500000E+03</pdfrwt>
<totfact> 0.68616830E+06</totfact>
</mgrwt>
</event>
<event>
 3    1  0.1602107E-001  0.1250000E+03  0.7546771E-02  0.1235069E+00
         21   -1    0    0  502  501  0.00000000000E+00  0.00000000000E+00  0.47957180412E+02  0.47957180412E+02  0.00000000000E+00 0.  1.
         21   -1    0    0  501  502 -0.00000000000E+00 -0.00000000000E+00 -0.81452870383E+02  0.81452870383E+02  0.00000000000E+00 0.  1.
         25    1    1    2    0    0  0.00000000000E+00  0.00000000000E+00 -0.33495689971E+02  0.12941005079E+03  0.12500000000E+03 0.  0.
<mgrwt>
<rscale>  0 0.12500000E+03</rscale>
<asrwt>0</asrwt>
<pdfrwt beam="1">  1       21 0.73780278E-02 0.12500000E+03</pdfrwt>
<pdfrwt beam="2">  1       21 0.12531211E-01 0.12500000E+03</pdfrwt>
<totfact> 0.73443869E+06</totfact>
</mgrwt>
</event>
<event>
 3    1  0.1602107E-001  0.1250000E+03  0.7546771E-02  0.1235069E+00
         21   -1    0    0  502  501  0.00000000000E+00  0.00000000000E+00  0.24261533687E+02  0.24261533687E+02  0.00000000000E+00 0. -1.
         21   -1    0    0  501  502 -0.00000000000E+00 -0.00000000000E+00 -0.16100589725E+03  0.16100589725E+03  0.00000000000E+00 0. -1.
         25    1    1    2    0    0  0.00000000000E+00  0.00000000000E+00 -0.13674436357E+03  0.18526743094E+03  0.12500000000E+03 0.  0.
<mgrwt>
<rscale>  0 0.12500000E+03</rscale>
<asrwt>0</asrwt>
<pdfrwt beam="1">  1       21 0.37325438E-02 0.12500000E+03</pdfrwt>
<pdfrwt beam="2">  1       21 0.24770137E-01 0.12500000E+03</pdfrwt>
<totfact> 0.66552351E+06</totfact>
</mgrwt>
</event>
<event>
 3    1  0.1602107E-001  0.1250000E+03  0.7546771E-02  0.1235069E+00
         21   -1    0    0  502  501  0.00000000000E+00  0.00000000000E+00  0.52798562451E+01  0.52798562451E+01  0.00000000000E+00 0. -1.
         21   -1    0    0  501  502 -0.00000000000E+00 -0.00000000000E+00 -0.73984021888E+03  0.73984021888E+03  0.00000000000E+00 0. -1.
         25    1    1    2    0    0  0.00000000000E+00  0.00000000000E+00 -0.73456036263E+03  0.74512007512E+03  0.12500000000E+03 0.  0.
<mgrwt>
<rscale>  0 0.12500000E+03</rscale>
<asrwt>0</asrwt>
<pdfrwt beam="1">  1       21 0.81228588E-03 0.12500000E+03</pdfrwt>
<pdfrwt beam="2">  1       21 0.11382153E+00 0.12500000E+03</pdfrwt>
<totfact> 0.31241251E+06</totfact>
</mgrwt>
</event>
<event>
 3    1  0.1602107E-001  0.1250000E+03  0.7546771E-02  0.1235069E+00
         21   -1    0    0  502  501  0.00000000000E+00  0.00000000000E+00  0.54187639853E+03  0.54187639853E+03  0.00000000000E+00 0.  1.
         21   -1    0    0  501  502 -0.00000000000E+00 -0.00000000000E+00 -0.72087472541E+01  0.72087472541E+01  0.00000000000E+00 0.  1.
         25    1    1    2    0    0  0.00000000000E+00  0.00000000000E+00  0.53466765128E+03  0.54908514579E+03  0.12500000000E+03 0.  0.
<mgrwt>
<rscale>  0 0.12500000E+03</rscale>
<asrwt>0</asrwt>
<pdfrwt beam="1">  1       21 0.83365568E-01 0.12500000E+03</pdfrwt>
<pdfrwt beam="2">  1       21 0.11090385E-02 0.12500000E+03</pdfrwt>
<totfact> 0.39501327E+06</totfact>
</mgrwt>
</event>
<event>
 3    1  0.1602107E-001  0.1250000E+03  0.7546771E-02  0.1235069E+00
         21   -1    0    0  502  501  0.00000000000E+00  0.00000000000E+00  0.31919745452E+03  0.31919745452E+03  0.00000000000E+00 0.  1.
         21   -1    0    0  501  502 -0.00000000000E+00 -0.00000000000E+00 -0.12237722904E+02  0.12237722904E+02  0.00000000000E+00 0.  1.
         25    1    1    2    0    0  0.00000000000E+00  0.00000000000E+00  0.30695973161E+03  0.33143517742E+03  0.12500000000E+03 0.  0.
<mgrwt>
<rscale>  0 0.12500000E+03</rscale>
<asrwt>0</asrwt>
<pdfrwt beam="1">  1       21 0.49107294E-01 0.12500000E+03</pdfrwt>
<pdfrwt beam="2">  1       21 0.18827268E-02 0.12500000E+03</pdfrwt>
<totfact> 0.52939427E+06</totfact>
</mgrwt>
</event>
<event>
 3    1  0.1602107E-001  0.1250000E+03  0.7546771E-02  0.1235069E+00
         21   -1    0    0  502  501  0.00000000000E+00  0.00000000000E+00  0.63887296721E+02  0.63887296721E+02  0.00000000000E+00 0. -1.
         21   -1    0    0  501  502 -0.00000000000E+00 -0.00000000000E+00 -0.61142828081E+02  0.61142828081E+02  0.00000000000E+00 0. -1.
         25    1    1    2    0    0  0.00000000000E+00  0.00000000000E+00  0.27444686404E+01  0.12503012480E+03  0.12500000000E+03 0.  0.
<mgrwt>
<rscale>  0 0.12500000E+03</rscale>
<asrwt>0</asrwt>
<pdfrwt beam="1">  1       21 0.98288149E-02 0.12500000E+03</pdfrwt>
<pdfrwt beam="2">  1       21 0.94065889E-02 0.12500000E+03</pdfrwt>
<totfact> 0.74039512E+06</totfact>
</mgrwt>
</event>
<event>
 3    1  0.1602107E-001  0.1250000E+03  0.7546771E-02  0.1235069E+00
         21   -1    0    0  502  501  0.00000000000E+00  0.00000000000E+00  0.22044779164E+03  0.22044779164E+03  0.00000000000E+00 0. -1.
         21   -1    0    0  501  502 -0.00000000000E+00 -0.00000000000E+00 -0.17719615021E+02  0.17719615021E+02  0.00000000000E+00 0. -1.
         25    1    1    2    0    0  0.00000000000E+00  0.00000000000E+00  0.20272817662E+03  0.23816740666E+03  0.12500000000E+03 0.  0.
<mgrwt>
<rscale>  0 0.12500000E+03</rscale>
<asrwt>0</asrwt>
<pdfrwt beam="1">  1       21 0.33915043E-01 0.12500000E+03</pdfrwt>
<pdfrwt beam="2">  1       21 0.27260948E-02 0.12500000E+03</pdfrwt>
<totfact> 0.61010452E+06</totfact>
</mgrwt>
</event>
<event>
 3    1  0.1602107E-001  0.1250000E+03  0.7546771E-02  0.1235069E+00
         21   -1    0    0  502  501  0.00000000000E+00  0.00000000000E+00  0.27318445014E+02  0.27318445014E+02  0.00000000000E+00 0. -1.
         21   -1    0    0  501  502 -0.00000000000E+00 -0.00000000000E+00 -0.14298947096E+03  0.14298947096E+03  0.00000000000E+00 0. -1.
         25    1    1    2    0    0  0.00000000000E+00  0.00000000000E+00 -0.11567102594E+03  0.17030791597E+03  0.12500000000E+03 0.  0.
<mgrwt>
<rscale>  0 0.12500000E+03</rscale>
<asrwt>0</asrwt>
<pdfrwt beam="1">  1       21 0.42028378E-02 0.12500000E+03</pdfrwt>
<pdfrwt beam="2">  1       21 0.21998380E-01 0.12500000E+03</pdfrwt>
<totfact> 0.68281153E+06</totfact>
</mgrwt>
</event>
<event>
 3    1  0.1602107E-001  0.1250000E+03  0.7546771E-02  0.1235069E+00
         21   -1    0    0  502  501  0.00000000000E+00  0.00000000000E+00  0.25793229105E+02  0.25793229105E+02  0.00000000000E+00 0.  1.
         21   -1    0    0  501  502 -0.00000000000E+00 -0.00000000000E+00 -0.15144478359E+03  0.15144478359E+03  0.00000000000E+00 0.  1.
         25    1    1    2    0    0  0.00000000000E+00  0.00000000000E+00 -0.12565155449E+03  0.17723801270E+03  0.12500000000E+03 0.  0.
<mgrwt>
<rscale>  0 0.12500000E+03</rscale>
<asrwt>0</asrwt>
<pdfrwt beam="1">  1       21 0.39681891E-02 0.12500000E+03</pdfrwt>
<pdfrwt beam="2">  1       21 0.23299197E-01 0.12500000E+03</pdfrwt>
<totfact> 0.67469804E+06</totfact>
</mgrwt>
</event>
<event>
 3    1  0.1602107E-001  0.1250000E+03  0.7546771E-02  0.1235069E+00
         21   -1    0    0  502  501  0.00000000000E+00  0.00000000000E+00  0.46906903503E+02  0.46906903503E+02  0.00000000000E+00 0.  1.
         21   -1    0    0  501  502 -0.00000000000E+00 -0.00000000000E+00 -0.83276654570E+02  0.83276654570E+02  0.00000000000E+00 0.  1.
         25    1    1    2    0    0  0.00000000000E+00  0.00000000000E+00 -0.36369751067E+02  0.13018355807E+03  0.12500000000E+03 0.  0.
<mgrwt>
<rscale>  0 0.12500000E+03</rscale>
<asrwt>0</asrwt>
<pdfrwt beam="1">  1       21 0.72164467E-02 0.12500000E+03</pdfrwt>
<pdfrwt beam="2">  1       21 0.12811793E-01 0.12500000E+03</pdfrwt>
<totfact> 0.73340393E+06</totfact>
</mgrwt>
</event>
<event>
 3    1  0.1602107E-001  0.1250000E+03  0.7546771E-02  0.1235069E+00
         21   -1    0    0  502  501  0.00000000000E+00  0.00000000000E+00  0.30092174300E+02  0.30092174300E+02  0.00000000000E+00 0. -1.
         21   -1    0    0  501  502 -0.00000000000E+00 -0.00000000000E+00 -0.12980949668E+03  0.12980949668E+03  0.00000000000E+00 0. -1.
         25    1    1    2    0    0  0.00000000000E+00  0.00000000000E+00 -0.99717322383E+02  0.15990167098E+03  0.12500000000E+03 0.  0.
<mgrwt>
<rscale>  0 0.12500000E+03</rscale>
<asrwt>0</asrwt>
<pdfrwt beam="1">  1       21 0.46295654E-02 0.12500000E+03</pdfrwt>
<pdfrwt beam="2">  1       21 0.19970691E-01 0.12500000E+03</pdfrwt>
<totfact> 0.69531513E+06</totfact>
</mgrwt>
</event>
<event>
 3    1  0.1602107E-001  0.1250000E+03  0.7546771E-02  0.1235069E+00
         21   -1    0    0  502  501  0.00000000000E+00  0.00000000000E+00  0.26678374092E+03  0.26678374092E+03  0.00000000000E+00 0. -1.
         21   -1    0    0  501  502 -0.00000000000E+00 -0.00000000000E+00 -0.14642009241E+02  0.14642009241E+02  0.00000000000E+00 0. -1.
         25    1    1    2    0    0  0.00000000000E+00  0.00000000000E+00  0.25214173168E+03  0.28142575016E+03  0.12500000000E+03 0.  0.
<mgrwt>
<rscale>  0 0.12500000E+03</rscale>
<asrwt>0</asrwt>
<pdfrwt beam="1">  1       21 0.41043649E-01 0.12500000E+03</pdfrwt>
<pdfrwt beam="2">  1       21 0.22526170E-02 0.12500000E+03</pdfrwt>
<totfact> 0.57035979E+06</totfact>
</mgrwt>
</event>
<event>
 3    1  0.1602107E-001  0.1250000E+03  0.7546771E-02  0.1235069E+00
         21   -1    0    0  502  501  0.00000000000E+00  0.00000000000E+00  0.70515135382E+02  0.70515135382E+02  0.00000000000E+00 0.  1.
         21   -1    0    0  501  502 -0.00000000000E+00 -0.00000000000E+00 -0.55395908677E+02  0.55395908677E+02  0.00000000000E+00 0.  1.
         25    1    1    2    0    0  0.00000000000E+00  0.00000000000E+00  0.15119226705E+02  0.12591104406E+03  0.12500000000E+03 0.  0.
<mgrwt>
<rscale>  0 0.12500000E+03</rscale>
<asrwt>0</asrwt>
<pdfrwt beam="1">  1       21 0.10848482E-01 0.12500000E+03</pdfrwt>
<pdfrwt beam="2">  1       21 0.85224475E-02 0.12500000E+03</pdfrwt>
<totfact> 0.73918315E+06</totfact>
</mgrwt>
</event>
<event>
 3    1  0.1602107E-001  0.1250000E+03  0.7546771E-02  0.1235069E+00
         21   -1    0    0  502  501  0.00000000000E+00  0.00000000000E+00  0.64350883137E+03  0.64350883137E+03  0.00000000000E+00 0. -1.
         21   -1    0    0  501  502 -0.00000000000E+00 -0.00000000000E+00 -0.60702352626E+01  0.60702352626E+01  0.00000000000E+00 0. -1.
         25    1    1    2    0    0  0.00000000000E+00  0.00000000000E+00  0.63743859611E+03  0.64957906664E+03  0.12500000000E+03 0.  0.
<mgrwt>
<rscale>  0 0.12500000E+03</rscale>
<asrwt>0</asrwt>
<pdfrwt beam="1">  1       21 0.99001305E-01 0.12500000E+03</pdfrwt>
<pdfrwt beam="2">  1       21 0.93388286E-03 0.12500000E+03</pdfrwt>
<totfact> 0.34942059E+06</totfact>
</mgrwt>
</event>
<event>
 3    1  0.1602107E-001  0.1250000E+03  0.7546771E-02  0.1235069E+00
         21   -1    0    0  502  501  0.00000000000E+00  0.00000000000E+00  0.14052529645E+02  0.14052529645E+02  0.00000000000E+00 0. -1.
         21   -1    0    0  501  502 -0.00000000000E+00 -0.00000000000E+00 -0.27797486279E+03  0.27797486279E+03  0.00000000000E+00 0. -1.
         25    1    1    2    0    0  0.00000000000E+00  0.00000000000E+00 -0.26392233314E+03  0.29202739243E+03  0.12500000000E+03 0.  0.
<mgrwt>
<rscale>  0 0.12500000E+03</rscale>
<asrwt>0</asrwt>
<pdfrwt beam="1">  1       21 0.21619277E-02 0.12500000E+03</pdfrwt>
<pdfrwt beam="2">  1       21 0.42765362E-01 0.12500000E+03</pdfrwt>
<totfact> 0.56125306E+06</totfact>
</mgrwt>
</event>
<event>
 3    1  0.1602107E-001  0.1250000E+03  0.7546771E-02  0.1235069E+00
         21   -1    0    0  502  501  0.00000000000E+00  0.00000000000E+00  0.25362681623E+02  0.25362681623E+02  0.00000000000E+00 0. -1.
         21   -1    0    0  501  502 -0.00000000000E+00 -0.00000000000E+00 -0.15401565411E+03  0.15401565411E+03  0.00000000000E+00 0. -1.
         25    1    1    2    0    0  0.00000000000E+00  0.00000000000E+00 -0.12865297248E+03  0.17937833573E+03  0.12500000000E+03 0.  0.
<mgrwt>
<rscale>  0 0.12500000E+03</rscale>
<asrwt>0</asrwt>
<pdfrwt beam="1">  1       21 0.39019510E-02 0.12500000E+03</pdfrwt>
<pdfrwt beam="2">  1       21 0.23694716E-01 0.12500000E+03</pdfrwt>
<totfact> 0.67222923E+06</totfact>
</mgrwt>
</event>
<event>
 3    1  0.1602107E-001  0.1250000E+03  0.7546771E-02  0.1235069E+00
         21   -1    0    0  502  501  0.00000000000E+00  0.00000000000E+00  0.46671366766E+03  0.46671366766E+03  0.00000000000E+00 0. -1.
         21   -1    0    0  501  502 -0.00000000000E+00 -0.00000000000E+00 -0.83696927489E+01  0.83696927489E+01  0.00000000000E+00 0. -1.
         25    1    1    2    0    0  0.00000000000E+00  0.00000000000E+00  0.45834397491E+03  0.47508336041E+03  0.12500000000E+03 0.  0.
<mgrwt>
<rscale>  0 0.12500000E+03</rscale>
<asrwt>0</asrwt>
<pdfrwt beam="1">  1       21 0.71802083E-01 0.12500000E+03</pdfrwt>
<pdfrwt beam="2">  1       21 0.12876454E-02 0.12500000E+03</pdfrwt>
<totfact> 0.43428418E+06</totfact>
</mgrwt>
</event>
<event>
 3    1  0.1602107E-001  0.1250000E+03  0.7546771E-02  0.1235069E+00
         21   -1    0    0  502  501  0.00000000000E+00  0.00000000000E+00  0.23785215168E+03  0.23785215168E+03  0.00000000000E+00 0.  1.
         21   -1    0    0  501  502 -0.00000000000E+00 -0.00000000000E+00 -0.16423017292E+02  0.16423017292E+02  0.00000000000E+00 0.  1.
         25    1    1    2    0    0  0.00000000000E+00  0.00000000000E+00  0.22142913439E+03  0.25427516897E+03  0.12500000000E+03 0.  0.
<mgrwt>
<rscale>  0 0.12500000E+03</rscale>
<asrwt>0</asrwt>
<pdfrwt beam="1">  1       21 0.36592636E-01 0.12500000E+03</pdfrwt>
<pdfrwt beam="2">  1       21 0.25266182E-02 0.12500000E+03</pdfrwt>
<totfact> 0.59478008E+06</totfact>
</mgrwt>
</event>
<event>
 3    1  0.1602107E-001  0.1250000E+03  0.7546771E-02  0.1235069E+00
         21   -1    0    0  502  501  0.00000000000E+00  0.00000000000E+00  0.18762160914E+02  0.18762160914E+02  0.00000000000E+00 0.  1.
         21   -1    0    0  501  502 -0.00000000000E+00 -0.00000000000E+00 -0.20819829964E+03  0.20819829964E+03  0.00000000000E+00 0.  1.
         25    1    1    2    0    0  0.00000000000E+00  0.00000000000E+00 -0.18943613873E+03  0.22696046056E+03  0.12500000000E+03 0.  0.
<mgrwt>
<rscale>  0 0.12500000E+03</rscale>
<asrwt>0</asrwt>
<pdfrwt beam="1">  1       21 0.28864863E-02 0.12500000E+03</pdfrwt>
<pdfrwt beam="2">  1       21 0.32030507E-01 0.12500000E+03</pdfrwt>
<totfact> 0.62117773E+06</totfact>
</mgrwt>
</event>
<event>
 3    1  0.1602107E-001  0.1250000E+03  0.7546771E-02  0.1235069E+00
         21   -1    0    0  502  501  0.00000000000E+00  0.00000000000E+00  0.48356812702E+02  0.48356812702E+02  0.00000000000E+00 0. -1.
         21   -1    0    0  501  502 -0.00000000000E+00 -0.00000000000E+00 -0.80779724340E+02  0.80779724340E+02  0.00000000000E+00 0. -1.
         25    1    1    2    0    0  0.00000000000E+00  0.00000000000E+00 -0.32422911638E+02  0.12913653704E+03  0.12500000000E+03 0.  0.
<mgrwt>
<rscale>  0 0.12500000E+03</rscale>
<asrwt>0</asrwt>
<pdfrwt beam="1">  1       21 0.74395097E-02 0.12500000E+03</pdfrwt>
<pdfrwt beam="2">  1       21 0.12427650E-01 0.12500000E+03</pdfrwt>
<totfact> 0.73480550E+06</totfact>
</mgrwt>
</event>
<event>
 3    1  0.1602107E-001  0.1250000E+03  0.7546771E-02  0.1235069E+00
         21   -1    0    0  502  501  0.00000000000E+00  0.00000000000E+00  0.75327544730E+02  0.75327544730E+02  0.00000000000E+00 0. -1.
         21   -1    0    0  501  502 -0.00000000000E+00 -0.00000000000E+00 -0.51856860780E+02  0.51856860780E+02  0.00000000000E+00 0. -1.
         25    1    1    2    0    0  0.00000000000E+00  0.00000000000E+00  0.23470683950E+02  0.12718440551E+03  0.12500000000E+03 0.  0.
<mgrwt>
<rscale>  0 0.12500000E+03</rscale>
<asrwt>0</asrwt>
<pdfrwt beam="1">  1       21 0.11588853E-01 0.12500000E+03</pdfrwt>
<pdfrwt beam="2">  1       21 0.79779785E-02 0.12500000E+03</pdfrwt>
<totfact> 0.73744054E+06</totfact>
</mgrwt>
</event>
<event>
 3    1  0.1602107E-001  0.1250000E+03  0.7546771E-02  0.1235069E+00
         21   -1    0    0  502  501  0.00000000000E+00  0.00000000000E+00  0.15427630124E+03  0.15427630124E+03  0.00000000000E+00 0. -1.
         21   -1    0    0  501  502 -0.00000000000E+00 -0.00000000000E+00 -0.25319831812E+02  0.25319831812E+02  0.00000000000E+00 0. -1.
         25    1    1    2    0    0  0.00000000000E+00  0.00000000000E+00  0.12895646943E+03  0.17959613305E+03  0.12500000000E+03 0.  0.
<mgrwt>
<rscale>  0 0.12500000E+03</rscale>
<asrwt>0</asrwt>
<pdfrwt beam="1">  1       21 0.23734815E-01 0.12500000E+03</pdfrwt>
<pdfrwt beam="2">  1       21 0.38953588E-02 0.12500000E+03</pdfrwt>
<totfact> 0.67197897E+06</totfact>
</mgrwt>
</event>
<event>
 3    1  0.1602107E-001  0.1250000E+03  0.7546771E-02  0.1235069E+00
         21   -1    0    0  502  501  0.00000000000E+00  0.00000000000E+00  0.19594522474E+02  0.19594522474E+02  0.00000000000E+00 0. -1.
         21   -1    0    0  501  502 -0.00000000000E+00 -0.00000000000E+00 -0.19935418203E+03  0.19935418203E+03  0.00000000000E+00 0. -1.
         25    1    1    2    0    0  0.00000000000E+00  0.00000000000E+00 -0.17975965955E+03  0.21894870450E+03  0.12500000000E+03 0.  0.
<mgrwt>
<rscale>  0 0.12500000E+03</rscale>
<asrwt>0</asrwt>
<pdfrwt beam="1">  1       21 0.30145421E-02 0.12500000E+03</pdfrwt>
<pdfrwt beam="2">  1       21 0.30669872E-01 0.12500000E+03</pdfrwt>
<totfact> 0.62930155E+06</totfact>
</mgrwt>
</event>
<event>
 3    1  0.1602107E-001  0.1250000E+03  0.7546771E-02  0.1235069E+00
         21   -1    0    0  502  501  0.00000000000E+00  0.00000000000E+00  0.28556537261E+03  0.28556537261E+03  0.00000000000E+00 0. -1.
         21   -1    0    0  501  502 -0.00000000000E+00 -0.00000000000E+00 -0.13679004441E+02  0.13679004441E+02  0.00000000000E+00 0. -1.
         25    1    1    2    0    0  0.00000000000E+00  0.00000000000E+00  0.27188636817E+03  0.29924437705E+03  0.12500000000E+03 0.  0.
<mgrwt>
<rscale>  0 0.12500000E+03</rscale>
<asrwt>0</asrwt>
<pdfrwt beam="1">  1       21 0.43933130E-01 0.12500000E+03</pdfrwt>
<pdfrwt beam="2">  1       21 0.21044624E-02 0.12500000E+03</pdfrwt>
<totfact> 0.55519029E+06</totfact>
</mgrwt>
</event>
<event>
 3    1  0.1602107E-001  0.1250000E+03  0.7546771E-02  0.1235069E+00
         21   -1    0    0  502  501  0.00000000000E+00  0.00000000000E+00  0.15807967280E+03  0.15807967280E+03  0.00000000000E+00 0.  1.
         21   -1    0    0  501  502 -0.00000000000E+00 -0.00000000000E+00 -0.24710640722E+02  0.24710640722E+02  0.00000000000E+00 0.  1.
         25    1    1    2    0    0  0.00000000000E+00  0.00000000000E+00  0.13336903207E+03  0.18279031352E+03  0.12500000000E+03 0.  0.
<mgrwt>
<rscale>  0 0.12500000E+03</rscale>
<asrwt>0</asrwt>
<pdfrwt beam="1">  1       21 0.24319949E-01 0.12500000E+03</pdfrwt>
<pdfrwt beam="2">  1       21 0.38016371E-02 0.12500000E+03</pdfrwt>
<totfact> 0.66832874E+06</totfact>
</mgrwt>
</event>
<event>
 3    1  0.1602107E-001  0.1250000E+03  0.7546771E-02  0.1235069E+00
         21   -1    0    0  502  501  0.00000000000E+00  0.00000000000E+00  0.54605586929E+01  0.54605586929E+01  0.00000000000E+00 0.  1.
         21   -1    0    0  501  502 -0.00000000000E+00 -0.00000000000E+00 -0.71535720422E+03  0.71535720422E+03  0.00000000000E+00 0.  1.
         25    1    1    2    0    0  0.00000000000E+00  0.00000000000E+00 -0.70989664552E+03  0.72081776291E+03  0.12500000000E+03 0.  0.
<mgrwt>
<rscale>  0 0.12500000E+03</rscale>
<asrwt>0</asrwt>
<pdfrwt beam="1">  1       21 0.84008596E-03 0.12500000E+03</pdfrwt>
<pdfrwt beam="2">  1       21 0.11005495E+00 0.12500000E+03</pdfrwt>
<totfact> 0.32122839E+06</totfact>
</mgrwt>
</event>
<event>
 3    1  0.1602107E-001  0.1250000E+03  0.7546771E-02  0.1235069E+00
         21   -1    0    0  502  501  0.00000000000E+00  0.00000000000E+00  0.26411907281E+02  0.26411907281E+02  0.00000000000E+00 0.  1.
         21   -1    0    0  501  502 -0.00000000000E+00 -0.00000000000E+00 -0.14789730853E+03  0.14789730853E+03  0.00000000000E+00 0.  1.
         25    1    1    2    0    0  0.00000000000E+00  0.00000000000E+00 -0.12148540125E+03  0.17430921581E+03  0.12500000000E+03 0.  0.
<mgrwt>
<rscale>  0 0.12500000E+03</rscale>
<asrwt>0</asrwt>
<pdfrwt beam="1">  1       21 0.40633704E-02 0.12500000E+03</pdfrwt>
<pdfrwt beam="2">  1       21 0.22753432E-01 0.12500000E+03</pdfrwt>
<totfact> 0.67810438E+06</totfact>
</mgrwt>
</event>
<event>
 3    1  0.1602107E-001  0.1250000E+03  0.7546771E-02  0.1235069E+00
         21   -1    0    0  502  501  0.00000000000E+00  0.00000000000E+00  0.36354644913E+03  0.36354644913E+03  0.00000000000E+00 0. -1.
         21   -1    0    0  501  502 -0.00000000000E+00 -0.00000000000E+00 -0.10744844323E+02  0.10744844323E+02  0.00000000000E+00 0. -1.
         25    1    1    2    0    0  0.00000000000E+00  0.00000000000E+00  0.35280160480E+03  0.37429129345E+03  0.12500000000E+03 0.  0.
<mgrwt>
<rscale>  0 0.12500000E+03</rscale>
<asrwt>0</asrwt>
<pdfrwt beam="1">  1       21 0.55930213E-01 0.12500000E+03</pdfrwt>
<pdfrwt beam="2">  1       21 0.16530533E-02 0.12500000E+03</pdfrwt>
<totfact> 0.49792982E+06</totfact>
</mgrwt>
</event>
<event>
 3    1  0.1602107E-001  0.1250000E+03  0.7546771E-02  0.1235069E+00
         21   -1    0    0  502  501  0.00000000000E+00  0.00000000000E+00  0.55872896741E+02  0.55872896741E+02  0.00000000000E+00 0. -1.
         21   -1    0    0  501  502 -0.00000000000E+00 -0.00000000000E+00 -0.69913146228E+02  0.69913146228E+02  0.00000000000E+00 0. -1.
         25    1    1    2    0    0  0.00000000000E+00  0.00000000000E+00 -0.14040249487E+02  0.12578604297E+03  0.12500000000E+03 0.  0.
<mgrwt>
<rscale>  0 0.12500000E+03</rscale>
<asrwt>0</asrwt>
<pdfrwt beam="1">  1       21 0.85958303E-02 0.12500000E+03</pdfrwt>
<pdfrwt beam="2">  1       21 0.10755869E-01 0.12500000E+03</pdfrwt>
<totfact> 0.73935605E+06</totfact>
</mgrwt>
</event>
<event>
 3    1  0.1602107E-001  0.1250000E+03  0.7546771E-02  0.1235069E+00
         21   -1    0    0  502  501  0.00000000000E+00  0.00000000000E+00  0.52126588452E+02  0.52126588452E+02  0.00000000000E+00 0. -1.
         21   -1    0    0  501  502 -0.00000000000E+00 -0.00000000000E+00 -0.74937764316E+02  0.74937764316E+02  0.00000000000E+00 0. -1.
         25    1    1    2    0    0  0.00000000000E+00  0.00000000000E+00 -0.22811175864E+02  0.12706435277E+03  0.12500000000E+03 0.  0.
<mgrwt>
<rscale>  0 0.12500000E+03</rscale>
<asrwt>0</asrwt>
<pdfrwt beam="1">  1       21 0.80194752E-02 0.12500000E+03</pdfrwt>
<pdfrwt beam="2">  1       21 0.11528887E-01 0.12500000E+03</pdfrwt>
<totfact> 0.73760378E+06</totfact>
</mgrwt>
</event>
<event>
 3    1  0.1602107E-001  0.1250000E+03  0.7546771E-02  0.1235069E+00
         21   -1    0    0  502  501  0.00000000000E+00  0.00000000000E+00  0.24755788852E+03  0.24755788852E+03  0.00000000000E+00 0. -1.
         21   -1    0    0  501  502 -0.00000000000E+00 -0.00000000000E+00 -0.15779137653E+02  0.15779137653E+02  0.00000000000E+00 0. -1.
         25    1    1    2    0    0  0.00000000000E+00  0.00000000000E+00  0.23177875086E+03  0.26333702617E+03  0.12500000000E+03 0.  0.
<mgrwt>
<rscale>  0 0.12500000E+03</rscale>
<asrwt>0</asrwt>
<pdfrwt beam="1">  1       21 0.38085826E-01 0.12500000E+03</pdfrwt>
<pdfrwt beam="2">  1       21 0.24275598E-02 0.12500000E+03</pdfrwt>
<totfact> 0.58644760E+06</totfact>
</mgrwt>
</event>
<event>
 3    1  0.1602107E-001  0.1250000E+03  0.7546771E-02  0.1235069E+00
         21   -1    0    0  502  501  0.00000000000E+00  0.00000000000E+00  0.13550445230E+02  0.13550445230E+02  0.00000000000E+00 0.  1.
         21   -1    0    0  501  502 -0.00000000000E+00 -0.00000000000E+00 -0.28827466063E+03  0.28827466063E+03  0.00000000000E+00 0.  1.
         25    1    1    2    0    0  0.00000000000E+00  0.00000000000E+00 -0.27472421540E+03  0.30182510586E+03  0.12500000000E+03 0.  0.
<mgrwt>
<rscale>  0 0.12500000E+03</rscale>
<asrwt>0</asrwt>
<pdfrwt beam="1">  1       21 0.20846840E-02 0.12500000E+03</pdfrwt>
<pdfrwt beam="2">  1       21 0.44349946E-01 0.12500000E+03</pdfrwt>
<totfact> 0.55304841E+06</totfact>
</mgrwt>
</event>
<event>
 3    1  0.1602107E-001  0.1250000E+03  0.7546771E-02  0.1235069E+00
         21   -1    0    0  502  501  0.00000000000E+00  0.00000000000E+00  0.62954097832E+02  0.62954097832E+02  0.00000000000E+00 0.  1.
         21   -1    0    0  501  502 -0.00000000000E+00 -0.00000000000E+00 -0.62049177648E+02  0.62049177648E+02  0.00000000000E+00 0.  1.
         25    1    1    2    0    0  0.00000000000E+00  0.00000000000E+00  0.90492018393E+00  0.12500327548E+03  0.12500000000E+03 0.  0.
<mgrwt>
<rscale>  0 0.12500000E+03</rscale>
<asrwt>0</asrwt>
<pdfrwt beam="1">  1       21 0.96852458E-02 0.12500000E+03</pdfrwt>
<pdfrwt beam="2">  1       21 0.95460273E-02 0.12500000E+03</pdfrwt>
<totfact> 0.74043139E+06</totfact>
</mgrwt>
</event>
<event>
 3    1  0.1602107E-001  0.1250000E+03  0.7546771E-02  0.1235069E+00
         21   -1    0    0  502  501  0.00000000000E+00  0.00000000000E+00  0.26436716937E+03  0.26436716937E+03  0.00000000000E+00 0.  1.
         21   -1    0    0  501  502 -0.00000000000E+00 -0.00000000000E+00 -0.14775851363E+02  0.14775851363E+02  0.00000000000E+00 0.  1.
         25    1    1    2    0    0  0.00000000000E+00  0.00000000000E+00  0.24959131801E+03  0.27914302073E+03  0.12500000000E+03 0.  0.
<mgrwt>
<rscale>  0 0.12500000E+03</rscale>
<asrwt>0</asrwt>
<pdfrwt beam="1">  1       21 0.40671869E-01 0.12500000E+03</pdfrwt>
<pdfrwt beam="2">  1       21 0.22732081E-02 0.12500000E+03</pdfrwt>
<totfact> 0.57235270E+06</totfact>
</mgrwt>
</event>
<event>
 3    1  0.1602107E-001  0.1250000E+03  0.7546771E-02  0.1235069E+00
         21   -1    0    0  502  501  0.00000000000E+00  0.00000000000E+00  0.80818374496E+02  0.80818374496E+02  0.00000000000E+00 0. -1.
         21   -1    0    0  501  502 -0.00000000000E+00 -0.00000000000E+00 -0.48333686793E+02  0.48333686793E+02  0.00000000000E+00 0. -1.
         25    1    1    2    0    0  0.00000000000E+00  0.00000000000E+00  0.32484687703E+02  0.12915206129E+03  0.12500000000E+03 0.  0.
<mgrwt>
<rscale>  0 0.12500000E+03</rscale>
<asrwt>0</asrwt>
<pdfrwt beam="1">  1       21 0.12433596E-01 0.12500000E+03</pdfrwt>
<pdfrwt beam="2">  1       21 0.74359518E-02 0.12500000E+03</pdfrwt>
<totfact> 0.73478467E+06</totfact>
</mgrwt>
</event>
<event>
 3    1  0.1602107E-001  0.1250000E+03  0.7546771E-02  0.1235069E+00
         21   -1    0    0  502  501  0.00000000000E+00  0.00000000000E+00  0.21083514920E+03  0.21083514920E+03  0.00000000000E+00 0. -1.
         21   -1    0    0  501  502 -0.00000000000E+00 -0.00000000000E+00 -0.18527508410E+02  0.18527508410E+02  0.00000000000E+00 0. -1.
         25    1    1    2    0    0  0.00000000000E+00  0.00000000000E+00  0.19230764079E+03  0.22936265761E+03  0.12500000000E+03 0.  0.
<mgrwt>
<rscale>  0 0.12500000E+03</rscale>
<asrwt>0</asrwt>
<pdfrwt beam="1">  1       21 0.32436175E-01 0.12500000E+03</pdfrwt>
<pdfrwt beam="2">  1       21 0.28503861E-02 0.12500000E+03</pdfrwt>
<totfact> 0.61877464E+06</totfact>
</mgrwt>
</event>
<event>
 3    1  0.1602107E-001  0.1250000E+03  0.7546771E-02  0.1235069E+00
         21   -1    0    0  502  501  0.00000000000E+00  0.00000000000E+00  0.20378501489E+02  0.20378501489E+02  0.00000000000E+00 0. -1.
         21   -1    0    0  501  502 -0.00000000000E+00 -0.00000000000E+00 -0.19168484994E+03  0.19168484994E+03  0.00000000000E+00 0. -1.
         25    1    1    2    0    0  0.00000000000E+00  0.00000000000E+00 -0.17130634845E+03  0.21206335143E+03  0.12500000000E+03 0.  0.
<mgrwt>
<rscale>  0 0.12500000E+03</rscale>
<asrwt>0</asrwt>
<pdfrwt beam="1">  1       21 0.31351541E-02 0.12500000E+03</pdfrwt>
<pdfrwt beam="2">  1       21 0.29489977E-01 0.12500000E+03</pdfrwt>
<totfact> 0.63643099E+06</totfact>
</mgrwt>
</event>
<event>
 3    1  0.1602107E-001  0.1250000E+03  0.7546771E-02  0.1235069E+00
         21   -1    0    0  502  501  0.00000000000E+00  0.00000000000E+00  0.30115040763E+03  0.30115040763E+03  0.00000000000E+00 0.  1.
         21   -1    0    0  501  502 -0.00000000000E+00 -0.00000000000E+00 -0.12971093185E+02  0.12971093185E+02  0.00000000000E+00 0.  1.
         25    1    1    2    0    0  0.00000000000E+00  0.00000000000E+00  0.28817931444E+03  0.31412150081E+03  0.12500000000E+03 0.  0.
<mgrwt>
<rscale>  0 0.12500000E+03</rscale>
<asrwt>0</asrwt>
<pdfrwt beam="1">  1       21 0.46330827E-01 0.12500000E+03</pdfrwt>
<pdfrwt beam="2">  1       21 0.19955530E-02 0.12500000E+03</pdfrwt>
<totfact> 0.54302498E+06</totfact>
</mgrwt>
</event>
<event>
 3    1  0.1602107E-001  0.1250000E+03  0.7546771E-02  0.1235069E+00
         21   -1    0    0  502  501  0.00000000000E+00  0.00000000000E+00  0.46871483398E+03  0.46871483398E+03  0.00000000000E+00 0.  1.
         21   -1    0    0  501  502 -0.00000000000E+00 -0.00000000000E+00 -0.83339585539E+01  0.83339585539E+01  0.00000000000E+00 0.  1.
         25    1    1    2    0    0  0.00000000000E+00  0.00000000000E+00  0.46038087542E+03  0.47704879253E+03  0.12500000000E+03 0.  0.
<mgrwt>
<rscale>  0 0.12500000E+03</rscale>
<asrwt>0</asrwt>
<pdfrwt beam="1">  1       21 0.72109954E-01 0.12500000E+03</pdfrwt>
<pdfrwt beam="2">  1       21 0.12821478E-02 0.12500000E+03</pdfrwt>
<totfact> 0.43316763E+06</totfact>
</mgrwt>
</event>
<event>
 3    1  0.1602107E-001  0.1250000E+03  0.7546771E-02  0.1235069E+00
         21   -1    0    0  502  501  0.00000000000E+00  0.00000000000E+00  0.97545568736E+03  0.97545568736E+03  0.00000000000E+00 0. -1.
         21   -1    0    0  501  502 -0.00000000000E+00 -0.00000000000E+00 -0.40045386486E+01  0.40045386486E+01  0.00000000000E+00 0. -1.
         25    1    1    2    0    0  0.00000000000E+00  0.00000000000E+00  0.97145114871E+03  0.97946022601E+03  0.12500000000E+03 0.  0.
<mgrwt>
<rscale>  0 0.12500000E+03</rscale>
<asrwt>0</asrwt>
<pdfrwt beam="1">  1       21 0.15006992E+00 0.12500000E+03</pdfrwt>
<pdfrwt beam="2">  1       21 0.61608364E-03 0.12500000E+03</pdfrwt>
<totfact> 0.24138918E+06</totfact>
</mgrwt>
</event>
<event>
 3    1  0.1602107E-001  0.1250000E+03  0.7546771E-02  0.1235069E+00
         21   -1    0    0  502  501  0.00000000000E+00  0.00000000000E+00  0.41831437025E+01  0.41831437025E+01  0.00000000000E+00 0. -1.
         21   -1    0    0  501  502 -0.00000000000E+00 -0.00000000000E+00 -0.93380726980E+03  0.93380726980E+03  0.00000000000E+00 0. -1.
         25    1    1    2    0    0  0.00000000000E+00  0.00000000000E+00 -0.92962412609E+03  0.93799041350E+03  0.12500000000E+03 0.  0.
<mgrwt>
<rscale>  0 0.12500000E+03</rscale>
<asrwt>0</asrwt>
<pdfrwt beam="1">  1       21 0.64356085E-03 0.12500000E+03</pdfrwt>
<pdfrwt beam="2">  1       21 0.14366259E+00 0.12500000E+03</pdfrwt>
<totfact> 0.25235740E+06</totfact>
</mgrwt>
</event>
<event>
 3    1  0.1602107E-001  0.1250000E+03  0.7546771E-02  0.1235069E+00
         21   -1    0    0  502  501  0.00000000000E+00  0.00000000000E+00  0.25929284397E+02  0.25929284397E+02  0.00000000000E+00 0. -1.
         21   -1    0    0  501  502 -0.00000000000E+00 -0.00000000000E+00 -0.15065012749E+03  0.15065012749E+03  0.00000000000E+00 0. -1.
         25    1    1    2    0    0  0.00000000000E+00  0.00000000000E+00 -0.12472084309E+03  0.17657941188E+03  0.12500000000E+03 0.  0.
<mgrwt>
<rscale>  0 0.12500000E+03</rscale>
<asrwt>0</asrwt>
<pdfrwt beam="1">  1       21 0.39891207E-02 0.12500000E+03</pdfrwt>
<pdfrwt beam="2">  1       21 0.23176942E-01 0.12500000E+03</pdfrwt>
<totfact> 0.67546118E+06</totfact>
</mgrwt>
</event>
<event>
 3    1  0.1602107E-001  0.1250000E+03  0.7546771E-02  0.1235069E+00
         21   -1    0    0  502  501  0.00000000000E+00  0.00000000000E+00  0.52615268547E+01  0.52615268547E+01  0.00000000000E+00 0. -1.
         21   -1    0    0  501  502 -0.00000000000E+00 -0.00000000000E+00 -0.74241757342E+03  0.74241757342E+03  0.00000000000E+00 0. -1.
         25    1    1    2    0    0  0.00000000000E+00  0.00000000000E+00 -0.73715604657E+03  0.74767910028E+03  0.12500000000E+03 0.  0.
<mgrwt>
<rscale>  0 0.12500000E+03</rscale>
<asrwt>0</asrwt>
<pdfrwt beam="1">  1       21 0.80946593E-03 0.12500000E+03</pdfrwt>
<pdfrwt beam="2">  1       21 0.11421805E+00 0.12500000E+03</pdfrwt>
<totfact> 0.31150665E+06</totfact>
</mgrwt>
</event>
<event>
 3    1  0.1602107E-001  0.1250000E+03  0.7546771E-02  0.1235069E+00
         21   -1    0    0  502  501  0.00000000000E+00  0.00000000000E+00  0.35349753036E+03  0.35349753036E+03  0.00000000000E+00 0. -1.
         21   -1    0    0  501  502 -0.00000000000E+00 -0.00000000000E+00 -0.11050289364E+02  0.11050289364E+02  0.00000000000E+00 0. -1.
         25    1    1    2    0    0  0.00000000000E+00  0.00000000000E+00  0.34244724099E+03  0.36454781972E+03  0.12500000000E+03 0.  0.
<mgrwt>
<rscale>  0 0.12500000E+03</rscale>
<asrwt>0</asrwt>
<pdfrwt beam="1">  1       21 0.54384227E-01 0.12500000E+03</pdfrwt>
<pdfrwt beam="2">  1       21 0.17000448E-02 0.12500000E+03</pdfrwt>
<totfact> 0.50481658E+06</totfact>
</mgrwt>
</event>
<event>
 3    1  0.1602107E-001  0.1250000E+03  0.7546771E-02  0.1235069E+00
         21   -1    0    0  502  501  0.00000000000E+00  0.00000000000E+00  0.17249215875E+03  0.17249215875E+03  0.00000000000E+00 0. -1.
         21   -1    0    0  501  502 -0.00000000000E+00 -0.00000000000E+00 -0.22645956943E+02  0.22645956943E+02  0.00000000000E+00 0. -1.
         25    1    1    2    0    0  0.00000000000E+00  0.00000000000E+00  0.14984620180E+03  0.19513811569E+03  0.12500000000E+03 0.  0.
<mgrwt>
<rscale>  0 0.12500000E+03</rscale>
<asrwt>0</asrwt>
<pdfrwt beam="1">  1       21 0.26537254E-01 0.12500000E+03</pdfrwt>
<pdfrwt beam="2">  1       21 0.34839935E-02 0.12500000E+03</pdfrwt>
<totfact> 0.65455910E+06</totfact>
</mgrwt>
</event>
<event>
 3    1  0.1602107E-001  0.1250000E+03  0.7546771E-02  0.1235069E+00
         21   -1    0    0  502  501  0.00000000000E+00  0.00000000000E+00  0.14604331936E+04  0.14604331936E+04  0.00000000000E+00 0.  1.
         21   -1    0    0  501  502 -0.00000000000E+00 -0.00000000000E+00 -0.26747200880E+01  0.26747200880E+01  0.00000000000E+00 0.  1.
         25    1    1    2    0    0  0.00000000000E+00  0.00000000000E+00  0.14577584735E+04  0.14631079137E+04  0.12500000000E+03 0.  0.
<mgrwt>
<rscale>  0 0.12500000E+03</rscale>
<asrwt>0</asrwt>
<pdfrwt beam="1">  1       21 0.22468139E+00 0.12500000E+03</pdfrwt>
<pdfrwt beam="2">  1       21 0.41149656E-03 0.12500000E+03</pdfrwt>
<totfact> 0.14548834E+06</totfact>
</mgrwt>
</event>
<event>
 3    1  0.1602107E-001  0.1250000E+03  0.7546771E-02  0.1235069E+00
         21   -1    0    0  502  501  0.00000000000E+00  0.00000000000E+00  0.84408777816E+02  0.84408777816E+02  0.00000000000E+00 0. -1.
         21   -1    0    0  501  502 -0.00000000000E+00 -0.00000000000E+00 -0.46277769932E+02  0.46277769932E+02  0.00000000000E+00 0. -1.
         25    1    1    2    0    0  0.00000000000E+00  0.00000000000E+00  0.38131007883E+02  0.13068654775E+03  0.12500000000E+03 0.  0.
<mgrwt>
<rscale>  0 0.12500000E+03</rscale>
<asrwt>0</asrwt>
<pdfrwt beam="1">  1       21 0.12985966E-01 0.12500000E+03</pdfrwt>
<pdfrwt beam="2">  1       21 0.71196570E-02 0.12500000E+03</pdfrwt>
<totfact> 0.73272943E+06</totfact>
</mgrwt>
</event>
<event>
 3    1  0.1602107E-001  0.1250000E+03  0.7546771E-02  0.1235069E+00
         21   -1    0    0  502  501  0.00000000000E+00  0.00000000000E+00  0.13569189991E+03  0.13569189991E+03  0.00000000000E+00 0. -1.
         21   -1    0    0  501  502 -0.00000000000E+00 -0.00000000000E+00 -0.28787643203E+02  0.28787643203E+02  0.00000000000E+00 0. -1.
         25    1    1    2    0    0  0.00000000000E+00  0.00000000000E+00  0.10690425670E+03  0.16447954311E+03  0.12500000000E+03 0.  0.
<mgrwt>
<rscale>  0 0.12500000E+03</rscale>
<asrwt>0</asrwt>
<pdfrwt beam="1">  1       21 0.20875677E-01 0.12500000E+03</pdfrwt>
<pdfrwt beam="2">  1       21 0.44288683E-02 0.12500000E+03</pdfrwt>
<totfact> 0.68976245E+06</totfact>
</mgrwt>
</event>
<event>
 3    1  0.1602107E-001  0.1250000E+03  0.7546771E-02  0.1235069E+00
         21   -1    0    0  502  501  0.00000000000E+00  0.00000000000E+00  0.67853857497E+02  0.67853857497E+02  0.00000000000E+00 0.  1.
         21   -1    0    0  501  502 -0.00000000000E+00 -0.00000000000E+00 -0.57568576705E+02  0.57568576705E+02  0.00000000000E+00 0.  1.
         25    1    1    2    0    0  0.00000000000E+00  0.00000000000E+00  0.10285280792E+02  0.12542243420E+03  0.12500000000E+03 0.  0.
<mgrwt>
<rscale>  0 0.12500000E+03</rscale>
<asrwt>0</asrwt>
<pdfrwt beam="1">  1       21 0.10439055E-01 0.12500000E+03</pdfrwt>
<pdfrwt beam="2">  1       21 0.88567041E-02 0.12500000E+03</pdfrwt>
<totfact> 0.73986261E+06</totfact>
</mgrwt>
</event>
<event>
 3    1  0.1602107E-001  0.1250000E+03  0.7546771E-02  0.1235069E+00
         21   -1    0    0  502  501  0.00000000000E+00  0.00000000000E+00  0.12286584814E+03  0.12286584814E+03  0.00000000000E+00 0. -1.
         21   -1    0    0  501  502 -0.00000000000E+00 -0.00000000000E+00 -0.31792805399E+02  0.31792805399E+02  0.00000000000E+00 0. -1.
         25    1    1    2    0    0  0.00000000000E+00  0.00000000000E+00  0.91073042738E+02  0.15465865354E+03  0.12500000000E+03 0.  0.
<mgrwt>
<rscale>  0 0.12500000E+03</rscale>
<asrwt>0</asrwt>
<pdfrwt beam="1">  1       21 0.18902438E-01 0.12500000E+03</pdfrwt>
<pdfrwt beam="2">  1       21 0.48912009E-02 0.12500000E+03</pdfrwt>
<totfact> 0.70178109E+06</totfact>
</mgrwt>
</event>
<event>
 3    1  0.1602107E-001  0.1250000E+03  0.7546771E-02  0.1235069E+00
         21   -1    0    0  502  501  0.00000000000E+00  0.00000000000E+00  0.21751538316E+02  0.21751538316E+02  0.00000000000E+00 0.  1.
         21   -1    0    0  501  502 -0.00000000000E+00 -0.00000000000E+00 -0.17958499961E+03  0.17958499961E+03  0.00000000000E+00 0.  1.
         25    1    1    2    0    0  0.00000000000E+00  0.00000000000E+00 -0.15783346129E+03  0.20133653793E+03  0.12500000000E+03 0.  0.
<mgrwt>
<rscale>  0 0.12500000E+03</rscale>
<asrwt>0</asrwt>
<pdfrwt beam="1">  1       21 0.33463906E-02 0.12500000E+03</pdfrwt>
<pdfrwt beam="2">  1       21 0.27628460E-01 0.12500000E+03</pdfrwt>
<totfact> 0.64782717E+06</totfact>
</mgrwt>
</event>
<event>
 3    1  0.1602107E-001  0.1250000E+03  0.7546771E-02  0.1235069E+00
         21   -1    0    0  502  501  0.00000000000E+00  0.00000000000E+00  0.24351645828E+03  0.24351645828E+03  0.00000000000E+00 0. -1.
         21   -1    0    0  501  502 -0.00000000000E+00 -0.00000000000E+00 -0.16041010236E+02  0.16041010236E+02  0.00000000000E+00 0. -1.
         25    1    1    2    0    0  0.00000000000E+00  0.00000000000E+00  0.22747544805E+03  0.25955746852E+03  0.12500000000E+03 0.  0.
<mgrwt>
<rscale>  0 0.12500000E+03</rscale>
<asrwt>0</asrwt>
<pdfrwt beam="1">  1       21 0.37464068E-01 0.12500000E+03</pdfrwt>
<pdfrwt beam="2">  1       21 0.24678479E-02 0.12500000E+03</pdfrwt>
<totfact> 0.58989857E+06</totfact>
</mgrwt>
</event>
<event>
 3    1  0.1602107E-001  0.1250000E+03  0.7546771E-02  0.1235069E+00
         21   -1    0    0  502  501  0.00000000000E+00  0.00000000000E+00  0.39030257074E+02  0.39030257074E+02  0.00000000000E+00 0.  1.
         21   -1    0    0  501  502 -0.00000000000E+00 -0.00000000000E+00 -0.10008261008E+03  0.10008261008E+03  0.00000000000E+00 0.  1.
         25    1    1    2    0    0  0.00000000000E+00  0.00000000000E+00 -0.61052353003E+02  0.13911286715E+03  0.12500000000E+03 0.  0.
<mgrwt>
<rscale>  0 0.12500000E+03</rscale>
<asrwt>0</asrwt>
<pdfrwt beam="1">  1       21 0.60046550E-02 0.12500000E+03</pdfrwt>
<pdfrwt beam="2">  1       21 0.15397324E-01 0.12500000E+03</pdfrwt>
<totfact> 0.72155334E+06</totfact>
</mgrwt>
</event>
<event>
 3    1  0.1602107E-001  0.1250000E+03  0.7546771E-02  0.1235069E+00
         21   -1    0    0  502  501  0.00000000000E+00  0.00000000000E+00  0.77632922488E+02  0.77632922488E+02  0.00000000000E+00 0. -1.
         21   -1    0    0  501  502 -0.00000000000E+00 -0.00000000000E+00 -0.50316925794E+02  0.50316925794E+02  0.00000000000E+00 0. -1.
         25    1    1    2    0    0  0.00000000000E+00  0.00000000000E+00  0.27315996694E+02  0.12794984828E+03  0.12500000000E+03 0.  0.
<mgrwt>
<rscale>  0 0.12500000E+03</rscale>
<asrwt>0</asrwt>
<pdfrwt beam="1">  1       21 0.11943526E-01 0.12500000E+03</pdfrwt>
<pdfrwt beam="2">  1       21 0.77410655E-02 0.12500000E+03</pdfrwt>
<totfact> 0.73640335E+06</totfact>
</mgrwt>
</event>
<event>
 3    1  0.1602107E-001  0.1250000E+03  0.7546771E-02  0.1235069E+00
         21   -1    0    0  502  501  0.00000000000E+00  0.00000000000E+00  0.19446278313E+02  0.19446278313E+02  0.00000000000E+00 0.  1.
         21   -1    0    0  501  502 -0.00000000000E+00 -0.00000000000E+00 -0.20087391207E+03  0.20087391207E+03  0.00000000000E+00 0.  1.
         25    1    1    2    0    0  0.00000000000E+00  0.00000000000E+00 -0.18142763376E+03  0.22032019038E+03  0.12500000000E+03 0.  0.
<mgrwt>
<rscale>  0 0.12500000E+03</rscale>
<asrwt>0</asrwt>
<pdfrwt beam="1">  1       21 0.29917350E-02 0.12500000E+03</pdfrwt>
<pdfrwt beam="2">  1       21 0.30903680E-01 0.12500000E+03</pdfrwt>
<totfact> 0.62789822E+06</totfact>
</mgrwt>
</event>
<event>
 3    1  0.1602107E-001  0.1250000E+03  0.7546771E-02  0.1235069E+00
         21   -1    0    0  502  501  0.00000000000E+00  0.00000000000E+00  0.76977039777E+01  0.76977039777E+01  0.00000000000E+00 0. -1.
         21   -1    0    0  501  502 -0.00000000000E+00 -0.00000000000E+00 -0.50745651058E+03  0.50745651058E+03  0.00000000000E+00 0. -1.
         25    1    1    2    0    0  0.00000000000E+00  0.00000000000E+00 -0.49975880660E+03  0.51515421456E+03  0.12500000000E+03 0.  0.
<mgrwt>
<rscale>  0 0.12500000E+03</rscale>
<asrwt>0</asrwt>
<pdfrwt beam="1">  1       21 0.11842621E-02 0.12500000E+03</pdfrwt>
<pdfrwt beam="2">  1       21 0.78070235E-01 0.12500000E+03</pdfrwt>
<totfact> 0.41233970E+06</totfact>
</mgrwt>
</event>
<event>
 3    1  0.1602107E-001  0.1250000E+03  0.7546771E-02  0.1235069E+00
         21   -1    0    0  502  501  0.00000000000E+00  0.00000000000E+00  0.59493721579E+01  0.59493721579E+01  0.00000000000E+00 0. -1.
         21   -1    0    0  501  502 -0.00000000000E+00 -0.00000000000E+00 -0.65658188735E+03  0.65658188735E+03  0.00000000000E+00 0. -1.
         25    1    1    2    0    0  0.00000000000E+00  0.00000000000E+00 -0.65063251519E+03  0.66253125951E+03  0.12500000000E+03 0.  0.
<mgrwt>
<rscale>  0 0.12500000E+03</rscale>
<asrwt>0</asrwt>
<pdfrwt beam="1">  1       21 0.91528841E-03 0.12500000E+03</pdfrwt>
<pdfrwt beam="2">  1       21 0.10101255E+00 0.12500000E+03</pdfrwt>
<totfact> 0.34405249E+06</totfact>
</mgrwt>
</event>
<event>
 3    1  0.1602107E-001  0.1250000E+03  0.7546771E-02  0.1235069E+00
         21   -1    0    0  502  501  0.00000000000E+00  0.00000000000E+00  0.33136686994E+02  0.33136686994E+02  0.00000000000E+00 0. -1.
         21   -1    0    0  501  502 -0.00000000000E+00 -0.00000000000E+00 -0.11788293744E+03  0.11788293744E+03  0.00000000000E+00 0. -1.
         25    1    1    2    0    0  0.00000000000E+00  0.00000000000E+00 -0.84746250449E+02  0.15101962444E+03  0.12500000000E+03 0.  0.
<mgrwt>
<rscale>  0 0.12500000E+03</rscale>
<asrwt>0</asrwt>
<pdfrwt beam="1">  1       21 0.50979518E-02 0.12500000E+03</pdfrwt>
<pdfrwt beam="2">  1       21 0.18135837E-01 0.12500000E+03</pdfrwt>
<totfact> 0.70631352E+06</totfact>
</mgrwt>
</event>
<event>
 3    1  0.1602107E-001  0.1250000E+03  0.7546771E-02  0.1235069E+00
         21   -1    0    0  502  501  0.00000000000E+00  0.00000000000E+00  0.14529412477E+02  0.14529412477E+02  0.00000000000E+00 0. -1.
         21   -1    0    0  501  502 -0.00000000000E+00 -0.00000000000E+00 -0.26885120139E+03  0.26885120139E+03  0.00000000000E+00 0. -1.
         25    1    1    2    0    0  0.00000000000E+00  0.00000000000E+00 -0.25432178891E+03  0.28338061387E+03  0.12500000000E+03 0.  0.
<mgrwt>
<rscale>  0 0.12500000E+03</rscale>
<asrwt>0</asrwt>
<pdfrwt beam="1">  1       21 0.22352942E-02 0.12500000E+03</pdfrwt>
<pdfrwt beam="2">  1       21 0.41361724E-01 0.12500000E+03</pdfrwt>
<totfact> 0.56866222E+06</totfact>
</mgrwt>
</event>
<event>
 3    1  0.1602107E-001  0.1250000E+03  0.7546771E-02  0.1235069E+00
         21   -1    0    0  502  501  0.00000000000E+00  0.00000000000E+00  0.25831879228E+02  0.25831879228E+02  0.00000000000E+00 0.  1.
         21   -1    0    0  501  502 -0.00000000000E+00 -0.00000000000E+00 -0.15121818918E+03  0.15121818918E+03  0.00000000000E+00 0.  1.
         25    1    1    2    0    0  0.00000000000E+00  0.00000000000E+00 -0.12538630995E+03  0.17705006841E+03  0.12500000000E+03 0.  0.
<mgrwt>
<rscale>  0 0.12500000E+03</rscale>
<asrwt>0</asrwt>
<pdfrwt beam="1">  1       21 0.39741353E-02 0.12500000E+03</pdfrwt>
<pdfrwt beam="2">  1       21 0.23264337E-01 0.12500000E+03</pdfrwt>
<totfact> 0.67491565E+06</totfact>
</mgrwt>
</event>
<event>
 3    1  0.1602107E-001  0.1250000E+03  0.7546771E-02  0.1235069E+00
         21   -1    0    0  502  501  0.00000000000E+00  0.00000000000E+00  0.56549225205E+02  0.56549225205E+02  0.00000000000E+00 0.  1.
         21   -1    0    0  501  502 -0.00000000000E+00 -0.00000000000E+00 -0.69076985332E+02  0.69076985332E+02  0.00000000000E+00 0.  1.
         25    1    1    2    0    0  0.00000000000E+00  0.00000000000E+00 -0.12527760127E+02  0.12562621054E+03  0.12500000000E+03 0.  0.
<mgrwt>
<rscale>  0 0.12500000E+03</rscale>
<asrwt>0</asrwt>
<pdfrwt beam="1">  1       21 0.86998808E-02 0.12500000E+03</pdfrwt>
<pdfrwt beam="2">  1       21 0.10627229E-01 0.12500000E+03</pdfrwt>
<totfact> 0.73957794E+06</totfact>
</mgrwt>
</event>
<event>
 3    1  0.1602107E-001  0.1250000E+03  0.7546771E-02  0.1235069E+00
         21   -1    0    0  502  501  0.00000000000E+00  0.00000000000E+00  0.33963505562E+02  0.33963505562E+02  0.00000000000E+00 0. -1.
         21   -1    0    0  501  502 -0.00000000000E+00 -0.00000000000E+00 -0.11501315708E+03  0.11501315708E+03  0.00000000000E+00 0. -1.
         25    1    1    2    0    0  0.00000000000E+00  0.00000000000E+00 -0.81049651513E+02  0.14897666264E+03  0.12500000000E+03 0.  0.
<mgrwt>
<rscale>  0 0.12500000E+03</rscale>
<asrwt>0</asrwt>
<pdfrwt beam="1">  1       21 0.52251549E-02 0.12500000E+03</pdfrwt>
<pdfrwt beam="2">  1       21 0.17694331E-01 0.12500000E+03</pdfrwt>
<totfact> 0.70887989E+06</totfact>
</mgrwt>
</event>
<event>
 3    1  0.1602107E-001  0.1250000E+03  0.7546771E-02  0.1235069E+00
         21   -1    0    0  502  501  0.00000000000E+00  0.00000000000E+00  0.10832279691E+03  0.10832279691E+03  0.00000000000E+00 0.  1.
         21   -1    0    0  501  502 -0.00000000000E+00 -0.00000000000E+00 -0.36061199593E+02  0.36061199593E+02  0.00000000000E+00 0.  1.
         25    1    1    2    0    0  0.00000000000E+00  0.00000000000E+00  0.72261597322E+02  0.14438399651E+03  0.12500000000E+03 0.  0.
<mgrwt>
<rscale>  0 0.12500000E+03</rscale>
<asrwt>0</asrwt>
<pdfrwt beam="1">  1       21 0.16665045E-01 0.12500000E+03</pdfrwt>
<pdfrwt beam="2">  1       21 0.55478769E-02 0.12500000E+03</pdfrwt>
<totfact> 0.71472025E+06</totfact>
</mgrwt>
</event>
<event>
 3    1  0.1602107E-001  0.1250000E+03  0.7546771E-02  0.1235069E+00
         21   -1    0    0  502  501  0.00000000000E+00  0.00000000000E+00  0.41135237090E+03  0.41135237090E+03  0.00000000000E+00 0. -1.
         21   -1    0    0  501  502 -0.00000000000E+00 -0.00000000000E+00 -0.94961164109E+01  0.94961164109E+01  0.00000000000E+00 0. -1.
         25    1    1    2    0    0  0.00000000000E+00  0.00000000000E+00  0.40185625449E+03  0.42084848731E+03  0.12500000000E+03 0.  0.
<mgrwt>
<rscale>  0 0.12500000E+03</rscale>
<asrwt>0</asrwt>
<pdfrwt beam="1">  1       21 0.63284967E-01 0.12500000E+03</pdfrwt>
<pdfrwt beam="2">  1       21 0.14609413E-02 0.12500000E+03</pdfrwt>
<totfact> 0.46688559E+06</totfact>
</mgrwt>
</event>
<event>
 3    1  0.1602107E-001  0.1250000E+03  0.7546771E-02  0.1235069E+00
         21   -1    0    0  502  501  0.00000000000E+00  0.00000000000E+00  0.16612932397E+03  0.16612932397E+03  0.00000000000E+00 0.  1.
         21   -1    0    0  501  502 -0.00000000000E+00 -0.00000000000E+00 -0.23513308227E+02  0.23513308227E+02  0.00000000000E+00 0.  1.
         25    1    1    2    0    0  0.00000000000E+00  0.00000000000E+00  0.14261601574E+03  0.18964263220E+03  0.12500000000E+03 0.  0.
<mgrwt>
<rscale>  0 0.12500000E+03</rscale>
<asrwt>0</asrwt>
<pdfrwt beam="1">  1       21 0.25558357E-01 0.12500000E+03</pdfrwt>
<pdfrwt beam="2">  1       21 0.36174321E-02 0.12500000E+03</pdfrwt>
<totfact> 0.66062204E+06</totfact>
</mgrwt>
</event>
<event>
 3    1  0.1602107E-001  0.1250000E+03  0.7546771E-02  0.1235069E+00
         21   -1    0    0  502  501  0.00000000000E+00  0.00000000000E+00  0.57560218364E+03  0.57560218364E+03  0.00000000000E+00 0. -1.
         21   -1    0    0  501  502 -0.00000000000E+00 -0.00000000000E+00 -0.67863710581E+01  0.67863710581E+01  0.00000000000E+00 0. -1.
         25    1    1    2    0    0  0.00000000000E+00  0.00000000000E+00  0.56881581258E+03  0.58238855470E+03  0.12500000000E+03 0.  0.
<mgrwt>
<rscale>  0 0.12500000E+03</rscale>
<asrwt>0</asrwt>
<pdfrwt beam="1">  1       21 0.88554143E-01 0.12500000E+03</pdfrwt>
<pdfrwt beam="2">  1       21 0.10440575E-02 0.12500000E+03</pdfrwt>
<totfact> 0.37901404E+06</totfact>
</mgrwt>
</event>
<event>
 3    1  0.1602107E-001  0.1250000E+03  0.7546771E-02  0.1235069E+00
         21   -1    0    0  502  501  0.00000000000E+00  0.00000000000E+00  0.49152866954E+02  0.49152866954E+02  0.00000000000E+00 0.  1.
         21   -1    0    0  501  502 -0.00000000000E+00 -0.00000000000E+00 -0.79471457964E+02  0.79471457964E+02  0.00000000000E+00 0.  1.
         25    1    1    2    0    0  0.00000000000E+00  0.00000000000E+00 -0.30318591010E+02  0.12862432492E+03  0.12500000000E+03 0.  0.
<mgrwt>
<rscale>  0 0.12500000E+03</rscale>
<asrwt>0</asrwt>
<pdfrwt beam="1">  1       21 0.75619796E-02 0.12500000E+03</pdfrwt>
<pdfrwt beam="2">  1       21 0.12226378E-01 0.12500000E+03</pdfrwt>
<totfact> 0.73549385E+06</totfact>
</mgrwt>
</event>
<event>
 3    1  0.1602107E-001  0.1250000E+03  0.7546771E-02  0.1235069E+00
         21   -1    0    0  502  501  0.00000000000E+00  0.00000000000E+00  0.85728596224E+01  0.85728596224E+01  0.00000000000E+00 0. -1.
         21   -1    0    0  501  502 -0.00000000000E+00 -0.00000000000E+00 -0.45565309267E+03  0.45565309267E+03  0.00000000000E+00 0. -1.
         25    1    1    2    0    0  0.00000000000E+00  0.00000000000E+00 -0.44708023305E+03  0.46422595230E+03  0.12500000000E+03 0.  0.
<mgrwt>
<rscale>  0 0.12500000E+03</rscale>
<asrwt>0</asrwt>
<pdfrwt beam="1">  1       21 0.13189011E-02 0.12500000E+03</pdfrwt>
<pdfrwt beam="2">  1       21 0.70100498E-01 0.12500000E+03</pdfrwt>
<totfact> 0.44053069E+06</totfact>
</mgrwt>
</event>
<event>
 3    1  0.1602107E-001  0.1250000E+03  0.7546771E-02  0.1235069E+00
         21   -1    0    0  502  501  0.00000000000E+00  0.00000000000E+00  0.26121888971E+02  0.26121888971E+02  0.00000000000E+00 0. -1.
         21   -1    0    0  501  502 -0.00000000000E+00 -0.00000000000E+00 -0.14953933861E+03  0.14953933861E+03  0.00000000000E+00 0. -1.
         25    1    1    2    0    0  0.00000000000E+00  0.00000000000E+00 -0.12341744964E+03  0.17566122758E+03  0.12500000000E+03 0.  0.
<mgrwt>
<rscale>  0 0.12500000E+03</rscale>
<asrwt>0</asrwt>
<pdfrwt beam="1">  1       21 0.40187521E-02 0.12500000E+03</pdfrwt>
<pdfrwt beam="2">  1       21 0.23006052E-01 0.12500000E+03</pdfrwt>
<totfact> 0.67652786E+06</totfact>
</mgrwt>
</event>
<event>
 3    1  0.1602107E-001  0.1250000E+03  0.7546771E-02  0.1235069E+00
         21   -1    0    0  502  501  0.00000000000E+00  0.00000000000E+00  0.17664508193E+02  0.17664508193E+02  0.00000000000E+00 0. -1.
         21   -1    0    0  501  502 -0.00000000000E+00 -0.00000000000E+00 -0.22113550841E+03  0.22113550841E+03  0.00000000000E+00 0. -1.
         25    1    1    2    0    0  0.00000000000E+00  0.00000000000E+00 -0.20347100021E+03  0.23880001660E+03  0.12500000000E+03 0.  0.
<mgrwt>
<rscale>  0 0.12500000E+03</rscale>
<asrwt>0</asrwt>
<pdfrwt beam="1">  1       21 0.27176166E-02 0.12500000E+03</pdfrwt>
<pdfrwt beam="2">  1       21 0.34020848E-01 0.12500000E+03</pdfrwt>
<totfact> 0.60948976E+06</totfact>
</mgrwt>
</event>
<event>
 3    1  0.1602107E-001  0.1250000E+03  0.7546771E-02  0.1235069E+00
         21   -1    0    0  502  501  0.00000000000E+00  0.00000000000E+00  0.26596387101E+03  0.26596387101E+03  0.00000000000E+00 0. -1.
         21   -1    0    0  501  502 -0.00000000000E+00 -0.00000000000E+00 -0.14687145232E+02  0.14687145232E+02  0.00000000000E+00 0. -1.
         25    1    1    2    0    0  0.00000000000E+00  0.00000000000E+00  0.25127672578E+03  0.28065101624E+03  0.12500000000E+03 0.  0.
<mgrwt>
<rscale>  0 0.12500000E+03</rscale>
<asrwt>0</asrwt>
<pdfrwt beam="1">  1       21 0.40917515E-01 0.12500000E+03</pdfrwt>
<pdfrwt beam="2">  1       21 0.22595610E-02 0.12500000E+03</pdfrwt>
<totfact> 0.57103487E+06</totfact>
</mgrwt>
</event>
<event>
 3    1  0.1602107E-001  0.1250000E+03  0.7546771E-02  0.1235069E+00
         21   -1    0    0  502  501  0.00000000000E+00  0.00000000000E+00  0.62954248633E+01  0.62954248633E+01  0.00000000000E+00 0.  1.
         21   -1    0    0  501  502 -0.00000000000E+00 -0.00000000000E+00 -0.62049029014E+03  0.62049029014E+03  0.00000000000E+00 0.  1.
         25    1    1    2    0    0  0.00000000000E+00  0.00000000000E+00 -0.61419486527E+03  0.62678571500E+03  0.12500000000E+03 0.  0.
<mgrwt>
<rscale>  0 0.12500000E+03</rscale>
<asrwt>0</asrwt>
<pdfrwt beam="1">  1       21 0.96852677E-03 0.12500000E+03</pdfrwt>
<pdfrwt beam="2">  1       21 0.95460058E-01 0.12500000E+03</pdfrwt>
<totfact> 0.35908626E+06</totfact>
</mgrwt>
</event>
<event>
 3    1  0.1602107E-001  0.1250000E+03  0.7546771E-02  0.1235069E+00
         21   -1    0    0  502  501  0.00000000000E+00  0.00000000000E+00  0.11311501181E+02  0.11311501181E+02  0.00000000000E+00 0.  1.
         21   -1    0    0  501  502 -0.00000000000E+00 -0.00000000000E+00 -0.34533435815E+03  0.34533435815E+03  0.00000000000E+00 0.  1.
         25    1    1    2    0    0  0.00000000000E+00  0.00000000000E+00 -0.33402285697E+03  0.35664585933E+03  0.12500000000E+03 0.  0.
<mgrwt>
<rscale>  0 0.12500000E+03</rscale>
<asrwt>0</asrwt>
<pdfrwt beam="1">  1       21 0.17402312E-02 0.12500000E+03</pdfrwt>
<pdfrwt beam="2">  1       21 0.53128356E-01 0.12500000E+03</pdfrwt>
<totfact> 0.51051334E+06</totfact>
</mgrwt>
</event>
<event>
 3    1  0.1602107E-001  0.1250000E+03  0.7546771E-02  0.1235069E+00
         21   -1    0    0  502  501  0.00000000000E+00  0.00000000000E+00  0.11430837766E+03  0.11430837766E+03  0.00000000000E+00 0. -1.
         21   -1    0    0  501  502 -0.00000000000E+00 -0.00000000000E+00 -0.34172910858E+02  0.34172910858E+02  0.00000000000E+00 0. -1.
         25    1    1    2    0    0  0.00000000000E+00  0.00000000000E+00  0.80135466798E+02  0.14848128851E+03  0.12500000000E+03 0.  0.
<mgrwt>
<rscale>  0 0.12500000E+03</rscale>
<asrwt>0</asrwt>
<pdfrwt beam="1">  1       21 0.17585904E-01 0.12500000E+03</pdfrwt>
<pdfrwt beam="2">  1       21 0.52573710E-02 0.12500000E+03</pdfrwt>
<totfact> 0.70950504E+06</totfact>
</mgrwt>
</event>
<event>
 3    1  0.1602107E-001  0.1250000E+03  0.7546771E-02  0.1235069E+00
         21   -1    0    0  502  501  0.00000000000E+00  0.00000000000E+00  0.44464353305E+03  0.44464353305E+03  0.00000000000E+00 0.  1.
         21   -1    0    0  501  502 -0.00000000000E+00 -0.00000000000E+00 -0.87851272078E+01  0.87851272078E+01  0.00000000000E+00 0.  1.
         25    1    1    2    0    0  0.00000000000E+00  0.00000000000E+00  0.43585840585E+03  0.45342866026E+03  0.12500000000E+03 0.  0.
<mgrwt>
<rscale>  0 0.12500000E+03</rscale>
<asrwt>0</asrwt>
<pdfrwt beam="1">  1       21 0.68406680E-01 0.12500000E+03</pdfrwt>
<pdfrwt beam="2">  1       21 0.13515584E-02 0.12500000E+03</pdfrwt>
<totfact> 0.44687821E+06</totfact>
</mgrwt>
</event>
<event>
 3    1  0.1602107E-001  0.1250000E+03  0.7546771E-02  0.1235069E+00
         21   -1    0    0  502  501  0.00000000000E+00  0.00000000000E+00  0.38709395895E+02  0.38709395895E+02  0.00000000000E+00 0. -1.
         21   -1    0    0  501  502 -0.00000000000E+00 -0.00000000000E+00 -0.10091219224E+03  0.10091219224E+03  0.00000000000E+00 0. -1.
         25    1    1    2    0    0  0.00000000000E+00  0.00000000000E+00 -0.62202796344E+02  0.13962158813E+03  0.12500000000E+03 0.  0.
<mgrwt>
<rscale>  0 0.12500000E+03</rscale>
<asrwt>0</asrwt>
<pdfrwt beam="1">  1       21 0.59552916E-02 0.12500000E+03</pdfrwt>
<pdfrwt beam="2">  1       21 0.15524953E-01 0.12500000E+03</pdfrwt>
<totfact> 0.72088747E+06</totfact>
</mgrwt>
</event>
<event>
 3    1  0.1602107E-001  0.1250000E+03  0.7546771E-02  0.1235069E+00
         21   -1    0    0  502  501  0.00000000000E+00  0.00000000000E+00  0.10893774648E+03  0.10893774648E+03  0.00000000000E+00 0.  1.
         21   -1    0    0  501  502 -0.00000000000E+00 -0.00000000000E+00 -0.35857635451E+02  0.35857635451E+02  0.00000000000E+00 0.  1.
         25    1    1    2    0    0  0.00000000000E+00  0.00000000000E+00  0.73080111026E+02  0.14479538193E+03  0.12500000000E+03 0.  0.
<mgrwt>
<rscale>  0 0.12500000E+03</rscale>
<asrwt>0</asrwt>
<pdfrwt beam="1">  1       21 0.16759653E-01 0.12500000E+03</pdfrwt>
<pdfrwt beam="2">  1       21 0.55165594E-02 0.12500000E+03</pdfrwt>
<totfact> 0.71419295E+06</totfact>
</mgrwt>
</event>
<event>
 3    1  0.1602107E-001  0.1250000E+03  0.7546771E-02  0.1235069E+00
         21   -1    0    0  502  501  0.00000000000E+00  0.00000000000E+00  0.87598454375E+02  0.87598454375E+02  0.00000000000E+00 0.  1.
         21   -1    0    0  501  502 -0.00000000000E+00 -0.00000000000E+00 -0.44592681776E+02  0.44592681776E+02  0.00000000000E+00 0.  1.
         25    1    1    2    0    0  0.00000000000E+00  0.00000000000E+00  0.43005772600E+02  0.13219113615E+03  0.12500000000E+03 0.  0.
<mgrwt>
<rscale>  0 0.12500000E+03</rscale>
<asrwt>0</asrwt>
<pdfrwt beam="1">  1       21 0.13476685E-01 0.12500000E+03</pdfrwt>
<pdfrwt beam="2">  1       21 0.68604126E-02 0.12500000E+03</pdfrwt>
<totfact> 0.73070602E+06</totfact>
</mgrwt>
</event>
<event>
 3    1  0.1602107E-001  0.1250000E+03  0.7546771E-02  0.1235069E+00
         21   -1    0    0  502  501  0.00000000000E+00  0.00000000000E+00  0.50210876160E+02  0.50210876160E+02  0.00000000000E+00 0. -1.
         21   -1    0    0  501  502 -0.00000000000E+00 -0.00000000000E+00 -0.77796889813E+02  0.77796889813E+02  0.00000000000E+00 0. -1.
         25    1    1    2    0    0  0.00000000000E+00  0.00000000000E+00 -0.27586013653E+02  0.12800776597E+03  0.12500000000E+03 0.  0.
<mgrwt>
<rscale>  0 0.12500000E+03</rscale>
<asrwt>0</asrwt>
<pdfrwt beam="1">  1       21 0.77247502E-02 0.12500000E+03</pdfrwt>
<pdfrwt beam="2">  1       21 0.11968752E-01 0.12500000E+03</pdfrwt>
<totfact> 0.73632510E+06</totfact>
</mgrwt>
</event>
<event>
 3    1  0.1602107E-001  0.1250000E+03  0.7546771E-02  0.1235069E+00
         21   -1    0    0  502  501  0.00000000000E+00  0.00000000000E+00  0.13829473480E+03  0.13829473480E+03  0.00000000000E+00 0.  1.
         21   -1    0    0  501  502 -0.00000000000E+00 -0.00000000000E+00 -0.28245833115E+02  0.28245833115E+02  0.00000000000E+00 0.  1.
         25    1    1    2    0    0  0.00000000000E+00  0.00000000000E+00  0.11004890169E+03  0.16654056792E+03  0.12500000000E+03 0.  0.
<mgrwt>
<rscale>  0 0.12500000E+03</rscale>
<asrwt>0</asrwt>
<pdfrwt beam="1">  1       21 0.21276113E-01 0.12500000E+03</pdfrwt>
<pdfrwt beam="2">  1       21 0.43455129E-02 0.12500000E+03</pdfrwt>
<totfact> 0.68729010E+06</totfact>
</mgrwt>
</event>
<event>
 3    1  0.1602107E-001  0.1250000E+03  0.7546771E-02  0.1235069E+00
         21   -1    0    0  502  501  0.00000000000E+00  0.00000000000E+00  0.70181531027E+02  0.70181531027E+02  0.00000000000E+00 0.  1.
         21   -1    0    0  501  502 -0.00000000000E+00 -0.00000000000E+00 -0.55659230325E+02  0.55659230325E+02  0.00000000000E+00 0.  1.
         25    1    1    2    0    0  0.00000000000E+00  0.00000000000E+00  0.14522300702E+02  0.12584076135E+03  0.12500000000E+03 0.  0.
<mgrwt>
<rscale>  0 0.12500000E+03</rscale>
<asrwt>0</asrwt>
<pdfrwt beam="1">  1       21 0.10797159E-01 0.12500000E+03</pdfrwt>
<pdfrwt beam="2">  1       21 0.85629585E-02 0.12500000E+03</pdfrwt>
<totfact> 0.73928030E+06</totfact>
</mgrwt>
</event>
<event>
 3    1  0.1602107E-001  0.1250000E+03  0.7546771E-02  0.1235069E+00
         21   -1    0    0  502  501  0.00000000000E+00  0.00000000000E+00  0.11442811745E+02  0.11442811745E+02  0.00000000000E+00 0.  1.
         21   -1    0    0  501  502 -0.00000000000E+00 -0.00000000000E+00 -0.34137151664E+03  0.34137151664E+03  0.00000000000E+00 0.  1.
         25    1    1    2    0    0  0.00000000000E+00  0.00000000000E+00 -0.32992870489E+03  0.35281432838E+03  0.12500000000E+03 0.  0.
<mgrwt>
<rscale>  0 0.12500000E+03</rscale>
<asrwt>0</asrwt>
<pdfrwt beam="1">  1       21 0.17604329E-02 0.12500000E+03</pdfrwt>
<pdfrwt beam="2">  1       21 0.52518685E-01 0.12500000E+03</pdfrwt>
<totfact> 0.51331260E+06</totfact>
</mgrwt>
</event>
<event>
 3    1  0.1602107E-001  0.1250000E+03  0.7546771E-02  0.1235069E+00
         21   -1    0    0  502  501  0.00000000000E+00  0.00000000000E+00  0.54683263347E+03  0.54683263347E+03  0.00000000000E+00 0. -1.
         21   -1    0    0  501  502 -0.00000000000E+00 -0.00000000000E+00 -0.71434105445E+01  0.71434105445E+01  0.00000000000E+00 0. -1.
         25    1    1    2    0    0  0.00000000000E+00  0.00000000000E+00  0.53968922292E+03  0.55397604401E+03  0.12500000000E+03 0.  0.
<mgrwt>
<rscale>  0 0.12500000E+03</rscale>
<asrwt>0</asrwt>
<pdfrwt beam="1">  1       21 0.84128064E-01 0.12500000E+03</pdfrwt>
<pdfrwt beam="2">  1       21 0.10989867E-02 0.12500000E+03</pdfrwt>
<totfact> 0.39260331E+06</totfact>
</mgrwt>
</event>
<event>
 3    1  0.1602107E-001  0.1250000E+03  0.7546771E-02  0.1235069E+00
         21   -1    0    0  502  501  0.00000000000E+00  0.00000000000E+00  0.52745164178E+03  0.52745164178E+03  0.00000000000E+00 0.  1.
         21   -1    0    0  501  502 -0.00000000000E+00 -0.00000000000E+00 -0.74058922005E+01  0.74058922005E+01  0.00000000000E+00 0.  1.
         25    1    1    2    0    0  0.00000000000E+00  0.00000000000E+00  0.52004574958E+03  0.53485753398E+03  0.12500000000E+03 0.  0.
<mgrwt>
<rscale>  0 0.12500000E+03</rscale>
<asrwt>0</asrwt>
<pdfrwt beam="1">  1       21 0.81146377E-01 0.12500000E+03</pdfrwt>
<pdfrwt beam="2">  1       21 0.11393684E-02 0.12500000E+03</pdfrwt>
<totfact> 0.40214648E+06</totfact>
</mgrwt>
</event>
<event>
 3    1  0.1602107E-001  0.1250000E+03  0.7546771E-02  0.1235069E+00
         21   -1    0    0  502  501  0.00000000000E+00  0.00000000000E+00  0.99858248439E+01  0.99858248439E+01  0.00000000000E+00 0. -1.
         21   -1    0    0  501  502 -0.00000000000E+00 -0.00000000000E+00 -0.39117950305E+03  0.39117950305E+03  0.00000000000E+00 0. -1.
         25    1    1    2    0    0  0.00000000000E+00  0.00000000000E+00 -0.38119367821E+03  0.40116532790E+03  0.12500000000E+03 0.  0.
<mgrwt>
<rscale>  0 0.12500000E+03</rscale>
<asrwt>0</asrwt>
<pdfrwt beam="1">  1       21 0.15362807E-02 0.12500000E+03</pdfrwt>
<pdfrwt beam="2">  1       21 0.60181465E-01 0.12500000E+03</pdfrwt>
<totfact> 0.47964150E+06</totfact>
</mgrwt>
</event>
<event>
 3    1  0.1602107E-001  0.1250000E+03  0.7546771E-02  0.1235069E+00
         21   -1    0    0  502  501  0.00000000000E+00  0.00000000000E+00  0.17549914064E+03  0.17549914064E+03  0.00000000000E+00 0. -1.
         21   -1    0    0  501  502 -0.00000000000E+00 -0.00000000000E+00 -0.22257943746E+02  0.22257943746E+02  0.00000000000E+00 0. -1.
         25    1    1    2    0    0  0.00000000000E+00  0.00000000000E+00  0.15324119690E+03  0.19775708439E+03  0.12500000000E+03 0.  0.
<mgrwt>
<rscale>  0 0.12500000E+03</rscale>
<asrwt>0</asrwt>
<pdfrwt beam="1">  1       21 0.26999867E-01 0.12500000E+03</pdfrwt>
<pdfrwt beam="2">  1       21 0.34242992E-02 0.12500000E+03</pdfrwt>
<totfact> 0.65170525E+06</totfact>
</mgrwt>
</event>
<event>
 3    1  0.1602107E-001  0.1250000E+03  0.7546771E-02  0.1235069E+00
         21   -1    0    0  502  501  0.00000000000E+00  0.00000000000E+00  0.26293646320E+03  0.26293646320E+03  0.00000000000E+00 0. -1.
         21   -1    0    0  501  502 -0.00000000000E+00 -0.00000000000E+00 -0.14856250641E+02  0.14856250641E+02  0.00000000000E+00 0. -1.
         25    1    1    2    0    0  0.00000000000E+00  0.00000000000E+00  0.24808021256E+03  0.27779271384E+03  0.12500000000E+03 0.  0.
<mgrwt>
<rscale>  0 0.12500000E+03</rscale>
<asrwt>0</asrwt>
<pdfrwt beam="1">  1       21 0.40451760E-01 0.12500000E+03</pdfrwt>
<pdfrwt beam="2">  1       21 0.22855772E-02 0.12500000E+03</pdfrwt>
<totfact> 0.57353702E+06</totfact>
</mgrwt>
</event>
<event>
 3    1  0.1602107E-001  0.1250000E+03  0.7546771E-02  0.1235069E+00
         21   -1    0    0  502  501  0.00000000000E+00  0.00000000000E+00  0.77365368074E+01  0.77365368074E+01  0.00000000000E+00 0. -1.
         21   -1    0    0  501  502 -0.00000000000E+00 -0.00000000000E+00 -0.50490937964E+03  0.50490937964E+03  0.00000000000E+00 0. -1.
         25    1    1    2    0    0  0.00000000000E+00  0.00000000000E+00 -0.49717284283E+03  0.51264591645E+03  0.12500000000E+03 0.  0.
<mgrwt>
<rscale>  0 0.12500000E+03</rscale>
<asrwt>0</asrwt>
<pdfrwt beam="1">  1       21 0.11902361E-02 0.12500000E+03</pdfrwt>
<pdfrwt beam="2">  1       21 0.77678386E-01 0.12500000E+03</pdfrwt>
<totfact> 0.41366448E+06</totfact>
</mgrwt>
</event>
<event>
 3    1  0.1602107E-001  0.1250000E+03  0.7546771E-02  0.1235069E+00
         21   -1    0    0  502  501  0.00000000000E+00  0.00000000000E+00  0.39999668584E+02  0.39999668584E+02  0.00000000000E+00 0.  1.
         21   -1    0    0  501  502 -0.00000000000E+00 -0.00000000000E+00 -0.97657059129E+02  0.97657059129E+02  0.00000000000E+00 0.  1.
         25    1    1    2    0    0  0.00000000000E+00  0.00000000000E+00 -0.57657390545E+02  0.13765672771E+03  0.12500000000E+03 0.  0.
<mgrwt>
<rscale>  0 0.12500000E+03</rscale>
<asrwt>0</asrwt>
<pdfrwt beam="1">  1       21 0.61537953E-02 0.12500000E+03</pdfrwt>
<pdfrwt beam="2">  1       21 0.15024163E-01 0.12500000E+03</pdfrwt>
<totfact> 0.72346577E+06</totfact>
</mgrwt>
</event>
<event>
 3    1  0.1602107E-001  0.1250000E+03  0.7546771E-02  0.1235069E+00
         21   -1    0    0  502  501  0.00000000000E+00  0.00000000000E+00  0.82679645060E+01  0.82679645060E+01  0.00000000000E+00 0.  1.
         21   -1    0    0  501  502 -0.00000000000E+00 -0.00000000000E+00 -0.47245606789E+03  0.47245606789E+03  0.00000000000E+00 0.  1.
         25    1    1    2    0    0  0.00000000000E+00  0.00000000000E+00 -0.46418810339E+03  0.48072403240E+03  0.12500000000E+03 0.  0.
<mgrwt>
<rscale>  0 0.12500000E+03</rscale>
<asrwt>0</asrwt>
<pdfrwt beam="1">  1       21 0.12719938E-02 0.12500000E+03</pdfrwt>
<pdfrwt beam="2">  1       21 0.72685592E-01 0.12500000E+03</pdfrwt>
<totfact> 0.43109104E+06</totfact>
</mgrwt>
</event>
<event>
 3    1  0.1602107E-001  0.1250000E+03  0.7546771E-02  0.1235069E+00
         21   -1    0    0  502  501  0.00000000000E+00  0.00000000000E+00  0.30695390314E+02  0.30695390314E+02  0.00000000000E+00 0. -1.
         21   -1    0    0  501  502 -0.00000000000E+00 -0.00000000000E+00 -0.12725852188E+03  0.12725852188E+03  0.00000000000E+00 0. -1.
         25    1    1    2    0    0  0.00000000000E+00  0.00000000000E+00 -0.96563131571E+02  0.15795391220E+03  0.12500000000E+03 0.  0.
<mgrwt>
<rscale>  0 0.12500000E+03</rscale>
<asrwt>0</asrwt>
<pdfrwt beam="1">  1       21 0.47223678E-02 0.12500000E+03</pdfrwt>
<pdfrwt beam="2">  1       21 0.19578234E-01 0.12500000E+03</pdfrwt>
<totfact> 0.69770374E+06</totfact>
</mgrwt>
</event>
<event>
 3    1  0.1602107E-001  0.1250000E+03  0.7546771E-02  0.1235069E+00
         21   -1    0    0  502  501  0.00000000000E+00  0.00000000000E+00  0.22604724602E+03  0.22604724602E+03  0.00000000000E+00 0.  1.
         21   -1    0    0  501  502 -0.00000000000E+00 -0.00000000000E+00 -0.17280679454E+02  0.17280679454E+02  0.00000000000E+00 0.  1.
         25    1    1    2    0    0  0.00000000000E+00  0.00000000000E+00  0.20876656656E+03  0.24332792547E+03  0.12500000000E+03 0.  0.
<mgrwt>
<rscale>  0 0.12500000E+03</rscale>
<asrwt>0</asrwt>
<pdfrwt beam="1">  1       21 0.34776497E-01 0.12500000E+03</pdfrwt>
<pdfrwt beam="2">  1       21 0.26585662E-02 0.12500000E+03</pdfrwt>
<totfact> 0.60512106E+06</totfact>
</mgrwt>
</event>
<event>
 3    1  0.1602107E-001  0.1250000E+03  0.7546771E-02  0.1235069E+00
         21   -1    0    0  502  501  0.00000000000E+00  0.00000000000E+00  0.29805421975E+03  0.29805421975E+03  0.00000000000E+00 0.  1.
         21   -1    0    0  501  502 -0.00000000000E+00 -0.00000000000E+00 -0.13105836929E+02  0.13105836929E+02  0.00000000000E+00 0.  1.
         25    1    1    2    0    0  0.00000000000E+00  0.00000000000E+00  0.28494838282E+03  0.31116005668E+03  0.12500000000E+03 0.  0.
<mgrwt>
<rscale>  0 0.12500000E+03</rscale>
<asrwt>0</asrwt>
<pdfrwt beam="1">  1       21 0.45854490E-01 0.12500000E+03</pdfrwt>
<pdfrwt beam="2">  1       21 0.20162828E-02 0.12500000E+03</pdfrwt>
<totfact> 0.54541298E+06</totfact>
</mgrwt>
</event>
<event>
 3    1  0.1602107E-001  0.1250000E+03  0.7546771E-02  0.1235069E+00
         21   -1    0    0  502  501  0.00000000000E+00  0.00000000000E+00  0.12908371486E+03  0.12908371486E+03  0.00000000000E+00 0. -1.
         21   -1    0    0  501  502 -0.00000000000E+00 -0.00000000000E+00 -0.30261369564E+02  0.30261369564E+02  0.00000000000E+00 0. -1.
         25    1    1    2    0    0  0.00000000000E+00  0.00000000000E+00  0.98822345293E+02  0.15934508442E+03  0.12500000000E+03 0.  0.
<mgrwt>
<rscale>  0 0.12500000E+03</rscale>
<asrwt>0</asrwt>
<pdfrwt beam="1">  1       21 0.19859033E-01 0.12500000E+03</pdfrwt>
<pdfrwt beam="2">  1       21 0.46555954E-02 0.12500000E+03</pdfrwt>
<totfact> 0.69599608E+06</totfact>
</mgrwt>
</event>
<event>
 3    1  0.1602107E-001  0.1250000E+03  0.7546771E-02  0.1235069E+00
         21   -1    0    0  502  501  0.00000000000E+00  0.00000000000E+00  0.36469131468E+02  0.36469131468E+02  0.00000000000E+00 0.  1.
         21   -1    0    0  501  502 -0.00000000000E+00 -0.00000000000E+00 -0.10711113325E+03  0.10711113325E+03  0.00000000000E+00 0.  1.
         25    1    1    2    0    0  0.00000000000E+00  0.00000000000E+00 -0.70642001778E+02  0.14358026471E+03  0.12500000000E+03 0.  0.
<mgrwt>
<rscale>  0 0.12500000E+03</rscale>
<asrwt>0</asrwt>
<pdfrwt beam="1">  1       21 0.56106357E-02 0.12500000E+03</pdfrwt>
<pdfrwt beam="2">  1       21 0.16478636E-01 0.12500000E+03</pdfrwt>
<totfact> 0.71575289E+06</totfact>
</mgrwt>
</event>
<event>
 3    1  0.1602107E-001  0.1250000E+03  0.7546771E-02  0.1235069E+00
         21   -1    0    0  502  501  0.00000000000E+00  0.00000000000E+00  0.11322658878E+03  0.11322658878E+03  0.00000000000E+00 0. -1.
         21   -1    0    0  501  502 -0.00000000000E+00 -0.00000000000E+00 -0.34499405502E+02  0.34499405502E+02  0.00000000000E+00 0. -1.
         25    1    1    2    0    0  0.00000000000E+00  0.00000000000E+00  0.78727183281E+02  0.14772599428E+03  0.12500000000E+03 0.  0.
<mgrwt>
<rscale>  0 0.12500000E+03</rscale>
<asrwt>0</asrwt>
<pdfrwt beam="1">  1       21 0.17419475E-01 0.12500000E+03</pdfrwt>
<pdfrwt beam="2">  1       21 0.53076009E-02 0.12500000E+03</pdfrwt>
<totfact> 0.71046039E+06</totfact>
</mgrwt>
</event>
<event>
 3    1  0.1602107E-001  0.1250000E+03  0.7546771E-02  0.1235069E+00
         21   -1    0    0  502  501  0.00000000000E+00  0.00000000000E+00  0.15747705542E+04  0.15747705542E+04  0.00000000000E+00 0.  1.
         21   -1    0    0  501  502 -0.00000000000E+00 -0.00000000000E+00 -0.24805200920E+01  0.24805200920E+01  0.00000000000E+00 0.  1.
         25    1    1    2    0    0  0.00000000000E+00  0.00000000000E+00  0.15722900341E+04  0.15772510743E+04  0.12500000000E+03 0.  0.
<mgrwt>
<rscale>  0 0.12500000E+03</rscale>
<asrwt>0</asrwt>
<pdfrwt beam="1">  1       21 0.24227159E+00 0.12500000E+03</pdfrwt>
<pdfrwt beam="2">  1       21 0.38161973E-03 0.12500000E+03</pdfrwt>
<totfact> 0.12885616E+06</totfact>
</mgrwt>
</event>
<event>
 3    1  0.1602107E-001  0.1250000E+03  0.7546771E-02  0.1235069E+00
         21   -1    0    0  502  501  0.00000000000E+00  0.00000000000E+00  0.58669785777E+03  0.58669785777E+03  0.00000000000E+00 0. -1.
         21   -1    0    0  501  502 -0.00000000000E+00 -0.00000000000E+00 -0.66580266968E+01  0.66580266968E+01  0.00000000000E+00 0. -1.
         25    1    1    2    0    0  0.00000000000E+00  0.00000000000E+00  0.58003983107E+03  0.59335588447E+03  0.12500000000E+03 0.  0.
<mgrwt>
<rscale>  0 0.12500000E+03</rscale>
<asrwt>0</asrwt>
<pdfrwt beam="1">  1       21 0.90261168E-01 0.12500000E+03</pdfrwt>
<pdfrwt beam="2">  1       21 0.10243123E-02 0.12500000E+03</pdfrwt>
<totfact> 0.37394848E+06</totfact>
</mgrwt>
</event>
<event>
 3    1  0.1602107E-001  0.1250000E+03  0.7546771E-02  0.1235069E+00
         21   -1    0    0  502  501  0.00000000000E+00  0.00000000000E+00  0.99032337658E+02  0.99032337658E+02  0.00000000000E+00 0.  1.
         21   -1    0    0  501  502 -0.00000000000E+00 -0.00000000000E+00 -0.39444186539E+02  0.39444186539E+02  0.00000000000E+00 0.  1.
         25    1    1    2    0    0  0.00000000000E+00  0.00000000000E+00  0.59588151119E+02  0.13847652420E+03  0.12500000000E+03 0.  0.
<mgrwt>
<rscale>  0 0.12500000E+03</rscale>
<asrwt>0</asrwt>
<pdfrwt beam="1">  1       21 0.15235744E-01 0.12500000E+03</pdfrwt>
<pdfrwt beam="2">  1       21 0.60683364E-02 0.12500000E+03</pdfrwt>
<totfact> 0.72238824E+06</totfact>
</mgrwt>
</event>
<event>
 3    1  0.1602107E-001  0.1250000E+03  0.7546771E-02  0.1235069E+00
         21   -1    0    0  502  501  0.00000000000E+00  0.00000000000E+00  0.31153917230E+03  0.31153917230E+03  0.00000000000E+00 0. -1.
         21   -1    0    0  501  502 -0.00000000000E+00 -0.00000000000E+00 -0.12538551641E+02  0.12538551641E+02  0.00000000000E+00 0. -1.
         25    1    1    2    0    0  0.00000000000E+00  0.00000000000E+00  0.29900062066E+03  0.32407772394E+03  0.12500000000E+03 0.  0.
<mgrwt>
<rscale>  0 0.12500000E+03</rscale>
<asrwt>0</asrwt>
<pdfrwt beam="1">  1       21 0.47929098E-01 0.12500000E+03</pdfrwt>
<pdfrwt beam="2">  1       21 0.19290082E-02 0.12500000E+03</pdfrwt>
<totfact> 0.53511780E+06</totfact>
</mgrwt>
</event>
<event>
 3    1  0.1602107E-001  0.1250000E+03  0.7546771E-02  0.1235069E+00
         21   -1    0    0  502  501  0.00000000000E+00  0.00000000000E+00  0.16750577032E+03  0.16750577032E+03  0.00000000000E+00 0. -1.
         21   -1    0    0  501  502 -0.00000000000E+00 -0.00000000000E+00 -0.23320092152E+02  0.23320092152E+02  0.00000000000E+00 0. -1.
         25    1    1    2    0    0  0.00000000000E+00  0.00000000000E+00  0.14418567817E+03  0.19082586248E+03  0.12500000000E+03 0.  0.
<mgrwt>
<rscale>  0 0.12500000E+03</rscale>
<asrwt>0</asrwt>
<pdfrwt beam="1">  1       21 0.25770118E-01 0.12500000E+03</pdfrwt>
<pdfrwt beam="2">  1       21 0.35877066E-02 0.12500000E+03</pdfrwt>
<totfact> 0.65930795E+06</totfact>
</mgrwt>
</event>
<event>
 3    1  0.1602107E-001  0.1250000E+03  0.7546771E-02  0.1235069E+00
         21   -1    0    0  502  501  0.00000000000E+00  0.00000000000E+00  0.61964641049E+02  0.61964641049E+02  0.00000000000E+00 0.  1.
         21   -1    0    0  501  502 -0.00000000000E+00 -0.00000000000E+00 -0.63039984318E+02  0.63039984318E+02  0.00000000000E+00 0.  1.
         25    1    1    2    0    0  0.00000000000E+00  0.00000000000E+00 -0.10753432698E+01  0.12500462537E+03  0.12500000000E+03 0.  0.
<mgrwt>
<rscale>  0 0.12500000E+03</rscale>
<asrwt>0</asrwt>
<pdfrwt beam="1">  1       21 0.95330217E-02 0.12500000E+03</pdfrwt>
<pdfrwt beam="2">  1       21 0.96984591E-02 0.12500000E+03</pdfrwt>
<totfact> 0.74042957E+06</totfact>
</mgrwt>
</event>
<event>
 3    1  0.1602107E-001  0.1250000E+03  0.7546771E-02  0.1235069E+00
         21   -1    0    0  502  501  0.00000000000E+00  0.00000000000E+00  0.61431338555E+01  0.61431338555E+01  0.00000000000E+00 0. -1.
         21   -1    0    0  501  502 -0.00000000000E+00 -0.00000000000E+00 -0.63587251912E+03  0.63587251912E+03  0.00000000000E+00 0. -1.
         25    1    1    2    0    0  0.00000000000E+00  0.00000000000E+00 -0.62972938527E+03  0.64201565298E+03  0.12500000000E+03 0.  0.
<mgrwt>
<rscale>  0 0.12500000E+03</rscale>
<asrwt>0</asrwt>
<pdfrwt beam="1">  1       21 0.94509785E-03 0.12500000E+03</pdfrwt>
<pdfrwt beam="2">  1       21 0.97826507E-01 0.12500000E+03</pdfrwt>
<totfact> 0.35258800E+06</totfact>
</mgrwt>
</event>
<event>
 3    1  0.1602107E-001  0.1250000E+03  0.7546771E-02  0.1235069E+00
         21   -1    0    0  502  501  0.00000000000E+00  0.00000000000E+00  0.19301609464E+02  0.19301609464E+02  0.00000000000E+00 0. -1.
         21   -1    0    0  501  502 -0.00000000000E+00 -0.00000000000E+00 -0.20237949624E+03  0.20237949624E+03  0.00000000000E+00 0. -1.
         25    1    1    2    0    0  0.00000000000E+00  0.00000000000E+00 -0.18307788678E+03  0.22168110570E+03  0.12500000000E+03 0.  0.
<mgrwt>
<rscale>  0 0.12500000E+03</rscale>
<asrwt>0</asrwt>
<pdfrwt beam="1">  1       21 0.29694785E-02 0.12500000E+03</pdfrwt>
<pdfrwt beam="2">  1       21 0.31135306E-01 0.12500000E+03</pdfrwt>
<totfact> 0.62651117E+06</totfact>
</mgrwt>
</event>
<event>
 3    1  0.1602107E-001  0.1250000E+03  0.7546771E-02  0.1235069E+00
         21   -1    0    0  502  501  0.00000000000E+00  0.00000000000E+00  0.10693510095E+02  0.10693510095E+02  0.00000000000E+00 0. -1.
         21   -1    0    0  501  502 -0.00000000000E+00 -0.00000000000E+00 -0.36529165498E+03  0.36529165498E+03  0.00000000000E+00 0. -1.
         25    1    1    2    0    0  0.00000000000E+00  0.00000000000E+00 -0.35459814489E+03  0.37598516507E+03  0.12500000000E+03 0.  0.
<mgrwt>
<rscale>  0 0.12500000E+03</rscale>
<asrwt>0</asrwt>
<pdfrwt beam="1">  1       21 0.16451557E-02 0.12500000E+03</pdfrwt>
<pdfrwt beam="2">  1       21 0.56198707E-01 0.12500000E+03</pdfrwt>
<totfact> 0.49674771E+06</totfact>
</mgrwt>
</event>
<event>
 3    1  0.1602107E-001  0.1250000E+03  0.7546771E-02  0.1235069E+00
         21   -1    0    0  502  501  0.00000000000E+00  0.00000000000E+00  0.26753574087E+03  0.26753574087E+03  0.00000000000E+00 0. -1.
         21   -1    0    0  501  502 -0.00000000000E+00 -0.00000000000E+00 -0.14600852908E+02  0.14600852908E+02  0.00000000000E+00 0. -1.
         25    1    1    2    0    0  0.00000000000E+00  0.00000000000E+00  0.25293488796E+03  0.28213659377E+03  0.12500000000E+03 0.  0.
<mgrwt>
<rscale>  0 0.12500000E+03</rscale>
<asrwt>0</asrwt>
<pdfrwt beam="1">  1       21 0.41159341E-01 0.12500000E+03</pdfrwt>
<pdfrwt beam="2">  1       21 0.22462853E-02 0.12500000E+03</pdfrwt>
<totfact> 0.56974154E+06</totfact>
</mgrwt>
</event>
<event>
 3    1  0.1602107E-001  0.1250000E+03  0.7546771E-02  0.1235069E+00
         21   -1    0    0  502  501  0.00000000000E+00  0.00000000000E+00  0.51649719187E+01  0.51649719187E+01  0.00000000000E+00 0.  1.
         21   -1    0    0  501  502 -0.00000000000E+00 -0.00000000000E+00 -0.75629646424E+03  0.75629646424E+03  0.00000000000E+00 0.  1.
         25    1    1    2    0    0  0.00000000000E+00  0.00000000000E+00 -0.75113149232E+03  0.76146143616E+03  0.12500000000E+03 0.  0.
<mgrwt>
<rscale>  0 0.12500000E+03</rscale>
<asrwt>0</asrwt>
<pdfrwt beam="1">  1       21 0.79461101E-03 0.12500000E+03</pdfrwt>
<pdfrwt beam="2">  1       21 0.11635331E+00 0.12500000E+03</pdfrwt>
<totfact> 0.30669787E+06</totfact>
</mgrwt>
</event>
<event>
 3    1  0.1602107E-001  0.1250000E+03  0.7546771E-02  0.1235069E+00
         21   -1    0    0  502  501  0.00000000000E+00  0.00000000000E+00  0.16239196817E+02  0.16239196817E+02  0.00000000000E+00 0.  1.
         21   -1    0    0  501  502 -0.00000000000E+00 -0.00000000000E+00 -0.24054453210E+03  0.24054453210E+03  0.00000000000E+00 0.  1.
         25    1    1    2    0    0  0.00000000000E+00  0.00000000000E+00 -0.22430533528E+03  0.25678372892E+03  0.12500000000E+03 0.  0.
<mgrwt>
<rscale>  0 0.12500000E+03</rscale>
<asrwt>0</asrwt>
<pdfrwt beam="1">  1       21 0.24983380E-02 0.12500000E+03</pdfrwt>
<pdfrwt beam="2">  1       21 0.37006850E-01 0.12500000E+03</pdfrwt>
<totfact> 0.59245326E+06</totfact>
</mgrwt>
</event>
<event>
 3    1  0.1602107E-001  0.1250000E+03  0.7546771E-02  0.1235069E+00
         21   -1    0    0  502  501  0.00000000000E+00  0.00000000000E+00  0.34396231344E+02  0.34396231344E+02  0.00000000000E+00 0. -1.
         21   -1    0    0  501  502 -0.00000000000E+00 -0.00000000000E+00 -0.11356622070E+03  0.11356622070E+03  0.00000000000E+00 0. -1.
         25    1    1    2    0    0  0.00000000000E+00  0.00000000000E+00 -0.79169989354E+02  0.14796245204E+03  0.12500000000E+03 0.  0.
<mgrwt>
<rscale>  0 0.12500000E+03</rscale>
<asrwt>0</asrwt>
<pdfrwt beam="1">  1       21 0.52917279E-02 0.12500000E+03</pdfrwt>
<pdfrwt beam="2">  1       21 0.17471726E-01 0.12500000E+03</pdfrwt>
<totfact> 0.71016102E+06</totfact>
</mgrwt>
</event>
<event>
 3    1  0.1602107E-001  0.1250000E+03  0.7546771E-02  0.1235069E+00
         21   -1    0    0  502  501  0.00000000000E+00  0.00000000000E+00  0.25525147607E+01  0.25525147607E+01  0.00000000000E+00 0.  1.
         21   -1    0    0  501  502 -0.00000000000E+00 -0.00000000000E+00 -0.15303535401E+04  0.15303535401E+04  0.00000000000E+00 0.  1.
         25    1    1    2    0    0  0.00000000000E+00  0.00000000000E+00 -0.15278010253E+04  0.15329060548E+04  0.12500000000E+03 0.  0.
<mgrwt>
<rscale>  0 0.12500000E+03</rscale>
<asrwt>0</asrwt>
<pdfrwt beam="1">  1       21 0.39269479E-03 0.12500000E+03</pdfrwt>
<pdfrwt beam="2">  1       21 0.23543888E+00 0.12500000E+03</pdfrwt>
<totfact> 0.13511839E+06</totfact>
</mgrwt>
</event>
<event>
 3    1  0.1602107E-001  0.1250000E+03  0.7546771E-02  0.1235069E+00
         21   -1    0    0  502  501  0.00000000000E+00  0.00000000000E+00  0.28270495040E+03  0.28270495040E+03  0.00000000000E+00 0.  1.
         21   -1    0    0  501  502 -0.00000000000E+00 -0.00000000000E+00 -0.13817409262E+02  0.13817409262E+02  0.00000000000E+00 0.  1.
         25    1    1    2    0    0  0.00000000000E+00  0.00000000000E+00  0.26888754113E+03  0.29652235966E+03  0.12500000000E+03 0.  0.
<mgrwt>
<rscale>  0 0.12500000E+03</rscale>
<asrwt>0</asrwt>
<pdfrwt beam="1">  1       21 0.43493065E-01 0.12500000E+03</pdfrwt>
<pdfrwt beam="2">  1       21 0.21257555E-02 0.12500000E+03</pdfrwt>
<totfact> 0.55746425E+06</totfact>
</mgrwt>
</event>
<event>
 3    1  0.1602107E-001  0.1250000E+03  0.7546771E-02  0.1235069E+00
         21   -1    0    0  502  501  0.00000000000E+00  0.00000000000E+00  0.60537144626E+02  0.60537144626E+02  0.00000000000E+00 0. -1.
         21   -1    0    0  501  502 -0.00000000000E+00 -0.00000000000E+00 -0.64526498965E+02  0.64526498965E+02  0.00000000000E+00 0. -1.
         25    1    1    2    0    0  0.00000000000E+00  0.00000000000E+00 -0.39893543391E+01  0.12506364359E+03  0.12500000000E+03 0.  0.
<mgrwt>
<rscale>  0 0.12500000E+03</rscale>
<asrwt>0</asrwt>
<pdfrwt beam="1">  1       21 0.93134069E-02 0.12500000E+03</pdfrwt>
<pdfrwt beam="2">  1       21 0.99271536E-02 0.12500000E+03</pdfrwt>
<totfact> 0.74034985E+06</totfact>
</mgrwt>
</event>
<event>
 3    1  0.1602107E-001  0.1250000E+03  0.7546771E-02  0.1235069E+00
         21   -1    0    0  502  501  0.00000000000E+00  0.00000000000E+00  0.11992268793E+02  0.11992268793E+02  0.00000000000E+00 0.  1.
         21   -1    0    0  501  502 -0.00000000000E+00 -0.00000000000E+00 -0.32573069096E+03  0.32573069096E+03  0.00000000000E+00 0.  1.
         25    1    1    2    0    0  0.00000000000E+00  0.00000000000E+00 -0.31373842217E+03  0.33772295976E+03  0.12500000000E+03 0.  0.
<mgrwt>
<rscale>  0 0.12500000E+03</rscale>
<asrwt>0</asrwt>
<pdfrwt beam="1">  1       21 0.18449644E-02 0.12500000E+03</pdfrwt>
<pdfrwt beam="2">  1       21 0.50112415E-01 0.12500000E+03</pdfrwt>
<totfact> 0.52458107E+06</totfact>
</mgrwt>
</event>
<event>
 3    1  0.1602107E-001  0.1250000E+03  0.7546771E-02  0.1235069E+00
         21   -1    0    0  502  501  0.00000000000E+00  0.00000000000E+00  0.77653909280E+03  0.77653909280E+03  0.00000000000E+00 0.  1.
         21   -1    0    0  501  502 -0.00000000000E+00 -0.00000000000E+00 -0.50303327111E+01  0.50303327111E+01  0.00000000000E+00 0.  1.
         25    1    1    2    0    0  0.00000000000E+00  0.00000000000E+00  0.77150876009E+03  0.78156942552E+03  0.12500000000E+03 0.  0.
<mgrwt>
<rscale>  0 0.12500000E+03</rscale>
<asrwt>0</asrwt>
<pdfrwt beam="1">  1       21 0.11946746E+00 0.12500000E+03</pdfrwt>
<pdfrwt beam="2">  1       21 0.77389796E-03 0.12500000E+03</pdfrwt>
<totfact> 0.29982642E+06</totfact>
</mgrwt>
</event>
<event>
 3    1  0.1602107E-001  0.1250000E+03  0.7546771E-02  0.1235069E+00
         21   -1    0    0  502  501  0.00000000000E+00  0.00000000000E+00  0.79631841179E+03  0.79631841179E+03  0.00000000000E+00 0. -1.
         21   -1    0    0  501  502 -0.00000000000E+00 -0.00000000000E+00 -0.49053870187E+01  0.49053870187E+01  0.00000000000E+00 0. -1.
         25    1    1    2    0    0  0.00000000000E+00  0.00000000000E+00  0.79141302477E+03  0.80122379881E+03  0.12500000000E+03 0.  0.
<mgrwt>
<rscale>  0 0.12500000E+03</rscale>
<asrwt>0</asrwt>
<pdfrwt beam="1">  1       21 0.12251042E+00 0.12500000E+03</pdfrwt>
<pdfrwt beam="2">  1       21 0.75467556E-03 0.12500000E+03</pdfrwt>
<totfact> 0.29322329E+06</totfact>
</mgrwt>
</event>
<event>
 3    1  0.1602107E-001  0.1250000E+03  0.7546771E-02  0.1235069E+00
         21   -1    0    0  502  501  0.00000000000E+00  0.00000000000E+00  0.43792136551E+02  0.43792136551E+02  0.00000000000E+00 0.  1.
         21   -1    0    0  501  502 -0.00000000000E+00 -0.00000000000E+00 -0.89199804067E+02  0.89199804067E+02  0.00000000000E+00 0.  1.
         25    1    1    2    0    0  0.00000000000E+00  0.00000000000E+00 -0.45407667516E+02  0.13299194062E+03  0.12500000000E+03 0.  0.
<mgrwt>
<rscale>  0 0.12500000E+03</rscale>
<asrwt>0</asrwt>
<pdfrwt beam="1">  1       21 0.67372518E-02 0.12500000E+03</pdfrwt>
<pdfrwt beam="2">  1       21 0.13723047E-01 0.12500000E+03</pdfrwt>
<totfact> 0.72963474E+06</totfact>
</mgrwt>
</event>
<event>
 3    1  0.1602107E-001  0.1250000E+03  0.7546771E-02  0.1235069E+00
         21   -1    0    0  502  501  0.00000000000E+00  0.00000000000E+00  0.29105335967E+01  0.29105335967E+01  0.00000000000E+00 0. -1.
         21   -1    0    0  501  502 -0.00000000000E+00 -0.00000000000E+00 -0.13421078542E+04  0.13421078542E+04  0.00000000000E+00 0. -1.
         25    1    1    2    0    0  0.00000000000E+00  0.00000000000E+00 -0.13391973206E+04  0.13450183878E+04  0.12500000000E+03 0.  0.
<mgrwt>
<rscale>  0 0.12500000E+03</rscale>
<asrwt>0</asrwt>
<pdfrwt beam="1">  1       21 0.44777550E-03 0.12500000E+03</pdfrwt>
<pdfrwt beam="2">  1       21 0.20647762E+00 0.12500000E+03</pdfrwt>
<totfact> 0.16462955E+06</totfact>
</mgrwt>
</event>
<event>
 3    1  0.1602107E-001  0.1250000E+03  0.7546771E-02  0.1235069E+00
         21   -1    0    0  502  501  0.00000000000E+00  0.00000000000E+00  0.38667929456E+01  0.38667929456E+01  0.00000000000E+00 0.  1.
         21   -1    0    0  501  502 -0.00000000000E+00 -0.00000000000E+00 -0.10102040774E+04  0.10102040774E+04  0.00000000000E+00 0.  1.
         25    1    1    2    0    0  0.00000000000E+00  0.00000000000E+00 -0.10063372844E+04  0.10140708703E+04  0.12500000000E+03 0.  0.
<mgrwt>
<rscale>  0 0.12500000E+03</rscale>
<asrwt>0</asrwt>
<pdfrwt beam="1">  1       21 0.59489141E-03 0.12500000E+03</pdfrwt>
<pdfrwt beam="2">  1       21 0.15541596E+00 0.12500000E+03</pdfrwt>
<totfact> 0.23269929E+06</totfact>
</mgrwt>
</event>
<event>
 3    1  0.1602107E-001  0.1250000E+03  0.7546771E-02  0.1235069E+00
         21   -1    0    0  502  501  0.00000000000E+00  0.00000000000E+00  0.14002972709E+02  0.14002972709E+02  0.00000000000E+00 0.  1.
         21   -1    0    0  501  502 -0.00000000000E+00 -0.00000000000E+00 -0.27895862408E+03  0.27895862408E+03  0.00000000000E+00 0.  1.
         25    1    1    2    0    0  0.00000000000E+00  0.00000000000E+00 -0.26495565137E+03  0.29296159679E+03  0.12500000000E+03 0.  0.
<mgrwt>
<rscale>  0 0.12500000E+03</rscale>
<asrwt>0</asrwt>
<pdfrwt beam="1">  1       21 0.21543036E-02 0.12500000E+03</pdfrwt>
<pdfrwt beam="2">  1       21 0.42916709E-01 0.12500000E+03</pdfrwt>
<totfact> 0.56046213E+06</totfact>
</mgrwt>
</event>
<event>
 3    1  0.1602107E-001  0.1250000E+03  0.7546771E-02  0.1235069E+00
         21   -1    0    0  502  501  0.00000000000E+00  0.00000000000E+00  0.41568751081E+02  0.41568751081E+02  0.00000000000E+00 0.  1.
         21   -1    0    0  501  502 -0.00000000000E+00 -0.00000000000E+00 -0.93970829010E+02  0.93970829010E+02  0.00000000000E+00 0.  1.
         25    1    1    2    0    0  0.00000000000E+00  0.00000000000E+00 -0.52402077930E+02  0.13553958009E+03  0.12500000000E+03 0.  0.
<mgrwt>
<rscale>  0 0.12500000E+03</rscale>
<asrwt>0</asrwt>
<pdfrwt beam="1">  1       21 0.63951925E-02 0.12500000E+03</pdfrwt>
<pdfrwt beam="2">  1       21 0.14457050E-01 0.12500000E+03</pdfrwt>
<totfact> 0.72625107E+06</totfact>
</mgrwt>
</event>
<event>
 3    1  0.1602107E-001  0.1250000E+03  0.7546771E-02  0.1235069E+00
         21   -1    0    0  502  501  0.00000000000E+00  0.00000000000E+00  0.10516989791E+03  0.10516989791E+03  0.00000000000E+00 0.  1.
         21   -1    0    0  501  502 -0.00000000000E+00 -0.00000000000E+00 -0.37142281941E+02  0.37142281941E+02  0.00000000000E+00 0.  1.
         25    1    1    2    0    0  0.00000000000E+00  0.00000000000E+00  0.68027615972E+02  0.14231217985E+03  0.12500000000E+03 0.  0.
<mgrwt>
<rscale>  0 0.12500000E+03</rscale>
<asrwt>0</asrwt>
<pdfrwt beam="1">  1       21 0.16179984E-01 0.12500000E+03</pdfrwt>
<pdfrwt beam="2">  1       21 0.57141973E-02 0.12500000E+03</pdfrwt>
<totfact> 0.71738877E+06</totfact>
</mgrwt>
</event>
<event>
 3    1  0.1602107E-001  0.1250000E+03  0.7546771E-02  0.1235069E+00
         21   -1    0    0  502  501  0.00000000000E+00  0.00000000000E+00  0.15224330734E+01  0.15224330734E+01  0.00000000000E+00 0.  1.
         21   -1    0    0  501  502 -0.00000000000E+00 -0.00000000000E+00 -0.25657942331E+04  0.25657942331E+04  0.00000000000E+00 0.  1.
         25    1    1    2    0    0  0.00000000000E+00  0.00000000000E+00 -0.25642718001E+04  0.25673166662E+04  0.12500000000E+03 0.  0.
<mgrwt>
<rscale>  0 0.12500000E+03</rscale>
<asrwt>0</asrwt>
<pdfrwt beam="1">  1       21 0.23422195E-03 0.12500000E+03</pdfrwt>
<pdfrwt beam="2">  1       21 0.39473509E+00 0.12500000E+03</pdfrwt>
<totfact> 0.36274496E+05</totfact>
</mgrwt>
</event>
<event>
 3    1  0.1602107E-001  0.1250000E+03  0.7546771E-02  0.1235069E+00
         21   -1    0    0  502  501  0.00000000000E+00  0.00000000000E+00  0.52923801748E+01  0.52923801748E+01  0.00000000000E+00 0. -1.
         21   -1    0    0  501  502 -0.00000000000E+00 -0.00000000000E+00 -0.73808945521E+03  0.73808945521E+03  0.00000000000E+00 0. -1.
         25    1    1    2    0    0  0.00000000000E+00  0.00000000000E+00 -0.73279707503E+03  0.74338183538E+03  0.12500000000E+03 0.  0.
<mgrwt>
<rscale>  0 0.12500000E+03</rscale>
<asrwt>0</asrwt>
<pdfrwt beam="1">  1       21 0.81421258E-03 0.12500000E+03</pdfrwt>
<pdfrwt beam="2">  1       21 0.11355219E+00 0.12500000E+03</pdfrwt>
<totfact> 0.31303017E+06</totfact>
</mgrwt>
</event>
<event>
 3    1  0.1602107E-001  0.1250000E+03  0.7546771E-02  0.1235069E+00
         21   -1    0    0  502  501  0.00000000000E+00  0.00000000000E+00  0.13543441940E+03  0.13543441940E+03  0.00000000000E+00 0. -1.
         21   -1    0    0  501  502 -0.00000000000E+00 -0.00000000000E+00 -0.28842372694E+02  0.28842372694E+02  0.00000000000E+00 0. -1.
         25    1    1    2    0    0  0.00000000000E+00  0.00000000000E+00  0.10659204671E+03  0.16427679209E+03  0.12500000000E+03 0.  0.
<mgrwt>
<rscale>  0 0.12500000E+03</rscale>
<asrwt>0</asrwt>
<pdfrwt beam="1">  1       21 0.20836064E-01 0.12500000E+03</pdfrwt>
<pdfrwt beam="2">  1       21 0.44372882E-02 0.12500000E+03</pdfrwt>
<totfact> 0.69000658E+06</totfact>
</mgrwt>
</event>
<event>
 3    1  0.1602107E-001  0.1250000E+03  0.7546771E-02  0.1235069E+00
         21   -1    0    0  502  501  0.00000000000E+00  0.00000000000E+00  0.23763437926E+03  0.23763437926E+03  0.00000000000E+00 0. -1.
         21   -1    0    0  501  502 -0.00000000000E+00 -0.00000000000E+00 -0.16438067640E+02  0.16438067640E+02  0.00000000000E+00 0. -1.
         25    1    1    2    0    0  0.00000000000E+00  0.00000000000E+00  0.22119631162E+03  0.25407244690E+03  0.12500000000E+03 0.  0.
<mgrwt>
<rscale>  0 0.12500000E+03</rscale>
<asrwt>0</asrwt>
<pdfrwt beam="1">  1       21 0.36559133E-01 0.12500000E+03</pdfrwt>
<pdfrwt beam="2">  1       21 0.25289337E-02 0.12500000E+03</pdfrwt>
<totfact> 0.59496881E+06</totfact>
</mgrwt>
</event>
<event>
 3    1  0.1602107E-001  0.1250000E+03  0.7546771E-02  0.1235069E+00
         21   -1    0    0  502  501  0.00000000000E+00  0.00000000000E+00  0.22205314833E+03  0.22205314833E+03  0.00000000000E+00 0.  1.
         21   -1    0    0  501  502 -0.00000000000E+00 -0.00000000000E+00 -0.17591509192E+02  0.17591509192E+02  0.00000000000E+00 0.  1.
         25    1    1    2    0    0  0.00000000000E+00  0.00000000000E+00  0.20446163913E+03  0.23964465752E+03  0.12500000000E+03 0.  0.
<mgrwt>
<rscale>  0 0.12500000E+03</rscale>
<asrwt>0</asrwt>
<pdfrwt beam="1">  1       21 0.34162021E-01 0.12500000E+03</pdfrwt>
<pdfrwt beam="2">  1       21 0.27063862E-02 0.12500000E+03</pdfrwt>
<totfact> 0.60867066E+06</totfact>
</mgrwt>
</event>
<event>
 3    1  0.1602107E-001  0.1250000E+03  0.7546771E-02  0.1235069E+00
         21   -1    0    0  502  501  0.00000000000E+00  0.00000000000E+00  0.40914247350E+03  0.40914247350E+03  0.00000000000E+00 0.  1.
         21   -1    0    0  501  502 -0.00000000000E+00 -0.00000000000E+00 -0.95474076954E+01  0.95474076954E+01  0.00000000000E+00 0.  1.
         25    1    1    2    0    0  0.00000000000E+00  0.00000000000E+00  0.39959506581E+03  0.41868988120E+03  0.12500000000E+03 0.  0.
<mgrwt>
<rscale>  0 0.12500000E+03</rscale>
<asrwt>0</asrwt>
<pdfrwt beam="1">  1       21 0.62944982E-01 0.12500000E+03</pdfrwt>
<pdfrwt beam="2">  1       21 0.14688323E-02 0.12500000E+03</pdfrwt>
<totfact> 0.46825891E+06</totfact>
</mgrwt>
</event>
<event>
 3    1  0.1602107E-001  0.1250000E+03  0.7546771E-02  0.1235069E+00
         21   -1    0    0  502  501  0.00000000000E+00  0.00000000000E+00  0.51136192338E+02  0.51136192338E+02  0.00000000000E+00 0.  1.
         21   -1    0    0  501  502 -0.00000000000E+00 -0.00000000000E+00 -0.76389144781E+02  0.76389144781E+02  0.00000000000E+00 0.  1.
         25    1    1    2    0    0  0.00000000000E+00  0.00000000000E+00 -0.25252952443E+02  0.12752533712E+03  0.12500000000E+03 0.  0.
<mgrwt>
<rscale>  0 0.12500000E+03</rscale>
<asrwt>0</asrwt>
<pdfrwt beam="1">  1       21 0.78671066E-02 0.12500000E+03</pdfrwt>
<pdfrwt beam="2">  1       21 0.11752176E-01 0.12500000E+03</pdfrwt>
<totfact> 0.73697784E+06</totfact>
</mgrwt>
</event>
<event>
 3    1  0.1602107E-001  0.1250000E+03  0.7546771E-02  0.1235069E+00
         21   -1    0    0  502  501  0.00000000000E+00  0.00000000000E+00  0.74665492485E+01  0.74665492485E+01  0.00000000000E+00 0.  1.
         21   -1    0    0  501  502 -0.00000000000E+00 -0.00000000000E+00 -0.52316670928E+03  0.52316670928E+03  0.00000000000E+00 0.  1.
         25    1    1    2    0    0  0.00000000000E+00  0.00000000000E+00 -0.51570016003E+03  0.53063325853E+03  0.12500000000E+03 0.  0.
<mgrwt>
<rscale>  0 0.12500000E+03</rscale>
<asrwt>0</asrwt>
<pdfrwt beam="1">  1       21 0.11486996E-02 0.12500000E+03</pdfrwt>
<pdfrwt beam="2">  1       21 0.80487208E-01 0.12500000E+03</pdfrwt>
<totfact> 0.40430034E+06</totfact>
</mgrwt>
</event>
<event>
 3    1  0.1602107E-001  0.1250000E+03  0.7546771E-02  0.1235069E+00
         21   -1    0    0  502  501  0.00000000000E+00  0.00000000000E+00  0.29908507105E+02  0.29908507105E+02  0.00000000000E+00 0. -1.
         21   -1    0    0  501  502 -0.00000000000E+00 -0.00000000000E+00 -0.13060665269E+03  0.13060665269E+03  0.00000000000E+00 0. -1.
         25    1    1    2    0    0  0.00000000000E+00  0.00000000000E+00 -0.10069814559E+03  0.16051515980E+03  0.12500000000E+03 0.  0.
<mgrwt>
<rscale>  0 0.12500000E+03</rscale>
<asrwt>0</asrwt>
<pdfrwt beam="1">  1       21 0.46013087E-02 0.12500000E+03</pdfrwt>
<pdfrwt beam="2">  1       21 0.20093332E-01 0.12500000E+03</pdfrwt>
<totfact> 0.69456603E+06</totfact>
</mgrwt>
</event>
<event>
 3    1  0.1602107E-001  0.1250000E+03  0.7546771E-02  0.1235069E+00
         21   -1    0    0  502  501  0.00000000000E+00  0.00000000000E+00  0.67239133410E+02  0.67239133410E+02  0.00000000000E+00 0. -1.
         21   -1    0    0  501  502 -0.00000000000E+00 -0.00000000000E+00 -0.58094889120E+02  0.58094889120E+02  0.00000000000E+00 0. -1.
         25    1    1    2    0    0  0.00000000000E+00  0.00000000000E+00  0.91442442894E+01  0.12533402253E+03  0.12500000000E+03 0.  0.
<mgrwt>
<rscale>  0 0.12500000E+03</rscale>
<asrwt>0</asrwt>
<pdfrwt beam="1">  1       21 0.10344482E-01 0.12500000E+03</pdfrwt>
<pdfrwt beam="2">  1       21 0.89376753E-02 0.12500000E+03</pdfrwt>
<totfact> 0.73998479E+06</totfact>
</mgrwt>
</event>
<event>
 3    1  0.1602107E-001  0.1250000E+03  0.7546771E-02  0.1235069E+00
         21   -1    0    0  502  501  0.00000000000E+00  0.00000000000E+00  0.21863463572E+04  0.21863463572E+04  0.00000000000E+00 0.  1.
         21   -1    0    0  501  502 -0.00000000000E+00 -0.00000000000E+00 -0.17866565318E+01  0.17866565318E+01  0.00000000000E+00 0.  1.
         25    1    1    2    0    0  0.00000000000E+00  0.00000000000E+00  0.21845597007E+04  0.21881330138E+04  0.12500000000E+03 0.  0.
<mgrwt>
<rscale>  0 0.12500000E+03</rscale>
<asrwt>0</asrwt>
<pdfrwt beam="1">  1       21 0.33635884E+00 0.12500000E+03</pdfrwt>
<pdfrwt beam="2">  1       21 0.27487199E-03 0.12500000E+03</pdfrwt>
<totfact> 0.62549853E+05</totfact>
</mgrwt>
</event>
<event>
 3    1  0.1602107E-001  0.1250000E+03  0.7546771E-02  0.1235069E+00
         21   -1    0    0  502  501  0.00000000000E+00  0.00000000000E+00  0.40350594054E+02  0.40350594054E+02  0.00000000000E+00 0.  1.
         21   -1    0    0  501  502 -0.00000000000E+00 -0.00000000000E+00 -0.96807744510E+02  0.96807744510E+02  0.00000000000E+00 0.  1.
         25    1    1    2    0    0  0.00000000000E+00  0.00000000000E+00 -0.56457150456E+02  0.13715833856E+03  0.12500000000E+03 0.  0.
<mgrwt>
<rscale>  0 0.12500000E+03</rscale>
<asrwt>0</asrwt>
<pdfrwt beam="1">  1       21 0.62077837E-02 0.12500000E+03</pdfrwt>
<pdfrwt beam="2">  1       21 0.14893499E-01 0.12500000E+03</pdfrwt>
<totfact> 0.72411936E+06</totfact>
</mgrwt>
</event>
<event>
 3    1  0.1602107E-001  0.1250000E+03  0.7546771E-02  0.1235069E+00
         21   -1    0    0  502  501  0.00000000000E+00  0.00000000000E+00  0.15348476722E+02  0.15348476722E+02  0.00000000000E+00 0. -1.
         21   -1    0    0  501  502 -0.00000000000E+00 -0.00000000000E+00 -0.25450408343E+03  0.25450408343E+03  0.00000000000E+00 0. -1.
         25    1    1    2    0    0  0.00000000000E+00  0.00000000000E+00 -0.23915560670E+03  0.26985256015E+03  0.12500000000E+03 0.  0.
<mgrwt>
<rscale>  0 0.12500000E+03</rscale>
<asrwt>0</asrwt>
<pdfrwt beam="1">  1       21 0.23613042E-02 0.12500000E+03</pdfrwt>
<pdfrwt beam="2">  1       21 0.39154473E-01 0.12500000E+03</pdfrwt>
<totfact> 0.58057831E+06</totfact>
</mgrwt>
</event>
<event>
 3    1  0.1602107E-001  0.1250000E+03  0.7546771E-02  0.1235069E+00
         21   -1    0    0  502  501  0.00000000000E+00  0.00000000000E+00  0.22480732152E+02  0.22480732152E+02  0.00000000000E+00 0. -1.
         21   -1    0    0  501  502 -0.00000000000E+00 -0.00000000000E+00 -0.17375991020E+03  0.17375991020E+03  0.00000000000E+00 0. -1.
         25    1    1    2    0    0  0.00000000000E+00  0.00000000000E+00 -0.15127917805E+03  0.19624064236E+03  0.12500000000E+03 0.  0.
<mgrwt>
<rscale>  0 0.12500000E+03</rscale>
<asrwt>0</asrwt>
<pdfrwt beam="1">  1       21 0.34585743E-02 0.12500000E+03</pdfrwt>
<pdfrwt beam="2">  1       21 0.26732293E-01 0.12500000E+03</pdfrwt>
<totfact> 0.65335494E+06</totfact>
</mgrwt>
</event>
<event>
 3    1  0.1602107E-001  0.1250000E+03  0.7546771E-02  0.1235069E+00
         21   -1    0    0  502  501  0.00000000000E+00  0.00000000000E+00  0.16545633436E+03  0.16545633436E+03  0.00000000000E+00 0.  1.
         21   -1    0    0  501  502 -0.00000000000E+00 -0.00000000000E+00 -0.23608948036E+02  0.23608948036E+02  0.00000000000E+00 0.  1.
         25    1    1    2    0    0  0.00000000000E+00  0.00000000000E+00  0.14184738632E+03  0.18906528239E+03  0.12500000000E+03 0.  0.
<mgrwt>
<rscale>  0 0.12500000E+03</rscale>
<asrwt>0</asrwt>
<pdfrwt beam="1">  1       21 0.25454820E-01 0.12500000E+03</pdfrwt>
<pdfrwt beam="2">  1       21 0.36321460E-02 0.12500000E+03</pdfrwt>
<totfact> 0.66126500E+06</totfact>
</mgrwt>
</event>
<event>
 3    1  0.1602107E-001  0.1250000E+03  0.7546771E-02  0.1235069E+00
         21   -1    0    0  502  501  0.00000000000E+00  0.00000000000E+00  0.75452114874E+02  0.75452114874E+02  0.00000000000E+00 0.  1.
         21   -1    0    0  501  502 -0.00000000000E+00 -0.00000000000E+00 -0.51771245995E+02  0.51771245995E+02  0.00000000000E+00 0.  1.
         25    1    1    2    0    0  0.00000000000E+00  0.00000000000E+00  0.23680868879E+02  0.12722336087E+03  0.12500000000E+03 0.  0.
<mgrwt>
<rscale>  0 0.12500000E+03</rscale>
<asrwt>0</asrwt>
<pdfrwt beam="1">  1       21 0.11608018E-01 0.12500000E+03</pdfrwt>
<pdfrwt beam="2">  1       21 0.79648070E-02 0.12500000E+03</pdfrwt>
<totfact> 0.73738760E+06</totfact>
</mgrwt>
</event>
<event>
 3    1  0.1602107E-001  0.1250000E+03  0.7546771E-02  0.1235069E+00
         21   -1    0    0  502  501  0.00000000000E+00  0.00000000000E+00  0.42406932280E+02  0.42406932280E+02  0.00000000000E+00 0. -1.
         21   -1    0    0  501  502 -0.00000000000E+00 -0.00000000000E+00 -0.92113477442E+02  0.92113477442E+02  0.00000000000E+00 0. -1.
         25    1    1    2    0    0  0.00000000000E+00  0.00000000000E+00 -0.49706545162E+02  0.13452040972E+03  0.12500000000E+03 0.  0.
<mgrwt>
<rscale>  0 0.12500000E+03</rscale>
<asrwt>0</asrwt>
<pdfrwt beam="1">  1       21 0.65241434E-02 0.12500000E+03</pdfrwt>
<pdfrwt beam="2">  1       21 0.14171304E-01 0.12500000E+03</pdfrwt>
<totfact> 0.72760035E+06</totfact>
</mgrwt>
</event>
<event>
 3    1  0.1602107E-001  0.1250000E+03  0.7546771E-02  0.1235069E+00
         21   -1    0    0  502  501  0.00000000000E+00  0.00000000000E+00  0.55539689903E+02  0.55539689903E+02  0.00000000000E+00 0.  1.
         21   -1    0    0  501  502 -0.00000000000E+00 -0.00000000000E+00 -0.70332585702E+02  0.70332585702E+02  0.00000000000E+00 0.  1.
         25    1    1    2    0    0  0.00000000000E+00  0.00000000000E+00 -0.14792895799E+02  0.12587227561E+03  0.12500000000E+03 0.  0.
<mgrwt>
<rscale>  0 0.12500000E+03</rscale>
<asrwt>0</asrwt>
<pdfrwt beam="1">  1       21 0.85445676E-02 0.12500000E+03</pdfrwt>
<pdfrwt beam="2">  1       21 0.10820398E-01 0.12500000E+03</pdfrwt>
<totfact> 0.73923672E+06</totfact>
</mgrwt>
</event>
<event>
 3    1  0.1602107E-001  0.1250000E+03  0.7546771E-02  0.1235069E+00
         21   -1    0    0  502  501  0.00000000000E+00  0.00000000000E+00  0.27807656201E+03  0.27807656201E+03  0.00000000000E+00 0. -1.
         21   -1    0    0  501  502 -0.00000000000E+00 -0.00000000000E+00 -0.14047390301E+02  0.14047390301E+02  0.00000000000E+00 0. -1.
         25    1    1    2    0    0  0.00000000000E+00  0.00000000000E+00  0.26402917171E+03  0.29212395231E+03  0.12500000000E+03 0.  0.
<mgrwt>
<rscale>  0 0.12500000E+03</rscale>
<asrwt>0</asrwt>
<pdfrwt beam="1">  1       21 0.42781006E-01 0.12500000E+03</pdfrwt>
<pdfrwt beam="2">  1       21 0.21611372E-02 0.12500000E+03</pdfrwt>
<totfact> 0.56117123E+06</totfact>
</mgrwt>
</event>
<event>
 3    1  0.1602107E-001  0.1250000E+03  0.7546771E-02  0.1235069E+00
         21   -1    0    0  502  501  0.00000000000E+00  0.00000000000E+00  0.50492609767E+02  0.50492609767E+02  0.00000000000E+00 0.  1.
         21   -1    0    0  501  502 -0.00000000000E+00 -0.00000000000E+00 -0.77362806518E+02  0.77362806518E+02  0.00000000000E+00 0.  1.
         25    1    1    2    0    0  0.00000000000E+00  0.00000000000E+00 -0.26870196750E+02  0.12785541628E+03  0.12500000000E+03 0.  0.
<mgrwt>
<rscale>  0 0.12500000E+03</rscale>
<asrwt>0</asrwt>
<pdfrwt beam="1">  1       21 0.77680938E-02 0.12500000E+03</pdfrwt>
<pdfrwt beam="2">  1       21 0.11901970E-01 0.12500000E+03</pdfrwt>
<totfact> 0.73653100E+06</totfact>
</mgrwt>
</event>
<event>
 3    1  0.1602107E-001  0.1250000E+03  0.7546771E-02  0.1235069E+00
         21   -1    0    0  502  501  0.00000000000E+00  0.00000000000E+00  0.13732115660E+02  0.13732115660E+02  0.00000000000E+00 0. -1.
         21   -1    0    0  501  502 -0.00000000000E+00 -0.00000000000E+00 -0.28446090149E+03  0.28446090149E+03  0.00000000000E+00 0. -1.
         25    1    1    2    0    0  0.00000000000E+00  0.00000000000E+00 -0.27072878583E+03  0.29819301715E+03  0.12500000000E+03 0.  0.
<mgrwt>
<rscale>  0 0.12500000E+03</rscale>
<asrwt>0</asrwt>
<pdfrwt beam="1">  1       21 0.21126334E-02 0.12500000E+03</pdfrwt>
<pdfrwt beam="2">  1       21 0.43763212E-01 0.12500000E+03</pdfrwt>
<totfact> 0.55606678E+06</totfact>
</mgrwt>
</event>
<event>
 3    1  0.1602107E-001  0.1250000E+03  0.7546771E-02  0.1235069E+00
         21   -1    0    0  502  501  0.00000000000E+00  0.00000000000E+00  0.28224760403E+03  0.28224760403E+03  0.00000000000E+00 0. -1.
         21   -1    0    0  501  502 -0.00000000000E+00 -0.00000000000E+00 -0.13839798617E+02  0.13839798617E+02  0.00000000000E+00 0. -1.
         25    1    1    2    0    0  0.00000000000E+00  0.00000000000E+00  0.26840780542E+03  0.29608740265E+03  0.12500000000E+03 0.  0.
<mgrwt>
<rscale>  0 0.12500000E+03</rscale>
<asrwt>0</asrwt>
<pdfrwt beam="1">  1       21 0.43422704E-01 0.12500000E+03</pdfrwt>
<pdfrwt beam="2">  1       21 0.21292000E-02 0.12500000E+03</pdfrwt>
<totfact> 0.55782903E+06</totfact>
</mgrwt>
</event>
<event>
 3    1  0.1602107E-001  0.1250000E+03  0.7546771E-02  0.1235069E+00
         21   -1    0    0  502  501  0.00000000000E+00  0.00000000000E+00  0.84086066805E+02  0.84086066805E+02  0.00000000000E+00 0.  1.
         21   -1    0    0  501  502 -0.00000000000E+00 -0.00000000000E+00 -0.46455377786E+02  0.46455377786E+02  0.00000000000E+00 0.  1.
         25    1    1    2    0    0  0.00000000000E+00  0.00000000000E+00  0.37630689019E+02  0.13054144459E+03  0.12500000000E+03 0.  0.
<mgrwt>
<rscale>  0 0.12500000E+03</rscale>
<asrwt>0</asrwt>
<pdfrwt beam="1">  1       21 0.12936318E-01 0.12500000E+03</pdfrwt>
<pdfrwt beam="2">  1       21 0.71469812E-02 0.12500000E+03</pdfrwt>
<totfact> 0.73292534E+06</totfact>
</mgrwt>
</event>
<event>
 3    1  0.1602107E-001  0.1250000E+03  0.7546771E-02  0.1235069E+00
         21   -1    0    0  502  501  0.00000000000E+00  0.00000000000E+00  0.49371734322E+01  0.49371734322E+01  0.00000000000E+00 0.  1.
         21   -1    0    0  501  502 -0.00000000000E+00 -0.00000000000E+00 -0.79119157016E+03  0.79119157016E+03  0.00000000000E+00 0.  1.
         25    1    1    2    0    0  0.00000000000E+00  0.00000000000E+00 -0.78625439673E+03  0.79612874359E+03  0.12500000000E+03 0.  0.
<mgrwt>
<rscale>  0 0.12500000E+03</rscale>
<asrwt>0</asrwt>
<pdfrwt beam="1">  1       21 0.75956591E-03 0.12500000E+03</pdfrwt>
<pdfrwt beam="2">  1       21 0.12172166E+00 0.12500000E+03</pdfrwt>
<totfact> 0.29491510E+06</totfact>
</mgrwt>
</event>
<event>
 3    1  0.1602107E-001  0.1250000E+03  0.7546771E-02  0.1235069E+00
         21   -1    0    0  502  501  0.00000000000E+00  0.00000000000E+00  0.72878228400E+03  0.72878228400E+03  0.00000000000E+00 0. -1.
         21   -1    0    0  501  502 -0.00000000000E+00 -0.00000000000E+00 -0.53599683825E+01  0.53599683825E+01  0.00000000000E+00 0. -1.
         25    1    1    2    0    0  0.00000000000E+00  0.00000000000E+00  0.72342231562E+03  0.73414225239E+03  0.12500000000E+03 0.  0.
<mgrwt>
<rscale>  0 0.12500000E+03</rscale>
<asrwt>0</asrwt>
<pdfrwt beam="1">  1       21 0.11212027E+00 0.12500000E+03</pdfrwt>
<pdfrwt beam="2">  1       21 0.82461110E-03 0.12500000E+03</pdfrwt>
<totfact> 0.31634641E+06</totfact>
</mgrwt>
</event>
<event>
 3    1  0.1602107E-001  0.1250000E+03  0.7546771E-02  0.1235069E+00
         21   -1    0    0  502  501  0.00000000000E+00  0.00000000000E+00  0.64062611533E+02  0.64062611533E+02  0.00000000000E+00 0.  1.
         21   -1    0    0  501  502 -0.00000000000E+00 -0.00000000000E+00 -0.60975503597E+02  0.60975503597E+02  0.00000000000E+00 0.  1.
         25    1    1    2    0    0  0.00000000000E+00  0.00000000000E+00  0.30871079361E+01  0.12503811513E+03  0.12500000000E+03 0.  0.
<mgrwt>
<rscale>  0 0.12500000E+03</rscale>
<asrwt>0</asrwt>
<pdfrwt beam="1">  1       21 0.98557864E-02 0.12500000E+03</pdfrwt>
<pdfrwt beam="2">  1       21 0.93808467E-02 0.12500000E+03</pdfrwt>
<totfact> 0.74038433E+06</totfact>
</mgrwt>
</event>
<event>
 3    1  0.1602107E-001  0.1250000E+03  0.7546771E-02  0.1235069E+00
         21   -1    0    0  502  501  0.00000000000E+00  0.00000000000E+00  0.38137517823E+02  0.38137517823E+02  0.00000000000E+00 0. -1.
         21   -1    0    0  501  502 -0.00000000000E+00 -0.00000000000E+00 -0.10242538642E+03  0.10242538642E+03  0.00000000000E+00 0. -1.
         25    1    1    2    0    0  0.00000000000E+00  0.00000000000E+00 -0.64287868594E+02  0.14056290424E+03  0.12500000000E+03 0.  0.
<mgrwt>
<rscale>  0 0.12500000E+03</rscale>
<asrwt>0</asrwt>
<pdfrwt beam="1">  1       21 0.58673105E-02 0.12500000E+03</pdfrwt>
<pdfrwt beam="2">  1       21 0.15757752E-01 0.12500000E+03</pdfrwt>
<totfact> 0.71965907E+06</totfact>
</mgrwt>
</event>
<event>
 3    1  0.1602107E-001  0.1250000E+03  0.7546771E-02  0.1235069E+00
         21   -1    0    0  502  501  0.00000000000E+00  0.00000000000E+00  0.78083438672E+03  0.78083438672E+03  0.00000000000E+00 0.  1.
         21   -1    0    0  501  502 -0.00000000000E+00 -0.00000000000E+00 -0.50026613408E+01  0.50026613408E+01  0.00000000000E+00 0.  1.
         25    1    1    2    0    0  0.00000000000E+00  0.00000000000E+00  0.77583172538E+03  0.78583704806E+03  0.12500000000E+03 0.  0.
<mgrwt>
<rscale>  0 0.12500000E+03</rscale>
<asrwt>0</asrwt>
<pdfrwt beam="1">  1       21 0.12012827E+00 0.12500000E+03</pdfrwt>
<pdfrwt beam="2">  1       21 0.76964083E-03 0.12500000E+03</pdfrwt>
<totfact> 0.29837493E+06</totfact>
</mgrwt>
</event>
<event>
 3    1  0.1602107E-001  0.1250000E+03  0.7546771E-02  0.1235069E+00
         21   -1    0    0  502  501  0.00000000000E+00  0.00000000000E+00  0.11494380666E+03  0.11494380666E+03  0.00000000000E+00 0.  1.
         21   -1    0    0  501  502 -0.00000000000E+00 -0.00000000000E+00 -0.33983997168E+02  0.33983997168E+02  0.00000000000E+00 0.  1.
         25    1    1    2    0    0  0.00000000000E+00  0.00000000000E+00  0.80959809491E+02  0.14892780383E+03  0.12500000000E+03 0.  0.
<mgrwt>
<rscale>  0 0.12500000E+03</rscale>
<asrwt>0</asrwt>
<pdfrwt beam="1">  1       21 0.17683662E-01 0.12500000E+03</pdfrwt>
<pdfrwt beam="2">  1       21 0.52283073E-02 0.12500000E+03</pdfrwt>
<totfact> 0.70894149E+06</totfact>
</mgrwt>
</event>
<event>
 3    1  0.1602107E-001  0.1250000E+03  0.7546771E-02  0.1235069E+00
         21   -1    0    0  502  501  0.00000000000E+00  0.00000000000E+00  0.21890552623E+03  0.21890552623E+03  0.00000000000E+00 0.  1.
         21   -1    0    0  501  502 -0.00000000000E+00 -0.00000000000E+00 -0.17844455858E+02  0.17844455858E+02  0.00000000000E+00 0.  1.
         25    1    1    2    0    0  0.00000000000E+00  0.00000000000E+00  0.20106107038E+03  0.23674998209E+03  0.12500000000E+03 0.  0.
<mgrwt>
<rscale>  0 0.12500000E+03</rscale>
<asrwt>0</asrwt>
<pdfrwt beam="1">  1       21 0.33677771E-01 0.12500000E+03</pdfrwt>
<pdfrwt beam="2">  1       21 0.27453011E-02 0.12500000E+03</pdfrwt>
<totfact> 0.61148586E+06</totfact>
</mgrwt>
</event>
<event>
 3    1  0.1602107E-001  0.1250000E+03  0.7546771E-02  0.1235069E+00
         21   -1    0    0  502  501  0.00000000000E+00  0.00000000000E+00  0.20007173219E+01  0.20007173219E+01  0.00000000000E+00 0. -1.
         21   -1    0    0  501  502 -0.00000000000E+00 -0.00000000000E+00 -0.19524247415E+04  0.19524247415E+04  0.00000000000E+00 0. -1.
         25    1    1    2    0    0  0.00000000000E+00  0.00000000000E+00 -0.19504240241E+04  0.19544254588E+04  0.12500000000E+03 0.  0.
<mgrwt>
<rscale>  0 0.12500000E+03</rscale>
<asrwt>0</asrwt>
<pdfrwt beam="1">  1       21 0.30780271E-03 0.12500000E+03</pdfrwt>
<pdfrwt beam="2">  1       21 0.30037299E+00 0.12500000E+03</pdfrwt>
<totfact> 0.84010347E+05</totfact>
</mgrwt>
</event>
<event>
 3    1  0.1602107E-001  0.1250000E+03  0.7546771E-02  0.1235069E+00
         21   -1    0    0  502  501  0.00000000000E+00  0.00000000000E+00  0.50414495748E+01  0.50414495748E+01  0.00000000000E+00 0.  1.
         21   -1    0    0  501  502 -0.00000000000E+00 -0.00000000000E+00 -0.77482675212E+03  0.77482675212E+03  0.00000000000E+00 0.  1.
         25    1    1    2    0    0  0.00000000000E+00  0.00000000000E+00 -0.76978530255E+03  0.77986820170E+03  0.12500000000E+03 0.  0.
<mgrwt>
<rscale>  0 0.12500000E+03</rscale>
<asrwt>0</asrwt>
<pdfrwt beam="1">  1       21 0.77560780E-03 0.12500000E+03</pdfrwt>
<pdfrwt beam="2">  1       21 0.11920409E+00 0.12500000E+03</pdfrwt>
<totfact> 0.30040763E+06</totfact>
</mgrwt>
</event>
<event>
 3    1  0.1602107E-001  0.1250000E+03  0.7546771E-02  0.1235069E+00
         21   -1    0    0  502  501  0.00000000000E+00  0.00000000000E+00  0.88080786991E+02  0.88080786991E+02  0.00000000000E+00 0. -1.
         21   -1    0    0  501  502 -0.00000000000E+00 -0.00000000000E+00 -0.44348491123E+02  0.44348491123E+02  0.00000000000E+00 0. -1.
         25    1    1    2    0    0  0.00000000000E+00  0.00000000000E+00  0.43732295868E+02  0.13242927811E+03  0.12500000000E+03 0.  0.
<mgrwt>
<rscale>  0 0.12500000E+03</rscale>
<asrwt>0</asrwt>
<pdfrwt beam="1">  1       21 0.13550890E-01 0.12500000E+03</pdfrwt>
<pdfrwt beam="2">  1       21 0.68228448E-02 0.12500000E+03</pdfrwt>
<totfact> 0.73038705E+06</totfact>
</mgrwt>
</event>
<event>
 3    1  0.1602107E-001  0.1250000E+03  0.7546771E-02  0.1235069E+00
         21   -1    0    0  502  501  0.00000000000E+00  0.00000000000E+00  0.57076062153E+01  0.57076062153E+01  0.00000000000E+00 0.  1.
         21   -1    0    0  501  502 -0.00000000000E+00 -0.00000000000E+00 -0.68439374629E+03  0.68439374629E+03  0.00000000000E+00 0.  1.
         25    1    1    2    0    0  0.00000000000E+00  0.00000000000E+00 -0.67868614007E+03  0.69010135250E+03  0.12500000000E+03 0.  0.
<mgrwt>
<rscale>  0 0.12500000E+03</rscale>
<asrwt>0</asrwt>
<pdfrwt beam="1">  1       21 0.87809327E-03 0.12500000E+03</pdfrwt>
<pdfrwt beam="2">  1       21 0.10529134E+00 0.12500000E+03</pdfrwt>
<totfact> 0.33295273E+06</totfact>
</mgrwt>
</event>
<event>
 3    1  0.1602107E-001  0.1250000E+03  0.7546771E-02  0.1235069E+00
         21   -1    0    0  502  501  0.00000000000E+00  0.00000000000E+00  0.42609088634E+02  0.42609088634E+02  0.00000000000E+00 0.  1.
         21   -1    0    0  501  502 -0.00000000000E+00 -0.00000000000E+00 -0.91676450383E+02  0.91676450383E+02  0.00000000000E+00 0.  1.
         25    1    1    2    0    0  0.00000000000E+00  0.00000000000E+00 -0.49067361749E+02  0.13428553902E+03  0.12500000000E+03 0.  0.
<mgrwt>
<rscale>  0 0.12500000E+03</rscale>
<asrwt>0</asrwt>
<pdfrwt beam="1">  1       21 0.65552445E-02 0.12500000E+03</pdfrwt>
<pdfrwt beam="2">  1       21 0.14104069E-01 0.12500000E+03</pdfrwt>
<totfact> 0.72791211E+06</totfact>
</mgrwt>
</event>
<event>
 3    1  0.1602107E-001  0.1250000E+03  0.7546771E-02  0.1235069E+00
         21   -1    0    0  502  501  0.00000000000E+00  0.00000000000E+00  0.14975601320E+03  0.14975601320E+03  0.00000000000E+00 0. -1.
         21   -1    0    0  501  502 -0.00000000000E+00 -0.00000000000E+00 -0.26084094498E+02  0.26084094498E+02  0.00000000000E+00 0. -1.
         25    1    1    2    0    0  0.00000000000E+00  0.00000000000E+00  0.12367191870E+03  0.17584010770E+03  0.12500000000E+03 0.  0.
<mgrwt>
<rscale>  0 0.12500000E+03</rscale>
<asrwt>0</asrwt>
<pdfrwt beam="1">  1       21 0.23039386E-01 0.12500000E+03</pdfrwt>
<pdfrwt beam="2">  1       21 0.40129377E-02 0.12500000E+03</pdfrwt>
<totfact> 0.67631980E+06</totfact>
</mgrwt>
</event>
<event>
 3    1  0.1602107E-001  0.1250000E+03  0.7546771E-02  0.1235069E+00
         21   -1    0    0  502  501  0.00000000000E+00  0.00000000000E+00  0.25681467665E+02  0.25681467665E+02  0.00000000000E+00 0. -1.
         21   -1    0    0  501  502 -0.00000000000E+00 -0.00000000000E+00 -0.15210384589E+03  0.15210384589E+03  0.00000000000E+00 0. -1.
         25    1    1    2    0    0  0.00000000000E+00  0.00000000000E+00 -0.12642237823E+03  0.17778531356E+03  0.12500000000E+03 0.  0.
<mgrwt>
<rscale>  0 0.12500000E+03</rscale>
<asrwt>0</asrwt>
<pdfrwt beam="1">  1       21 0.39509951E-02 0.12500000E+03</pdfrwt>
<pdfrwt beam="2">  1       21 0.23400591E-01 0.12500000E+03</pdfrwt>
<totfact> 0.67406511E+06</totfact>
</mgrwt>
</event>
<event>
 3    1  0.1602107E-001  0.1250000E+03  0.7546771E-02  0.1235069E+00
         21   -1    0    0  502  501  0.00000000000E+00  0.00000000000E+00  0.60376711731E+01  0.60376711731E+01  0.00000000000E+00 0. -1.
         21   -1    0    0  501  502 -0.00000000000E+00 -0.00000000000E+00 -0.64697958667E+03  0.64697958667E+03  0.00000000000E+00 0. -1.
         25    1    1    2    0    0  0.00000000000E+00  0.00000000000E+00 -0.64094191550E+03  0.65301725784E+03  0.12500000000E+03 0.  0.
<mgrwt>
<rscale>  0 0.12500000E+03</rscale>
<asrwt>0</asrwt>
<pdfrwt beam="1">  1       21 0.92887261E-03 0.12500000E+03</pdfrwt>
<pdfrwt beam="2">  1       21 0.99535308E-01 0.12500000E+03</pdfrwt>
<totfact> 0.34799361E+06</totfact>
</mgrwt>
</event>
<event>
 3    1  0.1602107E-001  0.1250000E+03  0.7546771E-02  0.1235069E+00
         21   -1    0    0  502  501  0.00000000000E+00  0.00000000000E+00  0.16408189227E+04  0.16408189227E+04  0.00000000000E+00 0. -1.
         21   -1    0    0  501  502 -0.00000000000E+00 -0.00000000000E+00 -0.23806709845E+01  0.23806709845E+01  0.00000000000E+00 0. -1.
         25    1    1    2    0    0  0.00000000000E+00  0.00000000000E+00  0.16384382517E+04  0.16431995937E+04  0.12500000000E+03 0.  0.
<mgrwt>
<rscale>  0 0.12500000E+03</rscale>
<asrwt>0</asrwt>
<pdfrwt beam="1">  1       21 0.25243278E+00 0.12500000E+03</pdfrwt>
<pdfrwt beam="2">  1       21 0.36625838E-03 0.12500000E+03</pdfrwt>
<totfact> 0.11996887E+06</totfact>
</mgrwt>
</event>
<event>
 3    1  0.1602107E-001  0.1250000E+03  0.7546771E-02  0.1235069E+00
         21   -1    0    0  502  501  0.00000000000E+00  0.00000000000E+00  0.11798733778E+02  0.11798733778E+02  0.00000000000E+00 0. -1.
         21   -1    0    0  501  502 -0.00000000000E+00 -0.00000000000E+00 -0.33107366211E+03  0.33107366211E+03  0.00000000000E+00 0. -1.
         25    1    1    2    0    0  0.00000000000E+00  0.00000000000E+00 -0.31927492833E+03  0.34287239588E+03  0.12500000000E+03 0.  0.
<mgrwt>
<rscale>  0 0.12500000E+03</rscale>
<asrwt>0</asrwt>
<pdfrwt beam="1">  1       21 0.18151902E-02 0.12500000E+03</pdfrwt>
<pdfrwt beam="2">  1       21 0.50934399E-01 0.12500000E+03</pdfrwt>
<totfact> 0.52069176E+06</totfact>
</mgrwt>
</event>
<event>
 3    1  0.1602107E-001  0.1250000E+03  0.7546771E-02  0.1235069E+00
         21   -1    0    0  502  501  0.00000000000E+00  0.00000000000E+00  0.55871568626E+03  0.55871568626E+03  0.00000000000E+00 0. -1.
         21   -1    0    0  501  502 -0.00000000000E+00 -0.00000000000E+00 -0.69914808123E+01  0.69914808123E+01  0.00000000000E+00 0. -1.
         25    1    1    2    0    0  0.00000000000E+00  0.00000000000E+00  0.55172420545E+03  0.56570716707E+03  0.12500000000E+03 0.  0.
<mgrwt>
<rscale>  0 0.12500000E+03</rscale>
<asrwt>0</asrwt>
<pdfrwt beam="1">  1       21 0.85956224E-01 0.12500000E+03</pdfrwt>
<pdfrwt beam="2">  1       21 0.10756129E-02 0.12500000E+03</pdfrwt>
<totfact> 0.38690884E+06</totfact>
</mgrwt>
</event>
<event>
 3    1  0.1602107E-001  0.1250000E+03  0.7546771E-02  0.1235069E+00
         21   -1    0    0  502  501  0.00000000000E+00  0.00000000000E+00  0.50974497548E+01  0.50974497548E+01  0.00000000000E+00 0. -1.
         21   -1    0    0  501  502 -0.00000000000E+00 -0.00000000000E+00 -0.76631456668E+03  0.76631456668E+03  0.00000000000E+00 0. -1.
         25    1    1    2    0    0  0.00000000000E+00  0.00000000000E+00 -0.76121711693E+03  0.77141201644E+03  0.12500000000E+03 0.  0.
<mgrwt>
<rscale>  0 0.12500000E+03</rscale>
<asrwt>0</asrwt>
<pdfrwt beam="1">  1       21 0.78422334E-03 0.12500000E+03</pdfrwt>
<pdfrwt beam="2">  1       21 0.11789450E+00 0.12500000E+03</pdfrwt>
<totfact> 0.30329674E+06</totfact>
</mgrwt>
</event>
<event>
 3    1  0.1602107E-001  0.1250000E+03  0.7546771E-02  0.1235069E+00
         21   -1    0    0  502  501  0.00000000000E+00  0.00000000000E+00  0.46240289116E+02  0.46240289116E+02  0.00000000000E+00 0.  1.
         21   -1    0    0  501  502 -0.00000000000E+00 -0.00000000000E+00 -0.84477196719E+02  0.84477196719E+02  0.00000000000E+00 0.  1.
         25    1    1    2    0    0  0.00000000000E+00  0.00000000000E+00 -0.38236907603E+02  0.13071748583E+03  0.12500000000E+03 0.  0.
<mgrwt>
<rscale>  0 0.12500000E+03</rscale>
<asrwt>0</asrwt>
<pdfrwt beam="1">  1       21 0.71138907E-02 0.12500000E+03</pdfrwt>
<pdfrwt beam="2">  1       21 0.12996492E-01 0.12500000E+03</pdfrwt>
<totfact> 0.73268768E+06</totfact>
</mgrwt>
</event>
<event>
 3    1  0.1602107E-001  0.1250000E+03  0.7546771E-02  0.1235069E+00
         21   -1    0    0  502  501  0.00000000000E+00  0.00000000000E+00  0.69632582686E+02  0.69632582686E+02  0.00000000000E+00 0. -1.
         21   -1    0    0  501  502 -0.00000000000E+00 -0.00000000000E+00 -0.56098019768E+02  0.56098019768E+02  0.00000000000E+00 0. -1.
         25    1    1    2    0    0  0.00000000000E+00  0.00000000000E+00  0.13534562918E+02  0.12573060245E+03  0.12500000000E+03 0.  0.
<mgrwt>
<rscale>  0 0.12500000E+03</rscale>
<asrwt>0</asrwt>
<pdfrwt beam="1">  1       21 0.10712705E-01 0.12500000E+03</pdfrwt>
<pdfrwt beam="2">  1       21 0.86304645E-02 0.12500000E+03</pdfrwt>
<totfact> 0.73943290E+06</totfact>
</mgrwt>
</event>
<event>
 3    1  0.1602107E-001  0.1250000E+03  0.7546771E-02  0.1235069E+00
         21   -1    0    0  502  501  0.00000000000E+00  0.00000000000E+00  0.44198061261E+01  0.44198061261E+01  0.00000000000E+00 0. -1.
         21   -1    0    0  501  502 -0.00000000000E+00 -0.00000000000E+00 -0.88380573458E+03  0.88380573458E+03  0.00000000000E+00 0. -1.
         25    1    1    2    0    0  0.00000000000E+00  0.00000000000E+00 -0.87938592845E+03  0.88822554070E+03  0.12500000000E+03 0.  0.
<mgrwt>
<rscale>  0 0.12500000E+03</rscale>
<asrwt>0</asrwt>
<pdfrwt beam="1">  1       21 0.67996997E-03 0.12500000E+03</pdfrwt>
<pdfrwt beam="2">  1       21 0.13597015E+00 0.12500000E+03</pdfrwt>
<totfact> 0.26638290E+06</totfact>
</mgrwt>
</event>
<event>
 3    1  0.1602107E-001  0.1250000E+03  0.7546771E-02  0.1235069E+00
         21   -1    0    0  502  501  0.00000000000E+00  0.00000000000E+00  0.46734004832E+03  0.46734004832E+03  0.00000000000E+00 0.  1.
         21   -1    0    0  501  502 -0.00000000000E+00 -0.00000000000E+00 -0.83584747638E+01  0.83584747638E+01  0.00000000000E+00 0.  1.
         25    1    1    2    0    0  0.00000000000E+00  0.00000000000E+00  0.45898157355E+03  0.47569852308E+03  0.12500000000E+03 0.  0.
<mgrwt>
<rscale>  0 0.12500000E+03</rscale>
<asrwt>0</asrwt>
<pdfrwt beam="1">  1       21 0.71898448E-01 0.12500000E+03</pdfrwt>
<pdfrwt beam="2">  1       21 0.12859196E-02 0.12500000E+03</pdfrwt>
<totfact> 0.43393425E+06</totfact>
</mgrwt>
</event>
<event>
 3    1  0.1602107E-001  0.1250000E+03  0.7546771E-02  0.1235069E+00
         21   -1    0    0  502  501  0.00000000000E+00  0.00000000000E+00  0.14702060329E+03  0.14702060329E+03  0.00000000000E+00 0.  1.
         21   -1    0    0  501  502 -0.00000000000E+00 -0.00000000000E+00 -0.26569405326E+02  0.26569405326E+02  0.00000000000E+00 0.  1.
         25    1    1    2    0    0  0.00000000000E+00  0.00000000000E+00  0.12045119796E+03  0.17359000861E+03  0.12500000000E+03 0.  0.
<mgrwt>
<rscale>  0 0.12500000E+03</rscale>
<asrwt>0</asrwt>
<pdfrwt beam="1">  1       21 0.22618554E-01 0.12500000E+03</pdfrwt>
<pdfrwt beam="2">  1       21 0.40876009E-02 0.12500000E+03</pdfrwt>
<totfact> 0.67894588E+06</totfact>
</mgrwt>
</event>
<event>
 3    1  0.1602107E-001  0.1250000E+03  0.7546771E-02  0.1235069E+00
         21   -1    0    0  502  501  0.00000000000E+00  0.00000000000E+00  0.15110635346E+02  0.15110635346E+02  0.00000000000E+00 0.  1.
         21   -1    0    0  501  502 -0.00000000000E+00 -0.00000000000E+00 -0.25850997728E+03  0.25850997728E+03  0.00000000000E+00 0.  1.
         25    1    1    2    0    0  0.00000000000E+00  0.00000000000E+00 -0.24339934194E+03  0.27362061263E+03  0.12500000000E+03 0.  0.
<mgrwt>
<rscale>  0 0.12500000E+03</rscale>
<asrwt>0</asrwt>
<pdfrwt beam="1">  1       21 0.23247134E-02 0.12500000E+03</pdfrwt>
<pdfrwt beam="2">  1       21 0.39770761E-01 0.12500000E+03</pdfrwt>
<totfact> 0.57722214E+06</totfact>
</mgrwt>
</event>
<event>
 3    1  0.1602107E-001  0.1250000E+03  0.7546771E-02  0.1235069E+00
         21   -1    0    0  502  501  0.00000000000E+00  0.00000000000E+00  0.13384187224E+03  0.13384187224E+03  0.00000000000E+00 0.  1.
         21   -1    0    0  501  502 -0.00000000000E+00 -0.00000000000E+00 -0.29185560055E+02  0.29185560055E+02  0.00000000000E+00 0.  1.
         25    1    1    2    0    0  0.00000000000E+00  0.00000000000E+00  0.10465631218E+03  0.16302743229E+03  0.12500000000E+03 0.  0.
<mgrwt>
<rscale>  0 0.12500000E+03</rscale>
<asrwt>0</asrwt>
<pdfrwt beam="1">  1       21 0.20591057E-01 0.12500000E+03</pdfrwt>
<pdfrwt beam="2">  1       21 0.44900863E-02 0.12500000E+03</pdfrwt>
<totfact> 0.69151456E+06</totfact>
</mgrwt>
</event>
<event>
 3    1  0.1602107E-001  0.1250000E+03  0.7546771E-02  0.1235069E+00
         21   -1    0    0  502  501  0.00000000000E+00  0.00000000000E+00  0.11868519584E+03  0.11868519584E+03  0.00000000000E+00 0. -1.
         21   -1    0    0  501  502 -0.00000000000E+00 -0.00000000000E+00 -0.32912697934E+02  0.32912697934E+02  0.00000000000E+00 0. -1.
         25    1    1    2    0    0  0.00000000000E+00  0.00000000000E+00  0.85772497907E+02  0.15159789378E+03  0.12500000000E+03 0.  0.
<mgrwt>
<rscale>  0 0.12500000E+03</rscale>
<asrwt>0</asrwt>
<pdfrwt beam="1">  1       21 0.18259261E-01 0.12500000E+03</pdfrwt>
<pdfrwt beam="2">  1       21 0.50634921E-02 0.12500000E+03</pdfrwt>
<totfact> 0.70559049E+06</totfact>
</mgrwt>
</event>
<event>
 3    1  0.1602107E-001  0.1250000E+03  0.7546771E-02  0.1235069E+00
         21   -1    0    0  502  501  0.00000000000E+00  0.00000000000E+00  0.11697952764E+02  0.11697952764E+02  0.00000000000E+00 0. -1.
         21   -1    0    0  501  502 -0.00000000000E+00 -0.00000000000E+00 -0.33392595088E+03  0.33392595088E+03  0.00000000000E+00 0. -1.
         25    1    1    2    0    0  0.00000000000E+00  0.00000000000E+00 -0.32222799811E+03  0.34562390364E+03  0.12500000000E+03 0.  0.
<mgrwt>
<rscale>  0 0.12500000E+03</rscale>
<asrwt>0</asrwt>
<pdfrwt beam="1">  1       21 0.17996850E-02 0.12500000E+03</pdfrwt>
<pdfrwt beam="2">  1       21 0.51373223E-01 0.12500000E+03</pdfrwt>
<totfact> 0.51863251E+06</totfact>
</mgrwt>
</event>
<event>
 3    1  0.1602107E-001  0.1250000E+03  0.7546771E-02  0.1235069E+00
         21   -1    0    0  502  501  0.00000000000E+00  0.00000000000E+00  0.50522502164E+03  0.50522502164E+03  0.00000000000E+00 0. -1.
         21   -1    0    0  501  502 -0.00000000000E+00 -0.00000000000E+00 -0.77317033652E+01  0.77317033652E+01  0.00000000000E+00 0. -1.
         25    1    1    2    0    0  0.00000000000E+00  0.00000000000E+00  0.49749331828E+03  0.51295672501E+03  0.12500000000E+03 0.  0.
<mgrwt>
<rscale>  0 0.12500000E+03</rscale>
<asrwt>0</asrwt>
<pdfrwt beam="1">  1       21 0.77726901E-01 0.12500000E+03</pdfrwt>
<pdfrwt beam="2">  1       21 0.11894932E-02 0.12500000E+03</pdfrwt>
<totfact> 0.41350013E+06</totfact>
</mgrwt>
</event>
<event>
 3    1  0.1602107E-001  0.1250000E+03  0.7546771E-02  0.1235069E+00
         21   -1    0    0  502  501  0.00000000000E+00  0.00000000000E+00  0.32474911017E+01  0.32474911017E+01  0.00000000000E+00 0. -1.
         21   -1    0    0  501  502 -0.00000000000E+00 -0.00000000000E+00 -0.12028516407E+04  0.12028516407E+04  0.00000000000E+00 0. -1.
         25    1    1    2    0    0  0.00000000000E+00  0.00000000000E+00 -0.11996041496E+04  0.12060991318E+04  0.12500000000E+03 0.  0.
<mgrwt>
<rscale>  0 0.12500000E+03</rscale>
<asrwt>0</asrwt>
<pdfrwt beam="1">  1       21 0.49961451E-03 0.12500000E+03</pdfrwt>
<pdfrwt beam="2">  1       21 0.18505391E+00 0.12500000E+03</pdfrwt>
<totfact> 0.19022266E+06</totfact>
</mgrwt>
</event>
<event>
 3    1  0.1602107E-001  0.1250000E+03  0.7546771E-02  0.1235069E+00
         21   -1    0    0  502  501  0.00000000000E+00  0.00000000000E+00  0.39140549779E+01  0.39140549779E+01  0.00000000000E+00 0.  1.
         21   -1    0    0  501  502 -0.00000000000E+00 -0.00000000000E+00 -0.99800591000E+03  0.99800591000E+03  0.00000000000E+00 0.  1.
         25    1    1    2    0    0  0.00000000000E+00  0.00000000000E+00 -0.99409185502E+03  0.10019199650E+04  0.12500000000E+03 0.  0.
<mgrwt>
<rscale>  0 0.12500000E+03</rscale>
<asrwt>0</asrwt>
<pdfrwt beam="1">  1       21 0.60216146E-03 0.12500000E+03</pdfrwt>
<pdfrwt beam="2">  1       21 0.15353959E+00 0.12500000E+03</pdfrwt>
<totfact> 0.23570764E+06</totfact>
</mgrwt>
</event>
<event>
 3    1  0.1602107E-001  0.1250000E+03  0.7546771E-02  0.1235069E+00
         21   -1    0    0  502  501  0.00000000000E+00  0.00000000000E+00  0.78670584144E+02  0.78670584144E+02  0.00000000000E+00 0.  1.
         21   -1    0    0  501  502 -0.00000000000E+00 -0.00000000000E+00 -0.49653247685E+02  0.49653247685E+02  0.00000000000E+00 0.  1.
         25    1    1    2    0    0  0.00000000000E+00  0.00000000000E+00  0.29017336459E+02  0.12832383183E+03  0.12500000000E+03 0.  0.
<mgrwt>
<rscale>  0 0.12500000E+03</rscale>
<asrwt>0</asrwt>
<pdfrwt beam="1">  1       21 0.12103167E-01 0.12500000E+03</pdfrwt>
<pdfrwt beam="2">  1       21 0.76389612E-02 0.12500000E+03</pdfrwt>
<totfact> 0.73589859E+06</totfact>
</mgrwt>
</event>
<event>
 3    1  0.1602107E-001  0.1250000E+03  0.7546771E-02  0.1235069E+00
         21   -1    0    0  502  501  0.00000000000E+00  0.00000000000E+00  0.73730149791E+01  0.73730149791E+01  0.00000000000E+00 0.  1.
         21   -1    0    0  501  502 -0.00000000000E+00 -0.00000000000E+00 -0.52980361644E+03  0.52980361644E+03  0.00000000000E+00 0.  1.
         25    1    1    2    0    0  0.00000000000E+00  0.00000000000E+00 -0.52243060146E+03  0.53717663142E+03  0.12500000000E+03 0.  0.
<mgrwt>
<rscale>  0 0.12500000E+03</rscale>
<asrwt>0</asrwt>
<pdfrwt beam="1">  1       21 0.11343103E-02 0.12500000E+03</pdfrwt>
<pdfrwt beam="2">  1       21 0.81508227E-01 0.12500000E+03</pdfrwt>
<totfact> 0.40097104E+06</totfact>
</mgrwt>
</event>
<event>
 3    1  0.1602107E-001  0.1250000E+03  0.7546771E-02  0.1235069E+00
         21   -1    0    0  502  501  0.00000000000E+00  0.00000000000E+00  0.79306910997E+01  0.79306910997E+01  0.00000000000E+00 0.  1.
         21   -1    0    0  501  502 -0.00000000000E+00 -0.00000000000E+00 -0.49254849935E+03  0.49254849935E+03  0.00000000000E+00 0.  1.
         25    1    1    2    0    0  0.00000000000E+00  0.00000000000E+00 -0.48461780825E+03  0.50047919045E+03  0.12500000000E+03 0.  0.
<mgrwt>
<rscale>  0 0.12500000E+03</rscale>
<asrwt>0</asrwt>
<pdfrwt beam="1">  1       21 0.12201064E-02 0.12500000E+03</pdfrwt>
<pdfrwt beam="2">  1       21 0.75776686E-01 0.12500000E+03</pdfrwt>
<totfact> 0.42018097E+06</totfact>
</mgrwt>
</event>
<event>
 3    1  0.1602107E-001  0.1250000E+03  0.7546771E-02  0.1235069E+00
         21   -1    0    0  502  501  0.00000000000E+00  0.00000000000E+00  0.57676580788E+03  0.57676580788E+03  0.00000000000E+00 0.  1.
         21   -1    0    0  501  502 -0.00000000000E+00 -0.00000000000E+00 -0.67726795635E+01  0.67726795635E+01  0.00000000000E+00 0.  1.
         25    1    1    2    0    0  0.00000000000E+00  0.00000000000E+00  0.56999312832E+03  0.58353848745E+03  0.12500000000E+03 0.  0.
<mgrwt>
<rscale>  0 0.12500000E+03</rscale>
<asrwt>0</asrwt>
<pdfrwt beam="1">  1       21 0.88733162E-01 0.12500000E+03</pdfrwt>
<pdfrwt beam="2">  1       21 0.10419512E-02 0.12500000E+03</pdfrwt>
<totfact> 0.37847834E+06</totfact>
</mgrwt>
</event>
<event>
 3    1  0.1602107E-001  0.1250000E+03  0.7546771E-02  0.1235069E+00
         21   -1    0    0  502  501  0.00000000000E+00  0.00000000000E+00  0.65362459552E+03  0.65362459552E+03  0.00000000000E+00 0.  1.
         21   -1    0    0  501  502 -0.00000000000E+00 -0.00000000000E+00 -0.59762897950E+01  0.59762897950E+01  0.00000000000E+00 0.  1.
         25    1    1    2    0    0  0.00000000000E+00  0.00000000000E+00  0.64764830573E+03  0.65960088532E+03  0.12500000000E+03 0.  0.
<mgrwt>
<rscale>  0 0.12500000E+03</rscale>
<asrwt>0</asrwt>
<pdfrwt beam="1">  1       21 0.10055757E+00 0.12500000E+03</pdfrwt>
<pdfrwt beam="2">  1       21 0.91942972E-03 0.12500000E+03</pdfrwt>
<totfact> 0.34526459E+06</totfact>
</mgrwt>
</event>
<event>
 3    1  0.1602107E-001  0.1250000E+03  0.7546771E-02  0.1235069E+00
         21   -1    0    0  502  501  0.00000000000E+00  0.00000000000E+00  0.52910302107E+02  0.52910302107E+02  0.00000000000E+00 0. -1.
         21   -1    0    0  501  502 -0.00000000000E+00 -0.00000000000E+00 -0.73827777284E+02  0.73827777284E+02  0.00000000000E+00 0. -1.
         25    1    1    2    0    0  0.00000000000E+00  0.00000000000E+00 -0.20917475177E+02  0.12673807939E+03  0.12500000000E+03 0.  0.
<mgrwt>
<rscale>  0 0.12500000E+03</rscale>
<asrwt>0</asrwt>
<pdfrwt beam="1">  1       21 0.81400465E-02 0.12500000E+03</pdfrwt>
<pdfrwt beam="2">  1       21 0.11358119E-01 0.12500000E+03</pdfrwt>
<totfact> 0.73804836E+06</totfact>
</mgrwt>
</event>
<event>
 3    1  0.1602107E-001  0.1250000E+03  0.7546771E-02  0.1235069E+00
         21   -1    0    0  502  501  0.00000000000E+00  0.00000000000E+00  0.67360169186E+02  0.67360169186E+02  0.00000000000E+00 0.  1.
         21   -1    0    0  501  502 -0.00000000000E+00 -0.00000000000E+00 -0.57990501616E+02  0.57990501616E+02  0.00000000000E+00 0.  1.
         25    1    1    2    0    0  0.00000000000E+00  0.00000000000E+00  0.93696675699E+01  0.12535067080E+03  0.12500000000E+03 0.  0.
<mgrwt>
<rscale>  0 0.12500000E+03</rscale>
<asrwt>0</asrwt>
<pdfrwt beam="1">  1       21 0.10363103E-01 0.12500000E+03</pdfrwt>
<pdfrwt beam="2">  1       21 0.89216156E-02 0.12500000E+03</pdfrwt>
<totfact> 0.73996232E+06</totfact>
</mgrwt>
</event>
<event>
 3    1  0.1602107E-001  0.1250000E+03  0.7546771E-02  0.1235069E+00
         21   -1    0    0  502  501  0.00000000000E+00  0.00000000000E+00  0.17527064868E+03  0.17527064868E+03  0.00000000000E+00 0.  1.
         21   -1    0    0  501  502 -0.00000000000E+00 -0.00000000000E+00 -0.22286960363E+02  0.22286960363E+02  0.00000000000E+00 0.  1.
         25    1    1    2    0    0  0.00000000000E+00  0.00000000000E+00  0.15298368832E+03  0.19755760904E+03  0.12500000000E+03 0.  0.
<mgrwt>
<rscale>  0 0.12500000E+03</rscale>
<asrwt>0</asrwt>
<pdfrwt beam="1">  1       21 0.26964714E-01 0.12500000E+03</pdfrwt>
<pdfrwt beam="2">  1       21 0.34287633E-02 0.12500000E+03</pdfrwt>
<totfact> 0.65192182E+06</totfact>
</mgrwt>
</event>
<event>
 3    1  0.1602107E-001  0.1250000E+03  0.7546771E-02  0.1235069E+00
         21   -1    0    0  502  501  0.00000000000E+00  0.00000000000E+00  0.23142957342E+03  0.23142957342E+03  0.00000000000E+00 0. -1.
         21   -1    0    0  501  502 -0.00000000000E+00 -0.00000000000E+00 -0.16878784946E+02  0.16878784946E+02  0.00000000000E+00 0. -1.
         25    1    1    2    0    0  0.00000000000E+00  0.00000000000E+00  0.21455078848E+03  0.24830835837E+03  0.12500000000E+03 0.  0.
<mgrwt>
<rscale>  0 0.12500000E+03</rscale>
<asrwt>0</asrwt>
<pdfrwt beam="1">  1       21 0.35604548E-01 0.12500000E+03</pdfrwt>
<pdfrwt beam="2">  1       21 0.25967363E-02 0.12500000E+03</pdfrwt>
<totfact> 0.60037822E+06</totfact>
</mgrwt>
</event>
<event>
 3    1  0.1602107E-001  0.1250000E+03  0.7546771E-02  0.1235069E+00
         21   -1    0    0  502  501  0.00000000000E+00  0.00000000000E+00  0.22606016904E+02  0.22606016904E+02  0.00000000000E+00 0.  1.
         21   -1    0    0  501  502 -0.00000000000E+00 -0.00000000000E+00 -0.17279691582E+03  0.17279691582E+03  0.00000000000E+00 0.  1.
         25    1    1    2    0    0  0.00000000000E+00  0.00000000000E+00 -0.15019089891E+03  0.19540293272E+03  0.12500000000E+03 0.  0.
<mgrwt>
<rscale>  0 0.12500000E+03</rscale>
<asrwt>0</asrwt>
<pdfrwt beam="1">  1       21 0.34778486E-02 0.12500000E+03</pdfrwt>
<pdfrwt beam="2">  1       21 0.26584142E-01 0.12500000E+03</pdfrwt>
<totfact> 0.65426949E+06</totfact>
</mgrwt>
</event>
<event>
 3    1  0.1602107E-001  0.1250000E+03  0.7546771E-02  0.1235069E+00
         21   -1    0    0  502  501  0.00000000000E+00  0.00000000000E+00  0.83187745475E+02  0.83187745475E+02  0.00000000000E+00 0.  1.
         21   -1    0    0  501  502 -0.00000000000E+00 -0.00000000000E+00 -0.46957036492E+02  0.46957036492E+02  0.00000000000E+00 0.  1.
         25    1    1    2    0    0  0.00000000000E+00  0.00000000000E+00  0.36230708983E+02  0.13014478197E+03  0.12500000000E+03 0.  0.
<mgrwt>
<rscale>  0 0.12500000E+03</rscale>
<asrwt>0</asrwt>
<pdfrwt beam="1">  1       21 0.12798115E-01 0.12500000E+03</pdfrwt>
<pdfrwt beam="2">  1       21 0.72241595E-02 0.12500000E+03</pdfrwt>
<totfact> 0.73345571E+06</totfact>
</mgrwt>
</event>
<event>
 3    1  0.1602107E-001  0.1250000E+03  0.7546771E-02  0.1235069E+00
         21   -1    0    0  502  501  0.00000000000E+00  0.00000000000E+00  0.37262053629E+03  0.37262053629E+03  0.00000000000E+00 0. -1.
         21   -1    0    0  501  502 -0.00000000000E+00 -0.00000000000E+00 -0.10483184955E+02  0.10483184955E+02  0.00000000000E+00 0. -1.
         25    1    1    2    0    0  0.00000000000E+00  0.00000000000E+00  0.36213735133E+03  0.38310372124E+03  0.12500000000E+03 0.  0.
<mgrwt>
<rscale>  0 0.12500000E+03</rscale>
<asrwt>0</asrwt>
<pdfrwt beam="1">  1       21 0.57326226E-01 0.12500000E+03</pdfrwt>
<pdfrwt beam="2">  1       21 0.16127980E-02 0.12500000E+03</pdfrwt>
<totfact> 0.49182636E+06</totfact>
</mgrwt>
</event>
<event>
 3    1  0.1602107E-001  0.1250000E+03  0.7546771E-02  0.1235069E+00
         21   -1    0    0  502  501  0.00000000000E+00  0.00000000000E+00  0.24352265074E+02  0.24352265074E+02  0.00000000000E+00 0.  1.
         21   -1    0    0  501  502 -0.00000000000E+00 -0.00000000000E+00 -0.16040602334E+03  0.16040602334E+03  0.00000000000E+00 0.  1.
         25    1    1    2    0    0  0.00000000000E+00  0.00000000000E+00 -0.13605375827E+03  0.18475828842E+03  0.12500000000E+03 0.  0.
<mgrwt>
<rscale>  0 0.12500000E+03</rscale>
<asrwt>0</asrwt>
<pdfrwt beam="1">  1       21 0.37465024E-02 0.12500000E+03</pdfrwt>
<pdfrwt beam="2">  1       21 0.24677850E-01 0.12500000E+03</pdfrwt>
<totfact> 0.66609829E+06</totfact>
</mgrwt>
</event>
<event>
 3    1  0.1602107E-001  0.1250000E+03  0.7546771E-02  0.1235069E+00
         21   -1    0    0  502  501  0.00000000000E+00  0.00000000000E+00  0.26381858126E+02  0.26381858126E+02  0.00000000000E+00 0. -1.
         21   -1    0    0  501  502 -0.00000000000E+00 -0.00000000000E+00 -0.14806576479E+03  0.14806576479E+03  0.00000000000E+00 0. -1.
         25    1    1    2    0    0  0.00000000000E+00  0.00000000000E+00 -0.12168390666E+03  0.17444762292E+03  0.12500000000E+03 0.  0.
<mgrwt>
<rscale>  0 0.12500000E+03</rscale>
<asrwt>0</asrwt>
<pdfrwt beam="1">  1       21 0.40587474E-02 0.12500000E+03</pdfrwt>
<pdfrwt beam="2">  1       21 0.22779348E-01 0.12500000E+03</pdfrwt>
<totfact> 0.67794267E+06</totfact>
</mgrwt>
</event>
<event>
 3    1  0.1602107E-001  0.1250000E+03  0.7546771E-02  0.1235069E+00
         21   -1    0    0  502  501  0.00000000000E+00  0.00000000000E+00  0.41104272059E+03  0.41104272059E+03  0.00000000000E+00 0.  1.
         21   -1    0    0  501  502 -0.00000000000E+00 -0.00000000000E+00 -0.95032701086E+01  0.95032701086E+01  0.00000000000E+00 0.  1.
         25    1    1    2    0    0  0.00000000000E+00  0.00000000000E+00  0.40153945049E+03  0.42054599070E+03  0.12500000000E+03 0.  0.
<mgrwt>
<rscale>  0 0.12500000E+03</rscale>
<asrwt>0</asrwt>
<pdfrwt beam="1">  1       21 0.63237328E-01 0.12500000E+03</pdfrwt>
<pdfrwt beam="2">  1       21 0.14620419E-02 0.12500000E+03</pdfrwt>
<totfact> 0.46707767E+06</totfact>
</mgrwt>
</event>
<event>
 3    1  0.1602107E-001  0.1250000E+03  0.7546771E-02  0.1235069E+00
         21   -1    0    0  502  501  0.00000000000E+00  0.00000000000E+00  0.11457307561E+03  0.11457307561E+03  0.00000000000E+00 0. -1.
         21   -1    0    0  501  502 -0.00000000000E+00 -0.00000000000E+00 -0.34093961249E+02  0.34093961249E+02  0.00000000000E+00 0. -1.
         25    1    1    2    0    0  0.00000000000E+00  0.00000000000E+00  0.80479114358E+02  0.14866703686E+03  0.12500000000E+03 0.  0.
<mgrwt>
<rscale>  0 0.12500000E+03</rscale>
<asrwt>0</asrwt>
<pdfrwt beam="1">  1       21 0.17626627E-01 0.12500000E+03</pdfrwt>
<pdfrwt beam="2">  1       21 0.52452249E-02 0.12500000E+03</pdfrwt>
<totfact> 0.70927049E+06</totfact>
</mgrwt>
</event>
<event>
 3    1  0.1602107E-001  0.1250000E+03  0.7546771E-02  0.1235069E+00
         21   -1    0    0  502  501  0.00000000000E+00  0.00000000000E+00  0.13478178472E+03  0.13478178472E+03  0.00000000000E+00 0. -1.
         21   -1    0    0  501  502 -0.00000000000E+00 -0.00000000000E+00 -0.28982032018E+02  0.28982032018E+02  0.00000000000E+00 0. -1.
         25    1    1    2    0    0  0.00000000000E+00  0.00000000000E+00  0.10579975270E+03  0.16376381673E+03  0.12500000000E+03 0.  0.
<mgrwt>
<rscale>  0 0.12500000E+03</rscale>
<asrwt>0</asrwt>
<pdfrwt beam="1">  1       21 0.20735659E-01 0.12500000E+03</pdfrwt>
<pdfrwt beam="2">  1       21 0.44587742E-02 0.12500000E+03</pdfrwt>
<totfact> 0.69062498E+06</totfact>
</mgrwt>
</event>
<event>
 3    1  0.1602107E-001  0.1250000E+03  0.7546771E-02  0.1235069E+00
         21   -1    0    0  502  501  0.00000000000E+00  0.00000000000E+00  0.70110477385E+01  0.70110477385E+01  0.00000000000E+00 0. -1.
         21   -1    0    0  501  502 -0.00000000000E+00 -0.00000000000E+00 -0.55715638314E+03  0.55715638314E+03  0.00000000000E+00 0. -1.
         25    1    1    2    0    0  0.00000000000E+00  0.00000000000E+00 -0.55014533540E+03  0.56416743088E+03  0.12500000000E+03 0.  0.
<mgrwt>
<rscale>  0 0.12500000E+03</rscale>
<asrwt>0</asrwt>
<pdfrwt beam="1">  1       21 0.10786224E-02 0.12500000E+03</pdfrwt>
<pdfrwt beam="2">  1       21 0.85716389E-01 0.12500000E+03</pdfrwt>
<totfact> 0.38764925E+06</totfact>
</mgrwt>
</event>
<event>
 3    1  0.1602107E-001  0.1250000E+03  0.7546771E-02  0.1235069E+00
         21   -1    0    0  502  501  0.00000000000E+00  0.00000000000E+00  0.10562004473E+03  0.10562004473E+03  0.00000000000E+00 0. -1.
         21   -1    0    0  501  502 -0.00000000000E+00 -0.00000000000E+00 -0.36983983579E+02  0.36983983579E+02  0.00000000000E+00 0. -1.
         25    1    1    2    0    0  0.00000000000E+00  0.00000000000E+00  0.68636061155E+02  0.14260402831E+03  0.12500000000E+03 0.  0.
<mgrwt>
<rscale>  0 0.12500000E+03</rscale>
<asrwt>0</asrwt>
<pdfrwt beam="1">  1       21 0.16249237E-01 0.12500000E+03</pdfrwt>
<pdfrwt beam="2">  1       21 0.56898437E-02 0.12500000E+03</pdfrwt>
<totfact> 0.71701155E+06</totfact>
</mgrwt>
</event>
<event>
 3    1  0.1602107E-001  0.1250000E+03  0.7546771E-02  0.1235069E+00
         21   -1    0    0  502  501  0.00000000000E+00  0.00000000000E+00  0.63895751086E+01  0.63895751086E+01  0.00000000000E+00 0.  1.
         21   -1    0    0  501  502 -0.00000000000E+00 -0.00000000000E+00 -0.61134737969E+03  0.61134737969E+03  0.00000000000E+00 0.  1.
         25    1    1    2    0    0  0.00000000000E+00  0.00000000000E+00 -0.60495780458E+03  0.61773695480E+03  0.12500000000E+03 0.  0.
<mgrwt>
<rscale>  0 0.12500000E+03</rscale>
<asrwt>0</asrwt>
<pdfrwt beam="1">  1       21 0.98301177E-03 0.12500000E+03</pdfrwt>
<pdfrwt beam="2">  1       21 0.94053423E-01 0.12500000E+03</pdfrwt>
<totfact> 0.36302595E+06</totfact>
</mgrwt>
</event>
<event>
 3    1  0.1602107E-001  0.1250000E+03  0.7546771E-02  0.1235069E+00
         21   -1    0    0  502  501  0.00000000000E+00  0.00000000000E+00  0.36825380657E+02  0.36825380657E+02  0.00000000000E+00 0. -1.
         21   -1    0    0  501  502 -0.00000000000E+00 -0.00000000000E+00 -0.10607493881E+03  0.10607493881E+03  0.00000000000E+00 0. -1.
         25    1    1    2    0    0  0.00000000000E+00  0.00000000000E+00 -0.69249558156E+02  0.14290031947E+03  0.12500000000E+03 0.  0.
<mgrwt>
<rscale>  0 0.12500000E+03</rscale>
<asrwt>0</asrwt>
<pdfrwt beam="1">  1       21 0.56654432E-02 0.12500000E+03</pdfrwt>
<pdfrwt beam="2">  1       21 0.16319221E-01 0.12500000E+03</pdfrwt>
<totfact> 0.71662903E+06</totfact>
</mgrwt>
</event>
<event>
 3    1  0.1602107E-001  0.1250000E+03  0.7546771E-02  0.1235069E+00
         21   -1    0    0  502  501  0.00000000000E+00  0.00000000000E+00  0.22270332930E+03  0.22270332930E+03  0.00000000000E+00 0. -1.
         21   -1    0    0  501  502 -0.00000000000E+00 -0.00000000000E+00 -0.17540150891E+02  0.17540150891E+02  0.00000000000E+00 0. -1.
         25    1    1    2    0    0  0.00000000000E+00  0.00000000000E+00  0.20516317841E+03  0.24024348019E+03  0.12500000000E+03 0.  0.
<mgrwt>
<rscale>  0 0.12500000E+03</rscale>
<asrwt>0</asrwt>
<pdfrwt beam="1">  1       21 0.34262049E-01 0.12500000E+03</pdfrwt>
<pdfrwt beam="2">  1       21 0.26984849E-02 0.12500000E+03</pdfrwt>
<totfact> 0.60809111E+06</totfact>
</mgrwt>
</event>
<event>
 3    1  0.1602107E-001  0.1250000E+03  0.7546771E-02  0.1235069E+00
         21   -1    0    0  502  501  0.00000000000E+00  0.00000000000E+00  0.10162242601E+02  0.10162242601E+02  0.00000000000E+00 0.  1.
         21   -1    0    0  501  502 -0.00000000000E+00 -0.00000000000E+00 -0.38438857970E+03  0.38438857970E+03  0.00000000000E+00 0.  1.
         25    1    1    2    0    0  0.00000000000E+00  0.00000000000E+00 -0.37422633710E+03  0.39455082230E+03  0.12500000000E+03 0.  0.
<mgrwt>
<rscale>  0 0.12500000E+03</rscale>
<asrwt>0</asrwt>
<pdfrwt beam="1">  1       21 0.15634219E-02 0.12500000E+03</pdfrwt>
<pdfrwt beam="2">  1       21 0.59136706E-01 0.12500000E+03</pdfrwt>
<totfact> 0.48404901E+06</totfact>
</mgrwt>
</event>
<event>
 3    1  0.1602107E-001  0.1250000E+03  0.7546771E-02  0.1235069E+00
         21   -1    0    0  502  501  0.00000000000E+00  0.00000000000E+00  0.22849410263E+03  0.22849410263E+03  0.00000000000E+00 0. -1.
         21   -1    0    0  501  502 -0.00000000000E+00 -0.00000000000E+00 -0.17095627218E+02  0.17095627218E+02  0.00000000000E+00 0. -1.
         25    1    1    2    0    0  0.00000000000E+00  0.00000000000E+00  0.21139847541E+03  0.24558972984E+03  0.12500000000E+03 0.  0.
<mgrwt>
<rscale>  0 0.12500000E+03</rscale>
<asrwt>0</asrwt>
<pdfrwt beam="1">  1       21 0.35152937E-01 0.12500000E+03</pdfrwt>
<pdfrwt beam="2">  1       21 0.26300967E-02 0.12500000E+03</pdfrwt>
<totfact> 0.60295913E+06</totfact>
</mgrwt>
</event>
<event>
 3    1  0.1602107E-001  0.1250000E+03  0.7546771E-02  0.1235069E+00
         21   -1    0    0  502  501  0.00000000000E+00  0.00000000000E+00  0.35166279569E+02  0.35166279569E+02  0.00000000000E+00 0. -1.
         21   -1    0    0  501  502 -0.00000000000E+00 -0.00000000000E+00 -0.11107942176E+03  0.11107942176E+03  0.00000000000E+00 0. -1.
         25    1    1    2    0    0  0.00000000000E+00  0.00000000000E+00 -0.75913142194E+02  0.14624570133E+03  0.12500000000E+03 0.  0.
<mgrwt>
<rscale>  0 0.12500000E+03</rscale>
<asrwt>0</asrwt>
<pdfrwt beam="1">  1       21 0.54101969E-02 0.12500000E+03</pdfrwt>
<pdfrwt beam="2">  1       21 0.17089142E-01 0.12500000E+03</pdfrwt>
<totfact> 0.71234059E+06</totfact>
</mgrwt>
</event>
<event>
 3    1  0.1602107E-001  0.1250000E+03  0.7546771E-02  0.1235069E+00
         21   -1    0    0  502  501  0.00000000000E+00  0.00000000000E+00  0.98043087212E+02  0.98043087212E+02  0.00000000000E+00 0. -1.
         21   -1    0    0  501  502 -0.00000000000E+00 -0.00000000000E+00 -0.39842176650E+02  0.39842176650E+02  0.00000000000E+00 0. -1.
         25    1    1    2    0    0  0.00000000000E+00  0.00000000000E+00  0.58200910562E+02  0.13788526386E+03  0.12500000000E+03 0.  0.
<mgrwt>
<rscale>  0 0.12500000E+03</rscale>
<asrwt>0</asrwt>
<pdfrwt beam="1">  1       21 0.15083552E-01 0.12500000E+03</pdfrwt>
<pdfrwt beam="2">  1       21 0.61295656E-02 0.12500000E+03</pdfrwt>
<totfact> 0.72316599E+06</totfact>
</mgrwt>
</event>
<event>
 3    1  0.1602107E-001  0.1250000E+03  0.7546771E-02  0.1235069E+00
         21   -1    0    0  502  501  0.00000000000E+00  0.00000000000E+00  0.82345578661E+03  0.82345578661E+03  0.00000000000E+00 0. -1.
         21   -1    0    0  501  502 -0.00000000000E+00 -0.00000000000E+00 -0.47437276700E+01  0.47437276700E+01  0.00000000000E+00 0. -1.
         25    1    1    2    0    0  0.00000000000E+00  0.00000000000E+00  0.81871205894E+03  0.82819951428E+03  0.12500000000E+03 0.  0.
<mgrwt>
<rscale>  0 0.12500000E+03</rscale>
<asrwt>0</asrwt>
<pdfrwt beam="1">  1       21 0.12668539E+00 0.12500000E+03</pdfrwt>
<pdfrwt beam="2">  1       21 0.72980491E-03 0.12500000E+03</pdfrwt>
<totfact> 0.28449596E+06</totfact>
</mgrwt>
</event>
<event>
 3    1  0.1602107E-001  0.1250000E+03  0.7546771E-02  0.1235069E+00
         21   -1    0    0  502  501  0.00000000000E+00  0.00000000000E+00  0.77697525654E+02  0.77697525654E+02  0.00000000000E+00 0.  1.
         21   -1    0    0  501  502 -0.00000000000E+00 -0.00000000000E+00 -0.50275088777E+02  0.50275088777E+02  0.00000000000E+00 0.  1.
         25    1    1    2    0    0  0.00000000000E+00  0.00000000000E+00  0.27422436877E+02  0.12797261443E+03  0.12500000000E+03 0.  0.
<mgrwt>
<rscale>  0 0.12500000E+03</rscale>
<asrwt>0</asrwt>
<pdfrwt beam="1">  1       21 0.11953465E-01 0.12500000E+03</pdfrwt>
<pdfrwt beam="2">  1       21 0.77346291E-02 0.12500000E+03</pdfrwt>
<totfact> 0.73637259E+06</totfact>
</mgrwt>
</event>
<event>
 3    1  0.1602107E-001  0.1250000E+03  0.7546771E-02  0.1235069E+00
         21   -1    0    0  502  501  0.00000000000E+00  0.00000000000E+00  0.35266250800E+02  0.35266250800E+02  0.00000000000E+00 0. -1.
         21   -1    0    0  501  502 -0.00000000000E+00 -0.00000000000E+00 -0.11076453866E+03  0.11076453866E+03  0.00000000000E+00 0. -1.
         25    1    1    2    0    0  0.00000000000E+00  0.00000000000E+00 -0.75498287856E+02  0.14603078946E+03  0.12500000000E+03 0.  0.
<mgrwt>
<rscale>  0 0.12500000E+03</rscale>
<asrwt>0</asrwt>
<pdfrwt beam="1">  1       21 0.54255770E-02 0.12500000E+03</pdfrwt>
<pdfrwt beam="2">  1       21 0.17040699E-01 0.12500000E+03</pdfrwt>
<totfact> 0.71261443E+06</totfact>
</mgrwt>
</event>
<event>
 3    1  0.1602107E-001  0.1250000E+03  0.7546771E-02  0.1235069E+00
         21   -1    0    0  502  501  0.00000000000E+00  0.00000000000E+00  0.58743304557E+01  0.58743304557E+01  0.00000000000E+00 0. -1.
         21   -1    0    0  501  502 -0.00000000000E+00 -0.00000000000E+00 -0.66496940026E+03  0.66496940026E+03  0.00000000000E+00 0. -1.
         25    1    1    2    0    0  0.00000000000E+00  0.00000000000E+00 -0.65909506980E+03  0.67084373071E+03  0.12500000000E+03 0.  0.
<mgrwt>
<rscale>  0 0.12500000E+03</rscale>
<asrwt>0</asrwt>
<pdfrwt beam="1">  1       21 0.90374326E-03 0.12500000E+03</pdfrwt>
<pdfrwt beam="2">  1       21 0.10230297E+00 0.12500000E+03</pdfrwt>
<totfact> 0.34064792E+06</totfact>
</mgrwt>
</event>
<event>
 3    1  0.1602107E-001  0.1250000E+03  0.7546771E-02  0.1235069E+00
         21   -1    0    0  502  501  0.00000000000E+00  0.00000000000E+00  0.10405570802E+03  0.10405570802E+03  0.00000000000E+00 0.  1.
         21   -1    0    0  501  502 -0.00000000000E+00 -0.00000000000E+00 -0.37539987709E+02  0.37539987709E+02  0.00000000000E+00 0.  1.
         25    1    1    2    0    0  0.00000000000E+00  0.00000000000E+00  0.66515720308E+02  0.14159569573E+03  0.12500000000E+03 0.  0.
<mgrwt>
<rscale>  0 0.12500000E+03</rscale>
<asrwt>0</asrwt>
<pdfrwt beam="1">  1       21 0.16008570E-01 0.12500000E+03</pdfrwt>
<pdfrwt beam="2">  1       21 0.57753828E-02 0.12500000E+03</pdfrwt>
<totfact> 0.71831673E+06</totfact>
</mgrwt>
</event>
<event>
 3    1  0.1602107E-001  0.1250000E+03  0.7546771E-02  0.1235069E+00
         21   -1    0    0  502  501  0.00000000000E+00  0.00000000000E+00  0.41746018126E+02  0.41746018126E+02  0.00000000000E+00 0.  1.
         21   -1    0    0  501  502 -0.00000000000E+00 -0.00000000000E+00 -0.93571798590E+02  0.93571798590E+02  0.00000000000E+00 0.  1.
         25    1    1    2    0    0  0.00000000000E+00  0.00000000000E+00 -0.51825780464E+02  0.13531781672E+03  0.12500000000E+03 0.  0.
<mgrwt>
<rscale>  0 0.12500000E+03</rscale>
<asrwt>0</asrwt>
<pdfrwt beam="1">  1       21 0.64224644E-02 0.12500000E+03</pdfrwt>
<pdfrwt beam="2">  1       21 0.14395661E-01 0.12500000E+03</pdfrwt>
<totfact> 0.72654418E+06</totfact>
</mgrwt>
</event>
<event>
 3    1  0.1602107E-001  0.1250000E+03  0.7546771E-02  0.1235069E+00
         21   -1    0    0  502  501  0.00000000000E+00  0.00000000000E+00  0.37255632796E+03  0.37255632796E+03  0.00000000000E+00 0.  1.
         21   -1    0    0  501  502 -0.00000000000E+00 -0.00000000000E+00 -0.10484991683E+02  0.10484991683E+02  0.00000000000E+00 0.  1.
         25    1    1    2    0    0  0.00000000000E+00  0.00000000000E+00  0.36207133627E+03  0.38304131964E+03  0.12500000000E+03 0.  0.
<mgrwt>
<rscale>  0 0.12500000E+03</rscale>
<asrwt>0</asrwt>
<pdfrwt beam="1">  1       21 0.57316348E-01 0.12500000E+03</pdfrwt>
<pdfrwt beam="2">  1       21 0.16130759E-02 0.12500000E+03</pdfrwt>
<totfact> 0.49186928E+06</totfact>
</mgrwt>
</event>
<event>
 3    1  0.1602107E-001  0.1250000E+03  0.7546771E-02  0.1235069E+00
         21   -1    0    0  502  501  0.00000000000E+00  0.00000000000E+00  0.12385315721E+03  0.12385315721E+03  0.00000000000E+00 0.  1.
         21   -1    0    0  501  502 -0.00000000000E+00 -0.00000000000E+00 -0.31539365553E+02  0.31539365553E+02  0.00000000000E+00 0.  1.
         25    1    1    2    0    0  0.00000000000E+00  0.00000000000E+00  0.92313791653E+02  0.15539252276E+03  0.12500000000E+03 0.  0.
<mgrwt>
<rscale>  0 0.12500000E+03</rscale>
<asrwt>0</asrwt>
<pdfrwt beam="1">  1       21 0.19054332E-01 0.12500000E+03</pdfrwt>
<pdfrwt beam="2">  1       21 0.48522101E-02 0.12500000E+03</pdfrwt>
<totfact> 0.70086906E+06</totfact>
</mgrwt>
</event>
<event>
 3    1  0.1602107E-001  0.1250000E+03  0.7546771E-02  0.1235069E+00
         21   -1    0    0  502  501  0.00000000000E+00  0.00000000000E+00  0.78032302811E+03  0.78032302811E+03  0.00000000000E+00 0.  1.
         21   -1    0    0  501  502 -0.00000000000E+00 -0.00000000000E+00 -0.50059396676E+01  0.50059396676E+01  0.00000000000E+00 0.  1.
         25    1    1    2    0    0  0.00000000000E+00  0.00000000000E+00  0.77531708845E+03  0.78532896778E+03  0.12500000000E+03 0.  0.
<mgrwt>
<rscale>  0 0.12500000E+03</rscale>
<asrwt>0</asrwt>
<pdfrwt beam="1">  1       21 0.12004960E+00 0.12500000E+03</pdfrwt>
<pdfrwt beam="2">  1       21 0.77014518E-03 0.12500000E+03</pdfrwt>
<totfact> 0.29854722E+06</totfact>
</mgrwt>
</event>
<event>
 3    1  0.1602107E-001  0.1250000E+03  0.7546771E-02  0.1235069E+00
         21   -1    0    0  502  501  0.00000000000E+00  0.00000000000E+00  0.88934408205E+03  0.88934408205E+03  0.00000000000E+00 0. -1.
         21   -1    0    0  501  502 -0.00000000000E+00 -0.00000000000E+00 -0.43922819962E+01  0.43922819962E+01  0.00000000000E+00 0. -1.
         25    1    1    2    0    0  0.00000000000E+00  0.00000000000E+00  0.88495180005E+03  0.89373636405E+03  0.12500000000E+03 0.  0.
<mgrwt>
<rscale>  0 0.12500000E+03</rscale>
<asrwt>0</asrwt>
<pdfrwt beam="1">  1       21 0.13682202E+00 0.12500000E+03</pdfrwt>
<pdfrwt beam="2">  1       21 0.67573640E-03 0.12500000E+03</pdfrwt>
<totfact> 0.26480036E+06</totfact>
</mgrwt>
</event>
<event>
 3    1  0.1602107E-001  0.1250000E+03  0.7546771E-02  0.1235069E+00
         21   -1    0    0  502  501  0.00000000000E+00  0.00000000000E+00  0.17964452593E+02  0.17964452593E+02  0.00000000000E+00 0.  1.
         21   -1    0    0  501  502 -0.00000000000E+00 -0.00000000000E+00 -0.21744330810E+03  0.21744330810E+03  0.00000000000E+00 0.  1.
         25    1    1    2    0    0  0.00000000000E+00  0.00000000000E+00 -0.19947885550E+03  0.23540776069E+03  0.12500000000E+03 0.  0.
<mgrwt>
<rscale>  0 0.12500000E+03</rscale>
<asrwt>0</asrwt>
<pdfrwt beam="1">  1       21 0.27637621E-02 0.12500000E+03</pdfrwt>
<pdfrwt beam="2">  1       21 0.33452815E-01 0.12500000E+03</pdfrwt>
<totfact> 0.61279896E+06</totfact>
</mgrwt>
</event>
<event>
 3    1  0.1602107E-001  0.1250000E+03  0.7546771E-02  0.1235069E+00
         21   -1    0    0  502  501  0.00000000000E+00  0.00000000000E+00  0.99182531199E+02  0.99182531199E+02  0.00000000000E+00 0. -1.
         21   -1    0    0  501  502 -0.00000000000E+00 -0.00000000000E+00 -0.39384455637E+02  0.39384455637E+02  0.00000000000E+00 0. -1.
         25    1    1    2    0    0  0.00000000000E+00  0.00000000000E+00  0.59798075562E+02  0.13856698684E+03  0.12500000000E+03 0.  0.
<mgrwt>
<rscale>  0 0.12500000E+03</rscale>
<asrwt>0</asrwt>
<pdfrwt beam="1">  1       21 0.15258851E-01 0.12500000E+03</pdfrwt>
<pdfrwt beam="2">  1       21 0.60591471E-02 0.12500000E+03</pdfrwt>
<totfact> 0.72226941E+06</totfact>
</mgrwt>
</event>
<event>
 3    1  0.1602107E-001  0.1250000E+03  0.7546771E-02  0.1235069E+00
         21   -1    0    0  502  501  0.00000000000E+00  0.00000000000E+00  0.10162929869E+03  0.10162929869E+03  0.00000000000E+00 0.  1.
         21   -1    0    0  501  502 -0.00000000000E+00 -0.00000000000E+00 -0.38436258544E+02  0.38436258544E+02  0.00000000000E+00 0.  1.
         25    1    1    2    0    0  0.00000000000E+00  0.00000000000E+00  0.63193040145E+02  0.14006555723E+03  0.12500000000E+03 0.  0.
<mgrwt>
<rscale>  0 0.12500000E+03</rscale>
<asrwt>0</asrwt>
<pdfrwt beam="1">  1       21 0.15635277E-01 0.12500000E+03</pdfrwt>
<pdfrwt beam="2">  1       21 0.59132706E-02 0.12500000E+03</pdfrwt>
<totfact> 0.72030751E+06</totfact>
</mgrwt>
</event>
<event>
 3    1  0.1602107E-001  0.1250000E+03  0.7546771E-02  0.1235069E+00
         21   -1    0    0  502  501  0.00000000000E+00  0.00000000000E+00  0.14501842948E+03  0.14501842948E+03  0.00000000000E+00 0. -1.
         21   -1    0    0  501  502 -0.00000000000E+00 -0.00000000000E+00 -0.26936231582E+02  0.26936231582E+02  0.00000000000E+00 0. -1.
         25    1    1    2    0    0  0.00000000000E+00  0.00000000000E+00  0.11808219790E+03  0.17195466106E+03  0.12500000000E+03 0.  0.
<mgrwt>
<rscale>  0 0.12500000E+03</rscale>
<asrwt>0</asrwt>
<pdfrwt beam="1">  1       21 0.22310527E-01 0.12500000E+03</pdfrwt>
<pdfrwt beam="2">  1       21 0.41440357E-02 0.12500000E+03</pdfrwt>
<totfact> 0.68086674E+06</totfact>
</mgrwt>
</event>
<event>
 3    1  0.1602107E-001  0.1250000E+03  0.7546771E-02  0.1235069E+00
         21   -1    0    0  502  501  0.00000000000E+00  0.00000000000E+00  0.56323211380E+01  0.56323211380E+01  0.00000000000E+00 0. -1.
         21   -1    0    0  501  502 -0.00000000000E+00 -0.00000000000E+00 -0.69354177510E+03  0.69354177510E+03  0.00000000000E+00 0. -1.
         25    1    1    2    0    0  0.00000000000E+00  0.00000000000E+00 -0.68790945396E+03  0.69917409624E+03  0.12500000000E+03 0.  0.
<mgrwt>
<rscale>  0 0.12500000E+03</rscale>
<asrwt>0</asrwt>
<pdfrwt beam="1">  1       21 0.86651035E-03 0.12500000E+03</pdfrwt>
<pdfrwt beam="2">  1       21 0.10669881E+00 0.12500000E+03</pdfrwt>
<totfact> 0.32941987E+06</totfact>
</mgrwt>
</event>
<event>
 3    1  0.1602107E-001  0.1250000E+03  0.7546771E-02  0.1235069E+00
         21   -1    0    0  502  501  0.00000000000E+00  0.00000000000E+00  0.15655920599E+02  0.15655920599E+02  0.00000000000E+00 0.  1.
         21   -1    0    0  501  502 -0.00000000000E+00 -0.00000000000E+00 -0.24950624751E+03  0.24950624751E+03  0.00000000000E+00 0.  1.
         25    1    1    2    0    0  0.00000000000E+00  0.00000000000E+00 -0.23385032692E+03  0.26516216811E+03  0.12500000000E+03 0.  0.
<mgrwt>
<rscale>  0 0.12500000E+03</rscale>
<asrwt>0</asrwt>
<pdfrwt beam="1">  1       21 0.24086032E-02 0.12500000E+03</pdfrwt>
<pdfrwt beam="2">  1       21 0.38385575E-01 0.12500000E+03</pdfrwt>
<totfact> 0.58479339E+06</totfact>
</mgrwt>
</event>
<event>
 3    1  0.1602107E-001  0.1250000E+03  0.7546771E-02  0.1235069E+00
         21   -1    0    0  502  501  0.00000000000E+00  0.00000000000E+00  0.14179420915E+02  0.14179420915E+02  0.00000000000E+00 0. -1.
         21   -1    0    0  501  502 -0.00000000000E+00 -0.00000000000E+00 -0.27548727296E+03  0.27548727296E+03  0.00000000000E+00 0. -1.
         25    1    1    2    0    0  0.00000000000E+00  0.00000000000E+00 -0.26130785205E+03  0.28966669388E+03  0.12500000000E+03 0.  0.
<mgrwt>
<rscale>  0 0.12500000E+03</rscale>
<asrwt>0</asrwt>
<pdfrwt beam="1">  1       21 0.21814497E-02 0.12500000E+03</pdfrwt>
<pdfrwt beam="2">  1       21 0.42382652E-01 0.12500000E+03</pdfrwt>
<totfact> 0.56325998E+06</totfact>
</mgrwt>
</event>
<event>
 3    1  0.1602107E-001  0.1250000E+03  0.7546771E-02  0.1235069E+00
         21   -1    0    0  502  501  0.00000000000E+00  0.00000000000E+00  0.72703014718E+01  0.72703014718E+01  0.00000000000E+00 0. -1.
         21   -1    0    0  501  502 -0.00000000000E+00 -0.00000000000E+00 -0.53728858633E+03  0.53728858633E+03  0.00000000000E+00 0. -1.
         25    1    1    2    0    0  0.00000000000E+00  0.00000000000E+00 -0.53001828486E+03  0.54455888781E+03  0.12500000000E+03 0.  0.
<mgrwt>
<rscale>  0 0.12500000E+03</rscale>
<asrwt>0</asrwt>
<pdfrwt beam="1">  1       21 0.11185076E-02 0.12500000E+03</pdfrwt>
<pdfrwt beam="2">  1       21 0.82659809E-01 0.12500000E+03</pdfrwt>
<totfact> 0.39726239E+06</totfact>
</mgrwt>
</event>
<event>
 3    1  0.1602107E-001  0.1250000E+03  0.7546771E-02  0.1235069E+00
         21   -1    0    0  502  501  0.00000000000E+00  0.00000000000E+00  0.60166589135E+02  0.60166589135E+02  0.00000000000E+00 0.  1.
         21   -1    0    0  501  502 -0.00000000000E+00 -0.00000000000E+00 -0.64923906377E+02  0.64923906377E+02  0.00000000000E+00 0.  1.
         25    1    1    2    0    0  0.00000000000E+00  0.00000000000E+00 -0.47573172415E+01  0.12509049551E+03  0.12500000000E+03 0.  0.
<mgrwt>
<rscale>  0 0.12500000E+03</rscale>
<asrwt>0</asrwt>
<pdfrwt beam="1">  1       21 0.92563983E-02 0.12500000E+03</pdfrwt>
<pdfrwt beam="2">  1       21 0.99882933E-02 0.12500000E+03</pdfrwt>
<totfact> 0.74031359E+06</totfact>
</mgrwt>
</event>
<event>
 3    1  0.1602107E-001  0.1250000E+03  0.7546771E-02  0.1235069E+00
         21   -1    0    0  502  501  0.00000000000E+00  0.00000000000E+00  0.76427304219E+01  0.76427304219E+01  0.00000000000E+00 0.  1.
         21   -1    0    0  501  502 -0.00000000000E+00 -0.00000000000E+00 -0.51110660514E+03  0.51110660514E+03  0.00000000000E+00 0.  1.
         25    1    1    2    0    0  0.00000000000E+00  0.00000000000E+00 -0.50346387472E+03  0.51874933557E+03  0.12500000000E+03 0.  0.
<mgrwt>
<rscale>  0 0.12500000E+03</rscale>
<asrwt>0</asrwt>
<pdfrwt beam="1">  1       21 0.11758048E-02 0.12500000E+03</pdfrwt>
<pdfrwt beam="2">  1       21 0.78631776E-01 0.12500000E+03</pdfrwt>
<totfact> 0.41045174E+06</totfact>
</mgrwt>
</event>
<event>
 3    1  0.1602107E-001  0.1250000E+03  0.7546771E-02  0.1235069E+00
         21   -1    0    0  502  501  0.00000000000E+00  0.00000000000E+00  0.99884727707E+02  0.99884727707E+02  0.00000000000E+00 0.  1.
         21   -1    0    0  501  502 -0.00000000000E+00 -0.00000000000E+00 -0.39107580204E+02  0.39107580204E+02  0.00000000000E+00 0.  1.
         25    1    1    2    0    0  0.00000000000E+00  0.00000000000E+00  0.60777147503E+02  0.13899230791E+03  0.12500000000E+03 0.  0.
<mgrwt>
<rscale>  0 0.12500000E+03</rscale>
<asrwt>0</asrwt>
<pdfrwt beam="1">  1       21 0.15366881E-01 0.12500000E+03</pdfrwt>
<pdfrwt beam="2">  1       21 0.60165508E-02 0.12500000E+03</pdfrwt>
<totfact> 0.72171135E+06</totfact>
</mgrwt>
</event>
<event>
 3    1  0.1602107E-001  0.1250000E+03  0.7546771E-02  0.1235069E+00
         21   -1    0    0  502  501  0.00000000000E+00  0.00000000000E+00  0.81860295853E+02  0.81860295853E+02  0.00000000000E+00 0.  1.
         21   -1    0    0  501  502 -0.00000000000E+00 -0.00000000000E+00 -0.47718493554E+02  0.47718493554E+02  0.00000000000E+00 0.  1.
         25    1    1    2    0    0  0.00000000000E+00  0.00000000000E+00  0.34141802300E+02  0.12957878941E+03  0.12500000000E+03 0.  0.
<mgrwt>
<rscale>  0 0.12500000E+03</rscale>
<asrwt>0</asrwt>
<pdfrwt beam="1">  1       21 0.12593892E-01 0.12500000E+03</pdfrwt>
<pdfrwt beam="2">  1       21 0.73413067E-02 0.12500000E+03</pdfrwt>
<totfact> 0.73421264E+06</totfact>
</mgrwt>
</event>
<event>
 3    1  0.1602107E-001  0.1250000E+03  0.7546771E-02  0.1235069E+00
         21   -1    0    0  502  501  0.00000000000E+00  0.00000000000E+00  0.69592739256E+03  0.69592739256E+03  0.00000000000E+00 0. -1.
         21   -1    0    0  501  502 -0.00000000000E+00 -0.00000000000E+00 -0.56130137163E+01  0.56130137163E+01  0.00000000000E+00 0. -1.
         25    1    1    2    0    0  0.00000000000E+00  0.00000000000E+00  0.69031437885E+03  0.70154040628E+03  0.12500000000E+03 0.  0.
<mgrwt>
<rscale>  0 0.12500000E+03</rscale>
<asrwt>0</asrwt>
<pdfrwt beam="1">  1       21 0.10706568E+00 0.12500000E+03</pdfrwt>
<pdfrwt beam="2">  1       21 0.86354112E-03 0.12500000E+03</pdfrwt>
<totfact> 0.32850853E+06</totfact>
</mgrwt>
</event>
<event>
 3    1  0.1602107E-001  0.1250000E+03  0.7546771E-02  0.1235069E+00
         21   -1    0    0  502  501  0.00000000000E+00  0.00000000000E+00  0.22607178671E+03  0.22607178671E+03  0.00000000000E+00 0. -1.
         21   -1    0    0  501  502 -0.00000000000E+00 -0.00000000000E+00 -0.17278803591E+02  0.17278803591E+02  0.00000000000E+00 0. -1.
         25    1    1    2    0    0  0.00000000000E+00  0.00000000000E+00  0.20879298312E+03  0.24335059030E+03  0.12500000000E+03 0.  0.
<mgrwt>
<rscale>  0 0.12500000E+03</rscale>
<asrwt>0</asrwt>
<pdfrwt beam="1">  1       21 0.34780273E-01 0.12500000E+03</pdfrwt>
<pdfrwt beam="2">  1       21 0.26582776E-02 0.12500000E+03</pdfrwt>
<totfact> 0.60509933E+06</totfact>
</mgrwt>
</event>
<event>
 3    1  0.1602107E-001  0.1250000E+03  0.7546771E-02  0.1235069E+00
         21   -1    0    0  502  501  0.00000000000E+00  0.00000000000E+00  0.18160032353E+03  0.18160032353E+03  0.00000000000E+00 0. -1.
         21   -1    0    0  501  502 -0.00000000000E+00 -0.00000000000E+00 -0.21510148903E+02  0.21510148903E+02  0.00000000000E+00 0. -1.
         25    1    1    2    0    0  0.00000000000E+00  0.00000000000E+00  0.16009017463E+03  0.20311047243E+03  0.12500000000E+03 0.  0.
<mgrwt>
<rscale>  0 0.12500000E+03</rscale>
<asrwt>0</asrwt>
<pdfrwt beam="1">  1       21 0.27938510E-01 0.12500000E+03</pdfrwt>
<pdfrwt beam="2">  1       21 0.33092538E-02 0.12500000E+03</pdfrwt>
<totfact> 0.64591763E+06</totfact>
</mgrwt>
</event>
<event>
 3    1  0.1602107E-001  0.1250000E+03  0.7546771E-02  0.1235069E+00
         21   -1    0    0  502  501  0.00000000000E+00  0.00000000000E+00  0.13927464372E+02  0.13927464372E+02  0.00000000000E+00 0.  1.
         21   -1    0    0  501  502 -0.00000000000E+00 -0.00000000000E+00 -0.28047101007E+03  0.28047101007E+03  0.00000000000E+00 0.  1.
         25    1    1    2    0    0  0.00000000000E+00  0.00000000000E+00 -0.26654354570E+03  0.29439847444E+03  0.12500000000E+03 0.  0.
<mgrwt>
<rscale>  0 0.12500000E+03</rscale>
<asrwt>0</asrwt>
<pdfrwt beam="1">  1       21 0.21426868E-02 0.12500000E+03</pdfrwt>
<pdfrwt beam="2">  1       21 0.43149386E-01 0.12500000E+03</pdfrwt>
<totfact> 0.55924918E+06</totfact>
</mgrwt>
</event>
<event>
 3    1  0.1602107E-001  0.1250000E+03  0.7546771E-02  0.1235069E+00
         21   -1    0    0  502  501  0.00000000000E+00  0.00000000000E+00  0.16588978527E+03  0.16588978527E+03  0.00000000000E+00 0.  1.
         21   -1    0    0  501  502 -0.00000000000E+00 -0.00000000000E+00 -0.23547260572E+02  0.23547260572E+02  0.00000000000E+00 0.  1.
         25    1    1    2    0    0  0.00000000000E+00  0.00000000000E+00  0.14234252470E+03  0.18943704584E+03  0.12500000000E+03 0.  0.
<mgrwt>
<rscale>  0 0.12500000E+03</rscale>
<asrwt>0</asrwt>
<pdfrwt beam="1">  1       21 0.25521505E-01 0.12500000E+03</pdfrwt>
<pdfrwt beam="2">  1       21 0.36226556E-02 0.12500000E+03</pdfrwt>
<totfact> 0.66085086E+06</totfact>
</mgrwt>
</event>
<event>
 3    1  0.1602107E-001  0.1250000E+03  0.7546771E-02  0.1235069E+00
         21   -1    0    0  502  501  0.00000000000E+00  0.00000000000E+00  0.68909821687E+01  0.68909821687E+01  0.00000000000E+00 0. -1.
         21   -1    0    0  501  502 -0.00000000000E+00 -0.00000000000E+00 -0.56686404120E+03  0.56686404120E+03  0.00000000000E+00 0. -1.
         25    1    1    2    0    0  0.00000000000E+00  0.00000000000E+00 -0.55997305904E+03  0.57375502337E+03  0.12500000000E+03 0.  0.
<mgrwt>
<rscale>  0 0.12500000E+03</rscale>
<asrwt>0</asrwt>
<pdfrwt beam="1">  1       21 0.10601507E-02 0.12500000E+03</pdfrwt>
<pdfrwt beam="2">  1       21 0.87209889E-01 0.12500000E+03</pdfrwt>
<totfact> 0.38307065E+06</totfact>
</mgrwt>
</event>
<event>
 3    1  0.1602107E-001  0.1250000E+03  0.7546771E-02  0.1235069E+00
         21   -1    0    0  502  501  0.00000000000E+00  0.00000000000E+00  0.16503689907E+03  0.16503689907E+03  0.00000000000E+00 0. -1.
         21   -1    0    0  501  502 -0.00000000000E+00 -0.00000000000E+00 -0.23668949320E+02  0.23668949320E+02  0.00000000000E+00 0. -1.
         25    1    1    2    0    0  0.00000000000E+00  0.00000000000E+00  0.14136794975E+03  0.18870584839E+03  0.12500000000E+03 0.  0.
<mgrwt>
<rscale>  0 0.12500000E+03</rscale>
<asrwt>0</asrwt>
<pdfrwt beam="1">  1       21 0.25390291E-01 0.12500000E+03</pdfrwt>
<pdfrwt beam="2">  1       21 0.36413769E-02 0.12500000E+03</pdfrwt>
<totfact> 0.66166586E+06</totfact>
</mgrwt>
</event>
<event>
 3    1  0.1602107E-001  0.1250000E+03  0.7546771E-02  0.1235069E+00
         21   -1    0    0  502  501  0.00000000000E+00  0.00000000000E+00  0.11103285560E+02  0.11103285560E+02  0.00000000000E+00 0.  1.
         21   -1    0    0  501  502 -0.00000000000E+00 -0.00000000000E+00 -0.35181027983E+03  0.35181027983E+03  0.00000000000E+00 0.  1.
         25    1    1    2    0    0  0.00000000000E+00  0.00000000000E+00 -0.34070699426E+03  0.36291356539E+03  0.12500000000E+03 0.  0.
<mgrwt>
<rscale>  0 0.12500000E+03</rscale>
<asrwt>0</asrwt>
<pdfrwt beam="1">  1       21 0.17081983E-02 0.12500000E+03</pdfrwt>
<pdfrwt beam="2">  1       21 0.54124643E-01 0.12500000E+03</pdfrwt>
<totfact> 0.50598648E+06</totfact>
</mgrwt>
</event>
<event>
 3    1  0.1602107E-001  0.1250000E+03  0.7546771E-02  0.1235069E+00
         21   -1    0    0  502  501  0.00000000000E+00  0.00000000000E+00  0.31959717023E+03  0.31959717023E+03  0.00000000000E+00 0.  1.
         21   -1    0    0  501  502 -0.00000000000E+00 -0.00000000000E+00 -0.12222417355E+02  0.12222417355E+02  0.00000000000E+00 0.  1.
         25    1    1    2    0    0  0.00000000000E+00  0.00000000000E+00  0.30737475287E+03  0.33181958758E+03  0.12500000000E+03 0.  0.
<mgrwt>
<rscale>  0 0.12500000E+03</rscale>
<asrwt>0</asrwt>
<pdfrwt beam="1">  1       21 0.49168789E-01 0.12500000E+03</pdfrwt>
<pdfrwt beam="2">  1       21 0.18803721E-02 0.12500000E+03</pdfrwt>
<totfact> 0.52909797E+06</totfact>
</mgrwt>
</event>
<event>
 3    1  0.1602107E-001  0.1250000E+03  0.7546771E-02  0.1235069E+00
         21   -1    0    0  502  501  0.00000000000E+00  0.00000000000E+00  0.97818312595E+01  0.97818312595E+01  0.00000000000E+00 0.  1.
         21   -1    0    0  501  502 -0.00000000000E+00 -0.00000000000E+00 -0.39933729139E+03  0.39933729139E+03  0.00000000000E+00 0.  1.
         25    1    1    2    0    0  0.00000000000E+00  0.00000000000E+00 -0.38955546013E+03  0.40911912265E+03  0.12500000000E+03 0.  0.
<mgrwt>
<rscale>  0 0.12500000E+03</rscale>
<asrwt>0</asrwt>
<pdfrwt beam="1">  1       21 0.15048971E-02 0.12500000E+03</pdfrwt>
<pdfrwt beam="2">  1       21 0.61436509E-01 0.12500000E+03</pdfrwt>
<totfact> 0.47442312E+06</totfact>
</mgrwt>
</event>
<event>
 3    1  0.1602107E-001  0.1250000E+03  0.7546771E-02  0.1235069E+00
         21   -1    0    0  502  501  0.00000000000E+00  0.00000000000E+00  0.72250901690E+01  0.72250901690E+01  0.00000000000E+00 0. -1.
         21   -1    0    0  501  502 -0.00000000000E+00 -0.00000000000E+00 -0.54065069205E+03  0.54065069205E+03  0.00000000000E+00 0. -1.
         25    1    1    2    0    0  0.00000000000E+00  0.00000000000E+00 -0.53342560188E+03  0.54787578222E+03  0.12500000000E+03 0.  0.
<mgrwt>
<rscale>  0 0.12500000E+03</rscale>
<asrwt>0</asrwt>
<pdfrwt beam="1">  1       21 0.11115519E-02 0.12500000E+03</pdfrwt>
<pdfrwt beam="2">  1       21 0.83177059E-01 0.12500000E+03</pdfrwt>
<totfact> 0.39561230E+06</totfact>
</mgrwt>
</event>
<event>
 3    1  0.1602107E-001  0.1250000E+03  0.7546771E-02  0.1235069E+00
         21   -1    0    0  502  501  0.00000000000E+00  0.00000000000E+00  0.12882348658E+02  0.12882348658E+02  0.00000000000E+00 0. -1.
         21   -1    0    0  501  502 -0.00000000000E+00 -0.00000000000E+00 -0.30322498666E+03  0.30322498666E+03  0.00000000000E+00 0. -1.
         25    1    1    2    0    0  0.00000000000E+00  0.00000000000E+00 -0.29034263800E+03  0.31610733532E+03  0.12500000000E+03 0.  0.
<mgrwt>
<rscale>  0 0.12500000E+03</rscale>
<asrwt>0</asrwt>
<pdfrwt beam="1">  1       21 0.19818999E-02 0.12500000E+03</pdfrwt>
<pdfrwt beam="2">  1       21 0.46649995E-01 0.12500000E+03</pdfrwt>
<totfact> 0.54143266E+06</totfact>
</mgrwt>
</event>
<event>
 3    1  0.1602107E-001  0.1250000E+03  0.7546771E-02  0.1235069E+00
         21   -1    0    0  502  501  0.00000000000E+00  0.00000000000E+00  0.10066523705E+03  0.10066523705E+03  0.00000000000E+00 0. -1.
         21   -1    0    0  501  502 -0.00000000000E+00 -0.00000000000E+00 -0.38804359025E+02  0.38804359025E+02  0.00000000000E+00 0. -1.
         25    1    1    2    0    0  0.00000000000E+00  0.00000000000E+00  0.61860878030E+02  0.13946959608E+03  0.12500000000E+03 0.  0.
<mgrwt>
<rscale>  0 0.12500000E+03</rscale>
<asrwt>0</asrwt>
<pdfrwt beam="1">  1       21 0.15486959E-01 0.12500000E+03</pdfrwt>
<pdfrwt beam="2">  1       21 0.59699014E-02 0.12500000E+03</pdfrwt>
<totfact> 0.72108627E+06</totfact>
</mgrwt>
</event>
<event>
 3    1  0.1602107E-001  0.1250000E+03  0.7546771E-02  0.1235069E+00
         21   -1    0    0  502  501  0.00000000000E+00  0.00000000000E+00  0.65077021785E+01  0.65077021785E+01  0.00000000000E+00 0.  1.
         21   -1    0    0  501  502 -0.00000000000E+00 -0.00000000000E+00 -0.60025027157E+03  0.60025027157E+03  0.00000000000E+00 0.  1.
         25    1    1    2    0    0  0.00000000000E+00  0.00000000000E+00 -0.59374256940E+03  0.60675797375E+03  0.12500000000E+03 0.  0.
<mgrwt>
<rscale>  0 0.12500000E+03</rscale>
<asrwt>0</asrwt>
<pdfrwt beam="1">  1       21 0.10011848E-02 0.12500000E+03</pdfrwt>
<pdfrwt beam="2">  1       21 0.92346212E-01 0.12500000E+03</pdfrwt>
<totfact> 0.36788778E+06</totfact>
</mgrwt>
</event>
<event>
 3    1  0.1602107E-001  0.1250000E+03  0.7546771E-02  0.1235069E+00
         21   -1    0    0  502  501  0.00000000000E+00  0.00000000000E+00  0.21182607389E+03  0.21182607389E+03  0.00000000000E+00 0.  1.
         21   -1    0    0  501  502 -0.00000000000E+00 -0.00000000000E+00 -0.18440836523E+02  0.18440836523E+02  0.00000000000E+00 0.  1.
         25    1    1    2    0    0  0.00000000000E+00  0.00000000000E+00  0.19338523737E+03  0.23026691041E+03  0.12500000000E+03 0.  0.
<mgrwt>
<rscale>  0 0.12500000E+03</rscale>
<asrwt>0</asrwt>
<pdfrwt beam="1">  1       21 0.32588625E-01 0.12500000E+03</pdfrwt>
<pdfrwt beam="2">  1       21 0.28370519E-02 0.12500000E+03</pdfrwt>
<totfact> 0.61787428E+06</totfact>
</mgrwt>
</event>
<event>
 3    1  0.1602107E-001  0.1250000E+03  0.7546771E-02  0.1235069E+00
         21   -1    0    0  502  501  0.00000000000E+00  0.00000000000E+00  0.24179938498E+02  0.24179938498E+02  0.00000000000E+00 0. -1.
         21   -1    0    0  501  502 -0.00000000000E+00 -0.00000000000E+00 -0.16154921156E+03  0.16154921156E+03  0.00000000000E+00 0. -1.
         25    1    1    2    0    0  0.00000000000E+00  0.00000000000E+00 -0.13736927306E+03  0.18572915006E+03  0.12500000000E+03 0.  0.
<mgrwt>
<rscale>  0 0.12500000E+03</rscale>
<asrwt>0</asrwt>
<pdfrwt beam="1">  1       21 0.37199907E-02 0.12500000E+03</pdfrwt>
<pdfrwt beam="2">  1       21 0.24853724E-01 0.12500000E+03</pdfrwt>
<totfact> 0.66500307E+06</totfact>
</mgrwt>
</event>
<event>
 3    1  0.1602107E-001  0.1250000E+03  0.7546771E-02  0.1235069E+00
         21   -1    0    0  502  501  0.00000000000E+00  0.00000000000E+00  0.33420741203E+01  0.33420741203E+01  0.00000000000E+00 0.  1.
         21   -1    0    0  501  502 -0.00000000000E+00 -0.00000000000E+00 -0.11688101040E+04  0.11688101040E+04  0.00000000000E+00 0.  1.
         25    1    1    2    0    0  0.00000000000E+00  0.00000000000E+00 -0.11654680299E+04  0.11721521781E+04  0.12500000000E+03 0.  0.
<mgrwt>
<rscale>  0 0.12500000E+03</rscale>
<asrwt>0</asrwt>
<pdfrwt beam="1">  1       21 0.51416493E-03 0.12500000E+03</pdfrwt>
<pdfrwt beam="2">  1       21 0.17981705E+00 0.12500000E+03</pdfrwt>
<totfact> 0.19707319E+06</totfact>
</mgrwt>
</event>
<event>
 3    1  0.1602107E-001  0.1250000E+03  0.7546771E-02  0.1235069E+00
         21   -1    0    0  502  501  0.00000000000E+00  0.00000000000E+00  0.28988239343E+03  0.28988239343E+03  0.00000000000E+00 0. -1.
         21   -1    0    0  501  502 -0.00000000000E+00 -0.00000000000E+00 -0.13475292355E+02  0.13475292355E+02  0.00000000000E+00 0. -1.
         25    1    1    2    0    0  0.00000000000E+00  0.00000000000E+00  0.27640710108E+03  0.30335768579E+03  0.12500000000E+03 0.  0.
<mgrwt>
<rscale>  0 0.12500000E+03</rscale>
<asrwt>0</asrwt>
<pdfrwt beam="1">  1       21 0.44597287E-01 0.12500000E+03</pdfrwt>
<pdfrwt beam="2">  1       21 0.20731221E-02 0.12500000E+03</pdfrwt>
<totfact> 0.55178288E+06</totfact>
</mgrwt>
</event>
<event>
 3    1  0.1602107E-001  0.1250000E+03  0.7546771E-02  0.1235069E+00
         21   -1    0    0  502  501  0.00000000000E+00  0.00000000000E+00  0.57304887671E+01  0.57304887671E+01  0.00000000000E+00 0. -1.
         21   -1    0    0  501  502 -0.00000000000E+00 -0.00000000000E+00 -0.68166087724E+03  0.68166087724E+03  0.00000000000E+00 0. -1.
         25    1    1    2    0    0  0.00000000000E+00  0.00000000000E+00 -0.67593038847E+03  0.68739136601E+03  0.12500000000E+03 0.  0.
<mgrwt>
<rscale>  0 0.12500000E+03</rscale>
<asrwt>0</asrwt>
<pdfrwt beam="1">  1       21 0.88161330E-03 0.12500000E+03</pdfrwt>
<pdfrwt beam="2">  1       21 0.10487095E+00 0.12500000E+03</pdfrwt>
<totfact> 0.33401929E+06</totfact>
</mgrwt>
</event>
<event>
 3    1  0.1602107E-001  0.1250000E+03  0.7546771E-02  0.1235069E+00
         21   -1    0    0  502  501  0.00000000000E+00  0.00000000000E+00  0.39624786838E+03  0.39624786838E+03  0.00000000000E+00 0. -1.
         21   -1    0    0  501  502 -0.00000000000E+00 -0.00000000000E+00 -0.98580971954E+01  0.98580971954E+01  0.00000000000E+00 0. -1.
         25    1    1    2    0    0  0.00000000000E+00  0.00000000000E+00  0.38638977119E+03  0.40610596558E+03  0.12500000000E+03 0.  0.
<mgrwt>
<rscale>  0 0.12500000E+03</rscale>
<asrwt>0</asrwt>
<pdfrwt beam="1">  1       21 0.60961198E-01 0.12500000E+03</pdfrwt>
<pdfrwt beam="2">  1       21 0.15166306E-02 0.12500000E+03</pdfrwt>
<totfact> 0.47638974E+06</totfact>
</mgrwt>
</event>
<event>
 3    1  0.1602107E-001  0.1250000E+03  0.7546771E-02  0.1235069E+00
         21   -1    0    0  502  501  0.00000000000E+00  0.00000000000E+00  0.85113607265E+02  0.85113607265E+02  0.00000000000E+00 0.  1.
         21   -1    0    0  501  502 -0.00000000000E+00 -0.00000000000E+00 -0.45894541725E+02  0.45894541725E+02  0.00000000000E+00 0.  1.
         25    1    1    2    0    0  0.00000000000E+00  0.00000000000E+00  0.39219065539E+02  0.13100814899E+03  0.12500000000E+03 0.  0.
<mgrwt>
<rscale>  0 0.12500000E+03</rscale>
<asrwt>0</asrwt>
<pdfrwt beam="1">  1       21 0.13094401E-01 0.12500000E+03</pdfrwt>
<pdfrwt beam="2">  1       21 0.70606987E-02 0.12500000E+03</pdfrwt>
<totfact> 0.73229573E+06</totfact>
</mgrwt>
</event>
<event>
 3    1  0.1602107E-001  0.1250000E+03  0.7546771E-02  0.1235069E+00
         21   -1    0    0  502  501  0.00000000000E+00  0.00000000000E+00  0.32524519154E+03  0.32524519154E+03  0.00000000000E+00 0. -1.
         21   -1    0    0  501  502 -0.00000000000E+00 -0.00000000000E+00 -0.12010169871E+02  0.12010169871E+02  0.00000000000E+00 0. -1.
         25    1    1    2    0    0  0.00000000000E+00  0.00000000000E+00  0.31323502166E+03  0.33725536141E+03  0.12500000000E+03 0.  0.
<mgrwt>
<rscale>  0 0.12500000E+03</rscale>
<asrwt>0</asrwt>
<pdfrwt beam="1">  1       21 0.50037715E-01 0.12500000E+03</pdfrwt>
<pdfrwt beam="2">  1       21 0.18477187E-02 0.12500000E+03</pdfrwt>
<totfact> 0.52493660E+06</totfact>
</mgrwt>
</event>
<event>
 3    1  0.1602107E-001  0.1250000E+03  0.7546771E-02  0.1235069E+00
         21   -1    0    0  502  501  0.00000000000E+00  0.00000000000E+00  0.26330179312E+02  0.26330179312E+02  0.00000000000E+00 0. -1.
         21   -1    0    0  501  502 -0.00000000000E+00 -0.00000000000E+00 -0.14835637668E+03  0.14835637668E+03  0.00000000000E+00 0. -1.
         25    1    1    2    0    0  0.00000000000E+00  0.00000000000E+00 -0.12202619736E+03  0.17468655599E+03  0.12500000000E+03 0.  0.
<mgrwt>
<rscale>  0 0.12500000E+03</rscale>
<asrwt>0</asrwt>
<pdfrwt beam="1">  1       21 0.40507968E-02 0.12500000E+03</pdfrwt>
<pdfrwt beam="2">  1       21 0.22824058E-01 0.12500000E+03</pdfrwt>
<totfact> 0.67766368E+06</totfact>
</mgrwt>
</event>
<event>
 3    1  0.1602107E-001  0.1250000E+03  0.7546771E-02  0.1235069E+00
         21   -1    0    0  502  501  0.00000000000E+00  0.00000000000E+00  0.41898814243E+02  0.41898814243E+02  0.00000000000E+00 0. -1.
         21   -1    0    0  501  502 -0.00000000000E+00 -0.00000000000E+00 -0.93230562024E+02  0.93230562024E+02  0.00000000000E+00 0. -1.
         25    1    1    2    0    0  0.00000000000E+00  0.00000000000E+00 -0.51331747782E+02  0.13512937627E+03  0.12500000000E+03 0.  0.
<mgrwt>
<rscale>  0 0.12500000E+03</rscale>
<asrwt>0</asrwt>
<pdfrwt beam="1">  1       21 0.64459715E-02 0.12500000E+03</pdfrwt>
<pdfrwt beam="2">  1       21 0.14343163E-01 0.12500000E+03</pdfrwt>
<totfact> 0.72679346E+06</totfact>
</mgrwt>
</event>
<event>
 3    1  0.1602107E-001  0.1250000E+03  0.7546771E-02  0.1235069E+00
         21   -1    0    0  502  501  0.00000000000E+00  0.00000000000E+00  0.61682669020E+02  0.61682669020E+02  0.00000000000E+00 0.  1.
         21   -1    0    0  501  502 -0.00000000000E+00 -0.00000000000E+00 -0.63328161087E+02  0.63328161087E+02  0.00000000000E+00 0.  1.
         25    1    1    2    0    0  0.00000000000E+00  0.00000000000E+00 -0.16454920669E+01  0.12501083011E+03  0.12500000000E+03 0.  0.
<mgrwt>
<rscale>  0 0.12500000E+03</rscale>
<asrwt>0</asrwt>
<pdfrwt beam="1">  1       21 0.94896413E-02 0.12500000E+03</pdfrwt>
<pdfrwt beam="2">  1       21 0.97427941E-02 0.12500000E+03</pdfrwt>
<totfact> 0.74042119E+06</totfact>
</mgrwt>
</event>
<event>
 3    1  0.1602107E-001  0.1250000E+03  0.7546771E-02  0.1235069E+00
         21   -1    0    0  502  501  0.00000000000E+00  0.00000000000E+00  0.59489766231E+02  0.59489766231E+02  0.00000000000E+00 0. -1.
         21   -1    0    0  501  502 -0.00000000000E+00 -0.00000000000E+00 -0.65662554209E+02  0.65662554209E+02  0.00000000000E+00 0. -1.
         25    1    1    2    0    0  0.00000000000E+00  0.00000000000E+00 -0.61727879776E+01  0.12515232044E+03  0.12500000000E+03 0.  0.
<mgrwt>
<rscale>  0 0.12500000E+03</rscale>
<asrwt>0</asrwt>
<pdfrwt beam="1">  1       21 0.91522718E-02 0.12500000E+03</pdfrwt>
<pdfrwt beam="2">  1       21 0.10101931E-01 0.12500000E+03</pdfrwt>
<totfact> 0.74023010E+06</totfact>
</mgrwt>
</event>
<event>
 3    1  0.1602107E-001  0.1250000E+03  0.7546771E-02  0.1235069E+00
         21   -1    0    0  502  501  0.00000000000E+00  0.00000000000E+00  0.47278843478E+02  0.47278843478E+02  0.00000000000E+00 0.  1.
         21   -1    0    0  501  502 -0.00000000000E+00 -0.00000000000E+00 -0.82621521862E+02  0.82621521862E+02  0.00000000000E+00 0.  1.
         25    1    1    2    0    0  0.00000000000E+00  0.00000000000E+00 -0.35342678384E+02  0.12990036534E+03  0.12500000000E+03 0.  0.
<mgrwt>
<rscale>  0 0.12500000E+03</rscale>
<asrwt>0</asrwt>
<pdfrwt beam="1">  1       21 0.72736684E-02 0.12500000E+03</pdfrwt>
<pdfrwt beam="2">  1       21 0.12711003E-01 0.12500000E+03</pdfrwt>
<totfact> 0.73378234E+06</totfact>
</mgrwt>
</event>
<event>
 3    1  0.1602107E-001  0.1250000E+03  0.7546771E-02  0.1235069E+00
         21   -1    0    0  502  501  0.00000000000E+00  0.00000000000E+00  0.24890908545E+03  0.24890908545E+03  0.00000000000E+00 0.  1.
         21   -1    0    0  501  502 -0.00000000000E+00 -0.00000000000E+00 -0.15693480987E+02  0.15693480987E+02  0.00000000000E+00 0.  1.
         25    1    1    2    0    0  0.00000000000E+00  0.00000000000E+00  0.23321560446E+03  0.26460256644E+03  0.12500000000E+03 0.  0.
<mgrwt>
<rscale>  0 0.12500000E+03</rscale>
<asrwt>0</asrwt>
<pdfrwt beam="1">  1       21 0.38293703E-01 0.12500000E+03</pdfrwt>
<pdfrwt beam="2">  1       21 0.24143819E-02 0.12500000E+03</pdfrwt>
<totfact> 0.58529975E+06</totfact>
</mgrwt>
</event>
<event>
 3    1  0.1602107E-001  0.1250000E+03  0.7546771E-02  0.1235069E+00
         21   -1    0    0  502  501  0.00000000000E+00  0.00000000000E+00  0.13631797146E+03  0.13631797146E+03  0.00000000000E+00 0. -1.
         21   -1    0    0  501  502 -0.00000000000E+00 -0.00000000000E+00 -0.28655429349E+02  0.28655429349E+02  0.00000000000E+00 0. -1.
         25    1    1    2    0    0  0.00000000000E+00  0.00000000000E+00  0.10766254211E+03  0.16497340080E+03  0.12500000000E+03 0.  0.
<mgrwt>
<rscale>  0 0.12500000E+03</rscale>
<asrwt>0</asrwt>
<pdfrwt beam="1">  1       21 0.20971995E-01 0.12500000E+03</pdfrwt>
<pdfrwt beam="2">  1       21 0.44085277E-02 0.12500000E+03</pdfrwt>
<totfact> 0.68916849E+06</totfact>
</mgrwt>
</event>
<event>
 3    1  0.1602107E-001  0.1250000E+03  0.7546771E-02  0.1235069E+00
         21   -1    0    0  502  501  0.00000000000E+00  0.00000000000E+00  0.57885382736E+02  0.57885382736E+02  0.00000000000E+00 0. -1.
         21   -1    0    0  501  502 -0.00000000000E+00 -0.00000000000E+00 -0.67482494118E+02  0.67482494118E+02  0.00000000000E+00 0. -1.
         25    1    1    2    0    0  0.00000000000E+00  0.00000000000E+00 -0.95971113814E+01  0.12536787685E+03  0.12500000000E+03 0.  0.
<mgrwt>
<rscale>  0 0.12500000E+03</rscale>
<asrwt>0</asrwt>
<pdfrwt beam="1">  1       21 0.89054435E-02 0.12500000E+03</pdfrwt>
<pdfrwt beam="2">  1       21 0.10381922E-01 0.12500000E+03</pdfrwt>
<totfact> 0.73993909E+06</totfact>
</mgrwt>
</event>
<event>
 3    1  0.1602107E-001  0.1250000E+03  0.7546771E-02  0.1235069E+00
         21   -1    0    0  502  501  0.00000000000E+00  0.00000000000E+00  0.86984375560E+01  0.86984375560E+01  0.00000000000E+00 0.  1.
         21   -1    0    0  501  502 -0.00000000000E+00 -0.00000000000E+00 -0.44907490280E+03  0.44907490280E+03  0.00000000000E+00 0.  1.
         25    1    1    2    0    0  0.00000000000E+00  0.00000000000E+00 -0.44037646525E+03  0.45777334036E+03  0.12500000000E+03 0.  0.
<mgrwt>
<rscale>  0 0.12500000E+03</rscale>
<asrwt>0</asrwt>
<pdfrwt beam="1">  1       21 0.13382209E-02 0.12500000E+03</pdfrwt>
<pdfrwt beam="2">  1       21 0.69088462E-01 0.12500000E+03</pdfrwt>
<totfact> 0.44430748E+06</totfact>
</mgrwt>
</event>
<event>
 3    1  0.1602107E-001  0.1250000E+03  0.7546771E-02  0.1235069E+00
         21   -1    0    0  502  501  0.00000000000E+00  0.00000000000E+00  0.54022195989E+02  0.54022195989E+02  0.00000000000E+00 0.  1.
         21   -1    0    0  501  502 -0.00000000000E+00 -0.00000000000E+00 -0.72308241612E+02  0.72308241612E+02  0.00000000000E+00 0.  1.
         25    1    1    2    0    0  0.00000000000E+00  0.00000000000E+00 -0.18286045623E+02  0.12633043760E+03  0.12500000000E+03 0.  0.
<mgrwt>
<rscale>  0 0.12500000E+03</rscale>
<asrwt>0</asrwt>
<pdfrwt beam="1">  1       21 0.83111071E-02 0.12500000E+03</pdfrwt>
<pdfrwt beam="2">  1       21 0.11124345E-01 0.12500000E+03</pdfrwt>
<totfact> 0.73860603E+06</totfact>
</mgrwt>
</event>
<event>
 3    1  0.1602107E-001  0.1250000E+03  0.7546771E-02  0.1235069E+00
         21   -1    0    0  502  501  0.00000000000E+00  0.00000000000E+00  0.89829209586E+02  0.89829209586E+02  0.00000000000E+00 0.  1.
         21   -1    0    0  501  502 -0.00000000000E+00 -0.00000000000E+00 -0.43485298579E+02  0.43485298579E+02  0.00000000000E+00 0.  1.
         25    1    1    2    0    0  0.00000000000E+00  0.00000000000E+00  0.46343911007E+02  0.13331450817E+03  0.12500000000E+03 0.  0.
<mgrwt>
<rscale>  0 0.12500000E+03</rscale>
<asrwt>0</asrwt>
<pdfrwt beam="1">  1       21 0.13819878E-01 0.12500000E+03</pdfrwt>
<pdfrwt beam="2">  1       21 0.66900460E-02 0.12500000E+03</pdfrwt>
<totfact> 0.72920430E+06</totfact>
</mgrwt>
</event>
<event>
 3    1  0.1602107E-001  0.1250000E+03  0.7546771E-02  0.1235069E+00
         21   -1    0    0  502  501  0.00000000000E+00  0.00000000000E+00  0.12130425533E+03  0.12130425533E+03  0.00000000000E+00 0. -1.
         21   -1    0    0  501  502 -0.00000000000E+00 -0.00000000000E+00 -0.32202085485E+02  0.32202085485E+02  0.00000000000E+00 0. -1.
         25    1    1    2    0    0  0.00000000000E+00  0.00000000000E+00  0.89102169850E+02  0.15350634082E+03  0.12500000000E+03 0.  0.
<mgrwt>
<rscale>  0 0.12500000E+03</rscale>
<asrwt>0</asrwt>
<pdfrwt beam="1">  1       21 0.18662193E-01 0.12500000E+03</pdfrwt>
<pdfrwt beam="2">  1       21 0.49541671E-02 0.12500000E+03</pdfrwt>
<totfact> 0.70321469E+06</totfact>
</mgrwt>
</event>
<event>
 3    1  0.1602107E-001  0.1250000E+03  0.7546771E-02  0.1235069E+00
         21   -1    0    0  502  501  0.00000000000E+00  0.00000000000E+00  0.19934602609E+01  0.19934602609E+01  0.00000000000E+00 0. -1.
         21   -1    0    0  501  502 -0.00000000000E+00 -0.00000000000E+00 -0.19595324154E+04  0.19595324154E+04  0.00000000000E+00 0. -1.
         25    1    1    2    0    0  0.00000000000E+00  0.00000000000E+00 -0.19575389551E+04  0.19615258757E+04  0.12500000000E+03 0.  0.
<mgrwt>
<rscale>  0 0.12500000E+03</rscale>
<asrwt>0</asrwt>
<pdfrwt beam="1">  1       21 0.30668756E-03 0.12500000E+03</pdfrwt>
<pdfrwt beam="2">  1       21 0.30146519E+00 0.12500000E+03</pdfrwt>
<totfact> 0.83294371E+05</totfact>
</mgrwt>
</event>
<event>
 3    1  0.1602107E-001  0.1250000E+03  0.7546771E-02  0.1235069E+00
         21   -1    0    0  502  501  0.00000000000E+00  0.00000000000E+00  0.29561872758E+03  0.29561872758E+03  0.00000000000E+00 0. -1.
         21   -1    0    0  501  502 -0.00000000000E+00 -0.00000000000E+00 -0.13213811019E+02  0.13213811019E+02  0.00000000000E+00 0. -1.
         25    1    1    2    0    0  0.00000000000E+00  0.00000000000E+00  0.28240491656E+03  0.30883253860E+03  0.12500000000E+03 0.  0.
<mgrwt>
<rscale>  0 0.12500000E+03</rscale>
<asrwt>0</asrwt>
<pdfrwt beam="1">  1       21 0.45479799E-01 0.12500000E+03</pdfrwt>
<pdfrwt beam="2">  1       21 0.20328942E-02 0.12500000E+03</pdfrwt>
<totfact> 0.54730053E+06</totfact>
</mgrwt>
</event>
<event>
 3    1  0.1602107E-001  0.1250000E+03  0.7546771E-02  0.1235069E+00
         21   -1    0    0  502  501  0.00000000000E+00  0.00000000000E+00  0.10526640891E+02  0.10526640891E+02  0.00000000000E+00 0. -1.
         21   -1    0    0  501  502 -0.00000000000E+00 -0.00000000000E+00 -0.37108228927E+03  0.37108228927E+03  0.00000000000E+00 0. -1.
         25    1    1    2    0    0  0.00000000000E+00  0.00000000000E+00 -0.36055564838E+03  0.38160893016E+03  0.12500000000E+03 0.  0.
<mgrwt>
<rscale>  0 0.12500000E+03</rscale>
<asrwt>0</asrwt>
<pdfrwt beam="1">  1       21 0.16194832E-02 0.12500000E+03</pdfrwt>
<pdfrwt beam="2">  1       21 0.57089583E-01 0.12500000E+03</pdfrwt>
<totfact> 0.49285444E+06</totfact>
</mgrwt>
</event>
<event>
 3    1  0.1602107E-001  0.1250000E+03  0.7546771E-02  0.1235069E+00
         21   -1    0    0  502  501  0.00000000000E+00  0.00000000000E+00  0.27524721421E+03  0.27524721421E+03  0.00000000000E+00 0.  1.
         21   -1    0    0  501  502 -0.00000000000E+00 -0.00000000000E+00 -0.14191787594E+02  0.14191787594E+02  0.00000000000E+00 0.  1.
         25    1    1    2    0    0  0.00000000000E+00  0.00000000000E+00  0.26105542662E+03  0.28943900181E+03  0.12500000000E+03 0.  0.
<mgrwt>
<rscale>  0 0.12500000E+03</rscale>
<asrwt>0</asrwt>
<pdfrwt beam="1">  1       21 0.42345721E-01 0.12500000E+03</pdfrwt>
<pdfrwt beam="2">  1       21 0.21833521E-02 0.12500000E+03</pdfrwt>
<totfact> 0.56345416E+06</totfact>
</mgrwt>
</event>
<event>
 3    1  0.1602107E-001  0.1250000E+03  0.7546771E-02  0.1235069E+00
         21   -1    0    0  502  501  0.00000000000E+00  0.00000000000E+00  0.77843747620E+01  0.77843747620E+01  0.00000000000E+00 0.  1.
         21   -1    0    0  501  502 -0.00000000000E+00 -0.00000000000E+00 -0.50180651875E+03  0.50180651875E+03  0.00000000000E+00 0.  1.
         25    1    1    2    0    0  0.00000000000E+00  0.00000000000E+00 -0.49402214399E+03  0.50959089351E+03  0.12500000000E+03 0.  0.
<mgrwt>
<rscale>  0 0.12500000E+03</rscale>
<asrwt>0</asrwt>
<pdfrwt beam="1">  1       21 0.11975961E-02 0.12500000E+03</pdfrwt>
<pdfrwt beam="2">  1       21 0.77201004E-01 0.12500000E+03</pdfrwt>
<totfact> 0.41528666E+06</totfact>
</mgrwt>
</event>
<event>
 3    1  0.1602107E-001  0.1250000E+03  0.7546771E-02  0.1235069E+00
         21   -1    0    0  502  501  0.00000000000E+00  0.00000000000E+00  0.47280610080E+01  0.47280610080E+01  0.00000000000E+00 0. -1.
         21   -1    0    0  501  502 -0.00000000000E+00 -0.00000000000E+00 -0.82618434775E+03  0.82618434775E+03  0.00000000000E+00 0. -1.
         25    1    1    2    0    0  0.00000000000E+00  0.00000000000E+00 -0.82145628674E+03  0.83091240876E+03  0.12500000000E+03 0.  0.
<mgrwt>
<rscale>  0 0.12500000E+03</rscale>
<asrwt>0</asrwt>
<pdfrwt beam="1">  1       21 0.72739382E-03 0.12500000E+03</pdfrwt>
<pdfrwt beam="2">  1       21 0.12710532E+00 0.12500000E+03</pdfrwt>
<totfact> 0.28363901E+06</totfact>
</mgrwt>
</event>
<event>
 3    1  0.1602107E-001  0.1250000E+03  0.7546771E-02  0.1235069E+00
         21   -1    0    0  502  501  0.00000000000E+00  0.00000000000E+00  0.99224011663E+03  0.99224011663E+03  0.00000000000E+00 0.  1.
         21   -1    0    0  501  502 -0.00000000000E+00 -0.00000000000E+00 -0.39367991019E+01  0.39367991019E+01  0.00000000000E+00 0.  1.
         25    1    1    2    0    0  0.00000000000E+00  0.00000000000E+00  0.98830331752E+03  0.99617691573E+03  0.12500000000E+03 0.  0.
<mgrwt>
<rscale>  0 0.12500000E+03</rscale>
<asrwt>0</asrwt>
<pdfrwt beam="1">  1       21 0.15265213E+00 0.12500000E+03</pdfrwt>
<pdfrwt beam="2">  1       21 0.60566219E-03 0.12500000E+03</pdfrwt>
<totfact> 0.23714456E+06</totfact>
</mgrwt>
</event>
<event>
 3    1  0.1602107E-001  0.1250000E+03  0.7546771E-02  0.1235069E+00
         21   -1    0    0  502  501  0.00000000000E+00  0.00000000000E+00  0.20533185796E+03  0.20533185796E+03  0.00000000000E+00 0. -1.
         21   -1    0    0  501  502 -0.00000000000E+00 -0.00000000000E+00 -0.19024081498E+02  0.19024081498E+02  0.00000000000E+00 0. -1.
         25    1    1    2    0    0  0.00000000000E+00  0.00000000000E+00  0.18630777646E+03  0.22435593946E+03  0.12500000000E+03 0.  0.
<mgrwt>
<rscale>  0 0.12500000E+03</rscale>
<asrwt>0</asrwt>
<pdfrwt beam="1">  1       21 0.31589515E-01 0.12500000E+03</pdfrwt>
<pdfrwt beam="2">  1       21 0.29267819E-02 0.12500000E+03</pdfrwt>
<totfact> 0.62380056E+06</totfact>
</mgrwt>
</event>
<event>
 3    1  0.1602107E-001  0.1250000E+03  0.7546771E-02  0.1235069E+00
         21   -1    0    0  502  501  0.00000000000E+00  0.00000000000E+00  0.22260017548E+02  0.22260017548E+02  0.00000000000E+00 0.  1.
         21   -1    0    0  501  502 -0.00000000000E+00 -0.00000000000E+00 -0.17548279069E+03  0.17548279069E+03  0.00000000000E+00 0.  1.
         25    1    1    2    0    0  0.00000000000E+00  0.00000000000E+00 -0.15322277314E+03  0.19774280823E+03  0.12500000000E+03 0.  0.
<mgrwt>
<rscale>  0 0.12500000E+03</rscale>
<asrwt>0</asrwt>
<pdfrwt beam="1">  1       21 0.34246181E-02 0.12500000E+03</pdfrwt>
<pdfrwt beam="2">  1       21 0.26997353E-01 0.12500000E+03</pdfrwt>
<totfact> 0.65172074E+06</totfact>
</mgrwt>
</event>
<event>
 3    1  0.1602107E-001  0.1250000E+03  0.7546771E-02  0.1235069E+00
         21   -1    0    0  502  501  0.00000000000E+00  0.00000000000E+00  0.95064498468E+03  0.95064498468E+03  0.00000000000E+00 0. -1.
         21   -1    0    0  501  502 -0.00000000000E+00 -0.00000000000E+00 -0.41090523412E+01  0.41090523412E+01  0.00000000000E+00 0. -1.
         25    1    1    2    0    0  0.00000000000E+00  0.00000000000E+00  0.94653593234E+03  0.95475403702E+03  0.12500000000E+03 0.  0.
<mgrwt>
<rscale>  0 0.12500000E+03</rscale>
<asrwt>0</asrwt>
<pdfrwt beam="1">  1       21 0.14625290E+00 0.12500000E+03</pdfrwt>
<pdfrwt beam="2">  1       21 0.63216266E-03 0.12500000E+03</pdfrwt>
<totfact> 0.24784581E+06</totfact>
</mgrwt>
</event>
<event>
 3    1  0.1602107E-001  0.1250000E+03  0.7546771E-02  0.1235069E+00
         21   -1    0    0  502  501  0.00000000000E+00  0.00000000000E+00  0.22790683030E+02  0.22790683030E+02  0.00000000000E+00 0. -1.
         21   -1    0    0  501  502 -0.00000000000E+00 -0.00000000000E+00 -0.17139679381E+03  0.17139679381E+03  0.00000000000E+00 0. -1.
         25    1    1    2    0    0  0.00000000000E+00  0.00000000000E+00 -0.14860611078E+03  0.19418747684E+03  0.12500000000E+03 0.  0.
<mgrwt>
<rscale>  0 0.12500000E+03</rscale>
<asrwt>0</asrwt>
<pdfrwt beam="1">  1       21 0.35062588E-02 0.12500000E+03</pdfrwt>
<pdfrwt beam="2">  1       21 0.26368739E-01 0.12500000E+03</pdfrwt>
<totfact> 0.65560059E+06</totfact>
</mgrwt>
</event>
<event>
 3    1  0.1602107E-001  0.1250000E+03  0.7546771E-02  0.1235069E+00
         21   -1    0    0  502  501  0.00000000000E+00  0.00000000000E+00  0.71930507161E+03  0.71930507161E+03  0.00000000000E+00 0.  1.
         21   -1    0    0  501  502 -0.00000000000E+00 -0.00000000000E+00 -0.54305887087E+01  0.54305887087E+01  0.00000000000E+00 0.  1.
         25    1    1    2    0    0  0.00000000000E+00  0.00000000000E+00  0.71387448290E+03  0.72473566032E+03  0.12500000000E+03 0.  0.
<mgrwt>
<rscale>  0 0.12500000E+03</rscale>
<asrwt>0</asrwt>
<pdfrwt beam="1">  1       21 0.11066224E+00 0.12500000E+03</pdfrwt>
<pdfrwt beam="2">  1       21 0.83547576E-03 0.12500000E+03</pdfrwt>
<totfact> 0.31978055E+06</totfact>
</mgrwt>
</event>
<event>
 3    1  0.1602107E-001  0.1250000E+03  0.7546771E-02  0.1235069E+00
         21   -1    0    0  502  501  0.00000000000E+00  0.00000000000E+00  0.39935096358E+01  0.39935096358E+01  0.00000000000E+00 0.  1.
         21   -1    0    0  501  502 -0.00000000000E+00 -0.00000000000E+00 -0.97814963686E+03  0.97814963686E+03  0.00000000000E+00 0.  1.
         25    1    1    2    0    0  0.00000000000E+00  0.00000000000E+00 -0.97415612722E+03  0.98214314649E+03  0.12500000000E+03 0.  0.
<mgrwt>
<rscale>  0 0.12500000E+03</rscale>
<asrwt>0</asrwt>
<pdfrwt beam="1">  1       21 0.61438636E-03 0.12500000E+03</pdfrwt>
<pdfrwt beam="2">  1       21 0.15048449E+00 0.12500000E+03</pdfrwt>
<totfact> 0.24070117E+06</totfact>
</mgrwt>
</event>
<event>
 3    1  0.1602107E-001  0.1250000E+03  0.7546771E-02  0.1235069E+00
         21   -1    0    0  502  501  0.00000000000E+00  0.00000000000E+00  0.53520182706E+02  0.53520182706E+02  0.00000000000E+00 0.  1.
         21   -1    0    0  501  502 -0.00000000000E+00 -0.00000000000E+00 -0.72986484771E+02  0.72986484771E+02  0.00000000000E+00 0.  1.
         25    1    1    2    0    0  0.00000000000E+00  0.00000000000E+00 -0.19466302066E+02  0.12650666748E+03  0.12500000000E+03 0.  0.
<mgrwt>
<rscale>  0 0.12500000E+03</rscale>
<asrwt>0</asrwt>
<pdfrwt beam="1">  1       21 0.82338743E-02 0.12500000E+03</pdfrwt>
<pdfrwt beam="2">  1       21 0.11228690E-01 0.12500000E+03</pdfrwt>
<totfact> 0.73836461E+06</totfact>
</mgrwt>
</event>
<event>
 3    1  0.1602107E-001  0.1250000E+03  0.7546771E-02  0.1235069E+00
         21   -1    0    0  502  501  0.00000000000E+00  0.00000000000E+00  0.21907501538E+03  0.21907501538E+03  0.00000000000E+00 0.  1.
         21   -1    0    0  501  502 -0.00000000000E+00 -0.00000000000E+00 -0.17830650352E+02  0.17830650352E+02  0.00000000000E+00 0.  1.
         25    1    1    2    0    0  0.00000000000E+00  0.00000000000E+00  0.20124436502E+03  0.23690566573E+03  0.12500000000E+03 0.  0.
<mgrwt>
<rscale>  0 0.12500000E+03</rscale>
<asrwt>0</asrwt>
<pdfrwt beam="1">  1       21 0.33703847E-01 0.12500000E+03</pdfrwt>
<pdfrwt beam="2">  1       21 0.27431771E-02 0.12500000E+03</pdfrwt>
<totfact> 0.61133387E+06</totfact>
</mgrwt>
</event>
<event>
 3    1  0.1602107E-001  0.1250000E+03  0.7546771E-02  0.1235069E+00
         21   -1    0    0  502  501  0.00000000000E+00  0.00000000000E+00  0.29354034097E+02  0.29354034097E+02  0.00000000000E+00 0. -1.
         21   -1    0    0  501  502 -0.00000000000E+00 -0.00000000000E+00 -0.13307370248E+03  0.13307370248E+03  0.00000000000E+00 0. -1.
         25    1    1    2    0    0  0.00000000000E+00  0.00000000000E+00 -0.10371966838E+03  0.16242773658E+03  0.12500000000E+03 0.  0.
<mgrwt>
<rscale>  0 0.12500000E+03</rscale>
<asrwt>0</asrwt>
<pdfrwt beam="1">  1       21 0.45160052E-02 0.12500000E+03</pdfrwt>
<pdfrwt beam="2">  1       21 0.20472877E-01 0.12500000E+03</pdfrwt>
<totfact> 0.69224063E+06</totfact>
</mgrwt>
</event>
<event>
 3    1  0.1602107E-001  0.1250000E+03  0.7546771E-02  0.1235069E+00
         21   -1    0    0  502  501  0.00000000000E+00  0.00000000000E+00  0.11894098436E+03  0.11894098436E+03  0.00000000000E+00 0.  1.
         21   -1    0    0  501  502 -0.00000000000E+00 -0.00000000000E+00 -0.32841917537E+02  0.32841917537E+02  0.00000000000E+00 0.  1.
         25    1    1    2    0    0  0.00000000000E+00  0.00000000000E+00  0.86099066820E+02  0.15178290189E+03  0.12500000000E+03 0.  0.
<mgrwt>
<rscale>  0 0.12500000E+03</rscale>
<asrwt>0</asrwt>
<pdfrwt beam="1">  1       21 0.18298613E-01 0.12500000E+03</pdfrwt>
<pdfrwt beam="2">  1       21 0.50526028E-02 0.12500000E+03</pdfrwt>
<totfact> 0.70535949E+06</totfact>
</mgrwt>
</event>
<event>
 3    1  0.1602107E-001  0.1250000E+03  0.7546771E-02  0.1235069E+00
         21   -1    0    0  502  501  0.00000000000E+00  0.00000000000E+00  0.10136022186E+02  0.10136022186E+02  0.00000000000E+00 0.  1.
         21   -1    0    0  501  502 -0.00000000000E+00 -0.00000000000E+00 -0.38538293705E+03  0.38538293705E+03  0.00000000000E+00 0.  1.
         25    1    1    2    0    0  0.00000000000E+00  0.00000000000E+00 -0.37524691487E+03  0.39551895924E+03  0.12500000000E+03 0.  0.
<mgrwt>
<rscale>  0 0.12500000E+03</rscale>
<asrwt>0</asrwt>
<pdfrwt beam="1">  1       21 0.15593881E-02 0.12500000E+03</pdfrwt>
<pdfrwt beam="2">  1       21 0.59289679E-01 0.12500000E+03</pdfrwt>
<totfact> 0.48340002E+06</totfact>
</mgrwt>
</event>
<event>
 3    1  0.1602107E-001  0.1250000E+03  0.7546771E-02  0.1235069E+00
         21   -1    0    0  502  501  0.00000000000E+00  0.00000000000E+00  0.21634862078E+02  0.21634862078E+02  0.00000000000E+00 0. -1.
         21   -1    0    0  501  502 -0.00000000000E+00 -0.00000000000E+00 -0.18055349675E+03  0.18055349675E+03  0.00000000000E+00 0. -1.
         25    1    1    2    0    0  0.00000000000E+00  0.00000000000E+00 -0.15891863468E+03  0.20218835883E+03  0.12500000000E+03 0.  0.
<mgrwt>
<rscale>  0 0.12500000E+03</rscale>
<asrwt>0</asrwt>
<pdfrwt beam="1">  1       21 0.33284403E-02 0.12500000E+03</pdfrwt>
<pdfrwt beam="2">  1       21 0.27777462E-01 0.12500000E+03</pdfrwt>
<totfact> 0.64690897E+06</totfact>
</mgrwt>
</event>
<event>
 3    1  0.1602107E-001  0.1250000E+03  0.7546771E-02  0.1235069E+00
         21   -1    0    0  502  501  0.00000000000E+00  0.00000000000E+00  0.92973782139E+01  0.92973782139E+01  0.00000000000E+00 0. -1.
         21   -1    0    0  501  502 -0.00000000000E+00 -0.00000000000E+00 -0.42014532593E+03  0.42014532593E+03  0.00000000000E+00 0. -1.
         25    1    1    2    0    0  0.00000000000E+00  0.00000000000E+00 -0.41084794772E+03  0.42944270415E+03  0.12500000000E+03 0.  0.
<mgrwt>
<rscale>  0 0.12500000E+03</rscale>
<asrwt>0</asrwt>
<pdfrwt beam="1">  1       21 0.14303660E-02 0.12500000E+03</pdfrwt>
<pdfrwt beam="2">  1       21 0.64637739E-01 0.12500000E+03</pdfrwt>
<totfact> 0.46147855E+06</totfact>
</mgrwt>
</event>
<event>
 3    1  0.1602107E-001  0.1250000E+03  0.7546771E-02  0.1235069E+00
         21   -1    0    0  502  501  0.00000000000E+00  0.00000000000E+00  0.34529121089E+02  0.34529121089E+02  0.00000000000E+00 0. -1.
         21   -1    0    0  501  502 -0.00000000000E+00 -0.00000000000E+00 -0.11312914655E+03  0.11312914655E+03  0.00000000000E+00 0. -1.
         25    1    1    2    0    0  0.00000000000E+00  0.00000000000E+00 -0.78600025464E+02  0.14765826764E+03  0.12500000000E+03 0.  0.
<mgrwt>
<rscale>  0 0.12500000E+03</rscale>
<asrwt>0</asrwt>
<pdfrwt beam="1">  1       21 0.53121726E-02 0.12500000E+03</pdfrwt>
<pdfrwt beam="2">  1       21 0.17404484E-01 0.12500000E+03</pdfrwt>
<totfact> 0.71054619E+06</totfact>
</mgrwt>
</event>
<event>
 3    1  0.1602107E-001  0.1250000E+03  0.7546771E-02  0.1235069E+00
         21   -1    0    0  502  501  0.00000000000E+00  0.00000000000E+00  0.15284267170E+04  0.15284267170E+04  0.00000000000E+00 0. -1.
         21   -1    0    0  501  502 -0.00000000000E+00 -0.00000000000E+00 -0.25557326083E+01  0.25557326083E+01  0.00000000000E+00 0. -1.
         25    1    1    2    0    0  0.00000000000E+00  0.00000000000E+00  0.15258709844E+04  0.15309824496E+04  0.12500000000E+03 0.  0.
<mgrwt>
<rscale>  0 0.12500000E+03</rscale>
<asrwt>0</asrwt>
<pdfrwt beam="1">  1       21 0.23514184E+00 0.12500000E+03</pdfrwt>
<pdfrwt beam="2">  1       21 0.39319085E-03 0.12500000E+03</pdfrwt>
<totfact> 0.13539634E+06</totfact>
</mgrwt>
</event>
<event>
 3    1  0.1602107E-001  0.1250000E+03  0.7546771E-02  0.1235069E+00
         21   -1    0    0  502  501  0.00000000000E+00  0.00000000000E+00  0.19157894744E+02  0.19157894744E+02  0.00000000000E+00 0.  1.
         21   -1    0    0  501  502 -0.00000000000E+00 -0.00000000000E+00 -0.20389766476E+03  0.20389766476E+03  0.00000000000E+00 0.  1.
         25    1    1    2    0    0  0.00000000000E+00  0.00000000000E+00 -0.18473977001E+03  0.22305555950E+03  0.12500000000E+03 0.  0.
<mgrwt>
<rscale>  0 0.12500000E+03</rscale>
<asrwt>0</asrwt>
<pdfrwt beam="1">  1       21 0.29473684E-02 0.12500000E+03</pdfrwt>
<pdfrwt beam="2">  1       21 0.31368871E-01 0.12500000E+03</pdfrwt>
<totfact> 0.62511575E+06</totfact>
</mgrwt>
</event>
<event>
 3    1  0.1602107E-001  0.1250000E+03  0.7546771E-02  0.1235069E+00
         21   -1    0    0  502  501  0.00000000000E+00  0.00000000000E+00  0.25288730401E+02  0.25288730401E+02  0.00000000000E+00 0. -1.
         21   -1    0    0  501  502 -0.00000000000E+00 -0.00000000000E+00 -0.15446603835E+03  0.15446603835E+03  0.00000000000E+00 0. -1.
         25    1    1    2    0    0  0.00000000000E+00  0.00000000000E+00 -0.12917730795E+03  0.17975476875E+03  0.12500000000E+03 0.  0.
<mgrwt>
<rscale>  0 0.12500000E+03</rscale>
<asrwt>0</asrwt>
<pdfrwt beam="1">  1       21 0.38905738E-02 0.12500000E+03</pdfrwt>
<pdfrwt beam="2">  1       21 0.23764006E-01 0.12500000E+03</pdfrwt>
<totfact> 0.67179679E+06</totfact>
</mgrwt>
</event>
<event>
 3    1  0.1602107E-001  0.1250000E+03  0.7546771E-02  0.1235069E+00
         21   -1    0    0  502  501  0.00000000000E+00  0.00000000000E+00  0.54019668917E+02  0.54019668917E+02  0.00000000000E+00 0.  1.
         21   -1    0    0  501  502 -0.00000000000E+00 -0.00000000000E+00 -0.72311624234E+02  0.72311624234E+02  0.00000000000E+00 0.  1.
         25    1    1    2    0    0  0.00000000000E+00  0.00000000000E+00 -0.18291955317E+02  0.12633129315E+03  0.12500000000E+03 0.  0.
<mgrwt>
<rscale>  0 0.12500000E+03</rscale>
<asrwt>0</asrwt>
<pdfrwt beam="1">  1       21 0.83107183E-02 0.12500000E+03</pdfrwt>
<pdfrwt beam="2">  1       21 0.11124865E-01 0.12500000E+03</pdfrwt>
<totfact> 0.73860486E+06</totfact>
</mgrwt>
</event>
<event>
 3    1  0.1602107E-001  0.1250000E+03  0.7546771E-02  0.1235069E+00
         21   -1    0    0  502  501  0.00000000000E+00  0.00000000000E+00  0.40530065549E+03  0.40530065549E+03  0.00000000000E+00 0. -1.
         21   -1    0    0  501  502 -0.00000000000E+00 -0.00000000000E+00 -0.96379069393E+01  0.96379069393E+01  0.00000000000E+00 0. -1.
         25    1    1    2    0    0  0.00000000000E+00  0.00000000000E+00  0.39566274855E+03  0.41493856242E+03  0.12500000000E+03 0.  0.
<mgrwt>
<rscale>  0 0.12500000E+03</rscale>
<asrwt>0</asrwt>
<pdfrwt beam="1">  1       21 0.62353934E-01 0.12500000E+03</pdfrwt>
<pdfrwt beam="2">  1       21 0.14827552E-02 0.12500000E+03</pdfrwt>
<totfact> 0.47066029E+06</totfact>
</mgrwt>
</event>
<event>
 3    1  0.1602107E-001  0.1250000E+03  0.7546771E-02  0.1235069E+00
         21   -1    0    0  502  501  0.00000000000E+00  0.00000000000E+00  0.31530109418E+02  0.31530109418E+02  0.00000000000E+00 0. -1.
         21   -1    0    0  501  502 -0.00000000000E+00 -0.00000000000E+00 -0.12388951615E+03  0.12388951615E+03  0.00000000000E+00 0. -1.
         25    1    1    2    0    0  0.00000000000E+00  0.00000000000E+00 -0.92359406732E+02  0.15541962557E+03  0.12500000000E+03 0.  0.
<mgrwt>
<rscale>  0 0.12500000E+03</rscale>
<asrwt>0</asrwt>
<pdfrwt beam="1">  1       21 0.48507862E-02 0.12500000E+03</pdfrwt>
<pdfrwt beam="2">  1       21 0.19059925E-01 0.12500000E+03</pdfrwt>
<totfact> 0.70083543E+06</totfact>
</mgrwt>
</event>
<event>
 3    1  0.1602107E-001  0.1250000E+03  0.7546771E-02  0.1235069E+00
         21   -1    0    0  502  501  0.00000000000E+00  0.00000000000E+00  0.34587730792E+02  0.34587730792E+02  0.00000000000E+00 0.  1.
         21   -1    0    0  501  502 -0.00000000000E+00 -0.00000000000E+00 -0.11293744662E+03  0.11293744662E+03  0.00000000000E+00 0.  1.
         25    1    1    2    0    0  0.00000000000E+00  0.00000000000E+00 -0.78349715827E+02  0.14752517741E+03  0.12500000000E+03 0.  0.
<mgrwt>
<rscale>  0 0.12500000E+03</rscale>
<asrwt>0</asrwt>
<pdfrwt beam="1">  1       21 0.53211895E-02 0.12500000E+03</pdfrwt>
<pdfrwt beam="2">  1       21 0.17374991E-01 0.12500000E+03</pdfrwt>
<totfact> 0.71071486E+06</totfact>
</mgrwt>
</event>
<event>
 3    1  0.1602107E-001  0.1250000E+03  0.7546771E-02  0.1235069E+00
         21   -1    0    0  502  501  0.00000000000E+00  0.00000000000E+00  0.11235613793E+02  0.11235613793E+02  0.00000000000E+00 0. -1.
         21   -1    0    0  501  502 -0.00000000000E+00 -0.00000000000E+00 -0.34766680950E+03  0.34766680950E+03  0.00000000000E+00 0. -1.
         25    1    1    2    0    0  0.00000000000E+00  0.00000000000E+00 -0.33643119570E+03  0.35890242329E+03  0.12500000000E+03 0.  0.
<mgrwt>
<rscale>  0 0.12500000E+03</rscale>
<asrwt>0</asrwt>
<pdfrwt beam="1">  1       21 0.17285561E-02 0.12500000E+03</pdfrwt>
<pdfrwt beam="2">  1       21 0.53487198E-01 0.12500000E+03</pdfrwt>
<totfact> 0.50887611E+06</totfact>
</mgrwt>
</event>
<event>
 3    1  0.1602107E-001  0.1250000E+03  0.7546771E-02  0.1235069E+00
         21   -1    0    0  502  501  0.00000000000E+00  0.00000000000E+00  0.11966760152E+03  0.11966760152E+03  0.00000000000E+00 0.  1.
         21   -1    0    0  501  502 -0.00000000000E+00 -0.00000000000E+00 -0.32642502653E+02  0.32642502653E+02  0.00000000000E+00 0.  1.
         25    1    1    2    0    0  0.00000000000E+00  0.00000000000E+00  0.87025098864E+02  0.15231010417E+03  0.12500000000E+03 0.  0.
<mgrwt>
<rscale>  0 0.12500000E+03</rscale>
<asrwt>0</asrwt>
<pdfrwt beam="1">  1       21 0.18410400E-01 0.12500000E+03</pdfrwt>
<pdfrwt beam="2">  1       21 0.50219236E-02 0.12500000E+03</pdfrwt>
<totfact> 0.70470202E+06</totfact>
</mgrwt>
</event>
<event>
 3    1  0.1602107E-001  0.1250000E+03  0.7546771E-02  0.1235069E+00
         21   -1    0    0  502  501  0.00000000000E+00  0.00000000000E+00  0.23372889542E+02  0.23372889542E+02  0.00000000000E+00 0.  1.
         21   -1    0    0  501  502 -0.00000000000E+00 -0.00000000000E+00 -0.16712738889E+03  0.16712738889E+03  0.00000000000E+00 0.  1.
         25    1    1    2    0    0  0.00000000000E+00  0.00000000000E+00 -0.14375449935E+03  0.19050027843E+03  0.12500000000E+03 0.  0.
<mgrwt>
<rscale>  0 0.12500000E+03</rscale>
<asrwt>0</asrwt>
<pdfrwt beam="1">  1       21 0.35958292E-02 0.12500000E+03</pdfrwt>
<pdfrwt beam="2">  1       21 0.25711906E-01 0.12500000E+03</pdfrwt>
<totfact> 0.65966906E+06</totfact>
</mgrwt>
</event>
<event>
 3    1  0.1602107E-001  0.1250000E+03  0.7546771E-02  0.1235069E+00
         21   -1    0    0  502  501  0.00000000000E+00  0.00000000000E+00  0.37254923621E+02  0.37254923621E+02  0.00000000000E+00 0.  1.
         21   -1    0    0  501  502 -0.00000000000E+00 -0.00000000000E+00 -0.10485191272E+03  0.10485191272E+03  0.00000000000E+00 0.  1.
         25    1    1    2    0    0  0.00000000000E+00  0.00000000000E+00 -0.67596989102E+02  0.14210683634E+03  0.12500000000E+03 0.  0.
<mgrwt>
<rscale>  0 0.12500000E+03</rscale>
<asrwt>0</asrwt>
<pdfrwt beam="1">  1       21 0.57315268E-02 0.12500000E+03</pdfrwt>
<pdfrwt beam="2">  1       21 0.16131063E-01 0.12500000E+03</pdfrwt>
<totfact> 0.71765445E+06</totfact>
</mgrwt>
</event>
<event>
 3    1  0.1602107E-001  0.1250000E+03  0.7546771E-02  0.1235069E+00
         21   -1    0    0  502  501  0.00000000000E+00  0.00000000000E+00  0.76527618702E+01  0.76527618702E+01  0.00000000000E+00 0. -1.
         21   -1    0    0  501  502 -0.00000000000E+00 -0.00000000000E+00 -0.51043663271E+03  0.51043663271E+03  0.00000000000E+00 0. -1.
         25    1    1    2    0    0  0.00000000000E+00  0.00000000000E+00 -0.50278387084E+03  0.51808939458E+03  0.12500000000E+03 0.  0.
<mgrwt>
<rscale>  0 0.12500000E+03</rscale>
<asrwt>0</asrwt>
<pdfrwt beam="1">  1       21 0.11773483E-02 0.12500000E+03</pdfrwt>
<pdfrwt beam="2">  1       21 0.78528693E-01 0.12500000E+03</pdfrwt>
<totfact> 0.41079739E+06</totfact>
</mgrwt>
</event>
<event>
 3    1  0.1602107E-001  0.1250000E+03  0.7546771E-02  0.1235069E+00
         21   -1    0    0  502  501  0.00000000000E+00  0.00000000000E+00  0.44680106375E+02  0.44680106375E+02  0.00000000000E+00 0.  1.
         21   -1    0    0  501  502 -0.00000000000E+00 -0.00000000000E+00 -0.87427052372E+02  0.87427052372E+02  0.00000000000E+00 0.  1.
         25    1    1    2    0    0  0.00000000000E+00  0.00000000000E+00 -0.42746945997E+02  0.13210715875E+03  0.12500000000E+03 0.  0.
<mgrwt>
<rscale>  0 0.12500000E+03</rscale>
<asrwt>0</asrwt>
<pdfrwt beam="1">  1       21 0.68738626E-02 0.12500000E+03</pdfrwt>
<pdfrwt beam="2">  1       21 0.13450316E-01 0.12500000E+03</pdfrwt>
<totfact> 0.73081859E+06</totfact>
</mgrwt>
</event>
<event>
 3    1  0.1602107E-001  0.1250000E+03  0.7546771E-02  0.1235069E+00
         21   -1    0    0  502  501  0.00000000000E+00  0.00000000000E+00  0.19546571903E+03  0.19546571903E+03  0.00000000000E+00 0. -1.
         21   -1    0    0  501  502 -0.00000000000E+00 -0.00000000000E+00 -0.19984322670E+02  0.19984322670E+02  0.00000000000E+00 0. -1.
         25    1    1    2    0    0  0.00000000000E+00  0.00000000000E+00  0.17548139636E+03  0.21545004170E+03  0.12500000000E+03 0.  0.
<mgrwt>
<rscale>  0 0.12500000E+03</rscale>
<asrwt>0</asrwt>
<pdfrwt beam="1">  1       21 0.30071648E-01 0.12500000E+03</pdfrwt>
<pdfrwt beam="2">  1       21 0.30745113E-02 0.12500000E+03</pdfrwt>
<totfact> 0.63290652E+06</totfact>
</mgrwt>
</event>
<event>
 3    1  0.1602107E-001  0.1250000E+03  0.7546771E-02  0.1235069E+00
         21   -1    0    0  502  501  0.00000000000E+00  0.00000000000E+00  0.29325629462E+03  0.29325629462E+03  0.00000000000E+00 0. -1.
         21   -1    0    0  501  502 -0.00000000000E+00 -0.00000000000E+00 -0.13320259690E+02  0.13320259690E+02  0.00000000000E+00 0. -1.
         25    1    1    2    0    0  0.00000000000E+00  0.00000000000E+00  0.27993603493E+03  0.30657655431E+03  0.12500000000E+03 0.  0.
<mgrwt>
<rscale>  0 0.12500000E+03</rscale>
<asrwt>0</asrwt>
<pdfrwt beam="1">  1       21 0.45116348E-01 0.12500000E+03</pdfrwt>
<pdfrwt beam="2">  1       21 0.20492709E-02 0.12500000E+03</pdfrwt>
<totfact> 0.54914029E+06</totfact>
</mgrwt>
</event>
<event>
 3    1  0.1602107E-001  0.1250000E+03  0.7546771E-02  0.1235069E+00
         21   -1    0    0  502  501  0.00000000000E+00  0.00000000000E+00  0.39661916335E+01  0.39661916335E+01  0.00000000000E+00 0. -1.
         21   -1    0    0  501  502 -0.00000000000E+00 -0.00000000000E+00 -0.98488685393E+03  0.98488685393E+03  0.00000000000E+00 0. -1.
         25    1    1    2    0    0  0.00000000000E+00  0.00000000000E+00 -0.98092066230E+03  0.98885304557E+03  0.12500000000E+03 0.  0.
<mgrwt>
<rscale>  0 0.12500000E+03</rscale>
<asrwt>0</asrwt>
<pdfrwt beam="1">  1       21 0.61018359E-03 0.12500000E+03</pdfrwt>
<pdfrwt beam="2">  1       21 0.15152099E+00 0.12500000E+03</pdfrwt>
<totfact> 0.23899207E+06</totfact>
</mgrwt>
</event>
<event>
 3    1  0.1602107E-001  0.1250000E+03  0.7546771E-02  0.1235069E+00
         21   -1    0    0  502  501  0.00000000000E+00  0.00000000000E+00  0.31643737017E+02  0.31643737017E+02  0.00000000000E+00 0. -1.
         21   -1    0    0  501  502 -0.00000000000E+00 -0.00000000000E+00 -0.12344464871E+03  0.12344464871E+03  0.00000000000E+00 0. -1.
         25    1    1    2    0    0  0.00000000000E+00  0.00000000000E+00 -0.91800911697E+02  0.15508838573E+03  0.12500000000E+03 0.  0.
<mgrwt>
<rscale>  0 0.12500000E+03</rscale>
<asrwt>0</asrwt>
<pdfrwt beam="1">  1       21 0.48682673E-02 0.12500000E+03</pdfrwt>
<pdfrwt beam="2">  1       21 0.18991484E-01 0.12500000E+03</pdfrwt>
<totfact> 0.70124675E+06</totfact>
</mgrwt>
</event>
<event>
 3    1  0.1602107E-001  0.1250000E+03  0.7546771E-02  0.1235069E+00
         21   -1    0    0  502  501  0.00000000000E+00  0.00000000000E+00  0.27370078940E+02  0.27370078940E+02  0.00000000000E+00 0. -1.
         21   -1    0    0  501  502 -0.00000000000E+00 -0.00000000000E+00 -0.14271971990E+03  0.14271971990E+03  0.00000000000E+00 0. -1.
         25    1    1    2    0    0  0.00000000000E+00  0.00000000000E+00 -0.11534964096E+03  0.17008979884E+03  0.12500000000E+03 0.  0.
<mgrwt>
<rscale>  0 0.12500000E+03</rscale>
<asrwt>0</asrwt>
<pdfrwt beam="1">  1       21 0.42107815E-02 0.12500000E+03</pdfrwt>
<pdfrwt beam="2">  1       21 0.21956879E-01 0.12500000E+03</pdfrwt>
<totfact> 0.68306992E+06</totfact>
</mgrwt>
</event>
<event>
 3    1  0.1602107E-001  0.1250000E+03  0.7546771E-02  0.1235069E+00
         21   -1    0    0  502  501  0.00000000000E+00  0.00000000000E+00  0.39768072109E+03  0.39768072109E+03  0.00000000000E+00 0. -1.
         21   -1    0    0  501  502 -0.00000000000E+00 -0.00000000000E+00 -0.98225782464E+01  0.98225782464E+01  0.00000000000E+00 0. -1.
         25    1    1    2    0    0  0.00000000000E+00  0.00000000000E+00  0.38785814284E+03  0.40750329934E+03  0.12500000000E+03 0.  0.
<mgrwt>
<rscale>  0 0.12500000E+03</rscale>
<asrwt>0</asrwt>
<pdfrwt beam="1">  1       21 0.61181637E-01 0.12500000E+03</pdfrwt>
<pdfrwt beam="2">  1       21 0.15111662E-02 0.12500000E+03</pdfrwt>
<totfact> 0.47547620E+06</totfact>
</mgrwt>
</event>
<event>
 3    1  0.1602107E-001  0.1250000E+03  0.7546771E-02  0.1235069E+00
         21   -1    0    0  502  501  0.00000000000E+00  0.00000000000E+00  0.26208360897E+01  0.26208360897E+01  0.00000000000E+00 0. -1.
         21   -1    0    0  501  502 -0.00000000000E+00 -0.00000000000E+00 -0.14904594817E+04  0.14904594817E+04  0.00000000000E+00 0. -1.
         25    1    1    2    0    0  0.00000000000E+00  0.00000000000E+00 -0.14878386456E+04  0.14930803178E+04  0.12500000000E+03 0.  0.
<mgrwt>
<rscale>  0 0.12500000E+03</rscale>
<asrwt>0</asrwt>
<pdfrwt beam="1">  1       21 0.40320591E-03 0.12500000E+03</pdfrwt>
<pdfrwt beam="2">  1       21 0.22930126E+00 0.12500000E+03</pdfrwt>
<totfact> 0.14096145E+06</totfact>
</mgrwt>
</event>
<event>
 3    1  0.1602107E-001  0.1250000E+03  0.7546771E-02  0.1235069E+00
         21   -1    0    0  502  501  0.00000000000E+00  0.00000000000E+00  0.74770824782E+02  0.74770824782E+02  0.00000000000E+00 0. -1.
         21   -1    0    0  501  502 -0.00000000000E+00 -0.00000000000E+00 -0.52242970589E+02  0.52242970589E+02  0.00000000000E+00 0. -1.
         25    1    1    2    0    0  0.00000000000E+00  0.00000000000E+00  0.22527854193E+02  0.12701379537E+03  0.12500000000E+03 0.  0.
<mgrwt>
<rscale>  0 0.12500000E+03</rscale>
<asrwt>0</asrwt>
<pdfrwt beam="1">  1       21 0.11503204E-01 0.12500000E+03</pdfrwt>
<pdfrwt beam="2">  1       21 0.80373801E-02 0.12500000E+03</pdfrwt>
<totfact> 0.73767258E+06</totfact>
</mgrwt>
</event>
<event>
 3    1  0.1602107E-001  0.1250000E+03  0.7546771E-02  0.1235069E+00
         21   -1    0    0  502  501  0.00000000000E+00  0.00000000000E+00  0.20645657548E+03  0.20645657548E+03  0.00000000000E+00 0.  1.
         21   -1    0    0  501  502 -0.00000000000E+00 -0.00000000000E+00 -0.18920443637E+02  0.18920443637E+02  0.00000000000E+00 0.  1.
         25    1    1    2    0    0  0.00000000000E+00  0.00000000000E+00  0.18753613185E+03  0.22537701912E+03  0.12500000000E+03 0.  0.
<mgrwt>
<rscale>  0 0.12500000E+03</rscale>
<asrwt>0</asrwt>
<pdfrwt beam="1">  1       21 0.31762549E-01 0.12500000E+03</pdfrwt>
<pdfrwt beam="2">  1       21 0.29108376E-02 0.12500000E+03</pdfrwt>
<totfact> 0.62277077E+06</totfact>
</mgrwt>
</event>
<event>
 3    1  0.1602107E-001  0.1250000E+03  0.7546771E-02  0.1235069E+00
         21   -1    0    0  502  501  0.00000000000E+00  0.00000000000E+00  0.81627643506E+02  0.81627643506E+02  0.00000000000E+00 0.  1.
         21   -1    0    0  501  502 -0.00000000000E+00 -0.00000000000E+00 -0.47854499190E+02  0.47854499190E+02  0.00000000000E+00 0.  1.
         25    1    1    2    0    0  0.00000000000E+00  0.00000000000E+00  0.33773144317E+02  0.12948214270E+03  0.12500000000E+03 0.  0.
<mgrwt>
<rscale>  0 0.12500000E+03</rscale>
<asrwt>0</asrwt>
<pdfrwt beam="1">  1       21 0.12558099E-01 0.12500000E+03</pdfrwt>
<pdfrwt beam="2">  1       21 0.73622306E-02 0.12500000E+03</pdfrwt>
<totfact> 0.73434209E+06</totfact>
</mgrwt>
</event>
<event>
 3    1  0.1602107E-001  0.1250000E+03  0.7546771E-02  0.1235069E+00
         21   -1    0    0  502  501  0.00000000000E+00  0.00000000000E+00  0.27053575981E+03  0.27053575981E+03  0.00000000000E+00 0.  1.
         21   -1    0    0  501  502 -0.00000000000E+00 -0.00000000000E+00 -0.14438941465E+02  0.14438941465E+02  0.00000000000E+00 0.  1.
         25    1    1    2    0    0  0.00000000000E+00  0.00000000000E+00  0.25609681835E+03  0.28497470128E+03  0.12500000000E+03 0.  0.
<mgrwt>
<rscale>  0 0.12500000E+03</rscale>
<asrwt>0</asrwt>
<pdfrwt beam="1">  1       21 0.41620882E-01 0.12500000E+03</pdfrwt>
<pdfrwt beam="2">  1       21 0.22213758E-02 0.12500000E+03</pdfrwt>
<totfact> 0.56728419E+06</totfact>
</mgrwt>
</event>
<event>
 3    1  0.1602107E-001  0.1250000E+03  0.7546771E-02  0.1235069E+00
         21   -1    0    0  502  501  0.00000000000E+00  0.00000000000E+00  0.35561100354E+01  0.35561100354E+01  0.00000000000E+00 0.  1.
         21   -1    0    0  501  502 -0.00000000000E+00 -0.00000000000E+00 -0.10984615102E+04  0.10984615102E+04  0.00000000000E+00 0.  1.
         25    1    1    2    0    0  0.00000000000E+00  0.00000000000E+00 -0.10949054002E+04  0.11020176202E+04  0.12500000000E+03 0.  0.
<mgrwt>
<rscale>  0 0.12500000E+03</rscale>
<asrwt>0</asrwt>
<pdfrwt beam="1">  1       21 0.54709436E-03 0.12500000E+03</pdfrwt>
<pdfrwt beam="2">  1       21 0.16899392E+00 0.12500000E+03</pdfrwt>
<totfact> 0.21206612E+06</totfact>
</mgrwt>
</event>
<event>
 3    1  0.1602107E-001  0.1250000E+03  0.7546771E-02  0.1235069E+00
         21   -1    0    0  502  501  0.00000000000E+00  0.00000000000E+00  0.17752521640E+02  0.17752521640E+02  0.00000000000E+00 0.  1.
         21   -1    0    0  501  502 -0.00000000000E+00 -0.00000000000E+00 -0.22003916284E+03  0.22003916284E+03  0.00000000000E+00 0.  1.
         25    1    1    2    0    0  0.00000000000E+00  0.00000000000E+00 -0.20228664120E+03  0.23779168448E+03  0.12500000000E+03 0.  0.
<mgrwt>
<rscale>  0 0.12500000E+03</rscale>
<asrwt>0</asrwt>
<pdfrwt beam="1">  1       21 0.27311572E-02 0.12500000E+03</pdfrwt>
<pdfrwt beam="2">  1       21 0.33852178E-01 0.12500000E+03</pdfrwt>
<totfact> 0.61047014E+06</totfact>
</mgrwt>
</event>
<event>
 3    1  0.1602107E-001  0.1250000E+03  0.7546771E-02  0.1235069E+00
         21   -1    0    0  502  501  0.00000000000E+00  0.00000000000E+00  0.15945748637E+03  0.15945748637E+03  0.00000000000E+00 0.  1.
         21   -1    0    0  501  502 -0.00000000000E+00 -0.00000000000E+00 -0.24497125151E+02  0.24497125151E+02  0.00000000000E+00 0.  1.
         25    1    1    2    0    0  0.00000000000E+00  0.00000000000E+00  0.13496036122E+03  0.18395461152E+03  0.12500000000E+03 0.  0.
<mgrwt>
<rscale>  0 0.12500000E+03</rscale>
<asrwt>0</asrwt>
<pdfrwt beam="1">  1       21 0.24531920E-01 0.12500000E+03</pdfrwt>
<pdfrwt beam="2">  1       21 0.37687886E-02 0.12500000E+03</pdfrwt>
<totfact> 0.66700747E+06</totfact>
</mgrwt>
</event>
<event>
 3    1  0.1602107E-001  0.1250000E+03  0.7546771E-02  0.1235069E+00
         21   -1    0    0  502  501  0.00000000000E+00  0.00000000000E+00  0.19019361885E+03  0.19019361885E+03  0.00000000000E+00 0.  1.
         21   -1    0    0  501  502 -0.00000000000E+00 -0.00000000000E+00 -0.20538281061E+02  0.20538281061E+02  0.00000000000E+00 0.  1.
         25    1    1    2    0    0  0.00000000000E+00  0.00000000000E+00  0.16965533779E+03  0.21073189991E+03  0.12500000000E+03 0.  0.
<mgrwt>
<rscale>  0 0.12500000E+03</rscale>
<asrwt>0</asrwt>
<pdfrwt beam="1">  1       21 0.29260555E-01 0.12500000E+03</pdfrwt>
<pdfrwt beam="2">  1       21 0.31597357E-02 0.12500000E+03</pdfrwt>
<totfact> 0.63782614E+06</totfact>
</mgrwt>
</event>
<event>
 3    1  0.1602107E-001  0.1250000E+03  0.7546771E-02  0.1235069E+00
         21   -1    0    0  502  501  0.00000000000E+00  0.00000000000E+00  0.23983302300E+01  0.23983302300E+01  0.00000000000E+00 0.  1.
         21   -1    0    0  501  502 -0.00000000000E+00 -0.00000000000E+00 -0.16287373403E+04  0.16287373403E+04  0.00000000000E+00 0.  1.
         25    1    1    2    0    0  0.00000000000E+00  0.00000000000E+00 -0.16263390101E+04  0.16311356705E+04  0.12500000000E+03 0.  0.
<mgrwt>
<rscale>  0 0.12500000E+03</rscale>
<asrwt>0</asrwt>
<pdfrwt beam="1">  1       21 0.36897442E-03 0.12500000E+03</pdfrwt>
<pdfrwt beam="2">  1       21 0.25057461E+00 0.12500000E+03</pdfrwt>
<totfact> 0.12155885E+06</totfact>
</mgrwt>
</event>
<event>
 3    1  0.1602107E-001  0.1250000E+03  0.7546771E-02  0.1235069E+00
         21   -1    0    0  502  501  0.00000000000E+00  0.00000000000E+00  0.49853252469E+01  0.49853252469E+01  0.00000000000E+00 0.  1.
         21   -1    0    0  501  502 -0.00000000000E+00 -0.00000000000E+00 -0.78354967962E+03  0.78354967962E+03  0.00000000000E+00 0.  1.
         25    1    1    2    0    0  0.00000000000E+00  0.00000000000E+00 -0.77856435437E+03  0.78853500487E+03  0.12500000000E+03 0.  0.
<mgrwt>
<rscale>  0 0.12500000E+03</rscale>
<asrwt>0</asrwt>
<pdfrwt beam="1">  1       21 0.76697359E-03 0.12500000E+03</pdfrwt>
<pdfrwt beam="2">  1       21 0.12054603E+00 0.12500000E+03</pdfrwt>
<totfact> 0.29746235E+06</totfact>
</mgrwt>
</event>
<event>
 3    1  0.1602107E-001  0.1250000E+03  0.7546771E-02  0.1235069E+00
         21   -1    0    0  502  501  0.00000000000E+00  0.00000000000E+00  0.54027587744E+03  0.54027587744E+03  0.00000000000E+00 0.  1.
         21   -1    0    0  501  502 -0.00000000000E+00 -0.00000000000E+00 -0.72301025515E+01  0.72301025515E+01  0.00000000000E+00 0.  1.
         25    1    1    2    0    0  0.00000000000E+00  0.00000000000E+00  0.53304577489E+03  0.54750597999E+03  0.12500000000E+03 0.  0.
<mgrwt>
<rscale>  0 0.12500000E+03</rscale>
<asrwt>0</asrwt>
<pdfrwt beam="1">  1       21 0.83119334E-01 0.12500000E+03</pdfrwt>
<pdfrwt beam="2">  1       21 0.11123239E-02 0.12500000E+03</pdfrwt>
<totfact> 0.39579598E+06</totfact>
</mgrwt>
</event>
<event>
 3    1  0.1602107E-001  0.1250000E+03  0.7546771E-02  0.1235069E+00
         21   -1    0    0  502  501  0.00000000000E+00  0.00000000000E+00  0.53482463358E+02  0.53482463358E+02  0.00000000000E+00 0.  1.
         21   -1    0    0  501  502 -0.00000000000E+00 -0.00000000000E+00 -0.73037959636E+02  0.73037959636E+02  0.00000000000E+00 0.  1.
         25    1    1    2    0    0  0.00000000000E+00  0.00000000000E+00 -0.19555496278E+02  0.12652042299E+03  0.12500000000E+03 0.  0.
<mgrwt>
<rscale>  0 0.12500000E+03</rscale>
<asrwt>0</asrwt>
<pdfrwt beam="1">  1       21 0.82280714E-02 0.12500000E+03</pdfrwt>
<pdfrwt beam="2">  1       21 0.11236609E-01 0.12500000E+03</pdfrwt>
<totfact> 0.73834579E+06</totfact>
</mgrwt>
</event>
<event>
 3    1  0.1602107E-001  0.1250000E+03  0.7546771E-02  0.1235069E+00
         21   -1    0    0  502  501  0.00000000000E+00  0.00000000000E+00  0.64630168518E+02  0.64630168518E+02  0.00000000000E+00 0.  1.
         21   -1    0    0  501  502 -0.00000000000E+00 -0.00000000000E+00 -0.60440040457E+02  0.60440040457E+02  0.00000000000E+00 0.  1.
         25    1    1    2    0    0  0.00000000000E+00  0.00000000000E+00  0.41901280613E+01  0.12507020898E+03  0.12500000000E+03 0.  0.
<mgrwt>
<rscale>  0 0.12500000E+03</rscale>
<asrwt>0</asrwt>
<pdfrwt beam="1">  1       21 0.99431028E-02 0.12500000E+03</pdfrwt>
<pdfrwt beam="2">  1       21 0.92984678E-02 0.12500000E+03</pdfrwt>
<totfact> 0.74034099E+06</totfact>
</mgrwt>
</event>
<event>
 3    1  0.1602107E-001  0.1250000E+03  0.7546771E-02  0.1235069E+00
         21   -1    0    0  502  501  0.00000000000E+00  0.00000000000E+00  0.13687936821E+02  0.13687936821E+02  0.00000000000E+00 0.  1.
         21   -1    0    0  501  502 -0.00000000000E+00 -0.00000000000E+00 -0.28537902031E+03  0.28537902031E+03  0.00000000000E+00 0.  1.
         25    1    1    2    0    0  0.00000000000E+00  0.00000000000E+00 -0.27169108349E+03  0.29906695713E+03  0.12500000000E+03 0.  0.
<mgrwt>
<rscale>  0 0.12500000E+03</rscale>
<asrwt>0</asrwt>
<pdfrwt beam="1">  1       21 0.21058365E-02 0.12500000E+03</pdfrwt>
<pdfrwt beam="2">  1       21 0.43904463E-01 0.12500000E+03</pdfrwt>
<totfact> 0.55533803E+06</totfact>
</mgrwt>
</event>
<event>
 3    1  0.1602107E-001  0.1250000E+03  0.7546771E-02  0.1235069E+00
         21   -1    0    0  502  501  0.00000000000E+00  0.00000000000E+00  0.14939789993E+03  0.14939789993E+03  0.00000000000E+00 0. -1.
         21   -1    0    0  501  502 -0.00000000000E+00 -0.00000000000E+00 -0.26146619209E+02  0.26146619209E+02  0.00000000000E+00 0. -1.
         25    1    1    2    0    0  0.00000000000E+00  0.00000000000E+00  0.12325128072E+03  0.17554451914E+03  0.12500000000E+03 0.  0.
<mgrwt>
<rscale>  0 0.12500000E+03</rscale>
<asrwt>0</asrwt>
<pdfrwt beam="1">  1       21 0.22984292E-01 0.12500000E+03</pdfrwt>
<pdfrwt beam="2">  1       21 0.40225569E-02 0.12500000E+03</pdfrwt>
<totfact> 0.67666368E+06</totfact>
</mgrwt>
</event>
<event>
 3    1  0.1602107E-001  0.1250000E+03  0.7546771E-02  0.1235069E+00
         21   -1    0    0  502  501  0.00000000000E+00  0.00000000000E+00  0.94624099275E+01  0.94624099275E+01  0.00000000000E+00 0.  1.
         21   -1    0    0  501  502 -0.00000000000E+00 -0.00000000000E+00 -0.41281766801E+03  0.41281766801E+03  0.00000000000E+00 0.  1.
         25    1    1    2    0    0  0.00000000000E+00  0.00000000000E+00 -0.40335525808E+03  0.42228007793E+03  0.12500000000E+03 0.  0.
<mgrwt>
<rscale>  0 0.12500000E+03</rscale>
<asrwt>0</asrwt>
<pdfrwt beam="1">  1       21 0.14557551E-02 0.12500000E+03</pdfrwt>
<pdfrwt beam="2">  1       21 0.63510424E-01 0.12500000E+03</pdfrwt>
<totfact> 0.46597810E+06</totfact>
</mgrwt>
</event>
<event>
 3    1  0.1602107E-001  0.1250000E+03  0.7546771E-02  0.1235069E+00
         21   -1    0    0  502  501  0.00000000000E+00  0.00000000000E+00  0.45004650085E+02  0.45004650085E+02  0.00000000000E+00 0.  1.
         21   -1    0    0  501  502 -0.00000000000E+00 -0.00000000000E+00 -0.86796586412E+02  0.86796586412E+02  0.00000000000E+00 0.  1.
         25    1    1    2    0    0  0.00000000000E+00  0.00000000000E+00 -0.41791936327E+02  0.13180123650E+03  0.12500000000E+03 0.  0.
<mgrwt>
<rscale>  0 0.12500000E+03</rscale>
<asrwt>0</asrwt>
<pdfrwt beam="1">  1       21 0.69237923E-02 0.12500000E+03</pdfrwt>
<pdfrwt beam="2">  1       21 0.13353321E-01 0.12500000E+03</pdfrwt>
<totfact> 0.73122901E+06</totfact>
</mgrwt>
</event>
<event>
 3    1  0.1602107E-001  0.1250000E+03  0.7546771E-02  0.1235069E+00
         21   -1    0    0  502  501  0.00000000000E+00  0.00000000000E+00  0.86567615374E+01  0.86567615374E+01  0.00000000000E+00 0. -1.
         21   -1    0    0  501  502 -0.00000000000E+00 -0.00000000000E+00 -0.45123687225E+03  0.45123687225E+03  0.00000000000E+00 0. -1.
         25    1    1    2    0    0  0.00000000000E+00  0.00000000000E+00 -0.44258011072E+03  0.45989363379E+03  0.12500000000E+03 0.  0.
<mgrwt>
<rscale>  0 0.12500000E+03</rscale>
<asrwt>0</asrwt>
<pdfrwt beam="1">  1       21 0.13318098E-02 0.12500000E+03</pdfrwt>
<pdfrwt beam="2">  1       21 0.69421042E-01 0.12500000E+03</pdfrwt>
<totfact> 0.44306120E+06</totfact>
</mgrwt>
</event>
<event>
 3    1  0.1602107E-001  0.1250000E+03  0.7546771E-02  0.1235069E+00
         21   -1    0    0  502  501  0.00000000000E+00  0.00000000000E+00  0.78292644478E+03  0.78292644478E+03  0.00000000000E+00 0.  1.
         21   -1    0    0  501  502 -0.00000000000E+00 -0.00000000000E+00 -0.49892937274E+01  0.49892937274E+01  0.00000000000E+00 0.  1.
         25    1    1    2    0    0  0.00000000000E+00  0.00000000000E+00  0.77793715105E+03  0.78791573851E+03  0.12500000000E+03 0.  0.
<mgrwt>
<rscale>  0 0.12500000E+03</rscale>
<asrwt>0</asrwt>
<pdfrwt beam="1">  1       21 0.12045012E+00 0.12500000E+03</pdfrwt>
<pdfrwt beam="2">  1       21 0.76758427E-03 0.12500000E+03</pdfrwt>
<totfact> 0.29767151E+06</totfact>
</mgrwt>
</event>
<event>
 3    1  0.1602107E-001  0.1250000E+03  0.7546771E-02  0.1235069E+00
         21   -1    0    0  502  501  0.00000000000E+00  0.00000000000E+00  0.82728556673E+02  0.82728556673E+02  0.00000000000E+00 0.  1.
         21   -1    0    0  501  502 -0.00000000000E+00 -0.00000000000E+00 -0.47217673764E+02  0.47217673764E+02  0.00000000000E+00 0.  1.
         25    1    1    2    0    0  0.00000000000E+00  0.00000000000E+00  0.35510882909E+02  0.12994623044E+03  0.12500000000E+03 0.  0.
<mgrwt>
<rscale>  0 0.12500000E+03</rscale>
<asrwt>0</asrwt>
<pdfrwt beam="1">  1       21 0.12727470E-01 0.12500000E+03</pdfrwt>
<pdfrwt beam="2">  1       21 0.72642575E-02 0.12500000E+03</pdfrwt>
<totfact> 0.73372102E+06</totfact>
</mgrwt>
</event>
<event>
 3    1  0.1602107E-001  0.1250000E+03  0.7546771E-02  0.1235069E+00
         21   -1    0    0  502  501  0.00000000000E+00  0.00000000000E+00  0.23519065858E+02  0.23519065858E+02  0.00000000000E+00 0.  1.
         21   -1    0    0  501  502 -0.00000000000E+00 -0.00000000000E+00 -0.16608865435E+03  0.16608865435E+03  0.00000000000E+00 0.  1.
         25    1    1    2    0    0  0.00000000000E+00  0.00000000000E+00 -0.14256958850E+03  0.18960772021E+03  0.12500000000E+03 0.  0.
<mgrwt>
<rscale>  0 0.12500000E+03</rscale>
<asrwt>0</asrwt>
<pdfrwt beam="1">  1       21 0.36183178E-02 0.12500000E+03</pdfrwt>
<pdfrwt beam="2">  1       21 0.25552101E-01 0.12500000E+03</pdfrwt>
<totfact> 0.66066088E+06</totfact>
</mgrwt>
</event>
<event>
 3    1  0.1602107E-001  0.1250000E+03  0.7546771E-02  0.1235069E+00
         21   -1    0    0  502  501  0.00000000000E+00  0.00000000000E+00  0.23752504901E+02  0.23752504901E+02  0.00000000000E+00 0.  1.
         21   -1    0    0  501  502 -0.00000000000E+00 -0.00000000000E+00 -0.16445633908E+03  0.16445633908E+03  0.00000000000E+00 0.  1.
         25    1    1    2    0    0  0.00000000000E+00  0.00000000000E+00 -0.14070383418E+03  0.18820884398E+03  0.12500000000E+03 0.  0.
<mgrwt>
<rscale>  0 0.12500000E+03</rscale>
<asrwt>0</asrwt>
<pdfrwt beam="1">  1       21 0.36542314E-02 0.12500000E+03</pdfrwt>
<pdfrwt beam="2">  1       21 0.25300976E-01 0.12500000E+03</pdfrwt>
<totfact> 0.66222089E+06</totfact>
</mgrwt>
</event>
<event>
 3    1  0.1602107E-001  0.1250000E+03  0.7546771E-02  0.1235069E+00
         21   -1    0    0  502  501  0.00000000000E+00  0.00000000000E+00  0.11170173134E+03  0.11170173134E+03  0.00000000000E+00 0. -1.
         21   -1    0    0  501  502 -0.00000000000E+00 -0.00000000000E+00 -0.34970362169E+02  0.34970362169E+02  0.00000000000E+00 0. -1.
         25    1    1    2    0    0  0.00000000000E+00  0.00000000000E+00  0.76731369174E+02  0.14667209351E+03  0.12500000000E+03 0.  0.
<mgrwt>
<rscale>  0 0.12500000E+03</rscale>
<asrwt>0</asrwt>
<pdfrwt beam="1">  1       21 0.17184882E-01 0.12500000E+03</pdfrwt>
<pdfrwt beam="2">  1       21 0.53800558E-02 0.12500000E+03</pdfrwt>
<totfact> 0.71179794E+06</totfact>
</mgrwt>
</event>
<event>
 3    1  0.1602107E-001  0.1250000E+03  0.7546771E-02  0.1235069E+00
         21   -1    0    0  502  501  0.00000000000E+00  0.00000000000E+00  0.23082797365E+02  0.23082797365E+02  0.00000000000E+00 0. -1.
         21   -1    0    0  501  502 -0.00000000000E+00 -0.00000000000E+00 -0.16922775599E+03  0.16922775599E+03  0.00000000000E+00 0. -1.
         25    1    1    2    0    0  0.00000000000E+00  0.00000000000E+00 -0.14614495863E+03  0.19231055335E+03  0.12500000000E+03 0.  0.
<mgrwt>
<rscale>  0 0.12500000E+03</rscale>
<asrwt>0</asrwt>
<pdfrwt beam="1">  1       21 0.35511996E-02 0.12500000E+03</pdfrwt>
<pdfrwt beam="2">  1       21 0.26035040E-01 0.12500000E+03</pdfrwt>
<totfact> 0.65766584E+06</totfact>
</mgrwt>
</event>
<event>
 3    1  0.1602107E-001  0.1250000E+03  0.7546771E-02  0.1235069E+00
         21   -1    0    0  502  501  0.00000000000E+00  0.00000000000E+00  0.63300932749E+02  0.63300932749E+02  0.00000000000E+00 0. -1.
         21   -1    0    0  501  502 -0.00000000000E+00 -0.00000000000E+00 -0.61709201277E+02  0.61709201277E+02  0.00000000000E+00 0. -1.
         25    1    1    2    0    0  0.00000000000E+00  0.00000000000E+00  0.15917314716E+01  0.12501013403E+03  0.12500000000E+03 0.  0.
<mgrwt>
<rscale>  0 0.12500000E+03</rscale>
<asrwt>0</asrwt>
<pdfrwt beam="1">  1       21 0.97386051E-02 0.12500000E+03</pdfrwt>
<pdfrwt beam="2">  1       21 0.94937232E-02 0.12500000E+03</pdfrwt>
<totfact> 0.74042213E+06</totfact>
</mgrwt>
</event>
<event>
 3    1  0.1602107E-001  0.1250000E+03  0.7546771E-02  0.1235069E+00
         21   -1    0    0  502  501  0.00000000000E+00  0.00000000000E+00  0.25280943482E+02  0.25280943482E+02  0.00000000000E+00 0.  1.
         21   -1    0    0  501  502 -0.00000000000E+00 -0.00000000000E+00 -0.15451361627E+03  0.15451361627E+03  0.00000000000E+00 0.  1.
         25    1    1    2    0    0  0.00000000000E+00  0.00000000000E+00 -0.12923267278E+03  0.17979455975E+03  0.12500000000E+03 0.  0.
<mgrwt>
<rscale>  0 0.12500000E+03</rscale>
<asrwt>0</asrwt>
<pdfrwt beam="1">  1       21 0.38893760E-02 0.12500000E+03</pdfrwt>
<pdfrwt beam="2">  1       21 0.23771325E-01 0.12500000E+03</pdfrwt>
<totfact> 0.67175112E+06</totfact>
</mgrwt>
</event>
<event>
 3    1  0.1602107E-001  0.1250000E+03  0.7546771E-02  0.1235069E+00
         21   -1    0    0  502  501  0.00000000000E+00  0.00000000000E+00  0.77520405413E+02  0.77520405413E+02  0.00000000000E+00 0.  1.
         21   -1    0    0  501  502 -0.00000000000E+00 -0.00000000000E+00 -0.50389958350E+02  0.50389958350E+02  0.00000000000E+00 0.  1.
         25    1    1    2    0    0  0.00000000000E+00  0.00000000000E+00  0.27130447063E+02  0.12791036376E+03  0.12500000000E+03 0.  0.
<mgrwt>
<rscale>  0 0.12500000E+03</rscale>
<asrwt>0</asrwt>
<pdfrwt beam="1">  1       21 0.11926216E-01 0.12500000E+03</pdfrwt>
<pdfrwt beam="2">  1       21 0.77523013E-02 0.12500000E+03</pdfrwt>
<totfact> 0.73645671E+06</totfact>
</mgrwt>
</event>
<event>
 3    1  0.1602107E-001  0.1250000E+03  0.7546771E-02  0.1235069E+00
         21   -1    0    0  502  501  0.00000000000E+00  0.00000000000E+00  0.31775034591E+03  0.31775034591E+03  0.00000000000E+00 0. -1.
         21   -1    0    0  501  502 -0.00000000000E+00 -0.00000000000E+00 -0.12293456326E+02  0.12293456326E+02  0.00000000000E+00 0. -1.
         25    1    1    2    0    0  0.00000000000E+00  0.00000000000E+00  0.30545688958E+03  0.33004380223E+03  0.12500000000E+03 0.  0.
<mgrwt>
<rscale>  0 0.12500000E+03</rscale>
<asrwt>0</asrwt>
<pdfrwt beam="1">  1       21 0.48884662E-01 0.12500000E+03</pdfrwt>
<pdfrwt beam="2">  1       21 0.18913012E-02 0.12500000E+03</pdfrwt>
<totfact> 0.53046901E+06</totfact>
</mgrwt>
</event>
<event>
 3    1  0.1602107E-001  0.1250000E+03  0.7546771E-02  0.1235069E+00
         21   -1    0    0  502  501  0.00000000000E+00  0.00000000000E+00  0.79586313219E+02  0.79586313219E+02  0.00000000000E+00 0. -1.
         21   -1    0    0  501  502 -0.00000000000E+00 -0.00000000000E+00 -0.49081931830E+02  0.49081931830E+02  0.00000000000E+00 0. -1.
         25    1    1    2    0    0  0.00000000000E+00  0.00000000000E+00  0.30504381389E+02  0.12866824505E+03  0.12500000000E+03 0.  0.
<mgrwt>
<rscale>  0 0.12500000E+03</rscale>
<asrwt>0</asrwt>
<pdfrwt beam="1">  1       21 0.12244048E-01 0.12500000E+03</pdfrwt>
<pdfrwt beam="2">  1       21 0.75510664E-02 0.12500000E+03</pdfrwt>
<totfact> 0.73543475E+06</totfact>
</mgrwt>
</event>
<event>
 3    1  0.1602107E-001  0.1250000E+03  0.7546771E-02  0.1235069E+00
         21   -1    0    0  502  501  0.00000000000E+00  0.00000000000E+00  0.57894861689E+02  0.57894861689E+02  0.00000000000E+00 0. -1.
         21   -1    0    0  501  502 -0.00000000000E+00 -0.00000000000E+00 -0.67471445411E+02  0.67471445411E+02  0.00000000000E+00 0. -1.
         25    1    1    2    0    0  0.00000000000E+00  0.00000000000E+00 -0.95765837223E+01  0.12536630710E+03  0.12500000000E+03 0.  0.
<mgrwt>
<rscale>  0 0.12500000E+03</rscale>
<asrwt>0</asrwt>
<pdfrwt beam="1">  1       21 0.89069018E-02 0.12500000E+03</pdfrwt>
<pdfrwt beam="2">  1       21 0.10380222E-01 0.12500000E+03</pdfrwt>
<totfact> 0.73994121E+06</totfact>
</mgrwt>
</event>
<event>
 3    1  0.1602107E-001  0.1250000E+03  0.7546771E-02  0.1235069E+00
         21   -1    0    0  502  501  0.00000000000E+00  0.00000000000E+00  0.26041175027E+02  0.26041175027E+02  0.00000000000E+00 0. -1.
         21   -1    0    0  501  502 -0.00000000000E+00 -0.00000000000E+00 -0.15000283190E+03  0.15000283190E+03  0.00000000000E+00 0. -1.
         25    1    1    2    0    0  0.00000000000E+00  0.00000000000E+00 -0.12396165687E+03  0.17604400692E+03  0.12500000000E+03 0.  0.
<mgrwt>
<rscale>  0 0.12500000E+03</rscale>
<asrwt>0</asrwt>
<pdfrwt beam="1">  1       21 0.40063346E-02 0.12500000E+03</pdfrwt>
<pdfrwt beam="2">  1       21 0.23077359E-01 0.12500000E+03</pdfrwt>
<totfact> 0.67608279E+06</totfact>
</mgrwt>
</event>
<event>
 3    1  0.1602107E-001  0.1250000E+03  0.7546771E-02  0.1235069E+00
         21   -1    0    0  502  501  0.00000000000E+00  0.00000000000E+00  0.25971700447E+02  0.25971700447E+02  0.00000000000E+00 0. -1.
         21   -1    0    0  501  502 -0.00000000000E+00 -0.00000000000E+00 -0.15040409110E+03  0.15040409110E+03  0.00000000000E+00 0. -1.
         25    1    1    2    0    0  0.00000000000E+00  0.00000000000E+00 -0.12443239065E+03  0.17637579154E+03  0.12500000000E+03 0.  0.
<mgrwt>
<rscale>  0 0.12500000E+03</rscale>
<asrwt>0</asrwt>
<pdfrwt beam="1">  1       21 0.39956462E-02 0.12500000E+03</pdfrwt>
<pdfrwt beam="2">  1       21 0.23139091E-01 0.12500000E+03</pdfrwt>
<totfact> 0.67569745E+06</totfact>
</mgrwt>
</event>
<event>
 3    1  0.1602107E-001  0.1250000E+03  0.7546771E-02  0.1235069E+00
         21   -1    0    0  502  501  0.00000000000E+00  0.00000000000E+00  0.22115720576E+03  0.22115720576E+03  0.00000000000E+00 0.  1.
         21   -1    0    0  501  502 -0.00000000000E+00 -0.00000000000E+00 -0.17662775158E+02  0.17662775158E+02  0.00000000000E+00 0.  1.
         25    1    1    2    0    0  0.00000000000E+00  0.00000000000E+00  0.20349443061E+03  0.23881998092E+03  0.12500000000E+03 0.  0.
<mgrwt>
<rscale>  0 0.12500000E+03</rscale>
<asrwt>0</asrwt>
<pdfrwt beam="1">  1       21 0.34024184E-01 0.12500000E+03</pdfrwt>
<pdfrwt beam="2">  1       21 0.27173502E-02 0.12500000E+03</pdfrwt>
<totfact> 0.60947039E+06</totfact>
</mgrwt>
</event>
<event>
 3    1  0.1602107E-001  0.1250000E+03  0.7546771E-02  0.1235069E+00
         21   -1    0    0  502  501  0.00000000000E+00  0.00000000000E+00  0.12894307756E+03  0.12894307756E+03  0.00000000000E+00 0. -1.
         21   -1    0    0  501  502 -0.00000000000E+00 -0.00000000000E+00 -0.30294375426E+02  0.30294375426E+02  0.00000000000E+00 0. -1.
         25    1    1    2    0    0  0.00000000000E+00  0.00000000000E+00  0.98648702130E+02  0.15923745298E+03  0.12500000000E+03 0.  0.
<mgrwt>
<rscale>  0 0.12500000E+03</rscale>
<asrwt>0</asrwt>
<pdfrwt beam="1">  1       21 0.19837396E-01 0.12500000E+03</pdfrwt>
<pdfrwt beam="2">  1       21 0.46606732E-02 0.12500000E+03</pdfrwt>
<totfact> 0.69612791E+06</totfact>
</mgrwt>
</event>
<event>
 3    1  0.1602107E-001  0.1250000E+03  0.7546771E-02  0.1235069E+00
         21   -1    0    0  502  501  0.00000000000E+00  0.00000000000E+00  0.13410150959E+03  0.13410150959E+03  0.00000000000E+00 0.  1.
         21   -1    0    0  501  502 -0.00000000000E+00 -0.00000000000E+00 -0.29129053147E+02  0.29129053147E+02  0.00000000000E+00 0.  1.
         25    1    1    2    0    0  0.00000000000E+00  0.00000000000E+00  0.10497245644E+03  0.16323056274E+03  0.12500000000E+03 0.  0.
<mgrwt>
<rscale>  0 0.12500000E+03</rscale>
<asrwt>0</asrwt>
<pdfrwt beam="1">  1       21 0.20631001E-01 0.12500000E+03</pdfrwt>
<pdfrwt beam="2">  1       21 0.44813929E-02 0.12500000E+03</pdfrwt>
<totfact> 0.69126895E+06</totfact>
</mgrwt>
</event>
<event>
 3    1  0.1602107E-001  0.1250000E+03  0.7546771E-02  0.1235069E+00
         21   -1    0    0  502  501  0.00000000000E+00  0.00000000000E+00  0.50527326108E+02  0.50527326108E+02  0.00000000000E+00 0. -1.
         21   -1    0    0  501  502 -0.00000000000E+00 -0.00000000000E+00 -0.77309652042E+02  0.77309652042E+02  0.00000000000E+00 0. -1.
         25    1    1    2    0    0  0.00000000000E+00  0.00000000000E+00 -0.26782325934E+02  0.12783697815E+03  0.12500000000E+03 0.  0.
<mgrwt>
<rscale>  0 0.12500000E+03</rscale>
<asrwt>0</asrwt>
<pdfrwt beam="1">  1       21 0.77734348E-02 0.12500000E+03</pdfrwt>
<pdfrwt beam="2">  1       21 0.11893793E-01 0.12500000E+03</pdfrwt>
<totfact> 0.73655593E+06</totfact>
</mgrwt>
</event>
<event>
 3    1  0.1602107E-001  0.1250000E+03  0.7546771E-02  0.1235069E+00
         21   -1    0    0  502  501  0.00000000000E+00  0.00000000000E+00  0.84916287257E+01  0.84916287257E+01  0.00000000000E+00 0.  1.
         21   -1    0    0  501  502 -0.00000000000E+00 -0.00000000000E+00 -0.46001186889E+03  0.46001186889E+03  0.00000000000E+00 0.  1.
         25    1    1    2    0    0  0.00000000000E+00  0.00000000000E+00 -0.45152024016E+03  0.46850349761E+03  0.12500000000E+03 0.  0.
<mgrwt>
<rscale>  0 0.12500000E+03</rscale>
<asrwt>0</asrwt>
<pdfrwt beam="1">  1       21 0.13064045E-02 0.12500000E+03</pdfrwt>
<pdfrwt beam="2">  1       21 0.70771052E-01 0.12500000E+03</pdfrwt>
<totfact> 0.43805373E+06</totfact>
</mgrwt>
</event>
<event>
 3    1  0.1602107E-001  0.1250000E+03  0.7546771E-02  0.1235069E+00
         21   -1    0    0  502  501  0.00000000000E+00  0.00000000000E+00  0.25773952595E+03  0.25773952595E+03  0.00000000000E+00 0.  1.
         21   -1    0    0  501  502 -0.00000000000E+00 -0.00000000000E+00 -0.15155805015E+02  0.15155805015E+02  0.00000000000E+00 0.  1.
         25    1    1    2    0    0  0.00000000000E+00  0.00000000000E+00  0.24258372093E+03  0.27289533096E+03  0.12500000000E+03 0.  0.
<mgrwt>
<rscale>  0 0.12500000E+03</rscale>
<asrwt>0</asrwt>
<pdfrwt beam="1">  1       21 0.39652232E-01 0.12500000E+03</pdfrwt>
<pdfrwt beam="2">  1       21 0.23316625E-02 0.12500000E+03</pdfrwt>
<totfact> 0.57786678E+06</totfact>
</mgrwt>
</event>
<event>
 3    1  0.1602107E-001  0.1250000E+03  0.7546771E-02  0.1235069E+00
         21   -1    0    0  502  501  0.00000000000E+00  0.00000000000E+00  0.20362566821E+02  0.20362566821E+02  0.00000000000E+00 0. -1.
         21   -1    0    0  501  502 -0.00000000000E+00 -0.00000000000E+00 -0.19183485237E+03  0.19183485237E+03  0.00000000000E+00 0. -1.
         25    1    1    2    0    0  0.00000000000E+00  0.00000000000E+00 -0.17147228555E+03  0.21219741919E+03  0.12500000000E+03 0.  0.
<mgrwt>
<rscale>  0 0.12500000E+03</rscale>
<asrwt>0</asrwt>
<pdfrwt beam="1">  1       21 0.31327027E-02 0.12500000E+03</pdfrwt>
<pdfrwt beam="2">  1       21 0.29513054E-01 0.12500000E+03</pdfrwt>
<totfact> 0.63629081E+06</totfact>
</mgrwt>
</event>
<event>
 3    1  0.1602107E-001  0.1250000E+03  0.7546771E-02  0.1235069E+00
         21   -1    0    0  502  501  0.00000000000E+00  0.00000000000E+00  0.44938809635E+02  0.44938809635E+02  0.00000000000E+00 0. -1.
         21   -1    0    0  501  502 -0.00000000000E+00 -0.00000000000E+00 -0.86923753250E+02  0.86923753250E+02  0.00000000000E+00 0. -1.
         25    1    1    2    0    0  0.00000000000E+00  0.00000000000E+00 -0.41984943615E+02  0.13186256288E+03  0.12500000000E+03 0.  0.
<mgrwt>
<rscale>  0 0.12500000E+03</rscale>
<asrwt>0</asrwt>
<pdfrwt beam="1">  1       21 0.69136630E-02 0.12500000E+03</pdfrwt>
<pdfrwt beam="2">  1       21 0.13372885E-01 0.12500000E+03</pdfrwt>
<totfact> 0.73114669E+06</totfact>
</mgrwt>
</event>
<event>
 3    1  0.1602107E-001  0.1250000E+03  0.7546771E-02  0.1235069E+00
         21   -1    0    0  502  501  0.00000000000E+00  0.00000000000E+00  0.11390766535E+02  0.11390766535E+02  0.00000000000E+00 0. -1.
         21   -1    0    0  501  502 -0.00000000000E+00 -0.00000000000E+00 -0.34293126701E+03  0.34293126701E+03  0.00000000000E+00 0. -1.
         25    1    1    2    0    0  0.00000000000E+00  0.00000000000E+00 -0.33154050047E+03  0.35432203354E+03  0.12500000000E+03 0.  0.
<mgrwt>
<rscale>  0 0.12500000E+03</rscale>
<asrwt>0</asrwt>
<pdfrwt beam="1">  1       21 0.17524259E-02 0.12500000E+03</pdfrwt>
<pdfrwt beam="2">  1       21 0.52758649E-01 0.12500000E+03</pdfrwt>
<totfact> 0.51220817E+06</totfact>
</mgrwt>
</event>
<event>
 3    1  0.1602107E-001  0.1250000E+03  0.7546771E-02  0.1235069E+00
         21   -1    0    0  502  501  0.00000000000E+00  0.00000000000E+00  0.86293813742E+01  0.86293813742E+01  0.00000000000E+00 0.  1.
         21   -1    0    0  501  502 -0.00000000000E+00 -0.00000000000E+00 -0.45266860168E+03  0.45266860168E+03  0.00000000000E+00 0.  1.
         25    1    1    2    0    0  0.00000000000E+00  0.00000000000E+00 -0.44403922030E+03  0.46129798305E+03  0.12500000000E+03 0.  0.
<mgrwt>
<rscale>  0 0.12500000E+03</rscale>
<asrwt>0</asrwt>
<pdfrwt beam="1">  1       21 0.13275976E-02 0.12500000E+03</pdfrwt>
<pdfrwt beam="2">  1       21 0.69641298E-01 0.12500000E+03</pdfrwt>
<totfact> 0.44223860E+06</totfact>
</mgrwt>
</event>
<event>
 3    1  0.1602107E-001  0.1250000E+03  0.7546771E-02  0.1235069E+00
         21   -1    0    0  502  501  0.00000000000E+00  0.00000000000E+00  0.98406587679E+01  0.98406587679E+01  0.00000000000E+00 0. -1.
         21   -1    0    0  501  502 -0.00000000000E+00 -0.00000000000E+00 -0.39695005102E+03  0.39695005102E+03  0.00000000000E+00 0. -1.
         25    1    1    2    0    0  0.00000000000E+00  0.00000000000E+00 -0.38710939225E+03  0.40679070979E+03  0.12500000000E+03 0.  0.
<mgrwt>
<rscale>  0 0.12500000E+03</rscale>
<asrwt>0</asrwt>
<pdfrwt beam="1">  1       21 0.15139474E-02 0.12500000E+03</pdfrwt>
<pdfrwt beam="2">  1       21 0.61069243E-01 0.12500000E+03</pdfrwt>
<totfact> 0.47594167E+06</totfact>
</mgrwt>
</event>
<event>
 3    1  0.1602107E-001  0.1250000E+03  0.7546771E-02  0.1235069E+00
         21   -1    0    0  502  501  0.00000000000E+00  0.00000000000E+00  0.46662706545E+01  0.46662706545E+01  0.00000000000E+00 0.  1.
         21   -1    0    0  501  502 -0.00000000000E+00 -0.00000000000E+00 -0.83712460961E+03  0.83712460961E+03  0.00000000000E+00 0.  1.
         25    1    1    2    0    0  0.00000000000E+00  0.00000000000E+00 -0.83245833895E+03  0.84179088026E+03  0.12500000000E+03 0.  0.
<mgrwt>
<rscale>  0 0.12500000E+03</rscale>
<asrwt>0</asrwt>
<pdfrwt beam="1">  1       21 0.71788779E-03 0.12500000E+03</pdfrwt>
<pdfrwt beam="2">  1       21 0.12878840E+00 0.12500000E+03</pdfrwt>
<totfact> 0.28024167E+06</totfact>
</mgrwt>
</event>
<event>
 3    1  0.1602107E-001  0.1250000E+03  0.7546771E-02  0.1235069E+00
         21   -1    0    0  502  501  0.00000000000E+00  0.00000000000E+00  0.96004202054E+02  0.96004202054E+02  0.00000000000E+00 0. -1.
         21   -1    0    0  501  502 -0.00000000000E+00 -0.00000000000E+00 -0.40688323182E+02  0.40688323182E+02  0.00000000000E+00 0. -1.
         25    1    1    2    0    0  0.00000000000E+00  0.00000000000E+00  0.55315878872E+02  0.13669252524E+03  0.12500000000E+03 0.  0.
<mgrwt>
<rscale>  0 0.12500000E+03</rscale>
<asrwt>0</asrwt>
<pdfrwt beam="1">  1       21 0.14769877E-01 0.12500000E+03</pdfrwt>
<pdfrwt beam="2">  1       21 0.62597421E-02 0.12500000E+03</pdfrwt>
<totfact> 0.72473138E+06</totfact>
</mgrwt>
</event>
<event>
 3    1  0.1602107E-001  0.1250000E+03  0.7546771E-02  0.1235069E+00
         21   -1    0    0  502  501  0.00000000000E+00  0.00000000000E+00  0.47988217137E+02  0.47988217137E+02  0.00000000000E+00 0. -1.
         21   -1    0    0  501  502 -0.00000000000E+00 -0.00000000000E+00 -0.81400190152E+02  0.81400190152E+02  0.00000000000E+00 0. -1.
         25    1    1    2    0    0  0.00000000000E+00  0.00000000000E+00 -0.33411973015E+02  0.12938840729E+03  0.12500000000E+03 0.  0.
<mgrwt>
<rscale>  0 0.12500000E+03</rscale>
<asrwt>0</asrwt>
<pdfrwt beam="1">  1       21 0.73828028E-02 0.12500000E+03</pdfrwt>
<pdfrwt beam="2">  1       21 0.12523106E-01 0.12500000E+03</pdfrwt>
<totfact> 0.73446770E+06</totfact>
</mgrwt>
</event>
<event>
 3    1  0.1602107E-001  0.1250000E+03  0.7546771E-02  0.1235069E+00
         21   -1    0    0  502  501  0.00000000000E+00  0.00000000000E+00  0.15691248616E+02  0.15691248616E+02  0.00000000000E+00 0.  1.
         21   -1    0    0  501  502 -0.00000000000E+00 -0.00000000000E+00 -0.24894449737E+03  0.24894449737E+03  0.00000000000E+00 0.  1.
         25    1    1    2    0    0  0.00000000000E+00  0.00000000000E+00 -0.23325324876E+03  0.26463574599E+03  0.12500000000E+03 0.  0.
<mgrwt>
<rscale>  0 0.12500000E+03</rscale>
<asrwt>0</asrwt>
<pdfrwt beam="1">  1       21 0.24140382E-02 0.12500000E+03</pdfrwt>
<pdfrwt beam="2">  1       21 0.38299154E-01 0.12500000E+03</pdfrwt>
<totfact> 0.58526968E+06</totfact>
</mgrwt>
</event>
<event>
 3    1  0.1602107E-001  0.1250000E+03  0.7546771E-02  0.1235069E+00
         21   -1    0    0  502  501  0.00000000000E+00  0.00000000000E+00  0.23564411826E+03  0.23564411826E+03  0.00000000000E+00 0. -1.
         21   -1    0    0  501  502 -0.00000000000E+00 -0.00000000000E+00 -0.16576904312E+02  0.16576904312E+02  0.00000000000E+00 0. -1.
         25    1    1    2    0    0  0.00000000000E+00  0.00000000000E+00  0.21906721395E+03  0.25222102257E+03  0.12500000000E+03 0.  0.
<mgrwt>
<rscale>  0 0.12500000E+03</rscale>
<asrwt>0</asrwt>
<pdfrwt beam="1">  1       21 0.36252939E-01 0.12500000E+03</pdfrwt>
<pdfrwt beam="2">  1       21 0.25502931E-02 0.12500000E+03</pdfrwt>
<totfact> 0.59669712E+06</totfact>
</mgrwt>
</event>
<event>
 3    1  0.1602107E-001  0.1250000E+03  0.7546771E-02  0.1235069E+00
         21   -1    0    0  502  501  0.00000000000E+00  0.00000000000E+00  0.90555513114E+02  0.90555513114E+02  0.00000000000E+00 0. -1.
         21   -1    0    0  501  502 -0.00000000000E+00 -0.00000000000E+00 -0.43136523285E+02  0.43136523285E+02  0.00000000000E+00 0. -1.
         25    1    1    2    0    0  0.00000000000E+00  0.00000000000E+00  0.47418989829E+02  0.13369203640E+03  0.12500000000E+03 0.  0.
<mgrwt>
<rscale>  0 0.12500000E+03</rscale>
<asrwt>0</asrwt>
<pdfrwt beam="1">  1       21 0.13931617E-01 0.12500000E+03</pdfrwt>
<pdfrwt beam="2">  1       21 0.66363882E-02 0.12500000E+03</pdfrwt>
<totfact> 0.72870127E+06</totfact>
</mgrwt>
</event>
<event>
 3    1  0.1602107E-001  0.1250000E+03  0.7546771E-02  0.1235069E+00
         21   -1    0    0  502  501  0.00000000000E+00  0.00000000000E+00  0.20764973630E+02  0.20764973630E+02  0.00000000000E+00 0.  1.
         21   -1    0    0  501  502 -0.00000000000E+00 -0.00000000000E+00 -0.18811726274E+03  0.18811726274E+03  0.00000000000E+00 0.  1.
         25    1    1    2    0    0  0.00000000000E+00  0.00000000000E+00 -0.16735228911E+03  0.20888223637E+03  0.12500000000E+03 0.  0.
<mgrwt>
<rscale>  0 0.12500000E+03</rscale>
<asrwt>0</asrwt>
<pdfrwt beam="1">  1       21 0.31946114E-02 0.12500000E+03</pdfrwt>
<pdfrwt beam="2">  1       21 0.28941117E-01 0.12500000E+03</pdfrwt>
<totfact> 0.63977329E+06</totfact>
</mgrwt>
</event>
<event>
 3    1  0.1602107E-001  0.1250000E+03  0.7546771E-02  0.1235069E+00
         21   -1    0    0  502  501  0.00000000000E+00  0.00000000000E+00  0.38604304810E+02  0.38604304810E+02  0.00000000000E+00 0.  1.
         21   -1    0    0  501  502 -0.00000000000E+00 -0.00000000000E+00 -0.10118690180E+03  0.10118690180E+03  0.00000000000E+00 0.  1.
         25    1    1    2    0    0  0.00000000000E+00  0.00000000000E+00 -0.62582596992E+02  0.13979120661E+03  0.12500000000E+03 0.  0.
<mgrwt>
<rscale>  0 0.12500000E+03</rscale>
<asrwt>0</asrwt>
<pdfrwt beam="1">  1       21 0.59391239E-02 0.12500000E+03</pdfrwt>
<pdfrwt beam="2">  1       21 0.15567215E-01 0.12500000E+03</pdfrwt>
<totfact> 0.72066577E+06</totfact>
</mgrwt>
</event>
<event>
 3    1  0.1602107E-001  0.1250000E+03  0.7546771E-02  0.1235069E+00
         21   -1    0    0  502  501  0.00000000000E+00  0.00000000000E+00  0.27052088045E+03  0.27052088045E+03  0.00000000000E+00 0. -1.
         21   -1    0    0  501  502 -0.00000000000E+00 -0.00000000000E+00 -0.14439735644E+02  0.14439735644E+02  0.00000000000E+00 0. -1.
         25    1    1    2    0    0  0.00000000000E+00  0.00000000000E+00  0.25608114481E+03  0.28496061610E+03  0.12500000000E+03 0.  0.
<mgrwt>
<rscale>  0 0.12500000E+03</rscale>
<asrwt>0</asrwt>
<pdfrwt beam="1">  1       21 0.41618593E-01 0.12500000E+03</pdfrwt>
<pdfrwt beam="2">  1       21 0.22214980E-02 0.12500000E+03</pdfrwt>
<totfact> 0.56729634E+06</totfact>
</mgrwt>
</event>
<event>
 3    1  0.1602107E-001  0.1250000E+03  0.7546771E-02  0.1235069E+00
         21   -1    0    0  502  501  0.00000000000E+00  0.00000000000E+00  0.26481909268E+01  0.26481909268E+01  0.00000000000E+00 0. -1.
         21   -1    0    0  501  502 -0.00000000000E+00 -0.00000000000E+00 -0.14750635841E+04  0.14750635841E+04  0.00000000000E+00 0. -1.
         25    1    1    2    0    0  0.00000000000E+00  0.00000000000E+00 -0.14724153932E+04  0.14777117751E+04  0.12500000000E+03 0.  0.
<mgrwt>
<rscale>  0 0.12500000E+03</rscale>
<asrwt>0</asrwt>
<pdfrwt beam="1">  1       21 0.40741350E-03 0.12500000E+03</pdfrwt>
<pdfrwt beam="2">  1       21 0.22693313E+00 0.12500000E+03</pdfrwt>
<totfact> 0.14326743E+06</totfact>
</mgrwt>
</event>
<event>
 3    1  0.1602107E-001  0.1250000E+03  0.7546771E-02  0.1235069E+00
         21   -1    0    0  502  501  0.00000000000E+00  0.00000000000E+00  0.44203695084E+01  0.44203695084E+01  0.00000000000E+00 0.  1.
         21   -1    0    0  501  502 -0.00000000000E+00 -0.00000000000E+00 -0.88369309230E+03  0.88369309230E+03  0.00000000000E+00 0.  1.
         25    1    1    2    0    0  0.00000000000E+00  0.00000000000E+00 -0.87927272280E+03  0.88811346181E+03  0.12500000000E+03 0.  0.
<mgrwt>
<rscale>  0 0.12500000E+03</rscale>
<asrwt>0</asrwt>
<pdfrwt beam="1">  1       21 0.68005733E-03 0.12500000E+03</pdfrwt>
<pdfrwt beam="2">  1       21 0.13595269E+00 0.12500000E+03</pdfrwt>
<totfact> 0.26641543E+06</totfact>
</mgrwt>
</event>
<event>
 3    1  0.1602107E-001  0.1250000E+03  0.7546771E-02  0.1235069E+00
         21   -1    0    0  502  501  0.00000000000E+00  0.00000000000E+00  0.15955499516E+02  0.15955499516E+02  0.00000000000E+00 0.  1.
         21   -1    0    0  501  502 -0.00000000000E+00 -0.00000000000E+00 -0.24482154233E+03  0.24482154233E+03  0.00000000000E+00 0.  1.
         25    1    1    2    0    0  0.00000000000E+00  0.00000000000E+00 -0.22886604281E+03  0.26077704184E+03  0.12500000000E+03 0.  0.
<mgrwt>
<rscale>  0 0.12500000E+03</rscale>
<asrwt>0</asrwt>
<pdfrwt beam="1">  1       21 0.24546923E-02 0.12500000E+03</pdfrwt>
<pdfrwt beam="2">  1       21 0.37664852E-01 0.12500000E+03</pdfrwt>
<totfact> 0.58878124E+06</totfact>
</mgrwt>
</event>
<event>
 3    1  0.1602107E-001  0.1250000E+03  0.7546771E-02  0.1235069E+00
         21   -1    0    0  502  501  0.00000000000E+00  0.00000000000E+00  0.14565000136E+03  0.14565000136E+03  0.00000000000E+00 0.  1.
         21   -1    0    0  501  502 -0.00000000000E+00 -0.00000000000E+00 -0.26819429891E+02  0.26819429891E+02  0.00000000000E+00 0.  1.
         25    1    1    2    0    0  0.00000000000E+00  0.00000000000E+00  0.11883057147E+03  0.17246943125E+03  0.12500000000E+03 0.  0.
<mgrwt>
<rscale>  0 0.12500000E+03</rscale>
<asrwt>0</asrwt>
<pdfrwt beam="1">  1       21 0.22407692E-01 0.12500000E+03</pdfrwt>
<pdfrwt beam="2">  1       21 0.41260662E-02 0.12500000E+03</pdfrwt>
<totfact> 0.68026098E+06</totfact>
</mgrwt>
</event>
<event>
 3    1  0.1602107E-001  0.1250000E+03  0.7546771E-02  0.1235069E+00
         21   -1    0    0  502  501  0.00000000000E+00  0.00000000000E+00  0.13315757287E+02  0.13315757287E+02  0.00000000000E+00 0. -1.
         21   -1    0    0  501  502 -0.00000000000E+00 -0.00000000000E+00 -0.29335545218E+03  0.29335545218E+03  0.00000000000E+00 0. -1.
         25    1    1    2    0    0  0.00000000000E+00  0.00000000000E+00 -0.28003969489E+03  0.30667120947E+03  0.12500000000E+03 0.  0.
<mgrwt>
<rscale>  0 0.12500000E+03</rscale>
<asrwt>0</asrwt>
<pdfrwt beam="1">  1       21 0.20485782E-02 0.12500000E+03</pdfrwt>
<pdfrwt beam="2">  1       21 0.45131605E-01 0.12500000E+03</pdfrwt>
<totfact> 0.54906289E+06</totfact>
</mgrwt>
</event>
<event>
 3    1  0.1602107E-001  0.1250000E+03  0.7546771E-02  0.1235069E+00
         21   -1    0    0  502  501  0.00000000000E+00  0.00000000000E+00  0.12719588017E+04  0.12719588017E+04  0.00000000000E+00 0.  1.
         21   -1    0    0  501  502 -0.00000000000E+00 -0.00000000000E+00 -0.30710507250E+01  0.30710507250E+01  0.00000000000E+00 0.  1.
         25    1    1    2    0    0  0.00000000000E+00  0.00000000000E+00  0.12688877509E+04  0.12750298524E+04  0.12500000000E+03 0.  0.
<mgrwt>
<rscale>  0 0.12500000E+03</rscale>
<asrwt>0</asrwt>
<pdfrwt beam="1">  1       21 0.19568555E+00 0.12500000E+03</pdfrwt>
<pdfrwt beam="2">  1       21 0.47247036E-03 0.12500000E+03</pdfrwt>
<totfact> 0.17706785E+06</totfact>
</mgrwt>
</event>
<event>
 3    1  0.1602107E-001  0.1250000E+03  0.7546771E-02  0.1235069E+00
         21   -1    0    0  502  501  0.00000000000E+00  0.00000000000E+00  0.90237449691E+01  0.90237449691E+01  0.00000000000E+00 0. -1.
         21   -1    0    0  501  502 -0.00000000000E+00 -0.00000000000E+00 -0.43288568254E+03  0.43288568254E+03  0.00000000000E+00 0. -1.
         25    1    1    2    0    0  0.00000000000E+00  0.00000000000E+00 -0.42386193757E+03  0.44190942751E+03  0.12500000000E+03 0.  0.
<mgrwt>
<rscale>  0 0.12500000E+03</rscale>
<asrwt>0</asrwt>
<pdfrwt beam="1">  1       21 0.13882685E-02 0.12500000E+03</pdfrwt>
<pdfrwt beam="2">  1       21 0.66597796E-01 0.12500000E+03</pdfrwt>
<totfact> 0.45380335E+06</totfact>
</mgrwt>
</event>
<event>
 3    1  0.1602107E-001  0.1250000E+03  0.7546771E-02  0.1235069E+00
         21   -1    0    0  502  501  0.00000000000E+00  0.00000000000E+00  0.14753392402E+03  0.14753392402E+03  0.00000000000E+00 0.  1.
         21   -1    0    0  501  502 -0.00000000000E+00 -0.00000000000E+00 -0.26476961322E+02  0.26476961322E+02  0.00000000000E+00 0.  1.
         25    1    1    2    0    0  0.00000000000E+00  0.00000000000E+00  0.12105696270E+03  0.17401088534E+03  0.12500000000E+03 0.  0.
<mgrwt>
<rscale>  0 0.12500000E+03</rscale>
<asrwt>0</asrwt>
<pdfrwt beam="1">  1       21 0.22697526E-01 0.12500000E+03</pdfrwt>
<pdfrwt beam="2">  1       21 0.40733788E-02 0.12500000E+03</pdfrwt>
<totfact> 0.67845320E+06</totfact>
</mgrwt>
</event>
<event>
 3    1  0.1602107E-001  0.1250000E+03  0.7546771E-02  0.1235069E+00
         21   -1    0    0  502  501  0.00000000000E+00  0.00000000000E+00  0.15605698521E+01  0.15605698521E+01  0.00000000000E+00 0. -1.
         21   -1    0    0  501  502 -0.00000000000E+00 -0.00000000000E+00 -0.25030920562E+04  0.25030920562E+04  0.00000000000E+00 0. -1.
         25    1    1    2    0    0  0.00000000000E+00  0.00000000000E+00 -0.25015314864E+04  0.25046526261E+04  0.12500000000E+03 0.  0.
<mgrwt>
<rscale>  0 0.12500000E+03</rscale>
<asrwt>0</asrwt>
<pdfrwt beam="1">  1       21 0.24008862E-03 0.12500000E+03</pdfrwt>
<pdfrwt beam="2">  1       21 0.38508956E+00 0.12500000E+03</pdfrwt>
<totfact> 0.39940097E+05</totfact>
</mgrwt>
</event>
<event>
 3    1  0.1602107E-001  0.1250000E+03  0.7546771E-02  0.1235069E+00
         21   -1    0    0  502  501  0.00000000000E+00  0.00000000000E+00  0.27597168598E+02  0.27597168598E+02  0.00000000000E+00 0. -1.
         21   -1    0    0  501  502 -0.00000000000E+00 -0.00000000000E+00 -0.14154531781E+03  0.14154531781E+03  0.00000000000E+00 0. -1.
         25    1    1    2    0    0  0.00000000000E+00  0.00000000000E+00 -0.11394814922E+03  0.16914248641E+03  0.12500000000E+03 0.  0.
<mgrwt>
<rscale>  0 0.12500000E+03</rscale>
<asrwt>0</asrwt>
<pdfrwt beam="1">  1       21 0.42457182E-02 0.12500000E+03</pdfrwt>
<pdfrwt beam="2">  1       21 0.21776203E-01 0.12500000E+03</pdfrwt>
<totfact> 0.68419278E+06</totfact>
</mgrwt>
</event>
<event>
 3    1  0.1602107E-001  0.1250000E+03  0.7546771E-02  0.1235069E+00
         21   -1    0    0  502  501  0.00000000000E+00  0.00000000000E+00  0.15686980283E+03  0.15686980283E+03  0.00000000000E+00 0.  1.
         21   -1    0    0  501  502 -0.00000000000E+00 -0.00000000000E+00 -0.24901223368E+02  0.24901223368E+02  0.00000000000E+00 0.  1.
         25    1    1    2    0    0  0.00000000000E+00  0.00000000000E+00  0.13196857946E+03  0.18177102620E+03  0.12500000000E+03 0.  0.
<mgrwt>
<rscale>  0 0.12500000E+03</rscale>
<asrwt>0</asrwt>
<pdfrwt beam="1">  1       21 0.24133815E-01 0.12500000E+03</pdfrwt>
<pdfrwt beam="2">  1       21 0.38309575E-02 0.12500000E+03</pdfrwt>
<totfact> 0.66948949E+06</totfact>
</mgrwt>
</event>
<event>
 3    1  0.1602107E-001  0.1250000E+03  0.7546771E-02  0.1235069E+00
         21   -1    0    0  502  501  0.00000000000E+00  0.00000000000E+00  0.15706612921E+03  0.15706612921E+03  0.00000000000E+00 0. -1.
         21   -1    0    0  501  502 -0.00000000000E+00 -0.00000000000E+00 -0.24870097834E+02  0.24870097834E+02  0.00000000000E+00 0. -1.
         25    1    1    2    0    0  0.00000000000E+00  0.00000000000E+00  0.13219603138E+03  0.18193622705E+03  0.12500000000E+03 0.  0.
<mgrwt>
<rscale>  0 0.12500000E+03</rscale>
<asrwt>0</asrwt>
<pdfrwt beam="1">  1       21 0.24164019E-01 0.12500000E+03</pdfrwt>
<pdfrwt beam="2">  1       21 0.38261690E-02 0.12500000E+03</pdfrwt>
<totfact> 0.66930110E+06</totfact>
</mgrwt>
</event>
<event>
 3    1  0.1602107E-001  0.1250000E+03  0.7546771E-02  0.1235069E+00
         21   -1    0    0  502  501  0.00000000000E+00  0.00000000000E+00  0.24742758115E+03  0.24742758115E+03  0.00000000000E+00 0. -1.
         21   -1    0    0  501  502 -0.00000000000E+00 -0.00000000000E+00 -0.15787447712E+02  0.15787447712E+02  0.00000000000E+00 0. -1.
         25    1    1    2    0    0  0.00000000000E+00  0.00000000000E+00  0.23164013344E+03  0.26321502886E+03  0.12500000000E+03 0.  0.
<mgrwt>
<rscale>  0 0.12500000E+03</rscale>
<asrwt>0</asrwt>
<pdfrwt beam="1">  1       21 0.38065779E-01 0.12500000E+03</pdfrwt>
<pdfrwt beam="2">  1       21 0.24288383E-02 0.12500000E+03</pdfrwt>
<totfact> 0.58655845E+06</totfact>
</mgrwt>
</event>
<event>
 3    1  0.1602107E-001  0.1250000E+03  0.7546771E-02  0.1235069E+00
         21   -1    0    0  502  501  0.00000000000E+00  0.00000000000E+00  0.71285549898E+02  0.71285549898E+02  0.00000000000E+00 0.  1.
         21   -1    0    0  501  502 -0.00000000000E+00 -0.00000000000E+00 -0.54797220553E+02  0.54797220553E+02  0.00000000000E+00 0.  1.
         25    1    1    2    0    0  0.00000000000E+00  0.00000000000E+00  0.16488329346E+02  0.12608277045E+03  0.12500000000E+03 0.  0.
<mgrwt>
<rscale>  0 0.12500000E+03</rscale>
<asrwt>0</asrwt>
<pdfrwt beam="1">  1       21 0.10967008E-01 0.12500000E+03</pdfrwt>
<pdfrwt beam="2">  1       21 0.84303416E-02 0.12500000E+03</pdfrwt>
<totfact> 0.73894634E+06</totfact>
</mgrwt>
</event>
<event>
 3    1  0.1602107E-001  0.1250000E+03  0.7546771E-02  0.1235069E+00
         21   -1    0    0  502  501  0.00000000000E+00  0.00000000000E+00  0.50937351025E+02  0.50937351025E+02  0.00000000000E+00 0. -1.
         21   -1    0    0  501  502 -0.00000000000E+00 -0.00000000000E+00 -0.76687340850E+02  0.76687340850E+02  0.00000000000E+00 0. -1.
         25    1    1    2    0    0  0.00000000000E+00  0.00000000000E+00 -0.25749989825E+02  0.12762469187E+03  0.12500000000E+03 0.  0.
<mgrwt>
<rscale>  0 0.12500000E+03</rscale>
<asrwt>0</asrwt>
<pdfrwt beam="1">  1       21 0.78365156E-02 0.12500000E+03</pdfrwt>
<pdfrwt beam="2">  1       21 0.11798052E-01 0.12500000E+03</pdfrwt>
<totfact> 0.73684322E+06</totfact>
</mgrwt>
</event>
<event>
 3    1  0.1602107E-001  0.1250000E+03  0.7546771E-02  0.1235069E+00
         21   -1    0    0  502  501  0.00000000000E+00  0.00000000000E+00  0.45650424810E+03  0.45650424810E+03  0.00000000000E+00 0. -1.
         21   -1    0    0  501  502 -0.00000000000E+00 -0.00000000000E+00 -0.85568754646E+01  0.85568754646E+01  0.00000000000E+00 0. -1.
         25    1    1    2    0    0  0.00000000000E+00  0.00000000000E+00  0.44794737263E+03  0.46506112356E+03  0.12500000000E+03 0.  0.
<mgrwt>
<rscale>  0 0.12500000E+03</rscale>
<asrwt>0</asrwt>
<pdfrwt beam="1">  1       21 0.70231404E-01 0.12500000E+03</pdfrwt>
<pdfrwt beam="2">  1       21 0.13164427E-02 0.12500000E+03</pdfrwt>
<totfact> 0.44004555E+06</totfact>
</mgrwt>
</event>
<event>
 3    1  0.1602107E-001  0.1250000E+03  0.7546771E-02  0.1235069E+00
         21   -1    0    0  502  501  0.00000000000E+00  0.00000000000E+00  0.24931073397E+02  0.24931073397E+02  0.00000000000E+00 0. -1.
         21   -1    0    0  501  502 -0.00000000000E+00 -0.00000000000E+00 -0.15668198227E+03  0.15668198227E+03  0.00000000000E+00 0. -1.
         25    1    1    2    0    0  0.00000000000E+00  0.00000000000E+00 -0.13175090888E+03  0.18161305567E+03  0.12500000000E+03 0.  0.
<mgrwt>
<rscale>  0 0.12500000E+03</rscale>
<asrwt>0</asrwt>
<pdfrwt beam="1">  1       21 0.38355497E-02 0.12500000E+03</pdfrwt>
<pdfrwt beam="2">  1       21 0.24104920E-01 0.12500000E+03</pdfrwt>
<totfact> 0.66966972E+06</totfact>
</mgrwt>
</event>
<event>
 3    1  0.1602107E-001  0.1250000E+03  0.7546771E-02  0.1235069E+00
         21   -1    0    0  502  501  0.00000000000E+00  0.00000000000E+00  0.13790409689E+02  0.13790409689E+02  0.00000000000E+00 0.  1.
         21   -1    0    0  501  502 -0.00000000000E+00 -0.00000000000E+00 -0.28325844467E+03  0.28325844467E+03  0.00000000000E+00 0.  1.
         25    1    1    2    0    0  0.00000000000E+00  0.00000000000E+00 -0.26946803498E+03  0.29704885436E+03  0.12500000000E+03 0.  0.
<mgrwt>
<rscale>  0 0.12500000E+03</rscale>
<asrwt>0</asrwt>
<pdfrwt beam="1">  1       21 0.21216017E-02 0.12500000E+03</pdfrwt>
<pdfrwt beam="2">  1       21 0.43578219E-01 0.12500000E+03</pdfrwt>
<totfact> 0.55702322E+06</totfact>
</mgrwt>
</event>
<event>
 3    1  0.1602107E-001  0.1250000E+03  0.7546771E-02  0.1235069E+00
         21   -1    0    0  502  501  0.00000000000E+00  0.00000000000E+00  0.15480159959E+02  0.15480159959E+02  0.00000000000E+00 0.  1.
         21   -1    0    0  501  502 -0.00000000000E+00 -0.00000000000E+00 -0.25233912378E+03  0.25233912378E+03  0.00000000000E+00 0.  1.
         25    1    1    2    0    0  0.00000000000E+00  0.00000000000E+00 -0.23685896382E+03  0.26781928374E+03  0.12500000000E+03 0.  0.
<mgrwt>
<rscale>  0 0.12500000E+03</rscale>
<asrwt>0</asrwt>
<pdfrwt beam="1">  1       21 0.23815632E-02 0.12500000E+03</pdfrwt>
<pdfrwt beam="2">  1       21 0.38821401E-01 0.12500000E+03</pdfrwt>
<totfact> 0.58239923E+06</totfact>
</mgrwt>
</event>
<event>
 3    1  0.1602107E-001  0.1250000E+03  0.7546771E-02  0.1235069E+00
         21   -1    0    0  502  501  0.00000000000E+00  0.00000000000E+00  0.15246113083E+03  0.15246113083E+03  0.00000000000E+00 0. -1.
         21   -1    0    0  501  502 -0.00000000000E+00 -0.00000000000E+00 -0.25621284446E+02  0.25621284446E+02  0.00000000000E+00 0. -1.
         25    1    1    2    0    0  0.00000000000E+00  0.00000000000E+00  0.12683984639E+03  0.17808241528E+03  0.12500000000E+03 0.  0.
<mgrwt>
<rscale>  0 0.12500000E+03</rscale>
<asrwt>0</asrwt>
<pdfrwt beam="1">  1       21 0.23455558E-01 0.12500000E+03</pdfrwt>
<pdfrwt beam="2">  1       21 0.39417361E-02 0.12500000E+03</pdfrwt>
<totfact> 0.67372199E+06</totfact>
</mgrwt>
</event>
<event>
 3    1  0.1602107E-001  0.1250000E+03  0.7546771E-02  0.1235069E+00
         21   -1    0    0  502  501  0.00000000000E+00  0.00000000000E+00  0.28074186257E+02  0.28074186257E+02  0.00000000000E+00 0. -1.
         21   -1    0    0  501  502 -0.00000000000E+00 -0.00000000000E+00 -0.13914027513E+03  0.13914027513E+03  0.00000000000E+00 0. -1.
         25    1    1    2    0    0  0.00000000000E+00  0.00000000000E+00 -0.11106608888E+03  0.16721446139E+03  0.12500000000E+03 0.  0.
<mgrwt>
<rscale>  0 0.12500000E+03</rscale>
<asrwt>0</asrwt>
<pdfrwt beam="1">  1       21 0.43191056E-02 0.12500000E+03</pdfrwt>
<pdfrwt beam="2">  1       21 0.21406196E-01 0.12500000E+03</pdfrwt>
<totfact> 0.68648536E+06</totfact>
</mgrwt>
</event>
<event>
 3    1  0.1602107E-001  0.1250000E+03  0.7546771E-02  0.1235069E+00
         21   -1    0    0  502  501  0.00000000000E+00  0.00000000000E+00  0.52162722157E+03  0.52162722157E+03  0.00000000000E+00 0.  1.
         21   -1    0    0  501  502 -0.00000000000E+00 -0.00000000000E+00 -0.74885854083E+01  0.74885854083E+01  0.00000000000E+00 0.  1.
         25    1    1    2    0    0  0.00000000000E+00  0.00000000000E+00  0.51413863616E+03  0.52911580698E+03  0.12500000000E+03 0.  0.
<mgrwt>
<rscale>  0 0.12500000E+03</rscale>
<asrwt>0</asrwt>
<pdfrwt beam="1">  1       21 0.80250313E-01 0.12500000E+03</pdfrwt>
<pdfrwt beam="2">  1       21 0.11520905E-02 0.12500000E+03</pdfrwt>
<totfact> 0.40507840E+06</totfact>
</mgrwt>
</event>
<event>
 3    1  0.1602107E-001  0.1250000E+03  0.7546771E-02  0.1235069E+00
         21   -1    0    0  502  501  0.00000000000E+00  0.00000000000E+00  0.12586990790E+03  0.12586990790E+03  0.00000000000E+00 0.  1.
         21   -1    0    0  501  502 -0.00000000000E+00 -0.00000000000E+00 -0.31034026045E+02  0.31034026045E+02  0.00000000000E+00 0.  1.
         25    1    1    2    0    0  0.00000000000E+00  0.00000000000E+00  0.94835881855E+02  0.15690393394E+03  0.12500000000E+03 0.  0.
<mgrwt>
<rscale>  0 0.12500000E+03</rscale>
<asrwt>0</asrwt>
<pdfrwt beam="1">  1       21 0.19364601E-01 0.12500000E+03</pdfrwt>
<pdfrwt beam="2">  1       21 0.47744656E-02 0.12500000E+03</pdfrwt>
<totfact> 0.69899794E+06</totfact>
</mgrwt>
</event>
<event>
 3    1  0.1602107E-001  0.1250000E+03  0.7546771E-02  0.1235069E+00
         21   -1    0    0  502  501  0.00000000000E+00  0.00000000000E+00  0.26705290474E+02  0.26705290474E+02  0.00000000000E+00 0. -1.
         21   -1    0    0  501  502 -0.00000000000E+00 -0.00000000000E+00 -0.14627251494E+03  0.14627251494E+03  0.00000000000E+00 0. -1.
         25    1    1    2    0    0  0.00000000000E+00  0.00000000000E+00 -0.11956722447E+03  0.17297780542E+03  0.12500000000E+03 0.  0.
<mgrwt>
<rscale>  0 0.12500000E+03</rscale>
<asrwt>0</asrwt>
<pdfrwt beam="1">  1       21 0.41085062E-02 0.12500000E+03</pdfrwt>
<pdfrwt beam="2">  1       21 0.22503464E-01 0.12500000E+03</pdfrwt>
<totfact> 0.67966375E+06</totfact>
</mgrwt>
</event>
<event>
 3    1  0.1602107E-001  0.1250000E+03  0.7546771E-02  0.1235069E+00
         21   -1    0    0  502  501  0.00000000000E+00  0.00000000000E+00  0.34303826570E+03  0.34303826570E+03  0.00000000000E+00 0. -1.
         21   -1    0    0  501  502 -0.00000000000E+00 -0.00000000000E+00 -0.11387213587E+02  0.11387213587E+02  0.00000000000E+00 0. -1.
         25    1    1    2    0    0  0.00000000000E+00  0.00000000000E+00  0.33165105211E+03  0.35442547928E+03  0.12500000000E+03 0.  0.
<mgrwt>
<rscale>  0 0.12500000E+03</rscale>
<asrwt>0</asrwt>
<pdfrwt beam="1">  1       21 0.52775110E-01 0.12500000E+03</pdfrwt>
<pdfrwt beam="2">  1       21 0.17518793E-02 0.12500000E+03</pdfrwt>
<totfact> 0.51213253E+06</totfact>
</mgrwt>
</event>
<event>
 3    1  0.1602107E-001  0.1250000E+03  0.7546771E-02  0.1235069E+00
         21   -1    0    0  502  501  0.00000000000E+00  0.00000000000E+00  0.30518397980E+03  0.30518397980E+03  0.00000000000E+00 0.  1.
         21   -1    0    0  501  502 -0.00000000000E+00 -0.00000000000E+00 -0.12799656137E+02  0.12799656137E+02  0.00000000000E+00 0.  1.
         25    1    1    2    0    0  0.00000000000E+00  0.00000000000E+00  0.29238432366E+03  0.31798363594E+03  0.12500000000E+03 0.  0.
<mgrwt>
<rscale>  0 0.12500000E+03</rscale>
<asrwt>0</asrwt>
<pdfrwt beam="1">  1       21 0.46951376E-01 0.12500000E+03</pdfrwt>
<pdfrwt beam="2">  1       21 0.19691781E-02 0.12500000E+03</pdfrwt>
<totfact> 0.53993519E+06</totfact>
</mgrwt>
</event>
<event>
 3    1  0.1602107E-001  0.1250000E+03  0.7546771E-02  0.1235069E+00
         21   -1    0    0  502  501  0.00000000000E+00  0.00000000000E+00  0.37617299895E+02  0.37617299895E+02  0.00000000000E+00 0. -1.
         21   -1    0    0  501  502 -0.00000000000E+00 -0.00000000000E+00 -0.10384184965E+03  0.10384184965E+03  0.00000000000E+00 0. -1.
         25    1    1    2    0    0  0.00000000000E+00  0.00000000000E+00 -0.66224549756E+02  0.14145914955E+03  0.12500000000E+03 0.  0.
<mgrwt>
<rscale>  0 0.12500000E+03</rscale>
<asrwt>0</asrwt>
<pdfrwt beam="1">  1       21 0.57872771E-02 0.12500000E+03</pdfrwt>
<pdfrwt beam="2">  1       21 0.15975669E-01 0.12500000E+03</pdfrwt>
<totfact> 0.71849388E+06</totfact>
</mgrwt>
</event>
<event>
 3    1  0.1602107E-001  0.1250000E+03  0.7546771E-02  0.1235069E+00
         21   -1    0    0  502  501  0.00000000000E+00  0.00000000000E+00  0.47688847929E+02  0.47688847929E+02  0.00000000000E+00 0. -1.
         21   -1    0    0  501  502 -0.00000000000E+00 -0.00000000000E+00 -0.81911184053E+02  0.81911184053E+02  0.00000000000E+00 0. -1.
         25    1    1    2    0    0  0.00000000000E+00  0.00000000000E+00 -0.34222336123E+02  0.12960003198E+03  0.12500000000E+03 0.  0.
<mgrwt>
<rscale>  0 0.12500000E+03</rscale>
<asrwt>0</asrwt>
<pdfrwt beam="1">  1       21 0.73367458E-02 0.12500000E+03</pdfrwt>
<pdfrwt beam="2">  1       21 0.12601721E-01 0.12500000E+03</pdfrwt>
<totfact> 0.73418419E+06</totfact>
</mgrwt>
</event>
<event>
 3    1  0.1602107E-001  0.1250000E+03  0.7546771E-02  0.1235069E+00
         21   -1    0    0  502  501  0.00000000000E+00  0.00000000000E+00  0.15261447634E+03  0.15261447634E+03  0.00000000000E+00 0.  1.
         21   -1    0    0  501  502 -0.00000000000E+00 -0.00000000000E+00 -0.25595540434E+02  0.25595540434E+02  0.00000000000E+00 0.  1.
         25    1    1    2    0    0  0.00000000000E+00  0.00000000000E+00  0.12701893591E+03  0.17821001678E+03  0.12500000000E+03 0.  0.
<mgrwt>
<rscale>  0 0.12500000E+03</rscale>
<asrwt>0</asrwt>
<pdfrwt beam="1">  1       21 0.23479150E-01 0.12500000E+03</pdfrwt>
<pdfrwt beam="2">  1       21 0.39377755E-02 0.12500000E+03</pdfrwt>
<totfact> 0.67357473E+06</totfact>
</mgrwt>
</event>
<event>
 3    1  0.1602107E-001  0.1250000E+03  0.7546771E-02  0.1235069E+00
         21   -1    0    0  502  501  0.00000000000E+00  0.00000000000E+00  0.15413557769E+02  0.15413557769E+02  0.00000000000E+00 0. -1.
         21   -1    0    0  501  502 -0.00000000000E+00 -0.00000000000E+00 -0.25342948452E+03  0.25342948452E+03  0.00000000000E+00 0. -1.
         25    1    1    2    0    0  0.00000000000E+00  0.00000000000E+00 -0.23801592675E+03  0.26884304229E+03  0.12500000000E+03 0.  0.
<mgrwt>
<rscale>  0 0.12500000E+03</rscale>
<asrwt>0</asrwt>
<pdfrwt beam="1">  1       21 0.23713166E-02 0.12500000E+03</pdfrwt>
<pdfrwt beam="2">  1       21 0.38989151E-01 0.12500000E+03</pdfrwt>
<totfact> 0.58148118E+06</totfact>
</mgrwt>
</event>
<event>
 3    1  0.1602107E-001  0.1250000E+03  0.7546771E-02  0.1235069E+00
         21   -1    0    0  502  501  0.00000000000E+00  0.00000000000E+00  0.20877013363E+03  0.20877013363E+03  0.00000000000E+00 0.  1.
         21   -1    0    0  501  502 -0.00000000000E+00 -0.00000000000E+00 -0.18710770224E+02  0.18710770224E+02  0.00000000000E+00 0.  1.
         25    1    1    2    0    0  0.00000000000E+00  0.00000000000E+00  0.19005936341E+03  0.22748090386E+03  0.12500000000E+03 0.  0.
<mgrwt>
<rscale>  0 0.12500000E+03</rscale>
<asrwt>0</asrwt>
<pdfrwt beam="1">  1       21 0.32118481E-01 0.12500000E+03</pdfrwt>
<pdfrwt beam="2">  1       21 0.28785802E-02 0.12500000E+03</pdfrwt>
<totfact> 0.62065571E+06</totfact>
</mgrwt>
</event>
<event>
 3    1  0.1602107E-001  0.1250000E+03  0.7546771E-02  0.1235069E+00
         21   -1    0    0  502  501  0.00000000000E+00  0.00000000000E+00  0.10109443934E+04  0.10109443934E+04  0.00000000000E+00 0.  1.
         21   -1    0    0  501  502 -0.00000000000E+00 -0.00000000000E+00 -0.38639612878E+01  0.38639612878E+01  0.00000000000E+00 0.  1.
         25    1    1    2    0    0  0.00000000000E+00  0.00000000000E+00  0.10070804321E+04  0.10148083546E+04  0.12500000000E+03 0.  0.
<mgrwt>
<rscale>  0 0.12500000E+03</rscale>
<asrwt>0</asrwt>
<pdfrwt beam="1">  1       21 0.15552970E+00 0.12500000E+03</pdfrwt>
<pdfrwt beam="2">  1       21 0.59445639E-03 0.12500000E+03</pdfrwt>
<totfact> 0.23251676E+06</totfact>
</mgrwt>
</event>
<event>
 3    1  0.1602107E-001  0.1250000E+03  0.7546771E-02  0.1235069E+00
         21   -1    0    0  502  501  0.00000000000E+00  0.00000000000E+00  0.11171469047E+03  0.11171469047E+03  0.00000000000E+00 0. -1.
         21   -1    0    0  501  502 -0.00000000000E+00 -0.00000000000E+00 -0.34966305538E+02  0.34966305538E+02  0.00000000000E+00 0. -1.
         25    1    1    2    0    0  0.00000000000E+00  0.00000000000E+00  0.76748384929E+02  0.14668099601E+03  0.12500000000E+03 0.  0.
<mgrwt>
<rscale>  0 0.12500000E+03</rscale>
<asrwt>0</asrwt>
<pdfrwt beam="1">  1       21 0.17186875E-01 0.12500000E+03</pdfrwt>
<pdfrwt beam="2">  1       21 0.53794317E-02 0.12500000E+03</pdfrwt>
<totfact> 0.71178662E+06</totfact>
</mgrwt>
</event>
<event>
 3    1  0.1602107E-001  0.1250000E+03  0.7546771E-02  0.1235069E+00
         21   -1    0    0  502  501  0.00000000000E+00  0.00000000000E+00  0.84306466800E+02  0.84306466800E+02  0.00000000000E+00 0. -1.
         21   -1    0    0  501  502 -0.00000000000E+00 -0.00000000000E+00 -0.46333930815E+02  0.46333930815E+02  0.00000000000E+00 0. -1.
         25    1    1    2    0    0  0.00000000000E+00  0.00000000000E+00  0.37972535985E+02  0.13064039762E+03  0.12500000000E+03 0.  0.
<mgrwt>
<rscale>  0 0.12500000E+03</rscale>
<asrwt>0</asrwt>
<pdfrwt beam="1">  1       21 0.12970226E-01 0.12500000E+03</pdfrwt>
<pdfrwt beam="2">  1       21 0.71282971E-02 0.12500000E+03</pdfrwt>
<totfact> 0.73279172E+06</totfact>
</mgrwt>
</event>
<event>
 3    1  0.1602107E-001  0.1250000E+03  0.7546771E-02  0.1235069E+00
         21   -1    0    0  502  501  0.00000000000E+00  0.00000000000E+00  0.13445473390E+02  0.13445473390E+02  0.00000000000E+00 0.  1.
         21   -1    0    0  501  502 -0.00000000000E+00 -0.00000000000E+00 -0.29052528585E+03  0.29052528585E+03  0.00000000000E+00 0.  1.
         25    1    1    2    0    0  0.00000000000E+00  0.00000000000E+00 -0.27707981247E+03  0.30397075924E+03  0.12500000000E+03 0.  0.
<mgrwt>
<rscale>  0 0.12500000E+03</rscale>
<asrwt>0</asrwt>
<pdfrwt beam="1">  1       21 0.20685342E-02 0.12500000E+03</pdfrwt>
<pdfrwt beam="2">  1       21 0.44696201E-01 0.12500000E+03</pdfrwt>
<totfact> 0.55127792E+06</totfact>
</mgrwt>
</event>
<event>
 3    1  0.1602107E-001  0.1250000E+03  0.7546771E-02  0.1235069E+00
         21   -1    0    0  502  501  0.00000000000E+00  0.00000000000E+00  0.19762774853E+03  0.19762774853E+03  0.00000000000E+00 0. -1.
         21   -1    0    0  501  502 -0.00000000000E+00 -0.00000000000E+00 -0.19765696007E+02  0.19765696007E+02  0.00000000000E+00 0. -1.
         25    1    1    2    0    0  0.00000000000E+00  0.00000000000E+00  0.17786205253E+03  0.21739344454E+03  0.12500000000E+03 0.  0.
<mgrwt>
<rscale>  0 0.12500000E+03</rscale>
<asrwt>0</asrwt>
<pdfrwt beam="1">  1       21 0.30404268E-01 0.12500000E+03</pdfrwt>
<pdfrwt beam="2">  1       21 0.30408764E-02 0.12500000E+03</pdfrwt>
<totfact> 0.63089958E+06</totfact>
</mgrwt>
</event>
<event>
 3    1  0.1602107E-001  0.1250000E+03  0.7546771E-02  0.1235069E+00
         21   -1    0    0  502  501  0.00000000000E+00  0.00000000000E+00  0.24287639630E+03  0.24287639630E+03  0.00000000000E+00 0.  1.
         21   -1    0    0  501  502 -0.00000000000E+00 -0.00000000000E+00 -0.16083283759E+02  0.16083283759E+02  0.00000000000E+00 0.  1.
         25    1    1    2    0    0  0.00000000000E+00  0.00000000000E+00  0.22679311254E+03  0.25895968006E+03  0.12500000000E+03 0.  0.
<mgrwt>
<rscale>  0 0.12500000E+03</rscale>
<asrwt>0</asrwt>
<pdfrwt beam="1">  1       21 0.37365597E-01 0.12500000E+03</pdfrwt>
<pdfrwt beam="2">  1       21 0.24743515E-02 0.12500000E+03</pdfrwt>
<totfact> 0.59044756E+06</totfact>
</mgrwt>
</event>
<event>
 3    1  0.1602107E-001  0.1250000E+03  0.7546771E-02  0.1235069E+00
         21   -1    0    0  502  501  0.00000000000E+00  0.00000000000E+00  0.10331654643E+02  0.10331654643E+02  0.00000000000E+00 0.  1.
         21   -1    0    0  501  502 -0.00000000000E+00 -0.00000000000E+00 -0.37808561502E+03  0.37808561502E+03  0.00000000000E+00 0.  1.
         25    1    1    2    0    0  0.00000000000E+00  0.00000000000E+00 -0.36775396038E+03  0.38841726967E+03  0.12500000000E+03 0.  0.
<mgrwt>
<rscale>  0 0.12500000E+03</rscale>
<asrwt>0</asrwt>
<pdfrwt beam="1">  1       21 0.15894856E-02 0.12500000E+03</pdfrwt>
<pdfrwt beam="2">  1       21 0.58167008E-01 0.12500000E+03</pdfrwt>
<totfact> 0.48819234E+06</totfact>
</mgrwt>
</event>
<event>
 3    1  0.1602107E-001  0.1250000E+03  0.7546771E-02  0.1235069E+00
         21   -1    0    0  502  501  0.00000000000E+00  0.00000000000E+00  0.11098380381E+03  0.11098380381E+03  0.00000000000E+00 0. -1.
         21   -1    0    0  501  502 -0.00000000000E+00 -0.00000000000E+00 -0.35196577031E+02  0.35196577031E+02  0.00000000000E+00 0. -1.
         25    1    1    2    0    0  0.00000000000E+00  0.00000000000E+00  0.75787226781E+02  0.14618038084E+03  0.12500000000E+03 0.  0.
<mgrwt>
<rscale>  0 0.12500000E+03</rscale>
<asrwt>0</asrwt>
<pdfrwt beam="1">  1       21 0.17074431E-01 0.12500000E+03</pdfrwt>
<pdfrwt beam="2">  1       21 0.54148580E-02 0.12500000E+03</pdfrwt>
<totfact> 0.71242380E+06</totfact>
</mgrwt>
</event>
<event>
 3    1  0.1602107E-001  0.1250000E+03  0.7546771E-02  0.1235069E+00
         21   -1    0    0  502  501  0.00000000000E+00  0.00000000000E+00  0.72478311866E+01  0.72478311866E+01  0.00000000000E+00 0.  1.
         21   -1    0    0  501  502 -0.00000000000E+00 -0.00000000000E+00 -0.53895432985E+03  0.53895432985E+03  0.00000000000E+00 0.  1.
         25    1    1    2    0    0  0.00000000000E+00  0.00000000000E+00 -0.53170649866E+03  0.54620216103E+03  0.12500000000E+03 0.  0.
<mgrwt>
<rscale>  0 0.12500000E+03</rscale>
<asrwt>0</asrwt>
<pdfrwt beam="1">  1       21 0.11150512E-02 0.12500000E+03</pdfrwt>
<pdfrwt beam="2">  1       21 0.82916032E-01 0.12500000E+03</pdfrwt>
<totfact> 0.39644383E+06</totfact>
</mgrwt>
</event>
<event>
 3    1  0.1602107E-001  0.1250000E+03  0.7546771E-02  0.1235069E+00
         21   -1    0    0  502  501  0.00000000000E+00  0.00000000000E+00  0.17006634338E+03  0.17006634338E+03  0.00000000000E+00 0.  1.
         21   -1    0    0  501  502 -0.00000000000E+00 -0.00000000000E+00 -0.22968977413E+02  0.22968977413E+02  0.00000000000E+00 0.  1.
         25    1    1    2    0    0  0.00000000000E+00  0.00000000000E+00  0.14709736597E+03  0.19303532080E+03  0.12500000000E+03 0.  0.
<mgrwt>
<rscale>  0 0.12500000E+03</rscale>
<asrwt>0</asrwt>
<pdfrwt beam="1">  1       21 0.26164052E-01 0.12500000E+03</pdfrwt>
<pdfrwt beam="2">  1       21 0.35336889E-02 0.12500000E+03</pdfrwt>
<totfact> 0.65686695E+06</totfact>
</mgrwt>
</event>
<event>
 3    1  0.1602107E-001  0.1250000E+03  0.7546771E-02  0.1235069E+00
         21   -1    0    0  502  501  0.00000000000E+00  0.00000000000E+00  0.72429986952E+02  0.72429986952E+02  0.00000000000E+00 0.  1.
         21   -1    0    0  501  502 -0.00000000000E+00 -0.00000000000E+00 -0.53931391740E+02  0.53931391740E+02  0.00000000000E+00 0.  1.
         25    1    1    2    0    0  0.00000000000E+00  0.00000000000E+00  0.18498595212E+02  0.12636137869E+03  0.12500000000E+03 0.  0.
<mgrwt>
<rscale>  0 0.12500000E+03</rscale>
<asrwt>0</asrwt>
<pdfrwt beam="1">  1       21 0.11143075E-01 0.12500000E+03</pdfrwt>
<pdfrwt beam="2">  1       21 0.82971372E-02 0.12500000E+03</pdfrwt>
<totfact> 0.73856360E+06</totfact>
</mgrwt>
</event>
<event>
 3    1  0.1602107E-001  0.1250000E+03  0.7546771E-02  0.1235069E+00
         21   -1    0    0  502  501  0.00000000000E+00  0.00000000000E+00  0.11712750462E+03  0.11712750462E+03  0.00000000000E+00 0. -1.
         21   -1    0    0  501  502 -0.00000000000E+00 -0.00000000000E+00 -0.33350407427E+02  0.33350407427E+02  0.00000000000E+00 0. -1.
         25    1    1    2    0    0  0.00000000000E+00  0.00000000000E+00  0.83777097193E+02  0.15047791205E+03  0.12500000000E+03 0.  0.
<mgrwt>
<rscale>  0 0.12500000E+03</rscale>
<asrwt>0</asrwt>
<pdfrwt beam="1">  1       21 0.18019616E-01 0.12500000E+03</pdfrwt>
<pdfrwt beam="2">  1       21 0.51308320E-02 0.12500000E+03</pdfrwt>
<totfact> 0.70699218E+06</totfact>
</mgrwt>
</event>
<event>
 3    1  0.1602107E-001  0.1250000E+03  0.7546771E-02  0.1235069E+00
         21   -1    0    0  502  501  0.00000000000E+00  0.00000000000E+00  0.53539527175E+03  0.53539527175E+03  0.00000000000E+00 0.  1.
         21   -1    0    0  501  502 -0.00000000000E+00 -0.00000000000E+00 -0.72960113884E+01  0.72960113884E+01  0.00000000000E+00 0.  1.
         25    1    1    2    0    0  0.00000000000E+00  0.00000000000E+00  0.52809926037E+03  0.54269128314E+03  0.12500000000E+03 0.  0.
<mgrwt>
<rscale>  0 0.12500000E+03</rscale>
<asrwt>0</asrwt>
<pdfrwt beam="1">  1       21 0.82368472E-01 0.12500000E+03</pdfrwt>
<pdfrwt beam="2">  1       21 0.11224637E-02 0.12500000E+03</pdfrwt>
<totfact> 0.39819604E+06</totfact>
</mgrwt>
</event>
<event>
 3    1  0.1602107E-001  0.1250000E+03  0.7546771E-02  0.1235069E+00
         21   -1    0    0  502  501  0.00000000000E+00  0.00000000000E+00  0.45696448641E+02  0.45696448641E+02  0.00000000000E+00 0. -1.
         21   -1    0    0  501  502 -0.00000000000E+00 -0.00000000000E+00 -0.85482572852E+02  0.85482572852E+02  0.00000000000E+00 0. -1.
         25    1    1    2    0    0  0.00000000000E+00  0.00000000000E+00 -0.39786124211E+02  0.13117902149E+03  0.12500000000E+03 0.  0.
<mgrwt>
<rscale>  0 0.12500000E+03</rscale>
<asrwt>0</asrwt>
<pdfrwt beam="1">  1       21 0.70302229E-02 0.12500000E+03</pdfrwt>
<pdfrwt beam="2">  1       21 0.13151165E-01 0.12500000E+03</pdfrwt>
<totfact> 0.73206557E+06</totfact>
</mgrwt>
</event>
<event>
 3    1  0.1602107E-001  0.1250000E+03  0.7546771E-02  0.1235069E+00
         21   -1    0    0  502  501  0.00000000000E+00  0.00000000000E+00  0.12785943804E+04  0.12785943804E+04  0.00000000000E+00 0. -1.
         21   -1    0    0  501  502 -0.00000000000E+00 -0.00000000000E+00 -0.30551127550E+01  0.30551127550E+01  0.00000000000E+00 0. -1.
         25    1    1    2    0    0  0.00000000000E+00  0.00000000000E+00  0.12755392676E+04  0.12816494932E+04  0.12500000000E+03 0.  0.
<mgrwt>
<rscale>  0 0.12500000E+03</rscale>
<asrwt>0</asrwt>
<pdfrwt beam="1">  1       21 0.19670640E+00 0.12500000E+03</pdfrwt>
<pdfrwt beam="2">  1       21 0.47001837E-03 0.12500000E+03</pdfrwt>
<totfact> 0.17585137E+06</totfact>
</mgrwt>
</event>
<event>
 3    1  0.1602107E-001  0.1250000E+03  0.7546771E-02  0.1235069E+00
         21   -1    0    0  502  501  0.00000000000E+00  0.00000000000E+00  0.37094092416E+01  0.37094092416E+01  0.00000000000E+00 0. -1.
         21   -1    0    0  501  502 -0.00000000000E+00 -0.00000000000E+00 -0.10530652580E+04  0.10530652580E+04  0.00000000000E+00 0. -1.
         25    1    1    2    0    0  0.00000000000E+00  0.00000000000E+00 -0.10493558488E+04  0.10567746672E+04  0.12500000000E+03 0.  0.
<mgrwt>
<rscale>  0 0.12500000E+03</rscale>
<asrwt>0</asrwt>
<pdfrwt beam="1">  1       21 0.57067782E-03 0.12500000E+03</pdfrwt>
<pdfrwt beam="2">  1       21 0.16201019E+00 0.12500000E+03</pdfrwt>
<totfact> 0.22239206E+06</totfact>
</mgrwt>
</event>
<event>
 3    1  0.1602107E-001  0.1250000E+03  0.7546771E-02  0.1235069E+00
         21   -1    0    0  502  501  0.00000000000E+00  0.00000000000E+00  0.20315065595E+02  0.20315065595E+02  0.00000000000E+00 0.  1.
         21   -1    0    0  501  502 -0.00000000000E+00 -0.00000000000E+00 -0.19228340572E+03  0.19228340572E+03  0.00000000000E+00 0.  1.
         25    1    1    2    0    0  0.00000000000E+00  0.00000000000E+00 -0.17196834012E+03  0.21259847131E+03  0.12500000000E+03 0.  0.
<mgrwt>
<rscale>  0 0.12500000E+03</rscale>
<asrwt>0</asrwt>
<pdfrwt beam="1">  1       21 0.31253948E-02 0.12500000E+03</pdfrwt>
<pdfrwt beam="2">  1       21 0.29582061E-01 0.12500000E+03</pdfrwt>
<totfact> 0.63587180E+06</totfact>
</mgrwt>
</event>
<event>
 3    1  0.1602107E-001  0.1250000E+03  0.7546771E-02  0.1235069E+00
         21   -1    0    0  502  501  0.00000000000E+00  0.00000000000E+00  0.90540072220E+03  0.90540072220E+03  0.00000000000E+00 0.  1.
         21   -1    0    0  501  502 -0.00000000000E+00 -0.00000000000E+00 -0.43143879878E+01  0.43143879878E+01  0.00000000000E+00 0.  1.
         25    1    1    2    0    0  0.00000000000E+00  0.00000000000E+00  0.90108633421E+03  0.90971511018E+03  0.12500000000E+03 0.  0.
<mgrwt>
<rscale>  0 0.12500000E+03</rscale>
<asrwt>0</asrwt>
<pdfrwt beam="1">  1       21 0.13929227E+00 0.12500000E+03</pdfrwt>
<pdfrwt beam="2">  1       21 0.66375272E-03 0.12500000E+03</pdfrwt>
<totfact> 0.26021725E+06</totfact>
</mgrwt>
</event>
<event>
 3    1  0.1602107E-001  0.1250000E+03  0.7546771E-02  0.1235069E+00
         21   -1    0    0  502  501  0.00000000000E+00  0.00000000000E+00  0.11016021353E+02  0.11016021353E+02  0.00000000000E+00 0. -1.
         21   -1    0    0  501  502 -0.00000000000E+00 -0.00000000000E+00 -0.35459717033E+03  0.35459717033E+03  0.00000000000E+00 0. -1.
         25    1    1    2    0    0  0.00000000000E+00  0.00000000000E+00 -0.34358114897E+03  0.36561319168E+03  0.12500000000E+03 0.  0.
<mgrwt>
<rscale>  0 0.12500000E+03</rscale>
<asrwt>0</asrwt>
<pdfrwt beam="1">  1       21 0.16947722E-02 0.12500000E+03</pdfrwt>
<pdfrwt beam="2">  1       21 0.54553421E-01 0.12500000E+03</pdfrwt>
<totfact> 0.50405617E+06</totfact>
</mgrwt>
</event>
<event>
 3    1  0.1602107E-001  0.1250000E+03  0.7546771E-02  0.1235069E+00
         21   -1    0    0  502  501  0.00000000000E+00  0.00000000000E+00  0.35460387586E+03  0.35460387586E+03  0.00000000000E+00 0.  1.
         21   -1    0    0  501  502 -0.00000000000E+00 -0.00000000000E+00 -0.11015813041E+02  0.11015813041E+02  0.00000000000E+00 0.  1.
         25    1    1    2    0    0  0.00000000000E+00  0.00000000000E+00  0.34358806282E+03  0.36561968890E+03  0.12500000000E+03 0.  0.
<mgrwt>
<rscale>  0 0.12500000E+03</rscale>
<asrwt>0</asrwt>
<pdfrwt beam="1">  1       21 0.54554434E-01 0.12500000E+03</pdfrwt>
<pdfrwt beam="2">  1       21 0.16947407E-02 0.12500000E+03</pdfrwt>
<totfact> 0.50405163E+06</totfact>
</mgrwt>
</event>
<event>
 3    1  0.1602107E-001  0.1250000E+03  0.7546771E-02  0.1235069E+00
         21   -1    0    0  502  501  0.00000000000E+00  0.00000000000E+00  0.18916986977E+02  0.18916986977E+02  0.00000000000E+00 0.  1.
         21   -1    0    0  501  502 -0.00000000000E+00 -0.00000000000E+00 -0.20649430085E+03  0.20649430085E+03  0.00000000000E+00 0.  1.
         25    1    1    2    0    0  0.00000000000E+00  0.00000000000E+00 -0.18757731387E+03  0.22541128783E+03  0.12500000000E+03 0.  0.
<mgrwt>
<rscale>  0 0.12500000E+03</rscale>
<asrwt>0</asrwt>
<pdfrwt beam="1">  1       21 0.29103054E-02 0.12500000E+03</pdfrwt>
<pdfrwt beam="2">  1       21 0.31768357E-01 0.12500000E+03</pdfrwt>
<totfact> 0.62273619E+06</totfact>
</mgrwt>
</event>
<event>
 3    1  0.1602107E-001  0.1250000E+03  0.7546771E-02  0.1235069E+00
         21   -1    0    0  502  501  0.00000000000E+00  0.00000000000E+00  0.17925275498E+02  0.17925275498E+02  0.00000000000E+00 0.  1.
         21   -1    0    0  501  502 -0.00000000000E+00 -0.00000000000E+00 -0.21791854749E+03  0.21791854749E+03  0.00000000000E+00 0.  1.
         25    1    1    2    0    0  0.00000000000E+00  0.00000000000E+00 -0.19999327200E+03  0.23584382299E+03  0.12500000000E+03 0.  0.
<mgrwt>
<rscale>  0 0.12500000E+03</rscale>
<asrwt>0</asrwt>
<pdfrwt beam="1">  1       21 0.27577346E-02 0.12500000E+03</pdfrwt>
<pdfrwt beam="2">  1       21 0.33525931E-01 0.12500000E+03</pdfrwt>
<totfact> 0.61237180E+06</totfact>
</mgrwt>
</event>
<event>
 3    1  0.1602107E-001  0.1250000E+03  0.7546771E-02  0.1235069E+00
         21   -1    0    0  502  501  0.00000000000E+00  0.00000000000E+00  0.10124446200E+02  0.10124446200E+02  0.00000000000E+00 0.  1.
         21   -1    0    0  501  502 -0.00000000000E+00 -0.00000000000E+00 -0.38582357226E+03  0.38582357226E+03  0.00000000000E+00 0.  1.
         25    1    1    2    0    0  0.00000000000E+00  0.00000000000E+00 -0.37569912606E+03  0.39594801846E+03  0.12500000000E+03 0.  0.
<mgrwt>
<rscale>  0 0.12500000E+03</rscale>
<asrwt>0</asrwt>
<pdfrwt beam="1">  1       21 0.15576072E-02 0.12500000E+03</pdfrwt>
<pdfrwt beam="2">  1       21 0.59357469E-01 0.12500000E+03</pdfrwt>
<totfact> 0.48311282E+06</totfact>
</mgrwt>
</event>
<event>
 3    1  0.1602107E-001  0.1250000E+03  0.7546771E-02  0.1235069E+00
         21   -1    0    0  502  501  0.00000000000E+00  0.00000000000E+00  0.52254719819E+01  0.52254719819E+01  0.00000000000E+00 0. -1.
         21   -1    0    0  501  502 -0.00000000000E+00 -0.00000000000E+00 -0.74754012911E+03  0.74754012911E+03  0.00000000000E+00 0. -1.
         25    1    1    2    0    0  0.00000000000E+00  0.00000000000E+00 -0.74231465713E+03  0.75276560109E+03  0.12500000000E+03 0.  0.
<mgrwt>
<rscale>  0 0.12500000E+03</rscale>
<asrwt>0</asrwt>
<pdfrwt beam="1">  1       21 0.80391871E-03 0.12500000E+03</pdfrwt>
<pdfrwt beam="2">  1       21 0.11500618E+00 0.12500000E+03</pdfrwt>
<totfact> 0.30971826E+06</totfact>
</mgrwt>
</event>
<event>
 3    1  0.1602107E-001  0.1250000E+03  0.7546771E-02  0.1235069E+00
         21   -1    0    0  502  501  0.00000000000E+00  0.00000000000E+00  0.12692350067E+03  0.12692350067E+03  0.00000000000E+00 0. -1.
         21   -1    0    0  501  502 -0.00000000000E+00 -0.00000000000E+00 -0.30776412401E+02  0.30776412401E+02  0.00000000000E+00 0. -1.
         25    1    1    2    0    0  0.00000000000E+00  0.00000000000E+00  0.96147088268E+02  0.15769991307E+03  0.12500000000E+03 0.  0.
<mgrwt>
<rscale>  0 0.12500000E+03</rscale>
<asrwt>0</asrwt>
<pdfrwt beam="1">  1       21 0.19526692E-01 0.12500000E+03</pdfrwt>
<pdfrwt beam="2">  1       21 0.47348328E-02 0.12500000E+03</pdfrwt>
<totfact> 0.69801639E+06</totfact>
</mgrwt>
</event>
<event>
 3    1  0.1602107E-001  0.1250000E+03  0.7546771E-02  0.1235069E+00
         21   -1    0    0  502  501  0.00000000000E+00  0.00000000000E+00  0.49709226783E+03  0.49709226783E+03  0.00000000000E+00 0. -1.
         21   -1    0    0  501  502 -0.00000000000E+00 -0.00000000000E+00 -0.78581990764E+01  0.78581990764E+01  0.00000000000E+00 0. -1.
         25    1    1    2    0    0  0.00000000000E+00  0.00000000000E+00  0.48923406876E+03  0.50495046691E+03  0.12500000000E+03 0.  0.
<mgrwt>
<rscale>  0 0.12500000E+03</rscale>
<asrwt>0</asrwt>
<pdfrwt beam="1">  1       21 0.76475709E-01 0.12500000E+03</pdfrwt>
<pdfrwt beam="2">  1       21 0.12089541E-02 0.12500000E+03</pdfrwt>
<totfact> 0.41776870E+06</totfact>
</mgrwt>
</event>
<event>
 3    1  0.1602107E-001  0.1250000E+03  0.7546771E-02  0.1235069E+00
         21   -1    0    0  502  501  0.00000000000E+00  0.00000000000E+00  0.26983219656E+03  0.26983219656E+03  0.00000000000E+00 0.  1.
         21   -1    0    0  501  502 -0.00000000000E+00 -0.00000000000E+00 -0.14476589709E+02  0.14476589709E+02  0.00000000000E+00 0.  1.
         25    1    1    2    0    0  0.00000000000E+00  0.00000000000E+00  0.25535560685E+03  0.28430878627E+03  0.12500000000E+03 0.  0.
<mgrwt>
<rscale>  0 0.12500000E+03</rscale>
<asrwt>0</asrwt>
<pdfrwt beam="1">  1       21 0.41512642E-01 0.12500000E+03</pdfrwt>
<pdfrwt beam="2">  1       21 0.22271678E-02 0.12500000E+03</pdfrwt>
<totfact> 0.56785918E+06</totfact>
</mgrwt>
</event>
<event>
 3    1  0.1602107E-001  0.1250000E+03  0.7546771E-02  0.1235069E+00
         21   -1    0    0  502  501  0.00000000000E+00  0.00000000000E+00  0.84567913034E+02  0.84567913034E+02  0.00000000000E+00 0. -1.
         21   -1    0    0  501  502 -0.00000000000E+00 -0.00000000000E+00 -0.46190686986E+02  0.46190686986E+02  0.00000000000E+00 0. -1.
         25    1    1    2    0    0  0.00000000000E+00  0.00000000000E+00  0.38377226048E+02  0.13075860002E+03  0.12500000000E+03 0.  0.
<mgrwt>
<rscale>  0 0.12500000E+03</rscale>
<asrwt>0</asrwt>
<pdfrwt beam="1">  1       21 0.13010448E-01 0.12500000E+03</pdfrwt>
<pdfrwt beam="2">  1       21 0.71062596E-02 0.12500000E+03</pdfrwt>
<totfact> 0.73263221E+06</totfact>
</mgrwt>
</event>
<event>
 3    1  0.1602107E-001  0.1250000E+03  0.7546771E-02  0.1235069E+00
         21   -1    0    0  502  501  0.00000000000E+00  0.00000000000E+00  0.20291704502E+03  0.20291704502E+03  0.00000000000E+00 0. -1.
         21   -1    0    0  501  502 -0.00000000000E+00 -0.00000000000E+00 -0.19250477453E+02  0.19250477453E+02  0.00000000000E+00 0. -1.
         25    1    1    2    0    0  0.00000000000E+00  0.00000000000E+00  0.18366656756E+03  0.22216752247E+03  0.12500000000E+03 0.  0.
<mgrwt>
<rscale>  0 0.12500000E+03</rscale>
<asrwt>0</asrwt>
<pdfrwt beam="1">  1       21 0.31218005E-01 0.12500000E+03</pdfrwt>
<pdfrwt beam="2">  1       21 0.29616121E-02 0.12500000E+03</pdfrwt>
<totfact> 0.62601671E+06</totfact>
</mgrwt>
</event>
<event>
 3    1  0.1602107E-001  0.1250000E+03  0.7546771E-02  0.1235069E+00
         21   -1    0    0  502  501  0.00000000000E+00  0.00000000000E+00  0.37104009405E+01  0.37104009405E+01  0.00000000000E+00 0.  1.
         21   -1    0    0  501  502 -0.00000000000E+00 -0.00000000000E+00 -0.10527837995E+04  0.10527837995E+04  0.00000000000E+00 0.  1.
         25    1    1    2    0    0  0.00000000000E+00  0.00000000000E+00 -0.10490733986E+04  0.10564942005E+04  0.12500000000E+03 0.  0.
<mgrwt>
<rscale>  0 0.12500000E+03</rscale>
<asrwt>0</asrwt>
<pdfrwt beam="1">  1       21 0.57083054E-03 0.12500000E+03</pdfrwt>
<pdfrwt beam="2">  1       21 0.16196684E+00 0.12500000E+03</pdfrwt>
<totfact> 0.22245800E+06</totfact>
</mgrwt>
</event>
<event>
 3    1  0.1602107E-001  0.1250000E+03  0.7546771E-02  0.1235069E+00
         21   -1    0    0  502  501  0.00000000000E+00  0.00000000000E+00  0.23467807683E+03  0.23467807683E+03  0.00000000000E+00 0.  1.
         21   -1    0    0  501  502 -0.00000000000E+00 -0.00000000000E+00 -0.16645142370E+02  0.16645142370E+02  0.00000000000E+00 0.  1.
         25    1    1    2    0    0  0.00000000000E+00  0.00000000000E+00  0.21803293446E+03  0.25132321920E+03  0.12500000000E+03 0.  0.
<mgrwt>
<rscale>  0 0.12500000E+03</rscale>
<asrwt>0</asrwt>
<pdfrwt beam="1">  1       21 0.36104317E-01 0.12500000E+03</pdfrwt>
<pdfrwt beam="2">  1       21 0.25607913E-02 0.12500000E+03</pdfrwt>
<totfact> 0.59753834E+06</totfact>
</mgrwt>
</event>
<event>
 3    1  0.1602107E-001  0.1250000E+03  0.7546771E-02  0.1235069E+00
         21   -1    0    0  502  501  0.00000000000E+00  0.00000000000E+00  0.11902264437E+02  0.11902264437E+02  0.00000000000E+00 0. -1.
         21   -1    0    0  501  502 -0.00000000000E+00 -0.00000000000E+00 -0.32819385090E+03  0.32819385090E+03  0.00000000000E+00 0. -1.
         25    1    1    2    0    0  0.00000000000E+00  0.00000000000E+00 -0.31629158646E+03  0.34009611534E+03  0.12500000000E+03 0.  0.
<mgrwt>
<rscale>  0 0.12500000E+03</rscale>
<asrwt>0</asrwt>
<pdfrwt beam="1">  1       21 0.18311174E-02 0.12500000E+03</pdfrwt>
<pdfrwt beam="2">  1       21 0.50491368E-01 0.12500000E+03</pdfrwt>
<totfact> 0.52278280E+06</totfact>
</mgrwt>
</event>
<event>
 3    1  0.1602107E-001  0.1250000E+03  0.7546771E-02  0.1235069E+00
         21   -1    0    0  502  501  0.00000000000E+00  0.00000000000E+00  0.87401816845E+02  0.87401816845E+02  0.00000000000E+00 0.  1.
         21   -1    0    0  501  502 -0.00000000000E+00 -0.00000000000E+00 -0.44693006862E+02  0.44693006862E+02  0.00000000000E+00 0.  1.
         25    1    1    2    0    0  0.00000000000E+00  0.00000000000E+00  0.42708809983E+02  0.13209482371E+03  0.12500000000E+03 0.  0.
<mgrwt>
<rscale>  0 0.12500000E+03</rscale>
<asrwt>0</asrwt>
<pdfrwt beam="1">  1       21 0.13446433E-01 0.12500000E+03</pdfrwt>
<pdfrwt beam="2">  1       21 0.68758472E-02 0.12500000E+03</pdfrwt>
<totfact> 0.73083513E+06</totfact>
</mgrwt>
</event>
<event>
 3    1  0.1602107E-001  0.1250000E+03  0.7546771E-02  0.1235069E+00
         21   -1    0    0  502  501  0.00000000000E+00  0.00000000000E+00  0.19679131159E+03  0.19679131159E+03  0.00000000000E+00 0. -1.
         21   -1    0    0  501  502 -0.00000000000E+00 -0.00000000000E+00 -0.19849707634E+02  0.19849707634E+02  0.00000000000E+00 0. -1.
         25    1    1    2    0    0  0.00000000000E+00  0.00000000000E+00  0.17694160396E+03  0.21664101923E+03  0.12500000000E+03 0.  0.
<mgrwt>
<rscale>  0 0.12500000E+03</rscale>
<asrwt>0</asrwt>
<pdfrwt beam="1">  1       21 0.30275585E-01 0.12500000E+03</pdfrwt>
<pdfrwt beam="2">  1       21 0.30538013E-02 0.12500000E+03</pdfrwt>
<totfact> 0.63167527E+06</totfact>
</mgrwt>
</event>
<event>
 3    1  0.1602107E-001  0.1250000E+03  0.7546771E-02  0.1235069E+00
         21   -1    0    0  502  501  0.00000000000E+00  0.00000000000E+00  0.82154365191E+02  0.82154365191E+02  0.00000000000E+00 0. -1.
         21   -1    0    0  501  502 -0.00000000000E+00 -0.00000000000E+00 -0.47547686491E+02  0.47547686491E+02  0.00000000000E+00 0. -1.
         25    1    1    2    0    0  0.00000000000E+00  0.00000000000E+00  0.34606678699E+02  0.12970205168E+03  0.12500000000E+03 0.  0.
<mgrwt>
<rscale>  0 0.12500000E+03</rscale>
<asrwt>0</asrwt>
<pdfrwt beam="1">  1       21 0.12639133E-01 0.12500000E+03</pdfrwt>
<pdfrwt beam="2">  1       21 0.73150287E-02 0.12500000E+03</pdfrwt>
<totfact> 0.73404762E+06</totfact>
</mgrwt>
</event>
<event>
 3    1  0.1602107E-001  0.1250000E+03  0.7546771E-02  0.1235069E+00
         21   -1    0    0  502  501  0.00000000000E+00  0.00000000000E+00  0.43333044670E+02  0.43333044670E+02  0.00000000000E+00 0. -1.
         21   -1    0    0  501  502 -0.00000000000E+00 -0.00000000000E+00 -0.90144831266E+02  0.90144831266E+02  0.00000000000E+00 0. -1.
         25    1    1    2    0    0  0.00000000000E+00  0.00000000000E+00 -0.46811786596E+02  0.13347787594E+03  0.12500000000E+03 0.  0.
<mgrwt>
<rscale>  0 0.12500000E+03</rscale>
<asrwt>0</asrwt>
<pdfrwt beam="1">  1       21 0.66666223E-02 0.12500000E+03</pdfrwt>
<pdfrwt beam="2">  1       21 0.13868435E-01 0.12500000E+03</pdfrwt>
<totfact> 0.72898652E+06</totfact>
</mgrwt>
</event>
