<event>
 3    1  0.1615911E-001  0.1250000E+03  0.7546771E-02  0.1235069E+00
         21   -1    0    0  502  501  0.00000000000E+00  0.00000000000E+00  0.47350835903E+02  0.47350835903E+02  0.00000000000E+00 0.  1.
         21   -1    0    0  501  502 -0.00000000000E+00 -0.00000000000E+00 -0.82495903726E+02  0.82495903726E+02  0.00000000000E+00 0.  1.
         25    1    1    2    0    0  0.00000000000E+00  0.00000000000E+00 -0.35145067823E+02  0.12984673963E+03  0.12500000000E+03 0.  0.
<mgrwt>
<rscale>  0 0.12500000E+03</rscale>
<asrwt>0</asrwt>
<pdfrwt beam="1">  1       21 0.72847440E-02 0.12500000E+03</pdfrwt>
<pdfrwt beam="2">  1       21 0.12691677E-01 0.12500000E+03</pdfrwt>
<totfact> 0.73385405E+06</totfact>
</mgrwt>
</event>
<event>
 3    1  0.1615911E-001  0.1250000E+03  0.7546771E-02  0.1235069E+00
         21   -1    0    0  502  501  0.00000000000E+00  0.00000000000E+00  0.11692133368E+03  0.11692133368E+03  0.00000000000E+00 0.  1.
         21   -1    0    0  501  502 -0.00000000000E+00 -0.00000000000E+00 -0.33409215215E+02  0.33409215215E+02  0.00000000000E+00 0.  1.
         25    1    1    2    0    0  0.00000000000E+00  0.00000000000E+00  0.83512118461E+02  0.15033054889E+03  0.12500000000E+03 0.  0.
<mgrwt>
<rscale>  0 0.12500000E+03</rscale>
<asrwt>0</asrwt>
<pdfrwt beam="1">  1       21 0.17987897E-01 0.12500000E+03</pdfrwt>
<pdfrwt beam="2">  1       21 0.51398793E-02 0.12500000E+03</pdfrwt>
<totfact> 0.70717703E+06</totfact>
</mgrwt>
</event>
<event>
 3    1  0.1615911E-001  0.1250000E+03  0.7546771E-02  0.1235069E+00
         21   -1    0    0  502  501  0.00000000000E+00  0.00000000000E+00  0.34004164678E+03  0.34004164678E+03  0.00000000000E+00 0.  1.
         21   -1    0    0  501  502 -0.00000000000E+00 -0.00000000000E+00 -0.11487563471E+02  0.11487563471E+02  0.00000000000E+00 0.  1.
         25    1    1    2    0    0  0.00000000000E+00  0.00000000000E+00  0.32855408331E+03  0.35152921025E+03  0.12500000000E+03 0.  0.
<mgrwt>
<rscale>  0 0.12500000E+03</rscale>
<asrwt>0</asrwt>
<pdfrwt beam="1">  1       21 0.52314092E-01 0.12500000E+03</pdfrwt>
<pdfrwt beam="2">  1       21 0.17673177E-02 0.12500000E+03</pdfrwt>
<totfact> 0.51425697E+06</totfact>
</mgrwt>
</event>
<event>
 3    1  0.1615911E-001  0.1250000E+03  0.7546771E-02  0.1235069E+00
         21   -1    0    0  502  501  0.00000000000E+00  0.00000000000E+00  0.23827876307E+03  0.23827876307E+03  0.00000000000E+00 0. -1.
         21   -1    0    0  501  502 -0.00000000000E+00 -0.00000000000E+00 -0.16393613722E+02  0.16393613722E+02  0.00000000000E+00 0. -1.
         25    1    1    2    0    0  0.00000000000E+00  0.00000000000E+00  0.22188514935E+03  0.25467237679E+03  0.12500000000E+03 0.  0.
<mgrwt>
<rscale>  0 0.12500000E+03</rscale>
<asrwt>0</asrwt>
<pdfrwt beam="1">  1       21 0.36658269E-01 0.12500000E+03</pdfrwt>
<pdfrwt beam="2">  1       21 0.25220946E-02 0.12500000E+03</pdfrwt>
<totfact> 0.59441061E+06</totfact>
</mgrwt>
</event>
<event>
 3    1  0.1615911E-001  0.1250000E+03  0.7546771E-02  0.1235069E+00
         21   -1    0    0  502  501  0.00000000000E+00  0.00000000000E+00  0.20564821842E+02  0.20564821842E+02  0.00000000000E+00 0. -1.
         21   -1    0    0  501  502 -0.00000000000E+00 -0.00000000000E+00 -0.18994815661E+03  0.18994815661E+03  0.00000000000E+00 0. -1.
         25    1    1    2    0    0  0.00000000000E+00  0.00000000000E+00 -0.16938333477E+03  0.21051297845E+03  0.12500000000E+03 0.  0.
<mgrwt>
<rscale>  0 0.12500000E+03</rscale>
<asrwt>0</asrwt>
<pdfrwt beam="1">  1       21 0.31638187E-02 0.12500000E+03</pdfrwt>
<pdfrwt beam="2">  1       21 0.29222794E-01 0.12500000E+03</pdfrwt>
<totfact> 0.63805604E+06</totfact>
</mgrwt>
</event>
<event>
 3    1  0.1615911E-001  0.1250000E+03  0.7546771E-02  0.1235069E+00
         21   -1    0    0  502  501  0.00000000000E+00  0.00000000000E+00  0.22046861051E+03  0.22046861051E+03  0.00000000000E+00 0. -1.
         21   -1    0    0  501  502 -0.00000000000E+00 -0.00000000000E+00 -0.17717941756E+02  0.17717941756E+02  0.00000000000E+00 0. -1.
         25    1    1    2    0    0  0.00000000000E+00  0.00000000000E+00  0.20275066875E+03  0.23818655226E+03  0.12500000000E+03 0.  0.
<mgrwt>
<rscale>  0 0.12500000E+03</rscale>
<asrwt>0</asrwt>
<pdfrwt beam="1">  1       21 0.33918246E-01 0.12500000E+03</pdfrwt>
<pdfrwt beam="2">  1       21 0.27258374E-02 0.12500000E+03</pdfrwt>
<totfact> 0.61008590E+06</totfact>
</mgrwt>
</event>
<event>
 3    1  0.1615911E-001  0.1250000E+03  0.7546771E-02  0.1235069E+00
         21   -1    0    0  502  501  0.00000000000E+00  0.00000000000E+00  0.65084730471E+03  0.65084730471E+03  0.00000000000E+00 0. -1.
         21   -1    0    0  501  502 -0.00000000000E+00 -0.00000000000E+00 -0.60017917747E+01  0.60017917747E+01  0.00000000000E+00 0. -1.
         25    1    1    2    0    0  0.00000000000E+00  0.00000000000E+00  0.64484551293E+03  0.65684909648E+03  0.12500000000E+03 0.  0.
<mgrwt>
<rscale>  0 0.12500000E+03</rscale>
<asrwt>0</asrwt>
<pdfrwt beam="1">  1       21 0.10013030E+00 0.12500000E+03</pdfrwt>
<pdfrwt beam="2">  1       21 0.92335309E-03 0.12500000E+03</pdfrwt>
<totfact> 0.34640840E+06</totfact>
</mgrwt>
</event>
<event>
 3    1  0.1615911E-001  0.1250000E+03  0.7546771E-02  0.1235069E+00
         21   -1    0    0  502  501  0.00000000000E+00  0.00000000000E+00  0.10189297630E+02  0.10189297630E+02  0.00000000000E+00 0.  1.
         21   -1    0    0  501  502 -0.00000000000E+00 -0.00000000000E+00 -0.38336793582E+03  0.38336793582E+03  0.00000000000E+00 0.  1.
         25    1    1    2    0    0  0.00000000000E+00  0.00000000000E+00 -0.37317863819E+03  0.39355723345E+03  0.12500000000E+03 0.  0.
<mgrwt>
<rscale>  0 0.12500000E+03</rscale>
<asrwt>0</asrwt>
<pdfrwt beam="1">  1       21 0.15675841E-02 0.12500000E+03</pdfrwt>
<pdfrwt beam="2">  1       21 0.58979686E-01 0.12500000E+03</pdfrwt>
<totfact> 0.48471647E+06</totfact>
</mgrwt>
</event>
<event>
 3    1  0.1615911E-001  0.1250000E+03  0.7546771E-02  0.1235069E+00
         21   -1    0    0  502  501  0.00000000000E+00  0.00000000000E+00  0.60998422598E+02  0.60998422598E+02  0.00000000000E+00 0.  1.
         21   -1    0    0  501  502 -0.00000000000E+00 -0.00000000000E+00 -0.64038541222E+02  0.64038541222E+02  0.00000000000E+00 0.  1.
         25    1    1    2    0    0  0.00000000000E+00  0.00000000000E+00 -0.30401186244E+01  0.12503696382E+03  0.12500000000E+03 0.  0.
<mgrwt>
<rscale>  0 0.12500000E+03</rscale>
<asrwt>0</asrwt>
<pdfrwt beam="1">  1       21 0.93843727E-02 0.12500000E+03</pdfrwt>
<pdfrwt beam="2">  1       21 0.98520833E-02 0.12500000E+03</pdfrwt>
<totfact> 0.74038589E+06</totfact>
</mgrwt>
</event>
<event>
 3    1  0.1615911E-001  0.1250000E+03  0.7546771E-02  0.1235069E+00
         21   -1    0    0  502  501  0.00000000000E+00  0.00000000000E+00  0.42828250328E+02  0.42828250328E+02  0.00000000000E+00 0.  1.
         21   -1    0    0  501  502 -0.00000000000E+00 -0.00000000000E+00 -0.91207321571E+02  0.91207321571E+02  0.00000000000E+00 0.  1.
         25    1    1    2    0    0  0.00000000000E+00  0.00000000000E+00 -0.48379071242E+02  0.13403557190E+03  0.12500000000E+03 0.  0.
<mgrwt>
<rscale>  0 0.12500000E+03</rscale>
<asrwt>0</asrwt>
<pdfrwt beam="1">  1       21 0.65889616E-02 0.12500000E+03</pdfrwt>
<pdfrwt beam="2">  1       21 0.14031896E-01 0.12500000E+03</pdfrwt>
<totfact> 0.72824424E+06</totfact>
</mgrwt>
</event>
<event>
 3    1  0.1615911E-001  0.1250000E+03  0.7546771E-02  0.1235069E+00
         21   -1    0    0  502  501  0.00000000000E+00  0.00000000000E+00  0.36496749163E+02  0.36496749163E+02  0.00000000000E+00 0. -1.
         21   -1    0    0  501  502 -0.00000000000E+00 -0.00000000000E+00 -0.10703008048E+03  0.10703008048E+03  0.00000000000E+00 0. -1.
         25    1    1    2    0    0  0.00000000000E+00  0.00000000000E+00 -0.70533331312E+02  0.14352682964E+03  0.12500000000E+03 0.  0.
<mgrwt>
<rscale>  0 0.12500000E+03</rscale>
<asrwt>0</asrwt>
<pdfrwt beam="1">  1       21 0.56148845E-02 0.12500000E+03</pdfrwt>
<pdfrwt beam="2">  1       21 0.16466166E-01 0.12500000E+03</pdfrwt>
<totfact> 0.71582166E+06</totfact>
</mgrwt>
</event>
<event>
 3    1  0.1615911E-001  0.1250000E+03  0.7546771E-02  0.1235069E+00
         21   -1    0    0  502  501  0.00000000000E+00  0.00000000000E+00  0.25797945170E+03  0.25797945170E+03  0.00000000000E+00 0. -1.
         21   -1    0    0  501  502 -0.00000000000E+00 -0.00000000000E+00 -0.15141709831E+02  0.15141709831E+02  0.00000000000E+00 0. -1.
         25    1    1    2    0    0  0.00000000000E+00  0.00000000000E+00  0.24283774187E+03  0.27312116153E+03  0.12500000000E+03 0.  0.
<mgrwt>
<rscale>  0 0.12500000E+03</rscale>
<asrwt>0</asrwt>
<pdfrwt beam="1">  1       21 0.39689143E-01 0.12500000E+03</pdfrwt>
<pdfrwt beam="2">  1       21 0.23294940E-02 0.12500000E+03</pdfrwt>
<totfact> 0.57766593E+06</totfact>
</mgrwt>
</event>
<event>
 3    1  0.1615911E-001  0.1250000E+03  0.7546771E-02  0.1235069E+00
         21   -1    0    0  502  501  0.00000000000E+00  0.00000000000E+00  0.33909237824E+02  0.33909237824E+02  0.00000000000E+00 0.  1.
         21   -1    0    0  501  502 -0.00000000000E+00 -0.00000000000E+00 -0.11519722207E+03  0.11519722207E+03  0.00000000000E+00 0.  1.
         25    1    1    2    0    0  0.00000000000E+00  0.00000000000E+00 -0.81287984249E+02  0.14910645990E+03  0.12500000000E+03 0.  0.
<mgrwt>
<rscale>  0 0.12500000E+03</rscale>
<asrwt>0</asrwt>
<pdfrwt beam="1">  1       21 0.52168057E-02 0.12500000E+03</pdfrwt>
<pdfrwt beam="2">  1       21 0.17722650E-01 0.12500000E+03</pdfrwt>
<totfact> 0.70871626E+06</totfact>
</mgrwt>
</event>
<event>
 3    1  0.1615911E-001  0.1250000E+03  0.7546771E-02  0.1235069E+00
         21   -1    0    0  502  501  0.00000000000E+00  0.00000000000E+00  0.15522084563E+03  0.15522084563E+03  0.00000000000E+00 0. -1.
         21   -1    0    0  501  502 -0.00000000000E+00 -0.00000000000E+00 -0.25165756469E+02  0.25165756469E+02  0.00000000000E+00 0. -1.
         25    1    1    2    0    0  0.00000000000E+00  0.00000000000E+00  0.13005508916E+03  0.18038660210E+03  0.12500000000E+03 0.  0.
<mgrwt>
<rscale>  0 0.12500000E+03</rscale>
<asrwt>0</asrwt>
<pdfrwt beam="1">  1       21 0.23880130E-01 0.12500000E+03</pdfrwt>
<pdfrwt beam="2">  1       21 0.38716549E-02 0.12500000E+03</pdfrwt>
<totfact> 0.67107215E+06</totfact>
</mgrwt>
</event>
<event>
 3    1  0.1615911E-001  0.1250000E+03  0.7546771E-02  0.1235069E+00
         21   -1    0    0  502  501  0.00000000000E+00  0.00000000000E+00  0.61801046578E+02  0.61801046578E+02  0.00000000000E+00 0.  1.
         21   -1    0    0  501  502 -0.00000000000E+00 -0.00000000000E+00 -0.63206858399E+02  0.63206858399E+02  0.00000000000E+00 0.  1.
         25    1    1    2    0    0  0.00000000000E+00  0.00000000000E+00 -0.14058118214E+01  0.12500790498E+03  0.12500000000E+03 0.  0.
<mgrwt>
<rscale>  0 0.12500000E+03</rscale>
<asrwt>0</asrwt>
<pdfrwt beam="1">  1       21 0.95078533E-02 0.12500000E+03</pdfrwt>
<pdfrwt beam="2">  1       21 0.97241320E-02 0.12500000E+03</pdfrwt>
<totfact> 0.74042514E+06</totfact>
</mgrwt>
</event>
<event>
 3    1  0.1615911E-001  0.1250000E+03  0.7546771E-02  0.1235069E+00
         21   -1    0    0  502  501  0.00000000000E+00  0.00000000000E+00  0.29434200591E+03  0.29434200591E+03  0.00000000000E+00 0. -1.
         21   -1    0    0  501  502 -0.00000000000E+00 -0.00000000000E+00 -0.13271126518E+02  0.13271126518E+02  0.00000000000E+00 0. -1.
         25    1    1    2    0    0  0.00000000000E+00  0.00000000000E+00  0.28107087939E+03  0.30761313243E+03  0.12500000000E+03 0.  0.
<mgrwt>
<rscale>  0 0.12500000E+03</rscale>
<asrwt>0</asrwt>
<pdfrwt beam="1">  1       21 0.45283381E-01 0.12500000E+03</pdfrwt>
<pdfrwt beam="2">  1       21 0.20417120E-02 0.12500000E+03</pdfrwt>
<totfact> 0.54829370E+06</totfact>
</mgrwt>
</event>
<event>
 3    1  0.1615911E-001  0.1250000E+03  0.7546771E-02  0.1235069E+00
         21   -1    0    0  502  501  0.00000000000E+00  0.00000000000E+00  0.74343395255E+01  0.74343395255E+01  0.00000000000E+00 0.  1.
         21   -1    0    0  501  502 -0.00000000000E+00 -0.00000000000E+00 -0.52543336050E+03  0.52543336050E+03  0.00000000000E+00 0.  1.
         25    1    1    2    0    0  0.00000000000E+00  0.00000000000E+00 -0.51799902098E+03  0.53286770003E+03  0.12500000000E+03 0.  0.
<mgrwt>
<rscale>  0 0.12500000E+03</rscale>
<asrwt>0</asrwt>
<pdfrwt beam="1">  1       21 0.11437447E-02 0.12500000E+03</pdfrwt>
<pdfrwt beam="2">  1       21 0.80835893E-01 0.12500000E+03</pdfrwt>
<totfact> 0.40315897E+06</totfact>
</mgrwt>
</event>
<event>
 3    1  0.1615911E-001  0.1250000E+03  0.7546771E-02  0.1235069E+00
         21   -1    0    0  502  501  0.00000000000E+00  0.00000000000E+00  0.21123577730E+03  0.21123577730E+03  0.00000000000E+00 0.  1.
         21   -1    0    0  501  502 -0.00000000000E+00 -0.00000000000E+00 -0.18492369285E+02  0.18492369285E+02  0.00000000000E+00 0.  1.
         25    1    1    2    0    0  0.00000000000E+00  0.00000000000E+00  0.19274340801E+03  0.22972814658E+03  0.12500000000E+03 0.  0.
<mgrwt>
<rscale>  0 0.12500000E+03</rscale>
<asrwt>0</asrwt>
<pdfrwt beam="1">  1       21 0.32497810E-01 0.12500000E+03</pdfrwt>
<pdfrwt beam="2">  1       21 0.28449800E-02 0.12500000E+03</pdfrwt>
<totfact> 0.61841045E+06</totfact>
</mgrwt>
</event>
<event>
 3    1  0.1615911E-001  0.1250000E+03  0.7546771E-02  0.1235069E+00
         21   -1    0    0  502  501  0.00000000000E+00  0.00000000000E+00  0.32725781836E+02  0.32725781836E+02  0.00000000000E+00 0. -1.
         21   -1    0    0  501  502 -0.00000000000E+00 -0.00000000000E+00 -0.11936307647E+03  0.11936307647E+03  0.00000000000E+00 0. -1.
         25    1    1    2    0    0  0.00000000000E+00  0.00000000000E+00 -0.86637294637E+02  0.15208885831E+03  0.12500000000E+03 0.  0.
<mgrwt>
<rscale>  0 0.12500000E+03</rscale>
<asrwt>0</asrwt>
<pdfrwt beam="1">  1       21 0.50347357E-02 0.12500000E+03</pdfrwt>
<pdfrwt beam="2">  1       21 0.18363550E-01 0.12500000E+03</pdfrwt>
<totfact> 0.70497779E+06</totfact>
</mgrwt>
</event>
<event>
 3    1  0.1615911E-001  0.1250000E+03  0.7546771E-02  0.1235069E+00
         21   -1    0    0  502  501  0.00000000000E+00  0.00000000000E+00  0.48998740678E+03  0.48998740678E+03  0.00000000000E+00 0. -1.
         21   -1    0    0  501  502 -0.00000000000E+00 -0.00000000000E+00 -0.79721436632E+01  0.79721436632E+01  0.00000000000E+00 0. -1.
         25    1    1    2    0    0  0.00000000000E+00  0.00000000000E+00  0.48201526312E+03  0.49795955044E+03  0.12500000000E+03 0.  0.
<mgrwt>
<rscale>  0 0.12500000E+03</rscale>
<asrwt>0</asrwt>
<pdfrwt beam="1">  1       21 0.75382655E-01 0.12500000E+03</pdfrwt>
<pdfrwt beam="2">  1       21 0.12264840E-02 0.12500000E+03</pdfrwt>
<totfact> 0.42154953E+06</totfact>
</mgrwt>
</event>
<event>
 3    1  0.1615911E-001  0.1250000E+03  0.7546771E-02  0.1235069E+00
         21   -1    0    0  502  501  0.00000000000E+00  0.00000000000E+00  0.10149358372E+03  0.10149358372E+03  0.00000000000E+00 0.  1.
         21   -1    0    0  501  502 -0.00000000000E+00 -0.00000000000E+00 -0.38487654655E+02  0.38487654655E+02  0.00000000000E+00 0.  1.
         25    1    1    2    0    0  0.00000000000E+00  0.00000000000E+00  0.63005929066E+02  0.13998123838E+03  0.12500000000E+03 0.  0.
<mgrwt>
<rscale>  0 0.12500000E+03</rscale>
<asrwt>0</asrwt>
<pdfrwt beam="1">  1       21 0.15614397E-01 0.12500000E+03</pdfrwt>
<pdfrwt beam="2">  1       21 0.59211777E-02 0.12500000E+03</pdfrwt>
<totfact> 0.72041758E+06</totfact>
</mgrwt>
</event>
<event>
 3    1  0.1615911E-001  0.1250000E+03  0.7546771E-02  0.1235069E+00
         21   -1    0    0  502  501  0.00000000000E+00  0.00000000000E+00  0.41306177107E+01  0.41306177107E+01  0.00000000000E+00 0.  1.
         21   -1    0    0  501  502 -0.00000000000E+00 -0.00000000000E+00 -0.94568180199E+03  0.94568180199E+03  0.00000000000E+00 0.  1.
         25    1    1    2    0    0  0.00000000000E+00  0.00000000000E+00 -0.94155118428E+03  0.94981241970E+03  0.12500000000E+03 0.  0.
<mgrwt>
<rscale>  0 0.12500000E+03</rscale>
<asrwt>0</asrwt>
<pdfrwt beam="1">  1       21 0.63547885E-03 0.12500000E+03</pdfrwt>
<pdfrwt beam="2">  1       21 0.14548969E+00 0.12500000E+03</pdfrwt>
<totfact> 0.24916395E+06</totfact>
</mgrwt>
</event>
<event>
 3    1  0.1615911E-001  0.1250000E+03  0.7546771E-02  0.1235069E+00
         21   -1    0    0  502  501  0.00000000000E+00  0.00000000000E+00  0.59620784189E+02  0.59620784189E+02  0.00000000000E+00 0.  1.
         21   -1    0    0  501  502 -0.00000000000E+00 -0.00000000000E+00 -0.65518259331E+02  0.65518259331E+02  0.00000000000E+00 0.  1.
         25    1    1    2    0    0  0.00000000000E+00  0.00000000000E+00 -0.58974751424E+01  0.12513904352E+03  0.12500000000E+03 0.  0.
<mgrwt>
<rscale>  0 0.12500000E+03</rscale>
<asrwt>0</asrwt>
<pdfrwt beam="1">  1       21 0.91724284E-02 0.12500000E+03</pdfrwt>
<pdfrwt beam="2">  1       21 0.10079732E-01 0.12500000E+03</pdfrwt>
<totfact> 0.74024803E+06</totfact>
</mgrwt>
</event>
<event>
 3    1  0.1615911E-001  0.1250000E+03  0.7546771E-02  0.1235069E+00
         21   -1    0    0  502  501  0.00000000000E+00  0.00000000000E+00  0.54930814145E+01  0.54930814145E+01  0.00000000000E+00 0.  1.
         21   -1    0    0  501  502 -0.00000000000E+00 -0.00000000000E+00 -0.71112181037E+03  0.71112181037E+03  0.00000000000E+00 0.  1.
         25    1    1    2    0    0  0.00000000000E+00  0.00000000000E+00 -0.70562872896E+03  0.71661489178E+03  0.12500000000E+03 0.  0.
<mgrwt>
<rscale>  0 0.12500000E+03</rscale>
<asrwt>0</asrwt>
<pdfrwt beam="1">  1       21 0.84509027E-03 0.12500000E+03</pdfrwt>
<pdfrwt beam="2">  1       21 0.10940325E+00 0.12500000E+03</pdfrwt>
<totfact> 0.32279371E+06</totfact>
</mgrwt>
</event>
<event>
 3    1  0.1615911E-001  0.1250000E+03  0.7546771E-02  0.1235069E+00
         21   -1    0    0  502  501  0.00000000000E+00  0.00000000000E+00  0.37725555150E+01  0.37725555150E+01  0.00000000000E+00 0.  1.
         21   -1    0    0  501  502 -0.00000000000E+00 -0.00000000000E+00 -0.10354387058E+04  0.10354387058E+04  0.00000000000E+00 0.  1.
         25    1    1    2    0    0  0.00000000000E+00  0.00000000000E+00 -0.10316661503E+04  0.10392112613E+04  0.12500000000E+03 0.  0.
<mgrwt>
<rscale>  0 0.12500000E+03</rscale>
<asrwt>0</asrwt>
<pdfrwt beam="1">  1       21 0.58039262E-03 0.12500000E+03</pdfrwt>
<pdfrwt beam="2">  1       21 0.15929841E+00 0.12500000E+03</pdfrwt>
<totfact> 0.22656330E+06</totfact>
</mgrwt>
</event>
<event>
 3    1  0.1615911E-001  0.1250000E+03  0.7546771E-02  0.1235069E+00
         21   -1    0    0  502  501  0.00000000000E+00  0.00000000000E+00  0.91915653728E+01  0.91915653728E+01  0.00000000000E+00 0.  1.
         21   -1    0    0  501  502 -0.00000000000E+00 -0.00000000000E+00 -0.42498201792E+03  0.42498201792E+03  0.00000000000E+00 0.  1.
         25    1    1    2    0    0  0.00000000000E+00  0.00000000000E+00 -0.41579045255E+03  0.43417358330E+03  0.12500000000E+03 0.  0.
<mgrwt>
<rscale>  0 0.12500000E+03</rscale>
<asrwt>0</asrwt>
<pdfrwt beam="1">  1       21 0.14140871E-02 0.12500000E+03</pdfrwt>
<pdfrwt beam="2">  1       21 0.65381846E-01 0.12500000E+03</pdfrwt>
<totfact> 0.45854286E+06</totfact>
</mgrwt>
</event>
<event>
 3    1  0.1615911E-001  0.1250000E+03  0.7546771E-02  0.1235069E+00
         21   -1    0    0  502  501  0.00000000000E+00  0.00000000000E+00  0.35504324500E+03  0.35504324500E+03  0.00000000000E+00 0. -1.
         21   -1    0    0  501  502 -0.00000000000E+00 -0.00000000000E+00 -0.11002180875E+02  0.11002180875E+02  0.00000000000E+00 0. -1.
         25    1    1    2    0    0  0.00000000000E+00  0.00000000000E+00  0.34404106412E+03  0.36604542587E+03  0.12500000000E+03 0.  0.
<mgrwt>
<rscale>  0 0.12500000E+03</rscale>
<asrwt>0</asrwt>
<pdfrwt beam="1">  1       21 0.54622029E-01 0.12500000E+03</pdfrwt>
<pdfrwt beam="2">  1       21 0.16926435E-02 0.12500000E+03</pdfrwt>
<totfact> 0.50374830E+06</totfact>
</mgrwt>
</event>
<event>
 3    1  0.1615911E-001  0.1250000E+03  0.7546771E-02  0.1235069E+00
         21   -1    0    0  502  501  0.00000000000E+00  0.00000000000E+00  0.74093719289E+01  0.74093719289E+01  0.00000000000E+00 0.  1.
         21   -1    0    0  501  502 -0.00000000000E+00 -0.00000000000E+00 -0.52720393003E+03  0.52720393003E+03  0.00000000000E+00 0.  1.
         25    1    1    2    0    0  0.00000000000E+00  0.00000000000E+00 -0.51979455810E+03  0.53461330196E+03  0.12500000000E+03 0.  0.
<mgrwt>
<rscale>  0 0.12500000E+03</rscale>
<asrwt>0</asrwt>
<pdfrwt beam="1">  1       21 0.11399029E-02 0.12500000E+03</pdfrwt>
<pdfrwt beam="2">  1       21 0.81108329E-01 0.12500000E+03</pdfrwt>
<totfact> 0.40227036E+06</totfact>
</mgrwt>
</event>
<event>
 3    1  0.1615911E-001  0.1250000E+03  0.7546771E-02  0.1235069E+00
         21   -1    0    0  502  501  0.00000000000E+00  0.00000000000E+00  0.34511565437E+03  0.34511565437E+03  0.00000000000E+00 0. -1.
         21   -1    0    0  501  502 -0.00000000000E+00 -0.00000000000E+00 -0.11318669410E+02  0.11318669410E+02  0.00000000000E+00 0. -1.
         25    1    1    2    0    0  0.00000000000E+00  0.00000000000E+00  0.33379698496E+03  0.35643432378E+03  0.12500000000E+03 0.  0.
<mgrwt>
<rscale>  0 0.12500000E+03</rscale>
<asrwt>0</asrwt>
<pdfrwt beam="1">  1       21 0.53094708E-01 0.12500000E+03</pdfrwt>
<pdfrwt beam="2">  1       21 0.17413340E-02 0.12500000E+03</pdfrwt>
<totfact> 0.51066725E+06</totfact>
</mgrwt>
</event>
<event>
 3    1  0.1615911E-001  0.1250000E+03  0.7546771E-02  0.1235069E+00
         21   -1    0    0  502  501  0.00000000000E+00  0.00000000000E+00  0.47146672993E+01  0.47146672993E+01  0.00000000000E+00 0. -1.
         21   -1    0    0  501  502 -0.00000000000E+00 -0.00000000000E+00 -0.82853142163E+03  0.82853142163E+03  0.00000000000E+00 0. -1.
         25    1    1    2    0    0  0.00000000000E+00  0.00000000000E+00 -0.82381675433E+03  0.83324608893E+03  0.12500000000E+03 0.  0.
<mgrwt>
<rscale>  0 0.12500000E+03</rscale>
<asrwt>0</asrwt>
<pdfrwt beam="1">  1       21 0.72533367E-03 0.12500000E+03</pdfrwt>
<pdfrwt beam="2">  1       21 0.12746633E+00 0.12500000E+03</pdfrwt>
<totfact> 0.28290528E+06</totfact>
</mgrwt>
</event>
<event>
 3    1  0.1615911E-001  0.1250000E+03  0.7546771E-02  0.1235069E+00
         21   -1    0    0  502  501  0.00000000000E+00  0.00000000000E+00  0.36139065886E+03  0.36139065886E+03  0.00000000000E+00 0.  1.
         21   -1    0    0  501  502 -0.00000000000E+00 -0.00000000000E+00 -0.10808940143E+02  0.10808940143E+02  0.00000000000E+00 0.  1.
         25    1    1    2    0    0  0.00000000000E+00  0.00000000000E+00  0.35058171872E+03  0.37219959900E+03  0.12500000000E+03 0.  0.
<mgrwt>
<rscale>  0 0.12500000E+03</rscale>
<asrwt>0</asrwt>
<pdfrwt beam="1">  1       21 0.55598554E-01 0.12500000E+03</pdfrwt>
<pdfrwt beam="2">  1       21 0.16629141E-02 0.12500000E+03</pdfrwt>
<totfact> 0.49939569E+06</totfact>
</mgrwt>
</event>
<event>
 3    1  0.1615911E-001  0.1250000E+03  0.7546771E-02  0.1235069E+00
         21   -1    0    0  502  501  0.00000000000E+00  0.00000000000E+00  0.26658260223E+02  0.26658260223E+02  0.00000000000E+00 0.  1.
         21   -1    0    0  501  502 -0.00000000000E+00 -0.00000000000E+00 -0.14653056754E+03  0.14653056754E+03  0.00000000000E+00 0.  1.
         25    1    1    2    0    0  0.00000000000E+00  0.00000000000E+00 -0.11987230731E+03  0.17318882776E+03  0.12500000000E+03 0.  0.
<mgrwt>
<rscale>  0 0.12500000E+03</rscale>
<asrwt>0</asrwt>
<pdfrwt beam="1">  1       21 0.41012708E-02 0.12500000E+03</pdfrwt>
<pdfrwt beam="2">  1       21 0.22543164E-01 0.12500000E+03</pdfrwt>
<totfact> 0.67941614E+06</totfact>
</mgrwt>
</event>
<event>
 3    1  0.1615911E-001  0.1250000E+03  0.7546771E-02  0.1235069E+00
         21   -1    0    0  502  501  0.00000000000E+00  0.00000000000E+00  0.10709005318E+02  0.10709005318E+02  0.00000000000E+00 0. -1.
         21   -1    0    0  501  502 -0.00000000000E+00 -0.00000000000E+00 -0.36476310208E+03  0.36476310208E+03  0.00000000000E+00 0. -1.
         25    1    1    2    0    0  0.00000000000E+00  0.00000000000E+00 -0.35405409676E+03  0.37547210740E+03  0.12500000000E+03 0.  0.
<mgrwt>
<rscale>  0 0.12500000E+03</rscale>
<asrwt>0</asrwt>
<pdfrwt beam="1">  1       21 0.16475397E-02 0.12500000E+03</pdfrwt>
<pdfrwt beam="2">  1       21 0.56117387E-01 0.12500000E+03</pdfrwt>
<totfact> 0.49710531E+06</totfact>
</mgrwt>
</event>
<event>
 3    1  0.1615911E-001  0.1250000E+03  0.7546771E-02  0.1235069E+00
         21   -1    0    0  502  501  0.00000000000E+00  0.00000000000E+00  0.33694807580E+02  0.33694807580E+02  0.00000000000E+00 0.  1.
         21   -1    0    0  501  502 -0.00000000000E+00 -0.00000000000E+00 -0.11593032519E+03  0.11593032519E+03  0.00000000000E+00 0.  1.
         25    1    1    2    0    0  0.00000000000E+00  0.00000000000E+00 -0.82235517611E+02  0.14962513277E+03  0.12500000000E+03 0.  0.
<mgrwt>
<rscale>  0 0.12500000E+03</rscale>
<asrwt>0</asrwt>
<pdfrwt beam="1">  1       21 0.51838164E-02 0.12500000E+03</pdfrwt>
<pdfrwt beam="2">  1       21 0.17835435E-01 0.12500000E+03</pdfrwt>
<totfact> 0.70806322E+06</totfact>
</mgrwt>
</event>
<event>
 3    1  0.1615911E-001  0.1250000E+03  0.7546771E-02  0.1235069E+00
         21   -1    0    0  502  501  0.00000000000E+00  0.00000000000E+00  0.12905792758E+02  0.12905792758E+02  0.00000000000E+00 0.  1.
         21   -1    0    0  501  502 -0.00000000000E+00 -0.00000000000E+00 -0.30267416139E+03  0.30267416139E+03  0.00000000000E+00 0.  1.
         25    1    1    2    0    0  0.00000000000E+00  0.00000000000E+00 -0.28976836863E+03  0.31557995415E+03  0.12500000000E+03 0.  0.
<mgrwt>
<rscale>  0 0.12500000E+03</rscale>
<asrwt>0</asrwt>
<pdfrwt beam="1">  1       21 0.19855067E-02 0.12500000E+03</pdfrwt>
<pdfrwt beam="2">  1       21 0.46565252E-01 0.12500000E+03</pdfrwt>
<totfact> 0.54185480E+06</totfact>
</mgrwt>
</event>
<event>
 3    1  0.1615911E-001  0.1250000E+03  0.7546771E-02  0.1235069E+00
         21   -1    0    0  502  501  0.00000000000E+00  0.00000000000E+00  0.34489407757E+03  0.34489407757E+03  0.00000000000E+00 0.  1.
         21   -1    0    0  501  502 -0.00000000000E+00 -0.00000000000E+00 -0.11325941076E+02  0.11325941076E+02  0.00000000000E+00 0.  1.
         25    1    1    2    0    0  0.00000000000E+00  0.00000000000E+00  0.33356813650E+03  0.35622001865E+03  0.12500000000E+03 0.  0.
<mgrwt>
<rscale>  0 0.12500000E+03</rscale>
<asrwt>0</asrwt>
<pdfrwt beam="1">  1       21 0.53060619E-01 0.12500000E+03</pdfrwt>
<pdfrwt beam="2">  1       21 0.17424527E-02 0.12500000E+03</pdfrwt>
<totfact> 0.51082325E+06</totfact>
</mgrwt>
</event>
<event>
 3    1  0.1615911E-001  0.1250000E+03  0.7546771E-02  0.1235069E+00
         21   -1    0    0  502  501  0.00000000000E+00  0.00000000000E+00  0.45787036163E+03  0.45787036163E+03  0.00000000000E+00 0.  1.
         21   -1    0    0  501  502 -0.00000000000E+00 -0.00000000000E+00 -0.85313449555E+01  0.85313449555E+01  0.00000000000E+00 0.  1.
         25    1    1    2    0    0  0.00000000000E+00  0.00000000000E+00  0.44933901668E+03  0.46640170659E+03  0.12500000000E+03 0.  0.
<mgrwt>
<rscale>  0 0.12500000E+03</rscale>
<asrwt>0</asrwt>
<pdfrwt beam="1">  1       21 0.70441575E-01 0.12500000E+03</pdfrwt>
<pdfrwt beam="2">  1       21 0.13125150E-02 0.12500000E+03</pdfrwt>
<totfact> 0.43926827E+06</totfact>
</mgrwt>
</event>
<event>
 3    1  0.1615911E-001  0.1250000E+03  0.7546771E-02  0.1235069E+00
         21   -1    0    0  502  501  0.00000000000E+00  0.00000000000E+00  0.52029025813E+02  0.52029025813E+02  0.00000000000E+00 0.  1.
         21   -1    0    0  501  502 -0.00000000000E+00 -0.00000000000E+00 -0.75078284457E+02  0.75078284457E+02  0.00000000000E+00 0.  1.
         25    1    1    2    0    0  0.00000000000E+00  0.00000000000E+00 -0.23049258644E+02  0.12710731027E+03  0.12500000000E+03 0.  0.
<mgrwt>
<rscale>  0 0.12500000E+03</rscale>
<asrwt>0</asrwt>
<pdfrwt beam="1">  1       21 0.80044655E-02 0.12500000E+03</pdfrwt>
<pdfrwt beam="2">  1       21 0.11550505E-01 0.12500000E+03</pdfrwt>
<totfact> 0.73754535E+06</totfact>
</mgrwt>
</event>
<event>
 3    1  0.1615911E-001  0.1250000E+03  0.7546771E-02  0.1235069E+00
         21   -1    0    0  502  501  0.00000000000E+00  0.00000000000E+00  0.50163423460E+02  0.50163423460E+02  0.00000000000E+00 0. -1.
         21   -1    0    0  501  502 -0.00000000000E+00 -0.00000000000E+00 -0.77870482726E+02  0.77870482726E+02  0.00000000000E+00 0. -1.
         25    1    1    2    0    0  0.00000000000E+00  0.00000000000E+00 -0.27707059266E+02  0.12803390619E+03  0.12500000000E+03 0.  0.
<mgrwt>
<rscale>  0 0.12500000E+03</rscale>
<asrwt>0</asrwt>
<pdfrwt beam="1">  1       21 0.77174498E-02 0.12500000E+03</pdfrwt>
<pdfrwt beam="2">  1       21 0.11980074E-01 0.12500000E+03</pdfrwt>
<totfact> 0.73628979E+06</totfact>
</mgrwt>
</event>
<event>
 3    1  0.1615911E-001  0.1250000E+03  0.7546771E-02  0.1235069E+00
         21   -1    0    0  502  501  0.00000000000E+00  0.00000000000E+00  0.64231856451E+02  0.64231856451E+02  0.00000000000E+00 0. -1.
         21   -1    0    0  501  502 -0.00000000000E+00 -0.00000000000E+00 -0.60814838864E+02  0.60814838864E+02  0.00000000000E+00 0. -1.
         25    1    1    2    0    0  0.00000000000E+00  0.00000000000E+00  0.34170175878E+01  0.12504669531E+03  0.12500000000E+03 0.  0.
<mgrwt>
<rscale>  0 0.12500000E+03</rscale>
<asrwt>0</asrwt>
<pdfrwt beam="1">  1       21 0.98818240E-02 0.12500000E+03</pdfrwt>
<pdfrwt beam="2">  1       21 0.93561291E-02 0.12500000E+03</pdfrwt>
<totfact> 0.74037274E+06</totfact>
</mgrwt>
</event>
<event>
 3    1  0.1615911E-001  0.1250000E+03  0.7546771E-02  0.1235069E+00
         21   -1    0    0  502  501  0.00000000000E+00  0.00000000000E+00  0.11285526864E+03  0.11285526864E+03  0.00000000000E+00 0. -1.
         21   -1    0    0  501  502 -0.00000000000E+00 -0.00000000000E+00 -0.34612916588E+02  0.34612916588E+02  0.00000000000E+00 0. -1.
         25    1    1    2    0    0  0.00000000000E+00  0.00000000000E+00  0.78242352054E+02  0.14746818523E+03  0.12500000000E+03 0.  0.
<mgrwt>
<rscale>  0 0.12500000E+03</rscale>
<asrwt>0</asrwt>
<pdfrwt beam="1">  1       21 0.17362349E-01 0.12500000E+03</pdfrwt>
<pdfrwt beam="2">  1       21 0.53250641E-02 0.12500000E+03</pdfrwt>
<totfact> 0.71078710E+06</totfact>
</mgrwt>
</event>
<event>
 3    1  0.1615911E-001  0.1250000E+03  0.7546771E-02  0.1235069E+00
         21   -1    0    0  502  501  0.00000000000E+00  0.00000000000E+00  0.41017532489E+02  0.41017532489E+02  0.00000000000E+00 0.  1.
         21   -1    0    0  501  502 -0.00000000000E+00 -0.00000000000E+00 -0.95233666264E+02  0.95233666264E+02  0.00000000000E+00 0.  1.
         25    1    1    2    0    0  0.00000000000E+00  0.00000000000E+00 -0.54216133775E+02  0.13625119875E+03  0.12500000000E+03 0.  0.
<mgrwt>
<rscale>  0 0.12500000E+03</rscale>
<asrwt>0</asrwt>
<pdfrwt beam="1">  1       21 0.63103897E-02 0.12500000E+03</pdfrwt>
<pdfrwt beam="2">  1       21 0.14651333E-01 0.12500000E+03</pdfrwt>
<totfact> 0.72531226E+06</totfact>
</mgrwt>
</event>
<event>
 3    1  0.1615911E-001  0.1250000E+03  0.7546771E-02  0.1235069E+00
         21   -1    0    0  502  501  0.00000000000E+00  0.00000000000E+00  0.76560580862E+03  0.76560580862E+03  0.00000000000E+00 0. -1.
         21   -1    0    0  501  502 -0.00000000000E+00 -0.00000000000E+00 -0.51021687088E+01  0.51021687088E+01  0.00000000000E+00 0. -1.
         25    1    1    2    0    0  0.00000000000E+00  0.00000000000E+00  0.76050363991E+03  0.77070797733E+03  0.12500000000E+03 0.  0.
<mgrwt>
<rscale>  0 0.12500000E+03</rscale>
<asrwt>0</asrwt>
<pdfrwt beam="1">  1       21 0.11778542E+00 0.12500000E+03</pdfrwt>
<pdfrwt beam="2">  1       21 0.78494964E-03 0.12500000E+03</pdfrwt>
<totfact> 0.30353562E+06</totfact>
</mgrwt>
</event>
<event>
 3    1  0.1615911E-001  0.1250000E+03  0.7546771E-02  0.1235069E+00
         21   -1    0    0  502  501  0.00000000000E+00  0.00000000000E+00  0.22360220942E+02  0.22360220942E+02  0.00000000000E+00 0. -1.
         21   -1    0    0  501  502 -0.00000000000E+00 -0.00000000000E+00 -0.17469639545E+03  0.17469639545E+03  0.00000000000E+00 0. -1.
         25    1    1    2    0    0  0.00000000000E+00  0.00000000000E+00 -0.15233617451E+03  0.19705661639E+03  0.12500000000E+03 0.  0.
<mgrwt>
<rscale>  0 0.12500000E+03</rscale>
<asrwt>0</asrwt>
<pdfrwt beam="1">  1       21 0.34400339E-02 0.12500000E+03</pdfrwt>
<pdfrwt beam="2">  1       21 0.26876369E-01 0.12500000E+03</pdfrwt>
<totfact> 0.65246632E+06</totfact>
</mgrwt>
</event>
<event>
 3    1  0.1615911E-001  0.1250000E+03  0.7546771E-02  0.1235069E+00
         21   -1    0    0  502  501  0.00000000000E+00  0.00000000000E+00  0.23657897613E+02  0.23657897613E+02  0.00000000000E+00 0.  1.
         21   -1    0    0  501  502 -0.00000000000E+00 -0.00000000000E+00 -0.16511399550E+03  0.16511399550E+03  0.00000000000E+00 0.  1.
         25    1    1    2    0    0  0.00000000000E+00  0.00000000000E+00 -0.14145609788E+03  0.18877189311E+03  0.12500000000E+03 0.  0.
<mgrwt>
<rscale>  0 0.12500000E+03</rscale>
<asrwt>0</asrwt>
<pdfrwt beam="1">  1       21 0.36396767E-02 0.12500000E+03</pdfrwt>
<pdfrwt beam="2">  1       21 0.25402152E-01 0.12500000E+03</pdfrwt>
<totfact> 0.66159217E+06</totfact>
</mgrwt>
</event>
<event>
 3    1  0.1615911E-001  0.1250000E+03  0.7546771E-02  0.1235069E+00
         21   -1    0    0  502  501  0.00000000000E+00  0.00000000000E+00  0.13505384255E+02  0.13505384255E+02  0.00000000000E+00 0. -1.
         21   -1    0    0  501  502 -0.00000000000E+00 -0.00000000000E+00 -0.28923649458E+03  0.28923649458E+03  0.00000000000E+00 0. -1.
         25    1    1    2    0    0  0.00000000000E+00  0.00000000000E+00 -0.27573111033E+03  0.30274187884E+03  0.12500000000E+03 0.  0.
<mgrwt>
<rscale>  0 0.12500000E+03</rscale>
<asrwt>0</asrwt>
<pdfrwt beam="1">  1       21 0.20777515E-02 0.12500000E+03</pdfrwt>
<pdfrwt beam="2">  1       21 0.44497921E-01 0.12500000E+03</pdfrwt>
<totfact> 0.55229080E+06</totfact>
</mgrwt>
</event>
<event>
 3    1  0.1615911E-001  0.1250000E+03  0.7546771E-02  0.1235069E+00
         21   -1    0    0  502  501  0.00000000000E+00  0.00000000000E+00  0.26100818608E+02  0.26100818608E+02  0.00000000000E+00 0.  1.
         21   -1    0    0  501  502 -0.00000000000E+00 -0.00000000000E+00 -0.14966005697E+03  0.14966005697E+03  0.00000000000E+00 0.  1.
         25    1    1    2    0    0  0.00000000000E+00  0.00000000000E+00 -0.12355923837E+03  0.17576087558E+03  0.12500000000E+03 0.  0.
<mgrwt>
<rscale>  0 0.12500000E+03</rscale>
<asrwt>0</asrwt>
<pdfrwt beam="1">  1       21 0.40155105E-02 0.12500000E+03</pdfrwt>
<pdfrwt beam="2">  1       21 0.23024624E-01 0.12500000E+03</pdfrwt>
<totfact> 0.67641194E+06</totfact>
</mgrwt>
</event>
<event>
 3    1  0.1615911E-001  0.1250000E+03  0.7546771E-02  0.1235069E+00
         21   -1    0    0  502  501  0.00000000000E+00  0.00000000000E+00  0.54888636127E+03  0.54888636127E+03  0.00000000000E+00 0.  1.
         21   -1    0    0  501  502 -0.00000000000E+00 -0.00000000000E+00 -0.71166825697E+01  0.71166825697E+01  0.00000000000E+00 0.  1.
         25    1    1    2    0    0  0.00000000000E+00  0.00000000000E+00  0.54176967870E+03  0.55600304384E+03  0.12500000000E+03 0.  0.
<mgrwt>
<rscale>  0 0.12500000E+03</rscale>
<asrwt>0</asrwt>
<pdfrwt beam="1">  1       21 0.84444023E-01 0.12500000E+03</pdfrwt>
<pdfrwt beam="2">  1       21 0.10948747E-02 0.12500000E+03</pdfrwt>
<totfact> 0.39161075E+06</totfact>
</mgrwt>
</event>
<event>
 3    1  0.1615911E-001  0.1250000E+03  0.7546771E-02  0.1235069E+00
         21   -1    0    0  502  501  0.00000000000E+00  0.00000000000E+00  0.23082237873E+03  0.23082237873E+03  0.00000000000E+00 0. -1.
         21   -1    0    0  501  502 -0.00000000000E+00 -0.00000000000E+00 -0.16923185791E+02  0.16923185791E+02  0.00000000000E+00 0. -1.
         25    1    1    2    0    0  0.00000000000E+00  0.00000000000E+00  0.21389919294E+03  0.24774556452E+03  0.12500000000E+03 0.  0.
<mgrwt>
<rscale>  0 0.12500000E+03</rscale>
<asrwt>0</asrwt>
<pdfrwt beam="1">  1       21 0.35511133E-01 0.12500000E+03</pdfrwt>
<pdfrwt beam="2">  1       21 0.26035672E-02 0.12500000E+03</pdfrwt>
<totfact> 0.60091093E+06</totfact>
</mgrwt>
</event>
<event>
 3    1  0.1615911E-001  0.1250000E+03  0.7546771E-02  0.1235069E+00
         21   -1    0    0  502  501  0.00000000000E+00  0.00000000000E+00  0.11244638280E+02  0.11244638280E+02  0.00000000000E+00 0. -1.
         21   -1    0    0  501  502 -0.00000000000E+00 -0.00000000000E+00 -0.34738778631E+03  0.34738778631E+03  0.00000000000E+00 0. -1.
         25    1    1    2    0    0  0.00000000000E+00  0.00000000000E+00 -0.33614314803E+03  0.35863242459E+03  0.12500000000E+03 0.  0.
<mgrwt>
<rscale>  0 0.12500000E+03</rscale>
<asrwt>0</asrwt>
<pdfrwt beam="1">  1       21 0.17299441E-02 0.12500000E+03</pdfrwt>
<pdfrwt beam="2">  1       21 0.53444283E-01 0.12500000E+03</pdfrwt>
<totfact> 0.50907150E+06</totfact>
</mgrwt>
</event>
<event>
 3    1  0.1615911E-001  0.1250000E+03  0.7546771E-02  0.1235069E+00
         21   -1    0    0  502  501  0.00000000000E+00  0.00000000000E+00  0.44694280539E+01  0.44694280539E+01  0.00000000000E+00 0. -1.
         21   -1    0    0  501  502 -0.00000000000E+00 -0.00000000000E+00 -0.87399326109E+03  0.87399326109E+03  0.00000000000E+00 0. -1.
         25    1    1    2    0    0  0.00000000000E+00  0.00000000000E+00 -0.86952383303E+03  0.87846268914E+03  0.12500000000E+03 0.  0.
<mgrwt>
<rscale>  0 0.12500000E+03</rscale>
<asrwt>0</asrwt>
<pdfrwt beam="1">  1       21 0.68760395E-03 0.12500000E+03</pdfrwt>
<pdfrwt beam="2">  1       21 0.13446057E+00 0.12500000E+03</pdfrwt>
<totfact> 0.26921447E+06</totfact>
</mgrwt>
</event>
<event>
 3    1  0.1615911E-001  0.1250000E+03  0.7546771E-02  0.1235069E+00
         21   -1    0    0  502  501  0.00000000000E+00  0.00000000000E+00  0.10095418218E+03  0.10095418218E+03  0.00000000000E+00 0.  1.
         21   -1    0    0  501  502 -0.00000000000E+00 -0.00000000000E+00 -0.38693295470E+02  0.38693295470E+02  0.00000000000E+00 0.  1.
         25    1    1    2    0    0  0.00000000000E+00  0.00000000000E+00  0.62260886708E+02  0.13964747765E+03  0.12500000000E+03 0.  0.
<mgrwt>
<rscale>  0 0.12500000E+03</rscale>
<asrwt>0</asrwt>
<pdfrwt beam="1">  1       21 0.15531413E-01 0.12500000E+03</pdfrwt>
<pdfrwt beam="2">  1       21 0.59528147E-02 0.12500000E+03</pdfrwt>
<totfact> 0.72085363E+06</totfact>
</mgrwt>
</event>
<event>
 3    1  0.1615911E-001  0.1250000E+03  0.7546771E-02  0.1235069E+00
         21   -1    0    0  502  501  0.00000000000E+00  0.00000000000E+00  0.11391550212E+04  0.11391550212E+04  0.00000000000E+00 0.  1.
         21   -1    0    0  501  502 -0.00000000000E+00 -0.00000000000E+00 -0.34290767520E+01  0.34290767520E+01  0.00000000000E+00 0.  1.
         25    1    1    2    0    0  0.00000000000E+00  0.00000000000E+00  0.11357259444E+04  0.11425840979E+04  0.12500000000E+03 0.  0.
<mgrwt>
<rscale>  0 0.12500000E+03</rscale>
<asrwt>0</asrwt>
<pdfrwt beam="1">  1       21 0.17525432E+00 0.12500000E+03</pdfrwt>
<pdfrwt beam="2">  1       21 0.52755118E-03 0.12500000E+03</pdfrwt>
<totfact> 0.20326471E+06</totfact>
</mgrwt>
</event>
<event>
 3    1  0.1615911E-001  0.1250000E+03  0.7546771E-02  0.1235069E+00
         21   -1    0    0  502  501  0.00000000000E+00  0.00000000000E+00  0.63817215219E+02  0.63817215219E+02  0.00000000000E+00 0. -1.
         21   -1    0    0  501  502 -0.00000000000E+00 -0.00000000000E+00 -0.61209972679E+02  0.61209972679E+02  0.00000000000E+00 0. -1.
         25    1    1    2    0    0  0.00000000000E+00  0.00000000000E+00  0.26072425408E+01  0.12502718790E+03  0.12500000000E+03 0.  0.
<mgrwt>
<rscale>  0 0.12500000E+03</rscale>
<asrwt>0</asrwt>
<pdfrwt beam="1">  1       21 0.98180331E-02 0.12500000E+03</pdfrwt>
<pdfrwt beam="2">  1       21 0.94169189E-02 0.12500000E+03</pdfrwt>
<totfact> 0.74039909E+06</totfact>
</mgrwt>
</event>
<event>
 3    1  0.1615911E-001  0.1250000E+03  0.7546771E-02  0.1235069E+00
         21   -1    0    0  502  501  0.00000000000E+00  0.00000000000E+00  0.10733815480E+02  0.10733815480E+02  0.00000000000E+00 0.  1.
         21   -1    0    0  501  502 -0.00000000000E+00 -0.00000000000E+00 -0.36391998793E+03  0.36391998793E+03  0.00000000000E+00 0.  1.
         25    1    1    2    0    0  0.00000000000E+00  0.00000000000E+00 -0.35318617245E+03  0.37465380341E+03  0.12500000000E+03 0.  0.
<mgrwt>
<rscale>  0 0.12500000E+03</rscale>
<asrwt>0</asrwt>
<pdfrwt beam="1">  1       21 0.16513561E-02 0.12500000E+03</pdfrwt>
<pdfrwt beam="2">  1       21 0.55987695E-01 0.12500000E+03</pdfrwt>
<totfact> 0.49767640E+06</totfact>
</mgrwt>
</event>
<event>
 3    1  0.1615911E-001  0.1250000E+03  0.7546771E-02  0.1235069E+00
         21   -1    0    0  502  501  0.00000000000E+00  0.00000000000E+00  0.16934971558E+02  0.16934971558E+02  0.00000000000E+00 0.  1.
         21   -1    0    0  501  502 -0.00000000000E+00 -0.00000000000E+00 -0.23066173962E+03  0.23066173962E+03  0.00000000000E+00 0.  1.
         25    1    1    2    0    0  0.00000000000E+00  0.00000000000E+00 -0.21372676807E+03  0.24759671118E+03  0.12500000000E+03 0.  0.
<mgrwt>
<rscale>  0 0.12500000E+03</rscale>
<asrwt>0</asrwt>
<pdfrwt beam="1">  1       21 0.26053803E-02 0.12500000E+03</pdfrwt>
<pdfrwt beam="2">  1       21 0.35486421E-01 0.12500000E+03</pdfrwt>
<totfact> 0.60105196E+06</totfact>
</mgrwt>
</event>
<event>
 3    1  0.1615911E-001  0.1250000E+03  0.7546771E-02  0.1235069E+00
         21   -1    0    0  502  501  0.00000000000E+00  0.00000000000E+00  0.17560991822E+02  0.17560991822E+02  0.00000000000E+00 0.  1.
         21   -1    0    0  501  502 -0.00000000000E+00 -0.00000000000E+00 -0.22243903075E+03  0.22243903075E+03  0.00000000000E+00 0.  1.
         25    1    1    2    0    0  0.00000000000E+00  0.00000000000E+00 -0.20487803893E+03  0.24000002257E+03  0.12500000000E+03 0.  0.
<mgrwt>
<rscale>  0 0.12500000E+03</rscale>
<asrwt>0</asrwt>
<pdfrwt beam="1">  1       21 0.27016913E-02 0.12500000E+03</pdfrwt>
<pdfrwt beam="2">  1       21 0.34221387E-01 0.12500000E+03</pdfrwt>
<totfact> 0.60832662E+06</totfact>
</mgrwt>
</event>
<event>
 3    1  0.1615911E-001  0.1250000E+03  0.7546771E-02  0.1235069E+00
         21   -1    0    0  502  501  0.00000000000E+00  0.00000000000E+00  0.10330595358E+03  0.10330595358E+03  0.00000000000E+00 0.  1.
         21   -1    0    0  501  502 -0.00000000000E+00 -0.00000000000E+00 -0.37812438340E+02  0.37812438340E+02  0.00000000000E+00 0.  1.
         25    1    1    2    0    0  0.00000000000E+00  0.00000000000E+00  0.65493515242E+02  0.14111839192E+03  0.12500000000E+03 0.  0.
<mgrwt>
<rscale>  0 0.12500000E+03</rscale>
<asrwt>0</asrwt>
<pdfrwt beam="1">  1       21 0.15893224E-01 0.12500000E+03</pdfrwt>
<pdfrwt beam="2">  1       21 0.58172982E-02 0.12500000E+03</pdfrwt>
<totfact> 0.71893639E+06</totfact>
</mgrwt>
</event>
<event>
 3    1  0.1615911E-001  0.1250000E+03  0.7546771E-02  0.1235069E+00
         21   -1    0    0  502  501  0.00000000000E+00  0.00000000000E+00  0.36694792805E+02  0.36694792805E+02  0.00000000000E+00 0.  1.
         21   -1    0    0  501  502 -0.00000000000E+00 -0.00000000000E+00 -0.10645243375E+03  0.10645243375E+03  0.00000000000E+00 0.  1.
         25    1    1    2    0    0  0.00000000000E+00  0.00000000000E+00 -0.69757640944E+02  0.14314722655E+03  0.12500000000E+03 0.  0.
<mgrwt>
<rscale>  0 0.12500000E+03</rscale>
<asrwt>0</asrwt>
<pdfrwt beam="1">  1       21 0.56453529E-02 0.12500000E+03</pdfrwt>
<pdfrwt beam="2">  1       21 0.16377297E-01 0.12500000E+03</pdfrwt>
<totfact> 0.71631061E+06</totfact>
</mgrwt>
</event>
<event>
 3    1  0.1615911E-001  0.1250000E+03  0.7546771E-02  0.1235069E+00
         21   -1    0    0  502  501  0.00000000000E+00  0.00000000000E+00  0.85560384067E+02  0.85560384067E+02  0.00000000000E+00 0. -1.
         21   -1    0    0  501  502 -0.00000000000E+00 -0.00000000000E+00 -0.45654890901E+02  0.45654890901E+02  0.00000000000E+00 0. -1.
         25    1    1    2    0    0  0.00000000000E+00  0.00000000000E+00  0.39905493166E+02  0.13121527497E+03  0.12500000000E+03 0.  0.
<mgrwt>
<rscale>  0 0.12500000E+03</rscale>
<asrwt>0</asrwt>
<pdfrwt beam="1">  1       21 0.13163136E-01 0.12500000E+03</pdfrwt>
<pdfrwt beam="2">  1       21 0.70238294E-02 0.12500000E+03</pdfrwt>
<totfact> 0.73201676E+06</totfact>
</mgrwt>
</event>
<event>
 3    1  0.1615911E-001  0.1250000E+03  0.7546771E-02  0.1235069E+00
         21   -1    0    0  502  501  0.00000000000E+00  0.00000000000E+00  0.37761660533E+03  0.37761660533E+03  0.00000000000E+00 0.  1.
         21   -1    0    0  501  502 -0.00000000000E+00 -0.00000000000E+00 -0.10344486828E+02  0.10344486828E+02  0.00000000000E+00 0.  1.
         25    1    1    2    0    0  0.00000000000E+00  0.00000000000E+00  0.36727211850E+03  0.38796109216E+03  0.12500000000E+03 0.  0.
<mgrwt>
<rscale>  0 0.12500000E+03</rscale>
<asrwt>0</asrwt>
<pdfrwt beam="1">  1       21 0.58094852E-01 0.12500000E+03</pdfrwt>
<pdfrwt beam="2">  1       21 0.15914598E-02 0.12500000E+03</pdfrwt>
<totfact> 0.48850269E+06</totfact>
</mgrwt>
</event>
<event>
 3    1  0.1615911E-001  0.1250000E+03  0.7546771E-02  0.1235069E+00
         21   -1    0    0  502  501  0.00000000000E+00  0.00000000000E+00  0.99408052222E+02  0.99408052222E+02  0.00000000000E+00 0.  1.
         21   -1    0    0  501  502 -0.00000000000E+00 -0.00000000000E+00 -0.39295106510E+02  0.39295106510E+02  0.00000000000E+00 0.  1.
         25    1    1    2    0    0  0.00000000000E+00  0.00000000000E+00  0.60112945713E+02  0.13870315873E+03  0.12500000000E+03 0.  0.
<mgrwt>
<rscale>  0 0.12500000E+03</rscale>
<asrwt>0</asrwt>
<pdfrwt beam="1">  1       21 0.15293546E-01 0.12500000E+03</pdfrwt>
<pdfrwt beam="2">  1       21 0.60454010E-02 0.12500000E+03</pdfrwt>
<totfact> 0.72209063E+06</totfact>
</mgrwt>
</event>
<event>
 3    1  0.1615911E-001  0.1250000E+03  0.7546771E-02  0.1235069E+00
         21   -1    0    0  502  501  0.00000000000E+00  0.00000000000E+00  0.47251024910E+03  0.47251024910E+03  0.00000000000E+00 0. -1.
         21   -1    0    0  501  502 -0.00000000000E+00 -0.00000000000E+00 -0.82670164455E+01  0.82670164455E+01  0.00000000000E+00 0. -1.
         25    1    1    2    0    0  0.00000000000E+00  0.00000000000E+00  0.46424323266E+03  0.48077726555E+03  0.12500000000E+03 0.  0.
<mgrwt>
<rscale>  0 0.12500000E+03</rscale>
<asrwt>0</asrwt>
<pdfrwt beam="1">  1       21 0.72693863E-01 0.12500000E+03</pdfrwt>
<pdfrwt beam="2">  1       21 0.12718491E-02 0.12500000E+03</pdfrwt>
<totfact> 0.43106130E+06</totfact>
</mgrwt>
</event>
<event>
 3    1  0.1615911E-001  0.1250000E+03  0.7546771E-02  0.1235069E+00
         21   -1    0    0  502  501  0.00000000000E+00  0.00000000000E+00  0.63251389141E+02  0.63251389141E+02  0.00000000000E+00 0.  1.
         21   -1    0    0  501  502 -0.00000000000E+00 -0.00000000000E+00 -0.61757536918E+02  0.61757536918E+02  0.00000000000E+00 0.  1.
         25    1    1    2    0    0  0.00000000000E+00  0.00000000000E+00  0.14938522236E+01  0.12500892606E+03  0.12500000000E+03 0.  0.
<mgrwt>
<rscale>  0 0.12500000E+03</rscale>
<asrwt>0</asrwt>
<pdfrwt beam="1">  1       21 0.97309829E-02 0.12500000E+03</pdfrwt>
<pdfrwt beam="2">  1       21 0.95011596E-02 0.12500000E+03</pdfrwt>
<totfact> 0.74042376E+06</totfact>
</mgrwt>
</event>
<event>
 3    1  0.1615911E-001  0.1250000E+03  0.7546771E-02  0.1235069E+00
         21   -1    0    0  502  501  0.00000000000E+00  0.00000000000E+00  0.47580599787E+03  0.47580599787E+03  0.00000000000E+00 0.  1.
         21   -1    0    0  501  502 -0.00000000000E+00 -0.00000000000E+00 -0.82097535917E+01  0.82097535917E+01  0.00000000000E+00 0.  1.
         25    1    1    2    0    0  0.00000000000E+00  0.00000000000E+00  0.46759624428E+03  0.48401575146E+03  0.12500000000E+03 0.  0.
<mgrwt>
<rscale>  0 0.12500000E+03</rscale>
<asrwt>0</asrwt>
<pdfrwt beam="1">  1       21 0.73200901E-01 0.12500000E+03</pdfrwt>
<pdfrwt beam="2">  1       21 0.12630394E-02 0.12500000E+03</pdfrwt>
<totfact> 0.42924420E+06</totfact>
</mgrwt>
</event>
<event>
 3    1  0.1615911E-001  0.1250000E+03  0.7546771E-02  0.1235069E+00
         21   -1    0    0  502  501  0.00000000000E+00  0.00000000000E+00  0.83276084219E+01  0.83276084219E+01  0.00000000000E+00 0.  1.
         21   -1    0    0  501  502 -0.00000000000E+00 -0.00000000000E+00 -0.46907224765E+03  0.46907224765E+03  0.00000000000E+00 0.  1.
         25    1    1    2    0    0  0.00000000000E+00  0.00000000000E+00 -0.46074463923E+03  0.47739985607E+03  0.12500000000E+03 0.  0.
<mgrwt>
<rscale>  0 0.12500000E+03</rscale>
<asrwt>0</asrwt>
<pdfrwt beam="1">  1       21 0.12811703E-02 0.12500000E+03</pdfrwt>
<pdfrwt beam="2">  1       21 0.72164975E-01 0.12500000E+03</pdfrwt>
<totfact> 0.43296852E+06</totfact>
</mgrwt>
</event>
<event>
 3    1  0.1615911E-001  0.1250000E+03  0.7546771E-02  0.1235069E+00
         21   -1    0    0  502  501  0.00000000000E+00  0.00000000000E+00  0.11530618977E+04  0.11530618977E+04  0.00000000000E+00 0. -1.
         21   -1    0    0  501  502 -0.00000000000E+00 -0.00000000000E+00 -0.33877192611E+01  0.33877192611E+01  0.00000000000E+00 0. -1.
         25    1    1    2    0    0  0.00000000000E+00  0.00000000000E+00  0.11496741784E+04  0.11564496170E+04  0.12500000000E+03 0.  0.
<mgrwt>
<rscale>  0 0.12500000E+03</rscale>
<asrwt>0</asrwt>
<pdfrwt beam="1">  1       21 0.17739382E+00 0.12500000E+03</pdfrwt>
<pdfrwt beam="2">  1       21 0.52118850E-03 0.12500000E+03</pdfrwt>
<totfact> 0.20033506E+06</totfact>
</mgrwt>
</event>
<event>
 3    1  0.1615911E-001  0.1250000E+03  0.7546771E-02  0.1235069E+00
         21   -1    0    0  502  501  0.00000000000E+00  0.00000000000E+00  0.22361475219E+01  0.22361475219E+01  0.00000000000E+00 0. -1.
         21   -1    0    0  501  502 -0.00000000000E+00 -0.00000000000E+00 -0.17468659656E+04  0.17468659656E+04  0.00000000000E+00 0. -1.
         25    1    1    2    0    0  0.00000000000E+00  0.00000000000E+00 -0.17446298180E+04  0.17491021131E+04  0.12500000000E+03 0.  0.
<mgrwt>
<rscale>  0 0.12500000E+03</rscale>
<asrwt>0</asrwt>
<pdfrwt beam="1">  1       21 0.34402289E-03 0.12500000E+03</pdfrwt>
<pdfrwt beam="2">  1       21 0.26874846E+00 0.12500000E+03</pdfrwt>
<totfact> 0.10668332E+06</totfact>
</mgrwt>
</event>
<event>
 3    1  0.1615911E-001  0.1250000E+03  0.7546771E-02  0.1235069E+00
         21   -1    0    0  502  501  0.00000000000E+00  0.00000000000E+00  0.49325968085E+02  0.49325968085E+02  0.00000000000E+00 0.  1.
         21   -1    0    0  501  502 -0.00000000000E+00 -0.00000000000E+00 -0.79192566342E+02  0.79192566342E+02  0.00000000000E+00 0.  1.
         25    1    1    2    0    0  0.00000000000E+00  0.00000000000E+00 -0.29866598257E+02  0.12851853443E+03  0.12500000000E+03 0.  0.
<mgrwt>
<rscale>  0 0.12500000E+03</rscale>
<asrwt>0</asrwt>
<pdfrwt beam="1">  1       21 0.75886105E-02 0.12500000E+03</pdfrwt>
<pdfrwt beam="2">  1       21 0.12183472E-01 0.12500000E+03</pdfrwt>
<totfact> 0.73563626E+06</totfact>
</mgrwt>
</event>
<event>
 3    1  0.1615911E-001  0.1250000E+03  0.7546771E-02  0.1235069E+00
         21   -1    0    0  502  501  0.00000000000E+00  0.00000000000E+00  0.18147505876E+03  0.18147505876E+03  0.00000000000E+00 0. -1.
         21   -1    0    0  501  502 -0.00000000000E+00 -0.00000000000E+00 -0.21524996474E+02  0.21524996474E+02  0.00000000000E+00 0. -1.
         25    1    1    2    0    0  0.00000000000E+00  0.00000000000E+00  0.15995006229E+03  0.20300005524E+03  0.12500000000E+03 0.  0.
<mgrwt>
<rscale>  0 0.12500000E+03</rscale>
<asrwt>0</asrwt>
<pdfrwt beam="1">  1       21 0.27919239E-01 0.12500000E+03</pdfrwt>
<pdfrwt beam="2">  1       21 0.33115380E-02 0.12500000E+03</pdfrwt>
<totfact> 0.64603619E+06</totfact>
</mgrwt>
</event>
<event>
 3    1  0.1615911E-001  0.1250000E+03  0.7546771E-02  0.1235069E+00
         21   -1    0    0  502  501  0.00000000000E+00  0.00000000000E+00  0.15667442625E+02  0.15667442625E+02  0.00000000000E+00 0. -1.
         21   -1    0    0  501  502 -0.00000000000E+00 -0.00000000000E+00 -0.24932275762E+03  0.24932275762E+03  0.00000000000E+00 0. -1.
         25    1    1    2    0    0  0.00000000000E+00  0.00000000000E+00 -0.23365531499E+03  0.26499020024E+03  0.12500000000E+03 0.  0.
<mgrwt>
<rscale>  0 0.12500000E+03</rscale>
<asrwt>0</asrwt>
<pdfrwt beam="1">  1       21 0.24103757E-02 0.12500000E+03</pdfrwt>
<pdfrwt beam="2">  1       21 0.38357348E-01 0.12500000E+03</pdfrwt>
<totfact> 0.58494890E+06</totfact>
</mgrwt>
</event>
<event>
 3    1  0.1615911E-001  0.1250000E+03  0.7546771E-02  0.1235069E+00
         21   -1    0    0  502  501  0.00000000000E+00  0.00000000000E+00  0.15606270953E+03  0.15606270953E+03  0.00000000000E+00 0. -1.
         21   -1    0    0  501  502 -0.00000000000E+00 -0.00000000000E+00 -0.25030002438E+02  0.25030002438E+02  0.00000000000E+00 0. -1.
         25    1    1    2    0    0  0.00000000000E+00  0.00000000000E+00  0.13103270709E+03  0.18109271197E+03  0.12500000000E+03 0.  0.
<mgrwt>
<rscale>  0 0.12500000E+03</rscale>
<asrwt>0</asrwt>
<pdfrwt beam="1">  1       21 0.24009647E-01 0.12500000E+03</pdfrwt>
<pdfrwt beam="2">  1       21 0.38507697E-02 0.12500000E+03</pdfrwt>
<totfact> 0.67026405E+06</totfact>
</mgrwt>
</event>
<event>
 3    1  0.1615911E-001  0.1250000E+03  0.7546771E-02  0.1235069E+00
         21   -1    0    0  502  501  0.00000000000E+00  0.00000000000E+00  0.83444979764E+03  0.83444979764E+03  0.00000000000E+00 0.  1.
         21   -1    0    0  501  502 -0.00000000000E+00 -0.00000000000E+00 -0.46812282909E+01  0.46812282909E+01  0.00000000000E+00 0.  1.
         25    1    1    2    0    0  0.00000000000E+00  0.00000000000E+00  0.82976856934E+03  0.83913102593E+03  0.12500000000E+03 0.  0.
<mgrwt>
<rscale>  0 0.12500000E+03</rscale>
<asrwt>0</asrwt>
<pdfrwt beam="1">  1       21 0.12837677E+00 0.12500000E+03</pdfrwt>
<pdfrwt beam="2">  1       21 0.72018963E-03 0.12500000E+03</pdfrwt>
<totfact> 0.28106707E+06</totfact>
</mgrwt>
</event>
<event>
 3    1  0.1615911E-001  0.1250000E+03  0.7546771E-02  0.1235069E+00
         21   -1    0    0  502  501  0.00000000000E+00  0.00000000000E+00  0.98040095282E+01  0.98040095282E+01  0.00000000000E+00 0. -1.
         21   -1    0    0  501  502 -0.00000000000E+00 -0.00000000000E+00 -0.39843392530E+03  0.39843392530E+03  0.00000000000E+00 0. -1.
         25    1    1    2    0    0  0.00000000000E+00  0.00000000000E+00 -0.38862991577E+03  0.40823793483E+03  0.12500000000E+03 0.  0.
<mgrwt>
<rscale>  0 0.12500000E+03</rscale>
<asrwt>0</asrwt>
<pdfrwt beam="1">  1       21 0.15083091E-02 0.12500000E+03</pdfrwt>
<pdfrwt beam="2">  1       21 0.61297528E-01 0.12500000E+03</pdfrwt>
<totfact> 0.47499695E+06</totfact>
</mgrwt>
</event>
<event>
 3    1  0.1615911E-001  0.1250000E+03  0.7546771E-02  0.1235069E+00
         21   -1    0    0  502  501  0.00000000000E+00  0.00000000000E+00  0.27043838562E+02  0.27043838562E+02  0.00000000000E+00 0.  1.
         21   -1    0    0  501  502 -0.00000000000E+00 -0.00000000000E+00 -0.14444140357E+03  0.14444140357E+03  0.00000000000E+00 0.  1.
         25    1    1    2    0    0  0.00000000000E+00  0.00000000000E+00 -0.11739756501E+03  0.17148524214E+03  0.12500000000E+03 0.  0.
<mgrwt>
<rscale>  0 0.12500000E+03</rscale>
<asrwt>0</asrwt>
<pdfrwt beam="1">  1       21 0.41605905E-02 0.12500000E+03</pdfrwt>
<pdfrwt beam="2">  1       21 0.22221754E-01 0.12500000E+03</pdfrwt>
<totfact> 0.68142003E+06</totfact>
</mgrwt>
</event>
<event>
 3    1  0.1615911E-001  0.1250000E+03  0.7546771E-02  0.1235069E+00
         21   -1    0    0  502  501  0.00000000000E+00  0.00000000000E+00  0.76911813021E+02  0.76911813021E+02  0.00000000000E+00 0. -1.
         21   -1    0    0  501  502 -0.00000000000E+00 -0.00000000000E+00 -0.50788687024E+02  0.50788687024E+02  0.00000000000E+00 0. -1.
         25    1    1    2    0    0  0.00000000000E+00  0.00000000000E+00  0.26123125997E+02  0.12770050005E+03  0.12500000000E+03 0.  0.
<mgrwt>
<rscale>  0 0.12500000E+03</rscale>
<asrwt>0</asrwt>
<pdfrwt beam="1">  1       21 0.11832587E-01 0.12500000E+03</pdfrwt>
<pdfrwt beam="2">  1       21 0.78136441E-02 0.12500000E+03</pdfrwt>
<totfact> 0.73674058E+06</totfact>
</mgrwt>
</event>
<event>
 3    1  0.1615911E-001  0.1250000E+03  0.7546771E-02  0.1235069E+00
         21   -1    0    0  502  501  0.00000000000E+00  0.00000000000E+00  0.71569740340E+03  0.71569740340E+03  0.00000000000E+00 0. -1.
         21   -1    0    0  501  502 -0.00000000000E+00 -0.00000000000E+00 -0.54579630741E+01  0.54579630741E+01  0.00000000000E+00 0. -1.
         25    1    1    2    0    0  0.00000000000E+00  0.00000000000E+00  0.71023944033E+03  0.72115536647E+03  0.12500000000E+03 0.  0.
<mgrwt>
<rscale>  0 0.12500000E+03</rscale>
<asrwt>0</asrwt>
<pdfrwt beam="1">  1       21 0.11010722E+00 0.12500000E+03</pdfrwt>
<pdfrwt beam="2">  1       21 0.83968720E-03 0.12500000E+03</pdfrwt>
<totfact> 0.32110338E+06</totfact>
</mgrwt>
</event>
<event>
 3    1  0.1615911E-001  0.1250000E+03  0.7546771E-02  0.1235069E+00
         21   -1    0    0  502  501  0.00000000000E+00  0.00000000000E+00  0.14928385208E+03  0.14928385208E+03  0.00000000000E+00 0. -1.
         21   -1    0    0  501  502 -0.00000000000E+00 -0.00000000000E+00 -0.26166594348E+02  0.26166594348E+02  0.00000000000E+00 0. -1.
         25    1    1    2    0    0  0.00000000000E+00  0.00000000000E+00  0.12311725773E+03  0.17545044642E+03  0.12500000000E+03 0.  0.
<mgrwt>
<rscale>  0 0.12500000E+03</rscale>
<asrwt>0</asrwt>
<pdfrwt beam="1">  1       21 0.22966746E-01 0.12500000E+03</pdfrwt>
<pdfrwt beam="2">  1       21 0.40256300E-02 0.12500000E+03</pdfrwt>
<totfact> 0.67677319E+06</totfact>
</mgrwt>
</event>
<event>
 3    1  0.1615911E-001  0.1250000E+03  0.7546771E-02  0.1235069E+00
         21   -1    0    0  502  501  0.00000000000E+00  0.00000000000E+00  0.78380507589E+02  0.78380507589E+02  0.00000000000E+00 0.  1.
         21   -1    0    0  501  502 -0.00000000000E+00 -0.00000000000E+00 -0.49837008207E+02  0.49837008207E+02  0.00000000000E+00 0.  1.
         25    1    1    2    0    0  0.00000000000E+00  0.00000000000E+00  0.28543499382E+02  0.12821751580E+03  0.12500000000E+03 0.  0.
<mgrwt>
<rscale>  0 0.12500000E+03</rscale>
<asrwt>0</asrwt>
<pdfrwt beam="1">  1       21 0.12058540E-01 0.12500000E+03</pdfrwt>
<pdfrwt beam="2">  1       21 0.76672320E-02 0.12500000E+03</pdfrwt>
<totfact> 0.73604196E+06</totfact>
</mgrwt>
</event>
<event>
 3    1  0.1615911E-001  0.1250000E+03  0.7546771E-02  0.1235069E+00
         21   -1    0    0  502  501  0.00000000000E+00  0.00000000000E+00  0.34697694985E+02  0.34697694985E+02  0.00000000000E+00 0.  1.
         21   -1    0    0  501  502 -0.00000000000E+00 -0.00000000000E+00 -0.11257952442E+03  0.11257952442E+03  0.00000000000E+00 0.  1.
         25    1    1    2    0    0  0.00000000000E+00  0.00000000000E+00 -0.77881829440E+02  0.14727721941E+03  0.12500000000E+03 0.  0.
<mgrwt>
<rscale>  0 0.12500000E+03</rscale>
<asrwt>0</asrwt>
<pdfrwt beam="1">  1       21 0.53381070E-02 0.12500000E+03</pdfrwt>
<pdfrwt beam="2">  1       21 0.17319927E-01 0.12500000E+03</pdfrwt>
<totfact> 0.71102931E+06</totfact>
</mgrwt>
</event>
<event>
 3    1  0.1615911E-001  0.1250000E+03  0.7546771E-02  0.1235069E+00
         21   -1    0    0  502  501  0.00000000000E+00  0.00000000000E+00  0.32856659067E+03  0.32856659067E+03  0.00000000000E+00 0.  1.
         21   -1    0    0  501  502 -0.00000000000E+00 -0.00000000000E+00 -0.11888762007E+02  0.11888762007E+02  0.00000000000E+00 0.  1.
         25    1    1    2    0    0  0.00000000000E+00  0.00000000000E+00  0.31667782866E+03  0.34045535268E+03  0.12500000000E+03 0.  0.
<mgrwt>
<rscale>  0 0.12500000E+03</rscale>
<asrwt>0</asrwt>
<pdfrwt beam="1">  1       21 0.50548699E-01 0.12500000E+03</pdfrwt>
<pdfrwt beam="2">  1       21 0.18290406E-02 0.12500000E+03</pdfrwt>
<totfact> 0.52251152E+06</totfact>
</mgrwt>
</event>
<event>
 3    1  0.1615911E-001  0.1250000E+03  0.7546771E-02  0.1235069E+00
         21   -1    0    0  502  501  0.00000000000E+00  0.00000000000E+00  0.12390473774E+02  0.12390473774E+02  0.00000000000E+00 0. -1.
         21   -1    0    0  501  502 -0.00000000000E+00 -0.00000000000E+00 -0.31526235971E+03  0.31526235971E+03  0.00000000000E+00 0. -1.
         25    1    1    2    0    0  0.00000000000E+00  0.00000000000E+00 -0.30287188594E+03  0.32765283349E+03  0.12500000000E+03 0.  0.
<mgrwt>
<rscale>  0 0.12500000E+03</rscale>
<asrwt>0</asrwt>
<pdfrwt beam="1">  1       21 0.19062268E-02 0.12500000E+03</pdfrwt>
<pdfrwt beam="2">  1       21 0.48501901E-01 0.12500000E+03</pdfrwt>
<totfact> 0.53232413E+06</totfact>
</mgrwt>
</event>
<event>
 3    1  0.1615911E-001  0.1250000E+03  0.7546771E-02  0.1235069E+00
         21   -1    0    0  502  501  0.00000000000E+00  0.00000000000E+00  0.24883565468E+03  0.24883565468E+03  0.00000000000E+00 0.  1.
         21   -1    0    0  501  502 -0.00000000000E+00 -0.00000000000E+00 -0.15698112093E+02  0.15698112093E+02  0.00000000000E+00 0.  1.
         25    1    1    2    0    0  0.00000000000E+00  0.00000000000E+00  0.23313754259E+03  0.26453376678E+03  0.12500000000E+03 0.  0.
<mgrwt>
<rscale>  0 0.12500000E+03</rscale>
<asrwt>0</asrwt>
<pdfrwt beam="1">  1       21 0.38282406E-01 0.12500000E+03</pdfrwt>
<pdfrwt beam="2">  1       21 0.24150943E-02 0.12500000E+03</pdfrwt>
<totfact> 0.58536205E+06</totfact>
</mgrwt>
</event>
<event>
 3    1  0.1615911E-001  0.1250000E+03  0.7546771E-02  0.1235069E+00
         21   -1    0    0  502  501  0.00000000000E+00  0.00000000000E+00  0.62765944394E+03  0.62765944394E+03  0.00000000000E+00 0.  1.
         21   -1    0    0  501  502 -0.00000000000E+00 -0.00000000000E+00 -0.62235182434E+01  0.62235182434E+01  0.00000000000E+00 0.  1.
         25    1    1    2    0    0  0.00000000000E+00  0.00000000000E+00  0.62143592570E+03  0.63388296218E+03  0.12500000000E+03 0.  0.
<mgrwt>
<rscale>  0 0.12500000E+03</rscale>
<asrwt>0</asrwt>
<pdfrwt beam="1">  1       21 0.96562942E-01 0.12500000E+03</pdfrwt>
<pdfrwt beam="2">  1       21 0.95746484E-03 0.12500000E+03</pdfrwt>
<totfact> 0.35603817E+06</totfact>
</mgrwt>
</event>
<event>
 3    1  0.1615911E-001  0.1250000E+03  0.7546771E-02  0.1235069E+00
         21   -1    0    0  502  501  0.00000000000E+00  0.00000000000E+00  0.87086483610E+02  0.87086483610E+02  0.00000000000E+00 0. -1.
         21   -1    0    0  501  502 -0.00000000000E+00 -0.00000000000E+00 -0.44854836688E+02  0.44854836688E+02  0.00000000000E+00 0. -1.
         25    1    1    2    0    0  0.00000000000E+00  0.00000000000E+00  0.42231646922E+02  0.13194132030E+03  0.12500000000E+03 0.  0.
<mgrwt>
<rscale>  0 0.12500000E+03</rscale>
<asrwt>0</asrwt>
<pdfrwt beam="1">  1       21 0.13397921E-01 0.12500000E+03</pdfrwt>
<pdfrwt beam="2">  1       21 0.69007441E-02 0.12500000E+03</pdfrwt>
<totfact> 0.73104101E+06</totfact>
</mgrwt>
</event>
<event>
 3    1  0.1615911E-001  0.1250000E+03  0.7546771E-02  0.1235069E+00
         21   -1    0    0  502  501  0.00000000000E+00  0.00000000000E+00  0.66273199716E+01  0.66273199716E+01  0.00000000000E+00 0. -1.
         21   -1    0    0  501  502 -0.00000000000E+00 -0.00000000000E+00 -0.58941623714E+03  0.58941623714E+03  0.00000000000E+00 0. -1.
         25    1    1    2    0    0  0.00000000000E+00  0.00000000000E+00 -0.58278891717E+03  0.59604355711E+03  0.12500000000E+03 0.  0.
<mgrwt>
<rscale>  0 0.12500000E+03</rscale>
<asrwt>0</asrwt>
<pdfrwt beam="1">  1       21 0.10195878E-02 0.12500000E+03</pdfrwt>
<pdfrwt beam="2">  1       21 0.90679408E-01 0.12500000E+03</pdfrwt>
<totfact> 0.37272173E+06</totfact>
</mgrwt>
</event>
<event>
 3    1  0.1615911E-001  0.1250000E+03  0.7546771E-02  0.1235069E+00
         21   -1    0    0  502  501  0.00000000000E+00  0.00000000000E+00  0.94928731359E+02  0.94928731359E+02  0.00000000000E+00 0.  1.
         21   -1    0    0  501  502 -0.00000000000E+00 -0.00000000000E+00 -0.41149291095E+02  0.41149291095E+02  0.00000000000E+00 0.  1.
         25    1    1    2    0    0  0.00000000000E+00  0.00000000000E+00  0.53779440263E+02  0.13607802245E+03  0.12500000000E+03 0.  0.
<mgrwt>
<rscale>  0 0.12500000E+03</rscale>
<asrwt>0</asrwt>
<pdfrwt beam="1">  1       21 0.14604420E-01 0.12500000E+03</pdfrwt>
<pdfrwt beam="2">  1       21 0.63306602E-02 0.12500000E+03</pdfrwt>
<totfact> 0.72554048E+06</totfact>
</mgrwt>
</event>
<event>
 3    1  0.1615911E-001  0.1250000E+03  0.7546771E-02  0.1235069E+00
         21   -1    0    0  502  501  0.00000000000E+00  0.00000000000E+00  0.12750981174E+02  0.12750981174E+02  0.00000000000E+00 0. -1.
         21   -1    0    0  501  502 -0.00000000000E+00 -0.00000000000E+00 -0.30634897400E+03  0.30634897400E+03  0.00000000000E+00 0. -1.
         25    1    1    2    0    0  0.00000000000E+00  0.00000000000E+00 -0.29359799282E+03  0.31909995517E+03  0.12500000000E+03 0.  0.
<mgrwt>
<rscale>  0 0.12500000E+03</rscale>
<asrwt>0</asrwt>
<pdfrwt beam="1">  1       21 0.19616895E-02 0.12500000E+03</pdfrwt>
<pdfrwt beam="2">  1       21 0.47130609E-01 0.12500000E+03</pdfrwt>
<totfact> 0.53904745E+06</totfact>
</mgrwt>
</event>
<event>
 3    1  0.1615911E-001  0.1250000E+03  0.7546771E-02  0.1235069E+00
         21   -1    0    0  502  501  0.00000000000E+00  0.00000000000E+00  0.37238938871E+03  0.37238938871E+03  0.00000000000E+00 0.  1.
         21   -1    0    0  501  502 -0.00000000000E+00 -0.00000000000E+00 -0.10489692022E+02  0.10489692022E+02  0.00000000000E+00 0.  1.
         25    1    1    2    0    0  0.00000000000E+00  0.00000000000E+00  0.36189969669E+03  0.38287908073E+03  0.12500000000E+03 0.  0.
<mgrwt>
<rscale>  0 0.12500000E+03</rscale>
<asrwt>0</asrwt>
<pdfrwt beam="1">  1       21 0.57290665E-01 0.12500000E+03</pdfrwt>
<pdfrwt beam="2">  1       21 0.16137991E-02 0.12500000E+03</pdfrwt>
<totfact> 0.49198091E+06</totfact>
</mgrwt>
</event>
<event>
 3    1  0.1615911E-001  0.1250000E+03  0.7546771E-02  0.1235069E+00
         21   -1    0    0  502  501  0.00000000000E+00  0.00000000000E+00  0.56937436562E+02  0.56937436562E+02  0.00000000000E+00 0. -1.
         21   -1    0    0  501  502 -0.00000000000E+00 -0.00000000000E+00 -0.68606003991E+02  0.68606003991E+02  0.00000000000E+00 0. -1.
         25    1    1    2    0    0  0.00000000000E+00  0.00000000000E+00 -0.11668567428E+02  0.12554344055E+03  0.12500000000E+03 0.  0.
<mgrwt>
<rscale>  0 0.12500000E+03</rscale>
<asrwt>0</asrwt>
<pdfrwt beam="1">  1       21 0.87596056E-02 0.12500000E+03</pdfrwt>
<pdfrwt beam="2">  1       21 0.10554770E-01 0.12500000E+03</pdfrwt>
<totfact> 0.73969328E+06</totfact>
</mgrwt>
</event>
<event>
 3    1  0.1615911E-001  0.1250000E+03  0.7546771E-02  0.1235069E+00
         21   -1    0    0  502  501  0.00000000000E+00  0.00000000000E+00  0.87492431736E+01  0.87492431736E+01  0.00000000000E+00 0.  1.
         21   -1    0    0  501  502 -0.00000000000E+00 -0.00000000000E+00 -0.44646718836E+03  0.44646718836E+03  0.00000000000E+00 0.  1.
         25    1    1    2    0    0  0.00000000000E+00  0.00000000000E+00 -0.43771794519E+03  0.45521643153E+03  0.12500000000E+03 0.  0.
<mgrwt>
<rscale>  0 0.12500000E+03</rscale>
<asrwt>0</asrwt>
<pdfrwt beam="1">  1       21 0.13460373E-02 0.12500000E+03</pdfrwt>
<pdfrwt beam="2">  1       21 0.68687264E-01 0.12500000E+03</pdfrwt>
<totfact> 0.44581764E+06</totfact>
</mgrwt>
</event>
<event>
 3    1  0.1615911E-001  0.1250000E+03  0.7546771E-02  0.1235069E+00
         21   -1    0    0  502  501  0.00000000000E+00  0.00000000000E+00  0.10503575374E+02  0.10503575374E+02  0.00000000000E+00 0. -1.
         21   -1    0    0  501  502 -0.00000000000E+00 -0.00000000000E+00 -0.37189717416E+03  0.37189717416E+03  0.00000000000E+00 0. -1.
         25    1    1    2    0    0  0.00000000000E+00  0.00000000000E+00 -0.36139359878E+03  0.38240074953E+03  0.12500000000E+03 0.  0.
<mgrwt>
<rscale>  0 0.12500000E+03</rscale>
<asrwt>0</asrwt>
<pdfrwt beam="1">  1       21 0.16159349E-02 0.12500000E+03</pdfrwt>
<pdfrwt beam="2">  1       21 0.57214941E-01 0.12500000E+03</pdfrwt>
<totfact> 0.49231015E+06</totfact>
</mgrwt>
</event>
<event>
 3    1  0.1615911E-001  0.1250000E+03  0.7546771E-02  0.1235069E+00
         21   -1    0    0  502  501  0.00000000000E+00  0.00000000000E+00  0.50855238654E+03  0.50855238654E+03  0.00000000000E+00 0. -1.
         21   -1    0    0  501  502 -0.00000000000E+00 -0.00000000000E+00 -0.76811162496E+01  0.76811162496E+01  0.00000000000E+00 0. -1.
         25    1    1    2    0    0  0.00000000000E+00  0.00000000000E+00  0.50087127029E+03  0.51623350279E+03  0.12500000000E+03 0.  0.
<mgrwt>
<rscale>  0 0.12500000E+03</rscale>
<asrwt>0</asrwt>
<pdfrwt beam="1">  1       21 0.78238802E-01 0.12500000E+03</pdfrwt>
<pdfrwt beam="2">  1       21 0.11817106E-02 0.12500000E+03</pdfrwt>
<totfact> 0.41177166E+06</totfact>
</mgrwt>
</event>
<event>
 3    1  0.1615911E-001  0.1250000E+03  0.7546771E-02  0.1235069E+00
         21   -1    0    0  502  501  0.00000000000E+00  0.00000000000E+00  0.15221982085E+04  0.15221982085E+04  0.00000000000E+00 0. -1.
         21   -1    0    0  501  502 -0.00000000000E+00 -0.00000000000E+00 -0.25661901179E+01  0.25661901179E+01  0.00000000000E+00 0. -1.
         25    1    1    2    0    0  0.00000000000E+00  0.00000000000E+00  0.15196320183E+04  0.15247643986E+04  0.12500000000E+03 0.  0.
<mgrwt>
<rscale>  0 0.12500000E+03</rscale>
<asrwt>0</asrwt>
<pdfrwt beam="1">  1       21 0.23418362E+00 0.12500000E+03</pdfrwt>
<pdfrwt beam="2">  1       21 0.39479970E-03 0.12500000E+03</pdfrwt>
<totfact> 0.13629628E+06</totfact>
</mgrwt>
</event>
<event>
 3    1  0.1615911E-001  0.1250000E+03  0.7546771E-02  0.1235069E+00
         21   -1    0    0  502  501  0.00000000000E+00  0.00000000000E+00  0.95310648731E+03  0.95310648731E+03  0.00000000000E+00 0.  1.
         21   -1    0    0  501  502 -0.00000000000E+00 -0.00000000000E+00 -0.40984402604E+01  0.40984402604E+01  0.00000000000E+00 0.  1.
         25    1    1    2    0    0  0.00000000000E+00  0.00000000000E+00  0.94900804705E+03  0.95720492757E+03  0.12500000000E+03 0.  0.
<mgrwt>
<rscale>  0 0.12500000E+03</rscale>
<asrwt>0</asrwt>
<pdfrwt beam="1">  1       21 0.14663159E+00 0.12500000E+03</pdfrwt>
<pdfrwt beam="2">  1       21 0.63053003E-03 0.12500000E+03</pdfrwt>
<totfact> 0.24719518E+06</totfact>
</mgrwt>
</event>
<event>
 3    1  0.1615911E-001  0.1250000E+03  0.7546771E-02  0.1235069E+00
         21   -1    0    0  502  501  0.00000000000E+00  0.00000000000E+00  0.11047388422E+03  0.11047388422E+03  0.00000000000E+00 0. -1.
         21   -1    0    0  501  502 -0.00000000000E+00 -0.00000000000E+00 -0.35359035555E+02  0.35359035555E+02  0.00000000000E+00 0. -1.
         25    1    1    2    0    0  0.00000000000E+00  0.00000000000E+00  0.75114848666E+02  0.14583291978E+03  0.12500000000E+03 0.  0.
<mgrwt>
<rscale>  0 0.12500000E+03</rscale>
<asrwt>0</asrwt>
<pdfrwt beam="1">  1       21 0.16995982E-01 0.12500000E+03</pdfrwt>
<pdfrwt beam="2">  1       21 0.54398517E-02 0.12500000E+03</pdfrwt>
<totfact> 0.71286676E+06</totfact>
</mgrwt>
</event>
<event>
 3    1  0.1615911E-001  0.1250000E+03  0.7546771E-02  0.1235069E+00
         21   -1    0    0  502  501  0.00000000000E+00  0.00000000000E+00  0.85580677905E+01  0.85580677905E+01  0.00000000000E+00 0. -1.
         21   -1    0    0  501  502 -0.00000000000E+00 -0.00000000000E+00 -0.45644064708E+03  0.45644064708E+03  0.00000000000E+00 0. -1.
         25    1    1    2    0    0  0.00000000000E+00  0.00000000000E+00 -0.44788257928E+03  0.46499871487E+03  0.12500000000E+03 0.  0.
<mgrwt>
<rscale>  0 0.12500000E+03</rscale>
<asrwt>0</asrwt>
<pdfrwt beam="1">  1       21 0.13166257E-02 0.12500000E+03</pdfrwt>
<pdfrwt beam="2">  1       21 0.70221644E-01 0.12500000E+03</pdfrwt>
<totfact> 0.44008170E+06</totfact>
</mgrwt>
</event>
<event>
 3    1  0.1615911E-001  0.1250000E+03  0.7546771E-02  0.1235069E+00
         21   -1    0    0  502  501  0.00000000000E+00  0.00000000000E+00  0.37942444655E+03  0.37942444655E+03  0.00000000000E+00 0.  1.
         21   -1    0    0  501  502 -0.00000000000E+00 -0.00000000000E+00 -0.10295198519E+02  0.10295198519E+02  0.00000000000E+00 0.  1.
         25    1    1    2    0    0  0.00000000000E+00  0.00000000000E+00  0.36912924803E+03  0.38971964507E+03  0.12500000000E+03 0.  0.
<mgrwt>
<rscale>  0 0.12500000E+03</rscale>
<asrwt>0</asrwt>
<pdfrwt beam="1">  1       21 0.58372981E-01 0.12500000E+03</pdfrwt>
<pdfrwt beam="2">  1       21 0.15838770E-02 0.12500000E+03</pdfrwt>
<totfact> 0.48730799E+06</totfact>
</mgrwt>
</event>
<event>
 3    1  0.1615911E-001  0.1250000E+03  0.7546771E-02  0.1235069E+00
         21   -1    0    0  502  501  0.00000000000E+00  0.00000000000E+00  0.16315703788E+02  0.16315703788E+02  0.00000000000E+00 0. -1.
         21   -1    0    0  501  502 -0.00000000000E+00 -0.00000000000E+00 -0.23941657992E+03  0.23941657992E+03  0.00000000000E+00 0. -1.
         25    1    1    2    0    0  0.00000000000E+00  0.00000000000E+00 -0.22310087613E+03  0.25573228371E+03  0.12500000000E+03 0.  0.
<mgrwt>
<rscale>  0 0.12500000E+03</rscale>
<asrwt>0</asrwt>
<pdfrwt beam="1">  1       21 0.25101083E-02 0.12500000E+03</pdfrwt>
<pdfrwt beam="2">  1       21 0.36833319E-01 0.12500000E+03</pdfrwt>
<totfact> 0.59342662E+06</totfact>
</mgrwt>
</event>
<event>
 3    1  0.1615911E-001  0.1250000E+03  0.7546771E-02  0.1235069E+00
         21   -1    0    0  502  501  0.00000000000E+00  0.00000000000E+00  0.13848392414E+03  0.13848392414E+03  0.00000000000E+00 0. -1.
         21   -1    0    0  501  502 -0.00000000000E+00 -0.00000000000E+00 -0.28207245168E+02  0.28207245168E+02  0.00000000000E+00 0. -1.
         25    1    1    2    0    0  0.00000000000E+00  0.00000000000E+00  0.11027667897E+03  0.16669116931E+03  0.12500000000E+03 0.  0.
<mgrwt>
<rscale>  0 0.12500000E+03</rscale>
<asrwt>0</asrwt>
<pdfrwt beam="1">  1       21 0.21305219E-01 0.12500000E+03</pdfrwt>
<pdfrwt beam="2">  1       21 0.43395763E-02 0.12500000E+03</pdfrwt>
<totfact> 0.68711010E+06</totfact>
</mgrwt>
</event>
<event>
 3    1  0.1615911E-001  0.1250000E+03  0.7546771E-02  0.1235069E+00
         21   -1    0    0  502  501  0.00000000000E+00  0.00000000000E+00  0.35975910886E+03  0.35975910886E+03  0.00000000000E+00 0.  1.
         21   -1    0    0  501  502 -0.00000000000E+00 -0.00000000000E+00 -0.10857959962E+02  0.10857959962E+02  0.00000000000E+00 0.  1.
         25    1    1    2    0    0  0.00000000000E+00  0.00000000000E+00  0.34890114890E+03  0.37061706882E+03  0.12500000000E+03 0.  0.
<mgrwt>
<rscale>  0 0.12500000E+03</rscale>
<asrwt>0</asrwt>
<pdfrwt beam="1">  1       21 0.55347546E-01 0.12500000E+03</pdfrwt>
<pdfrwt beam="2">  1       21 0.16704557E-02 0.12500000E+03</pdfrwt>
<totfact> 0.50050926E+06</totfact>
</mgrwt>
</event>
<event>
 3    1  0.1615911E-001  0.1250000E+03  0.7546771E-02  0.1235069E+00
         21   -1    0    0  502  501  0.00000000000E+00  0.00000000000E+00  0.16483144389E+03  0.16483144389E+03  0.00000000000E+00 0. -1.
         21   -1    0    0  501  502 -0.00000000000E+00 -0.00000000000E+00 -0.23698451629E+02  0.23698451629E+02  0.00000000000E+00 0. -1.
         25    1    1    2    0    0  0.00000000000E+00  0.00000000000E+00  0.14113299226E+03  0.18852989552E+03  0.12500000000E+03 0.  0.
<mgrwt>
<rscale>  0 0.12500000E+03</rscale>
<asrwt>0</asrwt>
<pdfrwt beam="1">  1       21 0.25358683E-01 0.12500000E+03</pdfrwt>
<pdfrwt beam="2">  1       21 0.36459157E-02 0.12500000E+03</pdfrwt>
<totfact> 0.66186226E+06</totfact>
</mgrwt>
</event>
<event>
 3    1  0.1615911E-001  0.1250000E+03  0.7546771E-02  0.1235069E+00
         21   -1    0    0  502  501  0.00000000000E+00  0.00000000000E+00  0.26650674954E+02  0.26650674954E+02  0.00000000000E+00 0.  1.
         21   -1    0    0  501  502 -0.00000000000E+00 -0.00000000000E+00 -0.14657227281E+03  0.14657227281E+03  0.00000000000E+00 0.  1.
         25    1    1    2    0    0  0.00000000000E+00  0.00000000000E+00 -0.11992159786E+03  0.17322294777E+03  0.12500000000E+03 0.  0.
<mgrwt>
<rscale>  0 0.12500000E+03</rscale>
<asrwt>0</asrwt>
<pdfrwt beam="1">  1       21 0.41001038E-02 0.12500000E+03</pdfrwt>
<pdfrwt beam="2">  1       21 0.22549580E-01 0.12500000E+03</pdfrwt>
<totfact> 0.67937612E+06</totfact>
</mgrwt>
</event>
<event>
 3    1  0.1615911E-001  0.1250000E+03  0.7546771E-02  0.1235069E+00
         21   -1    0    0  502  501  0.00000000000E+00  0.00000000000E+00  0.74606362888E+02  0.74606362888E+02  0.00000000000E+00 0.  1.
         21   -1    0    0  501  502 -0.00000000000E+00 -0.00000000000E+00 -0.52358134733E+02  0.52358134733E+02  0.00000000000E+00 0.  1.
         25    1    1    2    0    0  0.00000000000E+00  0.00000000000E+00  0.22248228155E+02  0.12696449762E+03  0.12500000000E+03 0.  0.
<mgrwt>
<rscale>  0 0.12500000E+03</rscale>
<asrwt>0</asrwt>
<pdfrwt beam="1">  1       21 0.11477902E-01 0.12500000E+03</pdfrwt>
<pdfrwt beam="2">  1       21 0.80550976E-02 0.12500000E+03</pdfrwt>
<totfact> 0.73773970E+06</totfact>
</mgrwt>
</event>
<event>
 3    1  0.1615911E-001  0.1250000E+03  0.7546771E-02  0.1235069E+00
         21   -1    0    0  502  501  0.00000000000E+00  0.00000000000E+00  0.27942644219E+03  0.27942644219E+03  0.00000000000E+00 0.  1.
         21   -1    0    0  501  502 -0.00000000000E+00 -0.00000000000E+00 -0.13979528814E+02  0.13979528814E+02  0.00000000000E+00 0.  1.
         25    1    1    2    0    0  0.00000000000E+00  0.00000000000E+00  0.26544691338E+03  0.29340597101E+03  0.12500000000E+03 0.  0.
<mgrwt>
<rscale>  0 0.12500000E+03</rscale>
<asrwt>0</asrwt>
<pdfrwt beam="1">  1       21 0.42988679E-01 0.12500000E+03</pdfrwt>
<pdfrwt beam="2">  1       21 0.21506969E-02 0.12500000E+03</pdfrwt>
<totfact> 0.56008656E+06</totfact>
</mgrwt>
</event>
<event>
 3    1  0.1615911E-001  0.1250000E+03  0.7546771E-02  0.1235069E+00
         21   -1    0    0  502  501  0.00000000000E+00  0.00000000000E+00  0.11385653837E+03  0.11385653837E+03  0.00000000000E+00 0. -1.
         21   -1    0    0  501  502 -0.00000000000E+00 -0.00000000000E+00 -0.34308525939E+02  0.34308525939E+02  0.00000000000E+00 0. -1.
         25    1    1    2    0    0  0.00000000000E+00  0.00000000000E+00  0.79548012431E+02  0.14816506431E+03  0.12500000000E+03 0.  0.
<mgrwt>
<rscale>  0 0.12500000E+03</rscale>
<asrwt>0</asrwt>
<pdfrwt beam="1">  1       21 0.17516390E-01 0.12500000E+03</pdfrwt>
<pdfrwt beam="2">  1       21 0.52782348E-02 0.12500000E+03</pdfrwt>
<totfact> 0.70990470E+06</totfact>
</mgrwt>
</event>
<event>
 3    1  0.1615911E-001  0.1250000E+03  0.7546771E-02  0.1235069E+00
         21   -1    0    0  502  501  0.00000000000E+00  0.00000000000E+00  0.20010912594E+03  0.20010912594E+03  0.00000000000E+00 0. -1.
         21   -1    0    0  501  502 -0.00000000000E+00 -0.00000000000E+00 -0.19520598982E+02  0.19520598982E+02  0.00000000000E+00 0. -1.
         25    1    1    2    0    0  0.00000000000E+00  0.00000000000E+00  0.18058852696E+03  0.21962972492E+03  0.12500000000E+03 0.  0.
<mgrwt>
<rscale>  0 0.12500000E+03</rscale>
<asrwt>0</asrwt>
<pdfrwt beam="1">  1       21 0.30786018E-01 0.12500000E+03</pdfrwt>
<pdfrwt beam="2">  1       21 0.30031692E-02 0.12500000E+03</pdfrwt>
<totfact> 0.62860403E+06</totfact>
</mgrwt>
</event>
<event>
 3    1  0.1615911E-001  0.1250000E+03  0.7546771E-02  0.1235069E+00
         21   -1    0    0  502  501  0.00000000000E+00  0.00000000000E+00  0.12030795184E+04  0.12030795184E+04  0.00000000000E+00 0. -1.
         21   -1    0    0  501  502 -0.00000000000E+00 -0.00000000000E+00 -0.32468759881E+01  0.32468759881E+01  0.00000000000E+00 0. -1.
         25    1    1    2    0    0  0.00000000000E+00  0.00000000000E+00  0.11998326424E+04  0.12063263944E+04  0.12500000000E+03 0.  0.
<mgrwt>
<rscale>  0 0.12500000E+03</rscale>
<asrwt>0</asrwt>
<pdfrwt beam="1">  1       21 0.18508880E+00 0.12500000E+03</pdfrwt>
<pdfrwt beam="2">  1       21 0.49952034E-03 0.12500000E+03</pdfrwt>
<totfact> 0.19017791E+06</totfact>
</mgrwt>
</event>
<event>
 3    1  0.1615911E-001  0.1250000E+03  0.7546771E-02  0.1235069E+00
         21   -1    0    0  502  501  0.00000000000E+00  0.00000000000E+00  0.53459985392E+02  0.53459985392E+02  0.00000000000E+00 0. -1.
         21   -1    0    0  501  502 -0.00000000000E+00 -0.00000000000E+00 -0.73068669423E+02  0.73068669423E+02  0.00000000000E+00 0. -1.
         25    1    1    2    0    0  0.00000000000E+00  0.00000000000E+00 -0.19608684031E+02  0.12652865482E+03  0.12500000000E+03 0.  0.
<mgrwt>
<rscale>  0 0.12500000E+03</rscale>
<asrwt>0</asrwt>
<pdfrwt beam="1">  1       21 0.82246131E-02 0.12500000E+03</pdfrwt>
<pdfrwt beam="2">  1       21 0.11241334E-01 0.12500000E+03</pdfrwt>
<totfact> 0.73833452E+06</totfact>
</mgrwt>
</event>
<event>
 3    1  0.1615911E-001  0.1250000E+03  0.7546771E-02  0.1235069E+00
         21   -1    0    0  502  501  0.00000000000E+00  0.00000000000E+00  0.15930158411E+02  0.15930158411E+02  0.00000000000E+00 0.  1.
         21   -1    0    0  501  502 -0.00000000000E+00 -0.00000000000E+00 -0.24521099534E+03  0.24521099534E+03  0.00000000000E+00 0.  1.
         25    1    1    2    0    0  0.00000000000E+00  0.00000000000E+00 -0.22928083693E+03  0.26114115375E+03  0.12500000000E+03 0.  0.
<mgrwt>
<rscale>  0 0.12500000E+03</rscale>
<asrwt>0</asrwt>
<pdfrwt beam="1">  1       21 0.24507936E-02 0.12500000E+03</pdfrwt>
<pdfrwt beam="2">  1       21 0.37724769E-01 0.12500000E+03</pdfrwt>
<totfact> 0.58844835E+06</totfact>
</mgrwt>
</event>
<event>
 3    1  0.1615911E-001  0.1250000E+03  0.7546771E-02  0.1235069E+00
         21   -1    0    0  502  501  0.00000000000E+00  0.00000000000E+00  0.80953612840E+01  0.80953612840E+01  0.00000000000E+00 0.  1.
         21   -1    0    0  501  502 -0.00000000000E+00 -0.00000000000E+00 -0.48252942185E+03  0.48252942185E+03  0.00000000000E+00 0.  1.
         25    1    1    2    0    0  0.00000000000E+00  0.00000000000E+00 -0.47443406056E+03  0.49062478313E+03  0.12500000000E+03 0.  0.
<mgrwt>
<rscale>  0 0.12500000E+03</rscale>
<asrwt>0</asrwt>
<pdfrwt beam="1">  1       21 0.12454403E-02 0.12500000E+03</pdfrwt>
<pdfrwt beam="2">  1       21 0.74235288E-01 0.12500000E+03</pdfrwt>
<totfact> 0.42557119E+06</totfact>
</mgrwt>
</event>
<event>
 3    1  0.1615911E-001  0.1250000E+03  0.7546771E-02  0.1235069E+00
         21   -1    0    0  502  501  0.00000000000E+00  0.00000000000E+00  0.14568790334E+02  0.14568790334E+02  0.00000000000E+00 0. -1.
         21   -1    0    0  501  502 -0.00000000000E+00 -0.00000000000E+00 -0.26812452581E+03  0.26812452581E+03  0.00000000000E+00 0. -1.
         25    1    1    2    0    0  0.00000000000E+00  0.00000000000E+00 -0.25355573547E+03  0.28269331614E+03  0.12500000000E+03 0.  0.
<mgrwt>
<rscale>  0 0.12500000E+03</rscale>
<asrwt>0</asrwt>
<pdfrwt beam="1">  1       21 0.22413525E-02 0.12500000E+03</pdfrwt>
<pdfrwt beam="2">  1       21 0.41249924E-01 0.12500000E+03</pdfrwt>
<totfact> 0.56925811E+06</totfact>
</mgrwt>
</event>
<event>
 3    1  0.1615911E-001  0.1250000E+03  0.7546771E-02  0.1235069E+00
         21   -1    0    0  502  501  0.00000000000E+00  0.00000000000E+00  0.35042678348E+01  0.35042678348E+01  0.00000000000E+00 0. -1.
         21   -1    0    0  501  502 -0.00000000000E+00 -0.00000000000E+00 -0.11147121693E+04  0.11147121693E+04  0.00000000000E+00 0. -1.
         25    1    1    2    0    0  0.00000000000E+00  0.00000000000E+00 -0.11112079015E+04  0.11182164371E+04  0.12500000000E+03 0.  0.
<mgrwt>
<rscale>  0 0.12500000E+03</rscale>
<asrwt>0</asrwt>
<pdfrwt beam="1">  1       21 0.53911724E-03 0.12500000E+03</pdfrwt>
<pdfrwt beam="2">  1       21 0.17149446E+00 0.12500000E+03</pdfrwt>
<totfact> 0.20850731E+06</totfact>
</mgrwt>
</event>
<event>
 3    1  0.1615911E-001  0.1250000E+03  0.7546771E-02  0.1235069E+00
         21   -1    0    0  502  501  0.00000000000E+00  0.00000000000E+00  0.33149255512E+02  0.33149255512E+02  0.00000000000E+00 0.  1.
         21   -1    0    0  501  502 -0.00000000000E+00 -0.00000000000E+00 -0.11783824221E+03  0.11783824221E+03  0.00000000000E+00 0.  1.
         25    1    1    2    0    0  0.00000000000E+00  0.00000000000E+00 -0.84688986694E+02  0.15098749772E+03  0.12500000000E+03 0.  0.
<mgrwt>
<rscale>  0 0.12500000E+03</rscale>
<asrwt>0</asrwt>
<pdfrwt beam="1">  1       21 0.50998854E-02 0.12500000E+03</pdfrwt>
<pdfrwt beam="2">  1       21 0.18128961E-01 0.12500000E+03</pdfrwt>
<totfact> 0.70635373E+06</totfact>
</mgrwt>
</event>
<event>
 3    1  0.1615911E-001  0.1250000E+03  0.7546771E-02  0.1235069E+00
         21   -1    0    0  502  501  0.00000000000E+00  0.00000000000E+00  0.15160819210E+03  0.15160819210E+03  0.00000000000E+00 0. -1.
         21   -1    0    0  501  502 -0.00000000000E+00 -0.00000000000E+00 -0.25765428278E+02  0.25765428278E+02  0.00000000000E+00 0. -1.
         25    1    1    2    0    0  0.00000000000E+00  0.00000000000E+00  0.12584276382E+03  0.17737362038E+03  0.12500000000E+03 0.  0.
<mgrwt>
<rscale>  0 0.12500000E+03</rscale>
<asrwt>0</asrwt>
<pdfrwt beam="1">  1       21 0.23324337E-01 0.12500000E+03</pdfrwt>
<pdfrwt beam="2">  1       21 0.39639121E-02 0.12500000E+03</pdfrwt>
<totfact> 0.67454111E+06</totfact>
</mgrwt>
</event>
<event>
 3    1  0.1615911E-001  0.1250000E+03  0.7546771E-02  0.1235069E+00
         21   -1    0    0  502  501  0.00000000000E+00  0.00000000000E+00  0.83691208544E+03  0.83691208544E+03  0.00000000000E+00 0. -1.
         21   -1    0    0  501  502 -0.00000000000E+00 -0.00000000000E+00 -0.46674556001E+01  0.46674556001E+01  0.00000000000E+00 0. -1.
         25    1    1    2    0    0  0.00000000000E+00  0.00000000000E+00  0.83224462984E+03  0.84157954104E+03  0.12500000000E+03 0.  0.
<mgrwt>
<rscale>  0 0.12500000E+03</rscale>
<asrwt>0</asrwt>
<pdfrwt beam="1">  1       21 0.12875559E+00 0.12500000E+03</pdfrwt>
<pdfrwt beam="2">  1       21 0.71807076E-03 0.12500000E+03</pdfrwt>
<totfact> 0.28030734E+06</totfact>
</mgrwt>
</event>
<event>
 3    1  0.1615911E-001  0.1250000E+03  0.7546771E-02  0.1235069E+00
         21   -1    0    0  502  501  0.00000000000E+00  0.00000000000E+00  0.18300460559E+02  0.18300460559E+02  0.00000000000E+00 0.  1.
         21   -1    0    0  501  502 -0.00000000000E+00 -0.00000000000E+00 -0.21345091220E+03  0.21345091220E+03  0.00000000000E+00 0.  1.
         25    1    1    2    0    0  0.00000000000E+00  0.00000000000E+00 -0.19515045164E+03  0.23175137276E+03  0.12500000000E+03 0.  0.
<mgrwt>
<rscale>  0 0.12500000E+03</rscale>
<asrwt>0</asrwt>
<pdfrwt beam="1">  1       21 0.28154555E-02 0.12500000E+03</pdfrwt>
<pdfrwt beam="2">  1       21 0.32838601E-01 0.12500000E+03</pdfrwt>
<totfact> 0.61640118E+06</totfact>
</mgrwt>
</event>
<event>
 3    1  0.1615911E-001  0.1250000E+03  0.7546771E-02  0.1235069E+00
         21   -1    0    0  502  501  0.00000000000E+00  0.00000000000E+00  0.92479148511E+02  0.92479148511E+02  0.00000000000E+00 0. -1.
         21   -1    0    0  501  502 -0.00000000000E+00 -0.00000000000E+00 -0.42239251365E+02  0.42239251365E+02  0.00000000000E+00 0. -1.
         25    1    1    2    0    0  0.00000000000E+00  0.00000000000E+00  0.50239897145E+02  0.13471839988E+03  0.12500000000E+03 0.  0.
<mgrwt>
<rscale>  0 0.12500000E+03</rscale>
<asrwt>0</asrwt>
<pdfrwt beam="1">  1       21 0.14227561E-01 0.12500000E+03</pdfrwt>
<pdfrwt beam="2">  1       21 0.64983464E-02 0.12500000E+03</pdfrwt>
<totfact> 0.72733779E+06</totfact>
</mgrwt>
</event>
<event>
 3    1  0.1615911E-001  0.1250000E+03  0.7546771E-02  0.1235069E+00
         21   -1    0    0  502  501  0.00000000000E+00  0.00000000000E+00  0.25882895562E+01  0.25882895562E+01  0.00000000000E+00 0.  1.
         21   -1    0    0  501  502 -0.00000000000E+00 -0.00000000000E+00 -0.15092013143E+04  0.15092013143E+04  0.00000000000E+00 0.  1.
         25    1    1    2    0    0  0.00000000000E+00  0.00000000000E+00 -0.15066130247E+04  0.15117896038E+04  0.12500000000E+03 0.  0.
<mgrwt>
<rscale>  0 0.12500000E+03</rscale>
<asrwt>0</asrwt>
<pdfrwt beam="1">  1       21 0.39819948E-03 0.12500000E+03</pdfrwt>
<pdfrwt beam="2">  1       21 0.23218419E+00 0.12500000E+03</pdfrwt>
<totfact> 0.13819054E+06</totfact>
</mgrwt>
</event>
<event>
 3    1  0.1615911E-001  0.1250000E+03  0.7546771E-02  0.1235069E+00
         21   -1    0    0  502  501  0.00000000000E+00  0.00000000000E+00  0.76053821862E+02  0.76053821862E+02  0.00000000000E+00 0.  1.
         21   -1    0    0  501  502 -0.00000000000E+00 -0.00000000000E+00 -0.51361652898E+02  0.51361652898E+02  0.00000000000E+00 0.  1.
         25    1    1    2    0    0  0.00000000000E+00  0.00000000000E+00  0.24692168964E+02  0.12741547476E+03  0.12500000000E+03 0.  0.
<mgrwt>
<rscale>  0 0.12500000E+03</rscale>
<asrwt>0</asrwt>
<pdfrwt beam="1">  1       21 0.11700588E-01 0.12500000E+03</pdfrwt>
<pdfrwt beam="2">  1       21 0.79017927E-02 0.12500000E+03</pdfrwt>
<totfact> 0.73712680E+06</totfact>
</mgrwt>
</event>
<event>
 3    1  0.1615911E-001  0.1250000E+03  0.7546771E-02  0.1235069E+00
         21   -1    0    0  502  501  0.00000000000E+00  0.00000000000E+00  0.58829316460E+01  0.58829316460E+01  0.00000000000E+00 0. -1.
         21   -1    0    0  501  502 -0.00000000000E+00 -0.00000000000E+00 -0.66399717607E+03  0.66399717607E+03  0.00000000000E+00 0. -1.
         25    1    1    2    0    0  0.00000000000E+00  0.00000000000E+00 -0.65811424443E+03  0.66988010772E+03  0.12500000000E+03 0.  0.
<mgrwt>
<rscale>  0 0.12500000E+03</rscale>
<asrwt>0</asrwt>
<pdfrwt beam="1">  1       21 0.90506615E-03 0.12500000E+03</pdfrwt>
<pdfrwt beam="2">  1       21 0.10215344E+00 0.12500000E+03</pdfrwt>
<totfact> 0.34103992E+06</totfact>
</mgrwt>
</event>
<event>
 3    1  0.1615911E-001  0.1250000E+03  0.7546771E-02  0.1235069E+00
         21   -1    0    0  502  501  0.00000000000E+00  0.00000000000E+00  0.64371169578E+02  0.64371169578E+02  0.00000000000E+00 0. -1.
         21   -1    0    0  501  502 -0.00000000000E+00 -0.00000000000E+00 -0.60683222405E+02  0.60683222405E+02  0.00000000000E+00 0. -1.
         25    1    1    2    0    0  0.00000000000E+00  0.00000000000E+00  0.36879471731E+01  0.12505439198E+03  0.12500000000E+03 0.  0.
<mgrwt>
<rscale>  0 0.12500000E+03</rscale>
<asrwt>0</asrwt>
<pdfrwt beam="1">  1       21 0.99032568E-02 0.12500000E+03</pdfrwt>
<pdfrwt beam="2">  1       21 0.93358804E-02 0.12500000E+03</pdfrwt>
<totfact> 0.74036235E+06</totfact>
</mgrwt>
</event>
<event>
 3    1  0.1615911E-001  0.1250000E+03  0.7546771E-02  0.1235069E+00
         21   -1    0    0  502  501  0.00000000000E+00  0.00000000000E+00  0.16441393395E+03  0.16441393395E+03  0.00000000000E+00 0. -1.
         21   -1    0    0  501  502 -0.00000000000E+00 -0.00000000000E+00 -0.23758631073E+02  0.23758631073E+02  0.00000000000E+00 0. -1.
         25    1    1    2    0    0  0.00000000000E+00  0.00000000000E+00  0.14065530288E+03  0.18817256502E+03  0.12500000000E+03 0.  0.
<mgrwt>
<rscale>  0 0.12500000E+03</rscale>
<asrwt>0</asrwt>
<pdfrwt beam="1">  1       21 0.25294451E-01 0.12500000E+03</pdfrwt>
<pdfrwt beam="2">  1       21 0.36551741E-02 0.12500000E+03</pdfrwt>
<totfact> 0.66226144E+06</totfact>
</mgrwt>
</event>
<event>
 3    1  0.1615911E-001  0.1250000E+03  0.7546771E-02  0.1235069E+00
         21   -1    0    0  502  501  0.00000000000E+00  0.00000000000E+00  0.76256520135E+01  0.76256520135E+01  0.00000000000E+00 0. -1.
         21   -1    0    0  501  502 -0.00000000000E+00 -0.00000000000E+00 -0.51225127938E+03  0.51225127938E+03  0.00000000000E+00 0. -1.
         25    1    1    2    0    0  0.00000000000E+00  0.00000000000E+00 -0.50462562737E+03  0.51987693139E+03  0.12500000000E+03 0.  0.
<mgrwt>
<rscale>  0 0.12500000E+03</rscale>
<asrwt>0</asrwt>
<pdfrwt beam="1">  1       21 0.11731770E-02 0.12500000E+03</pdfrwt>
<pdfrwt beam="2">  1       21 0.78807906E-01 0.12500000E+03</pdfrwt>
<totfact> 0.40986211E+06</totfact>
</mgrwt>
</event>
<event>
 3    1  0.1615911E-001  0.1250000E+03  0.7546771E-02  0.1235069E+00
         21   -1    0    0  502  501  0.00000000000E+00  0.00000000000E+00  0.17495572915E+02  0.17495572915E+02  0.00000000000E+00 0.  1.
         21   -1    0    0  501  502 -0.00000000000E+00 -0.00000000000E+00 -0.22327076792E+03  0.22327076792E+03  0.00000000000E+00 0.  1.
         25    1    1    2    0    0  0.00000000000E+00  0.00000000000E+00 -0.20577519501E+03  0.24076634084E+03  0.12500000000E+03 0.  0.
<mgrwt>
<rscale>  0 0.12500000E+03</rscale>
<asrwt>0</asrwt>
<pdfrwt beam="1">  1       21 0.26916264E-02 0.12500000E+03</pdfrwt>
<pdfrwt beam="2">  1       21 0.34349352E-01 0.12500000E+03</pdfrwt>
<totfact> 0.60758582E+06</totfact>
</mgrwt>
</event>
<event>
 3    1  0.1615911E-001  0.1250000E+03  0.7546771E-02  0.1235069E+00
         21   -1    0    0  502  501  0.00000000000E+00  0.00000000000E+00  0.12938356162E+03  0.12938356162E+03  0.00000000000E+00 0.  1.
         21   -1    0    0  501  502 -0.00000000000E+00 -0.00000000000E+00 -0.30191238756E+02  0.30191238756E+02  0.00000000000E+00 0.  1.
         25    1    1    2    0    0  0.00000000000E+00  0.00000000000E+00  0.99192322866E+02  0.15957480038E+03  0.12500000000E+03 0.  0.
<mgrwt>
<rscale>  0 0.12500000E+03</rscale>
<asrwt>0</asrwt>
<pdfrwt beam="1">  1       21 0.19905163E-01 0.12500000E+03</pdfrwt>
<pdfrwt beam="2">  1       21 0.46448060E-02 0.12500000E+03</pdfrwt>
<totfact> 0.69571488E+06</totfact>
</mgrwt>
</event>
<event>
 3    1  0.1615911E-001  0.1250000E+03  0.7546771E-02  0.1235069E+00
         21   -1    0    0  502  501  0.00000000000E+00  0.00000000000E+00  0.61754529063E+01  0.61754529063E+01  0.00000000000E+00 0.  1.
         21   -1    0    0  501  502 -0.00000000000E+00 -0.00000000000E+00 -0.63254469903E+03  0.63254469903E+03  0.00000000000E+00 0.  1.
         25    1    1    2    0    0  0.00000000000E+00  0.00000000000E+00 -0.62636924612E+03  0.63872015194E+03  0.12500000000E+03 0.  0.
<mgrwt>
<rscale>  0 0.12500000E+03</rscale>
<asrwt>0</asrwt>
<pdfrwt beam="1">  1       21 0.95006946E-03 0.12500000E+03</pdfrwt>
<pdfrwt beam="2">  1       21 0.97314592E-01 0.12500000E+03</pdfrwt>
<totfact> 0.35398043E+06</totfact>
</mgrwt>
</event>
<event>
 3    1  0.1615911E-001  0.1250000E+03  0.7546771E-02  0.1235069E+00
         21   -1    0    0  502  501  0.00000000000E+00  0.00000000000E+00  0.27115136791E+02  0.27115136791E+02  0.00000000000E+00 0.  1.
         21   -1    0    0  501  502 -0.00000000000E+00 -0.00000000000E+00 -0.14406160036E+03  0.14406160036E+03  0.00000000000E+00 0.  1.
         25    1    1    2    0    0  0.00000000000E+00  0.00000000000E+00 -0.11694646357E+03  0.17117673715E+03  0.12500000000E+03 0.  0.
<mgrwt>
<rscale>  0 0.12500000E+03</rscale>
<asrwt>0</asrwt>
<pdfrwt beam="1">  1       21 0.41715595E-02 0.12500000E+03</pdfrwt>
<pdfrwt beam="2">  1       21 0.22163323E-01 0.12500000E+03</pdfrwt>
<totfact> 0.68178413E+06</totfact>
</mgrwt>
</event>
<event>
 3    1  0.1615911E-001  0.1250000E+03  0.7546771E-02  0.1235069E+00
         21   -1    0    0  502  501  0.00000000000E+00  0.00000000000E+00  0.78808106777E+01  0.78808106777E+01  0.00000000000E+00 0.  1.
         21   -1    0    0  501  502 -0.00000000000E+00 -0.00000000000E+00 -0.49566601200E+03  0.49566601200E+03  0.00000000000E+00 0.  1.
         25    1    1    2    0    0  0.00000000000E+00  0.00000000000E+00 -0.48778520133E+03  0.50354682268E+03  0.12500000000E+03 0.  0.
<mgrwt>
<rscale>  0 0.12500000E+03</rscale>
<asrwt>0</asrwt>
<pdfrwt beam="1">  1       21 0.12124320E-02 0.12500000E+03</pdfrwt>
<pdfrwt beam="2">  1       21 0.76256338E-01 0.12500000E+03</pdfrwt>
<totfact> 0.41852360E+06</totfact>
</mgrwt>
</event>
<event>
 3    1  0.1615911E-001  0.1250000E+03  0.7546771E-02  0.1235069E+00
         21   -1    0    0  502  501  0.00000000000E+00  0.00000000000E+00  0.13629012612E+03  0.13629012612E+03  0.00000000000E+00 0. -1.
         21   -1    0    0  501  502 -0.00000000000E+00 -0.00000000000E+00 -0.28661283918E+02  0.28661283918E+02  0.00000000000E+00 0. -1.
         25    1    1    2    0    0  0.00000000000E+00  0.00000000000E+00  0.10762884220E+03  0.16495141004E+03  0.12500000000E+03 0.  0.
<mgrwt>
<rscale>  0 0.12500000E+03</rscale>
<asrwt>0</asrwt>
<pdfrwt beam="1">  1       21 0.20967711E-01 0.12500000E+03</pdfrwt>
<pdfrwt beam="2">  1       21 0.44094284E-02 0.12500000E+03</pdfrwt>
<totfact> 0.68919492E+06</totfact>
</mgrwt>
</event>
<event>
 3    1  0.1615911E-001  0.1250000E+03  0.7546771E-02  0.1235069E+00
         21   -1    0    0  502  501  0.00000000000E+00  0.00000000000E+00  0.13417778678E+02  0.13417778678E+02  0.00000000000E+00 0.  1.
         21   -1    0    0  501  502 -0.00000000000E+00 -0.00000000000E+00 -0.29112493907E+03  0.29112493907E+03  0.00000000000E+00 0.  1.
         25    1    1    2    0    0  0.00000000000E+00  0.00000000000E+00 -0.27770716040E+03  0.30454271775E+03  0.12500000000E+03 0.  0.
<mgrwt>
<rscale>  0 0.12500000E+03</rscale>
<asrwt>0</asrwt>
<pdfrwt beam="1">  1       21 0.20642738E-02 0.12500000E+03</pdfrwt>
<pdfrwt beam="2">  1       21 0.44788448E-01 0.12500000E+03</pdfrwt>
<totfact> 0.55080758E+06</totfact>
</mgrwt>
</event>
<event>
 3    1  0.1615911E-001  0.1250000E+03  0.7546771E-02  0.1235069E+00
         21   -1    0    0  502  501  0.00000000000E+00  0.00000000000E+00  0.10159102050E+04  0.10159102050E+04  0.00000000000E+00 0.  1.
         21   -1    0    0  501  502 -0.00000000000E+00 -0.00000000000E+00 -0.38450740830E+01  0.38450740830E+01  0.00000000000E+00 0.  1.
         25    1    1    2    0    0  0.00000000000E+00  0.00000000000E+00  0.10120651309E+04  0.10197552791E+04  0.12500000000E+03 0.  0.
<mgrwt>
<rscale>  0 0.12500000E+03</rscale>
<asrwt>0</asrwt>
<pdfrwt beam="1">  1       21 0.15629366E+00 0.12500000E+03</pdfrwt>
<pdfrwt beam="2">  1       21 0.59155067E-03 0.12500000E+03</pdfrwt>
<totfact> 0.23129504E+06</totfact>
</mgrwt>
</event>
<event>
 3    1  0.1615911E-001  0.1250000E+03  0.7546771E-02  0.1235069E+00
         21   -1    0    0  502  501  0.00000000000E+00  0.00000000000E+00  0.13488424421E+03  0.13488424421E+03  0.00000000000E+00 0. -1.
         21   -1    0    0  501  502 -0.00000000000E+00 -0.00000000000E+00 -0.28960016961E+02  0.28960016961E+02  0.00000000000E+00 0. -1.
         25    1    1    2    0    0  0.00000000000E+00  0.00000000000E+00  0.10592422724E+03  0.16384426117E+03  0.12500000000E+03 0.  0.
<mgrwt>
<rscale>  0 0.12500000E+03</rscale>
<asrwt>0</asrwt>
<pdfrwt beam="1">  1       21 0.20751422E-01 0.12500000E+03</pdfrwt>
<pdfrwt beam="2">  1       21 0.44553873E-02 0.12500000E+03</pdfrwt>
<totfact> 0.69052793E+06</totfact>
</mgrwt>
</event>
<event>
 3    1  0.1615911E-001  0.1250000E+03  0.7546771E-02  0.1235069E+00
         21   -1    0    0  502  501  0.00000000000E+00  0.00000000000E+00  0.15251303107E+02  0.15251303107E+02  0.00000000000E+00 0.  1.
         21   -1    0    0  501  502 -0.00000000000E+00 -0.00000000000E+00 -0.25612565513E+03  0.25612565513E+03  0.00000000000E+00 0.  1.
         25    1    1    2    0    0  0.00000000000E+00  0.00000000000E+00 -0.24087435202E+03  0.27137695824E+03  0.12500000000E+03 0.  0.
<mgrwt>
<rscale>  0 0.12500000E+03</rscale>
<asrwt>0</asrwt>
<pdfrwt beam="1">  1       21 0.23463543E-02 0.12500000E+03</pdfrwt>
<pdfrwt beam="2">  1       21 0.39403947E-01 0.12500000E+03</pdfrwt>
<totfact> 0.57921940E+06</totfact>
</mgrwt>
</event>
<event>
 3    1  0.1615911E-001  0.1250000E+03  0.7546771E-02  0.1235069E+00
         21   -1    0    0  502  501  0.00000000000E+00  0.00000000000E+00  0.37253858651E+02  0.37253858651E+02  0.00000000000E+00 0. -1.
         21   -1    0    0  501  502 -0.00000000000E+00 -0.00000000000E+00 -0.10485491011E+03  0.10485491011E+03  0.00000000000E+00 0. -1.
         25    1    1    2    0    0  0.00000000000E+00  0.00000000000E+00 -0.67601051458E+02  0.14210876876E+03  0.12500000000E+03 0.  0.
<mgrwt>
<rscale>  0 0.12500000E+03</rscale>
<asrwt>0</asrwt>
<pdfrwt beam="1">  1       21 0.57313629E-02 0.12500000E+03</pdfrwt>
<pdfrwt beam="2">  1       21 0.16131525E-01 0.12500000E+03</pdfrwt>
<totfact> 0.71765195E+06</totfact>
</mgrwt>
</event>
<event>
 3    1  0.1615911E-001  0.1250000E+03  0.7546771E-02  0.1235069E+00
         21   -1    0    0  502  501  0.00000000000E+00  0.00000000000E+00  0.76186171111E+01  0.76186171111E+01  0.00000000000E+00 0. -1.
         21   -1    0    0  501  502 -0.00000000000E+00 -0.00000000000E+00 -0.51272428356E+03  0.51272428356E+03  0.00000000000E+00 0. -1.
         25    1    1    2    0    0  0.00000000000E+00  0.00000000000E+00 -0.50510566645E+03  0.52034290067E+03  0.12500000000E+03 0.  0.
<mgrwt>
<rscale>  0 0.12500000E+03</rscale>
<asrwt>0</asrwt>
<pdfrwt beam="1">  1       21 0.11720950E-02 0.12500000E+03</pdfrwt>
<pdfrwt beam="2">  1       21 0.78880654E-01 0.12500000E+03</pdfrwt>
<totfact> 0.40961892E+06</totfact>
</mgrwt>
</event>
<event>
 3    1  0.1615911E-001  0.1250000E+03  0.7546771E-02  0.1235069E+00
         21   -1    0    0  502  501  0.00000000000E+00  0.00000000000E+00  0.25862336504E+02  0.25862336504E+02  0.00000000000E+00 0. -1.
         21   -1    0    0  501  502 -0.00000000000E+00 -0.00000000000E+00 -0.15104010418E+03  0.15104010418E+03  0.00000000000E+00 0. -1.
         25    1    1    2    0    0  0.00000000000E+00  0.00000000000E+00 -0.12517776768E+03  0.17690244069E+03  0.12500000000E+03 0.  0.
<mgrwt>
<rscale>  0 0.12500000E+03</rscale>
<asrwt>0</asrwt>
<pdfrwt beam="1">  1       21 0.39788210E-02 0.12500000E+03</pdfrwt>
<pdfrwt beam="2">  1       21 0.23236939E-01 0.12500000E+03</pdfrwt>
<totfact> 0.67508667E+06</totfact>
</mgrwt>
</event>
<event>
 3    1  0.1615911E-001  0.1250000E+03  0.7546771E-02  0.1235069E+00
         21   -1    0    0  502  501  0.00000000000E+00  0.00000000000E+00  0.66889841262E+03  0.66889841262E+03  0.00000000000E+00 0. -1.
         21   -1    0    0  501  502 -0.00000000000E+00 -0.00000000000E+00 -0.58398254897E+01  0.58398254897E+01  0.00000000000E+00 0. -1.
         25    1    1    2    0    0  0.00000000000E+00  0.00000000000E+00  0.66305858713E+03  0.67473823811E+03  0.12500000000E+03 0.  0.
<mgrwt>
<rscale>  0 0.12500000E+03</rscale>
<asrwt>0</asrwt>
<pdfrwt beam="1">  1       21 0.10290739E+00 0.12500000E+03</pdfrwt>
<pdfrwt beam="2">  1       21 0.89843522E-03 0.12500000E+03</pdfrwt>
<totfact> 0.33907019E+06</totfact>
</mgrwt>
</event>
<event>
 3    1  0.1615911E-001  0.1250000E+03  0.7546771E-02  0.1235069E+00
         21   -1    0    0  502  501  0.00000000000E+00  0.00000000000E+00  0.11445570267E+04  0.11445570267E+04  0.00000000000E+00 0. -1.
         21   -1    0    0  501  502 -0.00000000000E+00 -0.00000000000E+00 -0.34128924195E+01  0.34128924195E+01  0.00000000000E+00 0. -1.
         25    1    1    2    0    0  0.00000000000E+00  0.00000000000E+00  0.11411441342E+04  0.11479699191E+04  0.12500000000E+03 0.  0.
<mgrwt>
<rscale>  0 0.12500000E+03</rscale>
<asrwt>0</asrwt>
<pdfrwt beam="1">  1       21 0.17608539E+00 0.12500000E+03</pdfrwt>
<pdfrwt beam="2">  1       21 0.52506129E-03 0.12500000E+03</pdfrwt>
<totfact> 0.20212113E+06</totfact>
</mgrwt>
</event>
<event>
 3    1  0.1615911E-001  0.1250000E+03  0.7546771E-02  0.1235069E+00
         21   -1    0    0  502  501  0.00000000000E+00  0.00000000000E+00  0.18068735497E+03  0.18068735497E+03  0.00000000000E+00 0. -1.
         21   -1    0    0  501  502 -0.00000000000E+00 -0.00000000000E+00 -0.21618834370E+02  0.21618834370E+02  0.00000000000E+00 0. -1.
         25    1    1    2    0    0  0.00000000000E+00  0.00000000000E+00  0.15906852060E+03  0.20230618934E+03  0.12500000000E+03 0.  0.
<mgrwt>
<rscale>  0 0.12500000E+03</rscale>
<asrwt>0</asrwt>
<pdfrwt beam="1">  1       21 0.27798054E-01 0.12500000E+03</pdfrwt>
<pdfrwt beam="2">  1       21 0.33259746E-02 0.12500000E+03</pdfrwt>
<totfact> 0.64678215E+06</totfact>
</mgrwt>
</event>
<event>
 3    1  0.1615911E-001  0.1250000E+03  0.7546771E-02  0.1235069E+00
         21   -1    0    0  502  501  0.00000000000E+00  0.00000000000E+00  0.20398103023E+02  0.20398103023E+02  0.00000000000E+00 0. -1.
         21   -1    0    0  501  502 -0.00000000000E+00 -0.00000000000E+00 -0.19150065060E+03  0.19150065060E+03  0.00000000000E+00 0. -1.
         25    1    1    2    0    0  0.00000000000E+00  0.00000000000E+00 -0.17110254758E+03  0.21189875363E+03  0.12500000000E+03 0.  0.
<mgrwt>
<rscale>  0 0.12500000E+03</rscale>
<asrwt>0</asrwt>
<pdfrwt beam="1">  1       21 0.31381696E-02 0.12500000E+03</pdfrwt>
<pdfrwt beam="2">  1       21 0.29461640E-01 0.12500000E+03</pdfrwt>
<totfact> 0.63660316E+06</totfact>
</mgrwt>
</event>
<event>
 3    1  0.1615911E-001  0.1250000E+03  0.7546771E-02  0.1235069E+00
         21   -1    0    0  502  501  0.00000000000E+00  0.00000000000E+00  0.21623612035E+02  0.21623612035E+02  0.00000000000E+00 0. -1.
         21   -1    0    0  501  502 -0.00000000000E+00 -0.00000000000E+00 -0.18064743271E+03  0.18064743271E+03  0.00000000000E+00 0. -1.
         25    1    1    2    0    0  0.00000000000E+00  0.00000000000E+00 -0.15902382068E+03  0.20227104475E+03  0.12500000000E+03 0.  0.
<mgrwt>
<rscale>  0 0.12500000E+03</rscale>
<asrwt>0</asrwt>
<pdfrwt beam="1">  1       21 0.33267096E-02 0.12500000E+03</pdfrwt>
<pdfrwt beam="2">  1       21 0.27791912E-01 0.12500000E+03</pdfrwt>
<totfact> 0.64681998E+06</totfact>
</mgrwt>
</event>
<event>
 3    1  0.1615911E-001  0.1250000E+03  0.7546771E-02  0.1235069E+00
         21   -1    0    0  502  501  0.00000000000E+00  0.00000000000E+00  0.49783858658E+03  0.49783858658E+03  0.00000000000E+00 0. -1.
         21   -1    0    0  501  502 -0.00000000000E+00 -0.00000000000E+00 -0.78464187094E+01  0.78464187094E+01  0.00000000000E+00 0. -1.
         25    1    1    2    0    0  0.00000000000E+00  0.00000000000E+00  0.48999216787E+03  0.50568500529E+03  0.12500000000E+03 0.  0.
<mgrwt>
<rscale>  0 0.12500000E+03</rscale>
<asrwt>0</asrwt>
<pdfrwt beam="1">  1       21 0.76590527E-01 0.12500000E+03</pdfrwt>
<pdfrwt beam="2">  1       21 0.12071417E-02 0.12500000E+03</pdfrwt>
<totfact> 0.41737437E+06</totfact>
</mgrwt>
</event>
<event>
 3    1  0.1615911E-001  0.1250000E+03  0.7546771E-02  0.1235069E+00
         21   -1    0    0  502  501  0.00000000000E+00  0.00000000000E+00  0.96288103576E+02  0.96288103576E+02  0.00000000000E+00 0. -1.
         21   -1    0    0  501  502 -0.00000000000E+00 -0.00000000000E+00 -0.40568355331E+02  0.40568355331E+02  0.00000000000E+00 0. -1.
         25    1    1    2    0    0  0.00000000000E+00  0.00000000000E+00  0.55719748245E+02  0.13685645891E+03  0.12500000000E+03 0.  0.
<mgrwt>
<rscale>  0 0.12500000E+03</rscale>
<asrwt>0</asrwt>
<pdfrwt beam="1">  1       21 0.14813554E-01 0.12500000E+03</pdfrwt>
<pdfrwt beam="2">  1       21 0.62412855E-02 0.12500000E+03</pdfrwt>
<totfact> 0.72451586E+06</totfact>
</mgrwt>
</event>
<event>
 3    1  0.1615911E-001  0.1250000E+03  0.7546771E-02  0.1235069E+00
         21   -1    0    0  502  501  0.00000000000E+00  0.00000000000E+00  0.12694318264E+03  0.12694318264E+03  0.00000000000E+00 0. -1.
         21   -1    0    0  501  502 -0.00000000000E+00 -0.00000000000E+00 -0.30771640657E+02  0.30771640657E+02  0.00000000000E+00 0. -1.
         25    1    1    2    0    0  0.00000000000E+00  0.00000000000E+00  0.96171541980E+02  0.15771482329E+03  0.12500000000E+03 0.  0.
<mgrwt>
<rscale>  0 0.12500000E+03</rscale>
<asrwt>0</asrwt>
<pdfrwt beam="1">  1       21 0.19529720E-01 0.12500000E+03</pdfrwt>
<pdfrwt beam="2">  1       21 0.47340986E-02 0.12500000E+03</pdfrwt>
<totfact> 0.69799803E+06</totfact>
</mgrwt>
</event>
<event>
 3    1  0.1615911E-001  0.1250000E+03  0.7546771E-02  0.1235069E+00
         21   -1    0    0  502  501  0.00000000000E+00  0.00000000000E+00  0.27227414339E+03  0.27227414339E+03  0.00000000000E+00 0. -1.
         21   -1    0    0  501  502 -0.00000000000E+00 -0.00000000000E+00 -0.14346753428E+02  0.14346753428E+02  0.00000000000E+00 0. -1.
         25    1    1    2    0    0  0.00000000000E+00  0.00000000000E+00  0.25792738996E+03  0.28662089681E+03  0.12500000000E+03 0.  0.
<mgrwt>
<rscale>  0 0.12500000E+03</rscale>
<asrwt>0</asrwt>
<pdfrwt beam="1">  1       21 0.41888326E-01 0.12500000E+03</pdfrwt>
<pdfrwt beam="2">  1       21 0.22071930E-02 0.12500000E+03</pdfrwt>
<totfact> 0.56586688E+06</totfact>
</mgrwt>
</event>
<event>
 3    1  0.1615911E-001  0.1250000E+03  0.7546771E-02  0.1235069E+00
         21   -1    0    0  502  501  0.00000000000E+00  0.00000000000E+00  0.26705857193E+03  0.26705857193E+03  0.00000000000E+00 0. -1.
         21   -1    0    0  501  502 -0.00000000000E+00 -0.00000000000E+00 -0.14626941093E+02  0.14626941093E+02  0.00000000000E+00 0. -1.
         25    1    1    2    0    0  0.00000000000E+00  0.00000000000E+00  0.25243163083E+03  0.28168551302E+03  0.12500000000E+03 0.  0.
<mgrwt>
<rscale>  0 0.12500000E+03</rscale>
<asrwt>0</asrwt>
<pdfrwt beam="1">  1       21 0.41085931E-01 0.12500000E+03</pdfrwt>
<pdfrwt beam="2">  1       21 0.22502988E-02 0.12500000E+03</pdfrwt>
<totfact> 0.57013373E+06</totfact>
</mgrwt>
</event>
<event>
 3    1  0.1615911E-001  0.1250000E+03  0.7546771E-02  0.1235069E+00
         21   -1    0    0  502  501  0.00000000000E+00  0.00000000000E+00  0.26308487032E+02  0.26308487032E+02  0.00000000000E+00 0. -1.
         21   -1    0    0  501  502 -0.00000000000E+00 -0.00000000000E+00 -0.14847870177E+03  0.14847870177E+03  0.00000000000E+00 0. -1.
         25    1    1    2    0    0  0.00000000000E+00  0.00000000000E+00 -0.12217021474E+03  0.17478718880E+03  0.12500000000E+03 0.  0.
<mgrwt>
<rscale>  0 0.12500000E+03</rscale>
<asrwt>0</asrwt>
<pdfrwt beam="1">  1       21 0.40474595E-02 0.12500000E+03</pdfrwt>
<pdfrwt beam="2">  1       21 0.22842878E-01 0.12500000E+03</pdfrwt>
<totfact> 0.67754624E+06</totfact>
</mgrwt>
</event>
<event>
 3    1  0.1615911E-001  0.1250000E+03  0.7546771E-02  0.1235069E+00
         21   -1    0    0  502  501  0.00000000000E+00  0.00000000000E+00  0.15570777180E+03  0.15570777180E+03  0.00000000000E+00 0. -1.
         21   -1    0    0  501  502 -0.00000000000E+00 -0.00000000000E+00 -0.25087058628E+02  0.25087058628E+02  0.00000000000E+00 0. -1.
         25    1    1    2    0    0  0.00000000000E+00  0.00000000000E+00  0.13062071317E+03  0.18079483043E+03  0.12500000000E+03 0.  0.
<mgrwt>
<rscale>  0 0.12500000E+03</rscale>
<asrwt>0</asrwt>
<pdfrwt beam="1">  1       21 0.23955041E-01 0.12500000E+03</pdfrwt>
<pdfrwt beam="2">  1       21 0.38595476E-02 0.12500000E+03</pdfrwt>
<totfact> 0.67060473E+06</totfact>
</mgrwt>
</event>
<event>
 3    1  0.1615911E-001  0.1250000E+03  0.7546771E-02  0.1235069E+00
         21   -1    0    0  502  501  0.00000000000E+00  0.00000000000E+00  0.66888562081E+02  0.66888562081E+02  0.00000000000E+00 0.  1.
         21   -1    0    0  501  502 -0.00000000000E+00 -0.00000000000E+00 -0.58399371709E+02  0.58399371709E+02  0.00000000000E+00 0.  1.
         25    1    1    2    0    0  0.00000000000E+00  0.00000000000E+00  0.84891903722E+01  0.12528793379E+03  0.12500000000E+03 0.  0.
<mgrwt>
<rscale>  0 0.12500000E+03</rscale>
<asrwt>0</asrwt>
<pdfrwt beam="1">  1       21 0.10290548E-01 0.12500000E+03</pdfrwt>
<pdfrwt beam="2">  1       21 0.89845187E-02 0.12500000E+03</pdfrwt>
<totfact> 0.74004700E+06</totfact>
</mgrwt>
</event>
<event>
 3    1  0.1615911E-001  0.1250000E+03  0.7546771E-02  0.1235069E+00
         21   -1    0    0  502  501  0.00000000000E+00  0.00000000000E+00  0.11313307032E+02  0.11313307032E+02  0.00000000000E+00 0. -1.
         21   -1    0    0  501  502 -0.00000000000E+00 -0.00000000000E+00 -0.34527923523E+03  0.34527923523E+03  0.00000000000E+00 0. -1.
         25    1    1    2    0    0  0.00000000000E+00  0.00000000000E+00 -0.33396592819E+03  0.35659254226E+03  0.12500000000E+03 0.  0.
<mgrwt>
<rscale>  0 0.12500000E+03</rscale>
<asrwt>0</asrwt>
<pdfrwt beam="1">  1       21 0.17405087E-02 0.12500000E+03</pdfrwt>
<pdfrwt beam="2">  1       21 0.53119885E-01 0.12500000E+03</pdfrwt>
<totfact> 0.51055208E+06</totfact>
</mgrwt>
</event>
<event>
 3    1  0.1615911E-001  0.1250000E+03  0.7546771E-02  0.1235069E+00
         21   -1    0    0  502  501  0.00000000000E+00  0.00000000000E+00  0.23950479444E+02  0.23950479444E+02  0.00000000000E+00 0. -1.
         21   -1    0    0  501  502 -0.00000000000E+00 -0.00000000000E+00 -0.16309694381E+03  0.16309694381E+03  0.00000000000E+00 0. -1.
         25    1    1    2    0    0  0.00000000000E+00  0.00000000000E+00 -0.13914646436E+03  0.18704742325E+03  0.12500000000E+03 0.  0.
<mgrwt>
<rscale>  0 0.12500000E+03</rscale>
<asrwt>0</asrwt>
<pdfrwt beam="1">  1       21 0.36846891E-02 0.12500000E+03</pdfrwt>
<pdfrwt beam="2">  1       21 0.25091837E-01 0.12500000E+03</pdfrwt>
<totfact> 0.66352128E+06</totfact>
</mgrwt>
</event>
<event>
 3    1  0.1615911E-001  0.1250000E+03  0.7546771E-02  0.1235069E+00
         21   -1    0    0  502  501  0.00000000000E+00  0.00000000000E+00  0.12147225166E+03  0.12147225166E+03  0.00000000000E+00 0. -1.
         21   -1    0    0  501  502 -0.00000000000E+00 -0.00000000000E+00 -0.32157549948E+02  0.32157549948E+02  0.00000000000E+00 0. -1.
         25    1    1    2    0    0  0.00000000000E+00  0.00000000000E+00  0.89314701710E+02  0.15362980161E+03  0.12500000000E+03 0.  0.
<mgrwt>
<rscale>  0 0.12500000E+03</rscale>
<asrwt>0</asrwt>
<pdfrwt beam="1">  1       21 0.18688039E-01 0.12500000E+03</pdfrwt>
<pdfrwt beam="2">  1       21 0.49473154E-02 0.12500000E+03</pdfrwt>
<totfact> 0.70306154E+06</totfact>
</mgrwt>
</event>
<event>
 3    1  0.1615911E-001  0.1250000E+03  0.7546771E-02  0.1235069E+00
         21   -1    0    0  502  501  0.00000000000E+00  0.00000000000E+00  0.76755849375E+02  0.76755849375E+02  0.00000000000E+00 0.  1.
         21   -1    0    0  501  502 -0.00000000000E+00 -0.00000000000E+00 -0.50891886831E+02  0.50891886831E+02  0.00000000000E+00 0.  1.
         25    1    1    2    0    0  0.00000000000E+00  0.00000000000E+00  0.25863962544E+02  0.12764773621E+03  0.12500000000E+03 0.  0.
<mgrwt>
<rscale>  0 0.12500000E+03</rscale>
<asrwt>0</asrwt>
<pdfrwt beam="1">  1       21 0.11808592E-01 0.12500000E+03</pdfrwt>
<pdfrwt beam="2">  1       21 0.78295210E-02 0.12500000E+03</pdfrwt>
<totfact> 0.73681202E+06</totfact>
</mgrwt>
</event>
<event>
 3    1  0.1615911E-001  0.1250000E+03  0.7546771E-02  0.1235069E+00
         21   -1    0    0  502  501  0.00000000000E+00  0.00000000000E+00  0.84124881639E+01  0.84124881639E+01  0.00000000000E+00 0. -1.
         21   -1    0    0  501  502 -0.00000000000E+00 -0.00000000000E+00 -0.46433943489E+03  0.46433943489E+03  0.00000000000E+00 0. -1.
         25    1    1    2    0    0  0.00000000000E+00  0.00000000000E+00 -0.45592694672E+03  0.47275192305E+03  0.12500000000E+03 0.  0.
<mgrwt>
<rscale>  0 0.12500000E+03</rscale>
<asrwt>0</asrwt>
<pdfrwt beam="1">  1       21 0.12942287E-02 0.12500000E+03</pdfrwt>
<pdfrwt beam="2">  1       21 0.71436850E-01 0.12500000E+03</pdfrwt>
<totfact> 0.43561414E+06</totfact>
</mgrwt>
</event>
<event>
 3    1  0.1615911E-001  0.1250000E+03  0.7546771E-02  0.1235069E+00
         21   -1    0    0  502  501  0.00000000000E+00  0.00000000000E+00  0.11768291071E+03  0.11768291071E+03  0.00000000000E+00 0.  1.
         21   -1    0    0  501  502 -0.00000000000E+00 -0.00000000000E+00 -0.33193009728E+02  0.33193009728E+02  0.00000000000E+00 0.  1.
         25    1    1    2    0    0  0.00000000000E+00  0.00000000000E+00  0.84489900980E+02  0.15087592044E+03  0.12500000000E+03 0.  0.
<mgrwt>
<rscale>  0 0.12500000E+03</rscale>
<asrwt>0</asrwt>
<pdfrwt beam="1">  1       21 0.18105063E-01 0.12500000E+03</pdfrwt>
<pdfrwt beam="2">  1       21 0.51066169E-02 0.12500000E+03</pdfrwt>
<totfact> 0.70649343E+06</totfact>
</mgrwt>
</event>
<event>
 3    1  0.1615911E-001  0.1250000E+03  0.7546771E-02  0.1235069E+00
         21   -1    0    0  502  501  0.00000000000E+00  0.00000000000E+00  0.67451669817E+02  0.67451669817E+02  0.00000000000E+00 0. -1.
         21   -1    0    0  501  502 -0.00000000000E+00 -0.00000000000E+00 -0.57911835402E+02  0.57911835402E+02  0.00000000000E+00 0. -1.
         25    1    1    2    0    0  0.00000000000E+00  0.00000000000E+00  0.95398344151E+01  0.12536350522E+03  0.12500000000E+03 0.  0.
<mgrwt>
<rscale>  0 0.12500000E+03</rscale>
<asrwt>0</asrwt>
<pdfrwt beam="1">  1       21 0.10377180E-01 0.12500000E+03</pdfrwt>
<pdfrwt beam="2">  1       21 0.89095131E-02 0.12500000E+03</pdfrwt>
<totfact> 0.73994500E+06</totfact>
</mgrwt>
</event>
<event>
 3    1  0.1615911E-001  0.1250000E+03  0.7546771E-02  0.1235069E+00
         21   -1    0    0  502  501  0.00000000000E+00  0.00000000000E+00  0.33107950326E+02  0.33107950326E+02  0.00000000000E+00 0.  1.
         21   -1    0    0  501  502 -0.00000000000E+00 -0.00000000000E+00 -0.11798525616E+03  0.11798525616E+03  0.00000000000E+00 0.  1.
         25    1    1    2    0    0  0.00000000000E+00  0.00000000000E+00 -0.84877305832E+02  0.15109320648E+03  0.12500000000E+03 0.  0.
<mgrwt>
<rscale>  0 0.12500000E+03</rscale>
<asrwt>0</asrwt>
<pdfrwt beam="1">  1       21 0.50935308E-02 0.12500000E+03</pdfrwt>
<pdfrwt beam="2">  1       21 0.18151578E-01 0.12500000E+03</pdfrwt>
<totfact> 0.70622143E+06</totfact>
</mgrwt>
</event>
<event>
 3    1  0.1615911E-001  0.1250000E+03  0.7546771E-02  0.1235069E+00
         21   -1    0    0  502  501  0.00000000000E+00  0.00000000000E+00  0.22437692054E+02  0.22437692054E+02  0.00000000000E+00 0. -1.
         21   -1    0    0  501  502 -0.00000000000E+00 -0.00000000000E+00 -0.17409321737E+03  0.17409321737E+03  0.00000000000E+00 0. -1.
         25    1    1    2    0    0  0.00000000000E+00  0.00000000000E+00 -0.15165552532E+03  0.19653090942E+03  0.12500000000E+03 0.  0.
<mgrwt>
<rscale>  0 0.12500000E+03</rscale>
<asrwt>0</asrwt>
<pdfrwt beam="1">  1       21 0.34519525E-02 0.12500000E+03</pdfrwt>
<pdfrwt beam="2">  1       21 0.26783572E-01 0.12500000E+03</pdfrwt>
<totfact> 0.65303857E+06</totfact>
</mgrwt>
</event>
<event>
 3    1  0.1615911E-001  0.1250000E+03  0.7546771E-02  0.1235069E+00
         21   -1    0    0  502  501  0.00000000000E+00  0.00000000000E+00  0.23278762035E+03  0.23278762035E+03  0.00000000000E+00 0.  1.
         21   -1    0    0  501  502 -0.00000000000E+00 -0.00000000000E+00 -0.16780316729E+02  0.16780316729E+02  0.00000000000E+00 0.  1.
         25    1    1    2    0    0  0.00000000000E+00  0.00000000000E+00  0.21600730362E+03  0.24956793708E+03  0.12500000000E+03 0.  0.
<mgrwt>
<rscale>  0 0.12500000E+03</rscale>
<asrwt>0</asrwt>
<pdfrwt beam="1">  1       21 0.35813478E-01 0.12500000E+03</pdfrwt>
<pdfrwt beam="2">  1       21 0.25815873E-02 0.12500000E+03</pdfrwt>
<totfact> 0.59918892E+06</totfact>
</mgrwt>
</event>
<event>
 3    1  0.1615911E-001  0.1250000E+03  0.7546771E-02  0.1235069E+00
         21   -1    0    0  502  501  0.00000000000E+00  0.00000000000E+00  0.40257713692E+03  0.40257713692E+03  0.00000000000E+00 0.  1.
         21   -1    0    0  501  502 -0.00000000000E+00 -0.00000000000E+00 -0.97031093964E+01  0.97031093964E+01  0.00000000000E+00 0.  1.
         25    1    1    2    0    0  0.00000000000E+00  0.00000000000E+00  0.39287402752E+03  0.41228024631E+03  0.12500000000E+03 0.  0.
<mgrwt>
<rscale>  0 0.12500000E+03</rscale>
<asrwt>0</asrwt>
<pdfrwt beam="1">  1       21 0.61934931E-01 0.12500000E+03</pdfrwt>
<pdfrwt beam="2">  1       21 0.14927864E-02 0.12500000E+03</pdfrwt>
<totfact> 0.47237347E+06</totfact>
</mgrwt>
</event>
<event>
 3    1  0.1615911E-001  0.1250000E+03  0.7546771E-02  0.1235069E+00
         21   -1    0    0  502  501  0.00000000000E+00  0.00000000000E+00  0.71142060171E+01  0.71142060171E+01  0.00000000000E+00 0.  1.
         21   -1    0    0  501  502 -0.00000000000E+00 -0.00000000000E+00 -0.54907743613E+03  0.54907743613E+03  0.00000000000E+00 0.  1.
         25    1    1    2    0    0  0.00000000000E+00  0.00000000000E+00 -0.54196323012E+03  0.55619164215E+03  0.12500000000E+03 0.  0.
<mgrwt>
<rscale>  0 0.12500000E+03</rscale>
<asrwt>0</asrwt>
<pdfrwt beam="1">  1       21 0.10944930E-02 0.12500000E+03</pdfrwt>
<pdfrwt beam="2">  1       21 0.84473470E-01 0.12500000E+03</pdfrwt>
<totfact> 0.39151842E+06</totfact>
</mgrwt>
</event>
<event>
 3    1  0.1615911E-001  0.1250000E+03  0.7546771E-02  0.1235069E+00
         21   -1    0    0  502  501  0.00000000000E+00  0.00000000000E+00  0.65258508664E+03  0.65258508664E+03  0.00000000000E+00 0. -1.
         21   -1    0    0  501  502 -0.00000000000E+00 -0.00000000000E+00 -0.59858094829E+01  0.59858094829E+01  0.00000000000E+00 0. -1.
         25    1    1    2    0    0  0.00000000000E+00  0.00000000000E+00  0.64659927716E+03  0.65857089613E+03  0.12500000000E+03 0.  0.
<mgrwt>
<rscale>  0 0.12500000E+03</rscale>
<asrwt>0</asrwt>
<pdfrwt beam="1">  1       21 0.10039765E+00 0.12500000E+03</pdfrwt>
<pdfrwt beam="2">  1       21 0.92089428E-03 0.12500000E+03</pdfrwt>
<totfact> 0.34569208E+06</totfact>
</mgrwt>
</event>
<event>
 3    1  0.1615911E-001  0.1250000E+03  0.7546771E-02  0.1235069E+00
         21   -1    0    0  502  501  0.00000000000E+00  0.00000000000E+00  0.83300880087E+02  0.83300880087E+02  0.00000000000E+00 0. -1.
         21   -1    0    0  501  502 -0.00000000000E+00 -0.00000000000E+00 -0.46893262063E+02  0.46893262063E+02  0.00000000000E+00 0. -1.
         25    1    1    2    0    0  0.00000000000E+00  0.00000000000E+00  0.36407618024E+02  0.13019414215E+03  0.12500000000E+03 0.  0.
<mgrwt>
<rscale>  0 0.12500000E+03</rscale>
<asrwt>0</asrwt>
<pdfrwt beam="1">  1       21 0.12815520E-01 0.12500000E+03</pdfrwt>
<pdfrwt beam="2">  1       21 0.72143480E-02 0.12500000E+03</pdfrwt>
<totfact> 0.73338979E+06</totfact>
</mgrwt>
</event>
<event>
 3    1  0.1615911E-001  0.1250000E+03  0.7546771E-02  0.1235069E+00
         21   -1    0    0  502  501  0.00000000000E+00  0.00000000000E+00  0.73309777231E+01  0.73309777231E+01  0.00000000000E+00 0. -1.
         21   -1    0    0  501  502 -0.00000000000E+00 -0.00000000000E+00 -0.53284161370E+03  0.53284161370E+03  0.00000000000E+00 0. -1.
         25    1    1    2    0    0  0.00000000000E+00  0.00000000000E+00 -0.52551063598E+03  0.54017259143E+03  0.12500000000E+03 0.  0.
<mgrwt>
<rscale>  0 0.12500000E+03</rscale>
<asrwt>0</asrwt>
<pdfrwt beam="1">  1       21 0.11278428E-02 0.12500000E+03</pdfrwt>
<pdfrwt beam="2">  1       21 0.81975631E-01 0.12500000E+03</pdfrwt>
<totfact> 0.39945989E+06</totfact>
</mgrwt>
</event>
<event>
 3    1  0.1615911E-001  0.1250000E+03  0.7546771E-02  0.1235069E+00
         21   -1    0    0  502  501  0.00000000000E+00  0.00000000000E+00  0.28816736381E+03  0.28816736381E+03  0.00000000000E+00 0.  1.
         21   -1    0    0  501  502 -0.00000000000E+00 -0.00000000000E+00 -0.13555490630E+02  0.13555490630E+02  0.00000000000E+00 0.  1.
         25    1    1    2    0    0  0.00000000000E+00  0.00000000000E+00  0.27461187318E+03  0.30172285444E+03  0.12500000000E+03 0.  0.
<mgrwt>
<rscale>  0 0.12500000E+03</rscale>
<asrwt>0</asrwt>
<pdfrwt beam="1">  1       21 0.44333436E-01 0.12500000E+03</pdfrwt>
<pdfrwt beam="2">  1       21 0.20854603E-02 0.12500000E+03</pdfrwt>
<totfact> 0.55313303E+06</totfact>
</mgrwt>
</event>
<event>
 3    1  0.1615911E-001  0.1250000E+03  0.7546771E-02  0.1235069E+00
         21   -1    0    0  502  501  0.00000000000E+00  0.00000000000E+00  0.66014438945E+02  0.66014438945E+02  0.00000000000E+00 0.  1.
         21   -1    0    0  501  502 -0.00000000000E+00 -0.00000000000E+00 -0.59172660745E+02  0.59172660745E+02  0.00000000000E+00 0.  1.
         25    1    1    2    0    0  0.00000000000E+00  0.00000000000E+00  0.68417781998E+01  0.12518709969E+03  0.12500000000E+03 0.  0.
<mgrwt>
<rscale>  0 0.12500000E+03</rscale>
<asrwt>0</asrwt>
<pdfrwt beam="1">  1       21 0.10156068E-01 0.12500000E+03</pdfrwt>
<pdfrwt beam="2">  1       21 0.91034863E-02 0.12500000E+03</pdfrwt>
<totfact> 0.74018314E+06</totfact>
</mgrwt>
</event>
<event>
 3    1  0.1615911E-001  0.1250000E+03  0.7546771E-02  0.1235069E+00
         21   -1    0    0  502  501  0.00000000000E+00  0.00000000000E+00  0.57933517890E+01  0.57933517890E+01  0.00000000000E+00 0.  1.
         21   -1    0    0  501  502 -0.00000000000E+00 -0.00000000000E+00 -0.67426425018E+03  0.67426425018E+03  0.00000000000E+00 0.  1.
         25    1    1    2    0    0  0.00000000000E+00  0.00000000000E+00 -0.66847089839E+03  0.68005760196E+03  0.12500000000E+03 0.  0.
<mgrwt>
<rscale>  0 0.12500000E+03</rscale>
<asrwt>0</asrwt>
<pdfrwt beam="1">  1       21 0.89128457E-03 0.12500000E+03</pdfrwt>
<pdfrwt beam="2">  1       21 0.10373300E+00 0.12500000E+03</pdfrwt>
<totfact> 0.33693254E+06</totfact>
</mgrwt>
</event>
<event>
 3    1  0.1615911E-001  0.1250000E+03  0.7546771E-02  0.1235069E+00
         21   -1    0    0  502  501  0.00000000000E+00  0.00000000000E+00  0.89069127963E+02  0.89069127963E+02  0.00000000000E+00 0. -1.
         21   -1    0    0  501  502 -0.00000000000E+00 -0.00000000000E+00 -0.43856385364E+02  0.43856385364E+02  0.00000000000E+00 0. -1.
         25    1    1    2    0    0  0.00000000000E+00  0.00000000000E+00  0.45212742598E+02  0.13292551333E+03  0.12500000000E+03 0.  0.
<mgrwt>
<rscale>  0 0.12500000E+03</rscale>
<asrwt>0</asrwt>
<pdfrwt beam="1">  1       21 0.13702943E-01 0.12500000E+03</pdfrwt>
<pdfrwt beam="2">  1       21 0.67471362E-02 0.12500000E+03</pdfrwt>
<totfact> 0.72972346E+06</totfact>
</mgrwt>
</event>
<event>
 3    1  0.1615911E-001  0.1250000E+03  0.7546771E-02  0.1235069E+00
         21   -1    0    0  502  501  0.00000000000E+00  0.00000000000E+00  0.14240521702E+04  0.14240521702E+04  0.00000000000E+00 0. -1.
         21   -1    0    0  501  502 -0.00000000000E+00 -0.00000000000E+00 -0.27430525944E+01  0.27430525944E+01  0.00000000000E+00 0. -1.
         25    1    1    2    0    0  0.00000000000E+00  0.00000000000E+00  0.14213091176E+04  0.14267952228E+04  0.12500000000E+03 0.  0.
<mgrwt>
<rscale>  0 0.12500000E+03</rscale>
<asrwt>0</asrwt>
<pdfrwt beam="1">  1       21 0.21908436E+00 0.12500000E+03</pdfrwt>
<pdfrwt beam="2">  1       21 0.42200923E-03 0.12500000E+03</pdfrwt>
<totfact> 0.15114443E+06</totfact>
</mgrwt>
</event>
<event>
 3    1  0.1615911E-001  0.1250000E+03  0.7546771E-02  0.1235069E+00
         21   -1    0    0  502  501  0.00000000000E+00  0.00000000000E+00  0.10547992298E+03  0.10547992298E+03  0.00000000000E+00 0.  1.
         21   -1    0    0  501  502 -0.00000000000E+00 -0.00000000000E+00 -0.37033113881E+02  0.37033113881E+02  0.00000000000E+00 0.  1.
         25    1    1    2    0    0  0.00000000000E+00  0.00000000000E+00  0.68446809101E+02  0.14251303686E+03  0.12500000000E+03 0.  0.
<mgrwt>
<rscale>  0 0.12500000E+03</rscale>
<asrwt>0</asrwt>
<pdfrwt beam="1">  1       21 0.16227680E-01 0.12500000E+03</pdfrwt>
<pdfrwt beam="2">  1       21 0.56974022E-02 0.12500000E+03</pdfrwt>
<totfact> 0.71712911E+06</totfact>
</mgrwt>
</event>
<event>
 3    1  0.1615911E-001  0.1250000E+03  0.7546771E-02  0.1235069E+00
         21   -1    0    0  502  501  0.00000000000E+00  0.00000000000E+00  0.43608499825E+03  0.43608499825E+03  0.00000000000E+00 0.  1.
         21   -1    0    0  501  502 -0.00000000000E+00 -0.00000000000E+00 -0.89575427168E+01  0.89575427168E+01  0.00000000000E+00 0.  1.
         25    1    1    2    0    0  0.00000000000E+00  0.00000000000E+00  0.42712745553E+03  0.44504254097E+03  0.12500000000E+03 0.  0.
<mgrwt>
<rscale>  0 0.12500000E+03</rscale>
<asrwt>0</asrwt>
<pdfrwt beam="1">  1       21 0.67089983E-01 0.12500000E+03</pdfrwt>
<pdfrwt beam="2">  1       21 0.13780838E-02 0.12500000E+03</pdfrwt>
<totfact> 0.45190411E+06</totfact>
</mgrwt>
</event>
<event>
 3    1  0.1615911E-001  0.1250000E+03  0.7546771E-02  0.1235069E+00
         21   -1    0    0  502  501  0.00000000000E+00  0.00000000000E+00  0.44451480413E+02  0.44451480413E+02  0.00000000000E+00 0.  1.
         21   -1    0    0  501  502 -0.00000000000E+00 -0.00000000000E+00 -0.87876713299E+02  0.87876713299E+02  0.00000000000E+00 0.  1.
         25    1    1    2    0    0  0.00000000000E+00  0.00000000000E+00 -0.43425232885E+02  0.13232819371E+03  0.12500000000E+03 0.  0.
<mgrwt>
<rscale>  0 0.12500000E+03</rscale>
<asrwt>0</asrwt>
<pdfrwt beam="1">  1       21 0.68386894E-02 0.12500000E+03</pdfrwt>
<pdfrwt beam="2">  1       21 0.13519494E-01 0.12500000E+03</pdfrwt>
<totfact> 0.73052240E+06</totfact>
</mgrwt>
</event>
<event>
 3    1  0.1615911E-001  0.1250000E+03  0.7546771E-02  0.1235069E+00
         21   -1    0    0  502  501  0.00000000000E+00  0.00000000000E+00  0.47649548255E+03  0.47649548255E+03  0.00000000000E+00 0. -1.
         21   -1    0    0  501  502 -0.00000000000E+00 -0.00000000000E+00 -0.81978741521E+01  0.81978741521E+01  0.00000000000E+00 0. -1.
         25    1    1    2    0    0  0.00000000000E+00  0.00000000000E+00  0.46829760840E+03  0.48469335670E+03  0.12500000000E+03 0.  0.
<mgrwt>
<rscale>  0 0.12500000E+03</rscale>
<asrwt>0</asrwt>
<pdfrwt beam="1">  1       21 0.73306975E-01 0.12500000E+03</pdfrwt>
<pdfrwt beam="2">  1       21 0.12612118E-02 0.12500000E+03</pdfrwt>
<totfact> 0.42886545E+06</totfact>
</mgrwt>
</event>
<event>
 3    1  0.1615911E-001  0.1250000E+03  0.7546771E-02  0.1235069E+00
         21   -1    0    0  502  501  0.00000000000E+00  0.00000000000E+00  0.49410186473E+02  0.49410186473E+02  0.00000000000E+00 0.  1.
         21   -1    0    0  501  502 -0.00000000000E+00 -0.00000000000E+00 -0.79057584657E+02  0.79057584657E+02  0.00000000000E+00 0.  1.
         25    1    1    2    0    0  0.00000000000E+00  0.00000000000E+00 -0.29647398184E+02  0.12846777113E+03  0.12500000000E+03 0.  0.
<mgrwt>
<rscale>  0 0.12500000E+03</rscale>
<asrwt>0</asrwt>
<pdfrwt beam="1">  1       21 0.76015672E-02 0.12500000E+03</pdfrwt>
<pdfrwt beam="2">  1       21 0.12162705E-01 0.12500000E+03</pdfrwt>
<totfact> 0.73570463E+06</totfact>
</mgrwt>
</event>
<event>
 3    1  0.1615911E-001  0.1250000E+03  0.7546771E-02  0.1235069E+00
         21   -1    0    0  502  501  0.00000000000E+00  0.00000000000E+00  0.63255462190E+01  0.63255462190E+01  0.00000000000E+00 0.  1.
         21   -1    0    0  501  502 -0.00000000000E+00 -0.00000000000E+00 -0.61753560322E+03  0.61753560322E+03  0.00000000000E+00 0.  1.
         25    1    1    2    0    0  0.00000000000E+00  0.00000000000E+00 -0.61121005700E+03  0.62386114943E+03  0.12500000000E+03 0.  0.
<mgrwt>
<rscale>  0 0.12500000E+03</rscale>
<asrwt>0</asrwt>
<pdfrwt beam="1">  1       21 0.97316089E-03 0.12500000E+03</pdfrwt>
<pdfrwt beam="2">  1       21 0.95005484E-01 0.12500000E+03</pdfrwt>
<totfact> 0.36035298E+06</totfact>
</mgrwt>
</event>
<event>
 3    1  0.1615911E-001  0.1250000E+03  0.7546771E-02  0.1235069E+00
         21   -1    0    0  502  501  0.00000000000E+00  0.00000000000E+00  0.62844275616E+02  0.62844275616E+02  0.00000000000E+00 0. -1.
         21   -1    0    0  501  502 -0.00000000000E+00 -0.00000000000E+00 -0.62157610406E+02  0.62157610406E+02  0.00000000000E+00 0. -1.
         25    1    1    2    0    0  0.00000000000E+00  0.00000000000E+00  0.68666520946E+00  0.12500188602E+03  0.12500000000E+03 0.  0.
<mgrwt>
<rscale>  0 0.12500000E+03</rscale>
<asrwt>0</asrwt>
<pdfrwt beam="1">  1       21 0.96683501E-02 0.12500000E+03</pdfrwt>
<pdfrwt beam="2">  1       21 0.95627093E-02 0.12500000E+03</pdfrwt>
<totfact> 0.74043327E+06</totfact>
</mgrwt>
</event>
<event>
 3    1  0.1615911E-001  0.1250000E+03  0.7546771E-02  0.1235069E+00
         21   -1    0    0  502  501  0.00000000000E+00  0.00000000000E+00  0.12404105762E+04  0.12404105762E+04  0.00000000000E+00 0.  1.
         21   -1    0    0  501  502 -0.00000000000E+00 -0.00000000000E+00 -0.31491588954E+01  0.31491588954E+01  0.00000000000E+00 0.  1.
         25    1    1    2    0    0  0.00000000000E+00  0.00000000000E+00  0.12372614173E+04  0.12435597351E+04  0.12500000000E+03 0.  0.
<mgrwt>
<rscale>  0 0.12500000E+03</rscale>
<asrwt>0</asrwt>
<pdfrwt beam="1">  1       21 0.19083201E+00 0.12500000E+03</pdfrwt>
<pdfrwt beam="2">  1       21 0.48448697E-03 0.12500000E+03</pdfrwt>
<totfact> 0.18296420E+06</totfact>
</mgrwt>
</event>
<event>
 3    1  0.1615911E-001  0.1250000E+03  0.7546771E-02  0.1235069E+00
         21   -1    0    0  502  501  0.00000000000E+00  0.00000000000E+00  0.12703151063E+03  0.12703151063E+03  0.00000000000E+00 0.  1.
         21   -1    0    0  501  502 -0.00000000000E+00 -0.00000000000E+00 -0.30750244412E+02  0.30750244412E+02  0.00000000000E+00 0.  1.
         25    1    1    2    0    0  0.00000000000E+00  0.00000000000E+00  0.96281266221E+02  0.15778175505E+03  0.12500000000E+03 0.  0.
<mgrwt>
<rscale>  0 0.12500000E+03</rscale>
<asrwt>0</asrwt>
<pdfrwt beam="1">  1       21 0.19543309E-01 0.12500000E+03</pdfrwt>
<pdfrwt beam="2">  1       21 0.47308069E-02 0.12500000E+03</pdfrwt>
<totfact> 0.69791562E+06</totfact>
</mgrwt>
</event>
<event>
 3    1  0.1615911E-001  0.1250000E+03  0.7546771E-02  0.1235069E+00
         21   -1    0    0  502  501  0.00000000000E+00  0.00000000000E+00  0.66873620351E+03  0.66873620351E+03  0.00000000000E+00 0. -1.
         21   -1    0    0  501  502 -0.00000000000E+00 -0.00000000000E+00 -0.58412420017E+01  0.58412420017E+01  0.00000000000E+00 0. -1.
         25    1    1    2    0    0  0.00000000000E+00  0.00000000000E+00  0.66289496151E+03  0.67457744551E+03  0.12500000000E+03 0.  0.
<mgrwt>
<rscale>  0 0.12500000E+03</rscale>
<asrwt>0</asrwt>
<pdfrwt beam="1">  1       21 0.10288243E+00 0.12500000E+03</pdfrwt>
<pdfrwt beam="2">  1       21 0.89865314E-03 0.12500000E+03</pdfrwt>
<totfact> 0.33913511E+06</totfact>
</mgrwt>
</event>
<event>
 3    1  0.1615911E-001  0.1250000E+03  0.7546771E-02  0.1235069E+00
         21   -1    0    0  502  501  0.00000000000E+00  0.00000000000E+00  0.26682205041E+03  0.26682205041E+03  0.00000000000E+00 0.  1.
         21   -1    0    0  501  502 -0.00000000000E+00 -0.00000000000E+00 -0.14639906987E+02  0.14639906987E+02  0.00000000000E+00 0.  1.
         25    1    1    2    0    0  0.00000000000E+00  0.00000000000E+00  0.25218214342E+03  0.28146195739E+03  0.12500000000E+03 0.  0.
<mgrwt>
<rscale>  0 0.12500000E+03</rscale>
<asrwt>0</asrwt>
<pdfrwt beam="1">  1       21 0.41049542E-01 0.12500000E+03</pdfrwt>
<pdfrwt beam="2">  1       21 0.22522936E-02 0.12500000E+03</pdfrwt>
<totfact> 0.57032827E+06</totfact>
</mgrwt>
</event>
<event>
 3    1  0.1615911E-001  0.1250000E+03  0.7546771E-02  0.1235069E+00
         21   -1    0    0  502  501  0.00000000000E+00  0.00000000000E+00  0.92493035107E+02  0.92493035107E+02  0.00000000000E+00 0.  1.
         21   -1    0    0  501  502 -0.00000000000E+00 -0.00000000000E+00 -0.42232909705E+02  0.42232909705E+02  0.00000000000E+00 0.  1.
         25    1    1    2    0    0  0.00000000000E+00  0.00000000000E+00  0.50260125402E+02  0.13472594481E+03  0.12500000000E+03 0.  0.
<mgrwt>
<rscale>  0 0.12500000E+03</rscale>
<asrwt>0</asrwt>
<pdfrwt beam="1">  1       21 0.14229698E-01 0.12500000E+03</pdfrwt>
<pdfrwt beam="2">  1       21 0.64973708E-02 0.12500000E+03</pdfrwt>
<totfact> 0.72732779E+06</totfact>
</mgrwt>
</event>
<event>
 3    1  0.1615911E-001  0.1250000E+03  0.7546771E-02  0.1235069E+00
         21   -1    0    0  502  501  0.00000000000E+00  0.00000000000E+00  0.26985084932E+02  0.26985084932E+02  0.00000000000E+00 0. -1.
         21   -1    0    0  501  502 -0.00000000000E+00 -0.00000000000E+00 -0.14475589052E+03  0.14475589052E+03  0.00000000000E+00 0. -1.
         25    1    1    2    0    0  0.00000000000E+00  0.00000000000E+00 -0.11777080558E+03  0.17174097545E+03  0.12500000000E+03 0.  0.
<mgrwt>
<rscale>  0 0.12500000E+03</rscale>
<asrwt>0</asrwt>
<pdfrwt beam="1">  1       21 0.41515515E-02 0.12500000E+03</pdfrwt>
<pdfrwt beam="2">  1       21 0.22270137E-01 0.12500000E+03</pdfrwt>
<totfact> 0.68111850E+06</totfact>
</mgrwt>
</event>
<event>
 3    1  0.1615911E-001  0.1250000E+03  0.7546771E-02  0.1235069E+00
         21   -1    0    0  502  501  0.00000000000E+00  0.00000000000E+00  0.39654731314E+02  0.39654731314E+02  0.00000000000E+00 0. -1.
         21   -1    0    0  501  502 -0.00000000000E+00 -0.00000000000E+00 -0.98506530508E+02  0.98506530508E+02  0.00000000000E+00 0. -1.
         25    1    1    2    0    0  0.00000000000E+00  0.00000000000E+00 -0.58851799194E+02  0.13816126182E+03  0.12500000000E+03 0.  0.
<mgrwt>
<rscale>  0 0.12500000E+03</rscale>
<asrwt>0</asrwt>
<pdfrwt beam="1">  1       21 0.61007280E-02 0.12500000E+03</pdfrwt>
<pdfrwt beam="2">  1       21 0.15154851E-01 0.12500000E+03</pdfrwt>
<totfact> 0.72280270E+06</totfact>
</mgrwt>
</event>
<event>
 3    1  0.1615911E-001  0.1250000E+03  0.7546771E-02  0.1235069E+00
         21   -1    0    0  502  501  0.00000000000E+00  0.00000000000E+00  0.17024783033E+03  0.17024783033E+03  0.00000000000E+00 0. -1.
         21   -1    0    0  501  502 -0.00000000000E+00 -0.00000000000E+00 -0.22944492112E+02  0.22944492112E+02  0.00000000000E+00 0. -1.
         25    1    1    2    0    0  0.00000000000E+00  0.00000000000E+00  0.14730333822E+03  0.19319232244E+03  0.12500000000E+03 0.  0.
<mgrwt>
<rscale>  0 0.12500000E+03</rscale>
<asrwt>0</asrwt>
<pdfrwt beam="1">  1       21 0.26191973E-01 0.12500000E+03</pdfrwt>
<pdfrwt beam="2">  1       21 0.35299220E-02 0.12500000E+03</pdfrwt>
<totfact> 0.65669413E+06</totfact>
</mgrwt>
</event>
<event>
 3    1  0.1615911E-001  0.1250000E+03  0.7546771E-02  0.1235069E+00
         21   -1    0    0  502  501  0.00000000000E+00  0.00000000000E+00  0.10000941710E+03  0.10000941710E+03  0.00000000000E+00 0. -1.
         21   -1    0    0  501  502 -0.00000000000E+00 -0.00000000000E+00 -0.39058821793E+02  0.39058821793E+02  0.00000000000E+00 0. -1.
         25    1    1    2    0    0  0.00000000000E+00  0.00000000000E+00  0.60950595303E+02  0.13906823889E+03  0.12500000000E+03 0.  0.
<mgrwt>
<rscale>  0 0.12500000E+03</rscale>
<asrwt>0</asrwt>
<pdfrwt beam="1">  1       21 0.15386064E-01 0.12500000E+03</pdfrwt>
<pdfrwt beam="2">  1       21 0.60090495E-02 0.12500000E+03</pdfrwt>
<totfact> 0.72161182E+06</totfact>
</mgrwt>
</event>
<event>
 3    1  0.1615911E-001  0.1250000E+03  0.7546771E-02  0.1235069E+00
         21   -1    0    0  502  501  0.00000000000E+00  0.00000000000E+00  0.14534419763E+04  0.14534419763E+04  0.00000000000E+00 0.  1.
         21   -1    0    0  501  502 -0.00000000000E+00 -0.00000000000E+00 -0.26875857885E+01  0.26875857885E+01  0.00000000000E+00 0.  1.
         25    1    1    2    0    0  0.00000000000E+00  0.00000000000E+00  0.14507543905E+04  0.14561295621E+04  0.12500000000E+03 0.  0.
<mgrwt>
<rscale>  0 0.12500000E+03</rscale>
<asrwt>0</asrwt>
<pdfrwt beam="1">  1       21 0.22360583E+00 0.12500000E+03</pdfrwt>
<pdfrwt beam="2">  1       21 0.41347590E-03 0.12500000E+03</pdfrwt>
<totfact> 0.14656002E+06</totfact>
</mgrwt>
</event>
<event>
 3    1  0.1615911E-001  0.1250000E+03  0.7546771E-02  0.1235069E+00
         21   -1    0    0  502  501  0.00000000000E+00  0.00000000000E+00  0.68802107087E+02  0.68802107087E+02  0.00000000000E+00 0.  1.
         21   -1    0    0  501  502 -0.00000000000E+00 -0.00000000000E+00 -0.56775150724E+02  0.56775150724E+02  0.00000000000E+00 0.  1.
         25    1    1    2    0    0  0.00000000000E+00  0.00000000000E+00  0.12026956363E+02  0.12557725781E+03  0.12500000000E+03 0.  0.
<mgrwt>
<rscale>  0 0.12500000E+03</rscale>
<asrwt>0</asrwt>
<pdfrwt beam="1">  1       21 0.10584940E-01 0.12500000E+03</pdfrwt>
<pdfrwt beam="2">  1       21 0.87346385E-02 0.12500000E+03</pdfrwt>
<totfact> 0.73964611E+06</totfact>
</mgrwt>
</event>
<event>
 3    1  0.1615911E-001  0.1250000E+03  0.7546771E-02  0.1235069E+00
         21   -1    0    0  502  501  0.00000000000E+00  0.00000000000E+00  0.16160259998E+02  0.16160259998E+02  0.00000000000E+00 0.  1.
         21   -1    0    0  501  502 -0.00000000000E+00 -0.00000000000E+00 -0.24171950206E+03  0.24171950206E+03  0.00000000000E+00 0.  1.
         25    1    1    2    0    0  0.00000000000E+00  0.00000000000E+00 -0.22555924207E+03  0.25787976206E+03  0.12500000000E+03 0.  0.
<mgrwt>
<rscale>  0 0.12500000E+03</rscale>
<asrwt>0</asrwt>
<pdfrwt beam="1">  1       21 0.24861939E-02 0.12500000E+03</pdfrwt>
<pdfrwt beam="2">  1       21 0.37187614E-01 0.12500000E+03</pdfrwt>
<totfact> 0.59144152E+06</totfact>
</mgrwt>
</event>
<event>
 3    1  0.1615911E-001  0.1250000E+03  0.7546771E-02  0.1235069E+00
         21   -1    0    0  502  501  0.00000000000E+00  0.00000000000E+00  0.15066287530E+02  0.15066287530E+02  0.00000000000E+00 0. -1.
         21   -1    0    0  501  502 -0.00000000000E+00 -0.00000000000E+00 -0.25927090481E+03  0.25927090481E+03  0.00000000000E+00 0. -1.
         25    1    1    2    0    0  0.00000000000E+00  0.00000000000E+00 -0.24420461728E+03  0.27433719234E+03  0.12500000000E+03 0.  0.
<mgrwt>
<rscale>  0 0.12500000E+03</rscale>
<asrwt>0</asrwt>
<pdfrwt beam="1">  1       21 0.23178906E-02 0.12500000E+03</pdfrwt>
<pdfrwt beam="2">  1       21 0.39887828E-01 0.12500000E+03</pdfrwt>
<totfact> 0.57658640E+06</totfact>
</mgrwt>
</event>
<event>
 3    1  0.1615911E-001  0.1250000E+03  0.7546771E-02  0.1235069E+00
         21   -1    0    0  502  501  0.00000000000E+00  0.00000000000E+00  0.83512125934E+03  0.83512125934E+03  0.00000000000E+00 0. -1.
         21   -1    0    0  501  502 -0.00000000000E+00 -0.00000000000E+00 -0.46774644476E+01  0.46774644476E+01  0.00000000000E+00 0. -1.
         25    1    1    2    0    0  0.00000000000E+00  0.00000000000E+00  0.83044379489E+03  0.83979872379E+03  0.12500000000E+03 0.  0.
<mgrwt>
<rscale>  0 0.12500000E+03</rscale>
<asrwt>0</asrwt>
<pdfrwt beam="1">  1       21 0.12848008E+00 0.12500000E+03</pdfrwt>
<pdfrwt beam="2">  1       21 0.71961058E-03 0.12500000E+03</pdfrwt>
<totfact> 0.28085959E+06</totfact>
</mgrwt>
</event>
<event>
 3    1  0.1615911E-001  0.1250000E+03  0.7546771E-02  0.1235069E+00
         21   -1    0    0  502  501  0.00000000000E+00  0.00000000000E+00  0.76202448738E+02  0.76202448738E+02  0.00000000000E+00 0. -1.
         21   -1    0    0  501  502 -0.00000000000E+00 -0.00000000000E+00 -0.51261476038E+02  0.51261476038E+02  0.00000000000E+00 0. -1.
         25    1    1    2    0    0  0.00000000000E+00  0.00000000000E+00  0.24940972700E+02  0.12746392478E+03  0.12500000000E+03 0.  0.
<mgrwt>
<rscale>  0 0.12500000E+03</rscale>
<asrwt>0</asrwt>
<pdfrwt beam="1">  1       21 0.11723454E-01 0.12500000E+03</pdfrwt>
<pdfrwt beam="2">  1       21 0.78863809E-02 0.12500000E+03</pdfrwt>
<totfact> 0.73706109E+06</totfact>
</mgrwt>
</event>
<event>
 3    1  0.1615911E-001  0.1250000E+03  0.7546771E-02  0.1235069E+00
         21   -1    0    0  502  501  0.00000000000E+00  0.00000000000E+00  0.22602169581E+03  0.22602169581E+03  0.00000000000E+00 0.  1.
         21   -1    0    0  501  502 -0.00000000000E+00 -0.00000000000E+00 -0.17282632917E+02  0.17282632917E+02  0.00000000000E+00 0.  1.
         25    1    1    2    0    0  0.00000000000E+00  0.00000000000E+00  0.20873906289E+03  0.24330432872E+03  0.12500000000E+03 0.  0.
<mgrwt>
<rscale>  0 0.12500000E+03</rscale>
<asrwt>0</asrwt>
<pdfrwt beam="1">  1       21 0.34772566E-01 0.12500000E+03</pdfrwt>
<pdfrwt beam="2">  1       21 0.26588668E-02 0.12500000E+03</pdfrwt>
<totfact> 0.60514369E+06</totfact>
</mgrwt>
</event>
<event>
 3    1  0.1615911E-001  0.1250000E+03  0.7546771E-02  0.1235069E+00
         21   -1    0    0  502  501  0.00000000000E+00  0.00000000000E+00  0.39173741075E+03  0.39173741075E+03  0.00000000000E+00 0. -1.
         21   -1    0    0  501  502 -0.00000000000E+00 -0.00000000000E+00 -0.99716031524E+01  0.99716031524E+01  0.00000000000E+00 0. -1.
         25    1    1    2    0    0  0.00000000000E+00  0.00000000000E+00  0.38176580760E+03  0.40170901391E+03  0.12500000000E+03 0.  0.
<mgrwt>
<rscale>  0 0.12500000E+03</rscale>
<asrwt>0</asrwt>
<pdfrwt beam="1">  1       21 0.60267282E-01 0.12500000E+03</pdfrwt>
<pdfrwt beam="2">  1       21 0.15340931E-02 0.12500000E+03</pdfrwt>
<totfact> 0.47928205E+06</totfact>
</mgrwt>
</event>
<event>
 3    1  0.1615911E-001  0.1250000E+03  0.7546771E-02  0.1235069E+00
         21   -1    0    0  502  501  0.00000000000E+00  0.00000000000E+00  0.52589286846E+03  0.52589286846E+03  0.00000000000E+00 0.  1.
         21   -1    0    0  501  502 -0.00000000000E+00 -0.00000000000E+00 -0.74278436431E+01  0.74278436431E+01  0.00000000000E+00 0.  1.
         25    1    1    2    0    0  0.00000000000E+00  0.00000000000E+00  0.51846502482E+03  0.53332071211E+03  0.12500000000E+03 0.  0.
<mgrwt>
<rscale>  0 0.12500000E+03</rscale>
<asrwt>0</asrwt>
<pdfrwt beam="1">  1       21 0.80906566E-01 0.12500000E+03</pdfrwt>
<pdfrwt beam="2">  1       21 0.11427456E-02 0.12500000E+03</pdfrwt>
<totfact> 0.40292819E+06</totfact>
</mgrwt>
</event>
<event>
 3    1  0.1615911E-001  0.1250000E+03  0.7546771E-02  0.1235069E+00
         21   -1    0    0  502  501  0.00000000000E+00  0.00000000000E+00  0.17110416605E+02  0.17110416605E+02  0.00000000000E+00 0.  1.
         21   -1    0    0  501  502 -0.00000000000E+00 -0.00000000000E+00 -0.22829660377E+03  0.22829660377E+03  0.00000000000E+00 0.  1.
         25    1    1    2    0    0  0.00000000000E+00  0.00000000000E+00 -0.21118618716E+03  0.24540702037E+03  0.12500000000E+03 0.  0.
<mgrwt>
<rscale>  0 0.12500000E+03</rscale>
<asrwt>0</asrwt>
<pdfrwt beam="1">  1       21 0.26323720E-02 0.12500000E+03</pdfrwt>
<pdfrwt beam="2">  1       21 0.35122551E-01 0.12500000E+03</pdfrwt>
<totfact> 0.60313328E+06</totfact>
</mgrwt>
</event>
<event>
 3    1  0.1615911E-001  0.1250000E+03  0.7546771E-02  0.1235069E+00
         21   -1    0    0  502  501  0.00000000000E+00  0.00000000000E+00  0.20965997588E+03  0.20965997588E+03  0.00000000000E+00 0. -1.
         21   -1    0    0  501  502 -0.00000000000E+00 -0.00000000000E+00 -0.18631357671E+02  0.18631357671E+02  0.00000000000E+00 0. -1.
         25    1    1    2    0    0  0.00000000000E+00  0.00000000000E+00  0.19102861821E+03  0.22829133355E+03  0.12500000000E+03 0.  0.
<mgrwt>
<rscale>  0 0.12500000E+03</rscale>
<asrwt>0</asrwt>
<pdfrwt beam="1">  1       21 0.32255379E-01 0.12500000E+03</pdfrwt>
<pdfrwt beam="2">  1       21 0.28663629E-02 0.12500000E+03</pdfrwt>
<totfact> 0.61984434E+06</totfact>
</mgrwt>
</event>
<event>
 3    1  0.1615911E-001  0.1250000E+03  0.7546771E-02  0.1235069E+00
         21   -1    0    0  502  501  0.00000000000E+00  0.00000000000E+00  0.61814134731E+02  0.61814134731E+02  0.00000000000E+00 0.  1.
         21   -1    0    0  501  502 -0.00000000000E+00 -0.00000000000E+00 -0.63193475359E+02  0.63193475359E+02  0.00000000000E+00 0.  1.
         25    1    1    2    0    0  0.00000000000E+00  0.00000000000E+00 -0.13793406278E+01  0.12500761009E+03  0.12500000000E+03 0.  0.
<mgrwt>
<rscale>  0 0.12500000E+03</rscale>
<asrwt>0</asrwt>
<pdfrwt beam="1">  1       21 0.95098669E-02 0.12500000E+03</pdfrwt>
<pdfrwt beam="2">  1       21 0.97220731E-02 0.12500000E+03</pdfrwt>
<totfact> 0.74042554E+06</totfact>
</mgrwt>
</event>
<event>
 3    1  0.1615911E-001  0.1250000E+03  0.7546771E-02  0.1235069E+00
         21   -1    0    0  502  501  0.00000000000E+00  0.00000000000E+00  0.34309075916E+02  0.34309075916E+02  0.00000000000E+00 0. -1.
         21   -1    0    0  501  502 -0.00000000000E+00 -0.00000000000E+00 -0.11385471324E+03  0.11385471324E+03  0.00000000000E+00 0. -1.
         25    1    1    2    0    0  0.00000000000E+00  0.00000000000E+00 -0.79545637326E+02  0.14816378916E+03  0.12500000000E+03 0.  0.
<mgrwt>
<rscale>  0 0.12500000E+03</rscale>
<asrwt>0</asrwt>
<pdfrwt beam="1">  1       21 0.52783194E-02 0.12500000E+03</pdfrwt>
<pdfrwt beam="2">  1       21 0.17516110E-01 0.12500000E+03</pdfrwt>
<totfact> 0.70990631E+06</totfact>
</mgrwt>
</event>
<event>
 3    1  0.1615911E-001  0.1250000E+03  0.7546771E-02  0.1235069E+00
         21   -1    0    0  502  501  0.00000000000E+00  0.00000000000E+00  0.16310148417E+03  0.16310148417E+03  0.00000000000E+00 0.  1.
         21   -1    0    0  501  502 -0.00000000000E+00 -0.00000000000E+00 -0.23949812719E+02  0.23949812719E+02  0.00000000000E+00 0.  1.
         25    1    1    2    0    0  0.00000000000E+00  0.00000000000E+00  0.13915167145E+03  0.18705129689E+03  0.12500000000E+03 0.  0.
<mgrwt>
<rscale>  0 0.12500000E+03</rscale>
<asrwt>0</asrwt>
<pdfrwt beam="1">  1       21 0.25092535E-01 0.12500000E+03</pdfrwt>
<pdfrwt beam="2">  1       21 0.36845867E-02 0.12500000E+03</pdfrwt>
<totfact> 0.66351694E+06</totfact>
</mgrwt>
</event>
<event>
 3    1  0.1615911E-001  0.1250000E+03  0.7546771E-02  0.1235069E+00
         21   -1    0    0  502  501  0.00000000000E+00  0.00000000000E+00  0.34364594989E+02  0.34364594989E+02  0.00000000000E+00 0.  1.
         21   -1    0    0  501  502 -0.00000000000E+00 -0.00000000000E+00 -0.11367077078E+03  0.11367077078E+03  0.00000000000E+00 0.  1.
         25    1    1    2    0    0  0.00000000000E+00  0.00000000000E+00 -0.79306175792E+02  0.14803536577E+03  0.12500000000E+03 0.  0.
<mgrwt>
<rscale>  0 0.12500000E+03</rscale>
<asrwt>0</asrwt>
<pdfrwt beam="1">  1       21 0.52868609E-02 0.12500000E+03</pdfrwt>
<pdfrwt beam="2">  1       21 0.17487811E-01 0.12500000E+03</pdfrwt>
<totfact> 0.71006875E+06</totfact>
</mgrwt>
</event>
<event>
 3    1  0.1615911E-001  0.1250000E+03  0.7546771E-02  0.1235069E+00
         21   -1    0    0  502  501  0.00000000000E+00  0.00000000000E+00  0.16023473275E+02  0.16023473275E+02  0.00000000000E+00 0. -1.
         21   -1    0    0  501  502 -0.00000000000E+00 -0.00000000000E+00 -0.24378297594E+03  0.24378297594E+03  0.00000000000E+00 0. -1.
         25    1    1    2    0    0  0.00000000000E+00  0.00000000000E+00 -0.22775950267E+03  0.25980644922E+03  0.12500000000E+03 0.  0.
<mgrwt>
<rscale>  0 0.12500000E+03</rscale>
<asrwt>0</asrwt>
<pdfrwt beam="1">  1       21 0.24651498E-02 0.12500000E+03</pdfrwt>
<pdfrwt beam="2">  1       21 0.37505072E-01 0.12500000E+03</pdfrwt>
<totfact> 0.58967016E+06</totfact>
</mgrwt>
</event>
<event>
 3    1  0.1615911E-001  0.1250000E+03  0.7546771E-02  0.1235069E+00
         21   -1    0    0  502  501  0.00000000000E+00  0.00000000000E+00  0.24277101472E+02  0.24277101472E+02  0.00000000000E+00 0.  1.
         21   -1    0    0  501  502 -0.00000000000E+00 -0.00000000000E+00 -0.16090265160E+03  0.16090265160E+03  0.00000000000E+00 0.  1.
         25    1    1    2    0    0  0.00000000000E+00  0.00000000000E+00 -0.13662555013E+03  0.18517975307E+03  0.12500000000E+03 0.  0.
<mgrwt>
<rscale>  0 0.12500000E+03</rscale>
<asrwt>0</asrwt>
<pdfrwt beam="1">  1       21 0.37349387E-02 0.12500000E+03</pdfrwt>
<pdfrwt beam="2">  1       21 0.24754254E-01 0.12500000E+03</pdfrwt>
<totfact> 0.66562242E+06</totfact>
</mgrwt>
</event>
<event>
 3    1  0.1615911E-001  0.1250000E+03  0.7546771E-02  0.1235069E+00
         21   -1    0    0  502  501  0.00000000000E+00  0.00000000000E+00  0.37206512521E+03  0.37206512521E+03  0.00000000000E+00 0.  1.
         21   -1    0    0  501  502 -0.00000000000E+00 -0.00000000000E+00 -0.10498834035E+02  0.10498834035E+02  0.00000000000E+00 0.  1.
         25    1    1    2    0    0  0.00000000000E+00  0.00000000000E+00  0.36156629118E+03  0.38256395925E+03  0.12500000000E+03 0.  0.
<mgrwt>
<rscale>  0 0.12500000E+03</rscale>
<asrwt>0</asrwt>
<pdfrwt beam="1">  1       21 0.57240778E-01 0.12500000E+03</pdfrwt>
<pdfrwt beam="2">  1       21 0.16152055E-02 0.12500000E+03</pdfrwt>
<totfact> 0.49219786E+06</totfact>
</mgrwt>
</event>
<event>
 3    1  0.1615911E-001  0.1250000E+03  0.7546771E-02  0.1235069E+00
         21   -1    0    0  502  501  0.00000000000E+00  0.00000000000E+00  0.75384023262E+02  0.75384023262E+02  0.00000000000E+00 0.  1.
         21   -1    0    0  501  502 -0.00000000000E+00 -0.00000000000E+00 -0.51818009055E+02  0.51818009055E+02  0.00000000000E+00 0.  1.
         25    1    1    2    0    0  0.00000000000E+00  0.00000000000E+00  0.23566014206E+02  0.12720203232E+03  0.12500000000E+03 0.  0.
<mgrwt>
<rscale>  0 0.12500000E+03</rscale>
<asrwt>0</asrwt>
<pdfrwt beam="1">  1       21 0.11597542E-01 0.12500000E+03</pdfrwt>
<pdfrwt beam="2">  1       21 0.79720014E-02 0.12500000E+03</pdfrwt>
<totfact> 0.73741658E+06</totfact>
</mgrwt>
</event>
<event>
 3    1  0.1615911E-001  0.1250000E+03  0.7546771E-02  0.1235069E+00
         21   -1    0    0  502  501  0.00000000000E+00  0.00000000000E+00  0.58541213883E+02  0.58541213883E+02  0.00000000000E+00 0.  1.
         21   -1    0    0  501  502 -0.00000000000E+00 -0.00000000000E+00 -0.66726494736E+02  0.66726494736E+02  0.00000000000E+00 0.  1.
         25    1    1    2    0    0  0.00000000000E+00  0.00000000000E+00 -0.81852808524E+01  0.12526770862E+03  0.12500000000E+03 0.  0.
<mgrwt>
<rscale>  0 0.12500000E+03</rscale>
<asrwt>0</asrwt>
<pdfrwt beam="1">  1       21 0.90063407E-02 0.12500000E+03</pdfrwt>
<pdfrwt beam="2">  1       21 0.10265615E-01 0.12500000E+03</pdfrwt>
<totfact> 0.74007431E+06</totfact>
</mgrwt>
</event>
<event>
 3    1  0.1615911E-001  0.1250000E+03  0.7546771E-02  0.1235069E+00
         21   -1    0    0  502  501  0.00000000000E+00  0.00000000000E+00  0.13578029302E+04  0.13578029302E+04  0.00000000000E+00 0.  1.
         21   -1    0    0  501  502 -0.00000000000E+00 -0.00000000000E+00 -0.28768902417E+01  0.28768902417E+01  0.00000000000E+00 0.  1.
         25    1    1    2    0    0  0.00000000000E+00  0.00000000000E+00  0.13549260400E+04  0.13606798204E+04  0.12500000000E+03 0.  0.
<mgrwt>
<rscale>  0 0.12500000E+03</rscale>
<asrwt>0</asrwt>
<pdfrwt beam="1">  1       21 0.20889225E+00 0.12500000E+03</pdfrwt>
<pdfrwt beam="2">  1       21 0.44259958E-03 0.12500000E+03</pdfrwt>
<totfact> 0.16196845E+06</totfact>
</mgrwt>
</event>
<event>
 3    1  0.1615911E-001  0.1250000E+03  0.7546771E-02  0.1235069E+00
         21   -1    0    0  502  501  0.00000000000E+00  0.00000000000E+00  0.56384611636E+02  0.56384611636E+02  0.00000000000E+00 0.  1.
         21   -1    0    0  501  502 -0.00000000000E+00 -0.00000000000E+00 -0.69278653992E+02  0.69278653992E+02  0.00000000000E+00 0.  1.
         25    1    1    2    0    0  0.00000000000E+00  0.00000000000E+00 -0.12894042356E+02  0.12566326563E+03  0.12500000000E+03 0.  0.
<mgrwt>
<rscale>  0 0.12500000E+03</rscale>
<asrwt>0</asrwt>
<pdfrwt beam="1">  1       21 0.86745557E-02 0.12500000E+03</pdfrwt>
<pdfrwt beam="2">  1       21 0.10658254E-01 0.12500000E+03</pdfrwt>
<totfact> 0.73952640E+06</totfact>
</mgrwt>
</event>
<event>
 3    1  0.1615911E-001  0.1250000E+03  0.7546771E-02  0.1235069E+00
         21   -1    0    0  502  501  0.00000000000E+00  0.00000000000E+00  0.13248836974E+03  0.13248836974E+03  0.00000000000E+00 0. -1.
         21   -1    0    0  501  502 -0.00000000000E+00 -0.00000000000E+00 -0.29483720024E+02  0.29483720024E+02  0.00000000000E+00 0. -1.
         25    1    1    2    0    0  0.00000000000E+00  0.00000000000E+00  0.10300464972E+03  0.16197208977E+03  0.12500000000E+03 0.  0.
<mgrwt>
<rscale>  0 0.12500000E+03</rscale>
<asrwt>0</asrwt>
<pdfrwt beam="1">  1       21 0.20382826E-01 0.12500000E+03</pdfrwt>
<pdfrwt beam="2">  1       21 0.45359570E-02 0.12500000E+03</pdfrwt>
<totfact> 0.69279327E+06</totfact>
</mgrwt>
</event>
<event>
 3    1  0.1615911E-001  0.1250000E+03  0.7546771E-02  0.1235069E+00
         21   -1    0    0  502  501  0.00000000000E+00  0.00000000000E+00  0.32799936645E+02  0.32799936645E+02  0.00000000000E+00 0. -1.
         21   -1    0    0  501  502 -0.00000000000E+00 -0.00000000000E+00 -0.11909321784E+03  0.11909321784E+03  0.00000000000E+00 0. -1.
         25    1    1    2    0    0  0.00000000000E+00  0.00000000000E+00 -0.86293281195E+02  0.15189315449E+03  0.12500000000E+03 0.  0.
<mgrwt>
<rscale>  0 0.12500000E+03</rscale>
<asrwt>0</asrwt>
<pdfrwt beam="1">  1       21 0.50461442E-02 0.12500000E+03</pdfrwt>
<pdfrwt beam="2">  1       21 0.18322033E-01 0.12500000E+03</pdfrwt>
<totfact> 0.70522189E+06</totfact>
</mgrwt>
</event>
<event>
 3    1  0.1615911E-001  0.1250000E+03  0.7546771E-02  0.1235069E+00
         21   -1    0    0  502  501  0.00000000000E+00  0.00000000000E+00  0.78502375519E+01  0.78502375519E+01  0.00000000000E+00 0.  1.
         21   -1    0    0  501  502 -0.00000000000E+00 -0.00000000000E+00 -0.49759640701E+03  0.49759640701E+03  0.00000000000E+00 0.  1.
         25    1    1    2    0    0  0.00000000000E+00  0.00000000000E+00 -0.48974616946E+03  0.50544664456E+03  0.12500000000E+03 0.  0.
<mgrwt>
<rscale>  0 0.12500000E+03</rscale>
<asrwt>0</asrwt>
<pdfrwt beam="1">  1       21 0.12077286E-02 0.12500000E+03</pdfrwt>
<pdfrwt beam="2">  1       21 0.76553312E-01 0.12500000E+03</pdfrwt>
<totfact> 0.41750212E+06</totfact>
</mgrwt>
</event>
<event>
 3    1  0.1615911E-001  0.1250000E+03  0.7546771E-02  0.1235069E+00
         21   -1    0    0  502  501  0.00000000000E+00  0.00000000000E+00  0.34332324650E+02  0.34332324650E+02  0.00000000000E+00 0. -1.
         21   -1    0    0  501  502 -0.00000000000E+00 -0.00000000000E+00 -0.11377761453E+03  0.11377761453E+03  0.00000000000E+00 0. -1.
         25    1    1    2    0    0  0.00000000000E+00  0.00000000000E+00 -0.79445289881E+02  0.14810993918E+03  0.12500000000E+03 0.  0.
<mgrwt>
<rscale>  0 0.12500000E+03</rscale>
<asrwt>0</asrwt>
<pdfrwt beam="1">  1       21 0.52818961E-02 0.12500000E+03</pdfrwt>
<pdfrwt beam="2">  1       21 0.17504248E-01 0.12500000E+03</pdfrwt>
<totfact> 0.70997442E+06</totfact>
</mgrwt>
</event>
<event>
 3    1  0.1615911E-001  0.1250000E+03  0.7546771E-02  0.1235069E+00
         21   -1    0    0  502  501  0.00000000000E+00  0.00000000000E+00  0.27680979285E+03  0.27680979285E+03  0.00000000000E+00 0. -1.
         21   -1    0    0  501  502 -0.00000000000E+00 -0.00000000000E+00 -0.14111675602E+02  0.14111675602E+02  0.00000000000E+00 0. -1.
         25    1    1    2    0    0  0.00000000000E+00  0.00000000000E+00  0.26269811724E+03  0.29092146845E+03  0.12500000000E+03 0.  0.
<mgrwt>
<rscale>  0 0.12500000E+03</rscale>
<asrwt>0</asrwt>
<pdfrwt beam="1">  1       21 0.42586118E-01 0.12500000E+03</pdfrwt>
<pdfrwt beam="2">  1       21 0.21710272E-02 0.12500000E+03</pdfrwt>
<totfact> 0.56219178E+06</totfact>
</mgrwt>
</event>
<event>
 3    1  0.1615911E-001  0.1250000E+03  0.7546771E-02  0.1235069E+00
         21   -1    0    0  502  501  0.00000000000E+00  0.00000000000E+00  0.93136058057E+02  0.93136058057E+02  0.00000000000E+00 0.  1.
         21   -1    0    0  501  502 -0.00000000000E+00 -0.00000000000E+00 -0.41941328434E+02  0.41941328434E+02  0.00000000000E+00 0.  1.
         25    1    1    2    0    0  0.00000000000E+00  0.00000000000E+00  0.51194729623E+02  0.13507738649E+03  0.12500000000E+03 0.  0.
<mgrwt>
<rscale>  0 0.12500000E+03</rscale>
<asrwt>0</asrwt>
<pdfrwt beam="1">  1       21 0.14328624E-01 0.12500000E+03</pdfrwt>
<pdfrwt beam="2">  1       21 0.64525121E-02 0.12500000E+03</pdfrwt>
<totfact> 0.72686227E+06</totfact>
</mgrwt>
</event>
<event>
 3    1  0.1615911E-001  0.1250000E+03  0.7546771E-02  0.1235069E+00
         21   -1    0    0  502  501  0.00000000000E+00  0.00000000000E+00  0.57667910564E+02  0.57667910564E+02  0.00000000000E+00 0. -1.
         21   -1    0    0  501  502 -0.00000000000E+00 -0.00000000000E+00 -0.67736978188E+02  0.67736978188E+02  0.00000000000E+00 0. -1.
         25    1    1    2    0    0  0.00000000000E+00  0.00000000000E+00 -0.10069067624E+02  0.12540488875E+03  0.12500000000E+03 0.  0.
<mgrwt>
<rscale>  0 0.12500000E+03</rscale>
<asrwt>0</asrwt>
<pdfrwt beam="1">  1       21 0.88719863E-02 0.12500000E+03</pdfrwt>
<pdfrwt beam="2">  1       21 0.10421073E-01 0.12500000E+03</pdfrwt>
<totfact> 0.73988725E+06</totfact>
</mgrwt>
</event>
<event>
 3    1  0.1615911E-001  0.1250000E+03  0.7546771E-02  0.1235069E+00
         21   -1    0    0  502  501  0.00000000000E+00  0.00000000000E+00  0.26879121311E+03  0.26879121311E+03  0.00000000000E+00 0. -1.
         21   -1    0    0  501  502 -0.00000000000E+00 -0.00000000000E+00 -0.14532655122E+02  0.14532655122E+02  0.00000000000E+00 0. -1.
         25    1    1    2    0    0  0.00000000000E+00  0.00000000000E+00  0.25425855799E+03  0.28332386823E+03  0.12500000000E+03 0.  0.
<mgrwt>
<rscale>  0 0.12500000E+03</rscale>
<asrwt>0</asrwt>
<pdfrwt beam="1">  1       21 0.41352491E-01 0.12500000E+03</pdfrwt>
<pdfrwt beam="2">  1       21 0.22357933E-02 0.12500000E+03</pdfrwt>
<totfact> 0.56871141E+06</totfact>
</mgrwt>
</event>
<event>
 3    1  0.1615911E-001  0.1250000E+03  0.7546771E-02  0.1235069E+00
         21   -1    0    0  502  501  0.00000000000E+00  0.00000000000E+00  0.13384408621E+03  0.13384408621E+03  0.00000000000E+00 0.  1.
         21   -1    0    0  501  502 -0.00000000000E+00 -0.00000000000E+00 -0.29185077283E+02  0.29185077283E+02  0.00000000000E+00 0.  1.
         25    1    1    2    0    0  0.00000000000E+00  0.00000000000E+00  0.10465900893E+03  0.16302916350E+03  0.12500000000E+03 0.  0.
<mgrwt>
<rscale>  0 0.12500000E+03</rscale>
<asrwt>0</asrwt>
<pdfrwt beam="1">  1       21 0.20591398E-01 0.12500000E+03</pdfrwt>
<pdfrwt beam="2">  1       21 0.44900120E-02 0.12500000E+03</pdfrwt>
<totfact> 0.69151246E+06</totfact>
</mgrwt>
</event>
<event>
 3    1  0.1615911E-001  0.1250000E+03  0.7546771E-02  0.1235069E+00
         21   -1    0    0  502  501  0.00000000000E+00  0.00000000000E+00  0.34100416688E+01  0.34100416688E+01  0.00000000000E+00 0. -1.
         21   -1    0    0  501  502 -0.00000000000E+00 -0.00000000000E+00 -0.11455138615E+04  0.11455138615E+04  0.00000000000E+00 0. -1.
         25    1    1    2    0    0  0.00000000000E+00  0.00000000000E+00 -0.11421038199E+04  0.11489239032E+04  0.12500000000E+03 0.  0.
<mgrwt>
<rscale>  0 0.12500000E+03</rscale>
<asrwt>0</asrwt>
<pdfrwt beam="1">  1       21 0.52462190E-03 0.12500000E+03</pdfrwt>
<pdfrwt beam="2">  1       21 0.17623287E+00 0.12500000E+03</pdfrwt>
<totfact> 0.20191895E+06</totfact>
</mgrwt>
</event>
<event>
 3    1  0.1615911E-001  0.1250000E+03  0.7546771E-02  0.1235069E+00
         21   -1    0    0  502  501  0.00000000000E+00  0.00000000000E+00  0.17230805725E+04  0.17230805725E+04  0.00000000000E+00 0. -1.
         21   -1    0    0  501  502 -0.00000000000E+00 -0.00000000000E+00 -0.22670152878E+01  0.22670152878E+01  0.00000000000E+00 0. -1.
         25    1    1    2    0    0  0.00000000000E+00  0.00000000000E+00  0.17208135572E+04  0.17253475878E+04  0.12500000000E+03 0.  0.
<mgrwt>
<rscale>  0 0.12500000E+03</rscale>
<asrwt>0</asrwt>
<pdfrwt beam="1">  1       21 0.26508827E+00 0.12500000E+03</pdfrwt>
<pdfrwt beam="2">  1       21 0.34877296E-03 0.12500000E+03</pdfrwt>
<totfact> 0.10956532E+06</totfact>
</mgrwt>
</event>
<event>
 3    1  0.1615911E-001  0.1250000E+03  0.7546771E-02  0.1235069E+00
         21   -1    0    0  502  501  0.00000000000E+00  0.00000000000E+00  0.38328255031E+03  0.38328255031E+03  0.00000000000E+00 0. -1.
         21   -1    0    0  501  502 -0.00000000000E+00 -0.00000000000E+00 -0.10191567544E+02  0.10191567544E+02  0.00000000000E+00 0. -1.
         25    1    1    2    0    0  0.00000000000E+00  0.00000000000E+00  0.37309098277E+03  0.39347411786E+03  0.12500000000E+03 0.  0.
<mgrwt>
<rscale>  0 0.12500000E+03</rscale>
<asrwt>0</asrwt>
<pdfrwt beam="1">  1       21 0.58966535E-01 0.12500000E+03</pdfrwt>
<pdfrwt beam="2">  1       21 0.15679338E-02 0.12500000E+03</pdfrwt>
<totfact> 0.48477243E+06</totfact>
</mgrwt>
</event>
<event>
 3    1  0.1615911E-001  0.1250000E+03  0.7546771E-02  0.1235069E+00
         21   -1    0    0  502  501  0.00000000000E+00  0.00000000000E+00  0.87780924317E+03  0.87780924317E+03  0.00000000000E+00 0. -1.
         21   -1    0    0  501  502 -0.00000000000E+00 -0.00000000000E+00 -0.44499987103E+01  0.44499987103E+01  0.00000000000E+00 0. -1.
         25    1    1    2    0    0  0.00000000000E+00  0.00000000000E+00  0.87335924446E+03  0.88225924188E+03  0.12500000000E+03 0.  0.
<mgrwt>
<rscale>  0 0.12500000E+03</rscale>
<asrwt>0</asrwt>
<pdfrwt beam="1">  1       21 0.13504744E+00 0.12500000E+03</pdfrwt>
<pdfrwt beam="2">  1       21 0.68461589E-03 0.12500000E+03</pdfrwt>
<totfact> 0.26810877E+06</totfact>
</mgrwt>
</event>
<event>
 3    1  0.1615911E-001  0.1250000E+03  0.7546771E-02  0.1235069E+00
         21   -1    0    0  502  501  0.00000000000E+00  0.00000000000E+00  0.53417462937E+03  0.53417462937E+03  0.00000000000E+00 0.  1.
         21   -1    0    0  501  502 -0.00000000000E+00 -0.00000000000E+00 -0.73126835031E+01  0.73126835031E+01  0.00000000000E+00 0.  1.
         25    1    1    2    0    0  0.00000000000E+00  0.00000000000E+00  0.52686194587E+03  0.54148731288E+03  0.12500000000E+03 0.  0.
<mgrwt>
<rscale>  0 0.12500000E+03</rscale>
<asrwt>0</asrwt>
<pdfrwt beam="1">  1       21 0.82180681E-01 0.12500000E+03</pdfrwt>
<pdfrwt beam="2">  1       21 0.11250287E-02 0.12500000E+03</pdfrwt>
<totfact> 0.39879949E+06</totfact>
</mgrwt>
</event>
<event>
 3    1  0.1615911E-001  0.1250000E+03  0.7546771E-02  0.1235069E+00
         21   -1    0    0  502  501  0.00000000000E+00  0.00000000000E+00  0.11601469820E+02  0.11601469820E+02  0.00000000000E+00 0. -1.
         21   -1    0    0  501  502 -0.00000000000E+00 -0.00000000000E+00 -0.33670302646E+03  0.33670302646E+03  0.00000000000E+00 0. -1.
         25    1    1    2    0    0  0.00000000000E+00  0.00000000000E+00 -0.32510155664E+03  0.34830449629E+03  0.12500000000E+03 0.  0.
<mgrwt>
<rscale>  0 0.12500000E+03</rscale>
<asrwt>0</asrwt>
<pdfrwt beam="1">  1       21 0.17848419E-02 0.12500000E+03</pdfrwt>
<pdfrwt beam="2">  1       21 0.51800455E-01 0.12500000E+03</pdfrwt>
<totfact> 0.51663898E+06</totfact>
</mgrwt>
</event>
<event>
 3    1  0.1615911E-001  0.1250000E+03  0.7546771E-02  0.1235069E+00
         21   -1    0    0  502  501  0.00000000000E+00  0.00000000000E+00  0.16589320544E+02  0.16589320544E+02  0.00000000000E+00 0. -1.
         21   -1    0    0  501  502 -0.00000000000E+00 -0.00000000000E+00 -0.23546775105E+03  0.23546775105E+03  0.00000000000E+00 0. -1.
         25    1    1    2    0    0  0.00000000000E+00  0.00000000000E+00 -0.21887843051E+03  0.25205707159E+03  0.12500000000E+03 0.  0.
<mgrwt>
<rscale>  0 0.12500000E+03</rscale>
<asrwt>0</asrwt>
<pdfrwt beam="1">  1       21 0.25522033E-02 0.12500000E+03</pdfrwt>
<pdfrwt beam="2">  1       21 0.36225805E-01 0.12500000E+03</pdfrwt>
<totfact> 0.59685059E+06</totfact>
</mgrwt>
</event>
<event>
 3    1  0.1615911E-001  0.1250000E+03  0.7546771E-02  0.1235069E+00
         21   -1    0    0  502  501  0.00000000000E+00  0.00000000000E+00  0.22006502747E+03  0.22006502747E+03  0.00000000000E+00 0.  1.
         21   -1    0    0  501  502 -0.00000000000E+00 -0.00000000000E+00 -0.17750435155E+02  0.17750435155E+02  0.00000000000E+00 0.  1.
         25    1    1    2    0    0  0.00000000000E+00  0.00000000000E+00  0.20231459231E+03  0.23781546262E+03  0.12500000000E+03 0.  0.
<mgrwt>
<rscale>  0 0.12500000E+03</rscale>
<asrwt>0</asrwt>
<pdfrwt beam="1">  1       21 0.33856156E-01 0.12500000E+03</pdfrwt>
<pdfrwt beam="2">  1       21 0.27308363E-02 0.12500000E+03</pdfrwt>
<totfact> 0.61044699E+06</totfact>
</mgrwt>
</event>
<event>
 3    1  0.1615911E-001  0.1250000E+03  0.7546771E-02  0.1235069E+00
         21   -1    0    0  502  501  0.00000000000E+00  0.00000000000E+00  0.24523797802E+01  0.24523797802E+01  0.00000000000E+00 0.  1.
         21   -1    0    0  501  502 -0.00000000000E+00 -0.00000000000E+00 -0.15928405672E+04  0.15928405672E+04  0.00000000000E+00 0.  1.
         25    1    1    2    0    0  0.00000000000E+00  0.00000000000E+00 -0.15903881874E+04  0.15952929469E+04  0.12500000000E+03 0.  0.
<mgrwt>
<rscale>  0 0.12500000E+03</rscale>
<asrwt>0</asrwt>
<pdfrwt beam="1">  1       21 0.37728810E-03 0.12500000E+03</pdfrwt>
<pdfrwt beam="2">  1       21 0.24505311E+00 0.12500000E+03</pdfrwt>
<totfact> 0.12637671E+06</totfact>
</mgrwt>
</event>
<event>
 3    1  0.1615911E-001  0.1250000E+03  0.7546771E-02  0.1235069E+00
         21   -1    0    0  502  501  0.00000000000E+00  0.00000000000E+00  0.55921370268E+03  0.55921370268E+03  0.00000000000E+00 0. -1.
         21   -1    0    0  501  502 -0.00000000000E+00 -0.00000000000E+00 -0.69852544408E+01  0.69852544408E+01  0.00000000000E+00 0. -1.
         25    1    1    2    0    0  0.00000000000E+00  0.00000000000E+00  0.55222844824E+03  0.56619895712E+03  0.12500000000E+03 0.  0.
<mgrwt>
<rscale>  0 0.12500000E+03</rscale>
<asrwt>0</asrwt>
<pdfrwt beam="1">  1       21 0.86032842E-01 0.12500000E+03</pdfrwt>
<pdfrwt beam="2">  1       21 0.10746550E-02 0.12500000E+03</pdfrwt>
<totfact> 0.38667273E+06</totfact>
</mgrwt>
</event>
<event>
 3    1  0.1615911E-001  0.1250000E+03  0.7546771E-02  0.1235069E+00
         21   -1    0    0  502  501  0.00000000000E+00  0.00000000000E+00  0.64742769853E+03  0.64742769853E+03  0.00000000000E+00 0. -1.
         21   -1    0    0  501  502 -0.00000000000E+00 -0.00000000000E+00 -0.60334922477E+01  0.60334922477E+01  0.00000000000E+00 0. -1.
         25    1    1    2    0    0  0.00000000000E+00  0.00000000000E+00  0.64139420628E+03  0.65346119077E+03  0.12500000000E+03 0.  0.
<mgrwt>
<rscale>  0 0.12500000E+03</rscale>
<asrwt>0</asrwt>
<pdfrwt beam="1">  1       21 0.99604207E-01 0.12500000E+03</pdfrwt>
<pdfrwt beam="2">  1       21 0.92823009E-03 0.12500000E+03</pdfrwt>
<totfact> 0.34781008E+06</totfact>
</mgrwt>
</event>
<event>
 3    1  0.1615911E-001  0.1250000E+03  0.7546771E-02  0.1235069E+00
         21   -1    0    0  502  501  0.00000000000E+00  0.00000000000E+00  0.23148899222E+03  0.23148899222E+03  0.00000000000E+00 0. -1.
         21   -1    0    0  501  502 -0.00000000000E+00 -0.00000000000E+00 -0.16874452485E+02  0.16874452485E+02  0.00000000000E+00 0. -1.
         25    1    1    2    0    0  0.00000000000E+00  0.00000000000E+00  0.21461453974E+03  0.24836344471E+03  0.12500000000E+03 0.  0.
<mgrwt>
<rscale>  0 0.12500000E+03</rscale>
<asrwt>0</asrwt>
<pdfrwt beam="1">  1       21 0.35613689E-01 0.12500000E+03</pdfrwt>
<pdfrwt beam="2">  1       21 0.25960698E-02 0.12500000E+03</pdfrwt>
<totfact> 0.60032612E+06</totfact>
</mgrwt>
</event>
<event>
 3    1  0.1615911E-001  0.1250000E+03  0.7546771E-02  0.1235069E+00
         21   -1    0    0  502  501  0.00000000000E+00  0.00000000000E+00  0.97738454295E+02  0.97738454295E+02  0.00000000000E+00 0. -1.
         21   -1    0    0  501  502 -0.00000000000E+00 -0.00000000000E+00 -0.39966357440E+02  0.39966357440E+02  0.00000000000E+00 0. -1.
         25    1    1    2    0    0  0.00000000000E+00  0.00000000000E+00  0.57772096855E+02  0.13770481174E+03  0.12500000000E+03 0.  0.
<mgrwt>
<rscale>  0 0.12500000E+03</rscale>
<asrwt>0</asrwt>
<pdfrwt beam="1">  1       21 0.15036685E-01 0.12500000E+03</pdfrwt>
<pdfrwt beam="2">  1       21 0.61486704E-02 0.12500000E+03</pdfrwt>
<totfact> 0.72340277E+06</totfact>
</mgrwt>
</event>
<event>
 3    1  0.1615911E-001  0.1250000E+03  0.7546771E-02  0.1235069E+00
         21   -1    0    0  502  501  0.00000000000E+00  0.00000000000E+00  0.42565112829E+02  0.42565112829E+02  0.00000000000E+00 0.  1.
         21   -1    0    0  501  502 -0.00000000000E+00 -0.00000000000E+00 -0.91771165173E+02  0.91771165173E+02  0.00000000000E+00 0.  1.
         25    1    1    2    0    0  0.00000000000E+00  0.00000000000E+00 -0.49206052344E+02  0.13433627800E+03  0.12500000000E+03 0.  0.
<mgrwt>
<rscale>  0 0.12500000E+03</rscale>
<asrwt>0</asrwt>
<pdfrwt beam="1">  1       21 0.65484790E-02 0.12500000E+03</pdfrwt>
<pdfrwt beam="2">  1       21 0.14118641E-01 0.12500000E+03</pdfrwt>
<totfact> 0.72784474E+06</totfact>
</mgrwt>
</event>
<event>
 3    1  0.1615911E-001  0.1250000E+03  0.7546771E-02  0.1235069E+00
         21   -1    0    0  502  501  0.00000000000E+00  0.00000000000E+00  0.84437854456E+02  0.84437854456E+02  0.00000000000E+00 0. -1.
         21   -1    0    0  501  502 -0.00000000000E+00 -0.00000000000E+00 -0.46261833927E+02  0.46261833927E+02  0.00000000000E+00 0. -1.
         25    1    1    2    0    0  0.00000000000E+00  0.00000000000E+00  0.38176020529E+02  0.13069968838E+03  0.12500000000E+03 0.  0.
<mgrwt>
<rscale>  0 0.12500000E+03</rscale>
<asrwt>0</asrwt>
<pdfrwt beam="1">  1       21 0.12990439E-01 0.12500000E+03</pdfrwt>
<pdfrwt beam="2">  1       21 0.71172052E-02 0.12500000E+03</pdfrwt>
<totfact> 0.73271170E+06</totfact>
</mgrwt>
</event>
<event>
 3    1  0.1615911E-001  0.1250000E+03  0.7546771E-02  0.1235069E+00
         21   -1    0    0  502  501  0.00000000000E+00  0.00000000000E+00  0.12753194192E+02  0.12753194192E+02  0.00000000000E+00 0. -1.
         21   -1    0    0  501  502 -0.00000000000E+00 -0.00000000000E+00 -0.30629581429E+03  0.30629581429E+03  0.00000000000E+00 0. -1.
         25    1    1    2    0    0  0.00000000000E+00  0.00000000000E+00 -0.29354262010E+03  0.31904900849E+03  0.12500000000E+03 0.  0.
<mgrwt>
<rscale>  0 0.12500000E+03</rscale>
<asrwt>0</asrwt>
<pdfrwt beam="1">  1       21 0.19620301E-02 0.12500000E+03</pdfrwt>
<pdfrwt beam="2">  1       21 0.47122428E-01 0.12500000E+03</pdfrwt>
<totfact> 0.53908792E+06</totfact>
</mgrwt>
</event>
<event>
 3    1  0.1615911E-001  0.1250000E+03  0.7546771E-02  0.1235069E+00
         21   -1    0    0  502  501  0.00000000000E+00  0.00000000000E+00  0.10457126999E+03  0.10457126999E+03  0.00000000000E+00 0. -1.
         21   -1    0    0  501  502 -0.00000000000E+00 -0.00000000000E+00 -0.37354906374E+02  0.37354906374E+02  0.00000000000E+00 0. -1.
         25    1    1    2    0    0  0.00000000000E+00  0.00000000000E+00  0.67216363619E+02  0.14192617637E+03  0.12500000000E+03 0.  0.
<mgrwt>
<rscale>  0 0.12500000E+03</rscale>
<asrwt>0</asrwt>
<pdfrwt beam="1">  1       21 0.16087888E-01 0.12500000E+03</pdfrwt>
<pdfrwt beam="2">  1       21 0.57469087E-02 0.12500000E+03</pdfrwt>
<totfact> 0.71788837E+06</totfact>
</mgrwt>
</event>
<event>
 3    1  0.1615911E-001  0.1250000E+03  0.7546771E-02  0.1235069E+00
         21   -1    0    0  502  501  0.00000000000E+00  0.00000000000E+00  0.89553926096E+02  0.89553926096E+02  0.00000000000E+00 0. -1.
         21   -1    0    0  501  502 -0.00000000000E+00 -0.00000000000E+00 -0.43618969824E+02  0.43618969824E+02  0.00000000000E+00 0. -1.
         25    1    1    2    0    0  0.00000000000E+00  0.00000000000E+00  0.45934956272E+02  0.13317289592E+03  0.12500000000E+03 0.  0.
<mgrwt>
<rscale>  0 0.12500000E+03</rscale>
<asrwt>0</asrwt>
<pdfrwt beam="1">  1       21 0.13777527E-01 0.12500000E+03</pdfrwt>
<pdfrwt beam="2">  1       21 0.67106107E-02 0.12500000E+03</pdfrwt>
<totfact> 0.72939319E+06</totfact>
</mgrwt>
</event>
<event>
 3    1  0.1615911E-001  0.1250000E+03  0.7546771E-02  0.1235069E+00
         21   -1    0    0  502  501  0.00000000000E+00  0.00000000000E+00  0.87388921318E+03  0.87388921318E+03  0.00000000000E+00 0.  1.
         21   -1    0    0  501  502 -0.00000000000E+00 -0.00000000000E+00 -0.44699601976E+01  0.44699601976E+01  0.00000000000E+00 0.  1.
         25    1    1    2    0    0  0.00000000000E+00  0.00000000000E+00  0.86941925298E+03  0.87835917338E+03  0.12500000000E+03 0.  0.
<mgrwt>
<rscale>  0 0.12500000E+03</rscale>
<asrwt>0</asrwt>
<pdfrwt beam="1">  1       21 0.13444436E+00 0.12500000E+03</pdfrwt>
<pdfrwt beam="2">  1       21 0.68768688E-03 0.12500000E+03</pdfrwt>
<totfact> 0.26924510E+06</totfact>
</mgrwt>
</event>
<event>
 3    1  0.1615911E-001  0.1250000E+03  0.7546771E-02  0.1235069E+00
         21   -1    0    0  502  501  0.00000000000E+00  0.00000000000E+00  0.14165772870E+02  0.14165772870E+02  0.00000000000E+00 0. -1.
         21   -1    0    0  501  502 -0.00000000000E+00 -0.00000000000E+00 -0.27575269178E+03  0.27575269178E+03  0.00000000000E+00 0. -1.
         25    1    1    2    0    0  0.00000000000E+00  0.00000000000E+00 -0.26158691891E+03  0.28991846465E+03  0.12500000000E+03 0.  0.
<mgrwt>
<rscale>  0 0.12500000E+03</rscale>
<asrwt>0</asrwt>
<pdfrwt beam="1">  1       21 0.21793497E-02 0.12500000E+03</pdfrwt>
<pdfrwt beam="2">  1       21 0.42423490E-01 0.12500000E+03</pdfrwt>
<totfact> 0.56304535E+06</totfact>
</mgrwt>
</event>
<event>
 3    1  0.1615911E-001  0.1250000E+03  0.7546771E-02  0.1235069E+00
         21   -1    0    0  502  501  0.00000000000E+00  0.00000000000E+00  0.19949246434E+03  0.19949246434E+03  0.00000000000E+00 0.  1.
         21   -1    0    0  501  502 -0.00000000000E+00 -0.00000000000E+00 -0.19580940127E+02  0.19580940127E+02  0.00000000000E+00 0.  1.
         25    1    1    2    0    0  0.00000000000E+00  0.00000000000E+00  0.17991152421E+03  0.21907340446E+03  0.12500000000E+03 0.  0.
<mgrwt>
<rscale>  0 0.12500000E+03</rscale>
<asrwt>0</asrwt>
<pdfrwt beam="1">  1       21 0.30691147E-01 0.12500000E+03</pdfrwt>
<pdfrwt beam="2">  1       21 0.30124525E-02 0.12500000E+03</pdfrwt>
<totfact> 0.62917372E+06</totfact>
</mgrwt>
</event>
<event>
 3    1  0.1615911E-001  0.1250000E+03  0.7546771E-02  0.1235069E+00
         21   -1    0    0  502  501  0.00000000000E+00  0.00000000000E+00  0.82966736770E+01  0.82966736770E+01  0.00000000000E+00 0. -1.
         21   -1    0    0  501  502 -0.00000000000E+00 -0.00000000000E+00 -0.47082121728E+03  0.47082121728E+03  0.00000000000E+00 0. -1.
         25    1    1    2    0    0  0.00000000000E+00  0.00000000000E+00 -0.46252454361E+03  0.47911789096E+03  0.12500000000E+03 0.  0.
<mgrwt>
<rscale>  0 0.12500000E+03</rscale>
<asrwt>0</asrwt>
<pdfrwt beam="1">  1       21 0.12764109E-02 0.12500000E+03</pdfrwt>
<pdfrwt beam="2">  1       21 0.72434056E-01 0.12500000E+03</pdfrwt>
<totfact> 0.43199668E+06</totfact>
</mgrwt>
</event>
<event>
 3    1  0.1615911E-001  0.1250000E+03  0.7546771E-02  0.1235069E+00
         21   -1    0    0  502  501  0.00000000000E+00  0.00000000000E+00  0.10823336650E+03  0.10823336650E+03  0.00000000000E+00 0. -1.
         21   -1    0    0  501  502 -0.00000000000E+00 -0.00000000000E+00 -0.36090996024E+02  0.36090996024E+02  0.00000000000E+00 0. -1.
         25    1    1    2    0    0  0.00000000000E+00  0.00000000000E+00  0.72142370477E+02  0.14432436252E+03  0.12500000000E+03 0.  0.
<mgrwt>
<rscale>  0 0.12500000E+03</rscale>
<asrwt>0</asrwt>
<pdfrwt beam="1">  1       21 0.16651287E-01 0.12500000E+03</pdfrwt>
<pdfrwt beam="2">  1       21 0.55524609E-02 0.12500000E+03</pdfrwt>
<totfact> 0.71479676E+06</totfact>
</mgrwt>
</event>
<event>
 3    1  0.1615911E-001  0.1250000E+03  0.7546771E-02  0.1235069E+00
         21   -1    0    0  502  501  0.00000000000E+00  0.00000000000E+00  0.19275233668E+02  0.19275233668E+02  0.00000000000E+00 0. -1.
         21   -1    0    0  501  502 -0.00000000000E+00 -0.00000000000E+00 -0.20265642779E+03  0.20265642779E+03  0.00000000000E+00 0. -1.
         25    1    1    2    0    0  0.00000000000E+00  0.00000000000E+00 -0.18338119412E+03  0.22193166146E+03  0.12500000000E+03 0.  0.
<mgrwt>
<rscale>  0 0.12500000E+03</rscale>
<asrwt>0</asrwt>
<pdfrwt beam="1">  1       21 0.29654204E-02 0.12500000E+03</pdfrwt>
<pdfrwt beam="2">  1       21 0.31177914E-01 0.12500000E+03</pdfrwt>
<totfact> 0.62625637E+06</totfact>
</mgrwt>
</event>
<event>
 3    1  0.1615911E-001  0.1250000E+03  0.7546771E-02  0.1235069E+00
         21   -1    0    0  502  501  0.00000000000E+00  0.00000000000E+00  0.65307668452E+01  0.65307668452E+01  0.00000000000E+00 0. -1.
         21   -1    0    0  501  502 -0.00000000000E+00 -0.00000000000E+00 -0.59813037160E+03  0.59813037160E+03  0.00000000000E+00 0. -1.
         25    1    1    2    0    0  0.00000000000E+00  0.00000000000E+00 -0.59159960476E+03  0.60466113845E+03  0.12500000000E+03 0.  0.
<mgrwt>
<rscale>  0 0.12500000E+03</rscale>
<asrwt>0</asrwt>
<pdfrwt beam="1">  1       21 0.10047328E-02 0.12500000E+03</pdfrwt>
<pdfrwt beam="2">  1       21 0.92020106E-01 0.12500000E+03</pdfrwt>
<totfact> 0.36882668E+06</totfact>
</mgrwt>
</event>
<event>
 3    1  0.1615911E-001  0.1250000E+03  0.7546771E-02  0.1235069E+00
         21   -1    0    0  502  501  0.00000000000E+00  0.00000000000E+00  0.22393262539E+02  0.22393262539E+02  0.00000000000E+00 0.  1.
         21   -1    0    0  501  502 -0.00000000000E+00 -0.00000000000E+00 -0.17443862828E+03  0.17443862828E+03  0.00000000000E+00 0.  1.
         25    1    1    2    0    0  0.00000000000E+00  0.00000000000E+00 -0.15204536574E+03  0.19683189082E+03  0.12500000000E+03 0.  0.
<mgrwt>
<rscale>  0 0.12500000E+03</rscale>
<asrwt>0</asrwt>
<pdfrwt beam="1">  1       21 0.34451173E-02 0.12500000E+03</pdfrwt>
<pdfrwt beam="2">  1       21 0.26836712E-01 0.12500000E+03</pdfrwt>
<totfact> 0.65271083E+06</totfact>
</mgrwt>
</event>
<event>
 3    1  0.1615911E-001  0.1250000E+03  0.7546771E-02  0.1235069E+00
         21   -1    0    0  502  501  0.00000000000E+00  0.00000000000E+00  0.17091655400E+03  0.17091655400E+03  0.00000000000E+00 0. -1.
         21   -1    0    0  501  502 -0.00000000000E+00 -0.00000000000E+00 -0.22854720088E+02  0.22854720088E+02  0.00000000000E+00 0. -1.
         25    1    1    2    0    0  0.00000000000E+00  0.00000000000E+00  0.14806183391E+03  0.19377127409E+03  0.12500000000E+03 0.  0.
<mgrwt>
<rscale>  0 0.12500000E+03</rscale>
<asrwt>0</asrwt>
<pdfrwt beam="1">  1       21 0.26294854E-01 0.12500000E+03</pdfrwt>
<pdfrwt beam="2">  1       21 0.35161109E-02 0.12500000E+03</pdfrwt>
<totfact> 0.65605754E+06</totfact>
</mgrwt>
</event>
<event>
 3    1  0.1615911E-001  0.1250000E+03  0.7546771E-02  0.1235069E+00
         21   -1    0    0  502  501  0.00000000000E+00  0.00000000000E+00  0.29106134193E+01  0.29106134193E+01  0.00000000000E+00 0. -1.
         21   -1    0    0  501  502 -0.00000000000E+00 -0.00000000000E+00 -0.13420710473E+04  0.13420710473E+04  0.00000000000E+00 0. -1.
         25    1    1    2    0    0  0.00000000000E+00  0.00000000000E+00 -0.13391604339E+04  0.13449816607E+04  0.12500000000E+03 0.  0.
<mgrwt>
<rscale>  0 0.12500000E+03</rscale>
<asrwt>0</asrwt>
<pdfrwt beam="1">  1       21 0.44778703E-03 0.12500000E+03</pdfrwt>
<pdfrwt beam="2">  1       21 0.20647231E+00 0.12500000E+03</pdfrwt>
<totfact> 0.16463546E+06</totfact>
</mgrwt>
</event>
<event>
 3    1  0.1615911E-001  0.1250000E+03  0.7546771E-02  0.1235069E+00
         21   -1    0    0  502  501  0.00000000000E+00  0.00000000000E+00  0.50760531121E+03  0.50760531121E+03  0.00000000000E+00 0.  1.
         21   -1    0    0  501  502 -0.00000000000E+00 -0.00000000000E+00 -0.76954474544E+01  0.76954474544E+01  0.00000000000E+00 0.  1.
         25    1    1    2    0    0  0.00000000000E+00  0.00000000000E+00  0.49990986376E+03  0.51530075867E+03  0.12500000000E+03 0.  0.
<mgrwt>
<rscale>  0 0.12500000E+03</rscale>
<asrwt>0</asrwt>
<pdfrwt beam="1">  1       21 0.78093099E-01 0.12500000E+03</pdfrwt>
<pdfrwt beam="2">  1       21 0.11839154E-02 0.12500000E+03</pdfrwt>
<totfact> 0.41226259E+06</totfact>
</mgrwt>
</event>
<event>
 3    1  0.1615911E-001  0.1250000E+03  0.7546771E-02  0.1235069E+00
         21   -1    0    0  502  501  0.00000000000E+00  0.00000000000E+00  0.13350401116E+03  0.13350401116E+03  0.00000000000E+00 0. -1.
         21   -1    0    0  501  502 -0.00000000000E+00 -0.00000000000E+00 -0.29259420493E+02  0.29259420493E+02  0.00000000000E+00 0. -1.
         25    1    1    2    0    0  0.00000000000E+00  0.00000000000E+00  0.10424459067E+03  0.16276343165E+03  0.12500000000E+03 0.  0.
<mgrwt>
<rscale>  0 0.12500000E+03</rscale>
<asrwt>0</asrwt>
<pdfrwt beam="1">  1       21 0.20539078E-01 0.12500000E+03</pdfrwt>
<pdfrwt beam="2">  1       21 0.45014494E-02 0.12500000E+03</pdfrwt>
<totfact> 0.69183401E+06</totfact>
</mgrwt>
</event>
<event>
 3    1  0.1615911E-001  0.1250000E+03  0.7546771E-02  0.1235069E+00
         21   -1    0    0  502  501  0.00000000000E+00  0.00000000000E+00  0.27380868862E+02  0.27380868862E+02  0.00000000000E+00 0. -1.
         21   -1    0    0  501  502 -0.00000000000E+00 -0.00000000000E+00 -0.14266347864E+03  0.14266347864E+03  0.00000000000E+00 0. -1.
         25    1    1    2    0    0  0.00000000000E+00  0.00000000000E+00 -0.11528260978E+03  0.17004434750E+03  0.12500000000E+03 0.  0.
<mgrwt>
<rscale>  0 0.12500000E+03</rscale>
<asrwt>0</asrwt>
<pdfrwt beam="1">  1       21 0.42124413E-02 0.12500000E+03</pdfrwt>
<pdfrwt beam="2">  1       21 0.21948228E-01 0.12500000E+03</pdfrwt>
<totfact> 0.68312378E+06</totfact>
</mgrwt>
</event>
<event>
 3    1  0.1615911E-001  0.1250000E+03  0.7546771E-02  0.1235069E+00
         21   -1    0    0  502  501  0.00000000000E+00  0.00000000000E+00  0.17104440148E+02  0.17104440148E+02  0.00000000000E+00 0. -1.
         21   -1    0    0  501  502 -0.00000000000E+00 -0.00000000000E+00 -0.22837637282E+03  0.22837637282E+03  0.00000000000E+00 0. -1.
         25    1    1    2    0    0  0.00000000000E+00  0.00000000000E+00 -0.21127193267E+03  0.24548081296E+03  0.12500000000E+03 0.  0.
<mgrwt>
<rscale>  0 0.12500000E+03</rscale>
<asrwt>0</asrwt>
<pdfrwt beam="1">  1       21 0.26314523E-02 0.12500000E+03</pdfrwt>
<pdfrwt beam="2">  1       21 0.35134827E-01 0.12500000E+03</pdfrwt>
<totfact> 0.60306292E+06</totfact>
</mgrwt>
</event>
<event>
 3    1  0.1615911E-001  0.1250000E+03  0.7546771E-02  0.1235069E+00
         21   -1    0    0  502  501  0.00000000000E+00  0.00000000000E+00  0.15223603902E+03  0.15223603902E+03  0.00000000000E+00 0. -1.
         21   -1    0    0  501  502 -0.00000000000E+00 -0.00000000000E+00 -0.25659167338E+02  0.25659167338E+02  0.00000000000E+00 0. -1.
         25    1    1    2    0    0  0.00000000000E+00  0.00000000000E+00  0.12657687168E+03  0.17789520635E+03  0.12500000000E+03 0.  0.
<mgrwt>
<rscale>  0 0.12500000E+03</rscale>
<asrwt>0</asrwt>
<pdfrwt beam="1">  1       21 0.23420929E-01 0.12500000E+03</pdfrwt>
<pdfrwt beam="2">  1       21 0.39475643E-02 0.12500000E+03</pdfrwt>
<totfact> 0.67393816E+06</totfact>
</mgrwt>
</event>
<event>
 3    1  0.1615911E-001  0.1250000E+03  0.7546771E-02  0.1235069E+00
         21   -1    0    0  502  501  0.00000000000E+00  0.00000000000E+00  0.90584103953E+01  0.90584103953E+01  0.00000000000E+00 0. -1.
         21   -1    0    0  501  502 -0.00000000000E+00 -0.00000000000E+00 -0.43122908209E+03  0.43122908209E+03  0.00000000000E+00 0. -1.
         25    1    1    2    0    0  0.00000000000E+00  0.00000000000E+00 -0.42217067170E+03  0.44028749249E+03  0.12500000000E+03 0.  0.
<mgrwt>
<rscale>  0 0.12500000E+03</rscale>
<asrwt>0</asrwt>
<pdfrwt beam="1">  1       21 0.13936012E-02 0.12500000E+03</pdfrwt>
<pdfrwt beam="2">  1       21 0.66342955E-01 0.12500000E+03</pdfrwt>
<totfact> 0.45479079E+06</totfact>
</mgrwt>
</event>
<event>
 3    1  0.1615911E-001  0.1250000E+03  0.7546771E-02  0.1235069E+00
         21   -1    0    0  502  501  0.00000000000E+00  0.00000000000E+00  0.80738641304E+02  0.80738641304E+02  0.00000000000E+00 0. -1.
         21   -1    0    0  501  502 -0.00000000000E+00 -0.00000000000E+00 -0.48381418574E+02  0.48381418574E+02  0.00000000000E+00 0. -1.
         25    1    1    2    0    0  0.00000000000E+00  0.00000000000E+00  0.32357222730E+02  0.12912005988E+03  0.12500000000E+03 0.  0.
<mgrwt>
<rscale>  0 0.12500000E+03</rscale>
<asrwt>0</asrwt>
<pdfrwt beam="1">  1       21 0.12421329E-01 0.12500000E+03</pdfrwt>
<pdfrwt beam="2">  1       21 0.74432951E-02 0.12500000E+03</pdfrwt>
<totfact> 0.73482762E+06</totfact>
</mgrwt>
</event>
<event>
 3    1  0.1615911E-001  0.1250000E+03  0.7546771E-02  0.1235069E+00
         21   -1    0    0  502  501  0.00000000000E+00  0.00000000000E+00  0.33085089772E+02  0.33085089772E+02  0.00000000000E+00 0. -1.
         21   -1    0    0  501  502 -0.00000000000E+00 -0.00000000000E+00 -0.11806677954E+03  0.11806677954E+03  0.00000000000E+00 0. -1.
         25    1    1    2    0    0  0.00000000000E+00  0.00000000000E+00 -0.84981689764E+02  0.15115186931E+03  0.12500000000E+03 0.  0.
<mgrwt>
<rscale>  0 0.12500000E+03</rscale>
<asrwt>0</asrwt>
<pdfrwt beam="1">  1       21 0.50900138E-02 0.12500000E+03</pdfrwt>
<pdfrwt beam="2">  1       21 0.18164120E-01 0.12500000E+03</pdfrwt>
<totfact> 0.70614804E+06</totfact>
</mgrwt>
</event>
<event>
 3    1  0.1615911E-001  0.1250000E+03  0.7546771E-02  0.1235069E+00
         21   -1    0    0  502  501  0.00000000000E+00  0.00000000000E+00  0.39279318774E+02  0.39279318774E+02  0.00000000000E+00 0. -1.
         21   -1    0    0  501  502 -0.00000000000E+00 -0.00000000000E+00 -0.99448007804E+02  0.99448007804E+02  0.00000000000E+00 0. -1.
         25    1    1    2    0    0  0.00000000000E+00  0.00000000000E+00 -0.60168689030E+02  0.13872732658E+03  0.12500000000E+03 0.  0.
<mgrwt>
<rscale>  0 0.12500000E+03</rscale>
<asrwt>0</asrwt>
<pdfrwt beam="1">  1       21 0.60429721E-02 0.12500000E+03</pdfrwt>
<pdfrwt beam="2">  1       21 0.15299694E-01 0.12500000E+03</pdfrwt>
<totfact> 0.72205891E+06</totfact>
</mgrwt>
</event>
<event>
 3    1  0.1615911E-001  0.1250000E+03  0.7546771E-02  0.1235069E+00
         21   -1    0    0  502  501  0.00000000000E+00  0.00000000000E+00  0.99711328901E+02  0.99711328901E+02  0.00000000000E+00 0. -1.
         21   -1    0    0  501  502 -0.00000000000E+00 -0.00000000000E+00 -0.39175588602E+02  0.39175588602E+02  0.00000000000E+00 0. -1.
         25    1    1    2    0    0  0.00000000000E+00  0.00000000000E+00  0.60535740299E+02  0.13888691750E+03  0.12500000000E+03 0.  0.
<mgrwt>
<rscale>  0 0.12500000E+03</rscale>
<asrwt>0</asrwt>
<pdfrwt beam="1">  1       21 0.15340204E-01 0.12500000E+03</pdfrwt>
<pdfrwt beam="2">  1       21 0.60270137E-02 0.12500000E+03</pdfrwt>
<totfact> 0.72184954E+06</totfact>
</mgrwt>
</event>
<event>
 3    1  0.1615911E-001  0.1250000E+03  0.7546771E-02  0.1235069E+00
         21   -1    0    0  502  501  0.00000000000E+00  0.00000000000E+00  0.23191285575E+03  0.23191285575E+03  0.00000000000E+00 0. -1.
         21   -1    0    0  501  502 -0.00000000000E+00 -0.00000000000E+00 -0.16843611310E+02  0.16843611310E+02  0.00000000000E+00 0. -1.
         25    1    1    2    0    0  0.00000000000E+00  0.00000000000E+00  0.21506924444E+03  0.24875646706E+03  0.12500000000E+03 0.  0.
<mgrwt>
<rscale>  0 0.12500000E+03</rscale>
<asrwt>0</asrwt>
<pdfrwt beam="1">  1       21 0.35678898E-01 0.12500000E+03</pdfrwt>
<pdfrwt beam="2">  1       21 0.25913250E-02 0.12500000E+03</pdfrwt>
<totfact> 0.59995465E+06</totfact>
</mgrwt>
</event>
<event>
 3    1  0.1615911E-001  0.1250000E+03  0.7546771E-02  0.1235069E+00
         21   -1    0    0  502  501  0.00000000000E+00  0.00000000000E+00  0.44526325173E+01  0.44526325173E+01  0.00000000000E+00 0.  1.
         21   -1    0    0  501  502 -0.00000000000E+00 -0.00000000000E+00 -0.87729000424E+03  0.87729000424E+03  0.00000000000E+00 0.  1.
         25    1    1    2    0    0  0.00000000000E+00  0.00000000000E+00 -0.87283737172E+03  0.88174263676E+03  0.12500000000E+03 0.  0.
<mgrwt>
<rscale>  0 0.12500000E+03</rscale>
<asrwt>0</asrwt>
<pdfrwt beam="1">  1       21 0.68502082E-03 0.12500000E+03</pdfrwt>
<pdfrwt beam="2">  1       21 0.13496761E+00 0.12500000E+03</pdfrwt>
<totfact> 0.26825881E+06</totfact>
</mgrwt>
</event>
<event>
 3    1  0.1615911E-001  0.1250000E+03  0.7546771E-02  0.1235069E+00
         21   -1    0    0  502  501  0.00000000000E+00  0.00000000000E+00  0.48049162062E+02  0.48049162062E+02  0.00000000000E+00 0. -1.
         21   -1    0    0  501  502 -0.00000000000E+00 -0.00000000000E+00 -0.81296943222E+02  0.81296943222E+02  0.00000000000E+00 0. -1.
         25    1    1    2    0    0  0.00000000000E+00  0.00000000000E+00 -0.33247781160E+02  0.12934610528E+03  0.12500000000E+03 0.  0.
<mgrwt>
<rscale>  0 0.12500000E+03</rscale>
<asrwt>0</asrwt>
<pdfrwt beam="1">  1       21 0.73921788E-02 0.12500000E+03</pdfrwt>
<pdfrwt beam="2">  1       21 0.12507222E-01 0.12500000E+03</pdfrwt>
<totfact> 0.73452440E+06</totfact>
</mgrwt>
</event>
<event>
 3    1  0.1615911E-001  0.1250000E+03  0.7546771E-02  0.1235069E+00
         21   -1    0    0  502  501  0.00000000000E+00  0.00000000000E+00  0.34055746672E+03  0.34055746672E+03  0.00000000000E+00 0.  1.
         21   -1    0    0  501  502 -0.00000000000E+00 -0.00000000000E+00 -0.11470164015E+02  0.11470164015E+02  0.00000000000E+00 0.  1.
         25    1    1    2    0    0  0.00000000000E+00  0.00000000000E+00  0.32908730271E+03  0.35202763074E+03  0.12500000000E+03 0.  0.
<mgrwt>
<rscale>  0 0.12500000E+03</rscale>
<asrwt>0</asrwt>
<pdfrwt beam="1">  1       21 0.52393449E-01 0.12500000E+03</pdfrwt>
<pdfrwt beam="2">  1       21 0.17646409E-02 0.12500000E+03</pdfrwt>
<totfact> 0.51389037E+06</totfact>
</mgrwt>
</event>
<event>
 3    1  0.1615911E-001  0.1250000E+03  0.7546771E-02  0.1235069E+00
         21   -1    0    0  502  501  0.00000000000E+00  0.00000000000E+00  0.14764926652E+04  0.14764926652E+04  0.00000000000E+00 0. -1.
         21   -1    0    0  501  502 -0.00000000000E+00 -0.00000000000E+00 -0.26456277719E+01  0.26456277719E+01  0.00000000000E+00 0. -1.
         25    1    1    2    0    0  0.00000000000E+00  0.00000000000E+00  0.14738470374E+04  0.14791382930E+04  0.12500000000E+03 0.  0.
<mgrwt>
<rscale>  0 0.12500000E+03</rscale>
<asrwt>0</asrwt>
<pdfrwt beam="1">  1       21 0.22715206E+00 0.12500000E+03</pdfrwt>
<pdfrwt beam="2">  1       21 0.40702084E-03 0.12500000E+03</pdfrwt>
<totfact> 0.14305311E+06</totfact>
</mgrwt>
</event>
<event>
 3    1  0.1615911E-001  0.1250000E+03  0.7546771E-02  0.1235069E+00
         21   -1    0    0  502  501  0.00000000000E+00  0.00000000000E+00  0.14995101700E+02  0.14995101700E+02  0.00000000000E+00 0.  1.
         21   -1    0    0  501  502 -0.00000000000E+00 -0.00000000000E+00 -0.26050173438E+03  0.26050173438E+03  0.00000000000E+00 0.  1.
         25    1    1    2    0    0  0.00000000000E+00  0.00000000000E+00 -0.24550663268E+03  0.27549683608E+03  0.12500000000E+03 0.  0.
<mgrwt>
<rscale>  0 0.12500000E+03</rscale>
<asrwt>0</asrwt>
<pdfrwt beam="1">  1       21 0.23069387E-02 0.12500000E+03</pdfrwt>
<pdfrwt beam="2">  1       21 0.40077190E-01 0.12500000E+03</pdfrwt>
<totfact> 0.57556004E+06</totfact>
</mgrwt>
</event>
<event>
 3    1  0.1615911E-001  0.1250000E+03  0.7546771E-02  0.1235069E+00
         21   -1    0    0  502  501  0.00000000000E+00  0.00000000000E+00  0.90723810887E+01  0.90723810887E+01  0.00000000000E+00 0.  1.
         21   -1    0    0  501  502 -0.00000000000E+00 -0.00000000000E+00 -0.43056502607E+03  0.43056502607E+03  0.00000000000E+00 0.  1.
         25    1    1    2    0    0  0.00000000000E+00  0.00000000000E+00 -0.42149264498E+03  0.43963740716E+03  0.12500000000E+03 0.  0.
<mgrwt>
<rscale>  0 0.12500000E+03</rscale>
<asrwt>0</asrwt>
<pdfrwt beam="1">  1       21 0.13957510E-02 0.12500000E+03</pdfrwt>
<pdfrwt beam="2">  1       21 0.66240772E-01 0.12500000E+03</pdfrwt>
<totfact> 0.45518759E+06</totfact>
</mgrwt>
</event>
<event>
 3    1  0.1615911E-001  0.1250000E+03  0.7546771E-02  0.1235069E+00
         21   -1    0    0  502  501  0.00000000000E+00  0.00000000000E+00  0.37558021293E+01  0.37558021293E+01  0.00000000000E+00 0.  1.
         21   -1    0    0  501  502 -0.00000000000E+00 -0.00000000000E+00 -0.10400574539E+04  0.10400574539E+04  0.00000000000E+00 0.  1.
         25    1    1    2    0    0  0.00000000000E+00  0.00000000000E+00 -0.10363016518E+04  0.10438132560E+04  0.12500000000E+03 0.  0.
<mgrwt>
<rscale>  0 0.12500000E+03</rscale>
<asrwt>0</asrwt>
<pdfrwt beam="1">  1       21 0.57781593E-03 0.12500000E+03</pdfrwt>
<pdfrwt beam="2">  1       21 0.16000878E+00 0.12500000E+03</pdfrwt>
<totfact> 0.22546161E+06</totfact>
</mgrwt>
</event>
<event>
 3    1  0.1615911E-001  0.1250000E+03  0.7546771E-02  0.1235069E+00
         21   -1    0    0  502  501  0.00000000000E+00  0.00000000000E+00  0.29549778530E+01  0.29549778530E+01  0.00000000000E+00 0.  1.
         21   -1    0    0  501  502 -0.00000000000E+00 -0.00000000000E+00 -0.13219219210E+04  0.13219219210E+04  0.00000000000E+00 0.  1.
         25    1    1    2    0    0  0.00000000000E+00  0.00000000000E+00 -0.13189669431E+04  0.13248768989E+04  0.12500000000E+03 0.  0.
<mgrwt>
<rscale>  0 0.12500000E+03</rscale>
<asrwt>0</asrwt>
<pdfrwt beam="1">  1       21 0.45461106E-03 0.12500000E+03</pdfrwt>
<pdfrwt beam="2">  1       21 0.20337301E+00 0.12500000E+03</pdfrwt>
<totfact> 0.16811466E+06</totfact>
</mgrwt>
</event>
<event>
 3    1  0.1615911E-001  0.1250000E+03  0.7546771E-02  0.1235069E+00
         21   -1    0    0  502  501  0.00000000000E+00  0.00000000000E+00  0.40909858936E+02  0.40909858936E+02  0.00000000000E+00 0.  1.
         21   -1    0    0  501  502 -0.00000000000E+00 -0.00000000000E+00 -0.95484318490E+02  0.95484318490E+02  0.00000000000E+00 0.  1.
         25    1    1    2    0    0  0.00000000000E+00  0.00000000000E+00 -0.54574459554E+02  0.13639417743E+03  0.12500000000E+03 0.  0.
<mgrwt>
<rscale>  0 0.12500000E+03</rscale>
<asrwt>0</asrwt>
<pdfrwt beam="1">  1       21 0.62938245E-02 0.12500000E+03</pdfrwt>
<pdfrwt beam="2">  1       21 0.14689895E-01 0.12500000E+03</pdfrwt>
<totfact> 0.72512396E+06</totfact>
</mgrwt>
</event>
<event>
 3    1  0.1615911E-001  0.1250000E+03  0.7546771E-02  0.1235069E+00
         21   -1    0    0  502  501  0.00000000000E+00  0.00000000000E+00  0.30632722144E+03  0.30632722144E+03  0.00000000000E+00 0.  1.
         21   -1    0    0  501  502 -0.00000000000E+00 -0.00000000000E+00 -0.12751886632E+02  0.12751886632E+02  0.00000000000E+00 0.  1.
         25    1    1    2    0    0  0.00000000000E+00  0.00000000000E+00  0.29357533480E+03  0.31907910807E+03  0.12500000000E+03 0.  0.
<mgrwt>
<rscale>  0 0.12500000E+03</rscale>
<asrwt>0</asrwt>
<pdfrwt beam="1">  1       21 0.47127259E-01 0.12500000E+03</pdfrwt>
<pdfrwt beam="2">  1       21 0.19618289E-02 0.12500000E+03</pdfrwt>
<totfact> 0.53906402E+06</totfact>
</mgrwt>
</event>
<event>
 3    1  0.1615911E-001  0.1250000E+03  0.7546771E-02  0.1235069E+00
         21   -1    0    0  502  501  0.00000000000E+00  0.00000000000E+00  0.12213534354E+02  0.12213534354E+02  0.00000000000E+00 0. -1.
         21   -1    0    0  501  502 -0.00000000000E+00 -0.00000000000E+00 -0.31982961580E+03  0.31982961580E+03  0.00000000000E+00 0. -1.
         25    1    1    2    0    0  0.00000000000E+00  0.00000000000E+00 -0.30761608145E+03  0.33204315016E+03  0.12500000000E+03 0.  0.
<mgrwt>
<rscale>  0 0.12500000E+03</rscale>
<asrwt>0</asrwt>
<pdfrwt beam="1">  1       21 0.18790054E-02 0.12500000E+03</pdfrwt>
<pdfrwt beam="2">  1       21 0.49204552E-01 0.12500000E+03</pdfrwt>
<totfact> 0.52892575E+06</totfact>
</mgrwt>
</event>
<event>
 3    1  0.1615911E-001  0.1250000E+03  0.7546771E-02  0.1235069E+00
         21   -1    0    0  502  501  0.00000000000E+00  0.00000000000E+00  0.49278112010E+02  0.49278112010E+02  0.00000000000E+00 0. -1.
         21   -1    0    0  501  502 -0.00000000000E+00 -0.00000000000E+00 -0.79269473619E+02  0.79269473619E+02  0.00000000000E+00 0. -1.
         25    1    1    2    0    0  0.00000000000E+00  0.00000000000E+00 -0.29991361608E+02  0.12854758563E+03  0.12500000000E+03 0.  0.
<mgrwt>
<rscale>  0 0.12500000E+03</rscale>
<asrwt>0</asrwt>
<pdfrwt beam="1">  1       21 0.75812481E-02 0.12500000E+03</pdfrwt>
<pdfrwt beam="2">  1       21 0.12195303E-01 0.12500000E+03</pdfrwt>
<totfact> 0.73559714E+06</totfact>
</mgrwt>
</event>
<event>
 3    1  0.1615911E-001  0.1250000E+03  0.7546771E-02  0.1235069E+00
         21   -1    0    0  502  501  0.00000000000E+00  0.00000000000E+00  0.61326385790E+01  0.61326385790E+01  0.00000000000E+00 0. -1.
         21   -1    0    0  501  502 -0.00000000000E+00 -0.00000000000E+00 -0.63696073879E+03  0.63696073879E+03  0.00000000000E+00 0. -1.
         25    1    1    2    0    0  0.00000000000E+00  0.00000000000E+00 -0.63082810021E+03  0.64309337736E+03  0.12500000000E+03 0.  0.
<mgrwt>
<rscale>  0 0.12500000E+03</rscale>
<asrwt>0</asrwt>
<pdfrwt beam="1">  1       21 0.94348333E-03 0.12500000E+03</pdfrwt>
<pdfrwt beam="2">  1       21 0.97993911E-01 0.12500000E+03</pdfrwt>
<totfact> 0.35213428E+06</totfact>
</mgrwt>
</event>
<event>
 3    1  0.1615911E-001  0.1250000E+03  0.7546771E-02  0.1235069E+00
         21   -1    0    0  502  501  0.00000000000E+00  0.00000000000E+00  0.63099932001E+01  0.63099932001E+01  0.00000000000E+00 0. -1.
         21   -1    0    0  501  502 -0.00000000000E+00 -0.00000000000E+00 -0.61905771942E+03  0.61905771942E+03  0.00000000000E+00 0. -1.
         25    1    1    2    0    0  0.00000000000E+00  0.00000000000E+00 -0.61274772622E+03  0.62536771262E+03  0.12500000000E+03 0.  0.
<mgrwt>
<rscale>  0 0.12500000E+03</rscale>
<asrwt>0</asrwt>
<pdfrwt beam="1">  1       21 0.97076855E-03 0.12500000E+03</pdfrwt>
<pdfrwt beam="2">  1       21 0.95239613E-01 0.12500000E+03</pdfrwt>
<totfact> 0.35969979E+06</totfact>
</mgrwt>
</event>
<event>
 3    1  0.1615911E-001  0.1250000E+03  0.7546771E-02  0.1235069E+00
         21   -1    0    0  502  501  0.00000000000E+00  0.00000000000E+00  0.85065948052E+02  0.85065948052E+02  0.00000000000E+00 0. -1.
         21   -1    0    0  501  502 -0.00000000000E+00 -0.00000000000E+00 -0.45920254690E+02  0.45920254690E+02  0.00000000000E+00 0. -1.
         25    1    1    2    0    0  0.00000000000E+00  0.00000000000E+00  0.39145693362E+02  0.13098620274E+03  0.12500000000E+03 0.  0.
<mgrwt>
<rscale>  0 0.12500000E+03</rscale>
<asrwt>0</asrwt>
<pdfrwt beam="1">  1       21 0.13087069E-01 0.12500000E+03</pdfrwt>
<pdfrwt beam="2">  1       21 0.70646546E-02 0.12500000E+03</pdfrwt>
<totfact> 0.73232530E+06</totfact>
</mgrwt>
</event>
<event>
 3    1  0.1615911E-001  0.1250000E+03  0.7546771E-02  0.1235069E+00
         21   -1    0    0  502  501  0.00000000000E+00  0.00000000000E+00  0.42408180437E+02  0.42408180437E+02  0.00000000000E+00 0.  1.
         21   -1    0    0  501  502 -0.00000000000E+00 -0.00000000000E+00 -0.92110766360E+02  0.92110766360E+02  0.00000000000E+00 0.  1.
         25    1    1    2    0    0  0.00000000000E+00  0.00000000000E+00 -0.49702585923E+02  0.13451894680E+03  0.12500000000E+03 0.  0.
<mgrwt>
<rscale>  0 0.12500000E+03</rscale>
<asrwt>0</asrwt>
<pdfrwt beam="1">  1       21 0.65243354E-02 0.12500000E+03</pdfrwt>
<pdfrwt beam="2">  1       21 0.14170887E-01 0.12500000E+03</pdfrwt>
<totfact> 0.72760229E+06</totfact>
</mgrwt>
</event>
<event>
 3    1  0.1615911E-001  0.1250000E+03  0.7546771E-02  0.1235069E+00
         21   -1    0    0  502  501  0.00000000000E+00  0.00000000000E+00  0.25872760635E+02  0.25872760635E+02  0.00000000000E+00 0. -1.
         21   -1    0    0  501  502 -0.00000000000E+00 -0.00000000000E+00 -0.15097925015E+03  0.15097925015E+03  0.00000000000E+00 0. -1.
         25    1    1    2    0    0  0.00000000000E+00  0.00000000000E+00 -0.12510648951E+03  0.17685201078E+03  0.12500000000E+03 0.  0.
<mgrwt>
<rscale>  0 0.12500000E+03</rscale>
<asrwt>0</asrwt>
<pdfrwt beam="1">  1       21 0.39804247E-02 0.12500000E+03</pdfrwt>
<pdfrwt beam="2">  1       21 0.23227577E-01 0.12500000E+03</pdfrwt>
<totfact> 0.67514511E+06</totfact>
</mgrwt>
</event>
<event>
 3    1  0.1615911E-001  0.1250000E+03  0.7546771E-02  0.1235069E+00
         21   -1    0    0  502  501  0.00000000000E+00  0.00000000000E+00  0.10556299864E+03  0.10556299864E+03  0.00000000000E+00 0. -1.
         21   -1    0    0  501  502 -0.00000000000E+00 -0.00000000000E+00 -0.37003969669E+02  0.37003969669E+02  0.00000000000E+00 0. -1.
         25    1    1    2    0    0  0.00000000000E+00  0.00000000000E+00  0.68559028975E+02  0.14256696831E+03  0.12500000000E+03 0.  0.
<mgrwt>
<rscale>  0 0.12500000E+03</rscale>
<asrwt>0</asrwt>
<pdfrwt beam="1">  1       21 0.16240461E-01 0.12500000E+03</pdfrwt>
<pdfrwt beam="2">  1       21 0.56929185E-02 0.12500000E+03</pdfrwt>
<totfact> 0.71705942E+06</totfact>
</mgrwt>
</event>
<event>
 3    1  0.1615911E-001  0.1250000E+03  0.7546771E-02  0.1235069E+00
         21   -1    0    0  502  501  0.00000000000E+00  0.00000000000E+00  0.68861696653E+01  0.68861696653E+01  0.00000000000E+00 0. -1.
         21   -1    0    0  501  502 -0.00000000000E+00 -0.00000000000E+00 -0.56726020268E+03  0.56726020268E+03  0.00000000000E+00 0. -1.
         25    1    1    2    0    0  0.00000000000E+00  0.00000000000E+00 -0.56037403301E+03  0.57414637234E+03  0.12500000000E+03 0.  0.
<mgrwt>
<rscale>  0 0.12500000E+03</rscale>
<asrwt>0</asrwt>
<pdfrwt beam="1">  1       21 0.10594105E-02 0.12500000E+03</pdfrwt>
<pdfrwt beam="2">  1       21 0.87270817E-01 0.12500000E+03</pdfrwt>
<totfact> 0.38288548E+06</totfact>
</mgrwt>
</event>
<event>
 3    1  0.1615911E-001  0.1250000E+03  0.7546771E-02  0.1235069E+00
         21   -1    0    0  502  501  0.00000000000E+00  0.00000000000E+00  0.43515458337E+02  0.43515458337E+02  0.00000000000E+00 0.  1.
         21   -1    0    0  501  502 -0.00000000000E+00 -0.00000000000E+00 -0.89766950626E+02  0.89766950626E+02  0.00000000000E+00 0.  1.
         25    1    1    2    0    0  0.00000000000E+00  0.00000000000E+00 -0.46251492289E+02  0.13328240896E+03  0.12500000000E+03 0.  0.
<mgrwt>
<rscale>  0 0.12500000E+03</rscale>
<asrwt>0</asrwt>
<pdfrwt beam="1">  1       21 0.66946859E-02 0.12500000E+03</pdfrwt>
<pdfrwt beam="2">  1       21 0.13810300E-01 0.12500000E+03</pdfrwt>
<totfact> 0.72924710E+06</totfact>
</mgrwt>
</event>
<event>
 3    1  0.1615911E-001  0.1250000E+03  0.7546771E-02  0.1235069E+00
         21   -1    0    0  502  501  0.00000000000E+00  0.00000000000E+00  0.22023369339E+03  0.22023369339E+03  0.00000000000E+00 0. -1.
         21   -1    0    0  501  502 -0.00000000000E+00 -0.00000000000E+00 -0.17736840989E+02  0.17736840989E+02  0.00000000000E+00 0. -1.
         25    1    1    2    0    0  0.00000000000E+00  0.00000000000E+00  0.20249685240E+03  0.23797053438E+03  0.12500000000E+03 0.  0.
<mgrwt>
<rscale>  0 0.12500000E+03</rscale>
<asrwt>0</asrwt>
<pdfrwt beam="1">  1       21 0.33882105E-01 0.12500000E+03</pdfrwt>
<pdfrwt beam="2">  1       21 0.27287449E-02 0.12500000E+03</pdfrwt>
<totfact> 0.61029605E+06</totfact>
</mgrwt>
</event>
<event>
 3    1  0.1615911E-001  0.1250000E+03  0.7546771E-02  0.1235069E+00
         21   -1    0    0  502  501  0.00000000000E+00  0.00000000000E+00  0.15198017976E+02  0.15198017976E+02  0.00000000000E+00 0. -1.
         21   -1    0    0  501  502 -0.00000000000E+00 -0.00000000000E+00 -0.25702364651E+03  0.25702364651E+03  0.00000000000E+00 0. -1.
         25    1    1    2    0    0  0.00000000000E+00  0.00000000000E+00 -0.24182562853E+03  0.27222166449E+03  0.12500000000E+03 0.  0.
<mgrwt>
<rscale>  0 0.12500000E+03</rscale>
<asrwt>0</asrwt>
<pdfrwt beam="1">  1       21 0.23381566E-02 0.12500000E+03</pdfrwt>
<pdfrwt beam="2">  1       21 0.39542099E-01 0.12500000E+03</pdfrwt>
<totfact> 0.57846660E+06</totfact>
</mgrwt>
</event>
<event>
 3    1  0.1615911E-001  0.1250000E+03  0.7546771E-02  0.1235069E+00
         21   -1    0    0  502  501  0.00000000000E+00  0.00000000000E+00  0.96690091879E+02  0.96690091879E+02  0.00000000000E+00 0. -1.
         21   -1    0    0  501  502 -0.00000000000E+00 -0.00000000000E+00 -0.40399692710E+02  0.40399692710E+02  0.00000000000E+00 0. -1.
         25    1    1    2    0    0  0.00000000000E+00  0.00000000000E+00  0.56290399169E+02  0.13708978459E+03  0.12500000000E+03 0.  0.
<mgrwt>
<rscale>  0 0.12500000E+03</rscale>
<asrwt>0</asrwt>
<pdfrwt beam="1">  1       21 0.14875399E-01 0.12500000E+03</pdfrwt>
<pdfrwt beam="2">  1       21 0.62153374E-02 0.12500000E+03</pdfrwt>
<totfact> 0.72420936E+06</totfact>
</mgrwt>
</event>
<event>
 3    1  0.1615911E-001  0.1250000E+03  0.7546771E-02  0.1235069E+00
         21   -1    0    0  502  501  0.00000000000E+00  0.00000000000E+00  0.54154752560E+01  0.54154752560E+01  0.00000000000E+00 0. -1.
         21   -1    0    0  501  502 -0.00000000000E+00 -0.00000000000E+00 -0.72131250081E+03  0.72131250081E+03  0.00000000000E+00 0. -1.
         25    1    1    2    0    0  0.00000000000E+00  0.00000000000E+00 -0.71589702555E+03  0.72672797606E+03  0.12500000000E+03 0.  0.
<mgrwt>
<rscale>  0 0.12500000E+03</rscale>
<asrwt>0</asrwt>
<pdfrwt beam="1">  1       21 0.83315012E-03 0.12500000E+03</pdfrwt>
<pdfrwt beam="2">  1       21 0.11097114E+00 0.12500000E+03</pdfrwt>
<totfact> 0.31904807E+06</totfact>
</mgrwt>
</event>
<event>
 3    1  0.1615911E-001  0.1250000E+03  0.7546771E-02  0.1235069E+00
         21   -1    0    0  502  501  0.00000000000E+00  0.00000000000E+00  0.50052250697E+02  0.50052250697E+02  0.00000000000E+00 0. -1.
         21   -1    0    0  501  502 -0.00000000000E+00 -0.00000000000E+00 -0.78043443514E+02  0.78043443514E+02  0.00000000000E+00 0. -1.
         25    1    1    2    0    0  0.00000000000E+00  0.00000000000E+00 -0.27991192817E+02  0.12809569421E+03  0.12500000000E+03 0.  0.
<mgrwt>
<rscale>  0 0.12500000E+03</rscale>
<asrwt>0</asrwt>
<pdfrwt beam="1">  1       21 0.77003463E-02 0.12500000E+03</pdfrwt>
<pdfrwt beam="2">  1       21 0.12006684E-01 0.12500000E+03</pdfrwt>
<totfact> 0.73620636E+06</totfact>
</mgrwt>
</event>
<event>
 3    1  0.1615911E-001  0.1250000E+03  0.7546771E-02  0.1235069E+00
         21   -1    0    0  502  501  0.00000000000E+00  0.00000000000E+00  0.59821338997E+02  0.59821338997E+02  0.00000000000E+00 0.  1.
         21   -1    0    0  501  502 -0.00000000000E+00 -0.00000000000E+00 -0.65298605239E+02  0.65298605239E+02  0.00000000000E+00 0.  1.
         25    1    1    2    0    0  0.00000000000E+00  0.00000000000E+00 -0.54772662419E+01  0.12511994424E+03  0.12500000000E+03 0.  0.
<mgrwt>
<rscale>  0 0.12500000E+03</rscale>
<asrwt>0</asrwt>
<pdfrwt beam="1">  1       21 0.92032829E-02 0.12500000E+03</pdfrwt>
<pdfrwt beam="2">  1       21 0.10045939E-01 0.12500000E+03</pdfrwt>
<totfact> 0.74027382E+06</totfact>
</mgrwt>
</event>
<event>
 3    1  0.1615911E-001  0.1250000E+03  0.7546771E-02  0.1235069E+00
         21   -1    0    0  502  501  0.00000000000E+00  0.00000000000E+00  0.22886044764E+03  0.22886044764E+03  0.00000000000E+00 0.  1.
         21   -1    0    0  501  502 -0.00000000000E+00 -0.00000000000E+00 -0.17068261643E+02  0.17068261643E+02  0.00000000000E+00 0.  1.
         25    1    1    2    0    0  0.00000000000E+00  0.00000000000E+00  0.21179218600E+03  0.24592870928E+03  0.12500000000E+03 0.  0.
<mgrwt>
<rscale>  0 0.12500000E+03</rscale>
<asrwt>0</asrwt>
<pdfrwt beam="1">  1       21 0.35209297E-01 0.12500000E+03</pdfrwt>
<pdfrwt beam="2">  1       21 0.26258866E-02 0.12500000E+03</pdfrwt>
<totfact> 0.60263628E+06</totfact>
</mgrwt>
</event>
<event>
 3    1  0.1615911E-001  0.1250000E+03  0.7546771E-02  0.1235069E+00
         21   -1    0    0  502  501  0.00000000000E+00  0.00000000000E+00  0.47790567896E+02  0.47790567896E+02  0.00000000000E+00 0. -1.
         21   -1    0    0  501  502 -0.00000000000E+00 -0.00000000000E+00 -0.81736839966E+02  0.81736839966E+02  0.00000000000E+00 0. -1.
         25    1    1    2    0    0  0.00000000000E+00  0.00000000000E+00 -0.33946272071E+02  0.12952740786E+03  0.12500000000E+03 0.  0.
<mgrwt>
<rscale>  0 0.12500000E+03</rscale>
<asrwt>0</asrwt>
<pdfrwt beam="1">  1       21 0.73523952E-02 0.12500000E+03</pdfrwt>
<pdfrwt beam="2">  1       21 0.12574898E-01 0.12500000E+03</pdfrwt>
<totfact> 0.73428145E+06</totfact>
</mgrwt>
</event>
<event>
 3    1  0.1615911E-001  0.1250000E+03  0.7546771E-02  0.1235069E+00
         21   -1    0    0  502  501  0.00000000000E+00  0.00000000000E+00  0.36661690396E+01  0.36661690396E+01  0.00000000000E+00 0.  1.
         21   -1    0    0  501  502 -0.00000000000E+00 -0.00000000000E+00 -0.10654855130E+04  0.10654855130E+04  0.00000000000E+00 0.  1.
         25    1    1    2    0    0  0.00000000000E+00  0.00000000000E+00 -0.10618193440E+04  0.10691516821E+04  0.12500000000E+03 0.  0.
<mgrwt>
<rscale>  0 0.12500000E+03</rscale>
<asrwt>0</asrwt>
<pdfrwt beam="1">  1       21 0.56402645E-03 0.12500000E+03</pdfrwt>
<pdfrwt beam="2">  1       21 0.16392072E+00 0.12500000E+03</pdfrwt>
<totfact> 0.21950860E+06</totfact>
</mgrwt>
</event>
<event>
 3    1  0.1615911E-001  0.1250000E+03  0.7546771E-02  0.1235069E+00
         21   -1    0    0  502  501  0.00000000000E+00  0.00000000000E+00  0.10417709447E+03  0.10417709447E+03  0.00000000000E+00 0.  1.
         21   -1    0    0  501  502 -0.00000000000E+00 -0.00000000000E+00 -0.37496246367E+02  0.37496246367E+02  0.00000000000E+00 0.  1.
         25    1    1    2    0    0  0.00000000000E+00  0.00000000000E+00  0.66680848103E+02  0.14167334084E+03  0.12500000000E+03 0.  0.
<mgrwt>
<rscale>  0 0.12500000E+03</rscale>
<asrwt>0</asrwt>
<pdfrwt beam="1">  1       21 0.16027245E-01 0.12500000E+03</pdfrwt>
<pdfrwt beam="2">  1       21 0.57686533E-02 0.12500000E+03</pdfrwt>
<totfact> 0.71821603E+06</totfact>
</mgrwt>
</event>
<event>
 3    1  0.1615911E-001  0.1250000E+03  0.7546771E-02  0.1235069E+00
         21   -1    0    0  502  501  0.00000000000E+00  0.00000000000E+00  0.45889894180E+02  0.45889894180E+02  0.00000000000E+00 0.  1.
         21   -1    0    0  501  502 -0.00000000000E+00 -0.00000000000E+00 -0.85122227231E+02  0.85122227231E+02  0.00000000000E+00 0.  1.
         25    1    1    2    0    0  0.00000000000E+00  0.00000000000E+00 -0.39232333052E+02  0.13101212141E+03  0.12500000000E+03 0.  0.
<mgrwt>
<rscale>  0 0.12500000E+03</rscale>
<asrwt>0</asrwt>
<pdfrwt beam="1">  1       21 0.70599837E-02 0.12500000E+03</pdfrwt>
<pdfrwt beam="2">  1       21 0.13095727E-01 0.12500000E+03</pdfrwt>
<totfact> 0.73229038E+06</totfact>
</mgrwt>
</event>
<event>
 3    1  0.1615911E-001  0.1250000E+03  0.7546771E-02  0.1235069E+00
         21   -1    0    0  502  501  0.00000000000E+00  0.00000000000E+00  0.21268545176E+03  0.21268545176E+03  0.00000000000E+00 0. -1.
         21   -1    0    0  501  502 -0.00000000000E+00 -0.00000000000E+00 -0.18366324389E+02  0.18366324389E+02  0.00000000000E+00 0. -1.
         25    1    1    2    0    0  0.00000000000E+00  0.00000000000E+00  0.19431912737E+03  0.23105177615E+03  0.12500000000E+03 0.  0.
<mgrwt>
<rscale>  0 0.12500000E+03</rscale>
<asrwt>0</asrwt>
<pdfrwt beam="1">  1       21 0.32720837E-01 0.12500000E+03</pdfrwt>
<pdfrwt beam="2">  1       21 0.28255885E-02 0.12500000E+03</pdfrwt>
<totfact> 0.61709466E+06</totfact>
</mgrwt>
</event>
<event>
 3    1  0.1615911E-001  0.1250000E+03  0.7546771E-02  0.1235069E+00
         21   -1    0    0  502  501  0.00000000000E+00  0.00000000000E+00  0.72273736282E+02  0.72273736282E+02  0.00000000000E+00 0.  1.
         21   -1    0    0  501  502 -0.00000000000E+00 -0.00000000000E+00 -0.54047987567E+02  0.54047987567E+02  0.00000000000E+00 0.  1.
         25    1    1    2    0    0  0.00000000000E+00  0.00000000000E+00  0.18225748715E+02  0.12632172385E+03  0.12500000000E+03 0.  0.
<mgrwt>
<rscale>  0 0.12500000E+03</rscale>
<asrwt>0</asrwt>
<pdfrwt beam="1">  1       21 0.11119036E-01 0.12500000E+03</pdfrwt>
<pdfrwt beam="2">  1       21 0.83150750E-02 0.12500000E+03</pdfrwt>
<totfact> 0.73861798E+06</totfact>
</mgrwt>
</event>
<event>
 3    1  0.1615911E-001  0.1250000E+03  0.7546771E-02  0.1235069E+00
         21   -1    0    0  502  501  0.00000000000E+00  0.00000000000E+00  0.33740626861E+03  0.33740626861E+03  0.00000000000E+00 0. -1.
         21   -1    0    0  501  502 -0.00000000000E+00 -0.00000000000E+00 -0.11577289349E+02  0.11577289349E+02  0.00000000000E+00 0. -1.
         25    1    1    2    0    0  0.00000000000E+00  0.00000000000E+00  0.32582897926E+03  0.34898355796E+03  0.12500000000E+03 0.  0.
<mgrwt>
<rscale>  0 0.12500000E+03</rscale>
<asrwt>0</asrwt>
<pdfrwt beam="1">  1       21 0.51908649E-01 0.12500000E+03</pdfrwt>
<pdfrwt beam="2">  1       21 0.17811217E-02 0.12500000E+03</pdfrwt>
<totfact> 0.51613590E+06</totfact>
</mgrwt>
</event>
<event>
 3    1  0.1615911E-001  0.1250000E+03  0.7546771E-02  0.1235069E+00
         21   -1    0    0  502  501  0.00000000000E+00  0.00000000000E+00  0.12181159181E+02  0.12181159181E+02  0.00000000000E+00 0. -1.
         21   -1    0    0  501  502 -0.00000000000E+00 -0.00000000000E+00 -0.32067966128E+03  0.32067966128E+03  0.00000000000E+00 0. -1.
         25    1    1    2    0    0  0.00000000000E+00  0.00000000000E+00 -0.30849850210E+03  0.33286082046E+03  0.12500000000E+03 0.  0.
<mgrwt>
<rscale>  0 0.12500000E+03</rscale>
<asrwt>0</asrwt>
<pdfrwt beam="1">  1       21 0.18740247E-02 0.12500000E+03</pdfrwt>
<pdfrwt beam="2">  1       21 0.49335327E-01 0.12500000E+03</pdfrwt>
<totfact> 0.52829672E+06</totfact>
</mgrwt>
</event>
<event>
 3    1  0.1615911E-001  0.1250000E+03  0.7546771E-02  0.1235069E+00
         21   -1    0    0  502  501  0.00000000000E+00  0.00000000000E+00  0.21491281671E+01  0.21491281671E+01  0.00000000000E+00 0.  1.
         21   -1    0    0  501  502 -0.00000000000E+00 -0.00000000000E+00 -0.18175975076E+04  0.18175975076E+04  0.00000000000E+00 0.  1.
         25    1    1    2    0    0  0.00000000000E+00  0.00000000000E+00 -0.18154483794E+04  0.18197466357E+04  0.12500000000E+03 0.  0.
<mgrwt>
<rscale>  0 0.12500000E+03</rscale>
<asrwt>0</asrwt>
<pdfrwt beam="1">  1       21 0.33063507E-03 0.12500000E+03</pdfrwt>
<pdfrwt beam="2">  1       21 0.27963041E+00 0.12500000E+03</pdfrwt>
<totfact> 0.98445494E+05</totfact>
</mgrwt>
</event>
<event>
 3    1  0.1615911E-001  0.1250000E+03  0.7546771E-02  0.1235069E+00
         21   -1    0    0  502  501  0.00000000000E+00  0.00000000000E+00  0.10018926051E+03  0.10018926051E+03  0.00000000000E+00 0.  1.
         21   -1    0    0  501  502 -0.00000000000E+00 -0.00000000000E+00 -0.38988709769E+02  0.38988709769E+02  0.00000000000E+00 0.  1.
         25    1    1    2    0    0  0.00000000000E+00  0.00000000000E+00  0.61200550741E+02  0.13917797028E+03  0.12500000000E+03 0.  0.
<mgrwt>
<rscale>  0 0.12500000E+03</rscale>
<asrwt>0</asrwt>
<pdfrwt beam="1">  1       21 0.15413732E-01 0.12500000E+03</pdfrwt>
<pdfrwt beam="2">  1       21 0.59982631E-02 0.12500000E+03</pdfrwt>
<totfact> 0.72146805E+06</totfact>
</mgrwt>
</event>
<event>
 3    1  0.1615911E-001  0.1250000E+03  0.7546771E-02  0.1235069E+00
         21   -1    0    0  502  501  0.00000000000E+00  0.00000000000E+00  0.68520387556E+03  0.68520387556E+03  0.00000000000E+00 0.  1.
         21   -1    0    0  501  502 -0.00000000000E+00 -0.00000000000E+00 -0.57008580064E+01  0.57008580064E+01  0.00000000000E+00 0.  1.
         25    1    1    2    0    0  0.00000000000E+00  0.00000000000E+00  0.67950301755E+03  0.69090473357E+03  0.12500000000E+03 0.  0.
<mgrwt>
<rscale>  0 0.12500000E+03</rscale>
<asrwt>0</asrwt>
<pdfrwt beam="1">  1       21 0.10541592E+00 0.12500000E+03</pdfrwt>
<pdfrwt beam="2">  1       21 0.87705562E-03 0.12500000E+03</pdfrwt>
<totfact> 0.33263769E+06</totfact>
</mgrwt>
</event>
<event>
 3    1  0.1615911E-001  0.1250000E+03  0.7546771E-02  0.1235069E+00
         21   -1    0    0  502  501  0.00000000000E+00  0.00000000000E+00  0.11850542259E+04  0.11850542259E+04  0.00000000000E+00 0.  1.
         21   -1    0    0  501  502 -0.00000000000E+00 -0.00000000000E+00 -0.32962626643E+01  0.32962626643E+01  0.00000000000E+00 0.  1.
         25    1    1    2    0    0  0.00000000000E+00  0.00000000000E+00  0.11817579632E+04  0.11883504886E+04  0.12500000000E+03 0.  0.
<mgrwt>
<rscale>  0 0.12500000E+03</rscale>
<asrwt>0</asrwt>
<pdfrwt beam="1">  1       21 0.18231570E+00 0.12500000E+03</pdfrwt>
<pdfrwt beam="2">  1       21 0.50711828E-03 0.12500000E+03</pdfrwt>
<totfact> 0.19377125E+06</totfact>
</mgrwt>
</event>
<event>
 3    1  0.1615911E-001  0.1250000E+03  0.7546771E-02  0.1235069E+00
         21   -1    0    0  502  501  0.00000000000E+00  0.00000000000E+00  0.26823266519E+03  0.26823266519E+03  0.00000000000E+00 0. -1.
         21   -1    0    0  501  502 -0.00000000000E+00 -0.00000000000E+00 -0.14562916851E+02  0.14562916851E+02  0.00000000000E+00 0. -1.
         25    1    1    2    0    0  0.00000000000E+00  0.00000000000E+00  0.25366974834E+03  0.28279558204E+03  0.12500000000E+03 0.  0.
<mgrwt>
<rscale>  0 0.12500000E+03</rscale>
<asrwt>0</asrwt>
<pdfrwt beam="1">  1       21 0.41266560E-01 0.12500000E+03</pdfrwt>
<pdfrwt beam="2">  1       21 0.22404490E-02 0.12500000E+03</pdfrwt>
<totfact> 0.56916939E+06</totfact>
</mgrwt>
</event>
<event>
 3    1  0.1615911E-001  0.1250000E+03  0.7546771E-02  0.1235069E+00
         21   -1    0    0  502  501  0.00000000000E+00  0.00000000000E+00  0.25314932782E+02  0.25314932782E+02  0.00000000000E+00 0. -1.
         21   -1    0    0  501  502 -0.00000000000E+00 -0.00000000000E+00 -0.15430615730E+03  0.15430615730E+03  0.00000000000E+00 0. -1.
         25    1    1    2    0    0  0.00000000000E+00  0.00000000000E+00 -0.12899122452E+03  0.17962109009E+03  0.12500000000E+03 0.  0.
<mgrwt>
<rscale>  0 0.12500000E+03</rscale>
<asrwt>0</asrwt>
<pdfrwt beam="1">  1       21 0.38946050E-02 0.12500000E+03</pdfrwt>
<pdfrwt beam="2">  1       21 0.23739409E-01 0.12500000E+03</pdfrwt>
<totfact> 0.67195030E+06</totfact>
</mgrwt>
</event>
<event>
 3    1  0.1615911E-001  0.1250000E+03  0.7546771E-02  0.1235069E+00
         21   -1    0    0  502  501  0.00000000000E+00  0.00000000000E+00  0.82649352110E+01  0.82649352110E+01  0.00000000000E+00 0.  1.
         21   -1    0    0  501  502 -0.00000000000E+00 -0.00000000000E+00 -0.47262923426E+03  0.47262923426E+03  0.00000000000E+00 0.  1.
         25    1    1    2    0    0  0.00000000000E+00  0.00000000000E+00 -0.46436429905E+03  0.48089416947E+03  0.12500000000E+03 0.  0.
<mgrwt>
<rscale>  0 0.12500000E+03</rscale>
<asrwt>0</asrwt>
<pdfrwt beam="1">  1       21 0.12715281E-02 0.12500000E+03</pdfrwt>
<pdfrwt beam="2">  1       21 0.72712213E-01 0.12500000E+03</pdfrwt>
<totfact> 0.43099535E+06</totfact>
</mgrwt>
</event>
<event>
 3    1  0.1615911E-001  0.1250000E+03  0.7546771E-02  0.1235069E+00
         21   -1    0    0  502  501  0.00000000000E+00  0.00000000000E+00  0.38205508098E+03  0.38205508098E+03  0.00000000000E+00 0. -1.
         21   -1    0    0  501  502 -0.00000000000E+00 -0.00000000000E+00 -0.10224311086E+02  0.10224311086E+02  0.00000000000E+00 0. -1.
         25    1    1    2    0    0  0.00000000000E+00  0.00000000000E+00  0.37183076989E+03  0.39227939207E+03  0.12500000000E+03 0.  0.
<mgrwt>
<rscale>  0 0.12500000E+03</rscale>
<asrwt>0</asrwt>
<pdfrwt beam="1">  1       21 0.58777694E-01 0.12500000E+03</pdfrwt>
<pdfrwt beam="2">  1       21 0.15729712E-02 0.12500000E+03</pdfrwt>
<totfact> 0.48557706E+06</totfact>
</mgrwt>
</event>
<event>
 3    1  0.1615911E-001  0.1250000E+03  0.7546771E-02  0.1235069E+00
         21   -1    0    0  502  501  0.00000000000E+00  0.00000000000E+00  0.17354439087E+02  0.17354439087E+02  0.00000000000E+00 0.  1.
         21   -1    0    0  501  502 -0.00000000000E+00 -0.00000000000E+00 -0.22508650267E+03  0.22508650267E+03  0.00000000000E+00 0.  1.
         25    1    1    2    0    0  0.00000000000E+00  0.00000000000E+00 -0.20773206358E+03  0.24244094176E+03  0.12500000000E+03 0.  0.
<mgrwt>
<rscale>  0 0.12500000E+03</rscale>
<asrwt>0</asrwt>
<pdfrwt beam="1">  1       21 0.26699137E-02 0.12500000E+03</pdfrwt>
<pdfrwt beam="2">  1       21 0.34628693E-01 0.12500000E+03</pdfrwt>
<totfact> 0.60597254E+06</totfact>
</mgrwt>
</event>
<event>
 3    1  0.1615911E-001  0.1250000E+03  0.7546771E-02  0.1235069E+00
         21   -1    0    0  502  501  0.00000000000E+00  0.00000000000E+00  0.27392749419E+02  0.27392749419E+02  0.00000000000E+00 0.  1.
         21   -1    0    0  501  502 -0.00000000000E+00 -0.00000000000E+00 -0.14260160381E+03  0.14260160381E+03  0.00000000000E+00 0.  1.
         25    1    1    2    0    0  0.00000000000E+00  0.00000000000E+00 -0.11520885439E+03  0.16999435323E+03  0.12500000000E+03 0.  0.
<mgrwt>
<rscale>  0 0.12500000E+03</rscale>
<asrwt>0</asrwt>
<pdfrwt beam="1">  1       21 0.42142691E-02 0.12500000E+03</pdfrwt>
<pdfrwt beam="2">  1       21 0.21938709E-01 0.12500000E+03</pdfrwt>
<totfact> 0.68318304E+06</totfact>
</mgrwt>
</event>
<event>
 3    1  0.1615911E-001  0.1250000E+03  0.7546771E-02  0.1235069E+00
         21   -1    0    0  502  501  0.00000000000E+00  0.00000000000E+00  0.98645409819E+01  0.98645409819E+01  0.00000000000E+00 0. -1.
         21   -1    0    0  501  502 -0.00000000000E+00 -0.00000000000E+00 -0.39598902850E+03  0.39598902850E+03  0.00000000000E+00 0. -1.
         25    1    1    2    0    0  0.00000000000E+00  0.00000000000E+00 -0.38612448752E+03  0.40585356948E+03  0.12500000000E+03 0.  0.
<mgrwt>
<rscale>  0 0.12500000E+03</rscale>
<asrwt>0</asrwt>
<pdfrwt beam="1">  1       21 0.15176219E-02 0.12500000E+03</pdfrwt>
<pdfrwt beam="2">  1       21 0.60921379E-01 0.12500000E+03</pdfrwt>
<totfact> 0.47655502E+06</totfact>
</mgrwt>
</event>
<event>
 3    1  0.1615911E-001  0.1250000E+03  0.7546771E-02  0.1235069E+00
         21   -1    0    0  502  501  0.00000000000E+00  0.00000000000E+00  0.79711856786E+01  0.79711856786E+01  0.00000000000E+00 0. -1.
         21   -1    0    0  501  502 -0.00000000000E+00 -0.00000000000E+00 -0.49004629393E+03  0.49004629393E+03  0.00000000000E+00 0. -1.
         25    1    1    2    0    0  0.00000000000E+00  0.00000000000E+00 -0.48207510825E+03  0.49801747961E+03  0.12500000000E+03 0.  0.
<mgrwt>
<rscale>  0 0.12500000E+03</rscale>
<asrwt>0</asrwt>
<pdfrwt beam="1">  1       21 0.12263364E-02 0.12500000E+03</pdfrwt>
<pdfrwt beam="2">  1       21 0.75391729E-01 0.12500000E+03</pdfrwt>
<totfact> 0.42151794E+06</totfact>
</mgrwt>
</event>
<event>
 3    1  0.1615911E-001  0.1250000E+03  0.7546771E-02  0.1235069E+00
         21   -1    0    0  502  501  0.00000000000E+00  0.00000000000E+00  0.76534143186E+01  0.76534143186E+01  0.00000000000E+00 0. -1.
         21   -1    0    0  501  502 -0.00000000000E+00 -0.00000000000E+00 -0.51039311834E+03  0.51039311834E+03  0.00000000000E+00 0. -1.
         25    1    1    2    0    0  0.00000000000E+00  0.00000000000E+00 -0.50273970402E+03  0.51804653266E+03  0.12500000000E+03 0.  0.
<mgrwt>
<rscale>  0 0.12500000E+03</rscale>
<asrwt>0</asrwt>
<pdfrwt beam="1">  1       21 0.11774481E-02 0.12500000E+03</pdfrwt>
<pdfrwt beam="2">  1       21 0.78522037E-01 0.12500000E+03</pdfrwt>
<totfact> 0.41081972E+06</totfact>
</mgrwt>
</event>
<event>
 3    1  0.1615911E-001  0.1250000E+03  0.7546771E-02  0.1235069E+00
         21   -1    0    0  502  501  0.00000000000E+00  0.00000000000E+00  0.39710193226E+02  0.39710193226E+02  0.00000000000E+00 0. -1.
         21   -1    0    0  501  502 -0.00000000000E+00 -0.00000000000E+00 -0.98368949700E+02  0.98368949700E+02  0.00000000000E+00 0. -1.
         25    1    1    2    0    0  0.00000000000E+00  0.00000000000E+00 -0.58658756474E+02  0.13807914293E+03  0.12500000000E+03 0.  0.
<mgrwt>
<rscale>  0 0.12500000E+03</rscale>
<asrwt>0</asrwt>
<pdfrwt beam="1">  1       21 0.61092606E-02 0.12500000E+03</pdfrwt>
<pdfrwt beam="2">  1       21 0.15133684E-01 0.12500000E+03</pdfrwt>
<totfact> 0.72291075E+06</totfact>
</mgrwt>
</event>
<event>
 3    1  0.1615911E-001  0.1250000E+03  0.7546771E-02  0.1235069E+00
         21   -1    0    0  502  501  0.00000000000E+00  0.00000000000E+00  0.14007898437E+03  0.14007898437E+03  0.00000000000E+00 0. -1.
         21   -1    0    0  501  502 -0.00000000000E+00 -0.00000000000E+00 -0.27886053127E+02  0.27886053127E+02  0.00000000000E+00 0. -1.
         25    1    1    2    0    0  0.00000000000E+00  0.00000000000E+00  0.11219293124E+03  0.16796503749E+03  0.12500000000E+03 0.  0.
<mgrwt>
<rscale>  0 0.12500000E+03</rscale>
<asrwt>0</asrwt>
<pdfrwt beam="1">  1       21 0.21550613E-01 0.12500000E+03</pdfrwt>
<pdfrwt beam="2">  1       21 0.42901621E-02 0.12500000E+03</pdfrwt>
<totfact> 0.68559114E+06</totfact>
</mgrwt>
</event>
<event>
 3    1  0.1615911E-001  0.1250000E+03  0.7546771E-02  0.1235069E+00
         21   -1    0    0  502  501  0.00000000000E+00  0.00000000000E+00  0.40858455136E+03  0.40858455136E+03  0.00000000000E+00 0. -1.
         21   -1    0    0  501  502 -0.00000000000E+00 -0.00000000000E+00 -0.95604446790E+01  0.95604446790E+01  0.00000000000E+00 0. -1.
         25    1    1    2    0    0  0.00000000000E+00  0.00000000000E+00  0.39902410668E+03  0.41814499604E+03  0.12500000000E+03 0.  0.
<mgrwt>
<rscale>  0 0.12500000E+03</rscale>
<asrwt>0</asrwt>
<pdfrwt beam="1">  1       21 0.62859148E-01 0.12500000E+03</pdfrwt>
<pdfrwt beam="2">  1       21 0.14708380E-02 0.12500000E+03</pdfrwt>
<totfact> 0.46860655E+06</totfact>
</mgrwt>
</event>
<event>
 3    1  0.1615911E-001  0.1250000E+03  0.7546771E-02  0.1235069E+00
         21   -1    0    0  502  501  0.00000000000E+00  0.00000000000E+00  0.43283552855E+02  0.43283552855E+02  0.00000000000E+00 0.  1.
         21   -1    0    0  501  502 -0.00000000000E+00 -0.00000000000E+00 -0.90247905783E+02  0.90247905783E+02  0.00000000000E+00 0.  1.
         25    1    1    2    0    0  0.00000000000E+00  0.00000000000E+00 -0.46964352928E+02  0.13353145864E+03  0.12500000000E+03 0.  0.
<mgrwt>
<rscale>  0 0.12500000E+03</rscale>
<asrwt>0</asrwt>
<pdfrwt beam="1">  1       21 0.66590081E-02 0.12500000E+03</pdfrwt>
<pdfrwt beam="2">  1       21 0.13884293E-01 0.12500000E+03</pdfrwt>
<totfact> 0.72891513E+06</totfact>
</mgrwt>
</event>
<event>
 3    1  0.1615911E-001  0.1250000E+03  0.7546771E-02  0.1235069E+00
         21   -1    0    0  502  501  0.00000000000E+00  0.00000000000E+00  0.40898154817E+01  0.40898154817E+01  0.00000000000E+00 0. -1.
         21   -1    0    0  501  502 -0.00000000000E+00 -0.00000000000E+00 -0.95511643923E+03  0.95511643923E+03  0.00000000000E+00 0. -1.
         25    1    1    2    0    0  0.00000000000E+00  0.00000000000E+00 -0.95102662375E+03  0.95920625472E+03  0.12500000000E+03 0.  0.
<mgrwt>
<rscale>  0 0.12500000E+03</rscale>
<asrwt>0</asrwt>
<pdfrwt beam="1">  1       21 0.62920111E-03 0.12500000E+03</pdfrwt>
<pdfrwt beam="2">  1       21 0.14694129E+00 0.12500000E+03</pdfrwt>
<totfact> 0.24666477E+06</totfact>
</mgrwt>
</event>
<event>
 3    1  0.1615911E-001  0.1250000E+03  0.7546771E-02  0.1235069E+00
         21   -1    0    0  502  501  0.00000000000E+00  0.00000000000E+00  0.45583232134E+02  0.45583232134E+02  0.00000000000E+00 0. -1.
         21   -1    0    0  501  502 -0.00000000000E+00 -0.00000000000E+00 -0.85694888606E+02  0.85694888606E+02  0.00000000000E+00 0. -1.
         25    1    1    2    0    0  0.00000000000E+00  0.00000000000E+00 -0.40111656472E+02  0.13127812074E+03  0.12500000000E+03 0.  0.
<mgrwt>
<rscale>  0 0.12500000E+03</rscale>
<asrwt>0</asrwt>
<pdfrwt beam="1">  1       21 0.70128049E-02 0.12500000E+03</pdfrwt>
<pdfrwt beam="2">  1       21 0.13183829E-01 0.12500000E+03</pdfrwt>
<totfact> 0.73193217E+06</totfact>
</mgrwt>
</event>
<event>
 3    1  0.1615911E-001  0.1250000E+03  0.7546771E-02  0.1235069E+00
         21   -1    0    0  502  501  0.00000000000E+00  0.00000000000E+00  0.42839576999E+01  0.42839576999E+01  0.00000000000E+00 0. -1.
         21   -1    0    0  501  502 -0.00000000000E+00 -0.00000000000E+00 -0.91183206596E+03  0.91183206596E+03  0.00000000000E+00 0. -1.
         25    1    1    2    0    0  0.00000000000E+00  0.00000000000E+00 -0.90754810826E+03  0.91611602366E+03  0.12500000000E+03 0.  0.
<mgrwt>
<rscale>  0 0.12500000E+03</rscale>
<asrwt>0</asrwt>
<pdfrwt beam="1">  1       21 0.65907095E-03 0.12500000E+03</pdfrwt>
<pdfrwt beam="2">  1       21 0.14028174E+00 0.12500000E+03</pdfrwt>
<totfact> 0.25841030E+06</totfact>
</mgrwt>
</event>
<event>
 3    1  0.1615911E-001  0.1250000E+03  0.7546771E-02  0.1235069E+00
         21   -1    0    0  502  501  0.00000000000E+00  0.00000000000E+00  0.22095037536E+02  0.22095037536E+02  0.00000000000E+00 0. -1.
         21   -1    0    0  501  502 -0.00000000000E+00 -0.00000000000E+00 -0.17679309183E+03  0.17679309183E+03  0.00000000000E+00 0. -1.
         25    1    1    2    0    0  0.00000000000E+00  0.00000000000E+00 -0.15469805429E+03  0.19888812936E+03  0.12500000000E+03 0.  0.
<mgrwt>
<rscale>  0 0.12500000E+03</rscale>
<asrwt>0</asrwt>
<pdfrwt beam="1">  1       21 0.33992366E-02 0.12500000E+03</pdfrwt>
<pdfrwt beam="2">  1       21 0.27198937E-01 0.12500000E+03</pdfrwt>
<totfact> 0.65047929E+06</totfact>
</mgrwt>
</event>
<event>
 3    1  0.1615911E-001  0.1250000E+03  0.7546771E-02  0.1235069E+00
         21   -1    0    0  502  501  0.00000000000E+00  0.00000000000E+00  0.38575732396E+02  0.38575732396E+02  0.00000000000E+00 0. -1.
         21   -1    0    0  501  502 -0.00000000000E+00 -0.00000000000E+00 -0.10126184929E+03  0.10126184929E+03  0.00000000000E+00 0. -1.
         25    1    1    2    0    0  0.00000000000E+00  0.00000000000E+00 -0.62686116891E+02  0.13983758168E+03  0.12500000000E+03 0.  0.
<mgrwt>
<rscale>  0 0.12500000E+03</rscale>
<asrwt>0</asrwt>
<pdfrwt beam="1">  1       21 0.59347282E-02 0.12500000E+03</pdfrwt>
<pdfrwt beam="2">  1       21 0.15578746E-01 0.12500000E+03</pdfrwt>
<totfact> 0.72060519E+06</totfact>
</mgrwt>
</event>
<event>
 3    1  0.1615911E-001  0.1250000E+03  0.7546771E-02  0.1235069E+00
         21   -1    0    0  502  501  0.00000000000E+00  0.00000000000E+00  0.52808244151E+02  0.52808244151E+02  0.00000000000E+00 0.  1.
         21   -1    0    0  501  502 -0.00000000000E+00 -0.00000000000E+00 -0.73970457886E+02  0.73970457886E+02  0.00000000000E+00 0.  1.
         25    1    1    2    0    0  0.00000000000E+00  0.00000000000E+00 -0.21162213734E+02  0.12677870204E+03  0.12500000000E+03 0.  0.
<mgrwt>
<rscale>  0 0.12500000E+03</rscale>
<asrwt>0</asrwt>
<pdfrwt beam="1">  1       21 0.81243453E-02 0.12500000E+03</pdfrwt>
<pdfrwt beam="2">  1       21 0.11380070E-01 0.12500000E+03</pdfrwt>
<totfact> 0.73799293E+06</totfact>
</mgrwt>
</event>
<event>
 3    1  0.1615911E-001  0.1250000E+03  0.7546771E-02  0.1235069E+00
         21   -1    0    0  502  501  0.00000000000E+00  0.00000000000E+00  0.10760081258E+03  0.10760081258E+03  0.00000000000E+00 0. -1.
         21   -1    0    0  501  502 -0.00000000000E+00 -0.00000000000E+00 -0.36303164507E+02  0.36303164507E+02  0.00000000000E+00 0. -1.
         25    1    1    2    0    0  0.00000000000E+00  0.00000000000E+00  0.71297648068E+02  0.14390397708E+03  0.12500000000E+03 0.  0.
<mgrwt>
<rscale>  0 0.12500000E+03</rscale>
<asrwt>0</asrwt>
<pdfrwt beam="1">  1       21 0.16553971E-01 0.12500000E+03</pdfrwt>
<pdfrwt beam="2">  1       21 0.55851023E-02 0.12500000E+03</pdfrwt>
<totfact> 0.71533659E+06</totfact>
</mgrwt>
</event>
<event>
 3    1  0.1615911E-001  0.1250000E+03  0.7546771E-02  0.1235069E+00
         21   -1    0    0  502  501  0.00000000000E+00  0.00000000000E+00  0.17570010607E+03  0.17570010607E+03  0.00000000000E+00 0.  1.
         21   -1    0    0  501  502 -0.00000000000E+00 -0.00000000000E+00 -0.22232485155E+02  0.22232485155E+02  0.00000000000E+00 0.  1.
         25    1    1    2    0    0  0.00000000000E+00  0.00000000000E+00  0.15346762092E+03  0.19793259123E+03  0.12500000000E+03 0.  0.
<mgrwt>
<rscale>  0 0.12500000E+03</rscale>
<asrwt>0</asrwt>
<pdfrwt beam="1">  1       21 0.27030785E-01 0.12500000E+03</pdfrwt>
<pdfrwt beam="2">  1       21 0.34203824E-02 0.12500000E+03</pdfrwt>
<totfact> 0.65151480E+06</totfact>
</mgrwt>
</event>
<event>
 3    1  0.1615911E-001  0.1250000E+03  0.7546771E-02  0.1235069E+00
         21   -1    0    0  502  501  0.00000000000E+00  0.00000000000E+00  0.47906300560E+03  0.47906300560E+03  0.00000000000E+00 0.  1.
         21   -1    0    0  501  502 -0.00000000000E+00 -0.00000000000E+00 -0.81539379045E+01  0.81539379045E+01  0.00000000000E+00 0.  1.
         25    1    1    2    0    0  0.00000000000E+00  0.00000000000E+00  0.47090906770E+03  0.48721694351E+03  0.12500000000E+03 0.  0.
<mgrwt>
<rscale>  0 0.12500000E+03</rscale>
<asrwt>0</asrwt>
<pdfrwt beam="1">  1       21 0.73701979E-01 0.12500000E+03</pdfrwt>
<pdfrwt beam="2">  1       21 0.12544524E-02 0.12500000E+03</pdfrwt>
<totfact> 0.42745926E+06</totfact>
</mgrwt>
</event>
<event>
 3    1  0.1615911E-001  0.1250000E+03  0.7546771E-02  0.1235069E+00
         21   -1    0    0  502  501  0.00000000000E+00  0.00000000000E+00  0.80110654732E+03  0.80110654732E+03  0.00000000000E+00 0.  1.
         21   -1    0    0  501  502 -0.00000000000E+00 -0.00000000000E+00 -0.48760680000E+01  0.48760680000E+01  0.00000000000E+00 0.  1.
         25    1    1    2    0    0  0.00000000000E+00  0.00000000000E+00  0.79623047932E+03  0.80598261532E+03  0.12500000000E+03 0.  0.
<mgrwt>
<rscale>  0 0.12500000E+03</rscale>
<asrwt>0</asrwt>
<pdfrwt beam="1">  1       21 0.12324706E+00 0.12500000E+03</pdfrwt>
<pdfrwt beam="2">  1       21 0.75016495E-03 0.12500000E+03</pdfrwt>
<totfact> 0.29165573E+06</totfact>
</mgrwt>
</event>
<event>
 3    1  0.1615911E-001  0.1250000E+03  0.7546771E-02  0.1235069E+00
         21   -1    0    0  502  501  0.00000000000E+00  0.00000000000E+00  0.12088034128E+02  0.12088034128E+02  0.00000000000E+00 0.  1.
         21   -1    0    0  501  502 -0.00000000000E+00 -0.00000000000E+00 -0.32315014654E+03  0.32315014654E+03  0.00000000000E+00 0.  1.
         25    1    1    2    0    0  0.00000000000E+00  0.00000000000E+00 -0.31106211241E+03  0.33523818067E+03  0.12500000000E+03 0.  0.
<mgrwt>
<rscale>  0 0.12500000E+03</rscale>
<asrwt>0</asrwt>
<pdfrwt beam="1">  1       21 0.18596975E-02 0.12500000E+03</pdfrwt>
<pdfrwt beam="2">  1       21 0.49715408E-01 0.12500000E+03</pdfrwt>
<totfact> 0.52647462E+06</totfact>
</mgrwt>
</event>
<event>
 3    1  0.1615911E-001  0.1250000E+03  0.7546771E-02  0.1235069E+00
         21   -1    0    0  502  501  0.00000000000E+00  0.00000000000E+00  0.28870433916E+03  0.28870433916E+03  0.00000000000E+00 0. -1.
         21   -1    0    0  501  502 -0.00000000000E+00 -0.00000000000E+00 -0.13530278109E+02  0.13530278109E+02  0.00000000000E+00 0. -1.
         25    1    1    2    0    0  0.00000000000E+00  0.00000000000E+00  0.27517406105E+03  0.30223461727E+03  0.12500000000E+03 0.  0.
<mgrwt>
<rscale>  0 0.12500000E+03</rscale>
<asrwt>0</asrwt>
<pdfrwt beam="1">  1       21 0.44416048E-01 0.12500000E+03</pdfrwt>
<pdfrwt beam="2">  1       21 0.20815815E-02 0.12500000E+03</pdfrwt>
<totfact> 0.55270980E+06</totfact>
</mgrwt>
</event>
<event>
 3    1  0.1615911E-001  0.1250000E+03  0.7546771E-02  0.1235069E+00
         21   -1    0    0  502  501  0.00000000000E+00  0.00000000000E+00  0.17686879048E+02  0.17686879048E+02  0.00000000000E+00 0.  1.
         21   -1    0    0  501  502 -0.00000000000E+00 -0.00000000000E+00 -0.22085581008E+03  0.22085581008E+03  0.00000000000E+00 0.  1.
         25    1    1    2    0    0  0.00000000000E+00  0.00000000000E+00 -0.20316893103E+03  0.23854268913E+03  0.12500000000E+03 0.  0.
<mgrwt>
<rscale>  0 0.12500000E+03</rscale>
<asrwt>0</asrwt>
<pdfrwt beam="1">  1       21 0.27210584E-02 0.12500000E+03</pdfrwt>
<pdfrwt beam="2">  1       21 0.33977816E-01 0.12500000E+03</pdfrwt>
<totfact> 0.60973969E+06</totfact>
</mgrwt>
</event>
<event>
 3    1  0.1615911E-001  0.1250000E+03  0.7546771E-02  0.1235069E+00
         21   -1    0    0  502  501  0.00000000000E+00  0.00000000000E+00  0.23463521510E+02  0.23463521510E+02  0.00000000000E+00 0. -1.
         21   -1    0    0  501  502 -0.00000000000E+00 -0.00000000000E+00 -0.16648183003E+03  0.16648183003E+03  0.00000000000E+00 0. -1.
         25    1    1    2    0    0  0.00000000000E+00  0.00000000000E+00 -0.14301830852E+03  0.18994535154E+03  0.12500000000E+03 0.  0.
<mgrwt>
<rscale>  0 0.12500000E+03</rscale>
<asrwt>0</asrwt>
<pdfrwt beam="1">  1       21 0.36097726E-02 0.12500000E+03</pdfrwt>
<pdfrwt beam="2">  1       21 0.25612589E-01 0.12500000E+03</pdfrwt>
<totfact> 0.66028538E+06</totfact>
</mgrwt>
</event>
<event>
 3    1  0.1615911E-001  0.1250000E+03  0.7546771E-02  0.1235069E+00
         21   -1    0    0  502  501  0.00000000000E+00  0.00000000000E+00  0.61017070809E+01  0.61017070809E+01  0.00000000000E+00 0. -1.
         21   -1    0    0  501  502 -0.00000000000E+00 -0.00000000000E+00 -0.64018969581E+03  0.64018969581E+03  0.00000000000E+00 0. -1.
         25    1    1    2    0    0  0.00000000000E+00  0.00000000000E+00 -0.63408798872E+03  0.64629140289E+03  0.12500000000E+03 0.  0.
<mgrwt>
<rscale>  0 0.12500000E+03</rscale>
<asrwt>0</asrwt>
<pdfrwt beam="1">  1       21 0.93872435E-03 0.12500000E+03</pdfrwt>
<pdfrwt beam="2">  1       21 0.98490703E-01 0.12500000E+03</pdfrwt>
<totfact> 0.35079247E+06</totfact>
</mgrwt>
</event>
<event>
 3    1  0.1615911E-001  0.1250000E+03  0.7546771E-02  0.1235069E+00
         21   -1    0    0  502  501  0.00000000000E+00  0.00000000000E+00  0.10189844317E+03  0.10189844317E+03  0.00000000000E+00 0. -1.
         21   -1    0    0  501  502 -0.00000000000E+00 -0.00000000000E+00 -0.38334736809E+02  0.38334736809E+02  0.00000000000E+00 0. -1.
         25    1    1    2    0    0  0.00000000000E+00  0.00000000000E+00  0.63563706356E+02  0.14023317997E+03  0.12500000000E+03 0.  0.
<mgrwt>
<rscale>  0 0.12500000E+03</rscale>
<asrwt>0</asrwt>
<pdfrwt beam="1">  1       21 0.15676683E-01 0.12500000E+03</pdfrwt>
<pdfrwt beam="2">  1       21 0.58976519E-02 0.12500000E+03</pdfrwt>
<totfact> 0.72008882E+06</totfact>
</mgrwt>
</event>
<event>
 3    1  0.1615911E-001  0.1250000E+03  0.7546771E-02  0.1235069E+00
         21   -1    0    0  502  501  0.00000000000E+00  0.00000000000E+00  0.31160652646E+01  0.31160652646E+01  0.00000000000E+00 0.  1.
         21   -1    0    0  501  502 -0.00000000000E+00 -0.00000000000E+00 -0.12535841416E+04  0.12535841416E+04  0.00000000000E+00 0.  1.
         25    1    1    2    0    0  0.00000000000E+00  0.00000000000E+00 -0.12504680764E+04  0.12567002069E+04  0.12500000000E+03 0.  0.
<mgrwt>
<rscale>  0 0.12500000E+03</rscale>
<asrwt>0</asrwt>
<pdfrwt beam="1">  1       21 0.47939363E-03 0.12500000E+03</pdfrwt>
<pdfrwt beam="2">  1       21 0.19285951E+00 0.12500000E+03</pdfrwt>
<totfact> 0.18048071E+06</totfact>
</mgrwt>
</event>
<event>
 3    1  0.1615911E-001  0.1250000E+03  0.7546771E-02  0.1235069E+00
         21   -1    0    0  502  501  0.00000000000E+00  0.00000000000E+00  0.48921041333E+02  0.48921041333E+02  0.00000000000E+00 0.  1.
         21   -1    0    0  501  502 -0.00000000000E+00 -0.00000000000E+00 -0.79848055020E+02  0.79848055020E+02  0.00000000000E+00 0.  1.
         25    1    1    2    0    0  0.00000000000E+00  0.00000000000E+00 -0.30927013688E+02  0.12876909635E+03  0.12500000000E+03 0.  0.
<mgrwt>
<rscale>  0 0.12500000E+03</rscale>
<asrwt>0</asrwt>
<pdfrwt beam="1">  1       21 0.75263141E-02 0.12500000E+03</pdfrwt>
<pdfrwt beam="2">  1       21 0.12284316E-01 0.12500000E+03</pdfrwt>
<totfact> 0.73529910E+06</totfact>
</mgrwt>
</event>
<event>
 3    1  0.1615911E-001  0.1250000E+03  0.7546771E-02  0.1235069E+00
         21   -1    0    0  502  501  0.00000000000E+00  0.00000000000E+00  0.34167130805E+01  0.34167130805E+01  0.00000000000E+00 0. -1.
         21   -1    0    0  501  502 -0.00000000000E+00 -0.00000000000E+00 -0.11432771520E+04  0.11432771520E+04  0.00000000000E+00 0. -1.
         25    1    1    2    0    0  0.00000000000E+00  0.00000000000E+00 -0.11398604389E+04  0.11466938651E+04  0.12500000000E+03 0.  0.
<mgrwt>
<rscale>  0 0.12500000E+03</rscale>
<asrwt>0</asrwt>
<pdfrwt beam="1">  1       21 0.52564806E-03 0.12500000E+03</pdfrwt>
<pdfrwt beam="2">  1       21 0.17588883E+00 0.12500000E+03</pdfrwt>
<totfact> 0.20239096E+06</totfact>
</mgrwt>
</event>
<event>
 3    1  0.1615911E-001  0.1250000E+03  0.7546771E-02  0.1235069E+00
         21   -1    0    0  502  501  0.00000000000E+00  0.00000000000E+00  0.94976402103E+02  0.94976402103E+02  0.00000000000E+00 0. -1.
         21   -1    0    0  501  502 -0.00000000000E+00 -0.00000000000E+00 -0.41128637362E+02  0.41128637362E+02  0.00000000000E+00 0. -1.
         25    1    1    2    0    0  0.00000000000E+00  0.00000000000E+00  0.53847764741E+02  0.13610503946E+03  0.12500000000E+03 0.  0.
<mgrwt>
<rscale>  0 0.12500000E+03</rscale>
<asrwt>0</asrwt>
<pdfrwt beam="1">  1       21 0.14611754E-01 0.12500000E+03</pdfrwt>
<pdfrwt beam="2">  1       21 0.63274827E-02 0.12500000E+03</pdfrwt>
<totfact> 0.72550486E+06</totfact>
</mgrwt>
</event>
<event>
 3    1  0.1615911E-001  0.1250000E+03  0.7546771E-02  0.1235069E+00
         21   -1    0    0  502  501  0.00000000000E+00  0.00000000000E+00  0.20266940390E+03  0.20266940390E+03  0.00000000000E+00 0. -1.
         21   -1    0    0  501  502 -0.00000000000E+00 -0.00000000000E+00 -0.19273999552E+02  0.19273999552E+02  0.00000000000E+00 0. -1.
         25    1    1    2    0    0  0.00000000000E+00  0.00000000000E+00  0.18339540435E+03  0.22194340345E+03  0.12500000000E+03 0.  0.
<mgrwt>
<rscale>  0 0.12500000E+03</rscale>
<asrwt>0</asrwt>
<pdfrwt beam="1">  1       21 0.31179907E-01 0.12500000E+03</pdfrwt>
<pdfrwt beam="2">  1       21 0.29652308E-02 0.12500000E+03</pdfrwt>
<totfact> 0.62624445E+06</totfact>
</mgrwt>
</event>
<event>
 3    1  0.1615911E-001  0.1250000E+03  0.7546771E-02  0.1235069E+00
         21   -1    0    0  502  501  0.00000000000E+00  0.00000000000E+00  0.92129166076E+02  0.92129166076E+02  0.00000000000E+00 0.  1.
         21   -1    0    0  501  502 -0.00000000000E+00 -0.00000000000E+00 -0.42399710823E+02  0.42399710823E+02  0.00000000000E+00 0.  1.
         25    1    1    2    0    0  0.00000000000E+00  0.00000000000E+00  0.49729455252E+02  0.13452887690E+03  0.12500000000E+03 0.  0.
<mgrwt>
<rscale>  0 0.12500000E+03</rscale>
<asrwt>0</asrwt>
<pdfrwt beam="1">  1       21 0.14173718E-01 0.12500000E+03</pdfrwt>
<pdfrwt beam="2">  1       21 0.65230325E-02 0.12500000E+03</pdfrwt>
<totfact> 0.72758912E+06</totfact>
</mgrwt>
</event>
<event>
 3    1  0.1615911E-001  0.1250000E+03  0.7546771E-02  0.1235069E+00
         21   -1    0    0  502  501  0.00000000000E+00  0.00000000000E+00  0.38188146021E+03  0.38188146021E+03  0.00000000000E+00 0. -1.
         21   -1    0    0  501  502 -0.00000000000E+00 -0.00000000000E+00 -0.10228959526E+02  0.10228959526E+02  0.00000000000E+00 0. -1.
         25    1    1    2    0    0  0.00000000000E+00  0.00000000000E+00  0.37165250068E+03  0.39211041973E+03  0.12500000000E+03 0.  0.
<mgrwt>
<rscale>  0 0.12500000E+03</rscale>
<asrwt>0</asrwt>
<pdfrwt beam="1">  1       21 0.58750983E-01 0.12500000E+03</pdfrwt>
<pdfrwt beam="2">  1       21 0.15736864E-02 0.12500000E+03</pdfrwt>
<totfact> 0.48569103E+06</totfact>
</mgrwt>
</event>
<event>
 3    1  0.1615911E-001  0.1250000E+03  0.7546771E-02  0.1235069E+00
         21   -1    0    0  502  501  0.00000000000E+00  0.00000000000E+00  0.15115604621E+02  0.15115604621E+02  0.00000000000E+00 0.  1.
         21   -1    0    0  501  502 -0.00000000000E+00 -0.00000000000E+00 -0.25842499178E+03  0.25842499178E+03  0.00000000000E+00 0.  1.
         25    1    1    2    0    0  0.00000000000E+00  0.00000000000E+00 -0.24330938716E+03  0.27354059640E+03  0.12500000000E+03 0.  0.
<mgrwt>
<rscale>  0 0.12500000E+03</rscale>
<asrwt>0</asrwt>
<pdfrwt beam="1">  1       21 0.23254777E-02 0.12500000E+03</pdfrwt>
<pdfrwt beam="2">  1       21 0.39757690E-01 0.12500000E+03</pdfrwt>
<totfact> 0.57729318E+06</totfact>
</mgrwt>
</event>
<event>
 3    1  0.1615911E-001  0.1250000E+03  0.7546771E-02  0.1235069E+00
         21   -1    0    0  502  501  0.00000000000E+00  0.00000000000E+00  0.14679753477E+03  0.14679753477E+03  0.00000000000E+00 0. -1.
         21   -1    0    0  501  502 -0.00000000000E+00 -0.00000000000E+00 -0.26609779286E+02  0.26609779286E+02  0.00000000000E+00 0. -1.
         25    1    1    2    0    0  0.00000000000E+00  0.00000000000E+00  0.12018775549E+03  0.17340731406E+03  0.12500000000E+03 0.  0.
<mgrwt>
<rscale>  0 0.12500000E+03</rscale>
<asrwt>0</asrwt>
<pdfrwt beam="1">  1       21 0.22584236E-01 0.12500000E+03</pdfrwt>
<pdfrwt beam="2">  1       21 0.40938123E-02 0.12500000E+03</pdfrwt>
<totfact> 0.67915996E+06</totfact>
</mgrwt>
</event>
<event>
 3    1  0.1615911E-001  0.1250000E+03  0.7546771E-02  0.1235069E+00
         21   -1    0    0  502  501  0.00000000000E+00  0.00000000000E+00  0.98476539969E+02  0.98476539969E+02  0.00000000000E+00 0.  1.
         21   -1    0    0  501  502 -0.00000000000E+00 -0.00000000000E+00 -0.39666807965E+02  0.39666807965E+02  0.00000000000E+00 0.  1.
         25    1    1    2    0    0  0.00000000000E+00  0.00000000000E+00  0.58809732004E+02  0.13814334793E+03  0.12500000000E+03 0.  0.
<mgrwt>
<rscale>  0 0.12500000E+03</rscale>
<asrwt>0</asrwt>
<pdfrwt beam="1">  1       21 0.15150237E-01 0.12500000E+03</pdfrwt>
<pdfrwt beam="2">  1       21 0.61025859E-02 0.12500000E+03</pdfrwt>
<totfact> 0.72282627E+06</totfact>
</mgrwt>
</event>
<event>
 3    1  0.1615911E-001  0.1250000E+03  0.7546771E-02  0.1235069E+00
         21   -1    0    0  502  501  0.00000000000E+00  0.00000000000E+00  0.27444100400E+01  0.27444100400E+01  0.00000000000E+00 0.  1.
         21   -1    0    0  501  502 -0.00000000000E+00 -0.00000000000E+00 -0.14233478027E+04  0.14233478027E+04  0.00000000000E+00 0.  1.
         25    1    1    2    0    0  0.00000000000E+00  0.00000000000E+00 -0.14206033926E+04  0.14260922127E+04  0.12500000000E+03 0.  0.
<mgrwt>
<rscale>  0 0.12500000E+03</rscale>
<asrwt>0</asrwt>
<pdfrwt beam="1">  1       21 0.42221589E-03 0.12500000E+03</pdfrwt>
<pdfrwt beam="2">  1       21 0.21897712E+00 0.12500000E+03</pdfrwt>
<totfact> 0.15125475E+06</totfact>
</mgrwt>
</event>
<event>
 3    1  0.1615911E-001  0.1250000E+03  0.7546771E-02  0.1235069E+00
         21   -1    0    0  502  501  0.00000000000E+00  0.00000000000E+00  0.19609369962E+02  0.19609369962E+02  0.00000000000E+00 0.  1.
         21   -1    0    0  501  502 -0.00000000000E+00 -0.00000000000E+00 -0.19920323843E+03  0.19920323843E+03  0.00000000000E+00 0.  1.
         25    1    1    2    0    0  0.00000000000E+00  0.00000000000E+00 -0.17959386847E+03  0.21881260839E+03  0.12500000000E+03 0.  0.
<mgrwt>
<rscale>  0 0.12500000E+03</rscale>
<asrwt>0</asrwt>
<pdfrwt beam="1">  1       21 0.30168262E-02 0.12500000E+03</pdfrwt>
<pdfrwt beam="2">  1       21 0.30646652E-01 0.12500000E+03</pdfrwt>
<totfact> 0.62944109E+06</totfact>
</mgrwt>
</event>
<event>
 3    1  0.1615911E-001  0.1250000E+03  0.7546771E-02  0.1235069E+00
         21   -1    0    0  502  501  0.00000000000E+00  0.00000000000E+00  0.30845893521E+02  0.30845893521E+02  0.00000000000E+00 0. -1.
         21   -1    0    0  501  502 -0.00000000000E+00 -0.00000000000E+00 -0.12663760242E+03  0.12663760242E+03  0.00000000000E+00 0. -1.
         25    1    1    2    0    0  0.00000000000E+00  0.00000000000E+00 -0.95791708899E+02  0.15748349594E+03  0.12500000000E+03 0.  0.
<mgrwt>
<rscale>  0 0.12500000E+03</rscale>
<asrwt>0</asrwt>
<pdfrwt beam="1">  1       21 0.47455219E-02 0.12500000E+03</pdfrwt>
<pdfrwt beam="2">  1       21 0.19482709E-01 0.12500000E+03</pdfrwt>
<totfact> 0.69828300E+06</totfact>
</mgrwt>
</event>
<event>
 3    1  0.1615911E-001  0.1250000E+03  0.7546771E-02  0.1235069E+00
         21   -1    0    0  502  501  0.00000000000E+00  0.00000000000E+00  0.16967080124E+03  0.16967080124E+03  0.00000000000E+00 0.  1.
         21   -1    0    0  501  502 -0.00000000000E+00 -0.00000000000E+00 -0.23022523448E+02  0.23022523448E+02  0.00000000000E+00 0.  1.
         25    1    1    2    0    0  0.00000000000E+00  0.00000000000E+00  0.14664827779E+03  0.19269332469E+03  0.12500000000E+03 0.  0.
<mgrwt>
<rscale>  0 0.12500000E+03</rscale>
<asrwt>0</asrwt>
<pdfrwt beam="1">  1       21 0.26103199E-01 0.12500000E+03</pdfrwt>
<pdfrwt beam="2">  1       21 0.35419268E-02 0.12500000E+03</pdfrwt>
<totfact> 0.65724370E+06</totfact>
</mgrwt>
</event>
<event>
 3    1  0.1615911E-001  0.1250000E+03  0.7546771E-02  0.1235069E+00
         21   -1    0    0  502  501  0.00000000000E+00  0.00000000000E+00  0.36274887275E+02  0.36274887275E+02  0.00000000000E+00 0. -1.
         21   -1    0    0  501  502 -0.00000000000E+00 -0.00000000000E+00 -0.10768469025E+03  0.10768469025E+03  0.00000000000E+00 0. -1.
         25    1    1    2    0    0  0.00000000000E+00  0.00000000000E+00 -0.71409802971E+02  0.14395957752E+03  0.12500000000E+03 0.  0.
<mgrwt>
<rscale>  0 0.12500000E+03</rscale>
<asrwt>0</asrwt>
<pdfrwt beam="1">  1       21 0.55807519E-02 0.12500000E+03</pdfrwt>
<pdfrwt beam="2">  1       21 0.16566875E-01 0.12500000E+03</pdfrwt>
<totfact> 0.71526514E+06</totfact>
</mgrwt>
</event>
<event>
 3    1  0.1615911E-001  0.1250000E+03  0.7546771E-02  0.1235069E+00
         21   -1    0    0  502  501  0.00000000000E+00  0.00000000000E+00  0.27944839517E+02  0.27944839517E+02  0.00000000000E+00 0.  1.
         21   -1    0    0  501  502 -0.00000000000E+00 -0.00000000000E+00 -0.13978430606E+03  0.13978430606E+03  0.00000000000E+00 0.  1.
         25    1    1    2    0    0  0.00000000000E+00  0.00000000000E+00 -0.11183946655E+03  0.16772914558E+03  0.12500000000E+03 0.  0.
<mgrwt>
<rscale>  0 0.12500000E+03</rscale>
<asrwt>0</asrwt>
<pdfrwt beam="1">  1       21 0.42992061E-02 0.12500000E+03</pdfrwt>
<pdfrwt beam="2">  1       21 0.21505278E-01 0.12500000E+03</pdfrwt>
<totfact> 0.68587194E+06</totfact>
</mgrwt>
</event>
<event>
 3    1  0.1615911E-001  0.1250000E+03  0.7546771E-02  0.1235069E+00
         21   -1    0    0  502  501  0.00000000000E+00  0.00000000000E+00  0.16243591272E+02  0.16243591272E+02  0.00000000000E+00 0.  1.
         21   -1    0    0  501  502 -0.00000000000E+00 -0.00000000000E+00 -0.24047945645E+03  0.24047945645E+03  0.00000000000E+00 0.  1.
         25    1    1    2    0    0  0.00000000000E+00  0.00000000000E+00 -0.22423586518E+03  0.25672304772E+03  0.12500000000E+03 0.  0.
<mgrwt>
<rscale>  0 0.12500000E+03</rscale>
<asrwt>0</asrwt>
<pdfrwt beam="1">  1       21 0.24990140E-02 0.12500000E+03</pdfrwt>
<pdfrwt beam="2">  1       21 0.36996840E-01 0.12500000E+03</pdfrwt>
<totfact> 0.59250935E+06</totfact>
</mgrwt>
</event>
<event>
 3    1  0.1615911E-001  0.1250000E+03  0.7546771E-02  0.1235069E+00
         21   -1    0    0  502  501  0.00000000000E+00  0.00000000000E+00  0.15153220130E+03  0.15153220130E+03  0.00000000000E+00 0.  1.
         21   -1    0    0  501  502 -0.00000000000E+00 -0.00000000000E+00 -0.25778349198E+02  0.25778349198E+02  0.00000000000E+00 0.  1.
         25    1    1    2    0    0  0.00000000000E+00  0.00000000000E+00  0.12575385211E+03  0.17731055050E+03  0.12500000000E+03 0.  0.
<mgrwt>
<rscale>  0 0.12500000E+03</rscale>
<asrwt>0</asrwt>
<pdfrwt beam="1">  1       21 0.23312646E-01 0.12500000E+03</pdfrwt>
<pdfrwt beam="2">  1       21 0.39659000E-02 0.12500000E+03</pdfrwt>
<totfact> 0.67461409E+06</totfact>
</mgrwt>
</event>
<event>
 3    1  0.1615911E-001  0.1250000E+03  0.7546771E-02  0.1235069E+00
         21   -1    0    0  502  501  0.00000000000E+00  0.00000000000E+00  0.11364301118E+02  0.11364301118E+02  0.00000000000E+00 0. -1.
         21   -1    0    0  501  502 -0.00000000000E+00 -0.00000000000E+00 -0.34372989236E+03  0.34372989236E+03  0.00000000000E+00 0. -1.
         25    1    1    2    0    0  0.00000000000E+00  0.00000000000E+00 -0.33236559124E+03  0.35509419348E+03  0.12500000000E+03 0.  0.
<mgrwt>
<rscale>  0 0.12500000E+03</rscale>
<asrwt>0</asrwt>
<pdfrwt beam="1">  1       21 0.17483542E-02 0.12500000E+03</pdfrwt>
<pdfrwt beam="2">  1       21 0.52881518E-01 0.12500000E+03</pdfrwt>
<totfact> 0.51164400E+06</totfact>
</mgrwt>
</event>
<event>
 3    1  0.1615911E-001  0.1250000E+03  0.7546771E-02  0.1235069E+00
         21   -1    0    0  502  501  0.00000000000E+00  0.00000000000E+00  0.93267681535E+01  0.93267681535E+01  0.00000000000E+00 0. -1.
         21   -1    0    0  501  502 -0.00000000000E+00 -0.00000000000E+00 -0.41882138976E+03  0.41882138976E+03  0.00000000000E+00 0. -1.
         25    1    1    2    0    0  0.00000000000E+00  0.00000000000E+00 -0.40949462161E+03  0.42814815791E+03  0.12500000000E+03 0.  0.
<mgrwt>
<rscale>  0 0.12500000E+03</rscale>
<asrwt>0</asrwt>
<pdfrwt beam="1">  1       21 0.14348871E-02 0.12500000E+03</pdfrwt>
<pdfrwt beam="2">  1       21 0.64434075E-01 0.12500000E+03</pdfrwt>
<totfact> 0.46228679E+06</totfact>
</mgrwt>
</event>
<event>
 3    1  0.1615911E-001  0.1250000E+03  0.7546771E-02  0.1235069E+00
         21   -1    0    0  502  501  0.00000000000E+00  0.00000000000E+00  0.53519084555E+01  0.53519084555E+01  0.00000000000E+00 0. -1.
         21   -1    0    0  501  502 -0.00000000000E+00 -0.00000000000E+00 -0.72987982371E+03  0.72987982371E+03  0.00000000000E+00 0. -1.
         25    1    1    2    0    0  0.00000000000E+00  0.00000000000E+00 -0.72452791526E+03  0.73523173217E+03  0.12500000000E+03 0.  0.
<mgrwt>
<rscale>  0 0.12500000E+03</rscale>
<asrwt>0</asrwt>
<pdfrwt beam="1">  1       21 0.82337043E-03 0.12500000E+03</pdfrwt>
<pdfrwt beam="2">  1       21 0.11228922E+00 0.12500000E+03</pdfrwt>
<totfact> 0.31595226E+06</totfact>
</mgrwt>
</event>
<event>
 3    1  0.1615911E-001  0.1250000E+03  0.7546771E-02  0.1235069E+00
         21   -1    0    0  502  501  0.00000000000E+00  0.00000000000E+00  0.14422819777E+02  0.14422819777E+02  0.00000000000E+00 0.  1.
         21   -1    0    0  501  502 -0.00000000000E+00 -0.00000000000E+00 -0.27083816206E+03  0.27083816206E+03  0.00000000000E+00 0.  1.
         25    1    1    2    0    0  0.00000000000E+00  0.00000000000E+00 -0.25641534228E+03  0.28526098183E+03  0.12500000000E+03 0.  0.
<mgrwt>
<rscale>  0 0.12500000E+03</rscale>
<asrwt>0</asrwt>
<pdfrwt beam="1">  1       21 0.22188955E-02 0.12500000E+03</pdfrwt>
<pdfrwt beam="2">  1       21 0.41667407E-01 0.12500000E+03</pdfrwt>
<totfact> 0.56703728E+06</totfact>
</mgrwt>
</event>
<event>
 3    1  0.1615911E-001  0.1250000E+03  0.7546771E-02  0.1235069E+00
         21   -1    0    0  502  501  0.00000000000E+00  0.00000000000E+00  0.32904270927E+02  0.32904270927E+02  0.00000000000E+00 0. -1.
         21   -1    0    0  501  502 -0.00000000000E+00 -0.00000000000E+00 -0.11871559193E+03  0.11871559193E+03  0.00000000000E+00 0. -1.
         25    1    1    2    0    0  0.00000000000E+00  0.00000000000E+00 -0.85811320998E+02  0.15161986285E+03  0.12500000000E+03 0.  0.
<mgrwt>
<rscale>  0 0.12500000E+03</rscale>
<asrwt>0</asrwt>
<pdfrwt beam="1">  1       21 0.50621955E-02 0.12500000E+03</pdfrwt>
<pdfrwt beam="2">  1       21 0.18263937E-01 0.12500000E+03</pdfrwt>
<totfact> 0.70556305E+06</totfact>
</mgrwt>
</event>
<event>
 3    1  0.1615911E-001  0.1250000E+03  0.7546771E-02  0.1235069E+00
         21   -1    0    0  502  501  0.00000000000E+00  0.00000000000E+00  0.94329807592E+01  0.94329807592E+01  0.00000000000E+00 0.  1.
         21   -1    0    0  501  502 -0.00000000000E+00 -0.00000000000E+00 -0.41410558335E+03  0.41410558335E+03  0.00000000000E+00 0.  1.
         25    1    1    2    0    0  0.00000000000E+00  0.00000000000E+00 -0.40467260259E+03  0.42353856411E+03  0.12500000000E+03 0.  0.
<mgrwt>
<rscale>  0 0.12500000E+03</rscale>
<asrwt>0</asrwt>
<pdfrwt beam="1">  1       21 0.14512278E-02 0.12500000E+03</pdfrwt>
<pdfrwt beam="2">  1       21 0.63708553E-01 0.12500000E+03</pdfrwt>
<totfact> 0.46518271E+06</totfact>
</mgrwt>
</event>
<event>
 3    1  0.1615911E-001  0.1250000E+03  0.7546771E-02  0.1235069E+00
         21   -1    0    0  502  501  0.00000000000E+00  0.00000000000E+00  0.46307551742E+03  0.46307551742E+03  0.00000000000E+00 0. -1.
         21   -1    0    0  501  502 -0.00000000000E+00 -0.00000000000E+00 -0.84354491937E+01  0.84354491937E+01  0.00000000000E+00 0. -1.
         25    1    1    2    0    0  0.00000000000E+00  0.00000000000E+00  0.45464006822E+03  0.47151096661E+03  0.12500000000E+03 0.  0.
<mgrwt>
<rscale>  0 0.12500000E+03</rscale>
<asrwt>0</asrwt>
<pdfrwt beam="1">  1       21 0.71242368E-01 0.12500000E+03</pdfrwt>
<pdfrwt beam="2">  1       21 0.12977618E-02 0.12500000E+03</pdfrwt>
<totfact> 0.43632473E+06</totfact>
</mgrwt>
</event>
<event>
 3    1  0.1615911E-001  0.1250000E+03  0.7546771E-02  0.1235069E+00
         21   -1    0    0  502  501  0.00000000000E+00  0.00000000000E+00  0.78636686280E+02  0.78636686280E+02  0.00000000000E+00 0. -1.
         21   -1    0    0  501  502 -0.00000000000E+00 -0.00000000000E+00 -0.49674651677E+02  0.49674651677E+02  0.00000000000E+00 0. -1.
         25    1    1    2    0    0  0.00000000000E+00  0.00000000000E+00  0.28962034604E+02  0.12831133796E+03  0.12500000000E+03 0.  0.
<mgrwt>
<rscale>  0 0.12500000E+03</rscale>
<asrwt>0</asrwt>
<pdfrwt beam="1">  1       21 0.12097952E-01 0.12500000E+03</pdfrwt>
<pdfrwt beam="2">  1       21 0.76422541E-02 0.12500000E+03</pdfrwt>
<totfact> 0.73591543E+06</totfact>
</mgrwt>
</event>
<event>
 3    1  0.1615911E-001  0.1250000E+03  0.7546771E-02  0.1235069E+00
         21   -1    0    0  502  501  0.00000000000E+00  0.00000000000E+00  0.47085584645E+02  0.47085584645E+02  0.00000000000E+00 0. -1.
         21   -1    0    0  501  502 -0.00000000000E+00 -0.00000000000E+00 -0.82960634968E+02  0.82960634968E+02  0.00000000000E+00 0. -1.
         25    1    1    2    0    0  0.00000000000E+00  0.00000000000E+00 -0.35875050324E+02  0.13004621961E+03  0.12500000000E+03 0.  0.
<mgrwt>
<rscale>  0 0.12500000E+03</rscale>
<asrwt>0</asrwt>
<pdfrwt beam="1">  1       21 0.72439361E-02 0.12500000E+03</pdfrwt>
<pdfrwt beam="2">  1       21 0.12763175E-01 0.12500000E+03</pdfrwt>
<totfact> 0.73358738E+06</totfact>
</mgrwt>
</event>
<event>
 3    1  0.1615911E-001  0.1250000E+03  0.7546771E-02  0.1235069E+00
         21   -1    0    0  502  501  0.00000000000E+00  0.00000000000E+00  0.65396990176E+02  0.65396990176E+02  0.00000000000E+00 0. -1.
         21   -1    0    0  501  502 -0.00000000000E+00 -0.00000000000E+00 -0.59731342214E+02  0.59731342214E+02  0.00000000000E+00 0. -1.
         25    1    1    2    0    0  0.00000000000E+00  0.00000000000E+00  0.56656479623E+01  0.12512833239E+03  0.12500000000E+03 0.  0.
<mgrwt>
<rscale>  0 0.12500000E+03</rscale>
<asrwt>0</asrwt>
<pdfrwt beam="1">  1       21 0.10061075E-01 0.12500000E+03</pdfrwt>
<pdfrwt beam="2">  1       21 0.91894372E-02 0.12500000E+03</pdfrwt>
<totfact> 0.74026249E+06</totfact>
</mgrwt>
</event>
<event>
 3    1  0.1615911E-001  0.1250000E+03  0.7546771E-02  0.1235069E+00
         21   -1    0    0  502  501  0.00000000000E+00  0.00000000000E+00  0.98773510237E+02  0.98773510237E+02  0.00000000000E+00 0. -1.
         21   -1    0    0  501  502 -0.00000000000E+00 -0.00000000000E+00 -0.39547546611E+02  0.39547546611E+02  0.00000000000E+00 0. -1.
         25    1    1    2    0    0  0.00000000000E+00  0.00000000000E+00  0.59225963626E+02  0.13832105685E+03  0.12500000000E+03 0.  0.
<mgrwt>
<rscale>  0 0.12500000E+03</rscale>
<asrwt>0</asrwt>
<pdfrwt beam="1">  1       21 0.15195925E-01 0.12500000E+03</pdfrwt>
<pdfrwt beam="2">  1       21 0.60842380E-02 0.12500000E+03</pdfrwt>
<totfact> 0.72259256E+06</totfact>
</mgrwt>
</event>
<event>
 3    1  0.1615911E-001  0.1250000E+03  0.7546771E-02  0.1235069E+00
         21   -1    0    0  502  501  0.00000000000E+00  0.00000000000E+00  0.15545491475E+03  0.15545491475E+03  0.00000000000E+00 0. -1.
         21   -1    0    0  501  502 -0.00000000000E+00 -0.00000000000E+00 -0.25127864284E+02  0.25127864284E+02  0.00000000000E+00 0. -1.
         25    1    1    2    0    0  0.00000000000E+00  0.00000000000E+00  0.13032705046E+03  0.18058277903E+03  0.12500000000E+03 0.  0.
<mgrwt>
<rscale>  0 0.12500000E+03</rscale>
<asrwt>0</asrwt>
<pdfrwt beam="1">  1       21 0.23916140E-01 0.12500000E+03</pdfrwt>
<pdfrwt beam="2">  1       21 0.38658254E-02 0.12500000E+03</pdfrwt>
<totfact> 0.67084745E+06</totfact>
</mgrwt>
</event>
<event>
 3    1  0.1615911E-001  0.1250000E+03  0.7546771E-02  0.1235069E+00
         21   -1    0    0  502  501  0.00000000000E+00  0.00000000000E+00  0.25566951050E+02  0.25566951050E+02  0.00000000000E+00 0. -1.
         21   -1    0    0  501  502 -0.00000000000E+00 -0.00000000000E+00 -0.15278513235E+03  0.15278513235E+03  0.00000000000E+00 0. -1.
         25    1    1    2    0    0  0.00000000000E+00  0.00000000000E+00 -0.12721818130E+03  0.17835208340E+03  0.12500000000E+03 0.  0.
<mgrwt>
<rscale>  0 0.12500000E+03</rscale>
<asrwt>0</asrwt>
<pdfrwt beam="1">  1       21 0.39333772E-02 0.12500000E+03</pdfrwt>
<pdfrwt beam="2">  1       21 0.23505404E-01 0.12500000E+03</pdfrwt>
<totfact> 0.67341085E+06</totfact>
</mgrwt>
</event>
<event>
 3    1  0.1615911E-001  0.1250000E+03  0.7546771E-02  0.1235069E+00
         21   -1    0    0  502  501  0.00000000000E+00  0.00000000000E+00  0.19698733870E+03  0.19698733870E+03  0.00000000000E+00 0. -1.
         21   -1    0    0  501  502 -0.00000000000E+00 -0.00000000000E+00 -0.19829954685E+02  0.19829954685E+02  0.00000000000E+00 0. -1.
         25    1    1    2    0    0  0.00000000000E+00  0.00000000000E+00  0.17715738401E+03  0.21681729338E+03  0.12500000000E+03 0.  0.
<mgrwt>
<rscale>  0 0.12500000E+03</rscale>
<asrwt>0</asrwt>
<pdfrwt beam="1">  1       21 0.30305743E-01 0.12500000E+03</pdfrwt>
<pdfrwt beam="2">  1       21 0.30507624E-02 0.12500000E+03</pdfrwt>
<totfact> 0.63149340E+06</totfact>
</mgrwt>
</event>
<event>
 3    1  0.1615911E-001  0.1250000E+03  0.7546771E-02  0.1235069E+00
         21   -1    0    0  502  501  0.00000000000E+00  0.00000000000E+00  0.14049151756E+02  0.14049151756E+02  0.00000000000E+00 0. -1.
         21   -1    0    0  501  502 -0.00000000000E+00 -0.00000000000E+00 -0.27804169732E+03  0.27804169732E+03  0.00000000000E+00 0. -1.
         25    1    1    2    0    0  0.00000000000E+00  0.00000000000E+00 -0.26399254556E+03  0.29209084907E+03  0.12500000000E+03 0.  0.
<mgrwt>
<rscale>  0 0.12500000E+03</rscale>
<asrwt>0</asrwt>
<pdfrwt beam="1">  1       21 0.21614082E-02 0.12500000E+03</pdfrwt>
<pdfrwt beam="2">  1       21 0.42775642E-01 0.12500000E+03</pdfrwt>
<totfact> 0.56119929E+06</totfact>
</mgrwt>
</event>
<event>
 3    1  0.1615911E-001  0.1250000E+03  0.7546771E-02  0.1235069E+00
         21   -1    0    0  502  501  0.00000000000E+00  0.00000000000E+00  0.15635397881E+02  0.15635397881E+02  0.00000000000E+00 0. -1.
         21   -1    0    0  501  502 -0.00000000000E+00 -0.00000000000E+00 -0.24983374454E+03  0.24983374454E+03  0.00000000000E+00 0. -1.
         25    1    1    2    0    0  0.00000000000E+00  0.00000000000E+00 -0.23419834666E+03  0.26546914242E+03  0.12500000000E+03 0.  0.
<mgrwt>
<rscale>  0 0.12500000E+03</rscale>
<asrwt>0</asrwt>
<pdfrwt beam="1">  1       21 0.24054459E-02 0.12500000E+03</pdfrwt>
<pdfrwt beam="2">  1       21 0.38435960E-01 0.12500000E+03</pdfrwt>
<totfact> 0.58451594E+06</totfact>
</mgrwt>
</event>
<event>
 3    1  0.1615911E-001  0.1250000E+03  0.7546771E-02  0.1235069E+00
         21   -1    0    0  502  501  0.00000000000E+00  0.00000000000E+00  0.20477666949E+02  0.20477666949E+02  0.00000000000E+00 0.  1.
         21   -1    0    0  501  502 -0.00000000000E+00 -0.00000000000E+00 -0.19075659399E+03  0.19075659399E+03  0.00000000000E+00 0.  1.
         25    1    1    2    0    0  0.00000000000E+00  0.00000000000E+00 -0.17027892704E+03  0.21123426094E+03  0.12500000000E+03 0.  0.
<mgrwt>
<rscale>  0 0.12500000E+03</rscale>
<asrwt>0</asrwt>
<pdfrwt beam="1">  1       21 0.31504104E-02 0.12500000E+03</pdfrwt>
<pdfrwt beam="2">  1       21 0.29347168E-01 0.12500000E+03</pdfrwt>
<totfact> 0.63729911E+06</totfact>
</mgrwt>
</event>
<event>
 3    1  0.1615911E-001  0.1250000E+03  0.7546771E-02  0.1235069E+00
         21   -1    0    0  502  501  0.00000000000E+00  0.00000000000E+00  0.20164780234E+01  0.20164780234E+01  0.00000000000E+00 0.  1.
         21   -1    0    0  501  502 -0.00000000000E+00 -0.00000000000E+00 -0.19371646776E+04  0.19371646776E+04  0.00000000000E+00 0.  1.
         25    1    1    2    0    0  0.00000000000E+00  0.00000000000E+00 -0.19351481996E+04  0.19391811556E+04  0.12500000000E+03 0.  0.
<mgrwt>
<rscale>  0 0.12500000E+03</rscale>
<asrwt>0</asrwt>
<pdfrwt beam="1">  1       21 0.31022638E-03 0.12500000E+03</pdfrwt>
<pdfrwt beam="2">  1       21 0.29802630E+00 0.12500000E+03</pdfrwt>
<totfact> 0.85563295E+05</totfact>
</mgrwt>
</event>
<event>
 3    1  0.1615911E-001  0.1250000E+03  0.7546771E-02  0.1235069E+00
         21   -1    0    0  502  501  0.00000000000E+00  0.00000000000E+00  0.30489422610E+02  0.30489422610E+02  0.00000000000E+00 0.  1.
         21   -1    0    0  501  502 -0.00000000000E+00 -0.00000000000E+00 -0.12811820184E+03  0.12811820184E+03  0.00000000000E+00 0.  1.
         25    1    1    2    0    0  0.00000000000E+00  0.00000000000E+00 -0.97628779233E+02  0.15860762445E+03  0.12500000000E+03 0.  0.
<mgrwt>
<rscale>  0 0.12500000E+03</rscale>
<asrwt>0</asrwt>
<pdfrwt beam="1">  1       21 0.46906804E-02 0.12500000E+03</pdfrwt>
<pdfrwt beam="2">  1       21 0.19710492E-01 0.12500000E+03</pdfrwt>
<totfact> 0.69690031E+06</totfact>
</mgrwt>
</event>
<event>
 3    1  0.1615911E-001  0.1250000E+03  0.7546771E-02  0.1235069E+00
         21   -1    0    0  502  501  0.00000000000E+00  0.00000000000E+00  0.33702793935E+02  0.33702793935E+02  0.00000000000E+00 0.  1.
         21   -1    0    0  501  502 -0.00000000000E+00 -0.00000000000E+00 -0.11590285386E+03  0.11590285386E+03  0.00000000000E+00 0.  1.
         25    1    1    2    0    0  0.00000000000E+00  0.00000000000E+00 -0.82200059923E+02  0.14960564779E+03  0.12500000000E+03 0.  0.
<mgrwt>
<rscale>  0 0.12500000E+03</rscale>
<asrwt>0</asrwt>
<pdfrwt beam="1">  1       21 0.51850452E-02 0.12500000E+03</pdfrwt>
<pdfrwt beam="2">  1       21 0.17831208E-01 0.12500000E+03</pdfrwt>
<totfact> 0.70808774E+06</totfact>
</mgrwt>
</event>
<event>
 3    1  0.1615911E-001  0.1250000E+03  0.7546771E-02  0.1235069E+00
         21   -1    0    0  502  501  0.00000000000E+00  0.00000000000E+00  0.52173498035E+03  0.52173498035E+03  0.00000000000E+00 0. -1.
         21   -1    0    0  501  502 -0.00000000000E+00 -0.00000000000E+00 -0.74870387211E+01  0.74870387211E+01  0.00000000000E+00 0. -1.
         25    1    1    2    0    0  0.00000000000E+00  0.00000000000E+00  0.51424794163E+03  0.52922201907E+03  0.12500000000E+03 0.  0.
<mgrwt>
<rscale>  0 0.12500000E+03</rscale>
<asrwt>0</asrwt>
<pdfrwt beam="1">  1       21 0.80266892E-01 0.12500000E+03</pdfrwt>
<pdfrwt beam="2">  1       21 0.11518525E-02 0.12500000E+03</pdfrwt>
<totfact> 0.40502388E+06</totfact>
</mgrwt>
</event>
<event>
 3    1  0.1615911E-001  0.1250000E+03  0.7546771E-02  0.1235069E+00
         21   -1    0    0  502  501  0.00000000000E+00  0.00000000000E+00  0.20511500988E+03  0.20511500988E+03  0.00000000000E+00 0. -1.
         21   -1    0    0  501  502 -0.00000000000E+00 -0.00000000000E+00 -0.19044193802E+02  0.19044193802E+02  0.00000000000E+00 0. -1.
         25    1    1    2    0    0  0.00000000000E+00  0.00000000000E+00  0.18607081608E+03  0.22415920369E+03  0.12500000000E+03 0.  0.
<mgrwt>
<rscale>  0 0.12500000E+03</rscale>
<asrwt>0</asrwt>
<pdfrwt beam="1">  1       21 0.31556154E-01 0.12500000E+03</pdfrwt>
<pdfrwt beam="2">  1       21 0.29298761E-02 0.12500000E+03</pdfrwt>
<totfact> 0.62399922E+06</totfact>
</mgrwt>
</event>
<event>
 3    1  0.1615911E-001  0.1250000E+03  0.7546771E-02  0.1235069E+00
         21   -1    0    0  502  501  0.00000000000E+00  0.00000000000E+00  0.24091683127E+03  0.24091683127E+03  0.00000000000E+00 0.  1.
         21   -1    0    0  501  502 -0.00000000000E+00 -0.00000000000E+00 -0.16214101686E+02  0.16214101686E+02  0.00000000000E+00 0.  1.
         25    1    1    2    0    0  0.00000000000E+00  0.00000000000E+00  0.22470272958E+03  0.25713093295E+03  0.12500000000E+03 0.  0.
<mgrwt>
<rscale>  0 0.12500000E+03</rscale>
<asrwt>0</asrwt>
<pdfrwt beam="1">  1       21 0.37064125E-01 0.12500000E+03</pdfrwt>
<pdfrwt beam="2">  1       21 0.24944774E-02 0.12500000E+03</pdfrwt>
<totfact> 0.59213245E+06</totfact>
</mgrwt>
</event>
<event>
 3    1  0.1615911E-001  0.1250000E+03  0.7546771E-02  0.1235069E+00
         21   -1    0    0  502  501  0.00000000000E+00  0.00000000000E+00  0.10666110848E+02  0.10666110848E+02  0.00000000000E+00 0.  1.
         21   -1    0    0  501  502 -0.00000000000E+00 -0.00000000000E+00 -0.36623002101E+03  0.36623002101E+03  0.00000000000E+00 0.  1.
         25    1    1    2    0    0  0.00000000000E+00  0.00000000000E+00 -0.35556391016E+03  0.37689613186E+03  0.12500000000E+03 0.  0.
<mgrwt>
<rscale>  0 0.12500000E+03</rscale>
<asrwt>0</asrwt>
<pdfrwt beam="1">  1       21 0.16409403E-02 0.12500000E+03</pdfrwt>
<pdfrwt beam="2">  1       21 0.56343075E-01 0.12500000E+03</pdfrwt>
<totfact> 0.49611377E+06</totfact>
</mgrwt>
</event>
<event>
 3    1  0.1615911E-001  0.1250000E+03  0.7546771E-02  0.1235069E+00
         21   -1    0    0  502  501  0.00000000000E+00  0.00000000000E+00  0.14167884876E+02  0.14167884876E+02  0.00000000000E+00 0. -1.
         21   -1    0    0  501  502 -0.00000000000E+00 -0.00000000000E+00 -0.27571158534E+03  0.27571158534E+03  0.00000000000E+00 0. -1.
         25    1    1    2    0    0  0.00000000000E+00  0.00000000000E+00 -0.26154370046E+03  0.28987947022E+03  0.12500000000E+03 0.  0.
<mgrwt>
<rscale>  0 0.12500000E+03</rscale>
<asrwt>0</asrwt>
<pdfrwt beam="1">  1       21 0.21796745E-02 0.12500000E+03</pdfrwt>
<pdfrwt beam="2">  1       21 0.42417169E-01 0.12500000E+03</pdfrwt>
<totfact> 0.56307857E+06</totfact>
</mgrwt>
</event>
<event>
 3    1  0.1615911E-001  0.1250000E+03  0.7546771E-02  0.1235069E+00
         21   -1    0    0  502  501  0.00000000000E+00  0.00000000000E+00  0.11124192200E+02  0.11124192200E+02  0.00000000000E+00 0.  1.
         21   -1    0    0  501  502 -0.00000000000E+00 -0.00000000000E+00 -0.35114909287E+03  0.35114909287E+03  0.00000000000E+00 0.  1.
         25    1    1    2    0    0  0.00000000000E+00  0.00000000000E+00 -0.34002490067E+03  0.36227328507E+03  0.12500000000E+03 0.  0.
<mgrwt>
<rscale>  0 0.12500000E+03</rscale>
<asrwt>0</asrwt>
<pdfrwt beam="1">  1       21 0.17114142E-02 0.12500000E+03</pdfrwt>
<pdfrwt beam="2">  1       21 0.54022938E-01 0.12500000E+03</pdfrwt>
<totfact> 0.50644593E+06</totfact>
</mgrwt>
</event>
<event>
 3    1  0.1615911E-001  0.1250000E+03  0.7546771E-02  0.1235069E+00
         21   -1    0    0  502  501  0.00000000000E+00  0.00000000000E+00  0.58804444834E+01  0.58804444834E+01  0.00000000000E+00 0. -1.
         21   -1    0    0  501  502 -0.00000000000E+00 -0.00000000000E+00 -0.66427801691E+03  0.66427801691E+03  0.00000000000E+00 0. -1.
         25    1    1    2    0    0  0.00000000000E+00  0.00000000000E+00 -0.65839757243E+03  0.67015846140E+03  0.12500000000E+03 0.  0.
<mgrwt>
<rscale>  0 0.12500000E+03</rscale>
<asrwt>0</asrwt>
<pdfrwt beam="1">  1       21 0.90468324E-03 0.12500000E+03</pdfrwt>
<pdfrwt beam="2">  1       21 0.10219668E+00 0.12500000E+03</pdfrwt>
<totfact> 0.34092650E+06</totfact>
</mgrwt>
</event>
<event>
 3    1  0.1615911E-001  0.1250000E+03  0.7546771E-02  0.1235069E+00
         21   -1    0    0  502  501  0.00000000000E+00  0.00000000000E+00  0.92190283948E+02  0.92190283948E+02  0.00000000000E+00 0. -1.
         21   -1    0    0  501  502 -0.00000000000E+00 -0.00000000000E+00 -0.42371601786E+02  0.42371601786E+02  0.00000000000E+00 0. -1.
         25    1    1    2    0    0  0.00000000000E+00  0.00000000000E+00  0.49818682162E+02  0.13456188573E+03  0.12500000000E+03 0.  0.
<mgrwt>
<rscale>  0 0.12500000E+03</rscale>
<asrwt>0</asrwt>
<pdfrwt beam="1">  1       21 0.14183121E-01 0.12500000E+03</pdfrwt>
<pdfrwt beam="2">  1       21 0.65187080E-02 0.12500000E+03</pdfrwt>
<totfact> 0.72754533E+06</totfact>
</mgrwt>
</event>
<event>
 3    1  0.1615911E-001  0.1250000E+03  0.7546771E-02  0.1235069E+00
         21   -1    0    0  502  501  0.00000000000E+00  0.00000000000E+00  0.22984886670E+03  0.22984886670E+03  0.00000000000E+00 0.  1.
         21   -1    0    0  501  502 -0.00000000000E+00 -0.00000000000E+00 -0.16994862999E+02  0.16994862999E+02  0.00000000000E+00 0.  1.
         25    1    1    2    0    0  0.00000000000E+00  0.00000000000E+00  0.21285400370E+03  0.24684372970E+03  0.12500000000E+03 0.  0.
<mgrwt>
<rscale>  0 0.12500000E+03</rscale>
<asrwt>0</asrwt>
<pdfrwt beam="1">  1       21 0.35361362E-01 0.12500000E+03</pdfrwt>
<pdfrwt beam="2">  1       21 0.26145945E-02 0.12500000E+03</pdfrwt>
<totfact> 0.60176627E+06</totfact>
</mgrwt>
</event>
<event>
 3    1  0.1615911E-001  0.1250000E+03  0.7546771E-02  0.1235069E+00
         21   -1    0    0  502  501  0.00000000000E+00  0.00000000000E+00  0.16222958040E+03  0.16222958040E+03  0.00000000000E+00 0.  1.
         21   -1    0    0  501  502 -0.00000000000E+00 -0.00000000000E+00 -0.24078531118E+02  0.24078531118E+02  0.00000000000E+00 0.  1.
         25    1    1    2    0    0  0.00000000000E+00  0.00000000000E+00  0.13815104928E+03  0.18630811152E+03  0.12500000000E+03 0.  0.
<mgrwt>
<rscale>  0 0.12500000E+03</rscale>
<asrwt>0</asrwt>
<pdfrwt beam="1">  1       21 0.24958396E-01 0.12500000E+03</pdfrwt>
<pdfrwt beam="2">  1       21 0.37043895E-02 0.12500000E+03</pdfrwt>
<totfact> 0.66435154E+06</totfact>
</mgrwt>
</event>
<event>
 3    1  0.1615911E-001  0.1250000E+03  0.7546771E-02  0.1235069E+00
         21   -1    0    0  502  501  0.00000000000E+00  0.00000000000E+00  0.16974670918E+02  0.16974670918E+02  0.00000000000E+00 0. -1.
         21   -1    0    0  501  502 -0.00000000000E+00 -0.00000000000E+00 -0.23012228154E+03  0.23012228154E+03  0.00000000000E+00 0. -1.
         25    1    1    2    0    0  0.00000000000E+00  0.00000000000E+00 -0.21314761062E+03  0.24709695246E+03  0.12500000000E+03 0.  0.
<mgrwt>
<rscale>  0 0.12500000E+03</rscale>
<asrwt>0</asrwt>
<pdfrwt beam="1">  1       21 0.26114877E-02 0.12500000E+03</pdfrwt>
<pdfrwt beam="2">  1       21 0.35403430E-01 0.12500000E+03</pdfrwt>
<totfact> 0.60152587E+06</totfact>
</mgrwt>
</event>
<event>
 3    1  0.1615911E-001  0.1250000E+03  0.7546771E-02  0.1235069E+00
         21   -1    0    0  502  501  0.00000000000E+00  0.00000000000E+00  0.12949318548E+02  0.12949318548E+02  0.00000000000E+00 0. -1.
         21   -1    0    0  501  502 -0.00000000000E+00 -0.00000000000E+00 -0.30165680036E+03  0.30165680036E+03  0.00000000000E+00 0. -1.
         25    1    1    2    0    0  0.00000000000E+00  0.00000000000E+00 -0.28870748181E+03  0.31460611890E+03  0.12500000000E+03 0.  0.
<mgrwt>
<rscale>  0 0.12500000E+03</rscale>
<asrwt>0</asrwt>
<pdfrwt beam="1">  1       21 0.19922027E-02 0.12500000E+03</pdfrwt>
<pdfrwt beam="2">  1       21 0.46408742E-01 0.12500000E+03</pdfrwt>
<totfact> 0.54263565E+06</totfact>
</mgrwt>
</event>
<event>
 3    1  0.1615911E-001  0.1250000E+03  0.7546771E-02  0.1235069E+00
         21   -1    0    0  502  501  0.00000000000E+00  0.00000000000E+00  0.75144973986E+01  0.75144973986E+01  0.00000000000E+00 0. -1.
         21   -1    0    0  501  502 -0.00000000000E+00 -0.00000000000E+00 -0.51982851185E+03  0.51982851185E+03  0.00000000000E+00 0. -1.
         25    1    1    2    0    0  0.00000000000E+00  0.00000000000E+00 -0.51231401445E+03  0.52734300925E+03  0.12500000000E+03 0.  0.
<mgrwt>
<rscale>  0 0.12500000E+03</rscale>
<asrwt>0</asrwt>
<pdfrwt beam="1">  1       21 0.11560765E-02 0.12500000E+03</pdfrwt>
<pdfrwt beam="2">  1       21 0.79973618E-01 0.12500000E+03</pdfrwt>
<totfact> 0.40598988E+06</totfact>
</mgrwt>
</event>
<event>
 3    1  0.1615911E-001  0.1250000E+03  0.7546771E-02  0.1235069E+00
         21   -1    0    0  502  501  0.00000000000E+00  0.00000000000E+00  0.82173817531E+01  0.82173817531E+01  0.00000000000E+00 0.  1.
         21   -1    0    0  501  502 -0.00000000000E+00 -0.00000000000E+00 -0.47536430914E+03  0.47536430914E+03  0.00000000000E+00 0.  1.
         25    1    1    2    0    0  0.00000000000E+00  0.00000000000E+00 -0.46714692739E+03  0.48358169089E+03  0.12500000000E+03 0.  0.
<mgrwt>
<rscale>  0 0.12500000E+03</rscale>
<asrwt>0</asrwt>
<pdfrwt beam="1">  1       21 0.12642127E-02 0.12500000E+03</pdfrwt>
<pdfrwt beam="2">  1       21 0.73132966E-01 0.12500000E+03</pdfrwt>
<totfact> 0.42948703E+06</totfact>
</mgrwt>
</event>
<event>
 3    1  0.1615911E-001  0.1250000E+03  0.7546771E-02  0.1235069E+00
         21   -1    0    0  502  501  0.00000000000E+00  0.00000000000E+00  0.13524060877E+03  0.13524060877E+03  0.00000000000E+00 0. -1.
         21   -1    0    0  501  502 -0.00000000000E+00 -0.00000000000E+00 -0.28883706126E+02  0.28883706126E+02  0.00000000000E+00 0. -1.
         25    1    1    2    0    0  0.00000000000E+00  0.00000000000E+00  0.10635690265E+03  0.16412431490E+03  0.12500000000E+03 0.  0.
<mgrwt>
<rscale>  0 0.12500000E+03</rscale>
<asrwt>0</asrwt>
<pdfrwt beam="1">  1       21 0.20806247E-01 0.12500000E+03</pdfrwt>
<pdfrwt beam="2">  1       21 0.44436472E-02 0.12500000E+03</pdfrwt>
<totfact> 0.69019028E+06</totfact>
</mgrwt>
</event>
<event>
 3    1  0.1615911E-001  0.1250000E+03  0.7546771E-02  0.1235069E+00
         21   -1    0    0  502  501  0.00000000000E+00  0.00000000000E+00  0.89963311236E+02  0.89963311236E+02  0.00000000000E+00 0.  1.
         21   -1    0    0  501  502 -0.00000000000E+00 -0.00000000000E+00 -0.43420478263E+02  0.43420478263E+02  0.00000000000E+00 0.  1.
         25    1    1    2    0    0  0.00000000000E+00  0.00000000000E+00  0.46542832973E+02  0.13338378950E+03  0.12500000000E+03 0.  0.
<mgrwt>
<rscale>  0 0.12500000E+03</rscale>
<asrwt>0</asrwt>
<pdfrwt beam="1">  1       21 0.13840509E-01 0.12500000E+03</pdfrwt>
<pdfrwt beam="2">  1       21 0.66800736E-02 0.12500000E+03</pdfrwt>
<totfact> 0.72911192E+06</totfact>
</mgrwt>
</event>
<event>
 3    1  0.1615911E-001  0.1250000E+03  0.7546771E-02  0.1235069E+00
         21   -1    0    0  502  501  0.00000000000E+00  0.00000000000E+00  0.25547368460E+03  0.25547368460E+03  0.00000000000E+00 0.  1.
         21   -1    0    0  501  502 -0.00000000000E+00 -0.00000000000E+00 -0.15290224534E+02  0.15290224534E+02  0.00000000000E+00 0.  1.
         25    1    1    2    0    0  0.00000000000E+00  0.00000000000E+00  0.24018346007E+03  0.27076390913E+03  0.12500000000E+03 0.  0.
<mgrwt>
<rscale>  0 0.12500000E+03</rscale>
<asrwt>0</asrwt>
<pdfrwt beam="1">  1       21 0.39303641E-01 0.12500000E+03</pdfrwt>
<pdfrwt beam="2">  1       21 0.23523424E-02 0.12500000E+03</pdfrwt>
<totfact> 0.57976527E+06</totfact>
</mgrwt>
</event>
<event>
 3    1  0.1615911E-001  0.1250000E+03  0.7546771E-02  0.1235069E+00
         21   -1    0    0  502  501  0.00000000000E+00  0.00000000000E+00  0.31528241885E+02  0.31528241885E+02  0.00000000000E+00 0. -1.
         21   -1    0    0  501  502 -0.00000000000E+00 -0.00000000000E+00 -0.12389685458E+03  0.12389685458E+03  0.00000000000E+00 0. -1.
         25    1    1    2    0    0  0.00000000000E+00  0.00000000000E+00 -0.92368612693E+02  0.15542509646E+03  0.12500000000E+03 0.  0.
<mgrwt>
<rscale>  0 0.12500000E+03</rscale>
<asrwt>0</asrwt>
<pdfrwt beam="1">  1       21 0.48504988E-02 0.12500000E+03</pdfrwt>
<pdfrwt beam="2">  1       21 0.19061054E-01 0.12500000E+03</pdfrwt>
<totfact> 0.70082864E+06</totfact>
</mgrwt>
</event>
<event>
 3    1  0.1615911E-001  0.1250000E+03  0.7546771E-02  0.1235069E+00
         21   -1    0    0  502  501  0.00000000000E+00  0.00000000000E+00  0.86943973369E+02  0.86943973369E+02  0.00000000000E+00 0.  1.
         21   -1    0    0  501  502 -0.00000000000E+00 -0.00000000000E+00 -0.44928358443E+02  0.44928358443E+02  0.00000000000E+00 0.  1.
         25    1    1    2    0    0  0.00000000000E+00  0.00000000000E+00  0.42015614925E+02  0.13187233181E+03  0.12500000000E+03 0.  0.
<mgrwt>
<rscale>  0 0.12500000E+03</rscale>
<asrwt>0</asrwt>
<pdfrwt beam="1">  1       21 0.13375996E-01 0.12500000E+03</pdfrwt>
<pdfrwt beam="2">  1       21 0.69120551E-02 0.12500000E+03</pdfrwt>
<totfact> 0.73113358E+06</totfact>
</mgrwt>
</event>
<event>
 3    1  0.1615911E-001  0.1250000E+03  0.7546771E-02  0.1235069E+00
         21   -1    0    0  502  501  0.00000000000E+00  0.00000000000E+00  0.12563474558E+03  0.12563474558E+03  0.00000000000E+00 0.  1.
         21   -1    0    0  501  502 -0.00000000000E+00 -0.00000000000E+00 -0.31092115339E+02  0.31092115339E+02  0.00000000000E+00 0.  1.
         25    1    1    2    0    0  0.00000000000E+00  0.00000000000E+00  0.94542630236E+02  0.15672686091E+03  0.12500000000E+03 0.  0.
<mgrwt>
<rscale>  0 0.12500000E+03</rscale>
<asrwt>0</asrwt>
<pdfrwt beam="1">  1       21 0.19328422E-01 0.12500000E+03</pdfrwt>
<pdfrwt beam="2">  1       21 0.47834024E-02 0.12500000E+03</pdfrwt>
<totfact> 0.69921666E+06</totfact>
</mgrwt>
</event>
<event>
 3    1  0.1615911E-001  0.1250000E+03  0.7546771E-02  0.1235069E+00
         21   -1    0    0  502  501  0.00000000000E+00  0.00000000000E+00  0.97314481931E+03  0.97314481931E+03  0.00000000000E+00 0. -1.
         21   -1    0    0  501  502 -0.00000000000E+00 -0.00000000000E+00 -0.40140479839E+01  0.40140479839E+01  0.00000000000E+00 0. -1.
         25    1    1    2    0    0  0.00000000000E+00  0.00000000000E+00  0.96913077132E+03  0.97715886729E+03  0.12500000000E+03 0.  0.
<mgrwt>
<rscale>  0 0.12500000E+03</rscale>
<asrwt>0</asrwt>
<pdfrwt beam="1">  1       21 0.14971440E+00 0.12500000E+03</pdfrwt>
<pdfrwt beam="2">  1       21 0.61754662E-03 0.12500000E+03</pdfrwt>
<totfact> 0.24198121E+06</totfact>
</mgrwt>
</event>
<event>
 3    1  0.1615911E-001  0.1250000E+03  0.7546771E-02  0.1235069E+00
         21   -1    0    0  502  501  0.00000000000E+00  0.00000000000E+00  0.42176547647E+01  0.42176547647E+01  0.00000000000E+00 0. -1.
         21   -1    0    0  501  502 -0.00000000000E+00 -0.00000000000E+00 -0.92616636920E+03  0.92616636920E+03  0.00000000000E+00 0. -1.
         25    1    1    2    0    0  0.00000000000E+00  0.00000000000E+00 -0.92194871444E+03  0.93038402397E+03  0.12500000000E+03 0.  0.
<mgrwt>
<rscale>  0 0.12500000E+03</rscale>
<asrwt>0</asrwt>
<pdfrwt beam="1">  1       21 0.64886951E-03 0.12500000E+03</pdfrwt>
<pdfrwt beam="2">  1       21 0.14248723E+00 0.12500000E+03</pdfrwt>
<totfact> 0.25444036E+06</totfact>
</mgrwt>
</event>
<event>
 3    1  0.1615911E-001  0.1250000E+03  0.7546771E-02  0.1235069E+00
         21   -1    0    0  502  501  0.00000000000E+00  0.00000000000E+00  0.51346060098E+03  0.51346060098E+03  0.00000000000E+00 0.  1.
         21   -1    0    0  501  502 -0.00000000000E+00 -0.00000000000E+00 -0.76076917929E+01  0.76076917929E+01  0.00000000000E+00 0.  1.
         25    1    1    2    0    0  0.00000000000E+00  0.00000000000E+00  0.50585290918E+03  0.52106829277E+03  0.12500000000E+03 0.  0.
<mgrwt>
<rscale>  0 0.12500000E+03</rscale>
<asrwt>0</asrwt>
<pdfrwt beam="1">  1       21 0.78993911E-01 0.12500000E+03</pdfrwt>
<pdfrwt beam="2">  1       21 0.11704145E-02 0.12500000E+03</pdfrwt>
<totfact> 0.40924073E+06</totfact>
</mgrwt>
</event>
<event>
 3    1  0.1615911E-001  0.1250000E+03  0.7546771E-02  0.1235069E+00
         21   -1    0    0  502  501  0.00000000000E+00  0.00000000000E+00  0.33593113959E+01  0.33593113959E+01  0.00000000000E+00 0. -1.
         21   -1    0    0  501  502 -0.00000000000E+00 -0.00000000000E+00 -0.11628127136E+04  0.11628127136E+04  0.00000000000E+00 0. -1.
         25    1    1    2    0    0  0.00000000000E+00  0.00000000000E+00 -0.11594534022E+04  0.11661720250E+04  0.12500000000E+03 0.  0.
<mgrwt>
<rscale>  0 0.12500000E+03</rscale>
<asrwt>0</asrwt>
<pdfrwt beam="1">  1       21 0.51681754E-03 0.12500000E+03</pdfrwt>
<pdfrwt beam="2">  1       21 0.17889412E+00 0.12500000E+03</pdfrwt>
<totfact> 0.19830854E+06</totfact>
</mgrwt>
</event>
<event>
 3    1  0.1615911E-001  0.1250000E+03  0.7546771E-02  0.1235069E+00
         21   -1    0    0  502  501  0.00000000000E+00  0.00000000000E+00  0.65481394629E+02  0.65481394629E+02  0.00000000000E+00 0.  1.
         21   -1    0    0  501  502 -0.00000000000E+00 -0.00000000000E+00 -0.59654349485E+02  0.59654349485E+02  0.00000000000E+00 0.  1.
         25    1    1    2    0    0  0.00000000000E+00  0.00000000000E+00  0.58270451443E+01  0.12513574411E+03  0.12500000000E+03 0.  0.
<mgrwt>
<rscale>  0 0.12500000E+03</rscale>
<asrwt>0</asrwt>
<pdfrwt beam="1">  1       21 0.10074061E-01 0.12500000E+03</pdfrwt>
<pdfrwt beam="2">  1       21 0.91775923E-02 0.12500000E+03</pdfrwt>
<totfact> 0.74025248E+06</totfact>
</mgrwt>
</event>
<event>
 3    1  0.1615911E-001  0.1250000E+03  0.7546771E-02  0.1235069E+00
         21   -1    0    0  502  501  0.00000000000E+00  0.00000000000E+00  0.69336092930E+02  0.69336092930E+02  0.00000000000E+00 0.  1.
         21   -1    0    0  501  502 -0.00000000000E+00 -0.00000000000E+00 -0.56337901876E+02  0.56337901876E+02  0.00000000000E+00 0.  1.
         25    1    1    2    0    0  0.00000000000E+00  0.00000000000E+00  0.12998191054E+02  0.12567399481E+03  0.12500000000E+03 0.  0.
<mgrwt>
<rscale>  0 0.12500000E+03</rscale>
<asrwt>0</asrwt>
<pdfrwt beam="1">  1       21 0.10667091E-01 0.12500000E+03</pdfrwt>
<pdfrwt beam="2">  1       21 0.86673695E-02 0.12500000E+03</pdfrwt>
<totfact> 0.73951149E+06</totfact>
</mgrwt>
</event>
<event>
 3    1  0.1615911E-001  0.1250000E+03  0.7546771E-02  0.1235069E+00
         21   -1    0    0  502  501  0.00000000000E+00  0.00000000000E+00  0.12802767345E+02  0.12802767345E+02  0.00000000000E+00 0. -1.
         21   -1    0    0  501  502 -0.00000000000E+00 -0.00000000000E+00 -0.30510981686E+03  0.30510981686E+03  0.00000000000E+00 0. -1.
         25    1    1    2    0    0  0.00000000000E+00  0.00000000000E+00 -0.29230704952E+03  0.31791258421E+03  0.12500000000E+03 0.  0.
<mgrwt>
<rscale>  0 0.12500000E+03</rscale>
<asrwt>0</asrwt>
<pdfrwt beam="1">  1       21 0.19696566E-02 0.12500000E+03</pdfrwt>
<pdfrwt beam="2">  1       21 0.46939971E-01 0.12500000E+03</pdfrwt>
<totfact> 0.53999176E+06</totfact>
</mgrwt>
</event>
<event>
 3    1  0.1615911E-001  0.1250000E+03  0.7546771E-02  0.1235069E+00
         21   -1    0    0  502  501  0.00000000000E+00  0.00000000000E+00  0.50470039397E+02  0.50470039397E+02  0.00000000000E+00 0.  1.
         21   -1    0    0  501  502 -0.00000000000E+00 -0.00000000000E+00 -0.77397403424E+02  0.77397403424E+02  0.00000000000E+00 0.  1.
         25    1    1    2    0    0  0.00000000000E+00  0.00000000000E+00 -0.26927364027E+02  0.12786744282E+03  0.12500000000E+03 0.  0.
<mgrwt>
<rscale>  0 0.12500000E+03</rscale>
<asrwt>0</asrwt>
<pdfrwt beam="1">  1       21 0.77646215E-02 0.12500000E+03</pdfrwt>
<pdfrwt beam="2">  1       21 0.11907293E-01 0.12500000E+03</pdfrwt>
<totfact> 0.73651474E+06</totfact>
</mgrwt>
</event>
<event>
 3    1  0.1615911E-001  0.1250000E+03  0.7546771E-02  0.1235069E+00
         21   -1    0    0  502  501  0.00000000000E+00  0.00000000000E+00  0.83265936983E+02  0.83265936983E+02  0.00000000000E+00 0.  1.
         21   -1    0    0  501  502 -0.00000000000E+00 -0.00000000000E+00 -0.46912941132E+02  0.46912941132E+02  0.00000000000E+00 0.  1.
         25    1    1    2    0    0  0.00000000000E+00  0.00000000000E+00  0.36352995851E+02  0.13017887812E+03  0.12500000000E+03 0.  0.
<mgrwt>
<rscale>  0 0.12500000E+03</rscale>
<asrwt>0</asrwt>
<pdfrwt beam="1">  1       21 0.12810144E-01 0.12500000E+03</pdfrwt>
<pdfrwt beam="2">  1       21 0.72173755E-02 0.12500000E+03</pdfrwt>
<totfact> 0.73341018E+06</totfact>
</mgrwt>
</event>
<event>
 3    1  0.1615911E-001  0.1250000E+03  0.7546771E-02  0.1235069E+00
         21   -1    0    0  502  501  0.00000000000E+00  0.00000000000E+00  0.10111630203E+03  0.10111630203E+03  0.00000000000E+00 0.  1.
         21   -1    0    0  501  502 -0.00000000000E+00 -0.00000000000E+00 -0.38631258479E+02  0.38631258479E+02  0.00000000000E+00 0.  1.
         25    1    1    2    0    0  0.00000000000E+00  0.00000000000E+00  0.62485043546E+02  0.13974756050E+03  0.12500000000E+03 0.  0.
<mgrwt>
<rscale>  0 0.12500000E+03</rscale>
<asrwt>0</asrwt>
<pdfrwt beam="1">  1       21 0.15556354E-01 0.12500000E+03</pdfrwt>
<pdfrwt beam="2">  1       21 0.59432706E-02 0.12500000E+03</pdfrwt>
<totfact> 0.72072281E+06</totfact>
</mgrwt>
</event>
<event>
 3    1  0.1615911E-001  0.1250000E+03  0.7546771E-02  0.1235069E+00
         21   -1    0    0  502  501  0.00000000000E+00  0.00000000000E+00  0.17464027311E+03  0.17464027311E+03  0.00000000000E+00 0. -1.
         21   -1    0    0  501  502 -0.00000000000E+00 -0.00000000000E+00 -0.22367406615E+02  0.22367406615E+02  0.00000000000E+00 0. -1.
         25    1    1    2    0    0  0.00000000000E+00  0.00000000000E+00  0.15227286650E+03  0.19700767973E+03  0.12500000000E+03 0.  0.
<mgrwt>
<rscale>  0 0.12500000E+03</rscale>
<asrwt>0</asrwt>
<pdfrwt beam="1">  1       21 0.26867733E-01 0.12500000E+03</pdfrwt>
<pdfrwt beam="2">  1       21 0.34411396E-02 0.12500000E+03</pdfrwt>
<totfact> 0.65251956E+06</totfact>
</mgrwt>
</event>
<event>
 3    1  0.1615911E-001  0.1250000E+03  0.7546771E-02  0.1235069E+00
         21   -1    0    0  502  501  0.00000000000E+00  0.00000000000E+00  0.38918653532E+02  0.38918653532E+02  0.00000000000E+00 0. -1.
         21   -1    0    0  501  502 -0.00000000000E+00 -0.00000000000E+00 -0.10036960803E+03  0.10036960803E+03  0.00000000000E+00 0. -1.
         25    1    1    2    0    0  0.00000000000E+00  0.00000000000E+00 -0.61450954496E+02  0.13928826156E+03  0.12500000000E+03 0.  0.
<mgrwt>
<rscale>  0 0.12500000E+03</rscale>
<asrwt>0</asrwt>
<pdfrwt beam="1">  1       21 0.59874852E-02 0.12500000E+03</pdfrwt>
<pdfrwt beam="2">  1       21 0.15441478E-01 0.12500000E+03</pdfrwt>
<totfact> 0.72132361E+06</totfact>
</mgrwt>
</event>
<event>
 3    1  0.1615911E-001  0.1250000E+03  0.7546771E-02  0.1235069E+00
         21   -1    0    0  502  501  0.00000000000E+00  0.00000000000E+00  0.34514616405E+03  0.34514616405E+03  0.00000000000E+00 0.  1.
         21   -1    0    0  501  502 -0.00000000000E+00 -0.00000000000E+00 -0.11317668880E+02  0.11317668880E+02  0.00000000000E+00 0.  1.
         25    1    1    2    0    0  0.00000000000E+00  0.00000000000E+00  0.33382849517E+03  0.35646383293E+03  0.12500000000E+03 0.  0.
<mgrwt>
<rscale>  0 0.12500000E+03</rscale>
<asrwt>0</asrwt>
<pdfrwt beam="1">  1       21 0.53099402E-01 0.12500000E+03</pdfrwt>
<pdfrwt beam="2">  1       21 0.17411801E-02 0.12500000E+03</pdfrwt>
<totfact> 0.51064578E+06</totfact>
</mgrwt>
</event>
<event>
 3    1  0.1615911E-001  0.1250000E+03  0.7546771E-02  0.1235069E+00
         21   -1    0    0  502  501  0.00000000000E+00  0.00000000000E+00  0.72468990693E+02  0.72468990693E+02  0.00000000000E+00 0. -1.
         21   -1    0    0  501  502 -0.00000000000E+00 -0.00000000000E+00 -0.53902365172E+02  0.53902365172E+02  0.00000000000E+00 0. -1.
         25    1    1    2    0    0  0.00000000000E+00  0.00000000000E+00  0.18566625521E+02  0.12637135587E+03  0.12500000000E+03 0.  0.
<mgrwt>
<rscale>  0 0.12500000E+03</rscale>
<asrwt>0</asrwt>
<pdfrwt beam="1">  1       21 0.11149075E-01 0.12500000E+03</pdfrwt>
<pdfrwt beam="2">  1       21 0.82926716E-02 0.12500000E+03</pdfrwt>
<totfact> 0.73854993E+06</totfact>
</mgrwt>
</event>
<event>
 3    1  0.1615911E-001  0.1250000E+03  0.7546771E-02  0.1235069E+00
         21   -1    0    0  502  501  0.00000000000E+00  0.00000000000E+00  0.18203866867E+02  0.18203866867E+02  0.00000000000E+00 0. -1.
         21   -1    0    0  501  502 -0.00000000000E+00 -0.00000000000E+00 -0.21458352934E+03  0.21458352934E+03  0.00000000000E+00 0. -1.
         25    1    1    2    0    0  0.00000000000E+00  0.00000000000E+00 -0.19637966248E+03  0.23278739621E+03  0.12500000000E+03 0.  0.
<mgrwt>
<rscale>  0 0.12500000E+03</rscale>
<asrwt>0</asrwt>
<pdfrwt beam="1">  1       21 0.28005949E-02 0.12500000E+03</pdfrwt>
<pdfrwt beam="2">  1       21 0.33012851E-01 0.12500000E+03</pdfrwt>
<totfact> 0.61537673E+06</totfact>
</mgrwt>
</event>
<event>
 3    1  0.1615911E-001  0.1250000E+03  0.7546771E-02  0.1235069E+00
         21   -1    0    0  502  501  0.00000000000E+00  0.00000000000E+00  0.38263426826E+02  0.38263426826E+02  0.00000000000E+00 0. -1.
         21   -1    0    0  501  502 -0.00000000000E+00 -0.00000000000E+00 -0.10208834713E+03  0.10208834713E+03  0.00000000000E+00 0. -1.
         25    1    1    2    0    0  0.00000000000E+00  0.00000000000E+00 -0.63824920300E+02  0.14035177395E+03  0.12500000000E+03 0.  0.
<mgrwt>
<rscale>  0 0.12500000E+03</rscale>
<asrwt>0</asrwt>
<pdfrwt beam="1">  1       21 0.58866811E-02 0.12500000E+03</pdfrwt>
<pdfrwt beam="2">  1       21 0.15705899E-01 0.12500000E+03</pdfrwt>
<totfact> 0.71993418E+06</totfact>
</mgrwt>
</event>
<event>
 3    1  0.1615911E-001  0.1250000E+03  0.7546771E-02  0.1235069E+00
         21   -1    0    0  502  501  0.00000000000E+00  0.00000000000E+00  0.11877634926E+02  0.11877634926E+02  0.00000000000E+00 0. -1.
         21   -1    0    0  501  502 -0.00000000000E+00 -0.00000000000E+00 -0.32887439496E+03  0.32887439496E+03  0.00000000000E+00 0. -1.
         25    1    1    2    0    0  0.00000000000E+00  0.00000000000E+00 -0.31699676004E+03  0.34075202989E+03  0.12500000000E+03 0.  0.
<mgrwt>
<rscale>  0 0.12500000E+03</rscale>
<asrwt>0</asrwt>
<pdfrwt beam="1">  1       21 0.18273288E-02 0.12500000E+03</pdfrwt>
<pdfrwt beam="2">  1       21 0.50596050E-01 0.12500000E+03</pdfrwt>
<totfact> 0.52228762E+06</totfact>
</mgrwt>
</event>
<event>
 3    1  0.1615911E-001  0.1250000E+03  0.7546771E-02  0.1235069E+00
         21   -1    0    0  502  501  0.00000000000E+00  0.00000000000E+00  0.53484961088E+01  0.53484961088E+01  0.00000000000E+00 0. -1.
         21   -1    0    0  501  502 -0.00000000000E+00 -0.00000000000E+00 -0.73034548788E+03  0.73034548788E+03  0.00000000000E+00 0. -1.
         25    1    1    2    0    0  0.00000000000E+00  0.00000000000E+00 -0.72499699177E+03  0.73569398399E+03  0.12500000000E+03 0.  0.
<mgrwt>
<rscale>  0 0.12500000E+03</rscale>
<asrwt>0</asrwt>
<pdfrwt beam="1">  1       21 0.82284550E-03 0.12500000E+03</pdfrwt>
<pdfrwt beam="2">  1       21 0.11236085E+00 0.12500000E+03</pdfrwt>
<totfact> 0.31578537E+06</totfact>
</mgrwt>
</event>
<event>
 3    1  0.1615911E-001  0.1250000E+03  0.7546771E-02  0.1235069E+00
         21   -1    0    0  502  501  0.00000000000E+00  0.00000000000E+00  0.12475381017E+03  0.12475381017E+03  0.00000000000E+00 0.  1.
         21   -1    0    0  501  502 -0.00000000000E+00 -0.00000000000E+00 -0.31311668915E+02  0.31311668915E+02  0.00000000000E+00 0.  1.
         25    1    1    2    0    0  0.00000000000E+00  0.00000000000E+00  0.93442141256E+02  0.15606547909E+03  0.12500000000E+03 0.  0.
<mgrwt>
<rscale>  0 0.12500000E+03</rscale>
<asrwt>0</asrwt>
<pdfrwt beam="1">  1       21 0.19192894E-01 0.12500000E+03</pdfrwt>
<pdfrwt beam="2">  1       21 0.48171799E-02 0.12500000E+03</pdfrwt>
<totfact> 0.70003475E+06</totfact>
</mgrwt>
</event>
<event>
 3    1  0.1615911E-001  0.1250000E+03  0.7546771E-02  0.1235069E+00
         21   -1    0    0  502  501  0.00000000000E+00  0.00000000000E+00  0.68652632599E+01  0.68652632599E+01  0.00000000000E+00 0. -1.
         21   -1    0    0  501  502 -0.00000000000E+00 -0.00000000000E+00 -0.56898764870E+03  0.56898764870E+03  0.00000000000E+00 0. -1.
         25    1    1    2    0    0  0.00000000000E+00  0.00000000000E+00 -0.56212238544E+03  0.57585291196E+03  0.12500000000E+03 0.  0.
<mgrwt>
<rscale>  0 0.12500000E+03</rscale>
<asrwt>0</asrwt>
<pdfrwt beam="1">  1       21 0.10561943E-02 0.12500000E+03</pdfrwt>
<pdfrwt beam="2">  1       21 0.87536562E-01 0.12500000E+03</pdfrwt>
<totfact> 0.38207928E+06</totfact>
</mgrwt>
</event>
<event>
 3    1  0.1615911E-001  0.1250000E+03  0.7546771E-02  0.1235069E+00
         21   -1    0    0  502  501  0.00000000000E+00  0.00000000000E+00  0.17485114686E+02  0.17485114686E+02  0.00000000000E+00 0.  1.
         21   -1    0    0  501  502 -0.00000000000E+00 -0.00000000000E+00 -0.22340431105E+03  0.22340431105E+03  0.00000000000E+00 0.  1.
         25    1    1    2    0    0  0.00000000000E+00  0.00000000000E+00 -0.20591919636E+03  0.24088942573E+03  0.12500000000E+03 0.  0.
<mgrwt>
<rscale>  0 0.12500000E+03</rscale>
<asrwt>0</asrwt>
<pdfrwt beam="1">  1       21 0.26900177E-02 0.12500000E+03</pdfrwt>
<pdfrwt beam="2">  1       21 0.34369893E-01 0.12500000E+03</pdfrwt>
<totfact> 0.60746701E+06</totfact>
</mgrwt>
</event>
<event>
 3    1  0.1615911E-001  0.1250000E+03  0.7546771E-02  0.1235069E+00
         21   -1    0    0  502  501  0.00000000000E+00  0.00000000000E+00  0.18310484483E+03  0.18310484483E+03  0.00000000000E+00 0.  1.
         21   -1    0    0  501  502 -0.00000000000E+00 -0.00000000000E+00 -0.21333406026E+02  0.21333406026E+02  0.00000000000E+00 0.  1.
         25    1    1    2    0    0  0.00000000000E+00  0.00000000000E+00  0.16177143880E+03  0.20443825085E+03  0.12500000000E+03 0.  0.
<mgrwt>
<rscale>  0 0.12500000E+03</rscale>
<asrwt>0</asrwt>
<pdfrwt beam="1">  1       21 0.28169975E-01 0.12500000E+03</pdfrwt>
<pdfrwt beam="2">  1       21 0.32820626E-02 0.12500000E+03</pdfrwt>
<totfact> 0.64449488E+06</totfact>
</mgrwt>
</event>
<event>
 3    1  0.1615911E-001  0.1250000E+03  0.7546771E-02  0.1235069E+00
         21   -1    0    0  502  501  0.00000000000E+00  0.00000000000E+00  0.98511346325E+02  0.98511346325E+02  0.00000000000E+00 0.  1.
         21   -1    0    0  501  502 -0.00000000000E+00 -0.00000000000E+00 -0.39652792757E+02  0.39652792757E+02  0.00000000000E+00 0.  1.
         25    1    1    2    0    0  0.00000000000E+00  0.00000000000E+00  0.58858553569E+02  0.13816413908E+03  0.12500000000E+03 0.  0.
<mgrwt>
<rscale>  0 0.12500000E+03</rscale>
<asrwt>0</asrwt>
<pdfrwt beam="1">  1       21 0.15155592E-01 0.12500000E+03</pdfrwt>
<pdfrwt beam="2">  1       21 0.61004297E-02 0.12500000E+03</pdfrwt>
<totfact> 0.72279891E+06</totfact>
</mgrwt>
</event>
<event>
 3    1  0.1615911E-001  0.1250000E+03  0.7546771E-02  0.1235069E+00
         21   -1    0    0  502  501  0.00000000000E+00  0.00000000000E+00  0.71684272323E+02  0.71684272323E+02  0.00000000000E+00 0.  1.
         21   -1    0    0  501  502 -0.00000000000E+00 -0.00000000000E+00 -0.54492427326E+02  0.54492427326E+02  0.00000000000E+00 0.  1.
         25    1    1    2    0    0  0.00000000000E+00  0.00000000000E+00  0.17191844997E+02  0.12617669965E+03  0.12500000000E+03 0.  0.
<mgrwt>
<rscale>  0 0.12500000E+03</rscale>
<asrwt>0</asrwt>
<pdfrwt beam="1">  1       21 0.11028350E-01 0.12500000E+03</pdfrwt>
<pdfrwt beam="2">  1       21 0.83834504E-02 0.12500000E+03</pdfrwt>
<totfact> 0.73881712E+06</totfact>
</mgrwt>
</event>
<event>
 3    1  0.1615911E-001  0.1250000E+03  0.7546771E-02  0.1235069E+00
         21   -1    0    0  502  501  0.00000000000E+00  0.00000000000E+00  0.53112179821E+02  0.53112179821E+02  0.00000000000E+00 0. -1.
         21   -1    0    0  501  502 -0.00000000000E+00 -0.00000000000E+00 -0.73547160240E+02  0.73547160240E+02  0.00000000000E+00 0. -1.
         25    1    1    2    0    0  0.00000000000E+00  0.00000000000E+00 -0.20434980418E+02  0.12665934006E+03  0.12500000000E+03 0.  0.
<mgrwt>
<rscale>  0 0.12500000E+03</rscale>
<asrwt>0</asrwt>
<pdfrwt beam="1">  1       21 0.81711047E-02 0.12500000E+03</pdfrwt>
<pdfrwt beam="2">  1       21 0.11314948E-01 0.12500000E+03</pdfrwt>
<totfact> 0.73815588E+06</totfact>
</mgrwt>
</event>
<event>
 3    1  0.1615911E-001  0.1250000E+03  0.7546771E-02  0.1235069E+00
         21   -1    0    0  502  501  0.00000000000E+00  0.00000000000E+00  0.26337610109E+03  0.26337610109E+03  0.00000000000E+00 0. -1.
         21   -1    0    0  501  502 -0.00000000000E+00 -0.00000000000E+00 -0.14831451995E+02  0.14831451995E+02  0.00000000000E+00 0. -1.
         25    1    1    2    0    0  0.00000000000E+00  0.00000000000E+00  0.24854464909E+03  0.27820755308E+03  0.12500000000E+03 0.  0.
<mgrwt>
<rscale>  0 0.12500000E+03</rscale>
<asrwt>0</asrwt>
<pdfrwt beam="1">  1       21 0.40519397E-01 0.12500000E+03</pdfrwt>
<pdfrwt beam="2">  1       21 0.22817620E-02 0.12500000E+03</pdfrwt>
<totfact> 0.57317274E+06</totfact>
</mgrwt>
</event>
<event>
 3    1  0.1615911E-001  0.1250000E+03  0.7546771E-02  0.1235069E+00
         21   -1    0    0  502  501  0.00000000000E+00  0.00000000000E+00  0.48040752522E+03  0.48040752522E+03  0.00000000000E+00 0.  1.
         21   -1    0    0  501  502 -0.00000000000E+00 -0.00000000000E+00 -0.81311174262E+01  0.81311174262E+01  0.00000000000E+00 0.  1.
         25    1    1    2    0    0  0.00000000000E+00  0.00000000000E+00  0.47227640779E+03  0.48853864265E+03  0.12500000000E+03 0.  0.
<mgrwt>
<rscale>  0 0.12500000E+03</rscale>
<asrwt>0</asrwt>
<pdfrwt beam="1">  1       21 0.73908828E-01 0.12500000E+03</pdfrwt>
<pdfrwt beam="2">  1       21 0.12509415E-02 0.12500000E+03</pdfrwt>
<totfact> 0.42672553E+06</totfact>
</mgrwt>
</event>
<event>
 3    1  0.1615911E-001  0.1250000E+03  0.7546771E-02  0.1235069E+00
         21   -1    0    0  502  501  0.00000000000E+00  0.00000000000E+00  0.11665881507E+03  0.11665881507E+03  0.00000000000E+00 0. -1.
         21   -1    0    0  501  502 -0.00000000000E+00 -0.00000000000E+00 -0.33484396337E+02  0.33484396337E+02  0.00000000000E+00 0. -1.
         25    1    1    2    0    0  0.00000000000E+00  0.00000000000E+00  0.83174418732E+02  0.15014321141E+03  0.12500000000E+03 0.  0.
<mgrwt>
<rscale>  0 0.12500000E+03</rscale>
<asrwt>0</asrwt>
<pdfrwt beam="1">  1       21 0.17947510E-01 0.12500000E+03</pdfrwt>
<pdfrwt beam="2">  1       21 0.51514457E-02 0.12500000E+03</pdfrwt>
<totfact> 0.70741216E+06</totfact>
</mgrwt>
</event>
<event>
 3    1  0.1615911E-001  0.1250000E+03  0.7546771E-02  0.1235069E+00
         21   -1    0    0  502  501  0.00000000000E+00  0.00000000000E+00  0.63604391202E+03  0.63604391202E+03  0.00000000000E+00 0. -1.
         21   -1    0    0  501  502 -0.00000000000E+00 -0.00000000000E+00 -0.61414784831E+01  0.61414784831E+01  0.00000000000E+00 0. -1.
         25    1    1    2    0    0  0.00000000000E+00  0.00000000000E+00  0.62990243354E+03  0.64218539050E+03  0.12500000000E+03 0.  0.
<mgrwt>
<rscale>  0 0.12500000E+03</rscale>
<asrwt>0</asrwt>
<pdfrwt beam="1">  1       21 0.97852858E-01 0.12500000E+03</pdfrwt>
<pdfrwt beam="2">  1       21 0.94484335E-03 0.12500000E+03</pdfrwt>
<totfact> 0.35251653E+06</totfact>
</mgrwt>
</event>
<event>
 3    1  0.1615911E-001  0.1250000E+03  0.7546771E-02  0.1235069E+00
         21   -1    0    0  502  501  0.00000000000E+00  0.00000000000E+00  0.11277269709E+03  0.11277269709E+03  0.00000000000E+00 0. -1.
         21   -1    0    0  501  502 -0.00000000000E+00 -0.00000000000E+00 -0.34638259976E+02  0.34638259976E+02  0.00000000000E+00 0. -1.
         25    1    1    2    0    0  0.00000000000E+00  0.00000000000E+00  0.78134437114E+02  0.14741095707E+03  0.12500000000E+03 0.  0.
<mgrwt>
<rscale>  0 0.12500000E+03</rscale>
<asrwt>0</asrwt>
<pdfrwt beam="1">  1       21 0.17349646E-01 0.12500000E+03</pdfrwt>
<pdfrwt beam="2">  1       21 0.53289631E-02 0.12500000E+03</pdfrwt>
<totfact> 0.71085967E+06</totfact>
</mgrwt>
</event>
<event>
 3    1  0.1615911E-001  0.1250000E+03  0.7546771E-02  0.1235069E+00
         21   -1    0    0  502  501  0.00000000000E+00  0.00000000000E+00  0.25694747986E+02  0.25694747986E+02  0.00000000000E+00 0. -1.
         21   -1    0    0  501  502 -0.00000000000E+00 -0.00000000000E+00 -0.15202523108E+03  0.15202523108E+03  0.00000000000E+00 0. -1.
         25    1    1    2    0    0  0.00000000000E+00  0.00000000000E+00 -0.12633048309E+03  0.17771997906E+03  0.12500000000E+03 0.  0.
<mgrwt>
<rscale>  0 0.12500000E+03</rscale>
<asrwt>0</asrwt>
<pdfrwt beam="1">  1       21 0.39530381E-02 0.12500000E+03</pdfrwt>
<pdfrwt beam="2">  1       21 0.23388497E-01 0.12500000E+03</pdfrwt>
<totfact> 0.67414060E+06</totfact>
</mgrwt>
</event>
<event>
 3    1  0.1615911E-001  0.1250000E+03  0.7546771E-02  0.1235069E+00
         21   -1    0    0  502  501  0.00000000000E+00  0.00000000000E+00  0.13559522242E+03  0.13559522242E+03  0.00000000000E+00 0.  1.
         21   -1    0    0  501  502 -0.00000000000E+00 -0.00000000000E+00 -0.28808168388E+02  0.28808168388E+02  0.00000000000E+00 0.  1.
         25    1    1    2    0    0  0.00000000000E+00  0.00000000000E+00  0.10678705403E+03  0.16440339081E+03  0.12500000000E+03 0.  0.
<mgrwt>
<rscale>  0 0.12500000E+03</rscale>
<asrwt>0</asrwt>
<pdfrwt beam="1">  1       21 0.20860803E-01 0.12500000E+03</pdfrwt>
<pdfrwt beam="2">  1       21 0.44320260E-02 0.12500000E+03</pdfrwt>
<totfact> 0.68985412E+06</totfact>
</mgrwt>
</event>
<event>
 3    1  0.1615911E-001  0.1250000E+03  0.7546771E-02  0.1235069E+00
         21   -1    0    0  502  501  0.00000000000E+00  0.00000000000E+00  0.59125863966E+02  0.59125863966E+02  0.00000000000E+00 0.  1.
         21   -1    0    0  501  502 -0.00000000000E+00 -0.00000000000E+00 -0.66066687875E+02  0.66066687875E+02  0.00000000000E+00 0.  1.
         25    1    1    2    0    0  0.00000000000E+00  0.00000000000E+00 -0.69408239092E+01  0.12519255184E+03  0.12500000000E+03 0.  0.
<mgrwt>
<rscale>  0 0.12500000E+03</rscale>
<asrwt>0</asrwt>
<pdfrwt beam="1">  1       21 0.90962867E-02 0.12500000E+03</pdfrwt>
<pdfrwt beam="2">  1       21 0.10164106E-01 0.12500000E+03</pdfrwt>
<totfact> 0.74017578E+06</totfact>
</mgrwt>
</event>
<event>
 3    1  0.1615911E-001  0.1250000E+03  0.7546771E-02  0.1235069E+00
         21   -1    0    0  502  501  0.00000000000E+00  0.00000000000E+00  0.17147092747E+04  0.17147092747E+04  0.00000000000E+00 0. -1.
         21   -1    0    0  501  502 -0.00000000000E+00 -0.00000000000E+00 -0.22780829716E+01  0.22780829716E+01  0.00000000000E+00 0. -1.
         25    1    1    2    0    0  0.00000000000E+00  0.00000000000E+00  0.17124311917E+04  0.17169873577E+04  0.12500000000E+03 0.  0.
<mgrwt>
<rscale>  0 0.12500000E+03</rscale>
<asrwt>0</asrwt>
<pdfrwt beam="1">  1       21 0.26380039E+00 0.12500000E+03</pdfrwt>
<pdfrwt beam="2">  1       21 0.35047567E-03 0.12500000E+03</pdfrwt>
<totfact> 0.11059119E+06</totfact>
</mgrwt>
</event>
<event>
 3    1  0.1615911E-001  0.1250000E+03  0.7546771E-02  0.1235069E+00
         21   -1    0    0  502  501  0.00000000000E+00  0.00000000000E+00  0.33801640532E+01  0.33801640532E+01  0.00000000000E+00 0.  1.
         21   -1    0    0  501  502 -0.00000000000E+00 -0.00000000000E+00 -0.11556391756E+04  0.11556391756E+04  0.00000000000E+00 0.  1.
         25    1    1    2    0    0  0.00000000000E+00  0.00000000000E+00 -0.11522590116E+04  0.11590193397E+04  0.12500000000E+03 0.  0.
<mgrwt>
<rscale>  0 0.12500000E+03</rscale>
<asrwt>0</asrwt>
<pdfrwt beam="1">  1       21 0.52002499E-03 0.12500000E+03</pdfrwt>
<pdfrwt beam="2">  1       21 0.17779073E+00 0.12500000E+03</pdfrwt>
<totfact> 0.19979673E+06</totfact>
</mgrwt>
</event>
<event>
 3    1  0.1615911E-001  0.1250000E+03  0.7546771E-02  0.1235069E+00
         21   -1    0    0  502  501  0.00000000000E+00  0.00000000000E+00  0.28270010037E+02  0.28270010037E+02  0.00000000000E+00 0.  1.
         21   -1    0    0  501  502 -0.00000000000E+00 -0.00000000000E+00 -0.13817646315E+03  0.13817646315E+03  0.00000000000E+00 0.  1.
         25    1    1    2    0    0  0.00000000000E+00  0.00000000000E+00 -0.10990645311E+03  0.16644647318E+03  0.12500000000E+03 0.  0.
<mgrwt>
<rscale>  0 0.12500000E+03</rscale>
<asrwt>0</asrwt>
<pdfrwt beam="1">  1       21 0.43492323E-02 0.12500000E+03</pdfrwt>
<pdfrwt beam="2">  1       21 0.21257917E-01 0.12500000E+03</pdfrwt>
<totfact> 0.68740260E+06</totfact>
</mgrwt>
</event>
<event>
 3    1  0.1615911E-001  0.1250000E+03  0.7546771E-02  0.1235069E+00
         21   -1    0    0  502  501  0.00000000000E+00  0.00000000000E+00  0.51986187377E+03  0.51986187377E+03  0.00000000000E+00 0. -1.
         21   -1    0    0  501  502 -0.00000000000E+00 -0.00000000000E+00 -0.75140151588E+01  0.75140151588E+01  0.00000000000E+00 0. -1.
         25    1    1    2    0    0  0.00000000000E+00  0.00000000000E+00  0.51234785861E+03  0.52737588893E+03  0.12500000000E+03 0.  0.
<mgrwt>
<rscale>  0 0.12500000E+03</rscale>
<asrwt>0</asrwt>
<pdfrwt beam="1">  1       21 0.79978722E-01 0.12500000E+03</pdfrwt>
<pdfrwt beam="2">  1       21 0.11560027E-02 0.12500000E+03</pdfrwt>
<totfact> 0.40597304E+06</totfact>
</mgrwt>
</event>
<event>
 3    1  0.1615911E-001  0.1250000E+03  0.7546771E-02  0.1235069E+00
         21   -1    0    0  502  501  0.00000000000E+00  0.00000000000E+00  0.37276287056E+02  0.37276287056E+02  0.00000000000E+00 0. -1.
         21   -1    0    0  501  502 -0.00000000000E+00 -0.00000000000E+00 -0.10479182098E+03  0.10479182098E+03  0.00000000000E+00 0. -1.
         25    1    1    2    0    0  0.00000000000E+00  0.00000000000E+00 -0.67515533926E+02  0.14206810804E+03  0.12500000000E+03 0.  0.
<mgrwt>
<rscale>  0 0.12500000E+03</rscale>
<asrwt>0</asrwt>
<pdfrwt beam="1">  1       21 0.57348134E-02 0.12500000E+03</pdfrwt>
<pdfrwt beam="2">  1       21 0.16121819E-01 0.12500000E+03</pdfrwt>
<totfact> 0.71770458E+06</totfact>
</mgrwt>
</event>
<event>
 3    1  0.1615911E-001  0.1250000E+03  0.7546771E-02  0.1235069E+00
         21   -1    0    0  502  501  0.00000000000E+00  0.00000000000E+00  0.18129223508E+02  0.18129223508E+02  0.00000000000E+00 0. -1.
         21   -1    0    0  501  502 -0.00000000000E+00 -0.00000000000E+00 -0.21546703301E+03  0.21546703301E+03  0.00000000000E+00 0. -1.
         25    1    1    2    0    0  0.00000000000E+00  0.00000000000E+00 -0.19733780950E+03  0.23359625651E+03  0.12500000000E+03 0.  0.
<mgrwt>
<rscale>  0 0.12500000E+03</rscale>
<asrwt>0</asrwt>
<pdfrwt beam="1">  1       21 0.27891114E-02 0.12500000E+03</pdfrwt>
<pdfrwt beam="2">  1       21 0.33148774E-01 0.12500000E+03</pdfrwt>
<totfact> 0.61457900E+06</totfact>
</mgrwt>
</event>
<event>
 3    1  0.1615911E-001  0.1250000E+03  0.7546771E-02  0.1235069E+00
         21   -1    0    0  502  501  0.00000000000E+00  0.00000000000E+00  0.17785834402E+03  0.17785834402E+03  0.00000000000E+00 0.  1.
         21   -1    0    0  501  502 -0.00000000000E+00 -0.00000000000E+00 -0.21962703080E+02  0.21962703080E+02  0.00000000000E+00 0.  1.
         25    1    1    2    0    0  0.00000000000E+00  0.00000000000E+00  0.15589564094E+03  0.19982104710E+03  0.12500000000E+03 0.  0.
<mgrwt>
<rscale>  0 0.12500000E+03</rscale>
<asrwt>0</asrwt>
<pdfrwt beam="1">  1       21 0.27362821E-01 0.12500000E+03</pdfrwt>
<pdfrwt beam="2">  1       21 0.33788775E-02 0.12500000E+03</pdfrwt>
<totfact> 0.64946648E+06</totfact>
</mgrwt>
</event>
<event>
 3    1  0.1615911E-001  0.1250000E+03  0.7546771E-02  0.1235069E+00
         21   -1    0    0  502  501  0.00000000000E+00  0.00000000000E+00  0.93250388543E+02  0.93250388543E+02  0.00000000000E+00 0.  1.
         21   -1    0    0  501  502 -0.00000000000E+00 -0.00000000000E+00 -0.41889905887E+02  0.41889905887E+02  0.00000000000E+00 0.  1.
         25    1    1    2    0    0  0.00000000000E+00  0.00000000000E+00  0.51360482656E+02  0.13514029443E+03  0.12500000000E+03 0.  0.
<mgrwt>
<rscale>  0 0.12500000E+03</rscale>
<asrwt>0</asrwt>
<pdfrwt beam="1">  1       21 0.14346214E-01 0.12500000E+03</pdfrwt>
<pdfrwt beam="2">  1       21 0.64446009E-02 0.12500000E+03</pdfrwt>
<totfact> 0.72677901E+06</totfact>
</mgrwt>
</event>
<event>
 3    1  0.1615911E-001  0.1250000E+03  0.7546771E-02  0.1235069E+00
         21   -1    0    0  502  501  0.00000000000E+00  0.00000000000E+00  0.14627036583E+04  0.14627036583E+04  0.00000000000E+00 0. -1.
         21   -1    0    0  501  502 -0.00000000000E+00 -0.00000000000E+00 -0.26705682849E+01  0.26705682849E+01  0.00000000000E+00 0. -1.
         25    1    1    2    0    0  0.00000000000E+00  0.00000000000E+00  0.14600330900E+04  0.14653742265E+04  0.12500000000E+03 0.  0.
<mgrwt>
<rscale>  0 0.12500000E+03</rscale>
<asrwt>0</asrwt>
<pdfrwt beam="1">  1       21 0.22503069E+00 0.12500000E+03</pdfrwt>
<pdfrwt beam="2">  1       21 0.41085783E-03 0.12500000E+03</pdfrwt>
<totfact> 0.14514182E+06</totfact>
</mgrwt>
</event>
<event>
 3    1  0.1615911E-001  0.1250000E+03  0.7546771E-02  0.1235069E+00
         21   -1    0    0  502  501  0.00000000000E+00  0.00000000000E+00  0.34288700858E+02  0.34288700858E+02  0.00000000000E+00 0.  1.
         21   -1    0    0  501  502 -0.00000000000E+00 -0.00000000000E+00 -0.11392236808E+03  0.11392236808E+03  0.00000000000E+00 0.  1.
         25    1    1    2    0    0  0.00000000000E+00  0.00000000000E+00 -0.79633667218E+02  0.14821106893E+03  0.12500000000E+03 0.  0.
<mgrwt>
<rscale>  0 0.12500000E+03</rscale>
<asrwt>0</asrwt>
<pdfrwt beam="1">  1       21 0.52751847E-02 0.12500000E+03</pdfrwt>
<pdfrwt beam="2">  1       21 0.17526518E-01 0.12500000E+03</pdfrwt>
<totfact> 0.70984652E+06</totfact>
</mgrwt>
</event>
<event>
 3    1  0.1615911E-001  0.1250000E+03  0.7546771E-02  0.1235069E+00
         21   -1    0    0  502  501  0.00000000000E+00  0.00000000000E+00  0.64986154823E+02  0.64986154823E+02  0.00000000000E+00 0.  1.
         21   -1    0    0  501  502 -0.00000000000E+00 -0.00000000000E+00 -0.60108957218E+02  0.60108957218E+02  0.00000000000E+00 0.  1.
         25    1    1    2    0    0  0.00000000000E+00  0.00000000000E+00  0.48771976053E+01  0.12509511204E+03  0.12500000000E+03 0.  0.
<mgrwt>
<rscale>  0 0.12500000E+03</rscale>
<asrwt>0</asrwt>
<pdfrwt beam="1">  1       21 0.99978701E-02 0.12500000E+03</pdfrwt>
<pdfrwt beam="2">  1       21 0.92475318E-02 0.12500000E+03</pdfrwt>
<totfact> 0.74030735E+06</totfact>
</mgrwt>
</event>
<event>
 3    1  0.1615911E-001  0.1250000E+03  0.7546771E-02  0.1235069E+00
         21   -1    0    0  502  501  0.00000000000E+00  0.00000000000E+00  0.16011379805E+02  0.16011379805E+02  0.00000000000E+00 0.  1.
         21   -1    0    0  501  502 -0.00000000000E+00 -0.00000000000E+00 -0.24396710637E+03  0.24396710637E+03  0.00000000000E+00 0.  1.
         25    1    1    2    0    0  0.00000000000E+00  0.00000000000E+00 -0.22795572656E+03  0.25997848617E+03  0.12500000000E+03 0.  0.
<mgrwt>
<rscale>  0 0.12500000E+03</rscale>
<asrwt>0</asrwt>
<pdfrwt beam="1">  1       21 0.24632892E-02 0.12500000E+03</pdfrwt>
<pdfrwt beam="2">  1       21 0.37533402E-01 0.12500000E+03</pdfrwt>
<totfact> 0.58951242E+06</totfact>
</mgrwt>
</event>
<event>
 3    1  0.1615911E-001  0.1250000E+03  0.7546771E-02  0.1235069E+00
         21   -1    0    0  502  501  0.00000000000E+00  0.00000000000E+00  0.77998485688E+02  0.77998485688E+02  0.00000000000E+00 0.  1.
         21   -1    0    0  501  502 -0.00000000000E+00 -0.00000000000E+00 -0.50081100492E+02  0.50081100492E+02  0.00000000000E+00 0.  1.
         25    1    1    2    0    0  0.00000000000E+00  0.00000000000E+00  0.27917385196E+02  0.12807958618E+03  0.12500000000E+03 0.  0.
<mgrwt>
<rscale>  0 0.12500000E+03</rscale>
<asrwt>0</asrwt>
<pdfrwt beam="1">  1       21 0.11999767E-01 0.12500000E+03</pdfrwt>
<pdfrwt beam="2">  1       21 0.77047847E-02 0.12500000E+03</pdfrwt>
<totfact> 0.73622811E+06</totfact>
</mgrwt>
</event>
<event>
 3    1  0.1615911E-001  0.1250000E+03  0.7546771E-02  0.1235069E+00
         21   -1    0    0  502  501  0.00000000000E+00  0.00000000000E+00  0.79770004409E+03  0.79770004409E+03  0.00000000000E+00 0.  1.
         21   -1    0    0  501  502 -0.00000000000E+00 -0.00000000000E+00 -0.48968907911E+01  0.48968907911E+01  0.00000000000E+00 0.  1.
         25    1    1    2    0    0  0.00000000000E+00  0.00000000000E+00  0.79280315330E+03  0.80259693488E+03  0.12500000000E+03 0.  0.
<mgrwt>
<rscale>  0 0.12500000E+03</rscale>
<asrwt>0</asrwt>
<pdfrwt beam="1">  1       21 0.12272298E+00 0.12500000E+03</pdfrwt>
<pdfrwt beam="2">  1       21 0.75336845E-03 0.12500000E+03</pdfrwt>
<totfact> 0.29276973E+06</totfact>
</mgrwt>
</event>
<event>
 3    1  0.1615911E-001  0.1250000E+03  0.7546771E-02  0.1235069E+00
         21   -1    0    0  502  501  0.00000000000E+00  0.00000000000E+00  0.25203131717E+02  0.25203131717E+02  0.00000000000E+00 0. -1.
         21   -1    0    0  501  502 -0.00000000000E+00 -0.00000000000E+00 -0.15499065925E+03  0.15499065925E+03  0.00000000000E+00 0. -1.
         25    1    1    2    0    0  0.00000000000E+00  0.00000000000E+00 -0.12978752753E+03  0.18019379097E+03  0.12500000000E+03 0.  0.
<mgrwt>
<rscale>  0 0.12500000E+03</rscale>
<asrwt>0</asrwt>
<pdfrwt beam="1">  1       21 0.38774049E-02 0.12500000E+03</pdfrwt>
<pdfrwt beam="2">  1       21 0.23844716E-01 0.12500000E+03</pdfrwt>
<totfact> 0.67129312E+06</totfact>
</mgrwt>
</event>
<event>
 3    1  0.1615911E-001  0.1250000E+03  0.7546771E-02  0.1235069E+00
         21   -1    0    0  502  501  0.00000000000E+00  0.00000000000E+00  0.42747870557E+03  0.42747870557E+03  0.00000000000E+00 0.  1.
         21   -1    0    0  501  502 -0.00000000000E+00 -0.00000000000E+00 -0.91378820726E+01  0.91378820726E+01  0.00000000000E+00 0.  1.
         25    1    1    2    0    0  0.00000000000E+00  0.00000000000E+00  0.41834082349E+03  0.43661658764E+03  0.12500000000E+03 0.  0.
<mgrwt>
<rscale>  0 0.12500000E+03</rscale>
<asrwt>0</asrwt>
<pdfrwt beam="1">  1       21 0.65765939E-01 0.12500000E+03</pdfrwt>
<pdfrwt beam="2">  1       21 0.14058283E-02 0.12500000E+03</pdfrwt>
<totfact> 0.45703805E+06</totfact>
</mgrwt>
</event>
<event>
 3    1  0.1615911E-001  0.1250000E+03  0.7546771E-02  0.1235069E+00
         21   -1    0    0  502  501  0.00000000000E+00  0.00000000000E+00  0.10721848716E+02  0.10721848716E+02  0.00000000000E+00 0. -1.
         21   -1    0    0  501  502 -0.00000000000E+00 -0.00000000000E+00 -0.36432616272E+03  0.36432616272E+03  0.00000000000E+00 0. -1.
         25    1    1    2    0    0  0.00000000000E+00  0.00000000000E+00 -0.35360431400E+03  0.37504801143E+03  0.12500000000E+03 0.  0.
<mgrwt>
<rscale>  0 0.12500000E+03</rscale>
<asrwt>0</asrwt>
<pdfrwt beam="1">  1       21 0.16495148E-02 0.12500000E+03</pdfrwt>
<pdfrwt beam="2">  1       21 0.56050191E-01 0.12500000E+03</pdfrwt>
<totfact> 0.49740109E+06</totfact>
</mgrwt>
</event>
<event>
 3    1  0.1615911E-001  0.1250000E+03  0.7546771E-02  0.1235069E+00
         21   -1    0    0  502  501  0.00000000000E+00  0.00000000000E+00  0.56295563851E+01  0.56295563851E+01  0.00000000000E+00 0.  1.
         21   -1    0    0  501  502 -0.00000000000E+00 -0.00000000000E+00 -0.69388238305E+03  0.69388238305E+03  0.00000000000E+00 0.  1.
         25    1    1    2    0    0  0.00000000000E+00  0.00000000000E+00 -0.68825282667E+03  0.69951193944E+03  0.12500000000E+03 0.  0.
<mgrwt>
<rscale>  0 0.12500000E+03</rscale>
<asrwt>0</asrwt>
<pdfrwt beam="1">  1       21 0.86608566E-03 0.12500000E+03</pdfrwt>
<pdfrwt beam="2">  1       21 0.10675113E+00 0.12500000E+03</pdfrwt>
<totfact> 0.32928966E+06</totfact>
</mgrwt>
</event>
<event>
 3    1  0.1615911E-001  0.1250000E+03  0.7546771E-02  0.1235069E+00
         21   -1    0    0  502  501  0.00000000000E+00  0.00000000000E+00  0.60758836825E+03  0.60758836825E+03  0.00000000000E+00 0. -1.
         21   -1    0    0  501  502 -0.00000000000E+00 -0.00000000000E+00 -0.64291059608E+01  0.64291059608E+01  0.00000000000E+00 0. -1.
         25    1    1    2    0    0  0.00000000000E+00  0.00000000000E+00  0.60115926229E+03  0.61401747421E+03  0.12500000000E+03 0.  0.
<mgrwt>
<rscale>  0 0.12500000E+03</rscale>
<asrwt>0</asrwt>
<pdfrwt beam="1">  1       21 0.93475088E-01 0.12500000E+03</pdfrwt>
<pdfrwt beam="2">  1       21 0.98909371E-03 0.12500000E+03</pdfrwt>
<totfact> 0.36466298E+06</totfact>
</mgrwt>
</event>
<event>
 3    1  0.1615911E-001  0.1250000E+03  0.7546771E-02  0.1235069E+00
         21   -1    0    0  502  501  0.00000000000E+00  0.00000000000E+00  0.22787243110E+03  0.22787243110E+03  0.00000000000E+00 0. -1.
         21   -1    0    0  501  502 -0.00000000000E+00 -0.00000000000E+00 -0.17142266755E+02  0.17142266755E+02  0.00000000000E+00 0. -1.
         25    1    1    2    0    0  0.00000000000E+00  0.00000000000E+00  0.21073016434E+03  0.24501469785E+03  0.12500000000E+03 0.  0.
<mgrwt>
<rscale>  0 0.12500000E+03</rscale>
<asrwt>0</asrwt>
<pdfrwt beam="1">  1       21 0.35057295E-01 0.12500000E+03</pdfrwt>
<pdfrwt beam="2">  1       21 0.26372720E-02 0.12500000E+03</pdfrwt>
<totfact> 0.60350750E+06</totfact>
</mgrwt>
</event>
<event>
 3    1  0.1615911E-001  0.1250000E+03  0.7546771E-02  0.1235069E+00
         21   -1    0    0  502  501  0.00000000000E+00  0.00000000000E+00  0.34488586817E+01  0.34488586817E+01  0.00000000000E+00 0. -1.
         21   -1    0    0  501  502 -0.00000000000E+00 -0.00000000000E+00 -0.11326210670E+04  0.11326210670E+04  0.00000000000E+00 0. -1.
         25    1    1    2    0    0  0.00000000000E+00  0.00000000000E+00 -0.11291722083E+04  0.11360699257E+04  0.12500000000E+03 0.  0.
<mgrwt>
<rscale>  0 0.12500000E+03</rscale>
<asrwt>0</asrwt>
<pdfrwt beam="1">  1       21 0.53059366E-03 0.12500000E+03</pdfrwt>
<pdfrwt beam="2">  1       21 0.17424939E+00 0.12500000E+03</pdfrwt>
<totfact> 0.20465703E+06</totfact>
</mgrwt>
</event>
<event>
 3    1  0.1615911E-001  0.1250000E+03  0.7546771E-02  0.1235069E+00
         21   -1    0    0  502  501  0.00000000000E+00  0.00000000000E+00  0.16587332419E+02  0.16587332419E+02  0.00000000000E+00 0.  1.
         21   -1    0    0  501  502 -0.00000000000E+00 -0.00000000000E+00 -0.23549597376E+03  0.23549597376E+03  0.00000000000E+00 0.  1.
         25    1    1    2    0    0  0.00000000000E+00  0.00000000000E+00 -0.21890864134E+03  0.25208330618E+03  0.12500000000E+03 0.  0.
<mgrwt>
<rscale>  0 0.12500000E+03</rscale>
<asrwt>0</asrwt>
<pdfrwt beam="1">  1       21 0.25518974E-02 0.12500000E+03</pdfrwt>
<pdfrwt beam="2">  1       21 0.36230148E-01 0.12500000E+03</pdfrwt>
<totfact> 0.59682602E+06</totfact>
</mgrwt>
</event>
<event>
 3    1  0.1615911E-001  0.1250000E+03  0.7546771E-02  0.1235069E+00
         21   -1    0    0  502  501  0.00000000000E+00  0.00000000000E+00  0.55703780872E+02  0.55703780872E+02  0.00000000000E+00 0. -1.
         21   -1    0    0  501  502 -0.00000000000E+00 -0.00000000000E+00 -0.70125401523E+02  0.70125401523E+02  0.00000000000E+00 0. -1.
         25    1    1    2    0    0  0.00000000000E+00  0.00000000000E+00 -0.14421620650E+02  0.12582918239E+03  0.12500000000E+03 0.  0.
<mgrwt>
<rscale>  0 0.12500000E+03</rscale>
<asrwt>0</asrwt>
<pdfrwt beam="1">  1       21 0.85698124E-02 0.12500000E+03</pdfrwt>
<pdfrwt beam="2">  1       21 0.10788523E-01 0.12500000E+03</pdfrwt>
<totfact> 0.73929632E+06</totfact>
</mgrwt>
</event>
<event>
 3    1  0.1615911E-001  0.1250000E+03  0.7546771E-02  0.1235069E+00
         21   -1    0    0  502  501  0.00000000000E+00  0.00000000000E+00  0.75543768660E+03  0.75543768660E+03  0.00000000000E+00 0.  1.
         21   -1    0    0  501  502 -0.00000000000E+00 -0.00000000000E+00 -0.51708434319E+01  0.51708434319E+01  0.00000000000E+00 0.  1.
         25    1    1    2    0    0  0.00000000000E+00  0.00000000000E+00  0.75026684317E+03  0.76060853004E+03  0.12500000000E+03 0.  0.
<mgrwt>
<rscale>  0 0.12500000E+03</rscale>
<asrwt>0</asrwt>
<pdfrwt beam="1">  1       21 0.11622109E+00 0.12500000E+03</pdfrwt>
<pdfrwt beam="2">  1       21 0.79551497E-03 0.12500000E+03</pdfrwt>
<totfact> 0.30699231E+06</totfact>
</mgrwt>
</event>
<event>
 3    1  0.1615911E-001  0.1250000E+03  0.7546771E-02  0.1235069E+00
         21   -1    0    0  502  501  0.00000000000E+00  0.00000000000E+00  0.70857845788E+02  0.70857845788E+02  0.00000000000E+00 0. -1.
         21   -1    0    0  501  502 -0.00000000000E+00 -0.00000000000E+00 -0.55127981334E+02  0.55127981334E+02  0.00000000000E+00 0. -1.
         25    1    1    2    0    0  0.00000000000E+00  0.00000000000E+00  0.15729864454E+02  0.12598582712E+03  0.12500000000E+03 0.  0.
<mgrwt>
<rscale>  0 0.12500000E+03</rscale>
<asrwt>0</asrwt>
<pdfrwt beam="1">  1       21 0.10901207E-01 0.12500000E+03</pdfrwt>
<pdfrwt beam="2">  1       21 0.84812279E-02 0.12500000E+03</pdfrwt>
<totfact> 0.73907993E+06</totfact>
</mgrwt>
</event>
<event>
 3    1  0.1615911E-001  0.1250000E+03  0.7546771E-02  0.1235069E+00
         21   -1    0    0  502  501  0.00000000000E+00  0.00000000000E+00  0.13919278575E+02  0.13919278575E+02  0.00000000000E+00 0.  1.
         21   -1    0    0  501  502 -0.00000000000E+00 -0.00000000000E+00 -0.28063595242E+03  0.28063595242E+03  0.00000000000E+00 0.  1.
         25    1    1    2    0    0  0.00000000000E+00  0.00000000000E+00 -0.26671667384E+03  0.29455523099E+03  0.12500000000E+03 0.  0.
<mgrwt>
<rscale>  0 0.12500000E+03</rscale>
<asrwt>0</asrwt>
<pdfrwt beam="1">  1       21 0.21414273E-02 0.12500000E+03</pdfrwt>
<pdfrwt beam="2">  1       21 0.43174766E-01 0.12500000E+03</pdfrwt>
<totfact> 0.55911710E+06</totfact>
</mgrwt>
</event>
<event>
 3    1  0.1615911E-001  0.1250000E+03  0.7546771E-02  0.1235069E+00
         21   -1    0    0  502  501  0.00000000000E+00  0.00000000000E+00  0.80297773392E+03  0.80297773392E+03  0.00000000000E+00 0.  1.
         21   -1    0    0  501  502 -0.00000000000E+00 -0.00000000000E+00 -0.48647052527E+01  0.48647052527E+01  0.00000000000E+00 0.  1.
         25    1    1    2    0    0  0.00000000000E+00  0.00000000000E+00  0.79811302867E+03  0.80784243918E+03  0.12500000000E+03 0.  0.
<mgrwt>
<rscale>  0 0.12500000E+03</rscale>
<asrwt>0</asrwt>
<pdfrwt beam="1">  1       21 0.12353493E+00 0.12500000E+03</pdfrwt>
<pdfrwt beam="2">  1       21 0.74841683E-03 0.12500000E+03</pdfrwt>
<totfact> 0.29104638E+06</totfact>
</mgrwt>
</event>
<event>
 3    1  0.1615911E-001  0.1250000E+03  0.7546771E-02  0.1235069E+00
         21   -1    0    0  502  501  0.00000000000E+00  0.00000000000E+00  0.83585235072E+02  0.83585235072E+02  0.00000000000E+00 0.  1.
         21   -1    0    0  501  502 -0.00000000000E+00 -0.00000000000E+00 -0.46733732299E+02  0.46733732299E+02  0.00000000000E+00 0.  1.
         25    1    1    2    0    0  0.00000000000E+00  0.00000000000E+00  0.36851502773E+02  0.13031896737E+03  0.12500000000E+03 0.  0.
<mgrwt>
<rscale>  0 0.12500000E+03</rscale>
<asrwt>0</asrwt>
<pdfrwt beam="1">  1       21 0.12859267E-01 0.12500000E+03</pdfrwt>
<pdfrwt beam="2">  1       21 0.71898050E-02 0.12500000E+03</pdfrwt>
<totfact> 0.73322316E+06</totfact>
</mgrwt>
</event>
<event>
 3    1  0.1615911E-001  0.1250000E+03  0.7546771E-02  0.1235069E+00
         21   -1    0    0  502  501  0.00000000000E+00  0.00000000000E+00  0.45066273612E+01  0.45066273612E+01  0.00000000000E+00 0. -1.
         21   -1    0    0  501  502 -0.00000000000E+00 -0.00000000000E+00 -0.86677900942E+03  0.86677900942E+03  0.00000000000E+00 0. -1.
         25    1    1    2    0    0  0.00000000000E+00  0.00000000000E+00 -0.86227238206E+03  0.87128563678E+03  0.12500000000E+03 0.  0.
<mgrwt>
<rscale>  0 0.12500000E+03</rscale>
<asrwt>0</asrwt>
<pdfrwt beam="1">  1       21 0.69332809E-03 0.12500000E+03</pdfrwt>
<pdfrwt beam="2">  1       21 0.13335046E+00 0.12500000E+03</pdfrwt>
<totfact> 0.27132341E+06</totfact>
</mgrwt>
</event>
<event>
 3    1  0.1615911E-001  0.1250000E+03  0.7546771E-02  0.1235069E+00
         21   -1    0    0  502  501  0.00000000000E+00  0.00000000000E+00  0.74622589617E+02  0.74622589617E+02  0.00000000000E+00 0.  1.
         21   -1    0    0  501  502 -0.00000000000E+00 -0.00000000000E+00 -0.52346749423E+02  0.52346749423E+02  0.00000000000E+00 0.  1.
         25    1    1    2    0    0  0.00000000000E+00  0.00000000000E+00  0.22275840194E+02  0.12696933904E+03  0.12500000000E+03 0.  0.
<mgrwt>
<rscale>  0 0.12500000E+03</rscale>
<asrwt>0</asrwt>
<pdfrwt beam="1">  1       21 0.11480398E-01 0.12500000E+03</pdfrwt>
<pdfrwt beam="2">  1       21 0.80533460E-02 0.12500000E+03</pdfrwt>
<totfact> 0.73773311E+06</totfact>
</mgrwt>
</event>
<event>
 3    1  0.1615911E-001  0.1250000E+03  0.7546771E-02  0.1235069E+00
         21   -1    0    0  502  501  0.00000000000E+00  0.00000000000E+00  0.15830484872E+03  0.15830484872E+03  0.00000000000E+00 0.  1.
         21   -1    0    0  501  502 -0.00000000000E+00 -0.00000000000E+00 -0.24675491822E+02  0.24675491822E+02  0.00000000000E+00 0.  1.
         25    1    1    2    0    0  0.00000000000E+00  0.00000000000E+00  0.13362935690E+03  0.18298034054E+03  0.12500000000E+03 0.  0.
<mgrwt>
<rscale>  0 0.12500000E+03</rscale>
<asrwt>0</asrwt>
<pdfrwt beam="1">  1       21 0.24354592E-01 0.12500000E+03</pdfrwt>
<pdfrwt beam="2">  1       21 0.37962296E-02 0.12500000E+03</pdfrwt>
<totfact> 0.66811276E+06</totfact>
</mgrwt>
</event>
<event>
 3    1  0.1615911E-001  0.1250000E+03  0.7546771E-02  0.1235069E+00
         21   -1    0    0  502  501  0.00000000000E+00  0.00000000000E+00  0.30838416103E+02  0.30838416103E+02  0.00000000000E+00 0.  1.
         21   -1    0    0  501  502 -0.00000000000E+00 -0.00000000000E+00 -0.12666830835E+03  0.12666830835E+03  0.00000000000E+00 0.  1.
         25    1    1    2    0    0  0.00000000000E+00  0.00000000000E+00 -0.95829892248E+02  0.15750672445E+03  0.12500000000E+03 0.  0.
<mgrwt>
<rscale>  0 0.12500000E+03</rscale>
<asrwt>0</asrwt>
<pdfrwt beam="1">  1       21 0.47443717E-02 0.12500000E+03</pdfrwt>
<pdfrwt beam="2">  1       21 0.19487432E-01 0.12500000E+03</pdfrwt>
<totfact> 0.69825437E+06</totfact>
</mgrwt>
</event>
<event>
 3    1  0.1615911E-001  0.1250000E+03  0.7546771E-02  0.1235069E+00
         21   -1    0    0  502  501  0.00000000000E+00  0.00000000000E+00  0.49332467992E+01  0.49332467992E+01  0.00000000000E+00 0. -1.
         21   -1    0    0  501  502 -0.00000000000E+00 -0.00000000000E+00 -0.79182132153E+03  0.79182132153E+03  0.00000000000E+00 0. -1.
         25    1    1    2    0    0  0.00000000000E+00  0.00000000000E+00 -0.78688807473E+03  0.79675456833E+03  0.12500000000E+03 0.  0.
<mgrwt>
<rscale>  0 0.12500000E+03</rscale>
<asrwt>0</asrwt>
<pdfrwt beam="1">  1       21 0.75896155E-03 0.12500000E+03</pdfrwt>
<pdfrwt beam="2">  1       21 0.12181858E+00 0.12500000E+03</pdfrwt>
<totfact> 0.29470646E+06</totfact>
</mgrwt>
</event>
<event>
 3    1  0.1615911E-001  0.1250000E+03  0.7546771E-02  0.1235069E+00
         21   -1    0    0  502  501  0.00000000000E+00  0.00000000000E+00  0.85437648139E+01  0.85437648139E+01  0.00000000000E+00 0.  1.
         21   -1    0    0  501  502 -0.00000000000E+00 -0.00000000000E+00 -0.45720476688E+03  0.45720476688E+03  0.00000000000E+00 0.  1.
         25    1    1    2    0    0  0.00000000000E+00  0.00000000000E+00 -0.44866100206E+03  0.46574853169E+03  0.12500000000E+03 0.  0.
<mgrwt>
<rscale>  0 0.12500000E+03</rscale>
<asrwt>0</asrwt>
<pdfrwt beam="1">  1       21 0.13144252E-02 0.12500000E+03</pdfrwt>
<pdfrwt beam="2">  1       21 0.70339204E-01 0.12500000E+03</pdfrwt>
<totfact> 0.43964662E+06</totfact>
</mgrwt>
</event>
<event>
 3    1  0.1615911E-001  0.1250000E+03  0.7546771E-02  0.1235069E+00
         21   -1    0    0  502  501  0.00000000000E+00  0.00000000000E+00  0.73829382401E+01  0.73829382401E+01  0.00000000000E+00 0. -1.
         21   -1    0    0  501  502 -0.00000000000E+00 -0.00000000000E+00 -0.52909151789E+03  0.52909151789E+03  0.00000000000E+00 0. -1.
         25    1    1    2    0    0  0.00000000000E+00  0.00000000000E+00 -0.52170857965E+03  0.53647445614E+03  0.12500000000E+03 0.  0.
<mgrwt>
<rscale>  0 0.12500000E+03</rscale>
<asrwt>0</asrwt>
<pdfrwt beam="1">  1       21 0.11358367E-02 0.12500000E+03</pdfrwt>
<pdfrwt beam="2">  1       21 0.81398688E-01 0.12500000E+03</pdfrwt>
<totfact> 0.40132635E+06</totfact>
</mgrwt>
</event>
<event>
 3    1  0.1615911E-001  0.1250000E+03  0.7546771E-02  0.1235069E+00
         21   -1    0    0  502  501  0.00000000000E+00  0.00000000000E+00  0.74590265029E+01  0.74590265029E+01  0.00000000000E+00 0.  1.
         21   -1    0    0  501  502 -0.00000000000E+00 -0.00000000000E+00 -0.52369434517E+03  0.52369434517E+03  0.00000000000E+00 0.  1.
         25    1    1    2    0    0  0.00000000000E+00  0.00000000000E+00 -0.51623531866E+03  0.53115337167E+03  0.12500000000E+03 0.  0.
<mgrwt>
<rscale>  0 0.12500000E+03</rscale>
<asrwt>0</asrwt>
<pdfrwt beam="1">  1       21 0.11475424E-02 0.12500000E+03</pdfrwt>
<pdfrwt beam="2">  1       21 0.80568371E-01 0.12500000E+03</pdfrwt>
<totfact> 0.40403426E+06</totfact>
</mgrwt>
</event>
<event>
 3    1  0.1615911E-001  0.1250000E+03  0.7546771E-02  0.1235069E+00
         21   -1    0    0  502  501  0.00000000000E+00  0.00000000000E+00  0.50408107421E+02  0.50408107421E+02  0.00000000000E+00 0.  1.
         21   -1    0    0  501  502 -0.00000000000E+00 -0.00000000000E+00 -0.77492494756E+02  0.77492494756E+02  0.00000000000E+00 0.  1.
         25    1    1    2    0    0  0.00000000000E+00  0.00000000000E+00 -0.27084387334E+02  0.12790060218E+03  0.12500000000E+03 0.  0.
<mgrwt>
<rscale>  0 0.12500000E+03</rscale>
<asrwt>0</asrwt>
<pdfrwt beam="1">  1       21 0.77550935E-02 0.12500000E+03</pdfrwt>
<pdfrwt beam="2">  1       21 0.11921922E-01 0.12500000E+03</pdfrwt>
<totfact> 0.73646991E+06</totfact>
</mgrwt>
</event>
<event>
 3    1  0.1615911E-001  0.1250000E+03  0.7546771E-02  0.1235069E+00
         21   -1    0    0  502  501  0.00000000000E+00  0.00000000000E+00  0.32500429567E+03  0.32500429567E+03  0.00000000000E+00 0. -1.
         21   -1    0    0  501  502 -0.00000000000E+00 -0.00000000000E+00 -0.12019071908E+02  0.12019071908E+02  0.00000000000E+00 0. -1.
         25    1    1    2    0    0  0.00000000000E+00  0.00000000000E+00  0.31298522376E+03  0.33702336757E+03  0.12500000000E+03 0.  0.
<mgrwt>
<rscale>  0 0.12500000E+03</rscale>
<asrwt>0</asrwt>
<pdfrwt beam="1">  1       21 0.50000654E-01 0.12500000E+03</pdfrwt>
<pdfrwt beam="2">  1       21 0.18490882E-02 0.12500000E+03</pdfrwt>
<totfact> 0.52511312E+06</totfact>
</mgrwt>
</event>
<event>
 3    1  0.1615911E-001  0.1250000E+03  0.7546771E-02  0.1235069E+00
         21   -1    0    0  502  501  0.00000000000E+00  0.00000000000E+00  0.24662922079E+03  0.24662922079E+03  0.00000000000E+00 0. -1.
         21   -1    0    0  501  502 -0.00000000000E+00 -0.00000000000E+00 -0.15838553062E+02  0.15838553062E+02  0.00000000000E+00 0. -1.
         25    1    1    2    0    0  0.00000000000E+00  0.00000000000E+00  0.23079066772E+03  0.26246777385E+03  0.12500000000E+03 0.  0.
<mgrwt>
<rscale>  0 0.12500000E+03</rscale>
<asrwt>0</asrwt>
<pdfrwt beam="1">  1       21 0.37942954E-01 0.12500000E+03</pdfrwt>
<pdfrwt beam="2">  1       21 0.24367006E-02 0.12500000E+03</pdfrwt>
<totfact> 0.58723823E+06</totfact>
</mgrwt>
</event>
<event>
 3    1  0.1615911E-001  0.1250000E+03  0.7546771E-02  0.1235069E+00
         21   -1    0    0  502  501  0.00000000000E+00  0.00000000000E+00  0.12523973333E+03  0.12523973333E+03  0.00000000000E+00 0. -1.
         21   -1    0    0  501  502 -0.00000000000E+00 -0.00000000000E+00 -0.31190181393E+02  0.31190181393E+02  0.00000000000E+00 0. -1.
         25    1    1    2    0    0  0.00000000000E+00  0.00000000000E+00  0.94049551934E+02  0.15642991472E+03  0.12500000000E+03 0.  0.
<mgrwt>
<rscale>  0 0.12500000E+03</rscale>
<asrwt>0</asrwt>
<pdfrwt beam="1">  1       21 0.19267651E-01 0.12500000E+03</pdfrwt>
<pdfrwt beam="2">  1       21 0.47984895E-02 0.12500000E+03</pdfrwt>
<totfact> 0.69958374E+06</totfact>
</mgrwt>
</event>
<event>
 3    1  0.1615911E-001  0.1250000E+03  0.7546771E-02  0.1235069E+00
         21   -1    0    0  502  501  0.00000000000E+00  0.00000000000E+00  0.21889048258E+03  0.21889048258E+03  0.00000000000E+00 0. -1.
         21   -1    0    0  501  502 -0.00000000000E+00 -0.00000000000E+00 -0.17845682252E+02  0.17845682252E+02  0.00000000000E+00 0. -1.
         25    1    1    2    0    0  0.00000000000E+00  0.00000000000E+00  0.20104480033E+03  0.23673616483E+03  0.12500000000E+03 0.  0.
<mgrwt>
<rscale>  0 0.12500000E+03</rscale>
<asrwt>0</asrwt>
<pdfrwt beam="1">  1       21 0.33675457E-01 0.12500000E+03</pdfrwt>
<pdfrwt beam="2">  1       21 0.27454897E-02 0.12500000E+03</pdfrwt>
<totfact> 0.61149935E+06</totfact>
</mgrwt>
</event>
<event>
 3    1  0.1615911E-001  0.1250000E+03  0.7546771E-02  0.1235069E+00
         21   -1    0    0  502  501  0.00000000000E+00  0.00000000000E+00  0.85828180116E+03  0.85828180116E+03  0.00000000000E+00 0.  1.
         21   -1    0    0  501  502 -0.00000000000E+00 -0.00000000000E+00 -0.45512441190E+01  0.45512441190E+01  0.00000000000E+00 0.  1.
         25    1    1    2    0    0  0.00000000000E+00  0.00000000000E+00  0.85373055704E+03  0.86283304528E+03  0.12500000000E+03 0.  0.
<mgrwt>
<rscale>  0 0.12500000E+03</rscale>
<asrwt>0</asrwt>
<pdfrwt beam="1">  1       21 0.13204322E+00 0.12500000E+03</pdfrwt>
<pdfrwt beam="2">  1       21 0.70019209E-03 0.12500000E+03</pdfrwt>
<totfact> 0.27383683E+06</totfact>
</mgrwt>
</event>
<event>
 3    1  0.1615911E-001  0.1250000E+03  0.7546771E-02  0.1235069E+00
         21   -1    0    0  502  501  0.00000000000E+00  0.00000000000E+00  0.75721375517E+02  0.75721375517E+02  0.00000000000E+00 0.  1.
         21   -1    0    0  501  502 -0.00000000000E+00 -0.00000000000E+00 -0.51587150568E+02  0.51587150568E+02  0.00000000000E+00 0.  1.
         25    1    1    2    0    0  0.00000000000E+00  0.00000000000E+00  0.24134224949E+02  0.12730852608E+03  0.12500000000E+03 0.  0.
<mgrwt>
<rscale>  0 0.12500000E+03</rscale>
<asrwt>0</asrwt>
<pdfrwt beam="1">  1       21 0.11649442E-01 0.12500000E+03</pdfrwt>
<pdfrwt beam="2">  1       21 0.79364847E-02 0.12500000E+03</pdfrwt>
<totfact> 0.73727194E+06</totfact>
</mgrwt>
</event>
<event>
 3    1  0.1615911E-001  0.1250000E+03  0.7546771E-02  0.1235069E+00
         21   -1    0    0  502  501  0.00000000000E+00  0.00000000000E+00  0.22084287627E+02  0.22084287627E+02  0.00000000000E+00 0.  1.
         21   -1    0    0  501  502 -0.00000000000E+00 -0.00000000000E+00 -0.17687914892E+03  0.17687914892E+03  0.00000000000E+00 0.  1.
         25    1    1    2    0    0  0.00000000000E+00  0.00000000000E+00 -0.15479486130E+03  0.19896343655E+03  0.12500000000E+03 0.  0.
<mgrwt>
<rscale>  0 0.12500000E+03</rscale>
<asrwt>0</asrwt>
<pdfrwt beam="1">  1       21 0.33975828E-02 0.12500000E+03</pdfrwt>
<pdfrwt beam="2">  1       21 0.27212176E-01 0.12500000E+03</pdfrwt>
<totfact> 0.65039744E+06</totfact>
</mgrwt>
</event>
<event>
 3    1  0.1615911E-001  0.1250000E+03  0.7546771E-02  0.1235069E+00
         21   -1    0    0  502  501  0.00000000000E+00  0.00000000000E+00  0.21143783168E+03  0.21143783168E+03  0.00000000000E+00 0.  1.
         21   -1    0    0  501  502 -0.00000000000E+00 -0.00000000000E+00 -0.18474697593E+02  0.18474697593E+02  0.00000000000E+00 0.  1.
         25    1    1    2    0    0  0.00000000000E+00  0.00000000000E+00  0.19296313409E+03  0.22991252928E+03  0.12500000000E+03 0.  0.
<mgrwt>
<rscale>  0 0.12500000E+03</rscale>
<asrwt>0</asrwt>
<pdfrwt beam="1">  1       21 0.32528895E-01 0.12500000E+03</pdfrwt>
<pdfrwt beam="2">  1       21 0.28422613E-02 0.12500000E+03</pdfrwt>
<totfact> 0.61822686E+06</totfact>
</mgrwt>
</event>
<event>
 3    1  0.1615911E-001  0.1250000E+03  0.7546771E-02  0.1235069E+00
         21   -1    0    0  502  501  0.00000000000E+00  0.00000000000E+00  0.41882118015E+02  0.41882118015E+02  0.00000000000E+00 0. -1.
         21   -1    0    0  501  502 -0.00000000000E+00 -0.00000000000E+00 -0.93267728212E+02  0.93267728212E+02  0.00000000000E+00 0. -1.
         25    1    1    2    0    0  0.00000000000E+00  0.00000000000E+00 -0.51385610196E+02  0.13514984623E+03  0.12500000000E+03 0.  0.
<mgrwt>
<rscale>  0 0.12500000E+03</rscale>
<asrwt>0</asrwt>
<pdfrwt beam="1">  1       21 0.64434028E-02 0.12500000E+03</pdfrwt>
<pdfrwt beam="2">  1       21 0.14348881E-01 0.12500000E+03</pdfrwt>
<totfact> 0.72676637E+06</totfact>
</mgrwt>
</event>
<event>
 3    1  0.1615911E-001  0.1250000E+03  0.7546771E-02  0.1235069E+00
         21   -1    0    0  502  501  0.00000000000E+00  0.00000000000E+00  0.24618647660E+02  0.24618647660E+02  0.00000000000E+00 0.  1.
         21   -1    0    0  501  502 -0.00000000000E+00 -0.00000000000E+00 -0.15867037272E+03  0.15867037272E+03  0.00000000000E+00 0.  1.
         25    1    1    2    0    0  0.00000000000E+00  0.00000000000E+00 -0.13405172506E+03  0.18328902038E+03  0.12500000000E+03 0.  0.
<mgrwt>
<rscale>  0 0.12500000E+03</rscale>
<asrwt>0</asrwt>
<pdfrwt beam="1">  1       21 0.37874842E-02 0.12500000E+03</pdfrwt>
<pdfrwt beam="2">  1       21 0.24410827E-01 0.12500000E+03</pdfrwt>
<totfact> 0.66776219E+06</totfact>
</mgrwt>
</event>
<event>
 3    1  0.1615911E-001  0.1250000E+03  0.7546771E-02  0.1235069E+00
         21   -1    0    0  502  501  0.00000000000E+00  0.00000000000E+00  0.54010269855E+01  0.54010269855E+01  0.00000000000E+00 0.  1.
         21   -1    0    0  501  502 -0.00000000000E+00 -0.00000000000E+00 -0.72324208165E+03  0.72324208165E+03  0.00000000000E+00 0.  1.
         25    1    1    2    0    0  0.00000000000E+00  0.00000000000E+00 -0.71784105466E+03  0.72864310863E+03  0.12500000000E+03 0.  0.
<mgrwt>
<rscale>  0 0.12500000E+03</rscale>
<asrwt>0</asrwt>
<pdfrwt beam="1">  1       21 0.83092705E-03 0.12500000E+03</pdfrwt>
<pdfrwt beam="2">  1       21 0.11126804E+00 0.12500000E+03</pdfrwt>
<totfact> 0.31834657E+06</totfact>
</mgrwt>
</event>
<event>
 3    1  0.1615911E-001  0.1250000E+03  0.7546771E-02  0.1235069E+00
         21   -1    0    0  502  501  0.00000000000E+00  0.00000000000E+00  0.15810573118E+02  0.15810573118E+02  0.00000000000E+00 0.  1.
         21   -1    0    0  501  502 -0.00000000000E+00 -0.00000000000E+00 -0.24706568009E+03  0.24706568009E+03  0.00000000000E+00 0.  1.
         25    1    1    2    0    0  0.00000000000E+00  0.00000000000E+00 -0.23125510698E+03  0.26287625321E+03  0.12500000000E+03 0.  0.
<mgrwt>
<rscale>  0 0.12500000E+03</rscale>
<asrwt>0</asrwt>
<pdfrwt beam="1">  1       21 0.24323959E-02 0.12500000E+03</pdfrwt>
<pdfrwt beam="2">  1       21 0.38010103E-01 0.12500000E+03</pdfrwt>
<totfact> 0.58686646E+06</totfact>
</mgrwt>
</event>
<event>
 3    1  0.1615911E-001  0.1250000E+03  0.7546771E-02  0.1235069E+00
         21   -1    0    0  502  501  0.00000000000E+00  0.00000000000E+00  0.65231427772E+02  0.65231427772E+02  0.00000000000E+00 0.  1.
         21   -1    0    0  501  502 -0.00000000000E+00 -0.00000000000E+00 -0.59882944976E+02  0.59882944976E+02  0.00000000000E+00 0.  1.
         25    1    1    2    0    0  0.00000000000E+00  0.00000000000E+00  0.53484827961E+01  0.12511437275E+03  0.12500000000E+03 0.  0.
<mgrwt>
<rscale>  0 0.12500000E+03</rscale>
<asrwt>0</asrwt>
<pdfrwt beam="1">  1       21 0.10035604E-01 0.12500000E+03</pdfrwt>
<pdfrwt beam="2">  1       21 0.92127608E-02 0.12500000E+03</pdfrwt>
<totfact> 0.74028134E+06</totfact>
</mgrwt>
</event>
<event>
 3    1  0.1615911E-001  0.1250000E+03  0.7546771E-02  0.1235069E+00
         21   -1    0    0  502  501  0.00000000000E+00  0.00000000000E+00  0.42818804784E+02  0.42818804784E+02  0.00000000000E+00 0.  1.
         21   -1    0    0  501  502 -0.00000000000E+00 -0.00000000000E+00 -0.91227441300E+02  0.91227441300E+02  0.00000000000E+00 0.  1.
         25    1    1    2    0    0  0.00000000000E+00  0.00000000000E+00 -0.48408636516E+02  0.13404624608E+03  0.12500000000E+03 0.  0.
<mgrwt>
<rscale>  0 0.12500000E+03</rscale>
<asrwt>0</asrwt>
<pdfrwt beam="1">  1       21 0.65875084E-02 0.12500000E+03</pdfrwt>
<pdfrwt beam="2">  1       21 0.14034991E-01 0.12500000E+03</pdfrwt>
<totfact> 0.72823005E+06</totfact>
</mgrwt>
</event>
<event>
 3    1  0.1615911E-001  0.1250000E+03  0.7546771E-02  0.1235069E+00
         21   -1    0    0  502  501  0.00000000000E+00  0.00000000000E+00  0.39362902421E+02  0.39362902421E+02  0.00000000000E+00 0. -1.
         21   -1    0    0  501  502 -0.00000000000E+00 -0.00000000000E+00 -0.99236838743E+02  0.99236838743E+02  0.00000000000E+00 0. -1.
         25    1    1    2    0    0  0.00000000000E+00  0.00000000000E+00 -0.59873936322E+02  0.13859974116E+03  0.12500000000E+03 0.  0.
<mgrwt>
<rscale>  0 0.12500000E+03</rscale>
<asrwt>0</asrwt>
<pdfrwt beam="1">  1       21 0.60558312E-02 0.12500000E+03</pdfrwt>
<pdfrwt beam="2">  1       21 0.15267206E-01 0.12500000E+03</pdfrwt>
<totfact> 0.72222640E+06</totfact>
</mgrwt>
</event>
<event>
 3    1  0.1615911E-001  0.1250000E+03  0.7546771E-02  0.1235069E+00
         21   -1    0    0  502  501  0.00000000000E+00  0.00000000000E+00  0.35468274260E+02  0.35468274260E+02  0.00000000000E+00 0. -1.
         21   -1    0    0  501  502 -0.00000000000E+00 -0.00000000000E+00 -0.11013363581E+03  0.11013363581E+03  0.00000000000E+00 0. -1.
         25    1    1    2    0    0  0.00000000000E+00  0.00000000000E+00 -0.74665361546E+02  0.14560191007E+03  0.12500000000E+03 0.  0.
<mgrwt>
<rscale>  0 0.12500000E+03</rscale>
<asrwt>0</asrwt>
<pdfrwt beam="1">  1       21 0.54566576E-02 0.12500000E+03</pdfrwt>
<pdfrwt beam="2">  1       21 0.16943636E-01 0.12500000E+03</pdfrwt>
<totfact> 0.71316158E+06</totfact>
</mgrwt>
</event>
<event>
 3    1  0.1615911E-001  0.1250000E+03  0.7546771E-02  0.1235069E+00
         21   -1    0    0  502  501  0.00000000000E+00  0.00000000000E+00  0.12317188983E+02  0.12317188983E+02  0.00000000000E+00 0. -1.
         21   -1    0    0  501  502 -0.00000000000E+00 -0.00000000000E+00 -0.31713810720E+03  0.31713810720E+03  0.00000000000E+00 0. -1.
         25    1    1    2    0    0  0.00000000000E+00  0.00000000000E+00 -0.30482091822E+03  0.32945529618E+03  0.12500000000E+03 0.  0.
<mgrwt>
<rscale>  0 0.12500000E+03</rscale>
<asrwt>0</asrwt>
<pdfrwt beam="1">  1       21 0.18949522E-02 0.12500000E+03</pdfrwt>
<pdfrwt beam="2">  1       21 0.48790477E-01 0.12500000E+03</pdfrwt>
<totfact> 0.53092463E+06</totfact>
</mgrwt>
</event>
<event>
 3    1  0.1615911E-001  0.1250000E+03  0.7546771E-02  0.1235069E+00
         21   -1    0    0  502  501  0.00000000000E+00  0.00000000000E+00  0.25739654631E+03  0.25739654631E+03  0.00000000000E+00 0.  1.
         21   -1    0    0  501  502 -0.00000000000E+00 -0.00000000000E+00 -0.15176000052E+02  0.15176000052E+02  0.00000000000E+00 0.  1.
         25    1    1    2    0    0  0.00000000000E+00  0.00000000000E+00  0.24222054625E+03  0.27257254636E+03  0.12500000000E+03 0.  0.
<mgrwt>
<rscale>  0 0.12500000E+03</rscale>
<asrwt>0</asrwt>
<pdfrwt beam="1">  1       21 0.39599465E-01 0.12500000E+03</pdfrwt>
<pdfrwt beam="2">  1       21 0.23347694E-02 0.12500000E+03</pdfrwt>
<totfact> 0.57815406E+06</totfact>
</mgrwt>
</event>
<event>
 3    1  0.1615911E-001  0.1250000E+03  0.7546771E-02  0.1235069E+00
         21   -1    0    0  502  501  0.00000000000E+00  0.00000000000E+00  0.76913002156E+01  0.76913002156E+01  0.00000000000E+00 0.  1.
         21   -1    0    0  501  502 -0.00000000000E+00 -0.00000000000E+00 -0.50787901792E+03  0.50787901792E+03  0.00000000000E+00 0.  1.
         25    1    1    2    0    0  0.00000000000E+00  0.00000000000E+00 -0.50018771770E+03  0.51557031813E+03  0.12500000000E+03 0.  0.
<mgrwt>
<rscale>  0 0.12500000E+03</rscale>
<asrwt>0</asrwt>
<pdfrwt beam="1">  1       21 0.11832766E-02 0.12500000E+03</pdfrwt>
<pdfrwt beam="2">  1       21 0.78135256E-01 0.12500000E+03</pdfrwt>
<totfact> 0.41212046E+06</totfact>
</mgrwt>
</event>
<event>
 3    1  0.1615911E-001  0.1250000E+03  0.7546771E-02  0.1235069E+00
         21   -1    0    0  502  501  0.00000000000E+00  0.00000000000E+00  0.90704349026E+02  0.90704349026E+02  0.00000000000E+00 0.  1.
         21   -1    0    0  501  502 -0.00000000000E+00 -0.00000000000E+00 -0.43065740970E+02  0.43065740970E+02  0.00000000000E+00 0.  1.
         25    1    1    2    0    0  0.00000000000E+00  0.00000000000E+00  0.47638608056E+02  0.13377009000E+03  0.12500000000E+03 0.  0.
<mgrwt>
<rscale>  0 0.12500000E+03</rscale>
<asrwt>0</asrwt>
<pdfrwt beam="1">  1       21 0.13954515E-01 0.12500000E+03</pdfrwt>
<pdfrwt beam="2">  1       21 0.66254986E-02 0.12500000E+03</pdfrwt>
<totfact> 0.72859737E+06</totfact>
</mgrwt>
</event>
<event>
 3    1  0.1615911E-001  0.1250000E+03  0.7546771E-02  0.1235069E+00
         21   -1    0    0  502  501  0.00000000000E+00  0.00000000000E+00  0.30645510666E+03  0.30645510666E+03  0.00000000000E+00 0.  1.
         21   -1    0    0  501  502 -0.00000000000E+00 -0.00000000000E+00 -0.12746565207E+02  0.12746565207E+02  0.00000000000E+00 0.  1.
         25    1    1    2    0    0  0.00000000000E+00  0.00000000000E+00  0.29370854146E+03  0.31920167187E+03  0.12500000000E+03 0.  0.
<mgrwt>
<rscale>  0 0.12500000E+03</rscale>
<asrwt>0</asrwt>
<pdfrwt beam="1">  1       21 0.47146934E-01 0.12500000E+03</pdfrwt>
<pdfrwt beam="2">  1       21 0.19610103E-02 0.12500000E+03</pdfrwt>
<totfact> 0.53896669E+06</totfact>
</mgrwt>
</event>
<event>
 3    1  0.1615911E-001  0.1250000E+03  0.7546771E-02  0.1235069E+00
         21   -1    0    0  502  501  0.00000000000E+00  0.00000000000E+00  0.50877317153E+01  0.50877317153E+01  0.00000000000E+00 0. -1.
         21   -1    0    0  501  502 -0.00000000000E+00 -0.00000000000E+00 -0.76777829857E+03  0.76777829857E+03  0.00000000000E+00 0. -1.
         25    1    1    2    0    0  0.00000000000E+00  0.00000000000E+00 -0.76269056686E+03  0.77286603029E+03  0.12500000000E+03 0.  0.
<mgrwt>
<rscale>  0 0.12500000E+03</rscale>
<asrwt>0</asrwt>
<pdfrwt beam="1">  1       21 0.78272810E-03 0.12500000E+03</pdfrwt>
<pdfrwt beam="2">  1       21 0.11811972E+00 0.12500000E+03</pdfrwt>
<totfact> 0.30280443E+06</totfact>
</mgrwt>
</event>
<event>
 3    1  0.1615911E-001  0.1250000E+03  0.7546771E-02  0.1235069E+00
         21   -1    0    0  502  501  0.00000000000E+00  0.00000000000E+00  0.20803678823E+02  0.20803678823E+02  0.00000000000E+00 0.  1.
         21   -1    0    0  501  502 -0.00000000000E+00 -0.00000000000E+00 -0.18776727103E+03  0.18776727103E+03  0.00000000000E+00 0.  1.
         25    1    1    2    0    0  0.00000000000E+00  0.00000000000E+00 -0.16696359220E+03  0.20857094985E+03  0.12500000000E+03 0.  0.
<mgrwt>
<rscale>  0 0.12500000E+03</rscale>
<asrwt>0</asrwt>
<pdfrwt beam="1">  1       21 0.32005660E-02 0.12500000E+03</pdfrwt>
<pdfrwt beam="2">  1       21 0.28887273E-01 0.12500000E+03</pdfrwt>
<totfact> 0.64010202E+06</totfact>
</mgrwt>
</event>
<event>
 3    1  0.1615911E-001  0.1250000E+03  0.7546771E-02  0.1235069E+00
         21   -1    0    0  502  501  0.00000000000E+00  0.00000000000E+00  0.98342308075E+01  0.98342308075E+01  0.00000000000E+00 0.  1.
         21   -1    0    0  501  502 -0.00000000000E+00 -0.00000000000E+00 -0.39720950997E+03  0.39720950997E+03  0.00000000000E+00 0.  1.
         25    1    1    2    0    0  0.00000000000E+00  0.00000000000E+00 -0.38737527916E+03  0.40704374078E+03  0.12500000000E+03 0.  0.
<mgrwt>
<rscale>  0 0.12500000E+03</rscale>
<asrwt>0</asrwt>
<pdfrwt beam="1">  1       21 0.15129584E-02 0.12500000E+03</pdfrwt>
<pdfrwt beam="2">  1       21 0.61109164E-01 0.12500000E+03</pdfrwt>
<totfact> 0.47577626E+06</totfact>
</mgrwt>
</event>
<event>
 3    1  0.1615911E-001  0.1250000E+03  0.7546771E-02  0.1235069E+00
         21   -1    0    0  502  501  0.00000000000E+00  0.00000000000E+00  0.19653220890E+01  0.19653220890E+01  0.00000000000E+00 0.  1.
         21   -1    0    0  501  502 -0.00000000000E+00 -0.00000000000E+00 -0.19875876946E+04  0.19875876946E+04  0.00000000000E+00 0.  1.
         25    1    1    2    0    0  0.00000000000E+00  0.00000000000E+00 -0.19856223725E+04  0.19895530167E+04  0.12500000000E+03 0.  0.
<mgrwt>
<rscale>  0 0.12500000E+03</rscale>
<asrwt>0</asrwt>
<pdfrwt beam="1">  1       21 0.30235749E-03 0.12500000E+03</pdfrwt>
<pdfrwt beam="2">  1       21 0.30578247E+00 0.12500000E+03</pdfrwt>
<totfact> 0.80502982E+05</totfact>
</mgrwt>
</event>
<event>
 3    1  0.1615911E-001  0.1250000E+03  0.7546771E-02  0.1235069E+00
         21   -1    0    0  502  501  0.00000000000E+00  0.00000000000E+00  0.30811095500E+02  0.30811095500E+02  0.00000000000E+00 0. -1.
         21   -1    0    0  501  502 -0.00000000000E+00 -0.00000000000E+00 -0.12678062681E+03  0.12678062681E+03  0.00000000000E+00 0. -1.
         25    1    1    2    0    0  0.00000000000E+00  0.00000000000E+00 -0.95969531305E+02  0.15759172230E+03  0.12500000000E+03 0.  0.
<mgrwt>
<rscale>  0 0.12500000E+03</rscale>
<asrwt>0</asrwt>
<pdfrwt beam="1">  1       21 0.47401684E-02 0.12500000E+03</pdfrwt>
<pdfrwt beam="2">  1       21 0.19504712E-01 0.12500000E+03</pdfrwt>
<totfact> 0.69814965E+06</totfact>
</mgrwt>
</event>
<event>
 3    1  0.1615911E-001  0.1250000E+03  0.7546771E-02  0.1235069E+00
         21   -1    0    0  502  501  0.00000000000E+00  0.00000000000E+00  0.69673188855E+02  0.69673188855E+02  0.00000000000E+00 0.  1.
         21   -1    0    0  501  502 -0.00000000000E+00 -0.00000000000E+00 -0.56065325331E+02  0.56065325331E+02  0.00000000000E+00 0.  1.
         25    1    1    2    0    0  0.00000000000E+00  0.00000000000E+00  0.13607863524E+02  0.12573851419E+03  0.12500000000E+03 0.  0.
<mgrwt>
<rscale>  0 0.12500000E+03</rscale>
<asrwt>0</asrwt>
<pdfrwt beam="1">  1       21 0.10718952E-01 0.12500000E+03</pdfrwt>
<pdfrwt beam="2">  1       21 0.86254347E-02 0.12500000E+03</pdfrwt>
<totfact> 0.73942193E+06</totfact>
</mgrwt>
</event>
<event>
 3    1  0.1615911E-001  0.1250000E+03  0.7546771E-02  0.1235069E+00
         21   -1    0    0  502  501  0.00000000000E+00  0.00000000000E+00  0.24815624024E+03  0.24815624024E+03  0.00000000000E+00 0. -1.
         21   -1    0    0  501  502 -0.00000000000E+00 -0.00000000000E+00 -0.15741091162E+02  0.15741091162E+02  0.00000000000E+00 0. -1.
         25    1    1    2    0    0  0.00000000000E+00  0.00000000000E+00  0.23241514908E+03  0.26389733140E+03  0.12500000000E+03 0.  0.
<mgrwt>
<rscale>  0 0.12500000E+03</rscale>
<asrwt>0</asrwt>
<pdfrwt beam="1">  1       21 0.38177880E-01 0.12500000E+03</pdfrwt>
<pdfrwt beam="2">  1       21 0.24217065E-02 0.12500000E+03</pdfrwt>
<totfact> 0.58593893E+06</totfact>
</mgrwt>
</event>
<event>
 3    1  0.1615911E-001  0.1250000E+03  0.7546771E-02  0.1235069E+00
         21   -1    0    0  502  501  0.00000000000E+00  0.00000000000E+00  0.13766896027E+03  0.13766896027E+03  0.00000000000E+00 0. -1.
         21   -1    0    0  501  502 -0.00000000000E+00 -0.00000000000E+00 -0.28374224607E+02  0.28374224607E+02  0.00000000000E+00 0. -1.
         25    1    1    2    0    0  0.00000000000E+00  0.00000000000E+00  0.10929473566E+03  0.16604318487E+03  0.12500000000E+03 0.  0.
<mgrwt>
<rscale>  0 0.12500000E+03</rscale>
<asrwt>0</asrwt>
<pdfrwt beam="1">  1       21 0.21179840E-01 0.12500000E+03</pdfrwt>
<pdfrwt beam="2">  1       21 0.43652654E-02 0.12500000E+03</pdfrwt>
<totfact> 0.68788520E+06</totfact>
</mgrwt>
</event>
<event>
 3    1  0.1615911E-001  0.1250000E+03  0.7546771E-02  0.1235069E+00
         21   -1    0    0  502  501  0.00000000000E+00  0.00000000000E+00  0.25254184613E+02  0.25254184613E+02  0.00000000000E+00 0. -1.
         21   -1    0    0  501  502 -0.00000000000E+00 -0.00000000000E+00 -0.15467733605E+03  0.15467733605E+03  0.00000000000E+00 0. -1.
         25    1    1    2    0    0  0.00000000000E+00  0.00000000000E+00 -0.12942315143E+03  0.17993152066E+03  0.12500000000E+03 0.  0.
<mgrwt>
<rscale>  0 0.12500000E+03</rscale>
<asrwt>0</asrwt>
<pdfrwt beam="1">  1       21 0.38852591E-02 0.12500000E+03</pdfrwt>
<pdfrwt beam="2">  1       21 0.23796514E-01 0.12500000E+03</pdfrwt>
<totfact> 0.67159393E+06</totfact>
</mgrwt>
</event>
<event>
 3    1  0.1615911E-001  0.1250000E+03  0.7546771E-02  0.1235069E+00
         21   -1    0    0  502  501  0.00000000000E+00  0.00000000000E+00  0.57982942971E+03  0.57982942971E+03  0.00000000000E+00 0. -1.
         21   -1    0    0  501  502 -0.00000000000E+00 -0.00000000000E+00 -0.67368950243E+01  0.67368950243E+01  0.00000000000E+00 0. -1.
         25    1    1    2    0    0  0.00000000000E+00  0.00000000000E+00  0.57309253469E+03  0.58656632474E+03  0.12500000000E+03 0.  0.
<mgrwt>
<rscale>  0 0.12500000E+03</rscale>
<asrwt>0</asrwt>
<pdfrwt beam="1">  1       21 0.89204488E-01 0.12500000E+03</pdfrwt>
<pdfrwt beam="2">  1       21 0.10364458E-02 0.12500000E+03</pdfrwt>
<totfact> 0.37707296E+06</totfact>
</mgrwt>
</event>
<event>
 3    1  0.1615911E-001  0.1250000E+03  0.7546771E-02  0.1235069E+00
         21   -1    0    0  502  501  0.00000000000E+00  0.00000000000E+00  0.69713491204E+03  0.69713491204E+03  0.00000000000E+00 0.  1.
         21   -1    0    0  501  502 -0.00000000000E+00 -0.00000000000E+00 -0.56032913178E+01  0.56032913178E+01  0.00000000000E+00 0.  1.
         25    1    1    2    0    0  0.00000000000E+00  0.00000000000E+00  0.69153162072E+03  0.70273820336E+03  0.12500000000E+03 0.  0.
<mgrwt>
<rscale>  0 0.12500000E+03</rscale>
<asrwt>0</asrwt>
<pdfrwt beam="1">  1       21 0.10725146E+00 0.12500000E+03</pdfrwt>
<pdfrwt beam="2">  1       21 0.86204537E-03 0.12500000E+03</pdfrwt>
<totfact> 0.32804856E+06</totfact>
</mgrwt>
</event>
<event>
 3    1  0.1615911E-001  0.1250000E+03  0.7546771E-02  0.1235069E+00
         21   -1    0    0  502  501  0.00000000000E+00  0.00000000000E+00  0.14375534978E+03  0.14375534978E+03  0.00000000000E+00 0.  1.
         21   -1    0    0  501  502 -0.00000000000E+00 -0.00000000000E+00 -0.27172901781E+02  0.27172901781E+02  0.00000000000E+00 0.  1.
         25    1    1    2    0    0  0.00000000000E+00  0.00000000000E+00  0.11658244800E+03  0.17092825156E+03  0.12500000000E+03 0.  0.
<mgrwt>
<rscale>  0 0.12500000E+03</rscale>
<asrwt>0</asrwt>
<pdfrwt beam="1">  1       21 0.22116207E-01 0.12500000E+03</pdfrwt>
<pdfrwt beam="2">  1       21 0.41804465E-02 0.12500000E+03</pdfrwt>
<totfact> 0.68207767E+06</totfact>
</mgrwt>
</event>
<event>
 3    1  0.1615911E-001  0.1250000E+03  0.7546771E-02  0.1235069E+00
         21   -1    0    0  502  501  0.00000000000E+00  0.00000000000E+00  0.85861982470E+01  0.85861982470E+01  0.00000000000E+00 0. -1.
         21   -1    0    0  501  502 -0.00000000000E+00 -0.00000000000E+00 -0.45494523742E+03  0.45494523742E+03  0.00000000000E+00 0. -1.
         25    1    1    2    0    0  0.00000000000E+00  0.00000000000E+00 -0.44635903917E+03  0.46353143566E+03  0.12500000000E+03 0.  0.
<mgrwt>
<rscale>  0 0.12500000E+03</rscale>
<asrwt>0</asrwt>
<pdfrwt beam="1">  1       21 0.13209534E-02 0.12500000E+03</pdfrwt>
<pdfrwt beam="2">  1       21 0.69991585E-01 0.12500000E+03</pdfrwt>
<totfact> 0.44093491E+06</totfact>
</mgrwt>
</event>
<event>
 3    1  0.1615911E-001  0.1250000E+03  0.7546771E-02  0.1235069E+00
         21   -1    0    0  502  501  0.00000000000E+00  0.00000000000E+00  0.22925961972E+04  0.22925961972E+04  0.00000000000E+00 0. -1.
         21   -1    0    0  501  502 -0.00000000000E+00 -0.00000000000E+00 -0.17038543485E+01  0.17038543485E+01  0.00000000000E+00 0. -1.
         25    1    1    2    0    0  0.00000000000E+00  0.00000000000E+00  0.22908923428E+04  0.22943000515E+04  0.12500000000E+03 0.  0.
<mgrwt>
<rscale>  0 0.12500000E+03</rscale>
<asrwt>0</asrwt>
<pdfrwt beam="1">  1       21 0.35270464E+00 0.12500000E+03</pdfrwt>
<pdfrwt beam="2">  1       21 0.26213327E-03 0.12500000E+03</pdfrwt>
<totfact> 0.54178571E+05</totfact>
</mgrwt>
</event>
<event>
 3    1  0.1615911E-001  0.1250000E+03  0.7546771E-02  0.1235069E+00
         21   -1    0    0  502  501  0.00000000000E+00  0.00000000000E+00  0.12965012637E+03  0.12965012637E+03  0.00000000000E+00 0. -1.
         21   -1    0    0  501  502 -0.00000000000E+00 -0.00000000000E+00 -0.30129164618E+02  0.30129164618E+02  0.00000000000E+00 0. -1.
         25    1    1    2    0    0  0.00000000000E+00  0.00000000000E+00  0.99520961750E+02  0.15977929098E+03  0.12500000000E+03 0.  0.
<mgrwt>
<rscale>  0 0.12500000E+03</rscale>
<asrwt>0</asrwt>
<pdfrwt beam="1">  1       21 0.19946173E-01 0.12500000E+03</pdfrwt>
<pdfrwt beam="2">  1       21 0.46352562E-02 0.12500000E+03</pdfrwt>
<totfact> 0.69546474E+06</totfact>
</mgrwt>
</event>
<event>
 3    1  0.1615911E-001  0.1250000E+03  0.7546771E-02  0.1235069E+00
         21   -1    0    0  502  501  0.00000000000E+00  0.00000000000E+00  0.30686373829E+01  0.30686373829E+01  0.00000000000E+00 0. -1.
         21   -1    0    0  501  502 -0.00000000000E+00 -0.00000000000E+00 -0.12729591387E+04  0.12729591387E+04  0.00000000000E+00 0. -1.
         25    1    1    2    0    0  0.00000000000E+00  0.00000000000E+00 -0.12698905014E+04  0.12760277761E+04  0.12500000000E+03 0.  0.
<mgrwt>
<rscale>  0 0.12500000E+03</rscale>
<asrwt>0</asrwt>
<pdfrwt beam="1">  1       21 0.47209731E-03 0.12500000E+03</pdfrwt>
<pdfrwt beam="2">  1       21 0.19584018E+00 0.12500000E+03</pdfrwt>
<totfact> 0.17688304E+06</totfact>
</mgrwt>
</event>
<event>
 3    1  0.1615911E-001  0.1250000E+03  0.7546771E-02  0.1235069E+00
         21   -1    0    0  502  501  0.00000000000E+00  0.00000000000E+00  0.66956548707E+01  0.66956548707E+01  0.00000000000E+00 0.  1.
         21   -1    0    0  501  502 -0.00000000000E+00 -0.00000000000E+00 -0.58340073905E+03  0.58340073905E+03  0.00000000000E+00 0.  1.
         25    1    1    2    0    0  0.00000000000E+00  0.00000000000E+00 -0.57670508418E+03  0.59009639392E+03  0.12500000000E+03 0.  0.
<mgrwt>
<rscale>  0 0.12500000E+03</rscale>
<asrwt>0</asrwt>
<pdfrwt beam="1">  1       21 0.10301005E-02 0.12500000E+03</pdfrwt>
<pdfrwt beam="2">  1       21 0.89753980E-01 0.12500000E+03</pdfrwt>
<totfact> 0.37544367E+06</totfact>
</mgrwt>
</event>
<event>
 3    1  0.1615911E-001  0.1250000E+03  0.7546771E-02  0.1235069E+00
         21   -1    0    0  502  501  0.00000000000E+00  0.00000000000E+00  0.16390003072E+02  0.16390003072E+02  0.00000000000E+00 0.  1.
         21   -1    0    0  501  502 -0.00000000000E+00 -0.00000000000E+00 -0.23833125490E+03  0.23833125490E+03  0.00000000000E+00 0.  1.
         25    1    1    2    0    0  0.00000000000E+00  0.00000000000E+00 -0.22194125182E+03  0.25472125797E+03  0.12500000000E+03 0.  0.
<mgrwt>
<rscale>  0 0.12500000E+03</rscale>
<asrwt>0</asrwt>
<pdfrwt beam="1">  1       21 0.25215390E-02 0.12500000E+03</pdfrwt>
<pdfrwt beam="2">  1       21 0.36666345E-01 0.12500000E+03</pdfrwt>
<totfact> 0.59436516E+06</totfact>
</mgrwt>
</event>
<event>
 3    1  0.1615911E-001  0.1250000E+03  0.7546771E-02  0.1235069E+00
         21   -1    0    0  502  501  0.00000000000E+00  0.00000000000E+00  0.52283510510E+02  0.52283510510E+02  0.00000000000E+00 0.  1.
         21   -1    0    0  501  502 -0.00000000000E+00 -0.00000000000E+00 -0.74712848504E+02  0.74712848504E+02  0.00000000000E+00 0.  1.
         25    1    1    2    0    0  0.00000000000E+00  0.00000000000E+00 -0.22429337994E+02  0.12699635901E+03  0.12500000000E+03 0.  0.
<mgrwt>
<rscale>  0 0.12500000E+03</rscale>
<asrwt>0</asrwt>
<pdfrwt beam="1">  1       21 0.80436170E-02 0.12500000E+03</pdfrwt>
<pdfrwt beam="2">  1       21 0.11494284E-01 0.12500000E+03</pdfrwt>
<totfact> 0.73769632E+06</totfact>
</mgrwt>
</event>
<event>
 3    1  0.1615911E-001  0.1250000E+03  0.7546771E-02  0.1235069E+00
         21   -1    0    0  502  501  0.00000000000E+00  0.00000000000E+00  0.23321804522E+03  0.23321804522E+03  0.00000000000E+00 0. -1.
         21   -1    0    0  501  502 -0.00000000000E+00 -0.00000000000E+00 -0.16749347146E+02  0.16749347146E+02  0.00000000000E+00 0. -1.
         25    1    1    2    0    0  0.00000000000E+00  0.00000000000E+00  0.21646869807E+03  0.24996739236E+03  0.12500000000E+03 0.  0.
<mgrwt>
<rscale>  0 0.12500000E+03</rscale>
<asrwt>0</asrwt>
<pdfrwt beam="1">  1       21 0.35879697E-01 0.12500000E+03</pdfrwt>
<pdfrwt beam="2">  1       21 0.25768228E-02 0.12500000E+03</pdfrwt>
<totfact> 0.59881260E+06</totfact>
</mgrwt>
</event>
<event>
 3    1  0.1615911E-001  0.1250000E+03  0.7546771E-02  0.1235069E+00
         21   -1    0    0  502  501  0.00000000000E+00  0.00000000000E+00  0.51586704033E+02  0.51586704033E+02  0.00000000000E+00 0. -1.
         21   -1    0    0  501  502 -0.00000000000E+00 -0.00000000000E+00 -0.75722030962E+02  0.75722030962E+02  0.00000000000E+00 0. -1.
         25    1    1    2    0    0  0.00000000000E+00  0.00000000000E+00 -0.24135326929E+02  0.12730873499E+03  0.12500000000E+03 0.  0.
<mgrwt>
<rscale>  0 0.12500000E+03</rscale>
<asrwt>0</asrwt>
<pdfrwt beam="1">  1       21 0.79364160E-02 0.12500000E+03</pdfrwt>
<pdfrwt beam="2">  1       21 0.11649543E-01 0.12500000E+03</pdfrwt>
<totfact> 0.73727166E+06</totfact>
</mgrwt>
</event>
<event>
 3    1  0.1615911E-001  0.1250000E+03  0.7546771E-02  0.1235069E+00
         21   -1    0    0  502  501  0.00000000000E+00  0.00000000000E+00  0.64736375217E+03  0.64736375217E+03  0.00000000000E+00 0.  1.
         21   -1    0    0  501  502 -0.00000000000E+00 -0.00000000000E+00 -0.60340882339E+01  0.60340882339E+01  0.00000000000E+00 0.  1.
         25    1    1    2    0    0  0.00000000000E+00  0.00000000000E+00  0.64132966393E+03  0.65339784040E+03  0.12500000000E+03 0.  0.
<mgrwt>
<rscale>  0 0.12500000E+03</rscale>
<asrwt>0</asrwt>
<pdfrwt beam="1">  1       21 0.99594369E-01 0.12500000E+03</pdfrwt>
<pdfrwt beam="2">  1       21 0.92832178E-03 0.12500000E+03</pdfrwt>
<totfact> 0.34783627E+06</totfact>
</mgrwt>
</event>
<event>
 3    1  0.1615911E-001  0.1250000E+03  0.7546771E-02  0.1235069E+00
         21   -1    0    0  502  501  0.00000000000E+00  0.00000000000E+00  0.54833120735E+02  0.54833120735E+02  0.00000000000E+00 0. -1.
         21   -1    0    0  501  502 -0.00000000000E+00 -0.00000000000E+00 -0.71238878029E+02  0.71238878029E+02  0.00000000000E+00 0. -1.
         25    1    1    2    0    0  0.00000000000E+00  0.00000000000E+00 -0.16405757294E+02  0.12607199876E+03  0.12500000000E+03 0.  0.
<mgrwt>
<rscale>  0 0.12500000E+03</rscale>
<asrwt>0</asrwt>
<pdfrwt beam="1">  1       21 0.84358648E-02 0.12500000E+03</pdfrwt>
<pdfrwt beam="2">  1       21 0.10959827E-01 0.12500000E+03</pdfrwt>
<totfact> 0.73896117E+06</totfact>
</mgrwt>
</event>
<event>
 3    1  0.1615911E-001  0.1250000E+03  0.7546771E-02  0.1235069E+00
         21   -1    0    0  502  501  0.00000000000E+00  0.00000000000E+00  0.29308036067E+03  0.29308036067E+03  0.00000000000E+00 0.  1.
         21   -1    0    0  501  502 -0.00000000000E+00 -0.00000000000E+00 -0.13328255742E+02  0.13328255742E+02  0.00000000000E+00 0.  1.
         25    1    1    2    0    0  0.00000000000E+00  0.00000000000E+00  0.27975210492E+03  0.30640861641E+03  0.12500000000E+03 0.  0.
<mgrwt>
<rscale>  0 0.12500000E+03</rscale>
<asrwt>0</asrwt>
<pdfrwt beam="1">  1       21 0.45089282E-01 0.12500000E+03</pdfrwt>
<pdfrwt beam="2">  1       21 0.20505011E-02 0.12500000E+03</pdfrwt>
<totfact> 0.54927765E+06</totfact>
</mgrwt>
</event>
<event>
 3    1  0.1615911E-001  0.1250000E+03  0.7546771E-02  0.1235069E+00
         21   -1    0    0  502  501  0.00000000000E+00  0.00000000000E+00  0.31507560886E+02  0.31507560886E+02  0.00000000000E+00 0.  1.
         21   -1    0    0  501  502 -0.00000000000E+00 -0.00000000000E+00 -0.12397817826E+03  0.12397817826E+03  0.00000000000E+00 0.  1.
         25    1    1    2    0    0  0.00000000000E+00  0.00000000000E+00 -0.92470617371E+02  0.15548573914E+03  0.12500000000E+03 0.  0.
<mgrwt>
<rscale>  0 0.12500000E+03</rscale>
<asrwt>0</asrwt>
<pdfrwt beam="1">  1       21 0.48473171E-02 0.12500000E+03</pdfrwt>
<pdfrwt beam="2">  1       21 0.19073566E-01 0.12500000E+03</pdfrwt>
<totfact> 0.70075338E+06</totfact>
</mgrwt>
</event>
<event>
 3    1  0.1615911E-001  0.1250000E+03  0.7546771E-02  0.1235069E+00
         21   -1    0    0  502  501  0.00000000000E+00  0.00000000000E+00  0.41594903696E+02  0.41594903696E+02  0.00000000000E+00 0.  1.
         21   -1    0    0  501  502 -0.00000000000E+00 -0.00000000000E+00 -0.93911745259E+02  0.93911745259E+02  0.00000000000E+00 0.  1.
         25    1    1    2    0    0  0.00000000000E+00  0.00000000000E+00 -0.52316841563E+02  0.13550664896E+03  0.12500000000E+03 0.  0.
<mgrwt>
<rscale>  0 0.12500000E+03</rscale>
<asrwt>0</asrwt>
<pdfrwt beam="1">  1       21 0.63992160E-02 0.12500000E+03</pdfrwt>
<pdfrwt beam="2">  1       21 0.14447961E-01 0.12500000E+03</pdfrwt>
<totfact> 0.72629458E+06</totfact>
</mgrwt>
</event>
<event>
 3    1  0.1615911E-001  0.1250000E+03  0.7546771E-02  0.1235069E+00
         21   -1    0    0  502  501  0.00000000000E+00  0.00000000000E+00  0.16584415590E+04  0.16584415590E+04  0.00000000000E+00 0. -1.
         21   -1    0    0  501  502 -0.00000000000E+00 -0.00000000000E+00 -0.23553739224E+01  0.23553739224E+01  0.00000000000E+00 0. -1.
         25    1    1    2    0    0  0.00000000000E+00  0.00000000000E+00  0.16560861851E+04  0.16607969329E+04  0.12500000000E+03 0.  0.
<mgrwt>
<rscale>  0 0.12500000E+03</rscale>
<asrwt>0</asrwt>
<pdfrwt beam="1">  1       21 0.25514392E+00 0.12500000E+03</pdfrwt>
<pdfrwt beam="2">  1       21 0.36236654E-03 0.12500000E+03</pdfrwt>
<totfact> 0.11767833E+06</totfact>
</mgrwt>
</event>
<event>
 3    1  0.1615911E-001  0.1250000E+03  0.7546771E-02  0.1235069E+00
         21   -1    0    0  502  501  0.00000000000E+00  0.00000000000E+00  0.10135256726E+04  0.10135256726E+04  0.00000000000E+00 0.  1.
         21   -1    0    0  501  502 -0.00000000000E+00 -0.00000000000E+00 -0.38541204287E+01  0.38541204287E+01  0.00000000000E+00 0.  1.
         25    1    1    2    0    0  0.00000000000E+00  0.00000000000E+00  0.10096715522E+04  0.10173797931E+04  0.12500000000E+03 0.  0.
<mgrwt>
<rscale>  0 0.12500000E+03</rscale>
<asrwt>0</asrwt>
<pdfrwt beam="1">  1       21 0.15592681E+00 0.12500000E+03</pdfrwt>
<pdfrwt beam="2">  1       21 0.59294241E-03 0.12500000E+03</pdfrwt>
<totfact> 0.23188074E+06</totfact>
</mgrwt>
</event>
<event>
 3    1  0.1615911E-001  0.1250000E+03  0.7546771E-02  0.1235069E+00
         21   -1    0    0  502  501  0.00000000000E+00  0.00000000000E+00  0.17569379637E+03  0.17569379637E+03  0.00000000000E+00 0. -1.
         21   -1    0    0  501  502 -0.00000000000E+00 -0.00000000000E+00 -0.22233283592E+02  0.22233283592E+02  0.00000000000E+00 0. -1.
         25    1    1    2    0    0  0.00000000000E+00  0.00000000000E+00  0.15346051277E+03  0.19792707996E+03  0.12500000000E+03 0.  0.
<mgrwt>
<rscale>  0 0.12500000E+03</rscale>
<asrwt>0</asrwt>
<pdfrwt beam="1">  1       21 0.27029814E-01 0.12500000E+03</pdfrwt>
<pdfrwt beam="2">  1       21 0.34205053E-02 0.12500000E+03</pdfrwt>
<totfact> 0.65152078E+06</totfact>
</mgrwt>
</event>
<event>
 3    1  0.1615911E-001  0.1250000E+03  0.7546771E-02  0.1235069E+00
         21   -1    0    0  502  501  0.00000000000E+00  0.00000000000E+00  0.78310330005E+02  0.78310330005E+02  0.00000000000E+00 0.  1.
         21   -1    0    0  501  502 -0.00000000000E+00 -0.00000000000E+00 -0.49881669503E+02  0.49881669503E+02  0.00000000000E+00 0.  1.
         25    1    1    2    0    0  0.00000000000E+00  0.00000000000E+00  0.28428660502E+02  0.12819199951E+03  0.12500000000E+03 0.  0.
<mgrwt>
<rscale>  0 0.12500000E+03</rscale>
<asrwt>0</asrwt>
<pdfrwt beam="1">  1       21 0.12047743E-01 0.12500000E+03</pdfrwt>
<pdfrwt beam="2">  1       21 0.76741031E-02 0.12500000E+03</pdfrwt>
<totfact> 0.73607639E+06</totfact>
</mgrwt>
</event>
<event>
 3    1  0.1615911E-001  0.1250000E+03  0.7546771E-02  0.1235069E+00
         21   -1    0    0  502  501  0.00000000000E+00  0.00000000000E+00  0.84724627132E+01  0.84724627132E+01  0.00000000000E+00 0.  1.
         21   -1    0    0  501  502 -0.00000000000E+00 -0.00000000000E+00 -0.46105248642E+03  0.46105248642E+03  0.00000000000E+00 0.  1.
         25    1    1    2    0    0  0.00000000000E+00  0.00000000000E+00 -0.45258002371E+03  0.46952494913E+03  0.12500000000E+03 0.  0.
<mgrwt>
<rscale>  0 0.12500000E+03</rscale>
<asrwt>0</asrwt>
<pdfrwt beam="1">  1       21 0.13034555E-02 0.12500000E+03</pdfrwt>
<pdfrwt beam="2">  1       21 0.70931170E-01 0.12500000E+03</pdfrwt>
<totfact> 0.43746523E+06</totfact>
</mgrwt>
</event>
<event>
 3    1  0.1615911E-001  0.1250000E+03  0.7546771E-02  0.1235069E+00
         21   -1    0    0  502  501  0.00000000000E+00  0.00000000000E+00  0.30322157935E+03  0.30322157935E+03  0.00000000000E+00 0. -1.
         21   -1    0    0  501  502 -0.00000000000E+00 -0.00000000000E+00 -0.12882493417E+02  0.12882493417E+02  0.00000000000E+00 0. -1.
         25    1    1    2    0    0  0.00000000000E+00  0.00000000000E+00  0.29033908594E+03  0.31610407277E+03  0.12500000000E+03 0.  0.
<mgrwt>
<rscale>  0 0.12500000E+03</rscale>
<asrwt>0</asrwt>
<pdfrwt beam="1">  1       21 0.46649468E-01 0.12500000E+03</pdfrwt>
<pdfrwt beam="2">  1       21 0.19819223E-02 0.12500000E+03</pdfrwt>
<totfact> 0.54143529E+06</totfact>
</mgrwt>
</event>
<event>
 3    1  0.1615911E-001  0.1250000E+03  0.7546771E-02  0.1235069E+00
         21   -1    0    0  502  501  0.00000000000E+00  0.00000000000E+00  0.11193345783E+03  0.11193345783E+03  0.00000000000E+00 0. -1.
         21   -1    0    0  501  502 -0.00000000000E+00 -0.00000000000E+00 -0.34897965951E+02  0.34897965951E+02  0.00000000000E+00 0. -1.
         25    1    1    2    0    0  0.00000000000E+00  0.00000000000E+00  0.77035491877E+02  0.14683142378E+03  0.12500000000E+03 0.  0.
<mgrwt>
<rscale>  0 0.12500000E+03</rscale>
<asrwt>0</asrwt>
<pdfrwt beam="1">  1       21 0.17220532E-01 0.12500000E+03</pdfrwt>
<pdfrwt beam="2">  1       21 0.53689179E-02 0.12500000E+03</pdfrwt>
<totfact> 0.71159539E+06</totfact>
</mgrwt>
</event>
<event>
 3    1  0.1615911E-001  0.1250000E+03  0.7546771E-02  0.1235069E+00
         21   -1    0    0  502  501  0.00000000000E+00  0.00000000000E+00  0.31509959052E+01  0.31509959052E+01  0.00000000000E+00 0.  1.
         21   -1    0    0  501  502 -0.00000000000E+00 -0.00000000000E+00 -0.12396874250E+04  0.12396874250E+04  0.00000000000E+00 0.  1.
         25    1    1    2    0    0  0.00000000000E+00  0.00000000000E+00 -0.12365364291E+04  0.12428384209E+04  0.12500000000E+03 0.  0.
<mgrwt>
<rscale>  0 0.12500000E+03</rscale>
<asrwt>0</asrwt>
<pdfrwt beam="1">  1       21 0.48476886E-03 0.12500000E+03</pdfrwt>
<pdfrwt beam="2">  1       21 0.19072104E+00 0.12500000E+03</pdfrwt>
<totfact> 0.18310078E+06</totfact>
</mgrwt>
</event>
<event>
 3    1  0.1615911E-001  0.1250000E+03  0.7546771E-02  0.1235069E+00
         21   -1    0    0  502  501  0.00000000000E+00  0.00000000000E+00  0.25716188298E+02  0.25716188298E+02  0.00000000000E+00 0. -1.
         21   -1    0    0  501  502 -0.00000000000E+00 -0.00000000000E+00 -0.15189848335E+03  0.15189848335E+03  0.00000000000E+00 0. -1.
         25    1    1    2    0    0  0.00000000000E+00  0.00000000000E+00 -0.12618229505E+03  0.17761467165E+03  0.12500000000E+03 0.  0.
<mgrwt>
<rscale>  0 0.12500000E+03</rscale>
<asrwt>0</asrwt>
<pdfrwt beam="1">  1       21 0.39563366E-02 0.12500000E+03</pdfrwt>
<pdfrwt beam="2">  1       21 0.23368998E-01 0.12500000E+03</pdfrwt>
<totfact> 0.67426232E+06</totfact>
</mgrwt>
</event>
<event>
 3    1  0.1615911E-001  0.1250000E+03  0.7546771E-02  0.1235069E+00
         21   -1    0    0  502  501  0.00000000000E+00  0.00000000000E+00  0.38137182681E+02  0.38137182681E+02  0.00000000000E+00 0. -1.
         21   -1    0    0  501  502 -0.00000000000E+00 -0.00000000000E+00 -0.10242628651E+03  0.10242628651E+03  0.00000000000E+00 0. -1.
         25    1    1    2    0    0  0.00000000000E+00  0.00000000000E+00 -0.64289103831E+02  0.14056346919E+03  0.12500000000E+03 0.  0.
<mgrwt>
<rscale>  0 0.12500000E+03</rscale>
<asrwt>0</asrwt>
<pdfrwt beam="1">  1       21 0.58672588E-02 0.12500000E+03</pdfrwt>
<pdfrwt beam="2">  1       21 0.15757890E-01 0.12500000E+03</pdfrwt>
<totfact> 0.71965834E+06</totfact>
</mgrwt>
</event>
<event>
 3    1  0.1615911E-001  0.1250000E+03  0.7546771E-02  0.1235069E+00
         21   -1    0    0  502  501  0.00000000000E+00  0.00000000000E+00  0.33461405072E+03  0.33461405072E+03  0.00000000000E+00 0.  1.
         21   -1    0    0  501  502 -0.00000000000E+00 -0.00000000000E+00 -0.11673897111E+02  0.11673897111E+02  0.00000000000E+00 0.  1.
         25    1    1    2    0    0  0.00000000000E+00  0.00000000000E+00  0.32294015361E+03  0.34628794783E+03  0.12500000000E+03 0.  0.
<mgrwt>
<rscale>  0 0.12500000E+03</rscale>
<asrwt>0</asrwt>
<pdfrwt beam="1">  1       21 0.51479077E-01 0.12500000E+03</pdfrwt>
<pdfrwt beam="2">  1       21 0.17959844E-02 0.12500000E+03</pdfrwt>
<totfact> 0.51813754E+06</totfact>
</mgrwt>
</event>
<event>
 3    1  0.1615911E-001  0.1250000E+03  0.7546771E-02  0.1235069E+00
         21   -1    0    0  502  501  0.00000000000E+00  0.00000000000E+00  0.18272493194E+03  0.18272493194E+03  0.00000000000E+00 0. -1.
         21   -1    0    0  501  502 -0.00000000000E+00 -0.00000000000E+00 -0.21377761418E+02  0.21377761418E+02  0.00000000000E+00 0. -1.
         25    1    1    2    0    0  0.00000000000E+00  0.00000000000E+00  0.16134717052E+03  0.20410269336E+03  0.12500000000E+03 0.  0.
<mgrwt>
<rscale>  0 0.12500000E+03</rscale>
<asrwt>0</asrwt>
<pdfrwt beam="1">  1       21 0.28111527E-01 0.12500000E+03</pdfrwt>
<pdfrwt beam="2">  1       21 0.32888865E-02 0.12500000E+03</pdfrwt>
<totfact> 0.64485391E+06</totfact>
</mgrwt>
</event>
<event>
 3    1  0.1615911E-001  0.1250000E+03  0.7546771E-02  0.1235069E+00
         21   -1    0    0  502  501  0.00000000000E+00  0.00000000000E+00  0.47914557851E+02  0.47914557851E+02  0.00000000000E+00 0.  1.
         21   -1    0    0  501  502 -0.00000000000E+00 -0.00000000000E+00 -0.81525327065E+02  0.81525327065E+02  0.00000000000E+00 0.  1.
         25    1    1    2    0    0  0.00000000000E+00  0.00000000000E+00 -0.33610769213E+02  0.12943988492E+03  0.12500000000E+03 0.  0.
<mgrwt>
<rscale>  0 0.12500000E+03</rscale>
<asrwt>0</asrwt>
<pdfrwt beam="1">  1       21 0.73714705E-02 0.12500000E+03</pdfrwt>
<pdfrwt beam="2">  1       21 0.12542358E-01 0.12500000E+03</pdfrwt>
<totfact> 0.73439871E+06</totfact>
</mgrwt>
</event>
<event>
 3    1  0.1615911E-001  0.1250000E+03  0.7546771E-02  0.1235069E+00
         21   -1    0    0  502  501  0.00000000000E+00  0.00000000000E+00  0.25738897266E+02  0.25738897266E+02  0.00000000000E+00 0.  1.
         21   -1    0    0  501  502 -0.00000000000E+00 -0.00000000000E+00 -0.15176446604E+03  0.15176446604E+03  0.00000000000E+00 0.  1.
         25    1    1    2    0    0  0.00000000000E+00  0.00000000000E+00 -0.12602556877E+03  0.17750336330E+03  0.12500000000E+03 0.  0.
<mgrwt>
<rscale>  0 0.12500000E+03</rscale>
<asrwt>0</asrwt>
<pdfrwt beam="1">  1       21 0.39598303E-02 0.12500000E+03</pdfrwt>
<pdfrwt beam="2">  1       21 0.23348380E-01 0.12500000E+03</pdfrwt>
<totfact> 0.67439103E+06</totfact>
</mgrwt>
</event>
<event>
 3    1  0.1615911E-001  0.1250000E+03  0.7546771E-02  0.1235069E+00
         21   -1    0    0  502  501  0.00000000000E+00  0.00000000000E+00  0.19054606023E+03  0.19054606023E+03  0.00000000000E+00 0.  1.
         21   -1    0    0  501  502 -0.00000000000E+00 -0.00000000000E+00 -0.20500292660E+02  0.20500292660E+02  0.00000000000E+00 0.  1.
         25    1    1    2    0    0  0.00000000000E+00  0.00000000000E+00  0.17004576757E+03  0.21104635289E+03  0.12500000000E+03 0.  0.
<mgrwt>
<rscale>  0 0.12500000E+03</rscale>
<asrwt>0</asrwt>
<pdfrwt beam="1">  1       21 0.29314777E-01 0.12500000E+03</pdfrwt>
<pdfrwt beam="2">  1       21 0.31538913E-02 0.12500000E+03</pdfrwt>
<totfact> 0.63749616E+06</totfact>
</mgrwt>
</event>
<event>
 3    1  0.1615911E-001  0.1250000E+03  0.7546771E-02  0.1235069E+00
         21   -1    0    0  502  501  0.00000000000E+00  0.00000000000E+00  0.73215130683E+02  0.73215130683E+02  0.00000000000E+00 0.  1.
         21   -1    0    0  501  502 -0.00000000000E+00 -0.00000000000E+00 -0.53353042787E+02  0.53353042787E+02  0.00000000000E+00 0.  1.
         25    1    1    2    0    0  0.00000000000E+00  0.00000000000E+00  0.19862087895E+02  0.12656817347E+03  0.12500000000E+03 0.  0.
<mgrwt>
<rscale>  0 0.12500000E+03</rscale>
<asrwt>0</asrwt>
<pdfrwt beam="1">  1       21 0.11263866E-01 0.12500000E+03</pdfrwt>
<pdfrwt beam="2">  1       21 0.82081604E-02 0.12500000E+03</pdfrwt>
<totfact> 0.73828047E+06</totfact>
</mgrwt>
</event>
<event>
 3    1  0.1615911E-001  0.1250000E+03  0.7546771E-02  0.1235069E+00
         21   -1    0    0  502  501  0.00000000000E+00  0.00000000000E+00  0.86341866086E+03  0.86341866086E+03  0.00000000000E+00 0. -1.
         21   -1    0    0  501  502 -0.00000000000E+00 -0.00000000000E+00 -0.45241667537E+01  0.45241667537E+01  0.00000000000E+00 0. -1.
         25    1    1    2    0    0  0.00000000000E+00  0.00000000000E+00  0.85889449410E+03  0.86794282761E+03  0.12500000000E+03 0.  0.
<mgrwt>
<rscale>  0 0.12500000E+03</rscale>
<asrwt>0</asrwt>
<pdfrwt beam="1">  1       21 0.13283351E+00 0.12500000E+03</pdfrwt>
<pdfrwt beam="2">  1       21 0.69602634E-03 0.12500000E+03</pdfrwt>
<totfact> 0.27231343E+06</totfact>
</mgrwt>
</event>
<event>
 3    1  0.1615911E-001  0.1250000E+03  0.7546771E-02  0.1235069E+00
         21   -1    0    0  502  501  0.00000000000E+00  0.00000000000E+00  0.31886287322E+03  0.31886287322E+03  0.00000000000E+00 0. -1.
         21   -1    0    0  501  502 -0.00000000000E+00 -0.00000000000E+00 -0.12250563888E+02  0.12250563888E+02  0.00000000000E+00 0. -1.
         25    1    1    2    0    0  0.00000000000E+00  0.00000000000E+00  0.30661230934E+03  0.33111343711E+03  0.12500000000E+03 0.  0.
<mgrwt>
<rscale>  0 0.12500000E+03</rscale>
<asrwt>0</asrwt>
<pdfrwt beam="1">  1       21 0.49055820E-01 0.12500000E+03</pdfrwt>
<pdfrwt beam="2">  1       21 0.18847024E-02 0.12500000E+03</pdfrwt>
<totfact> 0.52964248E+06</totfact>
</mgrwt>
</event>
<event>
 3    1  0.1615911E-001  0.1250000E+03  0.7546771E-02  0.1235069E+00
         21   -1    0    0  502  501  0.00000000000E+00  0.00000000000E+00  0.97372367441E+02  0.97372367441E+02  0.00000000000E+00 0. -1.
         21   -1    0    0  501  502 -0.00000000000E+00 -0.00000000000E+00 -0.40116617298E+02  0.40116617298E+02  0.00000000000E+00 0. -1.
         25    1    1    2    0    0  0.00000000000E+00  0.00000000000E+00  0.57255750143E+02  0.13748898474E+03  0.12500000000E+03 0.  0.
<mgrwt>
<rscale>  0 0.12500000E+03</rscale>
<asrwt>0</asrwt>
<pdfrwt beam="1">  1       21 0.14980364E-01 0.12500000E+03</pdfrwt>
<pdfrwt beam="2">  1       21 0.61717873E-02 0.12500000E+03</pdfrwt>
<totfact> 0.72368560E+06</totfact>
</mgrwt>
</event>
<event>
 3    1  0.1615911E-001  0.1250000E+03  0.7546771E-02  0.1235069E+00
         21   -1    0    0  502  501  0.00000000000E+00  0.00000000000E+00  0.42376433495E+02  0.42376433495E+02  0.00000000000E+00 0.  1.
         21   -1    0    0  501  502 -0.00000000000E+00 -0.00000000000E+00 -0.92179772526E+02  0.92179772526E+02  0.00000000000E+00 0.  1.
         25    1    1    2    0    0  0.00000000000E+00  0.00000000000E+00 -0.49803339031E+02  0.13455620602E+03  0.12500000000E+03 0.  0.
<mgrwt>
<rscale>  0 0.12500000E+03</rscale>
<asrwt>0</asrwt>
<pdfrwt beam="1">  1       21 0.65194514E-02 0.12500000E+03</pdfrwt>
<pdfrwt beam="2">  1       21 0.14181503E-01 0.12500000E+03</pdfrwt>
<totfact> 0.72755287E+06</totfact>
</mgrwt>
</event>
<event>
 3    1  0.1615911E-001  0.1250000E+03  0.7546771E-02  0.1235069E+00
         21   -1    0    0  502  501  0.00000000000E+00  0.00000000000E+00  0.51319661576E+02  0.51319661576E+02  0.00000000000E+00 0.  1.
         21   -1    0    0  501  502 -0.00000000000E+00 -0.00000000000E+00 -0.76116051432E+02  0.76116051432E+02  0.00000000000E+00 0.  1.
         25    1    1    2    0    0  0.00000000000E+00  0.00000000000E+00 -0.24796389855E+02  0.12743571301E+03  0.12500000000E+03 0.  0.
<mgrwt>
<rscale>  0 0.12500000E+03</rscale>
<asrwt>0</asrwt>
<pdfrwt beam="1">  1       21 0.78953326E-02 0.12500000E+03</pdfrwt>
<pdfrwt beam="2">  1       21 0.11710162E-01 0.12500000E+03</pdfrwt>
<totfact> 0.73709935E+06</totfact>
</mgrwt>
</event>
<event>
 3    1  0.1615911E-001  0.1250000E+03  0.7546771E-02  0.1235069E+00
         21   -1    0    0  502  501  0.00000000000E+00  0.00000000000E+00  0.48590969434E+02  0.48590969434E+02  0.00000000000E+00 0.  1.
         21   -1    0    0  501  502 -0.00000000000E+00 -0.00000000000E+00 -0.80390452085E+02  0.80390452085E+02  0.00000000000E+00 0.  1.
         25    1    1    2    0    0  0.00000000000E+00  0.00000000000E+00 -0.31799482651E+02  0.12898142152E+03  0.12500000000E+03 0.  0.
<mgrwt>
<rscale>  0 0.12500000E+03</rscale>
<asrwt>0</asrwt>
<pdfrwt beam="1">  1       21 0.74755338E-02 0.12500000E+03</pdfrwt>
<pdfrwt beam="2">  1       21 0.12367762E-01 0.12500000E+03</pdfrwt>
<totfact> 0.73501376E+06</totfact>
</mgrwt>
</event>
<event>
 3    1  0.1615911E-001  0.1250000E+03  0.7546771E-02  0.1235069E+00
         21   -1    0    0  502  501  0.00000000000E+00  0.00000000000E+00  0.38689461254E+01  0.38689461254E+01  0.00000000000E+00 0.  1.
         21   -1    0    0  501  502 -0.00000000000E+00 -0.00000000000E+00 -0.10096418698E+04  0.10096418698E+04  0.00000000000E+00 0.  1.
         25    1    1    2    0    0  0.00000000000E+00  0.00000000000E+00 -0.10057729236E+04  0.10135108159E+04  0.12500000000E+03 0.  0.
<mgrwt>
<rscale>  0 0.12500000E+03</rscale>
<asrwt>0</asrwt>
<pdfrwt beam="1">  1       21 0.59522302E-03 0.12500000E+03</pdfrwt>
<pdfrwt beam="2">  1       21 0.15532938E+00 0.12500000E+03</pdfrwt>
<totfact> 0.23283836E+06</totfact>
</mgrwt>
</event>
<event>
 3    1  0.1615911E-001  0.1250000E+03  0.7546771E-02  0.1235069E+00
         21   -1    0    0  502  501  0.00000000000E+00  0.00000000000E+00  0.18519607833E+02  0.18519607833E+02  0.00000000000E+00 0. -1.
         21   -1    0    0  501  502 -0.00000000000E+00 -0.00000000000E+00 -0.21092509276E+03  0.21092509276E+03  0.00000000000E+00 0. -1.
         25    1    1    2    0    0  0.00000000000E+00  0.00000000000E+00 -0.19240548492E+03  0.22944470059E+03  0.12500000000E+03 0.  0.
<mgrwt>
<rscale>  0 0.12500000E+03</rscale>
<asrwt>0</asrwt>
<pdfrwt beam="1">  1       21 0.28491708E-02 0.12500000E+03</pdfrwt>
<pdfrwt beam="2">  1       21 0.32450010E-01 0.12500000E+03</pdfrwt>
<totfact> 0.61869287E+06</totfact>
</mgrwt>
</event>
<event>
 3    1  0.1615911E-001  0.1250000E+03  0.7546771E-02  0.1235069E+00
         21   -1    0    0  502  501  0.00000000000E+00  0.00000000000E+00  0.18797150603E+03  0.18797150603E+03  0.00000000000E+00 0.  1.
         21   -1    0    0  501  502 -0.00000000000E+00 -0.00000000000E+00 -0.20781075188E+02  0.20781075188E+02  0.00000000000E+00 0.  1.
         25    1    1    2    0    0  0.00000000000E+00  0.00000000000E+00  0.16719043084E+03  0.20875258122E+03  0.12500000000E+03 0.  0.
<mgrwt>
<rscale>  0 0.12500000E+03</rscale>
<asrwt>0</asrwt>
<pdfrwt beam="1">  1       21 0.28918692E-01 0.12500000E+03</pdfrwt>
<pdfrwt beam="2">  1       21 0.31970886E-02 0.12500000E+03</pdfrwt>
<totfact> 0.63991018E+06</totfact>
</mgrwt>
</event>
<event>
 3    1  0.1615911E-001  0.1250000E+03  0.7546771E-02  0.1235069E+00
         21   -1    0    0  502  501  0.00000000000E+00  0.00000000000E+00  0.32669030766E+03  0.32669030766E+03  0.00000000000E+00 0.  1.
         21   -1    0    0  501  502 -0.00000000000E+00 -0.00000000000E+00 -0.11957042828E+02  0.11957042828E+02  0.00000000000E+00 0.  1.
         25    1    1    2    0    0  0.00000000000E+00  0.00000000000E+00  0.31473326483E+03  0.33864735048E+03  0.12500000000E+03 0.  0.
<mgrwt>
<rscale>  0 0.12500000E+03</rscale>
<asrwt>0</asrwt>
<pdfrwt beam="1">  1       21 0.50260041E-01 0.12500000E+03</pdfrwt>
<pdfrwt beam="2">  1       21 0.18395453E-02 0.12500000E+03</pdfrwt>
<totfact> 0.52387947E+06</totfact>
</mgrwt>
</event>
<event>
 3    1  0.1615911E-001  0.1250000E+03  0.7546771E-02  0.1235069E+00
         21   -1    0    0  502  501  0.00000000000E+00  0.00000000000E+00  0.11031264758E+02  0.11031264758E+02  0.00000000000E+00 0.  1.
         21   -1    0    0  501  502 -0.00000000000E+00 -0.00000000000E+00 -0.35410717500E+03  0.35410717500E+03  0.00000000000E+00 0.  1.
         25    1    1    2    0    0  0.00000000000E+00  0.00000000000E+00 -0.34307591024E+03  0.36513843976E+03  0.12500000000E+03 0.  0.
<mgrwt>
<rscale>  0 0.12500000E+03</rscale>
<asrwt>0</asrwt>
<pdfrwt beam="1">  1       21 0.16971178E-02 0.12500000E+03</pdfrwt>
<pdfrwt beam="2">  1       21 0.54478022E-01 0.12500000E+03</pdfrwt>
<totfact> 0.50439484E+06</totfact>
</mgrwt>
</event>
<event>
 3    1  0.1615911E-001  0.1250000E+03  0.7546771E-02  0.1235069E+00
         21   -1    0    0  502  501  0.00000000000E+00  0.00000000000E+00  0.21475876258E+02  0.21475876258E+02  0.00000000000E+00 0.  1.
         21   -1    0    0  501  502 -0.00000000000E+00 -0.00000000000E+00 -0.18189013352E+03  0.18189013352E+03  0.00000000000E+00 0.  1.
         25    1    1    2    0    0  0.00000000000E+00  0.00000000000E+00 -0.16041425726E+03  0.20336600978E+03  0.12500000000E+03 0.  0.
<mgrwt>
<rscale>  0 0.12500000E+03</rscale>
<asrwt>0</asrwt>
<pdfrwt beam="1">  1       21 0.33039809E-02 0.12500000E+03</pdfrwt>
<pdfrwt beam="2">  1       21 0.27983098E-01 0.12500000E+03</pdfrwt>
<totfact> 0.64564337E+06</totfact>
</mgrwt>
</event>
<event>
 3    1  0.1615911E-001  0.1250000E+03  0.7546771E-02  0.1235069E+00
         21   -1    0    0  502  501  0.00000000000E+00  0.00000000000E+00  0.20583949812E+03  0.20583949812E+03  0.00000000000E+00 0.  1.
         21   -1    0    0  501  502 -0.00000000000E+00 -0.00000000000E+00 -0.18977164421E+02  0.18977164421E+02  0.00000000000E+00 0.  1.
         25    1    1    2    0    0  0.00000000000E+00  0.00000000000E+00  0.18686233369E+03  0.22481666254E+03  0.12500000000E+03 0.  0.
<mgrwt>
<rscale>  0 0.12500000E+03</rscale>
<asrwt>0</asrwt>
<pdfrwt beam="1">  1       21 0.31667613E-01 0.12500000E+03</pdfrwt>
<pdfrwt beam="2">  1       21 0.29195639E-02 0.12500000E+03</pdfrwt>
<totfact> 0.62333575E+06</totfact>
</mgrwt>
</event>
<event>
 3    1  0.1615911E-001  0.1250000E+03  0.7546771E-02  0.1235069E+00
         21   -1    0    0  502  501  0.00000000000E+00  0.00000000000E+00  0.14196589625E+02  0.14196589625E+02  0.00000000000E+00 0. -1.
         21   -1    0    0  501  502 -0.00000000000E+00 -0.00000000000E+00 -0.27515411117E+03  0.27515411117E+03  0.00000000000E+00 0. -1.
         25    1    1    2    0    0  0.00000000000E+00  0.00000000000E+00 -0.26095752155E+03  0.28935070080E+03  0.12500000000E+03 0.  0.
<mgrwt>
<rscale>  0 0.12500000E+03</rscale>
<asrwt>0</asrwt>
<pdfrwt beam="1">  1       21 0.21840906E-02 0.12500000E+03</pdfrwt>
<pdfrwt beam="2">  1       21 0.42331403E-01 0.12500000E+03</pdfrwt>
<totfact> 0.56352948E+06</totfact>
</mgrwt>
</event>
<event>
 3    1  0.1615911E-001  0.1250000E+03  0.7546771E-02  0.1235069E+00
         21   -1    0    0  502  501  0.00000000000E+00  0.00000000000E+00  0.92318397449E+01  0.92318397449E+01  0.00000000000E+00 0.  1.
         21   -1    0    0  501  502 -0.00000000000E+00 -0.00000000000E+00 -0.42312801218E+03  0.42312801218E+03  0.00000000000E+00 0.  1.
         25    1    1    2    0    0  0.00000000000E+00  0.00000000000E+00 -0.41389617243E+03  0.43235985192E+03  0.12500000000E+03 0.  0.
<mgrwt>
<rscale>  0 0.12500000E+03</rscale>
<asrwt>0</asrwt>
<pdfrwt beam="1">  1       21 0.14202832E-02 0.12500000E+03</pdfrwt>
<pdfrwt beam="2">  1       21 0.65096612E-01 0.12500000E+03</pdfrwt>
<totfact> 0.45966498E+06</totfact>
</mgrwt>
</event>
<event>
 3    1  0.1615911E-001  0.1250000E+03  0.7546771E-02  0.1235069E+00
         21   -1    0    0  502  501  0.00000000000E+00  0.00000000000E+00  0.79927239943E+02  0.79927239943E+02  0.00000000000E+00 0. -1.
         21   -1    0    0  501  502 -0.00000000000E+00 -0.00000000000E+00 -0.48872574641E+02  0.48872574641E+02  0.00000000000E+00 0. -1.
         25    1    1    2    0    0  0.00000000000E+00  0.00000000000E+00  0.31054665302E+02  0.12879981458E+03  0.12500000000E+03 0.  0.
<mgrwt>
<rscale>  0 0.12500000E+03</rscale>
<asrwt>0</asrwt>
<pdfrwt beam="1">  1       21 0.12296498E-01 0.12500000E+03</pdfrwt>
<pdfrwt beam="2">  1       21 0.75188576E-02 0.12500000E+03</pdfrwt>
<totfact> 0.73525780E+06</totfact>
</mgrwt>
</event>
<event>
 3    1  0.1615911E-001  0.1250000E+03  0.7546771E-02  0.1235069E+00
         21   -1    0    0  502  501  0.00000000000E+00  0.00000000000E+00  0.25301861494E+02  0.25301861494E+02  0.00000000000E+00 0. -1.
         21   -1    0    0  501  502 -0.00000000000E+00 -0.00000000000E+00 -0.15438587398E+03  0.15438587398E+03  0.00000000000E+00 0. -1.
         25    1    1    2    0    0  0.00000000000E+00  0.00000000000E+00 -0.12908401248E+03  0.17968773547E+03  0.12500000000E+03 0.  0.
<mgrwt>
<rscale>  0 0.12500000E+03</rscale>
<asrwt>0</asrwt>
<pdfrwt beam="1">  1       21 0.38925941E-02 0.12500000E+03</pdfrwt>
<pdfrwt beam="2">  1       21 0.23751673E-01 0.12500000E+03</pdfrwt>
<totfact> 0.67187376E+06</totfact>
</mgrwt>
</event>
<event>
 3    1  0.1615911E-001  0.1250000E+03  0.7546771E-02  0.1235069E+00
         21   -1    0    0  502  501  0.00000000000E+00  0.00000000000E+00  0.13537478483E+04  0.13537478483E+04  0.00000000000E+00 0.  1.
         21   -1    0    0  501  502 -0.00000000000E+00 -0.00000000000E+00 -0.28855078181E+01  0.28855078181E+01  0.00000000000E+00 0.  1.
         25    1    1    2    0    0  0.00000000000E+00  0.00000000000E+00  0.13508623405E+04  0.13566333561E+04  0.12500000000E+03 0.  0.
<mgrwt>
<rscale>  0 0.12500000E+03</rscale>
<asrwt>0</asrwt>
<pdfrwt beam="1">  1       21 0.20826839E+00 0.12500000E+03</pdfrwt>
<pdfrwt beam="2">  1       21 0.44392536E-03 0.12500000E+03</pdfrwt>
<totfact> 0.16265192E+06</totfact>
</mgrwt>
</event>
<event>
 3    1  0.1615911E-001  0.1250000E+03  0.7546771E-02  0.1235069E+00
         21   -1    0    0  502  501  0.00000000000E+00  0.00000000000E+00  0.69237428266E+02  0.69237428266E+02  0.00000000000E+00 0. -1.
         21   -1    0    0  501  502 -0.00000000000E+00 -0.00000000000E+00 -0.56418184468E+02  0.56418184468E+02  0.00000000000E+00 0. -1.
         25    1    1    2    0    0  0.00000000000E+00  0.00000000000E+00  0.12819243798E+02  0.12565561273E+03  0.12500000000E+03 0.  0.
<mgrwt>
<rscale>  0 0.12500000E+03</rscale>
<asrwt>0</asrwt>
<pdfrwt beam="1">  1       21 0.10651912E-01 0.12500000E+03</pdfrwt>
<pdfrwt beam="2">  1       21 0.86797207E-02 0.12500000E+03</pdfrwt>
<totfact> 0.73953704E+06</totfact>
</mgrwt>
</event>
<event>
 3    1  0.1615911E-001  0.1250000E+03  0.7546771E-02  0.1235069E+00
         21   -1    0    0  502  501  0.00000000000E+00  0.00000000000E+00  0.57837657522E+02  0.57837657522E+02  0.00000000000E+00 0. -1.
         21   -1    0    0  501  502 -0.00000000000E+00 -0.00000000000E+00 -0.67538177848E+02  0.67538177848E+02  0.00000000000E+00 0. -1.
         25    1    1    2    0    0  0.00000000000E+00  0.00000000000E+00 -0.97005203263E+01  0.12537583537E+03  0.12500000000E+03 0.  0.
<mgrwt>
<rscale>  0 0.12500000E+03</rscale>
<asrwt>0</asrwt>
<pdfrwt beam="1">  1       21 0.88981012E-02 0.12500000E+03</pdfrwt>
<pdfrwt beam="2">  1       21 0.10390489E-01 0.12500000E+03</pdfrwt>
<totfact> 0.73992810E+06</totfact>
</mgrwt>
</event>
<event>
 3    1  0.1615911E-001  0.1250000E+03  0.7546771E-02  0.1235069E+00
         21   -1    0    0  502  501  0.00000000000E+00  0.00000000000E+00  0.88465273949E+02  0.88465273949E+02  0.00000000000E+00 0. -1.
         21   -1    0    0  501  502 -0.00000000000E+00 -0.00000000000E+00 -0.44155744120E+02  0.44155744120E+02  0.00000000000E+00 0. -1.
         25    1    1    2    0    0  0.00000000000E+00  0.00000000000E+00  0.44309529829E+02  0.13262101807E+03  0.12500000000E+03 0.  0.
<mgrwt>
<rscale>  0 0.12500000E+03</rscale>
<asrwt>0</asrwt>
<pdfrwt beam="1">  1       21 0.13610042E-01 0.12500000E+03</pdfrwt>
<pdfrwt beam="2">  1       21 0.67931914E-02 0.12500000E+03</pdfrwt>
<totfact> 0.73013047E+06</totfact>
</mgrwt>
</event>
<event>
 3    1  0.1615911E-001  0.1250000E+03  0.7546771E-02  0.1235069E+00
         21   -1    0    0  502  501  0.00000000000E+00  0.00000000000E+00  0.75539678927E+02  0.75539678927E+02  0.00000000000E+00 0. -1.
         21   -1    0    0  501  502 -0.00000000000E+00 -0.00000000000E+00 -0.51711233824E+02  0.51711233824E+02  0.00000000000E+00 0. -1.
         25    1    1    2    0    0  0.00000000000E+00  0.00000000000E+00  0.23828445103E+02  0.12725091275E+03  0.12500000000E+03 0.  0.
<mgrwt>
<rscale>  0 0.12500000E+03</rscale>
<asrwt>0</asrwt>
<pdfrwt beam="1">  1       21 0.11621489E-01 0.12500000E+03</pdfrwt>
<pdfrwt beam="2">  1       21 0.79555744E-02 0.12500000E+03</pdfrwt>
<totfact> 0.73735018E+06</totfact>
</mgrwt>
</event>
<event>
 3    1  0.1615911E-001  0.1250000E+03  0.7546771E-02  0.1235069E+00
         21   -1    0    0  502  501  0.00000000000E+00  0.00000000000E+00  0.30691447660E+02  0.30691447660E+02  0.00000000000E+00 0.  1.
         21   -1    0    0  501  502 -0.00000000000E+00 -0.00000000000E+00 -0.12727486964E+03  0.12727486964E+03  0.00000000000E+00 0.  1.
         25    1    1    2    0    0  0.00000000000E+00  0.00000000000E+00 -0.96583421982E+02  0.15796631730E+03  0.12500000000E+03 0.  0.
<mgrwt>
<rscale>  0 0.12500000E+03</rscale>
<asrwt>0</asrwt>
<pdfrwt beam="1">  1       21 0.47217612E-02 0.12500000E+03</pdfrwt>
<pdfrwt beam="2">  1       21 0.19580749E-01 0.12500000E+03</pdfrwt>
<totfact> 0.69768848E+06</totfact>
</mgrwt>
</event>
<event>
 3    1  0.1615911E-001  0.1250000E+03  0.7546771E-02  0.1235069E+00
         21   -1    0    0  502  501  0.00000000000E+00  0.00000000000E+00  0.49919971617E+01  0.49919971617E+01  0.00000000000E+00 0.  1.
         21   -1    0    0  501  502 -0.00000000000E+00 -0.00000000000E+00 -0.78250244811E+03  0.78250244811E+03  0.00000000000E+00 0.  1.
         25    1    1    2    0    0  0.00000000000E+00  0.00000000000E+00 -0.77751045095E+03  0.78749444527E+03  0.12500000000E+03 0.  0.
<mgrwt>
<rscale>  0 0.12500000E+03</rscale>
<asrwt>0</asrwt>
<pdfrwt beam="1">  1       21 0.76799990E-03 0.12500000E+03</pdfrwt>
<pdfrwt beam="2">  1       21 0.12038494E+00 0.12500000E+03</pdfrwt>
<totfact> 0.29781379E+06</totfact>
</mgrwt>
</event>
<event>
 3    1  0.1615911E-001  0.1250000E+03  0.7546771E-02  0.1235069E+00
         21   -1    0    0  502  501  0.00000000000E+00  0.00000000000E+00  0.24558323916E+02  0.24558323916E+02  0.00000000000E+00 0.  1.
         21   -1    0    0  501  502 -0.00000000000E+00 -0.00000000000E+00 -0.15906012207E+03  0.15906012207E+03  0.00000000000E+00 0.  1.
         25    1    1    2    0    0  0.00000000000E+00  0.00000000000E+00 -0.13450179816E+03  0.18361844599E+03  0.12500000000E+03 0.  0.
<mgrwt>
<rscale>  0 0.12500000E+03</rscale>
<asrwt>0</asrwt>
<pdfrwt beam="1">  1       21 0.37782037E-02 0.12500000E+03</pdfrwt>
<pdfrwt beam="2">  1       21 0.24470788E-01 0.12500000E+03</pdfrwt>
<totfact> 0.66738845E+06</totfact>
</mgrwt>
</event>
<event>
 3    1  0.1615911E-001  0.1250000E+03  0.7546771E-02  0.1235069E+00
         21   -1    0    0  502  501  0.00000000000E+00  0.00000000000E+00  0.10961658541E+03  0.10961658541E+03  0.00000000000E+00 0. -1.
         21   -1    0    0  501  502 -0.00000000000E+00 -0.00000000000E+00 -0.35635574540E+02  0.35635574540E+02  0.00000000000E+00 0. -1.
         25    1    1    2    0    0  0.00000000000E+00  0.00000000000E+00  0.73981010865E+02  0.14525215994E+03  0.12500000000E+03 0.  0.
<mgrwt>
<rscale>  0 0.12500000E+03</rscale>
<asrwt>0</asrwt>
<pdfrwt beam="1">  1       21 0.16864090E-01 0.12500000E+03</pdfrwt>
<pdfrwt beam="2">  1       21 0.54823961E-02 0.12500000E+03</pdfrwt>
<totfact> 0.71360844E+06</totfact>
</mgrwt>
</event>
<event>
 3    1  0.1615911E-001  0.1250000E+03  0.7546771E-02  0.1235069E+00
         21   -1    0    0  502  501  0.00000000000E+00  0.00000000000E+00  0.29015555397E+03  0.29015555397E+03  0.00000000000E+00 0.  1.
         21   -1    0    0  501  502 -0.00000000000E+00 -0.00000000000E+00 -0.13462606339E+02  0.13462606339E+02  0.00000000000E+00 0.  1.
         25    1    1    2    0    0  0.00000000000E+00  0.00000000000E+00  0.27669294763E+03  0.30361816030E+03  0.12500000000E+03 0.  0.
<mgrwt>
<rscale>  0 0.12500000E+03</rscale>
<asrwt>0</asrwt>
<pdfrwt beam="1">  1       21 0.44639311E-01 0.12500000E+03</pdfrwt>
<pdfrwt beam="2">  1       21 0.20711704E-02 0.12500000E+03</pdfrwt>
<totfact> 0.55156827E+06</totfact>
</mgrwt>
</event>
<event>
 3    1  0.1615911E-001  0.1250000E+03  0.7546771E-02  0.1235069E+00
         21   -1    0    0  502  501  0.00000000000E+00  0.00000000000E+00  0.18459173313E+02  0.18459173313E+02  0.00000000000E+00 0. -1.
         21   -1    0    0  501  502 -0.00000000000E+00 -0.00000000000E+00 -0.21161565222E+03  0.21161565222E+03  0.00000000000E+00 0. -1.
         25    1    1    2    0    0  0.00000000000E+00  0.00000000000E+00 -0.19315647890E+03  0.23007482553E+03  0.12500000000E+03 0.  0.
<mgrwt>
<rscale>  0 0.12500000E+03</rscale>
<asrwt>0</asrwt>
<pdfrwt beam="1">  1       21 0.28398729E-02 0.12500000E+03</pdfrwt>
<pdfrwt beam="2">  1       21 0.32556254E-01 0.12500000E+03</pdfrwt>
<totfact> 0.61806534E+06</totfact>
</mgrwt>
</event>
<event>
 3    1  0.1615911E-001  0.1250000E+03  0.7546771E-02  0.1235069E+00
         21   -1    0    0  502  501  0.00000000000E+00  0.00000000000E+00  0.19341096899E+03  0.19341096899E+03  0.00000000000E+00 0.  1.
         21   -1    0    0  501  502 -0.00000000000E+00 -0.00000000000E+00 -0.20196631144E+02  0.20196631144E+02  0.00000000000E+00 0.  1.
         25    1    1    2    0    0  0.00000000000E+00  0.00000000000E+00  0.17321433785E+03  0.21360760014E+03  0.12500000000E+03 0.  0.
<mgrwt>
<rscale>  0 0.12500000E+03</rscale>
<asrwt>0</asrwt>
<pdfrwt beam="1">  1       21 0.29755533E-01 0.12500000E+03</pdfrwt>
<pdfrwt beam="2">  1       21 0.31071741E-02 0.12500000E+03</pdfrwt>
<totfact> 0.63481963E+06</totfact>
</mgrwt>
</event>
<event>
 3    1  0.1615911E-001  0.1250000E+03  0.7546771E-02  0.1235069E+00
         21   -1    0    0  502  501  0.00000000000E+00  0.00000000000E+00  0.34121178551E+02  0.34121178551E+02  0.00000000000E+00 0. -1.
         21   -1    0    0  501  502 -0.00000000000E+00 -0.00000000000E+00 -0.11448168457E+03  0.11448168457E+03  0.00000000000E+00 0. -1.
         25    1    1    2    0    0  0.00000000000E+00  0.00000000000E+00 -0.80360506020E+02  0.14860286312E+03  0.12500000000E+03 0.  0.
<mgrwt>
<rscale>  0 0.12500000E+03</rscale>
<asrwt>0</asrwt>
<pdfrwt beam="1">  1       21 0.52494121E-02 0.12500000E+03</pdfrwt>
<pdfrwt beam="2">  1       21 0.17612567E-01 0.12500000E+03</pdfrwt>
<totfact> 0.70935150E+06</totfact>
</mgrwt>
</event>
<event>
 3    1  0.1615911E-001  0.1250000E+03  0.7546771E-02  0.1235069E+00
         21   -1    0    0  502  501  0.00000000000E+00  0.00000000000E+00  0.16071648083E+02  0.16071648083E+02  0.00000000000E+00 0. -1.
         21   -1    0    0  501  502 -0.00000000000E+00 -0.00000000000E+00 -0.24305223583E+03  0.24305223583E+03  0.00000000000E+00 0. -1.
         25    1    1    2    0    0  0.00000000000E+00  0.00000000000E+00 -0.22698058775E+03  0.25912388392E+03  0.12500000000E+03 0.  0.
<mgrwt>
<rscale>  0 0.12500000E+03</rscale>
<asrwt>0</asrwt>
<pdfrwt beam="1">  1       21 0.24725614E-02 0.12500000E+03</pdfrwt>
<pdfrwt beam="2">  1       21 0.37392650E-01 0.12500000E+03</pdfrwt>
<totfact> 0.59029667E+06</totfact>
</mgrwt>
</event>
<event>
 3    1  0.1615911E-001  0.1250000E+03  0.7546771E-02  0.1235069E+00
         21   -1    0    0  502  501  0.00000000000E+00  0.00000000000E+00  0.44562300325E+03  0.44562300325E+03  0.00000000000E+00 0. -1.
         21   -1    0    0  501  502 -0.00000000000E+00 -0.00000000000E+00 -0.87658176788E+01  0.87658176788E+01  0.00000000000E+00 0. -1.
         25    1    1    2    0    0  0.00000000000E+00  0.00000000000E+00  0.43685718557E+03  0.45438882093E+03  0.12500000000E+03 0.  0.
<mgrwt>
<rscale>  0 0.12500000E+03</rscale>
<asrwt>0</asrwt>
<pdfrwt beam="1">  1       21 0.68557367E-01 0.12500000E+03</pdfrwt>
<pdfrwt beam="2">  1       21 0.13485877E-02 0.12500000E+03</pdfrwt>
<totfact> 0.44630818E+06</totfact>
</mgrwt>
</event>
<event>
 3    1  0.1615911E-001  0.1250000E+03  0.7546771E-02  0.1235069E+00
         21   -1    0    0  502  501  0.00000000000E+00  0.00000000000E+00  0.29549196537E+02  0.29549196537E+02  0.00000000000E+00 0. -1.
         21   -1    0    0  501  502 -0.00000000000E+00 -0.00000000000E+00 -0.13219479572E+03  0.13219479572E+03  0.00000000000E+00 0. -1.
         25    1    1    2    0    0  0.00000000000E+00  0.00000000000E+00 -0.10264559918E+03  0.16174399226E+03  0.12500000000E+03 0.  0.
<mgrwt>
<rscale>  0 0.12500000E+03</rscale>
<asrwt>0</asrwt>
<pdfrwt beam="1">  1       21 0.45460302E-02 0.12500000E+03</pdfrwt>
<pdfrwt beam="2">  1       21 0.20337661E-01 0.12500000E+03</pdfrwt>
<totfact> 0.69307024E+06</totfact>
</mgrwt>
</event>
<event>
 3    1  0.1615911E-001  0.1250000E+03  0.7546771E-02  0.1235069E+00
         21   -1    0    0  502  501  0.00000000000E+00  0.00000000000E+00  0.81185908970E+02  0.81185908970E+02  0.00000000000E+00 0. -1.
         21   -1    0    0  501  502 -0.00000000000E+00 -0.00000000000E+00 -0.48114876702E+02  0.48114876702E+02  0.00000000000E+00 0. -1.
         25    1    1    2    0    0  0.00000000000E+00  0.00000000000E+00  0.33071032268E+02  0.12930078567E+03  0.12500000000E+03 0.  0.
<mgrwt>
<rscale>  0 0.12500000E+03</rscale>
<asrwt>0</asrwt>
<pdfrwt beam="1">  1       21 0.12490140E-01 0.12500000E+03</pdfrwt>
<pdfrwt beam="2">  1       21 0.74022887E-02 0.12500000E+03</pdfrwt>
<totfact> 0.73458517E+06</totfact>
</mgrwt>
</event>
<event>
 3    1  0.1615911E-001  0.1250000E+03  0.7546771E-02  0.1235069E+00
         21   -1    0    0  502  501  0.00000000000E+00  0.00000000000E+00  0.66101320269E+03  0.66101320269E+03  0.00000000000E+00 0.  1.
         21   -1    0    0  501  502 -0.00000000000E+00 -0.00000000000E+00 -0.59094886216E+01  0.59094886216E+01  0.00000000000E+00 0.  1.
         25    1    1    2    0    0  0.00000000000E+00  0.00000000000E+00  0.65510371406E+03  0.66692269131E+03  0.12500000000E+03 0.  0.
<mgrwt>
<rscale>  0 0.12500000E+03</rscale>
<asrwt>0</asrwt>
<pdfrwt beam="1">  1       21 0.10169428E+00 0.12500000E+03</pdfrwt>
<pdfrwt beam="2">  1       21 0.90915262E-03 0.12500000E+03</pdfrwt>
<totfact> 0.34224774E+06</totfact>
</mgrwt>
</event>
<event>
 3    1  0.1615911E-001  0.1250000E+03  0.7546771E-02  0.1235069E+00
         21   -1    0    0  502  501  0.00000000000E+00  0.00000000000E+00  0.60851701197E+02  0.60851701197E+02  0.00000000000E+00 0.  1.
         21   -1    0    0  501  502 -0.00000000000E+00 -0.00000000000E+00 -0.64192946511E+02  0.64192946511E+02  0.00000000000E+00 0.  1.
         25    1    1    2    0    0  0.00000000000E+00  0.00000000000E+00 -0.33412453142E+01  0.12504464771E+03  0.12500000000E+03 0.  0.
<mgrwt>
<rscale>  0 0.12500000E+03</rscale>
<asrwt>0</asrwt>
<pdfrwt beam="1">  1       21 0.93618002E-02 0.12500000E+03</pdfrwt>
<pdfrwt beam="2">  1       21 0.98758379E-02 0.12500000E+03</pdfrwt>
<totfact> 0.74037551E+06</totfact>
</mgrwt>
</event>
<event>
 3    1  0.1615911E-001  0.1250000E+03  0.7546771E-02  0.1235069E+00
         21   -1    0    0  502  501  0.00000000000E+00  0.00000000000E+00  0.11864059475E+03  0.11864059475E+03  0.00000000000E+00 0.  1.
         21   -1    0    0  501  502 -0.00000000000E+00 -0.00000000000E+00 -0.32925070952E+02  0.32925070952E+02  0.00000000000E+00 0.  1.
         25    1    1    2    0    0  0.00000000000E+00  0.00000000000E+00  0.85715523798E+02  0.15156566570E+03  0.12500000000E+03 0.  0.
<mgrwt>
<rscale>  0 0.12500000E+03</rscale>
<asrwt>0</asrwt>
<pdfrwt beam="1">  1       21 0.18252399E-01 0.12500000E+03</pdfrwt>
<pdfrwt beam="2">  1       21 0.50653956E-02 0.12500000E+03</pdfrwt>
<totfact> 0.70563075E+06</totfact>
</mgrwt>
</event>
<event>
 3    1  0.1615911E-001  0.1250000E+03  0.7546771E-02  0.1235069E+00
         21   -1    0    0  502  501  0.00000000000E+00  0.00000000000E+00  0.40075890887E+02  0.40075890887E+02  0.00000000000E+00 0.  1.
         21   -1    0    0  501  502 -0.00000000000E+00 -0.00000000000E+00 -0.97471320376E+02  0.97471320376E+02  0.00000000000E+00 0.  1.
         25    1    1    2    0    0  0.00000000000E+00  0.00000000000E+00 -0.57395429489E+02  0.13754721126E+03  0.12500000000E+03 0.  0.
<mgrwt>
<rscale>  0 0.12500000E+03</rscale>
<asrwt>0</asrwt>
<pdfrwt beam="1">  1       21 0.61655216E-02 0.12500000E+03</pdfrwt>
<pdfrwt beam="2">  1       21 0.14995588E-01 0.12500000E+03</pdfrwt>
<totfact> 0.72360928E+06</totfact>
</mgrwt>
</event>
<event>
 3    1  0.1615911E-001  0.1250000E+03  0.7546771E-02  0.1235069E+00
         21   -1    0    0  502  501  0.00000000000E+00  0.00000000000E+00  0.33773642695E+02  0.33773642695E+02  0.00000000000E+00 0.  1.
         21   -1    0    0  501  502 -0.00000000000E+00 -0.00000000000E+00 -0.11565971830E+03  0.11565971830E+03  0.00000000000E+00 0.  1.
         25    1    1    2    0    0  0.00000000000E+00  0.00000000000E+00 -0.81886075602E+02  0.14943336099E+03  0.12500000000E+03 0.  0.
<mgrwt>
<rscale>  0 0.12500000E+03</rscale>
<asrwt>0</asrwt>
<pdfrwt beam="1">  1       21 0.51959450E-02 0.12500000E+03</pdfrwt>
<pdfrwt beam="2">  1       21 0.17793803E-01 0.12500000E+03</pdfrwt>
<totfact> 0.70830453E+06</totfact>
</mgrwt>
</event>
<event>
 3    1  0.1615911E-001  0.1250000E+03  0.7546771E-02  0.1235069E+00
         21   -1    0    0  502  501  0.00000000000E+00  0.00000000000E+00  0.16574434079E+02  0.16574434079E+02  0.00000000000E+00 0.  1.
         21   -1    0    0  501  502 -0.00000000000E+00 -0.00000000000E+00 -0.23567923836E+03  0.23567923836E+03  0.00000000000E+00 0.  1.
         25    1    1    2    0    0  0.00000000000E+00  0.00000000000E+00 -0.21910480429E+03  0.25225367244E+03  0.12500000000E+03 0.  0.
<mgrwt>
<rscale>  0 0.12500000E+03</rscale>
<asrwt>0</asrwt>
<pdfrwt beam="1">  1       21 0.25499132E-02 0.12500000E+03</pdfrwt>
<pdfrwt beam="2">  1       21 0.36258341E-01 0.12500000E+03</pdfrwt>
<totfact> 0.59666658E+06</totfact>
</mgrwt>
</event>
<event>
 3    1  0.1615911E-001  0.1250000E+03  0.7546771E-02  0.1235069E+00
         21   -1    0    0  502  501  0.00000000000E+00  0.00000000000E+00  0.55033344456E+01  0.55033344456E+01  0.00000000000E+00 0. -1.
         21   -1    0    0  501  502 -0.00000000000E+00 -0.00000000000E+00 -0.70979694922E+03  0.70979694922E+03  0.00000000000E+00 0. -1.
         25    1    1    2    0    0  0.00000000000E+00  0.00000000000E+00 -0.70429361478E+03  0.71530028367E+03  0.12500000000E+03 0.  0.
<mgrwt>
<rscale>  0 0.12500000E+03</rscale>
<asrwt>0</asrwt>
<pdfrwt beam="1">  1       21 0.84666673E-03 0.12500000E+03</pdfrwt>
<pdfrwt beam="2">  1       21 0.10919954E+00 0.12500000E+03</pdfrwt>
<totfact> 0.32328546E+06</totfact>
</mgrwt>
</event>
<event>
 3    1  0.1615911E-001  0.1250000E+03  0.7546771E-02  0.1235069E+00
         21   -1    0    0  502  501  0.00000000000E+00  0.00000000000E+00  0.28047629747E+02  0.28047629747E+02  0.00000000000E+00 0. -1.
         21   -1    0    0  501  502 -0.00000000000E+00 -0.00000000000E+00 -0.13927201818E+03  0.13927201818E+03  0.00000000000E+00 0. -1.
         25    1    1    2    0    0  0.00000000000E+00  0.00000000000E+00 -0.11122438843E+03  0.16731964793E+03  0.12500000000E+03 0.  0.
<mgrwt>
<rscale>  0 0.12500000E+03</rscale>
<asrwt>0</asrwt>
<pdfrwt beam="1">  1       21 0.43150199E-02 0.12500000E+03</pdfrwt>
<pdfrwt beam="2">  1       21 0.21426465E-01 0.12500000E+03</pdfrwt>
<totfact> 0.68635990E+06</totfact>
</mgrwt>
</event>
<event>
 3    1  0.1615911E-001  0.1250000E+03  0.7546771E-02  0.1235069E+00
         21   -1    0    0  502  501  0.00000000000E+00  0.00000000000E+00  0.88545397882E+02  0.88545397882E+02  0.00000000000E+00 0.  1.
         21   -1    0    0  501  502 -0.00000000000E+00 -0.00000000000E+00 -0.44115787985E+02  0.44115787985E+02  0.00000000000E+00 0.  1.
         25    1    1    2    0    0  0.00000000000E+00  0.00000000000E+00  0.44429609897E+02  0.13266118587E+03  0.12500000000E+03 0.  0.
<mgrwt>
<rscale>  0 0.12500000E+03</rscale>
<asrwt>0</asrwt>
<pdfrwt beam="1">  1       21 0.13622369E-01 0.12500000E+03</pdfrwt>
<pdfrwt beam="2">  1       21 0.67870443E-02 0.12500000E+03</pdfrwt>
<totfact> 0.73007675E+06</totfact>
</mgrwt>
</event>
<event>
 3    1  0.1615911E-001  0.1250000E+03  0.7546771E-02  0.1235069E+00
         21   -1    0    0  502  501  0.00000000000E+00  0.00000000000E+00  0.30286810965E+02  0.30286810965E+02  0.00000000000E+00 0. -1.
         21   -1    0    0  501  502 -0.00000000000E+00 -0.00000000000E+00 -0.12897528249E+03  0.12897528249E+03  0.00000000000E+00 0. -1.
         25    1    1    2    0    0  0.00000000000E+00  0.00000000000E+00 -0.98688471529E+02  0.15926209346E+03  0.12500000000E+03 0.  0.
<mgrwt>
<rscale>  0 0.12500000E+03</rscale>
<asrwt>0</asrwt>
<pdfrwt beam="1">  1       21 0.46595095E-02 0.12500000E+03</pdfrwt>
<pdfrwt beam="2">  1       21 0.19842351E-01 0.12500000E+03</pdfrwt>
<totfact> 0.69609773E+06</totfact>
</mgrwt>
</event>
<event>
 3    1  0.1615911E-001  0.1250000E+03  0.7546771E-02  0.1235069E+00
         21   -1    0    0  502  501  0.00000000000E+00  0.00000000000E+00  0.91514601695E+02  0.91514601695E+02  0.00000000000E+00 0.  1.
         21   -1    0    0  501  502 -0.00000000000E+00 -0.00000000000E+00 -0.42684445188E+02  0.42684445188E+02  0.00000000000E+00 0.  1.
         25    1    1    2    0    0  0.00000000000E+00  0.00000000000E+00  0.48830156507E+02  0.13419904688E+03  0.12500000000E+03 0.  0.
<mgrwt>
<rscale>  0 0.12500000E+03</rscale>
<asrwt>0</asrwt>
<pdfrwt beam="1">  1       21 0.14079169E-01 0.12500000E+03</pdfrwt>
<pdfrwt beam="2">  1       21 0.65668377E-02 0.12500000E+03</pdfrwt>
<totfact> 0.72802699E+06</totfact>
</mgrwt>
</event>
<event>
 3    1  0.1615911E-001  0.1250000E+03  0.7546771E-02  0.1235069E+00
         21   -1    0    0  502  501  0.00000000000E+00  0.00000000000E+00  0.21114607086E+03  0.21114607086E+03  0.00000000000E+00 0.  1.
         21   -1    0    0  501  502 -0.00000000000E+00 -0.00000000000E+00 -0.18500225858E+02  0.18500225858E+02  0.00000000000E+00 0.  1.
         25    1    1    2    0    0  0.00000000000E+00  0.00000000000E+00  0.19264584500E+03  0.22964629672E+03  0.12500000000E+03 0.  0.
<mgrwt>
<rscale>  0 0.12500000E+03</rscale>
<asrwt>0</asrwt>
<pdfrwt beam="1">  1       21 0.32484009E-01 0.12500000E+03</pdfrwt>
<pdfrwt beam="2">  1       21 0.28461887E-02 0.12500000E+03</pdfrwt>
<totfact> 0.61849198E+06</totfact>
</mgrwt>
</event>
<event>
 3    1  0.1615911E-001  0.1250000E+03  0.7546771E-02  0.1235069E+00
         21   -1    0    0  502  501  0.00000000000E+00  0.00000000000E+00  0.19246141823E+03  0.19246141823E+03  0.00000000000E+00 0. -1.
         21   -1    0    0  501  502 -0.00000000000E+00 -0.00000000000E+00 -0.20296275669E+02  0.20296275669E+02  0.00000000000E+00 0. -1.
         25    1    1    2    0    0  0.00000000000E+00  0.00000000000E+00  0.17216514256E+03  0.21275769390E+03  0.12500000000E+03 0.  0.
<mgrwt>
<rscale>  0 0.12500000E+03</rscale>
<asrwt>0</asrwt>
<pdfrwt beam="1">  1       21 0.29609448E-01 0.12500000E+03</pdfrwt>
<pdfrwt beam="2">  1       21 0.31225041E-02 0.12500000E+03</pdfrwt>
<totfact> 0.63570559E+06</totfact>
</mgrwt>
</event>
<event>
 3    1  0.1615911E-001  0.1250000E+03  0.7546771E-02  0.1235069E+00
         21   -1    0    0  502  501  0.00000000000E+00  0.00000000000E+00  0.66938782968E+01  0.66938782968E+01  0.00000000000E+00 0. -1.
         21   -1    0    0  501  502 -0.00000000000E+00 -0.00000000000E+00 -0.58355557523E+03  0.58355557523E+03  0.00000000000E+00 0. -1.
         25    1    1    2    0    0  0.00000000000E+00  0.00000000000E+00 -0.57686169693E+03  0.59024945353E+03  0.12500000000E+03 0.  0.
<mgrwt>
<rscale>  0 0.12500000E+03</rscale>
<asrwt>0</asrwt>
<pdfrwt beam="1">  1       21 0.10298275E-02 0.12500000E+03</pdfrwt>
<pdfrwt beam="2">  1       21 0.89777777E-01 0.12500000E+03</pdfrwt>
<totfact> 0.37537333E+06</totfact>
</mgrwt>
</event>
<event>
 3    1  0.1615911E-001  0.1250000E+03  0.7546771E-02  0.1235069E+00
         21   -1    0    0  502  501  0.00000000000E+00  0.00000000000E+00  0.74098622362E+03  0.74098622362E+03  0.00000000000E+00 0.  1.
         21   -1    0    0  501  502 -0.00000000000E+00 -0.00000000000E+00 -0.52716904519E+01  0.52716904519E+01  0.00000000000E+00 0.  1.
         25    1    1    2    0    0  0.00000000000E+00  0.00000000000E+00  0.73571453317E+03  0.74625791407E+03  0.12500000000E+03 0.  0.
<mgrwt>
<rscale>  0 0.12500000E+03</rscale>
<asrwt>0</asrwt>
<pdfrwt beam="1">  1       21 0.11399780E+00 0.12500000E+03</pdfrwt>
<pdfrwt beam="2">  1       21 0.81102989E-03 0.12500000E+03</pdfrwt>
<totfact> 0.31200931E+06</totfact>
</mgrwt>
</event>
<event>
 3    1  0.1615911E-001  0.1250000E+03  0.7546771E-02  0.1235069E+00
         21   -1    0    0  502  501  0.00000000000E+00  0.00000000000E+00  0.12254338490E+02  0.12254338490E+02  0.00000000000E+00 0. -1.
         21   -1    0    0  501  502 -0.00000000000E+00 -0.00000000000E+00 -0.31876465655E+03  0.31876465655E+03  0.00000000000E+00 0. -1.
         25    1    1    2    0    0  0.00000000000E+00  0.00000000000E+00 -0.30651031806E+03  0.33101899504E+03  0.12500000000E+03 0.  0.
<mgrwt>
<rscale>  0 0.12500000E+03</rscale>
<asrwt>0</asrwt>
<pdfrwt beam="1">  1       21 0.18852831E-02 0.12500000E+03</pdfrwt>
<pdfrwt beam="2">  1       21 0.49040709E-01 0.12500000E+03</pdfrwt>
<totfact> 0.52971538E+06</totfact>
</mgrwt>
</event>
<event>
 3    1  0.1615911E-001  0.1250000E+03  0.7546771E-02  0.1235069E+00
         21   -1    0    0  502  501  0.00000000000E+00  0.00000000000E+00  0.62780445909E+01  0.62780445909E+01  0.00000000000E+00 0.  1.
         21   -1    0    0  501  502 -0.00000000000E+00 -0.00000000000E+00 -0.62220806868E+03  0.62220806868E+03  0.00000000000E+00 0.  1.
         25    1    1    2    0    0  0.00000000000E+00  0.00000000000E+00 -0.61593002409E+03  0.62848611327E+03  0.12500000000E+03 0.  0.
<mgrwt>
<rscale>  0 0.12500000E+03</rscale>
<asrwt>0</asrwt>
<pdfrwt beam="1">  1       21 0.96585295E-03 0.12500000E+03</pdfrwt>
<pdfrwt beam="2">  1       21 0.95724324E-01 0.12500000E+03</pdfrwt>
<totfact> 0.35835265E+06</totfact>
</mgrwt>
</event>
<event>
 3    1  0.1615911E-001  0.1250000E+03  0.7546771E-02  0.1235069E+00
         21   -1    0    0  502  501  0.00000000000E+00  0.00000000000E+00  0.32668805263E+02  0.32668805263E+02  0.00000000000E+00 0. -1.
         21   -1    0    0  501  502 -0.00000000000E+00 -0.00000000000E+00 -0.11957125363E+03  0.11957125363E+03  0.00000000000E+00 0. -1.
         25    1    1    2    0    0  0.00000000000E+00  0.00000000000E+00 -0.86902448371E+02  0.15224005890E+03  0.12500000000E+03 0.  0.
<mgrwt>
<rscale>  0 0.12500000E+03</rscale>
<asrwt>0</asrwt>
<pdfrwt beam="1">  1       21 0.50259701E-02 0.12500000E+03</pdfrwt>
<pdfrwt beam="2">  1       21 0.18395577E-01 0.12500000E+03</pdfrwt>
<totfact> 0.70478930E+06</totfact>
</mgrwt>
</event>
<event>
 3    1  0.1615911E-001  0.1250000E+03  0.7546771E-02  0.1235069E+00
         21   -1    0    0  502  501  0.00000000000E+00  0.00000000000E+00  0.37295733640E+03  0.37295733640E+03  0.00000000000E+00 0.  1.
         21   -1    0    0  501  502 -0.00000000000E+00 -0.00000000000E+00 -0.10473718087E+02  0.10473718087E+02  0.00000000000E+00 0.  1.
         25    1    1    2    0    0  0.00000000000E+00  0.00000000000E+00  0.36248361832E+03  0.38343105449E+03  0.12500000000E+03 0.  0.
<mgrwt>
<rscale>  0 0.12500000E+03</rscale>
<asrwt>0</asrwt>
<pdfrwt beam="1">  1       21 0.57378042E-01 0.12500000E+03</pdfrwt>
<pdfrwt beam="2">  1       21 0.16113415E-02 0.12500000E+03</pdfrwt>
<totfact> 0.49160127E+06</totfact>
</mgrwt>
</event>
<event>
 3    1  0.1615911E-001  0.1250000E+03  0.7546771E-02  0.1235069E+00
         21   -1    0    0  502  501  0.00000000000E+00  0.00000000000E+00  0.24859267675E+03  0.24859267675E+03  0.00000000000E+00 0.  1.
         21   -1    0    0  501  502 -0.00000000000E+00 -0.00000000000E+00 -0.15713455646E+02  0.15713455646E+02  0.00000000000E+00 0.  1.
         25    1    1    2    0    0  0.00000000000E+00  0.00000000000E+00  0.23287922110E+03  0.26430613239E+03  0.12500000000E+03 0.  0.
<mgrwt>
<rscale>  0 0.12500000E+03</rscale>
<asrwt>0</asrwt>
<pdfrwt beam="1">  1       21 0.38245025E-01 0.12500000E+03</pdfrwt>
<pdfrwt beam="2">  1       21 0.24174549E-02 0.12500000E+03</pdfrwt>
<totfact> 0.58556827E+06</totfact>
</mgrwt>
</event>
<event>
 3    1  0.1615911E-001  0.1250000E+03  0.7546771E-02  0.1235069E+00
         21   -1    0    0  502  501  0.00000000000E+00  0.00000000000E+00  0.78762408978E+03  0.78762408978E+03  0.00000000000E+00 0. -1.
         21   -1    0    0  501  502 -0.00000000000E+00 -0.00000000000E+00 -0.49595359648E+01  0.49595359648E+01  0.00000000000E+00 0. -1.
         25    1    1    2    0    0  0.00000000000E+00  0.00000000000E+00  0.78266455381E+03  0.79258362574E+03  0.12500000000E+03 0.  0.
<mgrwt>
<rscale>  0 0.12500000E+03</rscale>
<asrwt>0</asrwt>
<pdfrwt beam="1">  1       21 0.12117284E+00 0.12500000E+03</pdfrwt>
<pdfrwt beam="2">  1       21 0.76300616E-03 0.12500000E+03</pdfrwt>
<totfact> 0.29610040E+06</totfact>
</mgrwt>
</event>
<event>
 3    1  0.1615911E-001  0.1250000E+03  0.7546771E-02  0.1235069E+00
         21   -1    0    0  502  501  0.00000000000E+00  0.00000000000E+00  0.19510452205E+02  0.19510452205E+02  0.00000000000E+00 0. -1.
         21   -1    0    0  501  502 -0.00000000000E+00 -0.00000000000E+00 -0.20021319644E+03  0.20021319644E+03  0.00000000000E+00 0. -1.
         25    1    1    2    0    0  0.00000000000E+00  0.00000000000E+00 -0.18070274424E+03  0.21972364865E+03  0.12500000000E+03 0.  0.
<mgrwt>
<rscale>  0 0.12500000E+03</rscale>
<asrwt>0</asrwt>
<pdfrwt beam="1">  1       21 0.30016080E-02 0.12500000E+03</pdfrwt>
<pdfrwt beam="2">  1       21 0.30802030E-01 0.12500000E+03</pdfrwt>
<totfact> 0.62850793E+06</totfact>
</mgrwt>
</event>
<event>
 3    1  0.1615911E-001  0.1250000E+03  0.7546771E-02  0.1235069E+00
         21   -1    0    0  502  501  0.00000000000E+00  0.00000000000E+00  0.47474375541E+02  0.47474375541E+02  0.00000000000E+00 0. -1.
         21   -1    0    0  501  502 -0.00000000000E+00 -0.00000000000E+00 -0.82281229726E+02  0.82281229726E+02  0.00000000000E+00 0. -1.
         25    1    1    2    0    0  0.00000000000E+00  0.00000000000E+00 -0.34806854185E+02  0.12975560527E+03  0.12500000000E+03 0.  0.
<mgrwt>
<rscale>  0 0.12500000E+03</rscale>
<asrwt>0</asrwt>
<pdfrwt beam="1">  1       21 0.73037501E-02 0.12500000E+03</pdfrwt>
<pdfrwt beam="2">  1       21 0.12658651E-01 0.12500000E+03</pdfrwt>
<totfact> 0.73397596E+06</totfact>
</mgrwt>
</event>
<event>
 3    1  0.1615911E-001  0.1250000E+03  0.7546771E-02  0.1235069E+00
         21   -1    0    0  502  501  0.00000000000E+00  0.00000000000E+00  0.17711376141E+03  0.17711376141E+03  0.00000000000E+00 0. -1.
         21   -1    0    0  501  502 -0.00000000000E+00 -0.00000000000E+00 -0.22055033832E+02  0.22055033832E+02  0.00000000000E+00 0. -1.
         25    1    1    2    0    0  0.00000000000E+00  0.00000000000E+00  0.15505872757E+03  0.19916879524E+03  0.12500000000E+03 0.  0.
<mgrwt>
<rscale>  0 0.12500000E+03</rscale>
<asrwt>0</asrwt>
<pdfrwt beam="1">  1       21 0.27248270E-01 0.12500000E+03</pdfrwt>
<pdfrwt beam="2">  1       21 0.33930822E-02 0.12500000E+03</pdfrwt>
<totfact> 0.65017430E+06</totfact>
</mgrwt>
</event>
<event>
 3    1  0.1615911E-001  0.1250000E+03  0.7546771E-02  0.1235069E+00
         21   -1    0    0  502  501  0.00000000000E+00  0.00000000000E+00  0.16249037688E+03  0.16249037688E+03  0.00000000000E+00 0.  1.
         21   -1    0    0  501  502 -0.00000000000E+00 -0.00000000000E+00 -0.24039885161E+02  0.24039885161E+02  0.00000000000E+00 0.  1.
         25    1    1    2    0    0  0.00000000000E+00  0.00000000000E+00  0.13845049172E+03  0.18653026204E+03  0.12500000000E+03 0.  0.
<mgrwt>
<rscale>  0 0.12500000E+03</rscale>
<asrwt>0</asrwt>
<pdfrwt beam="1">  1       21 0.24998519E-01 0.12500000E+03</pdfrwt>
<pdfrwt beam="2">  1       21 0.36984440E-02 0.12500000E+03</pdfrwt>
<totfact> 0.66410186E+06</totfact>
</mgrwt>
</event>
<event>
 3    1  0.1615911E-001  0.1250000E+03  0.7546771E-02  0.1235069E+00
         21   -1    0    0  502  501  0.00000000000E+00  0.00000000000E+00  0.20171772268E+03  0.20171772268E+03  0.00000000000E+00 0. -1.
         21   -1    0    0  501  502 -0.00000000000E+00 -0.00000000000E+00 -0.19364932085E+02  0.19364932085E+02  0.00000000000E+00 0. -1.
         25    1    1    2    0    0  0.00000000000E+00  0.00000000000E+00  0.18235279059E+03  0.22108265476E+03  0.12500000000E+03 0.  0.
<mgrwt>
<rscale>  0 0.12500000E+03</rscale>
<asrwt>0</asrwt>
<pdfrwt beam="1">  1       21 0.31033494E-01 0.12500000E+03</pdfrwt>
<pdfrwt beam="2">  1       21 0.29792205E-02 0.12500000E+03</pdfrwt>
<totfact> 0.62712045E+06</totfact>
</mgrwt>
</event>
<event>
 3    1  0.1615911E-001  0.1250000E+03  0.7546771E-02  0.1235069E+00
         21   -1    0    0  502  501  0.00000000000E+00  0.00000000000E+00  0.35186360427E+03  0.35186360427E+03  0.00000000000E+00 0. -1.
         21   -1    0    0  501  502 -0.00000000000E+00 -0.00000000000E+00 -0.11101602873E+02  0.11101602873E+02  0.00000000000E+00 0. -1.
         25    1    1    2    0    0  0.00000000000E+00  0.00000000000E+00  0.34076200140E+03  0.36296520714E+03  0.12500000000E+03 0.  0.
<mgrwt>
<rscale>  0 0.12500000E+03</rscale>
<asrwt>0</asrwt>
<pdfrwt beam="1">  1       21 0.54132854E-01 0.12500000E+03</pdfrwt>
<pdfrwt beam="2">  1       21 0.17079392E-02 0.12500000E+03</pdfrwt>
<totfact> 0.50594942E+06</totfact>
</mgrwt>
</event>
<event>
 3    1  0.1615911E-001  0.1250000E+03  0.7546771E-02  0.1235069E+00
         21   -1    0    0  502  501  0.00000000000E+00  0.00000000000E+00  0.35040423731E+03  0.35040423731E+03  0.00000000000E+00 0. -1.
         21   -1    0    0  501  502 -0.00000000000E+00 -0.00000000000E+00 -0.11147838936E+02  0.11147838936E+02  0.00000000000E+00 0. -1.
         25    1    1    2    0    0  0.00000000000E+00  0.00000000000E+00  0.33925639838E+03  0.36155207625E+03  0.12500000000E+03 0.  0.
<mgrwt>
<rscale>  0 0.12500000E+03</rscale>
<asrwt>0</asrwt>
<pdfrwt beam="1">  1       21 0.53908336E-01 0.12500000E+03</pdfrwt>
<pdfrwt beam="2">  1       21 0.17150524E-02 0.12500000E+03</pdfrwt>
<totfact> 0.50696435E+06</totfact>
</mgrwt>
</event>
<event>
 3    1  0.1615911E-001  0.1250000E+03  0.7546771E-02  0.1235069E+00
         21   -1    0    0  502  501  0.00000000000E+00  0.00000000000E+00  0.11276783025E+02  0.11276783025E+02  0.00000000000E+00 0.  1.
         21   -1    0    0  501  502 -0.00000000000E+00 -0.00000000000E+00 -0.34639754897E+03  0.34639754897E+03  0.00000000000E+00 0.  1.
         25    1    1    2    0    0  0.00000000000E+00  0.00000000000E+00 -0.33512076595E+03  0.35767433200E+03  0.12500000000E+03 0.  0.
<mgrwt>
<rscale>  0 0.12500000E+03</rscale>
<asrwt>0</asrwt>
<pdfrwt beam="1">  1       21 0.17348901E-02 0.12500000E+03</pdfrwt>
<pdfrwt beam="2">  1       21 0.53291919E-01 0.12500000E+03</pdfrwt>
<totfact> 0.50976613E+06</totfact>
</mgrwt>
</event>
<event>
 3    1  0.1615911E-001  0.1250000E+03  0.7546771E-02  0.1235069E+00
         21   -1    0    0  502  501  0.00000000000E+00  0.00000000000E+00  0.79761264078E+02  0.79761264078E+02  0.00000000000E+00 0.  1.
         21   -1    0    0  501  502 -0.00000000000E+00 -0.00000000000E+00 -0.48974273981E+02  0.48974273981E+02  0.00000000000E+00 0.  1.
         25    1    1    2    0    0  0.00000000000E+00  0.00000000000E+00  0.30786990097E+02  0.12873553806E+03  0.12500000000E+03 0.  0.
<mgrwt>
<rscale>  0 0.12500000E+03</rscale>
<asrwt>0</asrwt>
<pdfrwt beam="1">  1       21 0.12270964E-01 0.12500000E+03</pdfrwt>
<pdfrwt beam="2">  1       21 0.75345037E-02 0.12500000E+03</pdfrwt>
<totfact> 0.73534423E+06</totfact>
</mgrwt>
</event>
<event>
 3    1  0.1615911E-001  0.1250000E+03  0.7546771E-02  0.1235069E+00
         21   -1    0    0  502  501  0.00000000000E+00  0.00000000000E+00  0.12068697063E+03  0.12068697063E+03  0.00000000000E+00 0.  1.
         21   -1    0    0  501  502 -0.00000000000E+00 -0.00000000000E+00 -0.32366791375E+02  0.32366791375E+02  0.00000000000E+00 0.  1.
         25    1    1    2    0    0  0.00000000000E+00  0.00000000000E+00  0.88320179253E+02  0.15305376200E+03  0.12500000000E+03 0.  0.
<mgrwt>
<rscale>  0 0.12500000E+03</rscale>
<asrwt>0</asrwt>
<pdfrwt beam="1">  1       21 0.18567226E-01 0.12500000E+03</pdfrwt>
<pdfrwt beam="2">  1       21 0.49795064E-02 0.12500000E+03</pdfrwt>
<totfact> 0.70377668E+06</totfact>
</mgrwt>
</event>
<event>
 3    1  0.1615911E-001  0.1250000E+03  0.7546771E-02  0.1235069E+00
         21   -1    0    0  502  501  0.00000000000E+00  0.00000000000E+00  0.13339413061E+03  0.13339413061E+03  0.00000000000E+00 0. -1.
         21   -1    0    0  501  502 -0.00000000000E+00 -0.00000000000E+00 -0.29283522313E+02  0.29283522313E+02  0.00000000000E+00 0. -1.
         25    1    1    2    0    0  0.00000000000E+00  0.00000000000E+00  0.10411060829E+03  0.16267765292E+03  0.12500000000E+03 0.  0.
<mgrwt>
<rscale>  0 0.12500000E+03</rscale>
<asrwt>0</asrwt>
<pdfrwt beam="1">  1       21 0.20522174E-01 0.12500000E+03</pdfrwt>
<pdfrwt beam="2">  1       21 0.45051573E-02 0.12500000E+03</pdfrwt>
<totfact> 0.69193787E+06</totfact>
</mgrwt>
</event>
<event>
 3    1  0.1615911E-001  0.1250000E+03  0.7546771E-02  0.1235069E+00
         21   -1    0    0  502  501  0.00000000000E+00  0.00000000000E+00  0.23178615543E+02  0.23178615543E+02  0.00000000000E+00 0. -1.
         21   -1    0    0  501  502 -0.00000000000E+00 -0.00000000000E+00 -0.16852818464E+03  0.16852818464E+03  0.00000000000E+00 0. -1.
         25    1    1    2    0    0  0.00000000000E+00  0.00000000000E+00 -0.14534956910E+03  0.19170680019E+03  0.12500000000E+03 0.  0.
<mgrwt>
<rscale>  0 0.12500000E+03</rscale>
<asrwt>0</asrwt>
<pdfrwt beam="1">  1       21 0.35659410E-02 0.12500000E+03</pdfrwt>
<pdfrwt beam="2">  1       21 0.25927412E-01 0.12500000E+03</pdfrwt>
<totfact> 0.65833270E+06</totfact>
</mgrwt>
</event>
<event>
 3    1  0.1615911E-001  0.1250000E+03  0.7546771E-02  0.1235069E+00
         21   -1    0    0  502  501  0.00000000000E+00  0.00000000000E+00  0.18618267684E+02  0.18618267684E+02  0.00000000000E+00 0.  1.
         21   -1    0    0  501  502 -0.00000000000E+00 -0.00000000000E+00 -0.20980738199E+03  0.20980738199E+03  0.00000000000E+00 0.  1.
         25    1    1    2    0    0  0.00000000000E+00  0.00000000000E+00 -0.19118911431E+03  0.22842564968E+03  0.12500000000E+03 0.  0.
<mgrwt>
<rscale>  0 0.12500000E+03</rscale>
<asrwt>0</asrwt>
<pdfrwt beam="1">  1       21 0.28643490E-02 0.12500000E+03</pdfrwt>
<pdfrwt beam="2">  1       21 0.32278058E-01 0.12500000E+03</pdfrwt>
<totfact> 0.61971005E+06</totfact>
</mgrwt>
</event>
<event>
 3    1  0.1615911E-001  0.1250000E+03  0.7546771E-02  0.1235069E+00
         21   -1    0    0  502  501  0.00000000000E+00  0.00000000000E+00  0.33208375261E+02  0.33208375261E+02  0.00000000000E+00 0. -1.
         21   -1    0    0  501  502 -0.00000000000E+00 -0.00000000000E+00 -0.11762845876E+03  0.11762845876E+03  0.00000000000E+00 0. -1.
         25    1    1    2    0    0  0.00000000000E+00  0.00000000000E+00 -0.84420083503E+02  0.15083683403E+03  0.12500000000E+03 0.  0.
<mgrwt>
<rscale>  0 0.12500000E+03</rscale>
<asrwt>0</asrwt>
<pdfrwt beam="1">  1       21 0.51089809E-02 0.12500000E+03</pdfrwt>
<pdfrwt beam="2">  1       21 0.18096686E-01 0.12500000E+03</pdfrwt>
<totfact> 0.70654238E+06</totfact>
</mgrwt>
</event>
<event>
 3    1  0.1615911E-001  0.1250000E+03  0.7546771E-02  0.1235069E+00
         21   -1    0    0  502  501  0.00000000000E+00  0.00000000000E+00  0.33042892527E+01  0.33042892527E+01  0.00000000000E+00 0.  1.
         21   -1    0    0  501  502 -0.00000000000E+00 -0.00000000000E+00 -0.11821755607E+04  0.11821755607E+04  0.00000000000E+00 0.  1.
         25    1    1    2    0    0  0.00000000000E+00  0.00000000000E+00 -0.11788712714E+04  0.11854798499E+04  0.12500000000E+03 0.  0.
<mgrwt>
<rscale>  0 0.12500000E+03</rscale>
<asrwt>0</asrwt>
<pdfrwt beam="1">  1       21 0.50835182E-03 0.12500000E+03</pdfrwt>
<pdfrwt beam="2">  1       21 0.18187330E+00 0.12500000E+03</pdfrwt>
<totfact> 0.19435139E+06</totfact>
</mgrwt>
</event>
<event>
 3    1  0.1615911E-001  0.1250000E+03  0.7546771E-02  0.1235069E+00
         21   -1    0    0  502  501  0.00000000000E+00  0.00000000000E+00  0.45599495895E+02  0.45599495895E+02  0.00000000000E+00 0. -1.
         21   -1    0    0  501  502 -0.00000000000E+00 -0.00000000000E+00 -0.85664324207E+02  0.85664324207E+02  0.00000000000E+00 0. -1.
         25    1    1    2    0    0  0.00000000000E+00  0.00000000000E+00 -0.40064828312E+02  0.13126382010E+03  0.12500000000E+03 0.  0.
<mgrwt>
<rscale>  0 0.12500000E+03</rscale>
<asrwt>0</asrwt>
<pdfrwt beam="1">  1       21 0.70153071E-02 0.12500000E+03</pdfrwt>
<pdfrwt beam="2">  1       21 0.13179127E-01 0.12500000E+03</pdfrwt>
<totfact> 0.73195141E+06</totfact>
</mgrwt>
</event>
<event>
 3    1  0.1615911E-001  0.1250000E+03  0.7546771E-02  0.1235069E+00
         21   -1    0    0  502  501  0.00000000000E+00  0.00000000000E+00  0.23299870155E+02  0.23299870155E+02  0.00000000000E+00 0. -1.
         21   -1    0    0  501  502 -0.00000000000E+00 -0.00000000000E+00 -0.16765114887E+03  0.16765114887E+03  0.00000000000E+00 0. -1.
         25    1    1    2    0    0  0.00000000000E+00  0.00000000000E+00 -0.14435127872E+03  0.19095101903E+03  0.12500000000E+03 0.  0.
<mgrwt>
<rscale>  0 0.12500000E+03</rscale>
<asrwt>0</asrwt>
<pdfrwt beam="1">  1       21 0.35845956E-02 0.12500000E+03</pdfrwt>
<pdfrwt beam="2">  1       21 0.25792483E-01 0.12500000E+03</pdfrwt>
<totfact> 0.65916924E+06</totfact>
</mgrwt>
</event>
<event>
 3    1  0.1615911E-001  0.1250000E+03  0.7546771E-02  0.1235069E+00
         21   -1    0    0  502  501  0.00000000000E+00  0.00000000000E+00  0.18595643918E+02  0.18595643918E+02  0.00000000000E+00 0. -1.
         21   -1    0    0  501  502 -0.00000000000E+00 -0.00000000000E+00 -0.21006263710E+03  0.21006263710E+03  0.00000000000E+00 0. -1.
         25    1    1    2    0    0  0.00000000000E+00  0.00000000000E+00 -0.19146699318E+03  0.22865828102E+03  0.12500000000E+03 0.  0.
<mgrwt>
<rscale>  0 0.12500000E+03</rscale>
<asrwt>0</asrwt>
<pdfrwt beam="1">  1       21 0.28608682E-02 0.12500000E+03</pdfrwt>
<pdfrwt beam="2">  1       21 0.32317330E-01 0.12500000E+03</pdfrwt>
<totfact> 0.61947757E+06</totfact>
</mgrwt>
</event>
<event>
 3    1  0.1615911E-001  0.1250000E+03  0.7546771E-02  0.1235069E+00
         21   -1    0    0  502  501  0.00000000000E+00  0.00000000000E+00  0.32981783801E+03  0.32981783801E+03  0.00000000000E+00 0. -1.
         21   -1    0    0  501  502 -0.00000000000E+00 -0.00000000000E+00 -0.11843658983E+02  0.11843658983E+02  0.00000000000E+00 0. -1.
         25    1    1    2    0    0  0.00000000000E+00  0.00000000000E+00  0.31797417902E+03  0.34166149699E+03  0.12500000000E+03 0.  0.
<mgrwt>
<rscale>  0 0.12500000E+03</rscale>
<asrwt>0</asrwt>
<pdfrwt beam="1">  1       21 0.50741199E-01 0.12500000E+03</pdfrwt>
<pdfrwt beam="2">  1       21 0.18221016E-02 0.12500000E+03</pdfrwt>
<totfact> 0.52160214E+06</totfact>
</mgrwt>
</event>
<event>
 3    1  0.1615911E-001  0.1250000E+03  0.7546771E-02  0.1235069E+00
         21   -1    0    0  502  501  0.00000000000E+00  0.00000000000E+00  0.17160462922E+02  0.17160462922E+02  0.00000000000E+00 0.  1.
         21   -1    0    0  501  502 -0.00000000000E+00 -0.00000000000E+00 -0.22763080563E+03  0.22763080563E+03  0.00000000000E+00 0.  1.
         25    1    1    2    0    0  0.00000000000E+00  0.00000000000E+00 -0.21047034271E+03  0.24479126855E+03  0.12500000000E+03 0.  0.
<mgrwt>
<rscale>  0 0.12500000E+03</rscale>
<asrwt>0</asrwt>
<pdfrwt beam="1">  1       21 0.26400711E-02 0.12500000E+03</pdfrwt>
<pdfrwt beam="2">  1       21 0.35020125E-01 0.12500000E+03</pdfrwt>
<totfact> 0.60372078E+06</totfact>
</mgrwt>
</event>
<event>
 3    1  0.1615911E-001  0.1250000E+03  0.7546771E-02  0.1235069E+00
         21   -1    0    0  502  501  0.00000000000E+00  0.00000000000E+00  0.21569838504E+03  0.21569838504E+03  0.00000000000E+00 0.  1.
         21   -1    0    0  501  502 -0.00000000000E+00 -0.00000000000E+00 -0.18109778612E+02  0.18109778612E+02  0.00000000000E+00 0.  1.
         25    1    1    2    0    0  0.00000000000E+00  0.00000000000E+00  0.19758860643E+03  0.23380816365E+03  0.12500000000E+03 0.  0.
<mgrwt>
<rscale>  0 0.12500000E+03</rscale>
<asrwt>0</asrwt>
<pdfrwt beam="1">  1       21 0.33184365E-01 0.12500000E+03</pdfrwt>
<pdfrwt beam="2">  1       21 0.27861199E-02 0.12500000E+03</pdfrwt>
<totfact> 0.61437031E+06</totfact>
</mgrwt>
</event>
<event>
 3    1  0.1615911E-001  0.1250000E+03  0.7546771E-02  0.1235069E+00
         21   -1    0    0  502  501  0.00000000000E+00  0.00000000000E+00  0.78431116951E+02  0.78431116951E+02  0.00000000000E+00 0. -1.
         21   -1    0    0  501  502 -0.00000000000E+00 -0.00000000000E+00 -0.49804849808E+02  0.49804849808E+02  0.00000000000E+00 0. -1.
         25    1    1    2    0    0  0.00000000000E+00  0.00000000000E+00  0.28626267142E+02  0.12823596676E+03  0.12500000000E+03 0.  0.
<mgrwt>
<rscale>  0 0.12500000E+03</rscale>
<asrwt>0</asrwt>
<pdfrwt beam="1">  1       21 0.12066326E-01 0.12500000E+03</pdfrwt>
<pdfrwt beam="2">  1       21 0.76622846E-02 0.12500000E+03</pdfrwt>
<totfact> 0.73601707E+06</totfact>
</mgrwt>
</event>
<event>
 3    1  0.1615911E-001  0.1250000E+03  0.7546771E-02  0.1235069E+00
         21   -1    0    0  502  501  0.00000000000E+00  0.00000000000E+00  0.39379932604E+03  0.39379932604E+03  0.00000000000E+00 0.  1.
         21   -1    0    0  501  502 -0.00000000000E+00 -0.00000000000E+00 -0.99193922938E+01  0.99193922938E+01  0.00000000000E+00 0.  1.
         25    1    1    2    0    0  0.00000000000E+00  0.00000000000E+00  0.38387993374E+03  0.40371871833E+03  0.12500000000E+03 0.  0.
<mgrwt>
<rscale>  0 0.12500000E+03</rscale>
<asrwt>0</asrwt>
<pdfrwt beam="1">  1       21 0.60584499E-01 0.12500000E+03</pdfrwt>
<pdfrwt beam="2">  1       21 0.15260607E-02 0.12500000E+03</pdfrwt>
<totfact> 0.47795672E+06</totfact>
</mgrwt>
</event>
<event>
 3    1  0.1615911E-001  0.1250000E+03  0.7546771E-02  0.1235069E+00
         21   -1    0    0  502  501  0.00000000000E+00  0.00000000000E+00  0.38818458992E+03  0.38818458992E+03  0.00000000000E+00 0. -1.
         21   -1    0    0  501  502 -0.00000000000E+00 -0.00000000000E+00 -0.10062867258E+02  0.10062867258E+02  0.00000000000E+00 0. -1.
         25    1    1    2    0    0  0.00000000000E+00  0.00000000000E+00  0.37812172266E+03  0.39824745718E+03  0.12500000000E+03 0.  0.
<mgrwt>
<rscale>  0 0.12500000E+03</rscale>
<asrwt>0</asrwt>
<pdfrwt beam="1">  1       21 0.59720694E-01 0.12500000E+03</pdfrwt>
<pdfrwt beam="2">  1       21 0.15481337E-02 0.12500000E+03</pdfrwt>
<totfact> 0.48157817E+06</totfact>
</mgrwt>
</event>
<event>
 3    1  0.1615911E-001  0.1250000E+03  0.7546771E-02  0.1235069E+00
         21   -1    0    0  502  501  0.00000000000E+00  0.00000000000E+00  0.41411531654E+02  0.41411531654E+02  0.00000000000E+00 0. -1.
         21   -1    0    0  501  502 -0.00000000000E+00 -0.00000000000E+00 -0.94327590504E+02  0.94327590504E+02  0.00000000000E+00 0. -1.
         25    1    1    2    0    0  0.00000000000E+00  0.00000000000E+00 -0.52916058850E+02  0.13573912216E+03  0.12500000000E+03 0.  0.
<mgrwt>
<rscale>  0 0.12500000E+03</rscale>
<asrwt>0</asrwt>
<pdfrwt beam="1">  1       21 0.63710049E-02 0.12500000E+03</pdfrwt>
<pdfrwt beam="2">  1       21 0.14511937E-01 0.12500000E+03</pdfrwt>
<totfact> 0.72598755E+06</totfact>
</mgrwt>
</event>
<event>
 3    1  0.1615911E-001  0.1250000E+03  0.7546771E-02  0.1235069E+00
         21   -1    0    0  502  501  0.00000000000E+00  0.00000000000E+00  0.11611308400E+04  0.11611308400E+04  0.00000000000E+00 0. -1.
         21   -1    0    0  501  502 -0.00000000000E+00 -0.00000000000E+00 -0.33641772877E+01  0.33641772877E+01  0.00000000000E+00 0. -1.
         25    1    1    2    0    0  0.00000000000E+00  0.00000000000E+00  0.11577666627E+04  0.11644950173E+04  0.12500000000E+03 0.  0.
<mgrwt>
<rscale>  0 0.12500000E+03</rscale>
<asrwt>0</asrwt>
<pdfrwt beam="1">  1       21 0.17863519E+00 0.12500000E+03</pdfrwt>
<pdfrwt beam="2">  1       21 0.51756666E-03 0.12500000E+03</pdfrwt>
<totfact> 0.19865666E+06</totfact>
</mgrwt>
</event>
<event>
 3    1  0.1615911E-001  0.1250000E+03  0.7546771E-02  0.1235069E+00
         21   -1    0    0  502  501  0.00000000000E+00  0.00000000000E+00  0.28054019411E+02  0.28054019411E+02  0.00000000000E+00 0.  1.
         21   -1    0    0  501  502 -0.00000000000E+00 -0.00000000000E+00 -0.13924029718E+03  0.13924029718E+03  0.00000000000E+00 0.  1.
         25    1    1    2    0    0  0.00000000000E+00  0.00000000000E+00 -0.11118627777E+03  0.16729431659E+03  0.12500000000E+03 0.  0.
<mgrwt>
<rscale>  0 0.12500000E+03</rscale>
<asrwt>0</asrwt>
<pdfrwt beam="1">  1       21 0.43160030E-02 0.12500000E+03</pdfrwt>
<pdfrwt beam="2">  1       21 0.21421584E-01 0.12500000E+03</pdfrwt>
<totfact> 0.68639011E+06</totfact>
</mgrwt>
</event>
<event>
 3    1  0.1615911E-001  0.1250000E+03  0.7546771E-02  0.1235069E+00
         21   -1    0    0  502  501  0.00000000000E+00  0.00000000000E+00  0.81652949258E+01  0.81652949258E+01  0.00000000000E+00 0. -1.
         21   -1    0    0  501  502 -0.00000000000E+00 -0.00000000000E+00 -0.47839668199E+03  0.47839668199E+03  0.00000000000E+00 0. -1.
         25    1    1    2    0    0  0.00000000000E+00  0.00000000000E+00 -0.47023138707E+03  0.48656197692E+03  0.12500000000E+03 0.  0.
<mgrwt>
<rscale>  0 0.12500000E+03</rscale>
<asrwt>0</asrwt>
<pdfrwt beam="1">  1       21 0.12561993E-02 0.12500000E+03</pdfrwt>
<pdfrwt beam="2">  1       21 0.73599482E-01 0.12500000E+03</pdfrwt>
<totfact> 0.42782351E+06</totfact>
</mgrwt>
</event>
<event>
 3    1  0.1615911E-001  0.1250000E+03  0.7546771E-02  0.1235069E+00
         21   -1    0    0  502  501  0.00000000000E+00  0.00000000000E+00  0.59191099913E+02  0.59191099913E+02  0.00000000000E+00 0.  1.
         21   -1    0    0  501  502 -0.00000000000E+00 -0.00000000000E+00 -0.65993874176E+02  0.65993874176E+02  0.00000000000E+00 0.  1.
         25    1    1    2    0    0  0.00000000000E+00  0.00000000000E+00 -0.68027742632E+01  0.12518497409E+03  0.12500000000E+03 0.  0.
<mgrwt>
<rscale>  0 0.12500000E+03</rscale>
<asrwt>0</asrwt>
<pdfrwt beam="1">  1       21 0.91063231E-02 0.12500000E+03</pdfrwt>
<pdfrwt beam="2">  1       21 0.10152904E-01 0.12500000E+03</pdfrwt>
<totfact> 0.74018601E+06</totfact>
</mgrwt>
</event>
<event>
 3    1  0.1615911E-001  0.1250000E+03  0.7546771E-02  0.1235069E+00
         21   -1    0    0  502  501  0.00000000000E+00  0.00000000000E+00  0.10160183480E+02  0.10160183480E+02  0.00000000000E+00 0. -1.
         21   -1    0    0  501  502 -0.00000000000E+00 -0.00000000000E+00 -0.38446648208E+03  0.38446648208E+03  0.00000000000E+00 0. -1.
         25    1    1    2    0    0  0.00000000000E+00  0.00000000000E+00 -0.37430629860E+03  0.39462666556E+03  0.12500000000E+03 0.  0.
<mgrwt>
<rscale>  0 0.12500000E+03</rscale>
<asrwt>0</asrwt>
<pdfrwt beam="1">  1       21 0.15631052E-02 0.12500000E+03</pdfrwt>
<pdfrwt beam="2">  1       21 0.59148686E-01 0.12500000E+03</pdfrwt>
<totfact> 0.48399813E+06</totfact>
</mgrwt>
</event>
<event>
 3    1  0.1615911E-001  0.1250000E+03  0.7546771E-02  0.1235069E+00
         21   -1    0    0  502  501  0.00000000000E+00  0.00000000000E+00  0.12843367492E+03  0.12843367492E+03  0.00000000000E+00 0. -1.
         21   -1    0    0  501  502 -0.00000000000E+00 -0.00000000000E+00 -0.30414531099E+02  0.30414531099E+02  0.00000000000E+00 0. -1.
         25    1    1    2    0    0  0.00000000000E+00  0.00000000000E+00  0.98019143822E+02  0.15884820602E+03  0.12500000000E+03 0.  0.
<mgrwt>
<rscale>  0 0.12500000E+03</rscale>
<asrwt>0</asrwt>
<pdfrwt beam="1">  1       21 0.19759027E-01 0.12500000E+03</pdfrwt>
<pdfrwt beam="2">  1       21 0.46791587E-02 0.12500000E+03</pdfrwt>
<totfact> 0.69660507E+06</totfact>
</mgrwt>
</event>
<event>
 3    1  0.1615911E-001  0.1250000E+03  0.7546771E-02  0.1235069E+00
         21   -1    0    0  502  501  0.00000000000E+00  0.00000000000E+00  0.37868816752E+03  0.37868816752E+03  0.00000000000E+00 0.  1.
         21   -1    0    0  501  502 -0.00000000000E+00 -0.00000000000E+00 -0.10315215354E+02  0.10315215354E+02  0.00000000000E+00 0.  1.
         25    1    1    2    0    0  0.00000000000E+00  0.00000000000E+00  0.36837295217E+03  0.38900338287E+03  0.12500000000E+03 0.  0.
<mgrwt>
<rscale>  0 0.12500000E+03</rscale>
<asrwt>0</asrwt>
<pdfrwt beam="1">  1       21 0.58259707E-01 0.12500000E+03</pdfrwt>
<pdfrwt beam="2">  1       21 0.15869565E-02 0.12500000E+03</pdfrwt>
<totfact> 0.48779405E+06</totfact>
</mgrwt>
</event>
<event>
 3    1  0.1615911E-001  0.1250000E+03  0.7546771E-02  0.1235069E+00
         21   -1    0    0  502  501  0.00000000000E+00  0.00000000000E+00  0.96128230156E+01  0.96128230156E+01  0.00000000000E+00 0. -1.
         21   -1    0    0  501  502 -0.00000000000E+00 -0.00000000000E+00 -0.40635825643E+03  0.40635825643E+03  0.00000000000E+00 0. -1.
         25    1    1    2    0    0  0.00000000000E+00  0.00000000000E+00 -0.39674543342E+03  0.41597107945E+03  0.12500000000E+03 0.  0.
<mgrwt>
<rscale>  0 0.12500000E+03</rscale>
<asrwt>0</asrwt>
<pdfrwt beam="1">  1       21 0.14788954E-02 0.12500000E+03</pdfrwt>
<pdfrwt beam="2">  1       21 0.62516674E-01 0.12500000E+03</pdfrwt>
<totfact> 0.46999732E+06</totfact>
</mgrwt>
</event>
<event>
 3    1  0.1615911E-001  0.1250000E+03  0.7546771E-02  0.1235069E+00
         21   -1    0    0  502  501  0.00000000000E+00  0.00000000000E+00  0.68371236385E+03  0.68371236385E+03  0.00000000000E+00 0.  1.
         21   -1    0    0  501  502 -0.00000000000E+00 -0.00000000000E+00 -0.57132943713E+01  0.57132943713E+01  0.00000000000E+00 0.  1.
         25    1    1    2    0    0  0.00000000000E+00  0.00000000000E+00  0.67799906948E+03  0.68942565822E+03  0.12500000000E+03 0.  0.
<mgrwt>
<rscale>  0 0.12500000E+03</rscale>
<asrwt>0</asrwt>
<pdfrwt beam="1">  1       21 0.10518645E+00 0.12500000E+03</pdfrwt>
<pdfrwt beam="2">  1       21 0.87896891E-03 0.12500000E+03</pdfrwt>
<totfact> 0.33321836E+06</totfact>
</mgrwt>
</event>
<event>
 3    1  0.1615911E-001  0.1250000E+03  0.7546771E-02  0.1235069E+00
         21   -1    0    0  502  501  0.00000000000E+00  0.00000000000E+00  0.87834959040E+01  0.87834959040E+01  0.00000000000E+00 0. -1.
         21   -1    0    0  501  502 -0.00000000000E+00 -0.00000000000E+00 -0.44472611392E+03  0.44472611392E+03  0.00000000000E+00 0. -1.
         25    1    1    2    0    0  0.00000000000E+00  0.00000000000E+00 -0.43594261802E+03  0.45350960982E+03  0.12500000000E+03 0.  0.
<mgrwt>
<rscale>  0 0.12500000E+03</rscale>
<asrwt>0</asrwt>
<pdfrwt beam="1">  1       21 0.13513069E-02 0.12500000E+03</pdfrwt>
<pdfrwt beam="2">  1       21 0.68419411E-01 0.12500000E+03</pdfrwt>
<totfact> 0.44683000E+06</totfact>
</mgrwt>
</event>
<event>
 3    1  0.1615911E-001  0.1250000E+03  0.7546771E-02  0.1235069E+00
         21   -1    0    0  502  501  0.00000000000E+00  0.00000000000E+00  0.40431483749E+03  0.40431483749E+03  0.00000000000E+00 0. -1.
         21   -1    0    0  501  502 -0.00000000000E+00 -0.00000000000E+00 -0.96614065025E+01  0.96614065025E+01  0.00000000000E+00 0. -1.
         25    1    1    2    0    0  0.00000000000E+00  0.00000000000E+00  0.39465343099E+03  0.41397624399E+03  0.12500000000E+03 0.  0.
<mgrwt>
<rscale>  0 0.12500000E+03</rscale>
<asrwt>0</asrwt>
<pdfrwt beam="1">  1       21 0.62202270E-01 0.12500000E+03</pdfrwt>
<pdfrwt beam="2">  1       21 0.14863705E-02 0.12500000E+03</pdfrwt>
<totfact> 0.47127936E+06</totfact>
</mgrwt>
</event>
<event>
 3    1  0.1615911E-001  0.1250000E+03  0.7546771E-02  0.1235069E+00
         21   -1    0    0  502  501  0.00000000000E+00  0.00000000000E+00  0.26576197442E+03  0.26576197442E+03  0.00000000000E+00 0. -1.
         21   -1    0    0  501  502 -0.00000000000E+00 -0.00000000000E+00 -0.14698302902E+02  0.14698302902E+02  0.00000000000E+00 0. -1.
         25    1    1    2    0    0  0.00000000000E+00  0.00000000000E+00  0.25106367152E+03  0.28046027733E+03  0.12500000000E+03 0.  0.
<mgrwt>
<rscale>  0 0.12500000E+03</rscale>
<asrwt>0</asrwt>
<pdfrwt beam="1">  1       21 0.40886454E-01 0.12500000E+03</pdfrwt>
<pdfrwt beam="2">  1       21 0.22612776E-02 0.12500000E+03</pdfrwt>
<totfact> 0.57120128E+06</totfact>
</mgrwt>
</event>
<event>
 3    1  0.1615911E-001  0.1250000E+03  0.7546771E-02  0.1235069E+00
         21   -1    0    0  502  501  0.00000000000E+00  0.00000000000E+00  0.53855353951E+01  0.53855353951E+01  0.00000000000E+00 0.  1.
         21   -1    0    0  501  502 -0.00000000000E+00 -0.00000000000E+00 -0.72532250063E+03  0.72532250063E+03  0.00000000000E+00 0.  1.
         25    1    1    2    0    0  0.00000000000E+00  0.00000000000E+00 -0.71993696524E+03  0.73070803603E+03  0.12500000000E+03 0.  0.
<mgrwt>
<rscale>  0 0.12500000E+03</rscale>
<asrwt>0</asrwt>
<pdfrwt beam="1">  1       21 0.82854450E-03 0.12500000E+03</pdfrwt>
<pdfrwt beam="2">  1       21 0.11158800E+00 0.12500000E+03</pdfrwt>
<totfact> 0.31759329E+06</totfact>
</mgrwt>
</event>
<event>
 3    1  0.1615911E-001  0.1250000E+03  0.7546771E-02  0.1235069E+00
         21   -1    0    0  502  501  0.00000000000E+00  0.00000000000E+00  0.12154616402E+04  0.12154616402E+04  0.00000000000E+00 0. -1.
         21   -1    0    0  501  502 -0.00000000000E+00 -0.00000000000E+00 -0.32137994906E+01  0.32137994906E+01  0.00000000000E+00 0. -1.
         25    1    1    2    0    0  0.00000000000E+00  0.00000000000E+00  0.12122478407E+04  0.12186754397E+04  0.12500000000E+03 0.  0.
<mgrwt>
<rscale>  0 0.12500000E+03</rscale>
<asrwt>0</asrwt>
<pdfrwt beam="1">  1       21 0.18699373E+00 0.12500000E+03</pdfrwt>
<pdfrwt beam="2">  1       21 0.49443166E-03 0.12500000E+03</pdfrwt>
<totfact> 0.18775184E+06</totfact>
</mgrwt>
</event>
<event>
 3    1  0.1615911E-001  0.1250000E+03  0.7546771E-02  0.1235069E+00
         21   -1    0    0  502  501  0.00000000000E+00  0.00000000000E+00  0.54801252592E+01  0.54801252592E+01  0.00000000000E+00 0. -1.
         21   -1    0    0  501  502 -0.00000000000E+00 -0.00000000000E+00 -0.71280305016E+03  0.71280305016E+03  0.00000000000E+00 0. -1.
         25    1    1    2    0    0  0.00000000000E+00  0.00000000000E+00 -0.70732292490E+03  0.71828317542E+03  0.12500000000E+03 0.  0.
<mgrwt>
<rscale>  0 0.12500000E+03</rscale>
<asrwt>0</asrwt>
<pdfrwt beam="1">  1       21 0.84309637E-03 0.12500000E+03</pdfrwt>
<pdfrwt beam="2">  1       21 0.10966199E+00 0.12500000E+03</pdfrwt>
<totfact> 0.32217081E+06</totfact>
</mgrwt>
</event>
<event>
 3    1  0.1615911E-001  0.1250000E+03  0.7546771E-02  0.1235069E+00
         21   -1    0    0  502  501  0.00000000000E+00  0.00000000000E+00  0.84915070015E+01  0.84915070015E+01  0.00000000000E+00 0. -1.
         21   -1    0    0  501  502 -0.00000000000E+00 -0.00000000000E+00 -0.46001846307E+03  0.46001846307E+03  0.00000000000E+00 0. -1.
         25    1    1    2    0    0  0.00000000000E+00  0.00000000000E+00 -0.45152695607E+03  0.46850997008E+03  0.12500000000E+03 0.  0.
<mgrwt>
<rscale>  0 0.12500000E+03</rscale>
<asrwt>0</asrwt>
<pdfrwt beam="1">  1       21 0.13063853E-02 0.12500000E+03</pdfrwt>
<pdfrwt beam="2">  1       21 0.70772093E-01 0.12500000E+03</pdfrwt>
<totfact> 0.43804989E+06</totfact>
</mgrwt>
</event>
<event>
 3    1  0.1615911E-001  0.1250000E+03  0.7546771E-02  0.1235069E+00
         21   -1    0    0  502  501  0.00000000000E+00  0.00000000000E+00  0.15901107311E+03  0.15901107311E+03  0.00000000000E+00 0.  1.
         21   -1    0    0  501  502 -0.00000000000E+00 -0.00000000000E+00 -0.24565899239E+02  0.24565899239E+02  0.00000000000E+00 0.  1.
         25    1    1    2    0    0  0.00000000000E+00  0.00000000000E+00  0.13444517387E+03  0.18357697235E+03  0.12500000000E+03 0.  0.
<mgrwt>
<rscale>  0 0.12500000E+03</rscale>
<asrwt>0</asrwt>
<pdfrwt beam="1">  1       21 0.24463241E-01 0.12500000E+03</pdfrwt>
<pdfrwt beam="2">  1       21 0.37793692E-02 0.12500000E+03</pdfrwt>
<totfact> 0.66743548E+06</totfact>
</mgrwt>
</event>
<event>
 3    1  0.1615911E-001  0.1250000E+03  0.7546771E-02  0.1235069E+00
         21   -1    0    0  502  501  0.00000000000E+00  0.00000000000E+00  0.49058653939E+02  0.49058653939E+02  0.00000000000E+00 0.  1.
         21   -1    0    0  501  502 -0.00000000000E+00 -0.00000000000E+00 -0.79624076211E+02  0.79624076211E+02  0.00000000000E+00 0.  1.
         25    1    1    2    0    0  0.00000000000E+00  0.00000000000E+00 -0.30565422272E+02  0.12868273015E+03  0.12500000000E+03 0.  0.
<mgrwt>
<rscale>  0 0.12500000E+03</rscale>
<asrwt>0</asrwt>
<pdfrwt beam="1">  1       21 0.75474852E-02 0.12500000E+03</pdfrwt>
<pdfrwt beam="2">  1       21 0.12249858E-01 0.12500000E+03</pdfrwt>
<totfact> 0.73541526E+06</totfact>
</mgrwt>
</event>
<event>
 3    1  0.1615911E-001  0.1250000E+03  0.7546771E-02  0.1235069E+00
         21   -1    0    0  502  501  0.00000000000E+00  0.00000000000E+00  0.52205974937E+02  0.52205974937E+02  0.00000000000E+00 0. -1.
         21   -1    0    0  501  502 -0.00000000000E+00 -0.00000000000E+00 -0.74823810966E+02  0.74823810966E+02  0.00000000000E+00 0. -1.
         25    1    1    2    0    0  0.00000000000E+00  0.00000000000E+00 -0.22617836029E+02  0.12702978590E+03  0.12500000000E+03 0.  0.
<mgrwt>
<rscale>  0 0.12500000E+03</rscale>
<asrwt>0</asrwt>
<pdfrwt beam="1">  1       21 0.80316885E-02 0.12500000E+03</pdfrwt>
<pdfrwt beam="2">  1       21 0.11511355E-01 0.12500000E+03</pdfrwt>
<totfact> 0.73765082E+06</totfact>
</mgrwt>
</event>
<event>
 3    1  0.1615911E-001  0.1250000E+03  0.7546771E-02  0.1235069E+00
         21   -1    0    0  502  501  0.00000000000E+00  0.00000000000E+00  0.38767500824E+03  0.38767500824E+03  0.00000000000E+00 0.  1.
         21   -1    0    0  501  502 -0.00000000000E+00 -0.00000000000E+00 -0.10076094453E+02  0.10076094453E+02  0.00000000000E+00 0.  1.
         25    1    1    2    0    0  0.00000000000E+00  0.00000000000E+00  0.37759891379E+03  0.39775110270E+03  0.12500000000E+03 0.  0.
<mgrwt>
<rscale>  0 0.12500000E+03</rscale>
<asrwt>0</asrwt>
<pdfrwt beam="1">  1       21 0.59642297E-01 0.12500000E+03</pdfrwt>
<pdfrwt beam="2">  1       21 0.15501687E-02 0.12500000E+03</pdfrwt>
<totfact> 0.48190881E+06</totfact>
</mgrwt>
</event>
<event>
 3    1  0.1615911E-001  0.1250000E+03  0.7546771E-02  0.1235069E+00
         21   -1    0    0  502  501  0.00000000000E+00  0.00000000000E+00  0.25234340876E+03  0.25234340876E+03  0.00000000000E+00 0.  1.
         21   -1    0    0  501  502 -0.00000000000E+00 -0.00000000000E+00 -0.15479897094E+02  0.15479897094E+02  0.00000000000E+00 0.  1.
         25    1    1    2    0    0  0.00000000000E+00  0.00000000000E+00  0.23686351167E+03  0.26782330586E+03  0.12500000000E+03 0.  0.
<mgrwt>
<rscale>  0 0.12500000E+03</rscale>
<asrwt>0</asrwt>
<pdfrwt beam="1">  1       21 0.38822060E-01 0.12500000E+03</pdfrwt>
<pdfrwt beam="2">  1       21 0.23815228E-02 0.12500000E+03</pdfrwt>
<totfact> 0.58239562E+06</totfact>
</mgrwt>
</event>
<event>
 3    1  0.1615911E-001  0.1250000E+03  0.7546771E-02  0.1235069E+00
         21   -1    0    0  502  501  0.00000000000E+00  0.00000000000E+00  0.12889938522E+01  0.12889938522E+01  0.00000000000E+00 0.  1.
         21   -1    0    0  501  502 -0.00000000000E+00 -0.00000000000E+00 -0.30304644148E+04  0.30304644148E+04  0.00000000000E+00 0.  1.
         25    1    1    2    0    0  0.00000000000E+00  0.00000000000E+00 -0.30291754209E+04  0.30317534086E+04  0.12500000000E+03 0.  0.
<mgrwt>
<rscale>  0 0.12500000E+03</rscale>
<asrwt>0</asrwt>
<pdfrwt beam="1">  1       21 0.19830953E-03 0.12500000E+03</pdfrwt>
<pdfrwt beam="2">  1       21 0.46621874E+00 0.12500000E+03</pdfrwt>
<totfact> 0.16369966E+05</totfact>
</mgrwt>
</event>
<event>
 3    1  0.1615911E-001  0.1250000E+03  0.7546771E-02  0.1235069E+00
         21   -1    0    0  502  501  0.00000000000E+00  0.00000000000E+00  0.20054018100E+02  0.20054018100E+02  0.00000000000E+00 0. -1.
         21   -1    0    0  501  502 -0.00000000000E+00 -0.00000000000E+00 -0.19478640043E+03  0.19478640043E+03  0.00000000000E+00 0. -1.
         25    1    1    2    0    0  0.00000000000E+00  0.00000000000E+00 -0.17473238233E+03  0.21484041853E+03  0.12500000000E+03 0.  0.
<mgrwt>
<rscale>  0 0.12500000E+03</rscale>
<asrwt>0</asrwt>
<pdfrwt beam="1">  1       21 0.30852336E-02 0.12500000E+03</pdfrwt>
<pdfrwt beam="2">  1       21 0.29967138E-01 0.12500000E+03</pdfrwt>
<totfact> 0.63353840E+06</totfact>
</mgrwt>
</event>
<event>
 3    1  0.1615911E-001  0.1250000E+03  0.7546771E-02  0.1235069E+00
         21   -1    0    0  502  501  0.00000000000E+00  0.00000000000E+00  0.14762509062E+02  0.14762509062E+02  0.00000000000E+00 0. -1.
         21   -1    0    0  501  502 -0.00000000000E+00 -0.00000000000E+00 -0.26460610345E+03  0.26460610345E+03  0.00000000000E+00 0. -1.
         25    1    1    2    0    0  0.00000000000E+00  0.00000000000E+00 -0.24984359438E+03  0.27936861251E+03  0.12500000000E+03 0.  0.
<mgrwt>
<rscale>  0 0.12500000E+03</rscale>
<asrwt>0</asrwt>
<pdfrwt beam="1">  1       21 0.22711552E-02 0.12500000E+03</pdfrwt>
<pdfrwt beam="2">  1       21 0.40708631E-01 0.12500000E+03</pdfrwt>
<totfact> 0.57215522E+06</totfact>
</mgrwt>
</event>
<event>
 3    1  0.1615911E-001  0.1250000E+03  0.7546771E-02  0.1235069E+00
         21   -1    0    0  502  501  0.00000000000E+00  0.00000000000E+00  0.10457193398E+03  0.10457193398E+03  0.00000000000E+00 0.  1.
         21   -1    0    0  501  502 -0.00000000000E+00 -0.00000000000E+00 -0.37354669187E+02  0.37354669187E+02  0.00000000000E+00 0.  1.
         25    1    1    2    0    0  0.00000000000E+00  0.00000000000E+00  0.67217264793E+02  0.14192660317E+03  0.12500000000E+03 0.  0.
<mgrwt>
<rscale>  0 0.12500000E+03</rscale>
<asrwt>0</asrwt>
<pdfrwt beam="1">  1       21 0.16087990E-01 0.12500000E+03</pdfrwt>
<pdfrwt beam="2">  1       21 0.57468722E-02 0.12500000E+03</pdfrwt>
<totfact> 0.71788782E+06</totfact>
</mgrwt>
</event>
<event>
 3    1  0.1615911E-001  0.1250000E+03  0.7546771E-02  0.1235069E+00
         21   -1    0    0  502  501  0.00000000000E+00  0.00000000000E+00  0.25355392511E+02  0.25355392511E+02  0.00000000000E+00 0. -1.
         21   -1    0    0  501  502 -0.00000000000E+00 -0.00000000000E+00 -0.15405993018E+03  0.15405993018E+03  0.00000000000E+00 0. -1.
         25    1    1    2    0    0  0.00000000000E+00  0.00000000000E+00 -0.12870453767E+03  0.17941532270E+03  0.12500000000E+03 0.  0.
<mgrwt>
<rscale>  0 0.12500000E+03</rscale>
<asrwt>0</asrwt>
<pdfrwt beam="1">  1       21 0.39008296E-02 0.12500000E+03</pdfrwt>
<pdfrwt beam="2">  1       21 0.23701528E-01 0.12500000E+03</pdfrwt>
<totfact> 0.67218672E+06</totfact>
</mgrwt>
</event>
<event>
 3    1  0.1615911E-001  0.1250000E+03  0.7546771E-02  0.1235069E+00
         21   -1    0    0  502  501  0.00000000000E+00  0.00000000000E+00  0.21688239111E+01  0.21688239111E+01  0.00000000000E+00 0. -1.
         21   -1    0    0  501  502 -0.00000000000E+00 -0.00000000000E+00 -0.18010913565E+04  0.18010913565E+04  0.00000000000E+00 0. -1.
         25    1    1    2    0    0  0.00000000000E+00  0.00000000000E+00 -0.17989225326E+04  0.18032601804E+04  0.12500000000E+03 0.  0.
<mgrwt>
<rscale>  0 0.12500000E+03</rscale>
<asrwt>0</asrwt>
<pdfrwt beam="1">  1       21 0.33366503E-03 0.12500000E+03</pdfrwt>
<pdfrwt beam="2">  1       21 0.27709113E+00 0.12500000E+03</pdfrwt>
<totfact> 0.10032430E+06</totfact>
</mgrwt>
</event>
<event>
 3    1  0.1615911E-001  0.1250000E+03  0.7546771E-02  0.1235069E+00
         21   -1    0    0  502  501  0.00000000000E+00  0.00000000000E+00  0.20195438013E+02  0.20195438013E+02  0.00000000000E+00 0. -1.
         21   -1    0    0  501  502 -0.00000000000E+00 -0.00000000000E+00 -0.19342239557E+03  0.19342239557E+03  0.00000000000E+00 0. -1.
         25    1    1    2    0    0  0.00000000000E+00  0.00000000000E+00 -0.17322695755E+03  0.21361783358E+03  0.12500000000E+03 0.  0.
<mgrwt>
<rscale>  0 0.12500000E+03</rscale>
<asrwt>0</asrwt>
<pdfrwt beam="1">  1       21 0.31069904E-02 0.12500000E+03</pdfrwt>
<pdfrwt beam="2">  1       21 0.29757293E-01 0.12500000E+03</pdfrwt>
<totfact> 0.63480896E+06</totfact>
</mgrwt>
</event>
<event>
 3    1  0.1615911E-001  0.1250000E+03  0.7546771E-02  0.1235069E+00
         21   -1    0    0  502  501  0.00000000000E+00  0.00000000000E+00  0.52189545707E+01  0.52189545707E+01  0.00000000000E+00 0.  1.
         21   -1    0    0  501  502 -0.00000000000E+00 -0.00000000000E+00 -0.74847365447E+03  0.74847365447E+03  0.00000000000E+00 0.  1.
         25    1    1    2    0    0  0.00000000000E+00  0.00000000000E+00 -0.74325469990E+03  0.75369260904E+03  0.12500000000E+03 0.  0.
<mgrwt>
<rscale>  0 0.12500000E+03</rscale>
<asrwt>0</asrwt>
<pdfrwt beam="1">  1       21 0.80291584E-03 0.12500000E+03</pdfrwt>
<pdfrwt beam="2">  1       21 0.11514983E+00 0.12500000E+03</pdfrwt>
<totfact> 0.30939402E+06</totfact>
</mgrwt>
</event>
<event>
 3    1  0.1615911E-001  0.1250000E+03  0.7546771E-02  0.1235069E+00
         21   -1    0    0  502  501  0.00000000000E+00  0.00000000000E+00  0.21953854994E+01  0.21953854994E+01  0.00000000000E+00 0. -1.
         21   -1    0    0  501  502 -0.00000000000E+00 -0.00000000000E+00 -0.17793002646E+04  0.17793002646E+04  0.00000000000E+00 0. -1.
         25    1    1    2    0    0  0.00000000000E+00  0.00000000000E+00 -0.17771048791E+04  0.17814956501E+04  0.12500000000E+03 0.  0.
<mgrwt>
<rscale>  0 0.12500000E+03</rscale>
<asrwt>0</asrwt>
<pdfrwt beam="1">  1       21 0.33774970E-03 0.12500000E+03</pdfrwt>
<pdfrwt beam="2">  1       21 0.27374005E+00 0.12500000E+03</pdfrwt>
<totfact> 0.10284387E+06</totfact>
</mgrwt>
</event>
<event>
 3    1  0.1615911E-001  0.1250000E+03  0.7546771E-02  0.1235069E+00
         21   -1    0    0  502  501  0.00000000000E+00  0.00000000000E+00  0.69842694135E+02  0.69842694135E+02  0.00000000000E+00 0.  1.
         21   -1    0    0  501  502 -0.00000000000E+00 -0.00000000000E+00 -0.55929257145E+02  0.55929257145E+02  0.00000000000E+00 0.  1.
         25    1    1    2    0    0  0.00000000000E+00  0.00000000000E+00  0.13913436990E+02  0.12577195128E+03  0.12500000000E+03 0.  0.
<mgrwt>
<rscale>  0 0.12500000E+03</rscale>
<asrwt>0</asrwt>
<pdfrwt beam="1">  1       21 0.10745030E-01 0.12500000E+03</pdfrwt>
<pdfrwt beam="2">  1       21 0.86045010E-02 0.12500000E+03</pdfrwt>
<totfact> 0.73937557E+06</totfact>
</mgrwt>
</event>
<event>
 3    1  0.1615911E-001  0.1250000E+03  0.7546771E-02  0.1235069E+00
         21   -1    0    0  502  501  0.00000000000E+00  0.00000000000E+00  0.46365055745E+02  0.46365055745E+02  0.00000000000E+00 0. -1.
         21   -1    0    0  501  502 -0.00000000000E+00 -0.00000000000E+00 -0.84249871746E+02  0.84249871746E+02  0.00000000000E+00 0. -1.
         25    1    1    2    0    0  0.00000000000E+00  0.00000000000E+00 -0.37884816001E+02  0.13061492749E+03  0.12500000000E+03 0.  0.
<mgrwt>
<rscale>  0 0.12500000E+03</rscale>
<asrwt>0</asrwt>
<pdfrwt beam="1">  1       21 0.71330856E-02 0.12500000E+03</pdfrwt>
<pdfrwt beam="2">  1       21 0.12961519E-01 0.12500000E+03</pdfrwt>
<totfact> 0.73282611E+06</totfact>
</mgrwt>
</event>
<event>
 3    1  0.1615911E-001  0.1250000E+03  0.7546771E-02  0.1235069E+00
         21   -1    0    0  502  501  0.00000000000E+00  0.00000000000E+00  0.23484367304E+03  0.23484367304E+03  0.00000000000E+00 0.  1.
         21   -1    0    0  501  502 -0.00000000000E+00 -0.00000000000E+00 -0.16633405318E+02  0.16633405318E+02  0.00000000000E+00 0.  1.
         25    1    1    2    0    0  0.00000000000E+00  0.00000000000E+00  0.21821026773E+03  0.25147707836E+03  0.12500000000E+03 0.  0.
<mgrwt>
<rscale>  0 0.12500000E+03</rscale>
<asrwt>0</asrwt>
<pdfrwt beam="1">  1       21 0.36129793E-01 0.12500000E+03</pdfrwt>
<pdfrwt beam="2">  1       21 0.25589856E-02 0.12500000E+03</pdfrwt>
<totfact> 0.59739404E+06</totfact>
</mgrwt>
</event>
<event>
 3    1  0.1615911E-001  0.1250000E+03  0.7546771E-02  0.1235069E+00
         21   -1    0    0  502  501  0.00000000000E+00  0.00000000000E+00  0.17857377091E+03  0.17857377091E+03  0.00000000000E+00 0. -1.
         21   -1    0    0  501  502 -0.00000000000E+00 -0.00000000000E+00 -0.21874713067E+02  0.21874713067E+02  0.00000000000E+00 0. -1.
         25    1    1    2    0    0  0.00000000000E+00  0.00000000000E+00  0.15669905784E+03  0.20044848398E+03  0.12500000000E+03 0.  0.
<mgrwt>
<rscale>  0 0.12500000E+03</rscale>
<asrwt>0</asrwt>
<pdfrwt beam="1">  1       21 0.27472887E-01 0.12500000E+03</pdfrwt>
<pdfrwt beam="2">  1       21 0.33653406E-02 0.12500000E+03</pdfrwt>
<totfact> 0.64878689E+06</totfact>
</mgrwt>
</event>
<event>
 3    1  0.1615911E-001  0.1250000E+03  0.7546771E-02  0.1235069E+00
         21   -1    0    0  502  501  0.00000000000E+00  0.00000000000E+00  0.37788745569E+03  0.37788745569E+03  0.00000000000E+00 0.  1.
         21   -1    0    0  501  502 -0.00000000000E+00 -0.00000000000E+00 -0.10337072430E+02  0.10337072430E+02  0.00000000000E+00 0.  1.
         25    1    1    2    0    0  0.00000000000E+00  0.00000000000E+00  0.36755038326E+03  0.38822452812E+03  0.12500000000E+03 0.  0.
<mgrwt>
<rscale>  0 0.12500000E+03</rscale>
<asrwt>0</asrwt>
<pdfrwt beam="1">  1       21 0.58136521E-01 0.12500000E+03</pdfrwt>
<pdfrwt beam="2">  1       21 0.15903191E-02 0.12500000E+03</pdfrwt>
<totfact> 0.48832343E+06</totfact>
</mgrwt>
</event>
<event>
 3    1  0.1615911E-001  0.1250000E+03  0.7546771E-02  0.1235069E+00
         21   -1    0    0  502  501  0.00000000000E+00  0.00000000000E+00  0.21521045816E+04  0.21521045816E+04  0.00000000000E+00 0.  1.
         21   -1    0    0  501  502 -0.00000000000E+00 -0.00000000000E+00 -0.18150837248E+01  0.18150837248E+01  0.00000000000E+00 0.  1.
         25    1    1    2    0    0  0.00000000000E+00  0.00000000000E+00  0.21502894978E+04  0.21539196653E+04  0.12500000000E+03 0.  0.
<mgrwt>
<rscale>  0 0.12500000E+03</rscale>
<asrwt>0</asrwt>
<pdfrwt beam="1">  1       21 0.33109097E+00 0.12500000E+03</pdfrwt>
<pdfrwt beam="2">  1       21 0.27924537E-03 0.12500000E+03</pdfrwt>
<totfact> 0.65423897E+05</totfact>
</mgrwt>
</event>
<event>
 3    1  0.1615911E-001  0.1250000E+03  0.7546771E-02  0.1235069E+00
         21   -1    0    0  502  501  0.00000000000E+00  0.00000000000E+00  0.20069043048E+03  0.20069043048E+03  0.00000000000E+00 0. -1.
         21   -1    0    0  501  502 -0.00000000000E+00 -0.00000000000E+00 -0.19464057109E+02  0.19464057109E+02  0.00000000000E+00 0. -1.
         25    1    1    2    0    0  0.00000000000E+00  0.00000000000E+00  0.18122637337E+03  0.22015448759E+03  0.12500000000E+03 0.  0.
<mgrwt>
<rscale>  0 0.12500000E+03</rscale>
<asrwt>0</asrwt>
<pdfrwt beam="1">  1       21 0.30875449E-01 0.12500000E+03</pdfrwt>
<pdfrwt beam="2">  1       21 0.29944705E-02 0.12500000E+03</pdfrwt>
<totfact> 0.62806749E+06</totfact>
</mgrwt>
</event>
<event>
 3    1  0.1615911E-001  0.1250000E+03  0.7546771E-02  0.1235069E+00
         21   -1    0    0  502  501  0.00000000000E+00  0.00000000000E+00  0.24071222667E+03  0.24071222667E+03  0.00000000000E+00 0. -1.
         21   -1    0    0  501  502 -0.00000000000E+00 -0.00000000000E+00 -0.16227883619E+02  0.16227883619E+02  0.00000000000E+00 0. -1.
         25    1    1    2    0    0  0.00000000000E+00  0.00000000000E+00  0.22448434305E+03  0.25694011029E+03  0.12500000000E+03 0.  0.
<mgrwt>
<rscale>  0 0.12500000E+03</rscale>
<asrwt>0</asrwt>
<pdfrwt beam="1">  1       21 0.37032648E-01 0.12500000E+03</pdfrwt>
<pdfrwt beam="2">  1       21 0.24965977E-02 0.12500000E+03</pdfrwt>
<totfact> 0.59230873E+06</totfact>
</mgrwt>
</event>
<event>
 3    1  0.1615911E-001  0.1250000E+03  0.7546771E-02  0.1235069E+00
         21   -1    0    0  502  501  0.00000000000E+00  0.00000000000E+00  0.10027000913E+03  0.10027000913E+03  0.00000000000E+00 0. -1.
         21   -1    0    0  501  502 -0.00000000000E+00 -0.00000000000E+00 -0.38957311701E+02  0.38957311701E+02  0.00000000000E+00 0. -1.
         25    1    1    2    0    0  0.00000000000E+00  0.00000000000E+00  0.61312697431E+02  0.13922732083E+03  0.12500000000E+03 0.  0.
<mgrwt>
<rscale>  0 0.12500000E+03</rscale>
<asrwt>0</asrwt>
<pdfrwt beam="1">  1       21 0.15426155E-01 0.12500000E+03</pdfrwt>
<pdfrwt beam="2">  1       21 0.59934326E-02 0.12500000E+03</pdfrwt>
<totfact> 0.72140341E+06</totfact>
</mgrwt>
</event>
<event>
 3    1  0.1615911E-001  0.1250000E+03  0.7546771E-02  0.1235069E+00
         21   -1    0    0  502  501  0.00000000000E+00  0.00000000000E+00  0.27737248581E+02  0.27737248581E+02  0.00000000000E+00 0. -1.
         21   -1    0    0  501  502 -0.00000000000E+00 -0.00000000000E+00 -0.14083047886E+03  0.14083047886E+03  0.00000000000E+00 0. -1.
         25    1    1    2    0    0  0.00000000000E+00  0.00000000000E+00 -0.11309323028E+03  0.16856772744E+03  0.12500000000E+03 0.  0.
<mgrwt>
<rscale>  0 0.12500000E+03</rscale>
<asrwt>0</asrwt>
<pdfrwt beam="1">  1       21 0.42672690E-02 0.12500000E+03</pdfrwt>
<pdfrwt beam="2">  1       21 0.21666228E-01 0.12500000E+03</pdfrwt>
<totfact> 0.68487470E+06</totfact>
</mgrwt>
</event>
<event>
 3    1  0.1615911E-001  0.1250000E+03  0.7546771E-02  0.1235069E+00
         21   -1    0    0  502  501  0.00000000000E+00  0.00000000000E+00  0.10875795996E+02  0.10875795996E+02  0.00000000000E+00 0. -1.
         21   -1    0    0  501  502 -0.00000000000E+00 -0.00000000000E+00 -0.35916911291E+03  0.35916911291E+03  0.00000000000E+00 0. -1.
         25    1    1    2    0    0  0.00000000000E+00  0.00000000000E+00 -0.34829331691E+03  0.37004490890E+03  0.12500000000E+03 0.  0.
<mgrwt>
<rscale>  0 0.12500000E+03</rscale>
<asrwt>0</asrwt>
<pdfrwt beam="1">  1       21 0.16731993E-02 0.12500000E+03</pdfrwt>
<pdfrwt beam="2">  1       21 0.55256788E-01 0.12500000E+03</pdfrwt>
<totfact> 0.50091279E+06</totfact>
</mgrwt>
</event>
<event>
 3    1  0.1615911E-001  0.1250000E+03  0.7546771E-02  0.1235069E+00
         21   -1    0    0  502  501  0.00000000000E+00  0.00000000000E+00  0.10953692614E+02  0.10953692614E+02  0.00000000000E+00 0. -1.
         21   -1    0    0  501  502 -0.00000000000E+00 -0.00000000000E+00 -0.35661490035E+03  0.35661490035E+03  0.00000000000E+00 0. -1.
         25    1    1    2    0    0  0.00000000000E+00  0.00000000000E+00 -0.34566120774E+03  0.36756859297E+03  0.12500000000E+03 0.  0.
<mgrwt>
<rscale>  0 0.12500000E+03</rscale>
<asrwt>0</asrwt>
<pdfrwt beam="1">  1       21 0.16851839E-02 0.12500000E+03</pdfrwt>
<pdfrwt beam="2">  1       21 0.54863817E-01 0.12500000E+03</pdfrwt>
<totfact> 0.50266547E+06</totfact>
</mgrwt>
</event>
<event>
 3    1  0.1615911E-001  0.1250000E+03  0.7546771E-02  0.1235069E+00
         21   -1    0    0  502  501  0.00000000000E+00  0.00000000000E+00  0.76169765565E+01  0.76169765565E+01  0.00000000000E+00 0.  1.
         21   -1    0    0  501  502 -0.00000000000E+00 -0.00000000000E+00 -0.51283471480E+03  0.51283471480E+03  0.00000000000E+00 0.  1.
         25    1    1    2    0    0  0.00000000000E+00  0.00000000000E+00 -0.50521773824E+03  0.52045169136E+03  0.12500000000E+03 0.  0.
<mgrwt>
<rscale>  0 0.12500000E+03</rscale>
<asrwt>0</asrwt>
<pdfrwt beam="1">  1       21 0.11718430E-02 0.12500000E+03</pdfrwt>
<pdfrwt beam="2">  1       21 0.78897621E-01 0.12500000E+03</pdfrwt>
<totfact> 0.40956223E+06</totfact>
</mgrwt>
</event>
<event>
 3    1  0.1615911E-001  0.1250000E+03  0.7546771E-02  0.1235069E+00
         21   -1    0    0  502  501  0.00000000000E+00  0.00000000000E+00  0.38020165313E+03  0.38020165313E+03  0.00000000000E+00 0. -1.
         21   -1    0    0  501  502 -0.00000000000E+00 -0.00000000000E+00 -0.10274153118E+02  0.10274153118E+02  0.00000000000E+00 0. -1.
         25    1    1    2    0    0  0.00000000000E+00  0.00000000000E+00  0.36992750001E+03  0.39047580625E+03  0.12500000000E+03 0.  0.
<mgrwt>
<rscale>  0 0.12500000E+03</rscale>
<asrwt>0</asrwt>
<pdfrwt beam="1">  1       21 0.58492551E-01 0.12500000E+03</pdfrwt>
<pdfrwt beam="2">  1       21 0.15806392E-02 0.12500000E+03</pdfrwt>
<totfact> 0.48679567E+06</totfact>
</mgrwt>
</event>
<event>
 3    1  0.1615911E-001  0.1250000E+03  0.7546771E-02  0.1235069E+00
         21   -1    0    0  502  501  0.00000000000E+00  0.00000000000E+00  0.31726944992E+02  0.31726944992E+02  0.00000000000E+00 0.  1.
         21   -1    0    0  501  502 -0.00000000000E+00 -0.00000000000E+00 -0.12312089932E+03  0.12312089932E+03  0.00000000000E+00 0.  1.
         25    1    1    2    0    0  0.00000000000E+00  0.00000000000E+00 -0.91393954328E+02  0.15484784431E+03  0.12500000000E+03 0.  0.
<mgrwt>
<rscale>  0 0.12500000E+03</rscale>
<asrwt>0</asrwt>
<pdfrwt beam="1">  1       21 0.48810685E-02 0.12500000E+03</pdfrwt>
<pdfrwt beam="2">  1       21 0.18941677E-01 0.12500000E+03</pdfrwt>
<totfact> 0.70154575E+06</totfact>
</mgrwt>
</event>
<event>
 3    1  0.1615911E-001  0.1250000E+03  0.7546771E-02  0.1235069E+00
         21   -1    0    0  502  501  0.00000000000E+00  0.00000000000E+00  0.35905520480E+03  0.35905520480E+03  0.00000000000E+00 0. -1.
         21   -1    0    0  501  502 -0.00000000000E+00 -0.00000000000E+00 -0.10879246277E+02  0.10879246277E+02  0.00000000000E+00 0. -1.
         25    1    1    2    0    0  0.00000000000E+00  0.00000000000E+00  0.34817595852E+03  0.36993445107E+03  0.12500000000E+03 0.  0.
<mgrwt>
<rscale>  0 0.12500000E+03</rscale>
<asrwt>0</asrwt>
<pdfrwt beam="1">  1       21 0.55239253E-01 0.12500000E+03</pdfrwt>
<pdfrwt beam="2">  1       21 0.16737305E-02 0.12500000E+03</pdfrwt>
<totfact> 0.50099080E+06</totfact>
</mgrwt>
</event>
<event>
 3    1  0.1615911E-001  0.1250000E+03  0.7546771E-02  0.1235069E+00
         21   -1    0    0  502  501  0.00000000000E+00  0.00000000000E+00  0.90453216348E+02  0.90453216348E+02  0.00000000000E+00 0. -1.
         21   -1    0    0  501  502 -0.00000000000E+00 -0.00000000000E+00 -0.43185307916E+02  0.43185307916E+02  0.00000000000E+00 0. -1.
         25    1    1    2    0    0  0.00000000000E+00  0.00000000000E+00  0.47267908433E+02  0.13363852426E+03  0.12500000000E+03 0.  0.
<mgrwt>
<rscale>  0 0.12500000E+03</rscale>
<asrwt>0</asrwt>
<pdfrwt beam="1">  1       21 0.13915879E-01 0.12500000E+03</pdfrwt>
<pdfrwt beam="2">  1       21 0.66438935E-02 0.12500000E+03</pdfrwt>
<totfact> 0.72877252E+06</totfact>
</mgrwt>
</event>
<event>
 3    1  0.1615911E-001  0.1250000E+03  0.7546771E-02  0.1235069E+00
         21   -1    0    0  502  501  0.00000000000E+00  0.00000000000E+00  0.65009561064E+02  0.65009561064E+02  0.00000000000E+00 0. -1.
         21   -1    0    0  501  502 -0.00000000000E+00 -0.00000000000E+00 -0.60087315406E+02  0.60087315406E+02  0.00000000000E+00 0. -1.
         25    1    1    2    0    0  0.00000000000E+00  0.00000000000E+00  0.49222456580E+01  0.12509687647E+03  0.12500000000E+03 0.  0.
<mgrwt>
<rscale>  0 0.12500000E+03</rscale>
<asrwt>0</asrwt>
<pdfrwt beam="1">  1       21 0.10001471E-01 0.12500000E+03</pdfrwt>
<pdfrwt beam="2">  1       21 0.92442023E-02 0.12500000E+03</pdfrwt>
<totfact> 0.74030497E+06</totfact>
</mgrwt>
</event>
<event>
 3    1  0.1615911E-001  0.1250000E+03  0.7546771E-02  0.1235069E+00
         21   -1    0    0  502  501  0.00000000000E+00  0.00000000000E+00  0.40960605245E+02  0.40960605245E+02  0.00000000000E+00 0. -1.
         21   -1    0    0  501  502 -0.00000000000E+00 -0.00000000000E+00 -0.95366022465E+02  0.95366022465E+02  0.00000000000E+00 0. -1.
         25    1    1    2    0    0  0.00000000000E+00  0.00000000000E+00 -0.54405417220E+02  0.13632662771E+03  0.12500000000E+03 0.  0.
<mgrwt>
<rscale>  0 0.12500000E+03</rscale>
<asrwt>0</asrwt>
<pdfrwt beam="1">  1       21 0.63016316E-02 0.12500000E+03</pdfrwt>
<pdfrwt beam="2">  1       21 0.14671696E-01 0.12500000E+03</pdfrwt>
<totfact> 0.72521291E+06</totfact>
</mgrwt>
</event>
<event>
 3    1  0.1615911E-001  0.1250000E+03  0.7546771E-02  0.1235069E+00
         21   -1    0    0  502  501  0.00000000000E+00  0.00000000000E+00  0.73552850537E+03  0.73552850537E+03  0.00000000000E+00 0.  1.
         21   -1    0    0  501  502 -0.00000000000E+00 -0.00000000000E+00 -0.53108070883E+01  0.53108070883E+01  0.00000000000E+00 0.  1.
         25    1    1    2    0    0  0.00000000000E+00  0.00000000000E+00  0.73021769828E+03  0.74083931246E+03  0.12500000000E+03 0.  0.
<mgrwt>
<rscale>  0 0.12500000E+03</rscale>
<asrwt>0</asrwt>
<pdfrwt beam="1">  1       21 0.11315815E+00 0.12500000E+03</pdfrwt>
<pdfrwt beam="2">  1       21 0.81704783E-03 0.12500000E+03</pdfrwt>
<totfact> 0.31393726E+06</totfact>
</mgrwt>
</event>
<event>
 3    1  0.1615911E-001  0.1250000E+03  0.7546771E-02  0.1235069E+00
         21   -1    0    0  502  501  0.00000000000E+00  0.00000000000E+00  0.44034274653E+03  0.44034274653E+03  0.00000000000E+00 0.  1.
         21   -1    0    0  501  502 -0.00000000000E+00 -0.00000000000E+00 -0.88709307256E+01  0.88709307256E+01  0.00000000000E+00 0.  1.
         25    1    1    2    0    0  0.00000000000E+00  0.00000000000E+00  0.43147181581E+03  0.44921367726E+03  0.12500000000E+03 0.  0.
<mgrwt>
<rscale>  0 0.12500000E+03</rscale>
<asrwt>0</asrwt>
<pdfrwt beam="1">  1       21 0.67745021E-01 0.12500000E+03</pdfrwt>
<pdfrwt beam="2">  1       21 0.13647589E-02 0.12500000E+03</pdfrwt>
<totfact> 0.44939364E+06</totfact>
</mgrwt>
</event>
<event>
 3    1  0.1615911E-001  0.1250000E+03  0.7546771E-02  0.1235069E+00
         21   -1    0    0  502  501  0.00000000000E+00  0.00000000000E+00  0.24009496634E+03  0.24009496634E+03  0.00000000000E+00 0. -1.
         21   -1    0    0  501  502 -0.00000000000E+00 -0.00000000000E+00 -0.16269603897E+02  0.16269603897E+02  0.00000000000E+00 0. -1.
         25    1    1    2    0    0  0.00000000000E+00  0.00000000000E+00  0.22382536244E+03  0.25636457024E+03  0.12500000000E+03 0.  0.
<mgrwt>
<rscale>  0 0.12500000E+03</rscale>
<asrwt>0</asrwt>
<pdfrwt beam="1">  1       21 0.36937685E-01 0.12500000E+03</pdfrwt>
<pdfrwt beam="2">  1       21 0.25030162E-02 0.12500000E+03</pdfrwt>
<totfact> 0.59284097E+06</totfact>
</mgrwt>
</event>
<event>
 3    1  0.1615911E-001  0.1250000E+03  0.7546771E-02  0.1235069E+00
         21   -1    0    0  502  501  0.00000000000E+00  0.00000000000E+00  0.53401534025E+02  0.53401534025E+02  0.00000000000E+00 0. -1.
         21   -1    0    0  501  502 -0.00000000000E+00 -0.00000000000E+00 -0.73148647718E+02  0.73148647718E+02  0.00000000000E+00 0. -1.
         25    1    1    2    0    0  0.00000000000E+00  0.00000000000E+00 -0.19747113694E+02  0.12655018174E+03  0.12500000000E+03 0.  0.
<mgrwt>
<rscale>  0 0.12500000E+03</rscale>
<asrwt>0</asrwt>
<pdfrwt beam="1">  1       21 0.82156207E-02 0.12500000E+03</pdfrwt>
<pdfrwt beam="2">  1       21 0.11253638E-01 0.12500000E+03</pdfrwt>
<totfact> 0.73830508E+06</totfact>
</mgrwt>
</event>
<event>
 3    1  0.1615911E-001  0.1250000E+03  0.7546771E-02  0.1235069E+00
         21   -1    0    0  502  501  0.00000000000E+00  0.00000000000E+00  0.29778820939E+01  0.29778820939E+01  0.00000000000E+00 0.  1.
         21   -1    0    0  501  502 -0.00000000000E+00 -0.00000000000E+00 -0.13117544203E+04  0.13117544203E+04  0.00000000000E+00 0.  1.
         25    1    1    2    0    0  0.00000000000E+00  0.00000000000E+00 -0.13087765383E+04  0.13147323024E+04  0.12500000000E+03 0.  0.
<mgrwt>
<rscale>  0 0.12500000E+03</rscale>
<asrwt>0</asrwt>
<pdfrwt beam="1">  1       21 0.45813580E-03 0.12500000E+03</pdfrwt>
<pdfrwt beam="2">  1       21 0.20180833E+00 0.12500000E+03</pdfrwt>
<totfact> 0.16989880E+06</totfact>
</mgrwt>
</event>
<event>
 3    1  0.1615911E-001  0.1250000E+03  0.7546771E-02  0.1235069E+00
         21   -1    0    0  502  501  0.00000000000E+00  0.00000000000E+00  0.76337990162E+03  0.76337990162E+03  0.00000000000E+00 0.  1.
         21   -1    0    0  501  502 -0.00000000000E+00 -0.00000000000E+00 -0.51170459056E+01  0.51170459056E+01  0.00000000000E+00 0.  1.
         25    1    1    2    0    0  0.00000000000E+00  0.00000000000E+00  0.75826285571E+03  0.76849694753E+03  0.12500000000E+03 0.  0.
<mgrwt>
<rscale>  0 0.12500000E+03</rscale>
<asrwt>0</asrwt>
<pdfrwt beam="1">  1       21 0.11744297E+00 0.12500000E+03</pdfrwt>
<pdfrwt beam="2">  1       21 0.78723844E-03 0.12500000E+03</pdfrwt>
<totfact> 0.30428733E+06</totfact>
</mgrwt>
</event>
<event>
 3    1  0.1615911E-001  0.1250000E+03  0.7546771E-02  0.1235069E+00
         21   -1    0    0  502  501  0.00000000000E+00  0.00000000000E+00  0.16317641140E+02  0.16317641140E+02  0.00000000000E+00 0. -1.
         21   -1    0    0  501  502 -0.00000000000E+00 -0.00000000000E+00 -0.23938815461E+03  0.23938815461E+03  0.00000000000E+00 0. -1.
         25    1    1    2    0    0  0.00000000000E+00  0.00000000000E+00 -0.22307051347E+03  0.25570579575E+03  0.12500000000E+03 0.  0.
<mgrwt>
<rscale>  0 0.12500000E+03</rscale>
<asrwt>0</asrwt>
<pdfrwt beam="1">  1       21 0.25104064E-02 0.12500000E+03</pdfrwt>
<pdfrwt beam="2">  1       21 0.36828946E-01 0.12500000E+03</pdfrwt>
<totfact> 0.59345118E+06</totfact>
</mgrwt>
</event>
<event>
 3    1  0.1615911E-001  0.1250000E+03  0.7546771E-02  0.1235069E+00
         21   -1    0    0  502  501  0.00000000000E+00  0.00000000000E+00  0.37078232873E+01  0.37078232873E+01  0.00000000000E+00 0.  1.
         21   -1    0    0  501  502 -0.00000000000E+00 -0.00000000000E+00 -0.10535156876E+04  0.10535156876E+04  0.00000000000E+00 0.  1.
         25    1    1    2    0    0  0.00000000000E+00  0.00000000000E+00 -0.10498078643E+04  0.10572235109E+04  0.12500000000E+03 0.  0.
<mgrwt>
<rscale>  0 0.12500000E+03</rscale>
<asrwt>0</asrwt>
<pdfrwt beam="1">  1       21 0.57043345E-03 0.12500000E+03</pdfrwt>
<pdfrwt beam="2">  1       21 0.16207959E+00 0.12500000E+03</pdfrwt>
<totfact> 0.22228652E+06</totfact>
</mgrwt>
</event>
<event>
 3    1  0.1615911E-001  0.1250000E+03  0.7546771E-02  0.1235069E+00
         21   -1    0    0  502  501  0.00000000000E+00  0.00000000000E+00  0.60449433778E+01  0.60449433778E+01  0.00000000000E+00 0. -1.
         21   -1    0    0  501  502 -0.00000000000E+00 -0.00000000000E+00 -0.64620125547E+03  0.64620125547E+03  0.00000000000E+00 0. -1.
         25    1    1    2    0    0  0.00000000000E+00  0.00000000000E+00 -0.64015631209E+03  0.65224619885E+03  0.12500000000E+03 0.  0.
<mgrwt>
<rscale>  0 0.12500000E+03</rscale>
<asrwt>0</asrwt>
<pdfrwt beam="1">  1       21 0.92999178E-03 0.12500000E+03</pdfrwt>
<pdfrwt beam="2">  1       21 0.99415525E-01 0.12500000E+03</pdfrwt>
<totfact> 0.34831301E+06</totfact>
</mgrwt>
</event>
<event>
 3    1  0.1615911E-001  0.1250000E+03  0.7546771E-02  0.1235069E+00
         21   -1    0    0  502  501  0.00000000000E+00  0.00000000000E+00  0.38881415007E+02  0.38881415007E+02  0.00000000000E+00 0.  1.
         21   -1    0    0  501  502 -0.00000000000E+00 -0.00000000000E+00 -0.10046573663E+03  0.10046573663E+03  0.00000000000E+00 0.  1.
         25    1    1    2    0    0  0.00000000000E+00  0.00000000000E+00 -0.61584321626E+02  0.13934715164E+03  0.12500000000E+03 0.  0.
<mgrwt>
<rscale>  0 0.12500000E+03</rscale>
<asrwt>0</asrwt>
<pdfrwt beam="1">  1       21 0.59817563E-02 0.12500000E+03</pdfrwt>
<pdfrwt beam="2">  1       21 0.15456267E-01 0.12500000E+03</pdfrwt>
<totfact> 0.72124651E+06</totfact>
</mgrwt>
</event>
<event>
 3    1  0.1615911E-001  0.1250000E+03  0.7546771E-02  0.1235069E+00
         21   -1    0    0  502  501  0.00000000000E+00  0.00000000000E+00  0.13857286026E+03  0.13857286026E+03  0.00000000000E+00 0. -1.
         21   -1    0    0  501  502 -0.00000000000E+00 -0.00000000000E+00 -0.28189141747E+02  0.28189141747E+02  0.00000000000E+00 0. -1.
         25    1    1    2    0    0  0.00000000000E+00  0.00000000000E+00  0.11038371851E+03  0.16676200200E+03  0.12500000000E+03 0.  0.
<mgrwt>
<rscale>  0 0.12500000E+03</rscale>
<asrwt>0</asrwt>
<pdfrwt beam="1">  1       21 0.21318901E-01 0.12500000E+03</pdfrwt>
<pdfrwt beam="2">  1       21 0.43367911E-02 0.12500000E+03</pdfrwt>
<totfact> 0.68702547E+06</totfact>
</mgrwt>
</event>
<event>
 3    1  0.1615911E-001  0.1250000E+03  0.7546771E-02  0.1235069E+00
         21   -1    0    0  502  501  0.00000000000E+00  0.00000000000E+00  0.11193145769E+03  0.11193145769E+03  0.00000000000E+00 0. -1.
         21   -1    0    0  501  502 -0.00000000000E+00 -0.00000000000E+00 -0.34898589552E+02  0.34898589552E+02  0.00000000000E+00 0. -1.
         25    1    1    2    0    0  0.00000000000E+00  0.00000000000E+00  0.77032868142E+02  0.14683004725E+03  0.12500000000E+03 0.  0.
<mgrwt>
<rscale>  0 0.12500000E+03</rscale>
<asrwt>0</asrwt>
<pdfrwt beam="1">  1       21 0.17220224E-01 0.12500000E+03</pdfrwt>
<pdfrwt beam="2">  1       21 0.53690138E-02 0.12500000E+03</pdfrwt>
<totfact> 0.71159714E+06</totfact>
</mgrwt>
</event>
<event>
 3    1  0.1615911E-001  0.1250000E+03  0.7546771E-02  0.1235069E+00
         21   -1    0    0  502  501  0.00000000000E+00  0.00000000000E+00  0.26009733532E+03  0.26009733532E+03  0.00000000000E+00 0. -1.
         21   -1    0    0  501  502 -0.00000000000E+00 -0.00000000000E+00 -0.15018416068E+02  0.15018416068E+02  0.00000000000E+00 0. -1.
         25    1    1    2    0    0  0.00000000000E+00  0.00000000000E+00  0.24507891925E+03  0.27511575138E+03  0.12500000000E+03 0.  0.
<mgrwt>
<rscale>  0 0.12500000E+03</rscale>
<asrwt>0</asrwt>
<pdfrwt beam="1">  1       21 0.40014971E-01 0.12500000E+03</pdfrwt>
<pdfrwt beam="2">  1       21 0.23105257E-02 0.12500000E+03</pdfrwt>
<totfact> 0.57589700E+06</totfact>
</mgrwt>
</event>
<event>
 3    1  0.1615911E-001  0.1250000E+03  0.7546771E-02  0.1235069E+00
         21   -1    0    0  502  501  0.00000000000E+00  0.00000000000E+00  0.45389765573E+03  0.45389765573E+03  0.00000000000E+00 0. -1.
         21   -1    0    0  501  502 -0.00000000000E+00 -0.00000000000E+00 -0.86060149257E+01  0.86060149257E+01  0.00000000000E+00 0. -1.
         25    1    1    2    0    0  0.00000000000E+00  0.00000000000E+00  0.44529164081E+03  0.46250367066E+03  0.12500000000E+03 0.  0.
<mgrwt>
<rscale>  0 0.12500000E+03</rscale>
<asrwt>0</asrwt>
<pdfrwt beam="1">  1       21 0.69830390E-01 0.12500000E+03</pdfrwt>
<pdfrwt beam="2">  1       21 0.13240027E-02 0.12500000E+03</pdfrwt>
<totfact> 0.44153415E+06</totfact>
</mgrwt>
</event>
<event>
 3    1  0.1615911E-001  0.1250000E+03  0.7546771E-02  0.1235069E+00
         21   -1    0    0  502  501  0.00000000000E+00  0.00000000000E+00  0.75019826762E+03  0.75019826762E+03  0.00000000000E+00 0.  1.
         21   -1    0    0  501  502 -0.00000000000E+00 -0.00000000000E+00 -0.52069568387E+01  0.52069568387E+01  0.00000000000E+00 0.  1.
         25    1    1    2    0    0  0.00000000000E+00  0.00000000000E+00  0.74499131078E+03  0.75540522446E+03  0.12500000000E+03 0.  0.
<mgrwt>
<rscale>  0 0.12500000E+03</rscale>
<asrwt>0</asrwt>
<pdfrwt beam="1">  1       21 0.11541503E+00 0.12500000E+03</pdfrwt>
<pdfrwt beam="2">  1       21 0.80107088E-03 0.12500000E+03</pdfrwt>
<totfact> 0.30879677E+06</totfact>
</mgrwt>
</event>
<event>
 3    1  0.1615911E-001  0.1250000E+03  0.7546771E-02  0.1235069E+00
         21   -1    0    0  502  501  0.00000000000E+00  0.00000000000E+00  0.71381770852E+01  0.71381770852E+01  0.00000000000E+00 0. -1.
         21   -1    0    0  501  502 -0.00000000000E+00 -0.00000000000E+00 -0.54723355184E+03  0.54723355184E+03  0.00000000000E+00 0. -1.
         25    1    1    2    0    0  0.00000000000E+00  0.00000000000E+00 -0.54009537476E+03  0.55437172893E+03  0.12500000000E+03 0.  0.
<mgrwt>
<rscale>  0 0.12500000E+03</rscale>
<asrwt>0</asrwt>
<pdfrwt beam="1">  1       21 0.10981812E-02 0.12500000E+03</pdfrwt>
<pdfrwt beam="2">  1       21 0.84189771E-01 0.12500000E+03</pdfrwt>
<totfact> 0.39240918E+06</totfact>
</mgrwt>
</event>
<event>
 3    1  0.1615911E-001  0.1250000E+03  0.7546771E-02  0.1235069E+00
         21   -1    0    0  502  501  0.00000000000E+00  0.00000000000E+00  0.57482581078E+01  0.57482581078E+01  0.00000000000E+00 0.  1.
         21   -1    0    0  501  502 -0.00000000000E+00 -0.00000000000E+00 -0.67955368857E+03  0.67955368857E+03  0.00000000000E+00 0.  1.
         25    1    1    2    0    0  0.00000000000E+00  0.00000000000E+00 -0.67380543046E+03  0.68530194668E+03  0.12500000000E+03 0.  0.
<mgrwt>
<rscale>  0 0.12500000E+03</rscale>
<asrwt>0</asrwt>
<pdfrwt beam="1">  1       21 0.88434755E-03 0.12500000E+03</pdfrwt>
<pdfrwt beam="2">  1       21 0.10454670E+00 0.12500000E+03</pdfrwt>
<totfact> 0.33484548E+06</totfact>
</mgrwt>
</event>
<event>
 3    1  0.1615911E-001  0.1250000E+03  0.7546771E-02  0.1235069E+00
         21   -1    0    0  502  501  0.00000000000E+00  0.00000000000E+00  0.28960735157E+02  0.28960735157E+02  0.00000000000E+00 0. -1.
         21   -1    0    0  501  502 -0.00000000000E+00 -0.00000000000E+00 -0.13488089922E+03  0.13488089922E+03  0.00000000000E+00 0. -1.
         25    1    1    2    0    0  0.00000000000E+00  0.00000000000E+00 -0.10592016406E+03  0.16384163437E+03  0.12500000000E+03 0.  0.
<mgrwt>
<rscale>  0 0.12500000E+03</rscale>
<asrwt>0</asrwt>
<pdfrwt beam="1">  1       21 0.44554978E-02 0.12500000E+03</pdfrwt>
<pdfrwt beam="2">  1       21 0.20750907E-01 0.12500000E+03</pdfrwt>
<totfact> 0.69053110E+06</totfact>
</mgrwt>
</event>
<event>
 3    1  0.1615911E-001  0.1250000E+03  0.7546771E-02  0.1235069E+00
         21   -1    0    0  502  501  0.00000000000E+00  0.00000000000E+00  0.13209399955E+03  0.13209399955E+03  0.00000000000E+00 0. -1.
         21   -1    0    0  501  502 -0.00000000000E+00 -0.00000000000E+00 -0.29571744465E+02  0.29571744465E+02  0.00000000000E+00 0. -1.
         25    1    1    2    0    0  0.00000000000E+00  0.00000000000E+00  0.10252225508E+03  0.16166574401E+03  0.12500000000E+03 0.  0.
<mgrwt>
<rscale>  0 0.12500000E+03</rscale>
<asrwt>0</asrwt>
<pdfrwt beam="1">  1       21 0.20322153E-01 0.12500000E+03</pdfrwt>
<pdfrwt beam="2">  1       21 0.45494992E-02 0.12500000E+03</pdfrwt>
<totfact> 0.69316531E+06</totfact>
</mgrwt>
</event>
<event>
 3    1  0.1615911E-001  0.1250000E+03  0.7546771E-02  0.1235069E+00
         21   -1    0    0  502  501  0.00000000000E+00  0.00000000000E+00  0.86974726642E+02  0.86974726642E+02  0.00000000000E+00 0. -1.
         21   -1    0    0  501  502 -0.00000000000E+00 -0.00000000000E+00 -0.44912472287E+02  0.44912472287E+02  0.00000000000E+00 0. -1.
         25    1    1    2    0    0  0.00000000000E+00  0.00000000000E+00  0.42062254355E+02  0.13188719893E+03  0.12500000000E+03 0.  0.
<mgrwt>
<rscale>  0 0.12500000E+03</rscale>
<asrwt>0</asrwt>
<pdfrwt beam="1">  1       21 0.13380727E-01 0.12500000E+03</pdfrwt>
<pdfrwt beam="2">  1       21 0.69096112E-02 0.12500000E+03</pdfrwt>
<totfact> 0.73111363E+06</totfact>
</mgrwt>
</event>
<event>
 3    1  0.1615911E-001  0.1250000E+03  0.7546771E-02  0.1235069E+00
         21   -1    0    0  502  501  0.00000000000E+00  0.00000000000E+00  0.21543595191E+02  0.21543595191E+02  0.00000000000E+00 0. -1.
         21   -1    0    0  501  502 -0.00000000000E+00 -0.00000000000E+00 -0.18131839024E+03  0.18131839024E+03  0.00000000000E+00 0. -1.
         25    1    1    2    0    0  0.00000000000E+00  0.00000000000E+00 -0.15977479505E+03  0.20286198543E+03  0.12500000000E+03 0.  0.
<mgrwt>
<rscale>  0 0.12500000E+03</rscale>
<asrwt>0</asrwt>
<pdfrwt beam="1">  1       21 0.33143994E-02 0.12500000E+03</pdfrwt>
<pdfrwt beam="2">  1       21 0.27895136E-01 0.12500000E+03</pdfrwt>
<totfact> 0.64618451E+06</totfact>
</mgrwt>
</event>
<event>
 3    1  0.1615911E-001  0.1250000E+03  0.7546771E-02  0.1235069E+00
         21   -1    0    0  502  501  0.00000000000E+00  0.00000000000E+00  0.10802849850E+03  0.10802849850E+03  0.00000000000E+00 0. -1.
         21   -1    0    0  501  502 -0.00000000000E+00 -0.00000000000E+00 -0.36159439910E+02  0.36159439910E+02  0.00000000000E+00 0. -1.
         25    1    1    2    0    0  0.00000000000E+00  0.00000000000E+00  0.71869058587E+02  0.14418793841E+03  0.12500000000E+03 0.  0.
<mgrwt>
<rscale>  0 0.12500000E+03</rscale>
<asrwt>0</asrwt>
<pdfrwt beam="1">  1       21 0.16619769E-01 0.12500000E+03</pdfrwt>
<pdfrwt beam="2">  1       21 0.55629908E-02 0.12500000E+03</pdfrwt>
<totfact> 0.71497185E+06</totfact>
</mgrwt>
</event>
<event>
 3    1  0.1615911E-001  0.1250000E+03  0.7546771E-02  0.1235069E+00
         21   -1    0    0  502  501  0.00000000000E+00  0.00000000000E+00  0.12697553142E+02  0.12697553142E+02  0.00000000000E+00 0. -1.
         21   -1    0    0  501  502 -0.00000000000E+00 -0.00000000000E+00 -0.30763801155E+03  0.30763801155E+03  0.00000000000E+00 0. -1.
         25    1    1    2    0    0  0.00000000000E+00  0.00000000000E+00 -0.29494045841E+03  0.32033556469E+03  0.12500000000E+03 0.  0.
<mgrwt>
<rscale>  0 0.12500000E+03</rscale>
<asrwt>0</asrwt>
<pdfrwt beam="1">  1       21 0.19534697E-02 0.12500000E+03</pdfrwt>
<pdfrwt beam="2">  1       21 0.47328925E-01 0.12500000E+03</pdfrwt>
<totfact> 0.53806761E+06</totfact>
</mgrwt>
</event>
<event>
 3    1  0.1615911E-001  0.1250000E+03  0.7546771E-02  0.1235069E+00
         21   -1    0    0  502  501  0.00000000000E+00  0.00000000000E+00  0.20509375544E+03  0.20509375544E+03  0.00000000000E+00 0. -1.
         21   -1    0    0  501  502 -0.00000000000E+00 -0.00000000000E+00 -0.19046167406E+02  0.19046167406E+02  0.00000000000E+00 0. -1.
         25    1    1    2    0    0  0.00000000000E+00  0.00000000000E+00  0.18604758803E+03  0.22413992285E+03  0.12500000000E+03 0.  0.
<mgrwt>
<rscale>  0 0.12500000E+03</rscale>
<asrwt>0</asrwt>
<pdfrwt beam="1">  1       21 0.31552884E-01 0.12500000E+03</pdfrwt>
<pdfrwt beam="2">  1       21 0.29301797E-02 0.12500000E+03</pdfrwt>
<totfact> 0.62401870E+06</totfact>
</mgrwt>
</event>
<event>
 3    1  0.1615911E-001  0.1250000E+03  0.7546771E-02  0.1235069E+00
         21   -1    0    0  502  501  0.00000000000E+00  0.00000000000E+00  0.91037953085E+01  0.91037953085E+01  0.00000000000E+00 0.  1.
         21   -1    0    0  501  502 -0.00000000000E+00 -0.00000000000E+00 -0.42907928700E+03  0.42907928700E+03  0.00000000000E+00 0.  1.
         25    1    1    2    0    0  0.00000000000E+00  0.00000000000E+00 -0.41997549170E+03  0.43818308231E+03  0.12500000000E+03 0.  0.
<mgrwt>
<rscale>  0 0.12500000E+03</rscale>
<asrwt>0</asrwt>
<pdfrwt beam="1">  1       21 0.14005835E-02 0.12500000E+03</pdfrwt>
<pdfrwt beam="2">  1       21 0.66012215E-01 0.12500000E+03</pdfrwt>
<totfact> 0.45607694E+06</totfact>
</mgrwt>
</event>
<event>
 3    1  0.1615911E-001  0.1250000E+03  0.7546771E-02  0.1235069E+00
         21   -1    0    0  502  501  0.00000000000E+00  0.00000000000E+00  0.42209653268E+02  0.42209653268E+02  0.00000000000E+00 0. -1.
         21   -1    0    0  501  502 -0.00000000000E+00 -0.00000000000E+00 -0.92543996398E+02  0.92543996398E+02  0.00000000000E+00 0. -1.
         25    1    1    2    0    0  0.00000000000E+00  0.00000000000E+00 -0.50334343130E+02  0.13475364967E+03  0.12500000000E+03 0.  0.
<mgrwt>
<rscale>  0 0.12500000E+03</rscale>
<asrwt>0</asrwt>
<pdfrwt beam="1">  1       21 0.64937929E-02 0.12500000E+03</pdfrwt>
<pdfrwt beam="2">  1       21 0.14237538E-01 0.12500000E+03</pdfrwt>
<totfact> 0.72729107E+06</totfact>
</mgrwt>
</event>
<event>
 3    1  0.1615911E-001  0.1250000E+03  0.7546771E-02  0.1235069E+00
         21   -1    0    0  502  501  0.00000000000E+00  0.00000000000E+00  0.37903370604E+03  0.37903370604E+03  0.00000000000E+00 0. -1.
         21   -1    0    0  501  502 -0.00000000000E+00 -0.00000000000E+00 -0.10305811694E+02  0.10305811694E+02  0.00000000000E+00 0. -1.
         25    1    1    2    0    0  0.00000000000E+00  0.00000000000E+00  0.36872789435E+03  0.38933951773E+03  0.12500000000E+03 0.  0.
<mgrwt>
<rscale>  0 0.12500000E+03</rscale>
<asrwt>0</asrwt>
<pdfrwt beam="1">  1       21 0.58312867E-01 0.12500000E+03</pdfrwt>
<pdfrwt beam="2">  1       21 0.15855098E-02 0.12500000E+03</pdfrwt>
<totfact> 0.48756585E+06</totfact>
</mgrwt>
</event>
<event>
 3    1  0.1615911E-001  0.1250000E+03  0.7546771E-02  0.1235069E+00
         21   -1    0    0  502  501  0.00000000000E+00  0.00000000000E+00  0.35451158770E+03  0.35451158770E+03  0.00000000000E+00 0.  1.
         21   -1    0    0  501  502 -0.00000000000E+00 -0.00000000000E+00 -0.11018680730E+02  0.11018680730E+02  0.00000000000E+00 0.  1.
         25    1    1    2    0    0  0.00000000000E+00  0.00000000000E+00  0.34349290697E+03  0.36553026843E+03  0.12500000000E+03 0.  0.
<mgrwt>
<rscale>  0 0.12500000E+03</rscale>
<asrwt>0</asrwt>
<pdfrwt beam="1">  1       21 0.54540236E-01 0.12500000E+03</pdfrwt>
<pdfrwt beam="2">  1       21 0.16951819E-02 0.12500000E+03</pdfrwt>
<totfact> 0.50411537E+06</totfact>
</mgrwt>
</event>
<event>
 3    1  0.1615911E-001  0.1250000E+03  0.7546771E-02  0.1235069E+00
         21   -1    0    0  502  501  0.00000000000E+00  0.00000000000E+00  0.64914751938E+03  0.64914751938E+03  0.00000000000E+00 0.  1.
         21   -1    0    0  501  502 -0.00000000000E+00 -0.00000000000E+00 -0.60175073976E+01  0.60175073976E+01  0.00000000000E+00 0.  1.
         25    1    1    2    0    0  0.00000000000E+00  0.00000000000E+00  0.64313001199E+03  0.65516502678E+03  0.12500000000E+03 0.  0.
<mgrwt>
<rscale>  0 0.12500000E+03</rscale>
<asrwt>0</asrwt>
<pdfrwt beam="1">  1       21 0.99868794E-01 0.12500000E+03</pdfrwt>
<pdfrwt beam="2">  1       21 0.92577088E-03 0.12500000E+03</pdfrwt>
<totfact> 0.34710647E+06</totfact>
</mgrwt>
</event>
<event>
 3    1  0.1615911E-001  0.1250000E+03  0.7546771E-02  0.1235069E+00
         21   -1    0    0  502  501  0.00000000000E+00  0.00000000000E+00  0.87611128487E+02  0.87611128487E+02  0.00000000000E+00 0.  1.
         21   -1    0    0  501  502 -0.00000000000E+00 -0.00000000000E+00 -0.44586230853E+02  0.44586230853E+02  0.00000000000E+00 0.  1.
         25    1    1    2    0    0  0.00000000000E+00  0.00000000000E+00  0.43024897634E+02  0.13219735934E+03  0.12500000000E+03 0.  0.
<mgrwt>
<rscale>  0 0.12500000E+03</rscale>
<asrwt>0</asrwt>
<pdfrwt beam="1">  1       21 0.13478635E-01 0.12500000E+03</pdfrwt>
<pdfrwt beam="2">  1       21 0.68594202E-02 0.12500000E+03</pdfrwt>
<totfact> 0.73069768E+06</totfact>
</mgrwt>
</event>
<event>
 3    1  0.1615911E-001  0.1250000E+03  0.7546771E-02  0.1235069E+00
         21   -1    0    0  502  501  0.00000000000E+00  0.00000000000E+00  0.64925692150E+01  0.64925692150E+01  0.00000000000E+00 0.  1.
         21   -1    0    0  501  502 -0.00000000000E+00 -0.00000000000E+00 -0.60164934260E+03  0.60164934260E+03  0.00000000000E+00 0.  1.
         25    1    1    2    0    0  0.00000000000E+00  0.00000000000E+00 -0.59515677338E+03  0.60814191181E+03  0.12500000000E+03 0.  0.
<mgrwt>
<rscale>  0 0.12500000E+03</rscale>
<asrwt>0</asrwt>
<pdfrwt beam="1">  1       21 0.99885655E-03 0.12500000E+03</pdfrwt>
<pdfrwt beam="2">  1       21 0.92561461E-01 0.12500000E+03</pdfrwt>
<totfact> 0.36726986E+06</totfact>
</mgrwt>
</event>
<event>
 3    1  0.1615911E-001  0.1250000E+03  0.7546771E-02  0.1235069E+00
         21   -1    0    0  502  501  0.00000000000E+00  0.00000000000E+00  0.12466316653E+03  0.12466316653E+03  0.00000000000E+00 0.  1.
         21   -1    0    0  501  502 -0.00000000000E+00 -0.00000000000E+00 -0.31334435893E+02  0.31334435893E+02  0.00000000000E+00 0.  1.
         25    1    1    2    0    0  0.00000000000E+00  0.00000000000E+00  0.93328730640E+02  0.15599760243E+03  0.12500000000E+03 0.  0.
<mgrwt>
<rscale>  0 0.12500000E+03</rscale>
<asrwt>0</asrwt>
<pdfrwt beam="1">  1       21 0.19178948E-01 0.12500000E+03</pdfrwt>
<pdfrwt beam="2">  1       21 0.48206825E-02 0.12500000E+03</pdfrwt>
<totfact> 0.70011882E+06</totfact>
</mgrwt>
</event>
<event>
 3    1  0.1615911E-001  0.1250000E+03  0.7546771E-02  0.1235069E+00
         21   -1    0    0  502  501  0.00000000000E+00  0.00000000000E+00  0.80502934024E+02  0.80502934024E+02  0.00000000000E+00 0. -1.
         21   -1    0    0  501  502 -0.00000000000E+00 -0.00000000000E+00 -0.48523076175E+02  0.48523076175E+02  0.00000000000E+00 0. -1.
         25    1    1    2    0    0  0.00000000000E+00  0.00000000000E+00  0.31979857849E+02  0.12902601020E+03  0.12500000000E+03 0.  0.
<mgrwt>
<rscale>  0 0.12500000E+03</rscale>
<asrwt>0</asrwt>
<pdfrwt beam="1">  1       21 0.12385067E-01 0.12500000E+03</pdfrwt>
<pdfrwt beam="2">  1       21 0.74650886E-02 0.12500000E+03</pdfrwt>
<totfact> 0.73495388E+06</totfact>
</mgrwt>
</event>
<event>
 3    1  0.1615911E-001  0.1250000E+03  0.7546771E-02  0.1235069E+00
         21   -1    0    0  502  501  0.00000000000E+00  0.00000000000E+00  0.44528172156E+01  0.44528172156E+01  0.00000000000E+00 0.  1.
         21   -1    0    0  501  502 -0.00000000000E+00 -0.00000000000E+00 -0.87725361515E+03  0.87725361515E+03  0.00000000000E+00 0.  1.
         25    1    1    2    0    0  0.00000000000E+00  0.00000000000E+00 -0.87280079793E+03  0.88170643236E+03  0.12500000000E+03 0.  0.
<mgrwt>
<rscale>  0 0.12500000E+03</rscale>
<asrwt>0</asrwt>
<pdfrwt beam="1">  1       21 0.68504899E-03 0.12500000E+03</pdfrwt>
<pdfrwt beam="2">  1       21 0.13496206E+00 0.12500000E+03</pdfrwt>
<totfact> 0.26826925E+06</totfact>
</mgrwt>
</event>
<event>
 3    1  0.1615911E-001  0.1250000E+03  0.7546771E-02  0.1235069E+00
         21   -1    0    0  502  501  0.00000000000E+00  0.00000000000E+00  0.12101064610E+03  0.12101064610E+03  0.00000000000E+00 0. -1.
         21   -1    0    0  501  502 -0.00000000000E+00 -0.00000000000E+00 -0.32280217699E+02  0.32280217699E+02  0.00000000000E+00 0. -1.
         25    1    1    2    0    0  0.00000000000E+00  0.00000000000E+00  0.88730428399E+02  0.15329086380E+03  0.12500000000E+03 0.  0.
<mgrwt>
<rscale>  0 0.12500000E+03</rscale>
<asrwt>0</asrwt>
<pdfrwt beam="1">  1       21 0.18617022E-01 0.12500000E+03</pdfrwt>
<pdfrwt beam="2">  1       21 0.49661874E-02 0.12500000E+03</pdfrwt>
<totfact> 0.70348215E+06</totfact>
</mgrwt>
</event>
<event>
 3    1  0.1615911E-001  0.1250000E+03  0.7546771E-02  0.1235069E+00
         21   -1    0    0  502  501  0.00000000000E+00  0.00000000000E+00  0.10555953881E+03  0.10555953881E+03  0.00000000000E+00 0.  1.
         21   -1    0    0  501  502 -0.00000000000E+00 -0.00000000000E+00 -0.37005182515E+02  0.37005182515E+02  0.00000000000E+00 0.  1.
         25    1    1    2    0    0  0.00000000000E+00  0.00000000000E+00  0.68554356299E+02  0.14256472133E+03  0.12500000000E+03 0.  0.
<mgrwt>
<rscale>  0 0.12500000E+03</rscale>
<asrwt>0</asrwt>
<pdfrwt beam="1">  1       21 0.16239929E-01 0.12500000E+03</pdfrwt>
<pdfrwt beam="2">  1       21 0.56931050E-02 0.12500000E+03</pdfrwt>
<totfact> 0.71706233E+06</totfact>
</mgrwt>
</event>
<event>
 3    1  0.1615911E-001  0.1250000E+03  0.7546771E-02  0.1235069E+00
         21   -1    0    0  502  501  0.00000000000E+00  0.00000000000E+00  0.36356571069E+03  0.36356571069E+03  0.00000000000E+00 0. -1.
         21   -1    0    0  501  502 -0.00000000000E+00 -0.00000000000E+00 -0.10744275065E+02  0.10744275065E+02  0.00000000000E+00 0. -1.
         25    1    1    2    0    0  0.00000000000E+00  0.00000000000E+00  0.35282143562E+03  0.37430998575E+03  0.12500000000E+03 0.  0.
<mgrwt>
<rscale>  0 0.12500000E+03</rscale>
<asrwt>0</asrwt>
<pdfrwt beam="1">  1       21 0.55933177E-01 0.12500000E+03</pdfrwt>
<pdfrwt beam="2">  1       21 0.16529657E-02 0.12500000E+03</pdfrwt>
<totfact> 0.49791676E+06</totfact>
</mgrwt>
</event>
<event>
 3    1  0.1615911E-001  0.1250000E+03  0.7546771E-02  0.1235069E+00
         21   -1    0    0  502  501  0.00000000000E+00  0.00000000000E+00  0.97504045581E+02  0.97504045581E+02  0.00000000000E+00 0.  1.
         21   -1    0    0  501  502 -0.00000000000E+00 -0.00000000000E+00 -0.40062440248E+02  0.40062440248E+02  0.00000000000E+00 0.  1.
         25    1    1    2    0    0  0.00000000000E+00  0.00000000000E+00  0.57441605333E+02  0.13756648583E+03  0.12500000000E+03 0.  0.
<mgrwt>
<rscale>  0 0.12500000E+03</rscale>
<asrwt>0</asrwt>
<pdfrwt beam="1">  1       21 0.15000622E-01 0.12500000E+03</pdfrwt>
<pdfrwt beam="2">  1       21 0.61634523E-02 0.12500000E+03</pdfrwt>
<totfact> 0.72358401E+06</totfact>
</mgrwt>
</event>
<event>
 3    1  0.1615911E-001  0.1250000E+03  0.7546771E-02  0.1235069E+00
         21   -1    0    0  502  501  0.00000000000E+00  0.00000000000E+00  0.25105885658E+03  0.25105885658E+03  0.00000000000E+00 0.  1.
         21   -1    0    0  501  502 -0.00000000000E+00 -0.00000000000E+00 -0.15559100576E+02  0.15559100576E+02  0.00000000000E+00 0.  1.
         25    1    1    2    0    0  0.00000000000E+00  0.00000000000E+00  0.23549975600E+03  0.26661795715E+03  0.12500000000E+03 0.  0.
<mgrwt>
<rscale>  0 0.12500000E+03</rscale>
<asrwt>0</asrwt>
<pdfrwt beam="1">  1       21 0.38624436E-01 0.12500000E+03</pdfrwt>
<pdfrwt beam="2">  1       21 0.23937080E-02 0.12500000E+03</pdfrwt>
<totfact> 0.58347962E+06</totfact>
</mgrwt>
</event>
<event>
 3    1  0.1615911E-001  0.1250000E+03  0.7546771E-02  0.1235069E+00
         21   -1    0    0  502  501  0.00000000000E+00  0.00000000000E+00  0.16726345314E+02  0.16726345314E+02  0.00000000000E+00 0. -1.
         21   -1    0    0  501  502 -0.00000000000E+00 -0.00000000000E+00 -0.23353876335E+03  0.23353876335E+03  0.00000000000E+00 0. -1.
         25    1    1    2    0    0  0.00000000000E+00  0.00000000000E+00 -0.21681241803E+03  0.25026510866E+03  0.12500000000E+03 0.  0.
<mgrwt>
<rscale>  0 0.12500000E+03</rscale>
<asrwt>0</asrwt>
<pdfrwt beam="1">  1       21 0.25732842E-02 0.12500000E+03</pdfrwt>
<pdfrwt beam="2">  1       21 0.35929036E-01 0.12500000E+03</pdfrwt>
<totfact> 0.59853241E+06</totfact>
</mgrwt>
</event>
<event>
 3    1  0.1615911E-001  0.1250000E+03  0.7546771E-02  0.1235069E+00
         21   -1    0    0  502  501  0.00000000000E+00  0.00000000000E+00  0.24270913620E+03  0.24270913620E+03  0.00000000000E+00 0. -1.
         21   -1    0    0  501  502 -0.00000000000E+00 -0.00000000000E+00 -0.16094367362E+02  0.16094367362E+02  0.00000000000E+00 0. -1.
         25    1    1    2    0    0  0.00000000000E+00  0.00000000000E+00  0.22661476883E+03  0.25880350356E+03  0.12500000000E+03 0.  0.
<mgrwt>
<rscale>  0 0.12500000E+03</rscale>
<asrwt>0</asrwt>
<pdfrwt beam="1">  1       21 0.37339865E-01 0.12500000E+03</pdfrwt>
<pdfrwt beam="2">  1       21 0.24760567E-02 0.12500000E+03</pdfrwt>
<totfact> 0.59059113E+06</totfact>
</mgrwt>
</event>
<event>
 3    1  0.1615911E-001  0.1250000E+03  0.7546771E-02  0.1235069E+00
         21   -1    0    0  502  501  0.00000000000E+00  0.00000000000E+00  0.14559594340E+03  0.14559594340E+03  0.00000000000E+00 0.  1.
         21   -1    0    0  501  502 -0.00000000000E+00 -0.00000000000E+00 -0.26829387611E+02  0.26829387611E+02  0.00000000000E+00 0.  1.
         25    1    1    2    0    0  0.00000000000E+00  0.00000000000E+00  0.11876655578E+03  0.17242533101E+03  0.12500000000E+03 0.  0.
<mgrwt>
<rscale>  0 0.12500000E+03</rscale>
<asrwt>0</asrwt>
<pdfrwt beam="1">  1       21 0.22399375E-01 0.12500000E+03</pdfrwt>
<pdfrwt beam="2">  1       21 0.41275982E-02 0.12500000E+03</pdfrwt>
<totfact> 0.68031283E+06</totfact>
</mgrwt>
</event>
<event>
 3    1  0.1615911E-001  0.1250000E+03  0.7546771E-02  0.1235069E+00
         21   -1    0    0  502  501  0.00000000000E+00  0.00000000000E+00  0.41315298506E+02  0.41315298506E+02  0.00000000000E+00 0.  1.
         21   -1    0    0  501  502 -0.00000000000E+00 -0.00000000000E+00 -0.94547301878E+02  0.94547301878E+02  0.00000000000E+00 0.  1.
         25    1    1    2    0    0  0.00000000000E+00  0.00000000000E+00 -0.53232003372E+02  0.13586260038E+03  0.12500000000E+03 0.  0.
<mgrwt>
<rscale>  0 0.12500000E+03</rscale>
<asrwt>0</asrwt>
<pdfrwt beam="1">  1       21 0.63561999E-02 0.12500000E+03</pdfrwt>
<pdfrwt beam="2">  1       21 0.14545738E-01 0.12500000E+03</pdfrwt>
<totfact> 0.72582459E+06</totfact>
</mgrwt>
</event>
<event>
 3    1  0.1615911E-001  0.1250000E+03  0.7546771E-02  0.1235069E+00
         21   -1    0    0  502  501  0.00000000000E+00  0.00000000000E+00  0.13818751865E+02  0.13818751865E+02  0.00000000000E+00 0. -1.
         21   -1    0    0  501  502 -0.00000000000E+00 -0.00000000000E+00 -0.28267748334E+03  0.28267748334E+03  0.00000000000E+00 0. -1.
         25    1    1    2    0    0  0.00000000000E+00  0.00000000000E+00 -0.26885873147E+03  0.29649623520E+03  0.12500000000E+03 0.  0.
<mgrwt>
<rscale>  0 0.12500000E+03</rscale>
<asrwt>0</asrwt>
<pdfrwt beam="1">  1       21 0.21259619E-02 0.12500000E+03</pdfrwt>
<pdfrwt beam="2">  1       21 0.43488841E-01 0.12500000E+03</pdfrwt>
<totfact> 0.55748614E+06</totfact>
</mgrwt>
</event>
<event>
 3    1  0.1615911E-001  0.1250000E+03  0.7546771E-02  0.1235069E+00
         21   -1    0    0  502  501  0.00000000000E+00  0.00000000000E+00  0.14762014058E+02  0.14762014058E+02  0.00000000000E+00 0. -1.
         21   -1    0    0  501  502 -0.00000000000E+00 -0.00000000000E+00 -0.26461497629E+03  0.26461497629E+03  0.00000000000E+00 0. -1.
         25    1    1    2    0    0  0.00000000000E+00  0.00000000000E+00 -0.24985296223E+03  0.27937699035E+03  0.12500000000E+03 0.  0.
<mgrwt>
<rscale>  0 0.12500000E+03</rscale>
<asrwt>0</asrwt>
<pdfrwt beam="1">  1       21 0.22710792E-02 0.12500000E+03</pdfrwt>
<pdfrwt beam="2">  1       21 0.40709995E-01 0.12500000E+03</pdfrwt>
<totfact> 0.57214789E+06</totfact>
</mgrwt>
</event>
<event>
 3    1  0.1615911E-001  0.1250000E+03  0.7546771E-02  0.1235069E+00
         21   -1    0    0  502  501  0.00000000000E+00  0.00000000000E+00  0.44498350111E+03  0.44498350111E+03  0.00000000000E+00 0.  1.
         21   -1    0    0  501  502 -0.00000000000E+00 -0.00000000000E+00 -0.87784153576E+01  0.87784153576E+01  0.00000000000E+00 0.  1.
         25    1    1    2    0    0  0.00000000000E+00  0.00000000000E+00  0.43620508575E+03  0.45376191647E+03  0.12500000000E+03 0.  0.
<mgrwt>
<rscale>  0 0.12500000E+03</rscale>
<asrwt>0</asrwt>
<pdfrwt beam="1">  1       21 0.68458983E-01 0.12500000E+03</pdfrwt>
<pdfrwt beam="2">  1       21 0.13505258E-02 0.12500000E+03</pdfrwt>
<totfact> 0.44668023E+06</totfact>
</mgrwt>
</event>
<event>
 3    1  0.1615911E-001  0.1250000E+03  0.7546771E-02  0.1235069E+00
         21   -1    0    0  502  501  0.00000000000E+00  0.00000000000E+00  0.29851387328E+01  0.29851387328E+01  0.00000000000E+00 0.  1.
         21   -1    0    0  501  502 -0.00000000000E+00 -0.00000000000E+00 -0.13085656479E+04  0.13085656479E+04  0.00000000000E+00 0.  1.
         25    1    1    2    0    0  0.00000000000E+00  0.00000000000E+00 -0.13055805092E+04  0.13115507867E+04  0.12500000000E+03 0.  0.
<mgrwt>
<rscale>  0 0.12500000E+03</rscale>
<asrwt>0</asrwt>
<pdfrwt beam="1">  1       21 0.45925083E-03 0.12500000E+03</pdfrwt>
<pdfrwt beam="2">  1       21 0.20131835E+00 0.12500000E+03</pdfrwt>
<totfact> 0.17046143E+06</totfact>
</mgrwt>
</event>
<event>
 3    1  0.1615911E-001  0.1250000E+03  0.7546771E-02  0.1235069E+00
         21   -1    0    0  502  501  0.00000000000E+00  0.00000000000E+00  0.49031827302E+03  0.49031827302E+03  0.00000000000E+00 0. -1.
         21   -1    0    0  501  502 -0.00000000000E+00 -0.00000000000E+00 -0.79667640693E+01  0.79667640693E+01  0.00000000000E+00 0. -1.
         25    1    1    2    0    0  0.00000000000E+00  0.00000000000E+00  0.48235150895E+03  0.49828503709E+03  0.12500000000E+03 0.  0.
<mgrwt>
<rscale>  0 0.12500000E+03</rscale>
<asrwt>0</asrwt>
<pdfrwt beam="1">  1       21 0.75433557E-01 0.12500000E+03</pdfrwt>
<pdfrwt beam="2">  1       21 0.12256564E-02 0.12500000E+03</pdfrwt>
<totfact> 0.42137238E+06</totfact>
</mgrwt>
</event>
<event>
 3    1  0.1615911E-001  0.1250000E+03  0.7546771E-02  0.1235069E+00
         21   -1    0    0  502  501  0.00000000000E+00  0.00000000000E+00  0.21268552897E+03  0.21268552897E+03  0.00000000000E+00 0.  1.
         21   -1    0    0  501  502 -0.00000000000E+00 -0.00000000000E+00 -0.18366317722E+02  0.18366317722E+02  0.00000000000E+00 0.  1.
         25    1    1    2    0    0  0.00000000000E+00  0.00000000000E+00  0.19431921125E+03  0.23105184669E+03  0.12500000000E+03 0.  0.
<mgrwt>
<rscale>  0 0.12500000E+03</rscale>
<asrwt>0</asrwt>
<pdfrwt beam="1">  1       21 0.32720849E-01 0.12500000E+03</pdfrwt>
<pdfrwt beam="2">  1       21 0.28255875E-02 0.12500000E+03</pdfrwt>
<totfact> 0.61709459E+06</totfact>
</mgrwt>
</event>
<event>
 3    1  0.1615911E-001  0.1250000E+03  0.7546771E-02  0.1235069E+00
         21   -1    0    0  502  501  0.00000000000E+00  0.00000000000E+00  0.38937710128E+03  0.38937710128E+03  0.00000000000E+00 0.  1.
         21   -1    0    0  501  502 -0.00000000000E+00 -0.00000000000E+00 -0.10032048590E+02  0.10032048590E+02  0.00000000000E+00 0.  1.
         25    1    1    2    0    0  0.00000000000E+00  0.00000000000E+00  0.37934505269E+03  0.39940914987E+03  0.12500000000E+03 0.  0.
<mgrwt>
<rscale>  0 0.12500000E+03</rscale>
<asrwt>0</asrwt>
<pdfrwt beam="1">  1       21 0.59904158E-01 0.12500000E+03</pdfrwt>
<pdfrwt beam="2">  1       21 0.15433924E-02 0.12500000E+03</pdfrwt>
<totfact> 0.48080571E+06</totfact>
</mgrwt>
</event>
<event>
 3    1  0.1615911E-001  0.1250000E+03  0.7546771E-02  0.1235069E+00
         21   -1    0    0  502  501  0.00000000000E+00  0.00000000000E+00  0.64822094554E+01  0.64822094554E+01  0.00000000000E+00 0.  1.
         21   -1    0    0  501  502 -0.00000000000E+00 -0.00000000000E+00 -0.60261088859E+03  0.60261088859E+03  0.00000000000E+00 0.  1.
         25    1    1    2    0    0  0.00000000000E+00  0.00000000000E+00 -0.59612867914E+03  0.60909309805E+03  0.12500000000E+03 0.  0.
<mgrwt>
<rscale>  0 0.12500000E+03</rscale>
<asrwt>0</asrwt>
<pdfrwt beam="1">  1       21 0.99726223E-03 0.12500000E+03</pdfrwt>
<pdfrwt beam="2">  1       21 0.92709438E-01 0.12500000E+03</pdfrwt>
<totfact> 0.36684589E+06</totfact>
</mgrwt>
</event>
<event>
 3    1  0.1615911E-001  0.1250000E+03  0.7546771E-02  0.1235069E+00
         21   -1    0    0  502  501  0.00000000000E+00  0.00000000000E+00  0.31999724691E+01  0.31999724691E+01  0.00000000000E+00 0. -1.
         21   -1    0    0  501  502 -0.00000000000E+00 -0.00000000000E+00 -0.12207136273E+04  0.12207136273E+04  0.00000000000E+00 0. -1.
         25    1    1    2    0    0  0.00000000000E+00  0.00000000000E+00 -0.12175136548E+04  0.12239135998E+04  0.12500000000E+03 0.  0.
<mgrwt>
<rscale>  0 0.12500000E+03</rscale>
<asrwt>0</asrwt>
<pdfrwt beam="1">  1       21 0.49230329E-03 0.12500000E+03</pdfrwt>
<pdfrwt beam="2">  1       21 0.18780216E+00 0.12500000E+03</pdfrwt>
<totfact> 0.18673241E+06</totfact>
</mgrwt>
</event>
<event>
 3    1  0.1615911E-001  0.1250000E+03  0.7546771E-02  0.1235069E+00
         21   -1    0    0  502  501  0.00000000000E+00  0.00000000000E+00  0.12677097327E+02  0.12677097327E+02  0.00000000000E+00 0.  1.
         21   -1    0    0  501  502 -0.00000000000E+00 -0.00000000000E+00 -0.30813441747E+03  0.30813441747E+03  0.00000000000E+00 0.  1.
         25    1    1    2    0    0  0.00000000000E+00  0.00000000000E+00 -0.29545732014E+03  0.32081151479E+03  0.12500000000E+03 0.  0.
<mgrwt>
<rscale>  0 0.12500000E+03</rscale>
<asrwt>0</asrwt>
<pdfrwt beam="1">  1       21 0.19503228E-02 0.12500000E+03</pdfrwt>
<pdfrwt beam="2">  1       21 0.47405292E-01 0.12500000E+03</pdfrwt>
<totfact> 0.53769098E+06</totfact>
</mgrwt>
</event>
<event>
 3    1  0.1615911E-001  0.1250000E+03  0.7546771E-02  0.1235069E+00
         21   -1    0    0  502  501  0.00000000000E+00  0.00000000000E+00  0.20365613802E+02  0.20365613802E+02  0.00000000000E+00 0.  1.
         21   -1    0    0  501  502 -0.00000000000E+00 -0.00000000000E+00 -0.19180615120E+03  0.19180615120E+03  0.00000000000E+00 0.  1.
         25    1    1    2    0    0  0.00000000000E+00  0.00000000000E+00 -0.17144053739E+03  0.21217176500E+03  0.12500000000E+03 0.  0.
<mgrwt>
<rscale>  0 0.12500000E+03</rscale>
<asrwt>0</asrwt>
<pdfrwt beam="1">  1       21 0.31331715E-02 0.12500000E+03</pdfrwt>
<pdfrwt beam="2">  1       21 0.29508637E-01 0.12500000E+03</pdfrwt>
<totfact> 0.63631764E+06</totfact>
</mgrwt>
</event>
<event>
 3    1  0.1615911E-001  0.1250000E+03  0.7546771E-02  0.1235069E+00
         21   -1    0    0  502  501  0.00000000000E+00  0.00000000000E+00  0.17969594276E+02  0.17969594276E+02  0.00000000000E+00 0.  1.
         21   -1    0    0  501  502 -0.00000000000E+00 -0.00000000000E+00 -0.21738109052E+03  0.21738109052E+03  0.00000000000E+00 0.  1.
         25    1    1    2    0    0  0.00000000000E+00  0.00000000000E+00 -0.19941149625E+03  0.23535068480E+03  0.12500000000E+03 0.  0.
<mgrwt>
<rscale>  0 0.12500000E+03</rscale>
<asrwt>0</asrwt>
<pdfrwt beam="1">  1       21 0.27645527E-02 0.12500000E+03</pdfrwt>
<pdfrwt beam="2">  1       21 0.33443247E-01 0.12500000E+03</pdfrwt>
<totfact> 0.61285488E+06</totfact>
</mgrwt>
</event>
<event>
 3    1  0.1615911E-001  0.1250000E+03  0.7546771E-02  0.1235069E+00
         21   -1    0    0  502  501  0.00000000000E+00  0.00000000000E+00  0.24194906949E+03  0.24194906949E+03  0.00000000000E+00 0.  1.
         21   -1    0    0  501  502 -0.00000000000E+00 -0.00000000000E+00 -0.16144926733E+02  0.16144926733E+02  0.00000000000E+00 0.  1.
         25    1    1    2    0    0  0.00000000000E+00  0.00000000000E+00  0.22580414276E+03  0.25809399623E+03  0.12500000000E+03 0.  0.
<mgrwt>
<rscale>  0 0.12500000E+03</rscale>
<asrwt>0</asrwt>
<pdfrwt beam="1">  1       21 0.37222931E-01 0.12500000E+03</pdfrwt>
<pdfrwt beam="2">  1       21 0.24838351E-02 0.12500000E+03</pdfrwt>
<totfact> 0.59124412E+06</totfact>
</mgrwt>
</event>
<event>
 3    1  0.1615911E-001  0.1250000E+03  0.7546771E-02  0.1235069E+00
         21   -1    0    0  502  501  0.00000000000E+00  0.00000000000E+00  0.32361969949E+02  0.32361969949E+02  0.00000000000E+00 0.  1.
         21   -1    0    0  501  502 -0.00000000000E+00 -0.00000000000E+00 -0.12070495110E+03  0.12070495110E+03  0.00000000000E+00 0.  1.
         25    1    1    2    0    0  0.00000000000E+00  0.00000000000E+00 -0.88342981147E+02  0.15306692104E+03  0.12500000000E+03 0.  0.
<mgrwt>
<rscale>  0 0.12500000E+03</rscale>
<asrwt>0</asrwt>
<pdfrwt beam="1">  1       21 0.49787646E-02 0.12500000E+03</pdfrwt>
<pdfrwt beam="2">  1       21 0.18569992E-01 0.12500000E+03</pdfrwt>
<totfact> 0.70376032E+06</totfact>
</mgrwt>
</event>
<event>
 3    1  0.1615911E-001  0.1250000E+03  0.7546771E-02  0.1235069E+00
         21   -1    0    0  502  501  0.00000000000E+00  0.00000000000E+00  0.17896518006E+03  0.17896518006E+03  0.00000000000E+00 0.  1.
         21   -1    0    0  501  502 -0.00000000000E+00 -0.00000000000E+00 -0.21826871567E+02  0.21826871567E+02  0.00000000000E+00 0.  1.
         25    1    1    2    0    0  0.00000000000E+00  0.00000000000E+00  0.15713830849E+03  0.20079205162E+03  0.12500000000E+03 0.  0.
<mgrwt>
<rscale>  0 0.12500000E+03</rscale>
<asrwt>0</asrwt>
<pdfrwt beam="1">  1       21 0.27533104E-01 0.12500000E+03</pdfrwt>
<pdfrwt beam="2">  1       21 0.33579804E-02 0.12500000E+03</pdfrwt>
<totfact> 0.64841530E+06</totfact>
</mgrwt>
</event>
<event>
 3    1  0.1615911E-001  0.1250000E+03  0.7546771E-02  0.1235069E+00
         21   -1    0    0  502  501  0.00000000000E+00  0.00000000000E+00  0.11038724668E+03  0.11038724668E+03  0.00000000000E+00 0.  1.
         21   -1    0    0  501  502 -0.00000000000E+00 -0.00000000000E+00 -0.35386787128E+02  0.35386787128E+02  0.00000000000E+00 0.  1.
         25    1    1    2    0    0  0.00000000000E+00  0.00000000000E+00  0.75000459554E+02  0.14577403381E+03  0.12500000000E+03 0.  0.
<mgrwt>
<rscale>  0 0.12500000E+03</rscale>
<asrwt>0</asrwt>
<pdfrwt beam="1">  1       21 0.16982653E-01 0.12500000E+03</pdfrwt>
<pdfrwt beam="2">  1       21 0.54441211E-02 0.12500000E+03</pdfrwt>
<totfact> 0.71294189E+06</totfact>
</mgrwt>
</event>
<event>
 3    1  0.1615911E-001  0.1250000E+03  0.7546771E-02  0.1235069E+00
         21   -1    0    0  502  501  0.00000000000E+00  0.00000000000E+00  0.35913032197E+02  0.35913032197E+02  0.00000000000E+00 0.  1.
         21   -1    0    0  501  502 -0.00000000000E+00 -0.00000000000E+00 -0.10876970729E+03  0.10876970729E+03  0.00000000000E+00 0.  1.
         25    1    1    2    0    0  0.00000000000E+00  0.00000000000E+00 -0.72856675094E+02  0.14468273949E+03  0.12500000000E+03 0.  0.
<mgrwt>
<rscale>  0 0.12500000E+03</rscale>
<asrwt>0</asrwt>
<pdfrwt beam="1">  1       21 0.55250819E-02 0.12500000E+03</pdfrwt>
<pdfrwt beam="2">  1       21 0.16733801E-01 0.12500000E+03</pdfrwt>
<totfact> 0.71433725E+06</totfact>
</mgrwt>
</event>
<event>
 3    1  0.1615911E-001  0.1250000E+03  0.7546771E-02  0.1235069E+00
         21   -1    0    0  502  501  0.00000000000E+00  0.00000000000E+00  0.15815357479E+02  0.15815357479E+02  0.00000000000E+00 0. -1.
         21   -1    0    0  501  502 -0.00000000000E+00 -0.00000000000E+00 -0.24699093936E+03  0.24699093936E+03  0.00000000000E+00 0. -1.
         25    1    1    2    0    0  0.00000000000E+00  0.00000000000E+00 -0.23117558188E+03  0.26280629684E+03  0.12500000000E+03 0.  0.
<mgrwt>
<rscale>  0 0.12500000E+03</rscale>
<asrwt>0</asrwt>
<pdfrwt beam="1">  1       21 0.24331320E-02 0.12500000E+03</pdfrwt>
<pdfrwt beam="2">  1       21 0.37998605E-01 0.12500000E+03</pdfrwt>
<totfact> 0.58693010E+06</totfact>
</mgrwt>
</event>
<event>
 3    1  0.1615911E-001  0.1250000E+03  0.7546771E-02  0.1235069E+00
         21   -1    0    0  502  501  0.00000000000E+00  0.00000000000E+00  0.36272890804E+03  0.36272890804E+03  0.00000000000E+00 0. -1.
         21   -1    0    0  501  502 -0.00000000000E+00 -0.00000000000E+00 -0.10769061725E+02  0.10769061725E+02  0.00000000000E+00 0. -1.
         25    1    1    2    0    0  0.00000000000E+00  0.00000000000E+00  0.35195984632E+03  0.37349796977E+03  0.12500000000E+03 0.  0.
<mgrwt>
<rscale>  0 0.12500000E+03</rscale>
<asrwt>0</asrwt>
<pdfrwt beam="1">  1       21 0.55804438E-01 0.12500000E+03</pdfrwt>
<pdfrwt beam="2">  1       21 0.16567790E-02 0.12500000E+03</pdfrwt>
<totfact> 0.49848499E+06</totfact>
</mgrwt>
</event>
<event>
 3    1  0.1615911E-001  0.1250000E+03  0.7546771E-02  0.1235069E+00
         21   -1    0    0  502  501  0.00000000000E+00  0.00000000000E+00  0.46335406353E+01  0.46335406353E+01  0.00000000000E+00 0.  1.
         21   -1    0    0  501  502 -0.00000000000E+00 -0.00000000000E+00 -0.84303782084E+03  0.84303782084E+03  0.00000000000E+00 0.  1.
         25    1    1    2    0    0  0.00000000000E+00  0.00000000000E+00 -0.83840428021E+03  0.84767136148E+03  0.12500000000E+03 0.  0.
<mgrwt>
<rscale>  0 0.12500000E+03</rscale>
<asrwt>0</asrwt>
<pdfrwt beam="1">  1       21 0.71285227E-03 0.12500000E+03</pdfrwt>
<pdfrwt beam="2">  1       21 0.12969815E+00 0.12500000E+03</pdfrwt>
<totfact> 0.27842987E+06</totfact>
</mgrwt>
</event>
<event>
 3    1  0.1615911E-001  0.1250000E+03  0.7546771E-02  0.1235069E+00
         21   -1    0    0  502  501  0.00000000000E+00  0.00000000000E+00  0.27386424078E+03  0.27386424078E+03  0.00000000000E+00 0. -1.
         21   -1    0    0  501  502 -0.00000000000E+00 -0.00000000000E+00 -0.14263453998E+02  0.14263453998E+02  0.00000000000E+00 0. -1.
         25    1    1    2    0    0  0.00000000000E+00  0.00000000000E+00  0.25960078678E+03  0.28812769478E+03  0.12500000000E+03 0.  0.
<mgrwt>
<rscale>  0 0.12500000E+03</rscale>
<asrwt>0</asrwt>
<pdfrwt beam="1">  1       21 0.42132956E-01 0.12500000E+03</pdfrwt>
<pdfrwt beam="2">  1       21 0.21943777E-02 0.12500000E+03</pdfrwt>
<totfact> 0.56457472E+06</totfact>
</mgrwt>
</event>
<event>
 3    1  0.1615911E-001  0.1250000E+03  0.7546771E-02  0.1235069E+00
         21   -1    0    0  502  501  0.00000000000E+00  0.00000000000E+00  0.11693417826E+03  0.11693417826E+03  0.00000000000E+00 0.  1.
         21   -1    0    0  501  502 -0.00000000000E+00 -0.00000000000E+00 -0.33405545395E+02  0.33405545395E+02  0.00000000000E+00 0.  1.
         25    1    1    2    0    0  0.00000000000E+00  0.00000000000E+00  0.83528632861E+02  0.15033972365E+03  0.12500000000E+03 0.  0.
<mgrwt>
<rscale>  0 0.12500000E+03</rscale>
<asrwt>0</asrwt>
<pdfrwt beam="1">  1       21 0.17989873E-01 0.12500000E+03</pdfrwt>
<pdfrwt beam="2">  1       21 0.51393148E-02 0.12500000E+03</pdfrwt>
<totfact> 0.70716552E+06</totfact>
</mgrwt>
</event>
<event>
 3    1  0.1615911E-001  0.1250000E+03  0.7546771E-02  0.1235069E+00
         21   -1    0    0  502  501  0.00000000000E+00  0.00000000000E+00  0.63904778434E+02  0.63904778434E+02  0.00000000000E+00 0.  1.
         21   -1    0    0  501  502 -0.00000000000E+00 -0.00000000000E+00 -0.61126101924E+02  0.61126101924E+02  0.00000000000E+00 0.  1.
         25    1    1    2    0    0  0.00000000000E+00  0.00000000000E+00  0.27786765095E+01  0.12503088036E+03  0.12500000000E+03 0.  0.
<mgrwt>
<rscale>  0 0.12500000E+03</rscale>
<asrwt>0</asrwt>
<pdfrwt beam="1">  1       21 0.98315044E-02 0.12500000E+03</pdfrwt>
<pdfrwt beam="2">  1       21 0.94040157E-02 0.12500000E+03</pdfrwt>
<totfact> 0.74039410E+06</totfact>
</mgrwt>
</event>
<event>
 3    1  0.1615911E-001  0.1250000E+03  0.7546771E-02  0.1235069E+00
         21   -1    0    0  502  501  0.00000000000E+00  0.00000000000E+00  0.63142343289E+01  0.63142343289E+01  0.00000000000E+00 0. -1.
         21   -1    0    0  501  502 -0.00000000000E+00 -0.00000000000E+00 -0.61864191231E+03  0.61864191231E+03  0.00000000000E+00 0. -1.
         25    1    1    2    0    0  0.00000000000E+00  0.00000000000E+00 -0.61232767798E+03  0.62495614664E+03  0.12500000000E+03 0.  0.
<mgrwt>
<rscale>  0 0.12500000E+03</rscale>
<asrwt>0</asrwt>
<pdfrwt beam="1">  1       21 0.97142082E-03 0.12500000E+03</pdfrwt>
<pdfrwt beam="2">  1       21 0.95175663E-01 0.12500000E+03</pdfrwt>
<totfact> 0.35987804E+06</totfact>
</mgrwt>
</event>
<event>
 3    1  0.1615911E-001  0.1250000E+03  0.7546771E-02  0.1235069E+00
         21   -1    0    0  502  501  0.00000000000E+00  0.00000000000E+00  0.43665499860E+03  0.43665499860E+03  0.00000000000E+00 0.  1.
         21   -1    0    0  501  502 -0.00000000000E+00 -0.00000000000E+00 -0.89458497270E+01  0.89458497270E+01  0.00000000000E+00 0.  1.
         25    1    1    2    0    0  0.00000000000E+00  0.00000000000E+00  0.42770914887E+03  0.44560084833E+03  0.12500000000E+03 0.  0.
<mgrwt>
<rscale>  0 0.12500000E+03</rscale>
<asrwt>0</asrwt>
<pdfrwt beam="1">  1       21 0.67177676E-01 0.12500000E+03</pdfrwt>
<pdfrwt beam="2">  1       21 0.13762849E-02 0.12500000E+03</pdfrwt>
<totfact> 0.45156685E+06</totfact>
</mgrwt>
</event>
<event>
 3    1  0.1615911E-001  0.1250000E+03  0.7546771E-02  0.1235069E+00
         21   -1    0    0  502  501  0.00000000000E+00  0.00000000000E+00  0.36137853956E+02  0.36137853956E+02  0.00000000000E+00 0.  1.
         21   -1    0    0  501  502 -0.00000000000E+00 -0.00000000000E+00 -0.10809302635E+03  0.10809302635E+03  0.00000000000E+00 0.  1.
         25    1    1    2    0    0  0.00000000000E+00  0.00000000000E+00 -0.71955172399E+02  0.14423088031E+03  0.12500000000E+03 0.  0.
<mgrwt>
<rscale>  0 0.12500000E+03</rscale>
<asrwt>0</asrwt>
<pdfrwt beam="1">  1       21 0.55596700E-02 0.12500000E+03</pdfrwt>
<pdfrwt beam="2">  1       21 0.16629696E-01 0.12500000E+03</pdfrwt>
<totfact> 0.71491673E+06</totfact>
</mgrwt>
</event>
<event>
 3    1  0.1615911E-001  0.1250000E+03  0.7546771E-02  0.1235069E+00
         21   -1    0    0  502  501  0.00000000000E+00  0.00000000000E+00  0.56721840593E+01  0.56721840593E+01  0.00000000000E+00 0.  1.
         21   -1    0    0  501  502 -0.00000000000E+00 -0.00000000000E+00 -0.68866770880E+03  0.68866770880E+03  0.00000000000E+00 0.  1.
         25    1    1    2    0    0  0.00000000000E+00  0.00000000000E+00 -0.68299552474E+03  0.69433989286E+03  0.12500000000E+03 0.  0.
<mgrwt>
<rscale>  0 0.12500000E+03</rscale>
<asrwt>0</asrwt>
<pdfrwt beam="1">  1       21 0.87264433E-03 0.12500000E+03</pdfrwt>
<pdfrwt beam="2">  1       21 0.10594880E+00 0.12500000E+03</pdfrwt>
<totfact> 0.33129520E+06</totfact>
</mgrwt>
</event>
<event>
 3    1  0.1615911E-001  0.1250000E+03  0.7546771E-02  0.1235069E+00
         21   -1    0    0  502  501  0.00000000000E+00  0.00000000000E+00  0.72669085346E+02  0.72669085346E+02  0.00000000000E+00 0. -1.
         21   -1    0    0  501  502 -0.00000000000E+00 -0.00000000000E+00 -0.53753944767E+02  0.53753944767E+02  0.00000000000E+00 0. -1.
         25    1    1    2    0    0  0.00000000000E+00  0.00000000000E+00  0.18915140579E+02  0.12642303011E+03  0.12500000000E+03 0.  0.
<mgrwt>
<rscale>  0 0.12500000E+03</rscale>
<asrwt>0</asrwt>
<pdfrwt beam="1">  1       21 0.11179859E-01 0.12500000E+03</pdfrwt>
<pdfrwt beam="2">  1       21 0.82698377E-02 0.12500000E+03</pdfrwt>
<totfact> 0.73847912E+06</totfact>
</mgrwt>
</event>
<event>
 3    1  0.1615911E-001  0.1250000E+03  0.7546771E-02  0.1235069E+00
         21   -1    0    0  502  501  0.00000000000E+00  0.00000000000E+00  0.16196056017E+02  0.16196056017E+02  0.00000000000E+00 0.  1.
         21   -1    0    0  501  502 -0.00000000000E+00 -0.00000000000E+00 -0.24118526115E+03  0.24118526115E+03  0.00000000000E+00 0.  1.
         25    1    1    2    0    0  0.00000000000E+00  0.00000000000E+00 -0.22498920514E+03  0.25738131717E+03  0.12500000000E+03 0.  0.
<mgrwt>
<rscale>  0 0.12500000E+03</rscale>
<asrwt>0</asrwt>
<pdfrwt beam="1">  1       21 0.24917009E-02 0.12500000E+03</pdfrwt>
<pdfrwt beam="2">  1       21 0.37105425E-01 0.12500000E+03</pdfrwt>
<totfact> 0.59190126E+06</totfact>
</mgrwt>
</event>
<event>
 3    1  0.1615911E-001  0.1250000E+03  0.7546771E-02  0.1235069E+00
         21   -1    0    0  502  501  0.00000000000E+00  0.00000000000E+00  0.57368268542E+03  0.57368268542E+03  0.00000000000E+00 0.  1.
         21   -1    0    0  501  502 -0.00000000000E+00 -0.00000000000E+00 -0.68090777346E+01  0.68090777346E+01  0.00000000000E+00 0.  1.
         25    1    1    2    0    0  0.00000000000E+00  0.00000000000E+00  0.56687360769E+03  0.58049176316E+03  0.12500000000E+03 0.  0.
<mgrwt>
<rscale>  0 0.12500000E+03</rscale>
<asrwt>0</asrwt>
<pdfrwt beam="1">  1       21 0.88258836E-01 0.12500000E+03</pdfrwt>
<pdfrwt beam="2">  1       21 0.10475509E-02 0.12500000E+03</pdfrwt>
<totfact> 0.37990004E+06</totfact>
</mgrwt>
</event>
<event>
 3    1  0.1615911E-001  0.1250000E+03  0.7546771E-02  0.1235069E+00
         21   -1    0    0  502  501  0.00000000000E+00  0.00000000000E+00  0.15792570867E+03  0.15792570867E+03  0.00000000000E+00 0.  1.
         21   -1    0    0  501  502 -0.00000000000E+00 -0.00000000000E+00 -0.24734731495E+02  0.24734731495E+02  0.00000000000E+00 0.  1.
         25    1    1    2    0    0  0.00000000000E+00  0.00000000000E+00  0.13319097717E+03  0.18266044016E+03  0.12500000000E+03 0.  0.
<mgrwt>
<rscale>  0 0.12500000E+03</rscale>
<asrwt>0</asrwt>
<pdfrwt beam="1">  1       21 0.24296262E-01 0.12500000E+03</pdfrwt>
<pdfrwt beam="2">  1       21 0.38053434E-02 0.12500000E+03</pdfrwt>
<totfact> 0.66847643E+06</totfact>
</mgrwt>
</event>
<event>
 3    1  0.1615911E-001  0.1250000E+03  0.7546771E-02  0.1235069E+00
         21   -1    0    0  502  501  0.00000000000E+00  0.00000000000E+00  0.25437389201E+02  0.25437389201E+02  0.00000000000E+00 0.  1.
         21   -1    0    0  501  502 -0.00000000000E+00 -0.00000000000E+00 -0.15356332245E+03  0.15356332245E+03  0.00000000000E+00 0.  1.
         25    1    1    2    0    0  0.00000000000E+00  0.00000000000E+00 -0.12812593325E+03  0.17900071165E+03  0.12500000000E+03 0.  0.
<mgrwt>
<rscale>  0 0.12500000E+03</rscale>
<asrwt>0</asrwt>
<pdfrwt beam="1">  1       21 0.39134446E-02 0.12500000E+03</pdfrwt>
<pdfrwt beam="2">  1       21 0.23625126E-01 0.12500000E+03</pdfrwt>
<totfact> 0.67266357E+06</totfact>
</mgrwt>
</event>
<event>
 3    1  0.1615911E-001  0.1250000E+03  0.7546771E-02  0.1235069E+00
         21   -1    0    0  502  501  0.00000000000E+00  0.00000000000E+00  0.10201797431E+04  0.10201797431E+04  0.00000000000E+00 0.  1.
         21   -1    0    0  501  502 -0.00000000000E+00 -0.00000000000E+00 -0.38289821244E+01  0.38289821244E+01  0.00000000000E+00 0.  1.
         25    1    1    2    0    0  0.00000000000E+00  0.00000000000E+00  0.10163507610E+04  0.10240087252E+04  0.12500000000E+03 0.  0.
<mgrwt>
<rscale>  0 0.12500000E+03</rscale>
<asrwt>0</asrwt>
<pdfrwt beam="1">  1       21 0.15695051E+00 0.12500000E+03</pdfrwt>
<pdfrwt beam="2">  1       21 0.58907498E-03 0.12500000E+03</pdfrwt>
<totfact> 0.23025069E+06</totfact>
</mgrwt>
</event>
<event>
 3    1  0.1615911E-001  0.1250000E+03  0.7546771E-02  0.1235069E+00
         21   -1    0    0  502  501  0.00000000000E+00  0.00000000000E+00  0.61803823279E+01  0.61803823279E+01  0.00000000000E+00 0. -1.
         21   -1    0    0  501  502 -0.00000000000E+00 -0.00000000000E+00 -0.63204018663E+03  0.63204018663E+03  0.00000000000E+00 0. -1.
         25    1    1    2    0    0  0.00000000000E+00  0.00000000000E+00 -0.62585980430E+03  0.63822056896E+03  0.12500000000E+03 0.  0.
<mgrwt>
<rscale>  0 0.12500000E+03</rscale>
<asrwt>0</asrwt>
<pdfrwt beam="1">  1       21 0.95082864E-03 0.12500000E+03</pdfrwt>
<pdfrwt beam="2">  1       21 0.97236891E-01 0.12500000E+03</pdfrwt>
<totfact> 0.35419243E+06</totfact>
</mgrwt>
</event>
<event>
 3    1  0.1615911E-001  0.1250000E+03  0.7546771E-02  0.1235069E+00
         21   -1    0    0  502  501  0.00000000000E+00  0.00000000000E+00  0.84070397243E+02  0.84070397243E+02  0.00000000000E+00 0. -1.
         21   -1    0    0  501  502 -0.00000000000E+00 -0.00000000000E+00 -0.46464036428E+02  0.46464036428E+02  0.00000000000E+00 0. -1.
         25    1    1    2    0    0  0.00000000000E+00  0.00000000000E+00  0.37606360815E+02  0.13053443367E+03  0.12500000000E+03 0.  0.
<mgrwt>
<rscale>  0 0.12500000E+03</rscale>
<asrwt>0</asrwt>
<pdfrwt beam="1">  1       21 0.12933907E-01 0.12500000E+03</pdfrwt>
<pdfrwt beam="2">  1       21 0.71483133E-02 0.12500000E+03</pdfrwt>
<totfact> 0.73293480E+06</totfact>
</mgrwt>
</event>
<event>
 3    1  0.1615911E-001  0.1250000E+03  0.7546771E-02  0.1235069E+00
         21   -1    0    0  502  501  0.00000000000E+00  0.00000000000E+00  0.99560805463E+02  0.99560805463E+02  0.00000000000E+00 0.  1.
         21   -1    0    0  501  502 -0.00000000000E+00 -0.00000000000E+00 -0.39234817174E+02  0.39234817174E+02  0.00000000000E+00 0.  1.
         25    1    1    2    0    0  0.00000000000E+00  0.00000000000E+00  0.60325988289E+02  0.13879562264E+03  0.12500000000E+03 0.  0.
<mgrwt>
<rscale>  0 0.12500000E+03</rscale>
<asrwt>0</asrwt>
<pdfrwt beam="1">  1       21 0.15317047E-01 0.12500000E+03</pdfrwt>
<pdfrwt beam="2">  1       21 0.60361258E-02 0.12500000E+03</pdfrwt>
<totfact> 0.72196929E+06</totfact>
</mgrwt>
</event>
<event>
 3    1  0.1615911E-001  0.1250000E+03  0.7546771E-02  0.1235069E+00
         21   -1    0    0  502  501  0.00000000000E+00  0.00000000000E+00  0.11335856703E+04  0.11335856703E+04  0.00000000000E+00 0.  1.
         21   -1    0    0  501  502 -0.00000000000E+00 -0.00000000000E+00 -0.34459239407E+01  0.34459239407E+01  0.00000000000E+00 0.  1.
         25    1    1    2    0    0  0.00000000000E+00  0.00000000000E+00  0.11301397463E+04  0.11370315942E+04  0.12500000000E+03 0.  0.
<mgrwt>
<rscale>  0 0.12500000E+03</rscale>
<asrwt>0</asrwt>
<pdfrwt beam="1">  1       21 0.17439750E+00 0.12500000E+03</pdfrwt>
<pdfrwt beam="2">  1       21 0.53014305E-03 0.12500000E+03</pdfrwt>
<totfact> 0.20445118E+06</totfact>
</mgrwt>
</event>
<event>
 3    1  0.1615911E-001  0.1250000E+03  0.7546771E-02  0.1235069E+00
         21   -1    0    0  502  501  0.00000000000E+00  0.00000000000E+00  0.41156847897E+02  0.41156847897E+02  0.00000000000E+00 0.  1.
         21   -1    0    0  501  502 -0.00000000000E+00 -0.00000000000E+00 -0.94911301511E+02  0.94911301511E+02  0.00000000000E+00 0.  1.
         25    1    1    2    0    0  0.00000000000E+00  0.00000000000E+00 -0.53754453614E+02  0.13606814941E+03  0.12500000000E+03 0.  0.
<mgrwt>
<rscale>  0 0.12500000E+03</rscale>
<asrwt>0</asrwt>
<pdfrwt beam="1">  1       21 0.63318227E-02 0.12500000E+03</pdfrwt>
<pdfrwt beam="2">  1       21 0.14601739E-01 0.12500000E+03</pdfrwt>
<totfact> 0.72555349E+06</totfact>
</mgrwt>
</event>
<event>
 3    1  0.1615911E-001  0.1250000E+03  0.7546771E-02  0.1235069E+00
         21   -1    0    0  502  501  0.00000000000E+00  0.00000000000E+00  0.58568906606E+02  0.58568906606E+02  0.00000000000E+00 0.  1.
         21   -1    0    0  501  502 -0.00000000000E+00 -0.00000000000E+00 -0.66694944918E+02  0.66694944918E+02  0.00000000000E+00 0.  1.
         25    1    1    2    0    0  0.00000000000E+00  0.00000000000E+00 -0.81260383110E+01  0.12526385152E+03  0.12500000000E+03 0.  0.
<mgrwt>
<rscale>  0 0.12500000E+03</rscale>
<asrwt>0</asrwt>
<pdfrwt beam="1">  1       21 0.90106010E-02 0.12500000E+03</pdfrwt>
<pdfrwt beam="2">  1       21 0.10260761E-01 0.12500000E+03</pdfrwt>
<totfact> 0.74007951E+06</totfact>
</mgrwt>
</event>
<event>
 3    1  0.1615911E-001  0.1250000E+03  0.7546771E-02  0.1235069E+00
         21   -1    0    0  502  501  0.00000000000E+00  0.00000000000E+00  0.18255482524E+02  0.18255482524E+02  0.00000000000E+00 0. -1.
         21   -1    0    0  501  502 -0.00000000000E+00 -0.00000000000E+00 -0.21397681463E+03  0.21397681463E+03  0.00000000000E+00 0. -1.
         25    1    1    2    0    0  0.00000000000E+00  0.00000000000E+00 -0.19572133210E+03  0.23223229715E+03  0.12500000000E+03 0.  0.
<mgrwt>
<rscale>  0 0.12500000E+03</rscale>
<asrwt>0</asrwt>
<pdfrwt beam="1">  1       21 0.28085358E-02 0.12500000E+03</pdfrwt>
<pdfrwt beam="2">  1       21 0.32919509E-01 0.12500000E+03</pdfrwt>
<totfact> 0.61592526E+06</totfact>
</mgrwt>
</event>
<event>
 3    1  0.1615911E-001  0.1250000E+03  0.7546771E-02  0.1235069E+00
         21   -1    0    0  502  501  0.00000000000E+00  0.00000000000E+00  0.89491081885E+02  0.89491081885E+02  0.00000000000E+00 0.  1.
         21   -1    0    0  501  502 -0.00000000000E+00 -0.00000000000E+00 -0.43649600806E+02  0.43649600806E+02  0.00000000000E+00 0.  1.
         25    1    1    2    0    0  0.00000000000E+00  0.00000000000E+00  0.45841481079E+02  0.13314068269E+03  0.12500000000E+03 0.  0.
<mgrwt>
<rscale>  0 0.12500000E+03</rscale>
<asrwt>0</asrwt>
<pdfrwt beam="1">  1       21 0.13767859E-01 0.12500000E+03</pdfrwt>
<pdfrwt beam="2">  1       21 0.67153232E-02 0.12500000E+03</pdfrwt>
<totfact> 0.72943618E+06</totfact>
</mgrwt>
</event>
<event>
 3    1  0.1615911E-001  0.1250000E+03  0.7546771E-02  0.1235069E+00
         21   -1    0    0  502  501  0.00000000000E+00  0.00000000000E+00  0.37641348435E+02  0.37641348435E+02  0.00000000000E+00 0. -1.
         21   -1    0    0  501  502 -0.00000000000E+00 -0.00000000000E+00 -0.10377550652E+03  0.10377550652E+03  0.00000000000E+00 0. -1.
         25    1    1    2    0    0  0.00000000000E+00  0.00000000000E+00 -0.66134158087E+02  0.14141685496E+03  0.12500000000E+03 0.  0.
<mgrwt>
<rscale>  0 0.12500000E+03</rscale>
<asrwt>0</asrwt>
<pdfrwt beam="1">  1       21 0.57909768E-02 0.12500000E+03</pdfrwt>
<pdfrwt beam="2">  1       21 0.15965462E-01 0.12500000E+03</pdfrwt>
<totfact> 0.71854877E+06</totfact>
</mgrwt>
</event>
<event>
 3    1  0.1615911E-001  0.1250000E+03  0.7546771E-02  0.1235069E+00
         21   -1    0    0  502  501  0.00000000000E+00  0.00000000000E+00  0.37309448847E+02  0.37309448847E+02  0.00000000000E+00 0. -1.
         21   -1    0    0  501  502 -0.00000000000E+00 -0.00000000000E+00 -0.10469867877E+03  0.10469867877E+03  0.00000000000E+00 0. -1.
         25    1    1    2    0    0  0.00000000000E+00  0.00000000000E+00 -0.67389229927E+02  0.14200812762E+03  0.12500000000E+03 0.  0.
<mgrwt>
<rscale>  0 0.12500000E+03</rscale>
<asrwt>0</asrwt>
<pdfrwt beam="1">  1       21 0.57399152E-02 0.12500000E+03</pdfrwt>
<pdfrwt beam="2">  1       21 0.16107489E-01 0.12500000E+03</pdfrwt>
<totfact> 0.71778224E+06</totfact>
</mgrwt>
</event>
<event>
 3    1  0.1615911E-001  0.1250000E+03  0.7546771E-02  0.1235069E+00
         21   -1    0    0  502  501  0.00000000000E+00  0.00000000000E+00  0.37912436274E+03  0.37912436274E+03  0.00000000000E+00 0.  1.
         21   -1    0    0  501  502 -0.00000000000E+00 -0.00000000000E+00 -0.10303347355E+02  0.10303347355E+02  0.00000000000E+00 0.  1.
         25    1    1    2    0    0  0.00000000000E+00  0.00000000000E+00  0.36882101538E+03  0.38942771009E+03  0.12500000000E+03 0.  0.
<mgrwt>
<rscale>  0 0.12500000E+03</rscale>
<asrwt>0</asrwt>
<pdfrwt beam="1">  1       21 0.58326814E-01 0.12500000E+03</pdfrwt>
<pdfrwt beam="2">  1       21 0.15851307E-02 0.12500000E+03</pdfrwt>
<totfact> 0.48750601E+06</totfact>
</mgrwt>
</event>
<event>
 3    1  0.1615911E-001  0.1250000E+03  0.7546771E-02  0.1235069E+00
         21   -1    0    0  502  501  0.00000000000E+00  0.00000000000E+00  0.26546340565E+02  0.26546340565E+02  0.00000000000E+00 0. -1.
         21   -1    0    0  501  502 -0.00000000000E+00 -0.00000000000E+00 -0.14714834199E+03  0.14714834199E+03  0.00000000000E+00 0. -1.
         25    1    1    2    0    0  0.00000000000E+00  0.00000000000E+00 -0.12060200142E+03  0.17369468255E+03  0.12500000000E+03 0.  0.
<mgrwt>
<rscale>  0 0.12500000E+03</rscale>
<asrwt>0</asrwt>
<pdfrwt beam="1">  1       21 0.40840524E-02 0.12500000E+03</pdfrwt>
<pdfrwt beam="2">  1       21 0.22638206E-01 0.12500000E+03</pdfrwt>
<totfact> 0.67882328E+06</totfact>
</mgrwt>
</event>
<event>
 3    1  0.1615911E-001  0.1250000E+03  0.7546771E-02  0.1235069E+00
         21   -1    0    0  502  501  0.00000000000E+00  0.00000000000E+00  0.26819531327E+02  0.26819531327E+02  0.00000000000E+00 0. -1.
         21   -1    0    0  501  502 -0.00000000000E+00 -0.00000000000E+00 -0.14564945048E+03  0.14564945048E+03  0.00000000000E+00 0. -1.
         25    1    1    2    0    0  0.00000000000E+00  0.00000000000E+00 -0.11882991915E+03  0.17246898181E+03  0.12500000000E+03 0.  0.
<mgrwt>
<rscale>  0 0.12500000E+03</rscale>
<asrwt>0</asrwt>
<pdfrwt beam="1">  1       21 0.41260817E-02 0.12500000E+03</pdfrwt>
<pdfrwt beam="2">  1       21 0.22407608E-01 0.12500000E+03</pdfrwt>
<totfact> 0.68026150E+06</totfact>
</mgrwt>
</event>
<event>
 3    1  0.1615911E-001  0.1250000E+03  0.7546771E-02  0.1235069E+00
         21   -1    0    0  502  501  0.00000000000E+00  0.00000000000E+00  0.11043906917E+01  0.11043906917E+01  0.00000000000E+00 0. -1.
         21   -1    0    0  501  502 -0.00000000000E+00 -0.00000000000E+00 -0.35370182212E+04  0.35370182212E+04  0.00000000000E+00 0. -1.
         25    1    1    2    0    0  0.00000000000E+00  0.00000000000E+00 -0.35359138305E+04  0.35381226119E+04  0.12500000000E+03 0.  0.
<mgrwt>
<rscale>  0 0.12500000E+03</rscale>
<asrwt>0</asrwt>
<pdfrwt beam="1">  1       21 0.16990917E-03 0.12500000E+03</pdfrwt>
<pdfrwt beam="2">  1       21 0.54414734E+00 0.12500000E+03</pdfrwt>
<totfact> 0.58483099E+04</totfact>
</mgrwt>
</event>
<event>
 3    1  0.1615911E-001  0.1250000E+03  0.7546771E-02  0.1235069E+00
         21   -1    0    0  502  501  0.00000000000E+00  0.00000000000E+00  0.23880798910E+02  0.23880798910E+02  0.00000000000E+00 0.  1.
         21   -1    0    0  501  502 -0.00000000000E+00 -0.00000000000E+00 -0.16357283585E+03  0.16357283585E+03  0.00000000000E+00 0.  1.
         25    1    1    2    0    0  0.00000000000E+00  0.00000000000E+00 -0.13969203694E+03  0.18745363476E+03  0.12500000000E+03 0.  0.
<mgrwt>
<rscale>  0 0.12500000E+03</rscale>
<asrwt>0</asrwt>
<pdfrwt beam="1">  1       21 0.36739691E-02 0.12500000E+03</pdfrwt>
<pdfrwt beam="2">  1       21 0.25165052E-01 0.12500000E+03</pdfrwt>
<totfact> 0.66306593E+06</totfact>
</mgrwt>
</event>
<event>
 3    1  0.1615911E-001  0.1250000E+03  0.7546771E-02  0.1235069E+00
         21   -1    0    0  502  501  0.00000000000E+00  0.00000000000E+00  0.22497179251E+03  0.22497179251E+03  0.00000000000E+00 0.  1.
         21   -1    0    0  501  502 -0.00000000000E+00 -0.00000000000E+00 -0.17363287888E+02  0.17363287888E+02  0.00000000000E+00 0.  1.
         25    1    1    2    0    0  0.00000000000E+00  0.00000000000E+00  0.20760850462E+03  0.24233508040E+03  0.12500000000E+03 0.  0.
<mgrwt>
<rscale>  0 0.12500000E+03</rscale>
<asrwt>0</asrwt>
<pdfrwt beam="1">  1       21 0.34611043E-01 0.12500000E+03</pdfrwt>
<pdfrwt beam="2">  1       21 0.26712752E-02 0.12500000E+03</pdfrwt>
<totfact> 0.60607432E+06</totfact>
</mgrwt>
</event>
<event>
 3    1  0.1615911E-001  0.1250000E+03  0.7546771E-02  0.1235069E+00
         21   -1    0    0  502  501  0.00000000000E+00  0.00000000000E+00  0.50297173045E+02  0.50297173045E+02  0.00000000000E+00 0.  1.
         21   -1    0    0  501  502 -0.00000000000E+00 -0.00000000000E+00 -0.77663410556E+02  0.77663410556E+02  0.00000000000E+00 0.  1.
         25    1    1    2    0    0  0.00000000000E+00  0.00000000000E+00 -0.27366237511E+02  0.12796058360E+03  0.12500000000E+03 0.  0.
<mgrwt>
<rscale>  0 0.12500000E+03</rscale>
<asrwt>0</asrwt>
<pdfrwt beam="1">  1       21 0.77380267E-02 0.12500000E+03</pdfrwt>
<pdfrwt beam="2">  1       21 0.11948217E-01 0.12500000E+03</pdfrwt>
<totfact> 0.73638884E+06</totfact>
</mgrwt>
</event>
<event>
 3    1  0.1615911E-001  0.1250000E+03  0.7546771E-02  0.1235069E+00
         21   -1    0    0  502  501  0.00000000000E+00  0.00000000000E+00  0.73782040929E+03  0.73782040929E+03  0.00000000000E+00 0. -1.
         21   -1    0    0  501  502 -0.00000000000E+00 -0.00000000000E+00 -0.52943100391E+01  0.52943100391E+01  0.00000000000E+00 0. -1.
         25    1    1    2    0    0  0.00000000000E+00  0.00000000000E+00  0.73252609926E+03  0.74311471933E+03  0.12500000000E+03 0.  0.
<mgrwt>
<rscale>  0 0.12500000E+03</rscale>
<asrwt>0</asrwt>
<pdfrwt beam="1">  1       21 0.11351075E+00 0.12500000E+03</pdfrwt>
<pdfrwt beam="2">  1       21 0.81450982E-03 0.12500000E+03</pdfrwt>
<totfact> 0.31312537E+06</totfact>
</mgrwt>
</event>
<event>
 3    1  0.1615911E-001  0.1250000E+03  0.7546771E-02  0.1235069E+00
         21   -1    0    0  502  501  0.00000000000E+00  0.00000000000E+00  0.31794693329E+02  0.31794693329E+02  0.00000000000E+00 0. -1.
         21   -1    0    0  501  502 -0.00000000000E+00 -0.00000000000E+00 -0.12285855252E+03  0.12285855252E+03  0.00000000000E+00 0. -1.
         25    1    1    2    0    0  0.00000000000E+00  0.00000000000E+00 -0.91063859187E+02  0.15465324584E+03  0.12500000000E+03 0.  0.
<mgrwt>
<rscale>  0 0.12500000E+03</rscale>
<asrwt>0</asrwt>
<pdfrwt beam="1">  1       21 0.48914913E-02 0.12500000E+03</pdfrwt>
<pdfrwt beam="2">  1       21 0.18901316E-01 0.12500000E+03</pdfrwt>
<totfact> 0.70178781E+06</totfact>
</mgrwt>
</event>
<event>
 3    1  0.1615911E-001  0.1250000E+03  0.7546771E-02  0.1235069E+00
         21   -1    0    0  502  501  0.00000000000E+00  0.00000000000E+00  0.29731278060E+01  0.29731278060E+01  0.00000000000E+00 0. -1.
         21   -1    0    0  501  502 -0.00000000000E+00 -0.00000000000E+00 -0.13138520289E+04  0.13138520289E+04  0.00000000000E+00 0. -1.
         25    1    1    2    0    0  0.00000000000E+00  0.00000000000E+00 -0.13108789011E+04  0.13168251567E+04  0.12500000000E+03 0.  0.
<mgrwt>
<rscale>  0 0.12500000E+03</rscale>
<asrwt>0</asrwt>
<pdfrwt beam="1">  1       21 0.45740380E-03 0.12500000E+03</pdfrwt>
<pdfrwt beam="2">  1       21 0.20213129E+00 0.12500000E+03</pdfrwt>
<totfact> 0.16952898E+06</totfact>
</mgrwt>
</event>
<event>
 3    1  0.1615911E-001  0.1250000E+03  0.7546771E-02  0.1235069E+00
         21   -1    0    0  502  501  0.00000000000E+00  0.00000000000E+00  0.37075127612E+03  0.37075127612E+03  0.00000000000E+00 0.  1.
         21   -1    0    0  501  502 -0.00000000000E+00 -0.00000000000E+00 -0.10536039257E+02  0.10536039257E+02  0.00000000000E+00 0.  1.
         25    1    1    2    0    0  0.00000000000E+00  0.00000000000E+00  0.36021523687E+03  0.38128731538E+03  0.12500000000E+03 0.  0.
<mgrwt>
<rscale>  0 0.12500000E+03</rscale>
<asrwt>0</asrwt>
<pdfrwt beam="1">  1       21 0.57038648E-01 0.12500000E+03</pdfrwt>
<pdfrwt beam="2">  1       21 0.16209294E-02 0.12500000E+03</pdfrwt>
<totfact> 0.49307583E+06</totfact>
</mgrwt>
</event>
<event>
 3    1  0.1615911E-001  0.1250000E+03  0.7546771E-02  0.1235069E+00
         21   -1    0    0  502  501  0.00000000000E+00  0.00000000000E+00  0.11528057429E+04  0.11528057429E+04  0.00000000000E+00 0.  1.
         21   -1    0    0  501  502 -0.00000000000E+00 -0.00000000000E+00 -0.33884720162E+01  0.33884720162E+01  0.00000000000E+00 0.  1.
         25    1    1    2    0    0  0.00000000000E+00  0.00000000000E+00  0.11494172709E+04  0.11561942149E+04  0.12500000000E+03 0.  0.
<mgrwt>
<rscale>  0 0.12500000E+03</rscale>
<asrwt>0</asrwt>
<pdfrwt beam="1">  1       21 0.17735442E+00 0.12500000E+03</pdfrwt>
<pdfrwt beam="2">  1       21 0.52130431E-03 0.12500000E+03</pdfrwt>
<totfact> 0.20038860E+06</totfact>
</mgrwt>
</event>
<event>
 3    1  0.1615911E-001  0.1250000E+03  0.7546771E-02  0.1235069E+00
         21   -1    0    0  502  501  0.00000000000E+00  0.00000000000E+00  0.12529750711E+02  0.12529750711E+02  0.00000000000E+00 0. -1.
         21   -1    0    0  501  502 -0.00000000000E+00 -0.00000000000E+00 -0.31175799824E+03  0.31175799824E+03  0.00000000000E+00 0. -1.
         25    1    1    2    0    0  0.00000000000E+00  0.00000000000E+00 -0.29922824753E+03  0.32428774895E+03  0.12500000000E+03 0.  0.
<mgrwt>
<rscale>  0 0.12500000E+03</rscale>
<asrwt>0</asrwt>
<pdfrwt beam="1">  1       21 0.19276541E-02 0.12500000E+03</pdfrwt>
<pdfrwt beam="2">  1       21 0.47962767E-01 0.12500000E+03</pdfrwt>
<totfact> 0.53495301E+06</totfact>
</mgrwt>
</event>
<event>
 3    1  0.1615911E-001  0.1250000E+03  0.7546771E-02  0.1235069E+00
         21   -1    0    0  502  501  0.00000000000E+00  0.00000000000E+00  0.12055702657E+02  0.12055702657E+02  0.00000000000E+00 0. -1.
         21   -1    0    0  501  502 -0.00000000000E+00 -0.00000000000E+00 -0.32401678370E+03  0.32401678370E+03  0.00000000000E+00 0. -1.
         25    1    1    2    0    0  0.00000000000E+00  0.00000000000E+00 -0.31196108104E+03  0.33607248635E+03  0.12500000000E+03 0.  0.
<mgrwt>
<rscale>  0 0.12500000E+03</rscale>
<asrwt>0</asrwt>
<pdfrwt beam="1">  1       21 0.18547237E-02 0.12500000E+03</pdfrwt>
<pdfrwt beam="2">  1       21 0.49848730E-01 0.12500000E+03</pdfrwt>
<totfact> 0.52583763E+06</totfact>
</mgrwt>
</event>
<event>
 3    1  0.1615911E-001  0.1250000E+03  0.7546771E-02  0.1235069E+00
         21   -1    0    0  502  501  0.00000000000E+00  0.00000000000E+00  0.11859223789E+02  0.11859223789E+02  0.00000000000E+00 0.  1.
         21   -1    0    0  501  502 -0.00000000000E+00 -0.00000000000E+00 -0.32938496394E+03  0.32938496394E+03  0.00000000000E+00 0.  1.
         25    1    1    2    0    0  0.00000000000E+00  0.00000000000E+00 -0.31752574015E+03  0.34124418773E+03  0.12500000000E+03 0.  0.
<mgrwt>
<rscale>  0 0.12500000E+03</rscale>
<asrwt>0</asrwt>
<pdfrwt beam="1">  1       21 0.18244961E-02 0.12500000E+03</pdfrwt>
<pdfrwt beam="2">  1       21 0.50674606E-01 0.12500000E+03</pdfrwt>
<totfact> 0.52191647E+06</totfact>
</mgrwt>
</event>
<event>
 3    1  0.1615911E-001  0.1250000E+03  0.7546771E-02  0.1235069E+00
         21   -1    0    0  502  501  0.00000000000E+00  0.00000000000E+00  0.44777777517E+02  0.44777777517E+02  0.00000000000E+00 0.  1.
         21   -1    0    0  501  502 -0.00000000000E+00 -0.00000000000E+00 -0.87236352866E+02  0.87236352866E+02  0.00000000000E+00 0.  1.
         25    1    1    2    0    0  0.00000000000E+00  0.00000000000E+00 -0.42458575349E+02  0.13201413038E+03  0.12500000000E+03 0.  0.
<mgrwt>
<rscale>  0 0.12500000E+03</rscale>
<asrwt>0</asrwt>
<pdfrwt beam="1">  1       21 0.68888888E-02 0.12500000E+03</pdfrwt>
<pdfrwt beam="2">  1       21 0.13420977E-01 0.12500000E+03</pdfrwt>
<totfact> 0.73094333E+06</totfact>
</mgrwt>
</event>
<event>
 3    1  0.1615911E-001  0.1250000E+03  0.7546771E-02  0.1235069E+00
         21   -1    0    0  502  501  0.00000000000E+00  0.00000000000E+00  0.17069933256E+04  0.17069933256E+04  0.00000000000E+00 0. -1.
         21   -1    0    0  501  502 -0.00000000000E+00 -0.00000000000E+00 -0.22883803595E+01  0.22883803595E+01  0.00000000000E+00 0. -1.
         25    1    1    2    0    0  0.00000000000E+00  0.00000000000E+00  0.17047049452E+04  0.17092817059E+04  0.12500000000E+03 0.  0.
<mgrwt>
<rscale>  0 0.12500000E+03</rscale>
<asrwt>0</asrwt>
<pdfrwt beam="1">  1       21 0.26261334E+00 0.12500000E+03</pdfrwt>
<pdfrwt beam="2">  1       21 0.35205988E-03 0.12500000E+03</pdfrwt>
<totfact> 0.11154315E+06</totfact>
</mgrwt>
</event>
<event>
 3    1  0.1615911E-001  0.1250000E+03  0.7546771E-02  0.1235069E+00
         21   -1    0    0  502  501  0.00000000000E+00  0.00000000000E+00  0.47059467300E+01  0.47059467300E+01  0.00000000000E+00 0.  1.
         21   -1    0    0  501  502 -0.00000000000E+00 -0.00000000000E+00 -0.83006676959E+03  0.83006676959E+03  0.00000000000E+00 0.  1.
         25    1    1    2    0    0  0.00000000000E+00  0.00000000000E+00 -0.82536082286E+03  0.83477271632E+03  0.12500000000E+03 0.  0.
<mgrwt>
<rscale>  0 0.12500000E+03</rscale>
<asrwt>0</asrwt>
<pdfrwt beam="1">  1       21 0.72399229E-03 0.12500000E+03</pdfrwt>
<pdfrwt beam="2">  1       21 0.12770250E+00 0.12500000E+03</pdfrwt>
<totfact> 0.28242678E+06</totfact>
</mgrwt>
</event>
<event>
 3    1  0.1615911E-001  0.1250000E+03  0.7546771E-02  0.1235069E+00
         21   -1    0    0  502  501  0.00000000000E+00  0.00000000000E+00  0.11835098149E+03  0.11835098149E+03  0.00000000000E+00 0.  1.
         21   -1    0    0  501  502 -0.00000000000E+00 -0.00000000000E+00 -0.33005640940E+02  0.33005640940E+02  0.00000000000E+00 0.  1.
         25    1    1    2    0    0  0.00000000000E+00  0.00000000000E+00  0.85345340550E+02  0.15135662243E+03  0.12500000000E+03 0.  0.
<mgrwt>
<rscale>  0 0.12500000E+03</rscale>
<asrwt>0</asrwt>
<pdfrwt beam="1">  1       21 0.18207843E-01 0.12500000E+03</pdfrwt>
<pdfrwt beam="2">  1       21 0.50777910E-02 0.12500000E+03</pdfrwt>
<totfact> 0.70589198E+06</totfact>
</mgrwt>
</event>
<event>
 3    1  0.1615911E-001  0.1250000E+03  0.7546771E-02  0.1235069E+00
         21   -1    0    0  502  501  0.00000000000E+00  0.00000000000E+00  0.35241052297E+03  0.35241052297E+03  0.00000000000E+00 0. -1.
         21   -1    0    0  501  502 -0.00000000000E+00 -0.00000000000E+00 -0.11084373892E+02  0.11084373892E+02  0.00000000000E+00 0. -1.
         25    1    1    2    0    0  0.00000000000E+00  0.00000000000E+00  0.34132614908E+03  0.36349489687E+03  0.12500000000E+03 0.  0.
<mgrwt>
<rscale>  0 0.12500000E+03</rscale>
<asrwt>0</asrwt>
<pdfrwt beam="1">  1       21 0.54216995E-01 0.12500000E+03</pdfrwt>
<pdfrwt beam="2">  1       21 0.17052886E-02 0.12500000E+03</pdfrwt>
<totfact> 0.50556982E+06</totfact>
</mgrwt>
</event>
<event>
 3    1  0.1615911E-001  0.1250000E+03  0.7546771E-02  0.1235069E+00
         21   -1    0    0  502  501  0.00000000000E+00  0.00000000000E+00  0.56267880707E+02  0.56267880707E+02  0.00000000000E+00 0. -1.
         21   -1    0    0  501  502 -0.00000000000E+00 -0.00000000000E+00 -0.69422376512E+02  0.69422376512E+02  0.00000000000E+00 0. -1.
         25    1    1    2    0    0  0.00000000000E+00  0.00000000000E+00 -0.13154495805E+02  0.12569025722E+03  0.12500000000E+03 0.  0.
<mgrwt>
<rscale>  0 0.12500000E+03</rscale>
<asrwt>0</asrwt>
<pdfrwt beam="1">  1       21 0.86565971E-02 0.12500000E+03</pdfrwt>
<pdfrwt beam="2">  1       21 0.10680366E-01 0.12500000E+03</pdfrwt>
<totfact> 0.73948890E+06</totfact>
</mgrwt>
</event>
<event>
 3    1  0.1615911E-001  0.1250000E+03  0.7546771E-02  0.1235069E+00
         21   -1    0    0  502  501  0.00000000000E+00  0.00000000000E+00  0.56315900967E+01  0.56315900967E+01  0.00000000000E+00 0.  1.
         21   -1    0    0  501  502 -0.00000000000E+00 -0.00000000000E+00 -0.69363180433E+03  0.69363180433E+03  0.00000000000E+00 0.  1.
         25    1    1    2    0    0  0.00000000000E+00  0.00000000000E+00 -0.68800021423E+03  0.69926339443E+03  0.12500000000E+03 0.  0.
<mgrwt>
<rscale>  0 0.12500000E+03</rscale>
<asrwt>0</asrwt>
<pdfrwt beam="1">  1       21 0.86639876E-03 0.12500000E+03</pdfrwt>
<pdfrwt beam="2">  1       21 0.10671255E+00 0.12500000E+03</pdfrwt>
<totfact> 0.32938566E+06</totfact>
</mgrwt>
</event>
<event>
 3    1  0.1615911E-001  0.1250000E+03  0.7546771E-02  0.1235069E+00
         21   -1    0    0  502  501  0.00000000000E+00  0.00000000000E+00  0.96931879968E+01  0.96931879968E+01  0.00000000000E+00 0. -1.
         21   -1    0    0  501  502 -0.00000000000E+00 -0.00000000000E+00 -0.40298919213E+03  0.40298919213E+03  0.00000000000E+00 0. -1.
         25    1    1    2    0    0  0.00000000000E+00  0.00000000000E+00 -0.39329600413E+03  0.41268238013E+03  0.12500000000E+03 0.  0.
<mgrwt>
<rscale>  0 0.12500000E+03</rscale>
<asrwt>0</asrwt>
<pdfrwt beam="1">  1       21 0.14912597E-02 0.12500000E+03</pdfrwt>
<pdfrwt beam="2">  1       21 0.61998338E-01 0.12500000E+03</pdfrwt>
<totfact> 0.47211364E+06</totfact>
</mgrwt>
</event>
<event>
 3    1  0.1615911E-001  0.1250000E+03  0.7546771E-02  0.1235069E+00
         21   -1    0    0  502  501  0.00000000000E+00  0.00000000000E+00  0.19648549977E+01  0.19648549977E+01  0.00000000000E+00 0. -1.
         21   -1    0    0  501  502 -0.00000000000E+00 -0.00000000000E+00 -0.19880601900E+04  0.19880601900E+04  0.00000000000E+00 0. -1.
         25    1    1    2    0    0  0.00000000000E+00  0.00000000000E+00 -0.19860953350E+04  0.19900250450E+04  0.12500000000E+03 0.  0.
<mgrwt>
<rscale>  0 0.12500000E+03</rscale>
<asrwt>0</asrwt>
<pdfrwt beam="1">  1       21 0.30228412E-03 0.12500000E+03</pdfrwt>
<pdfrwt beam="2">  1       21 0.30585669E+00 0.12500000E+03</pdfrwt>
<totfact> 0.80455566E+05</totfact>
</mgrwt>
</event>
<event>
 3    1  0.1615911E-001  0.1250000E+03  0.7546771E-02  0.1235069E+00
         21   -1    0    0  502  501  0.00000000000E+00  0.00000000000E+00  0.38149430030E+02  0.38149430030E+02  0.00000000000E+00 0.  1.
         21   -1    0    0  501  502 -0.00000000000E+00 -0.00000000000E+00 -0.10239340396E+03  0.10239340396E+03  0.00000000000E+00 0.  1.
         25    1    1    2    0    0  0.00000000000E+00  0.00000000000E+00 -0.64243973931E+02  0.14054283399E+03  0.12500000000E+03 0.  0.
<mgrwt>
<rscale>  0 0.12500000E+03</rscale>
<asrwt>0</asrwt>
<pdfrwt beam="1">  1       21 0.58691431E-02 0.12500000E+03</pdfrwt>
<pdfrwt beam="2">  1       21 0.15752831E-01 0.12500000E+03</pdfrwt>
<totfact> 0.71968521E+06</totfact>
</mgrwt>
</event>
<event>
 3    1  0.1615911E-001  0.1250000E+03  0.7546771E-02  0.1235069E+00
         21   -1    0    0  502  501  0.00000000000E+00  0.00000000000E+00  0.20360932117E+03  0.20360932117E+03  0.00000000000E+00 0.  1.
         21   -1    0    0  501  502 -0.00000000000E+00 -0.00000000000E+00 -0.19185025408E+02  0.19185025408E+02  0.00000000000E+00 0.  1.
         25    1    1    2    0    0  0.00000000000E+00  0.00000000000E+00  0.18442429576E+03  0.22279434658E+03  0.12500000000E+03 0.  0.
<mgrwt>
<rscale>  0 0.12500000E+03</rscale>
<asrwt>0</asrwt>
<pdfrwt beam="1">  1       21 0.31324510E-01 0.12500000E+03</pdfrwt>
<pdfrwt beam="2">  1       21 0.29515425E-02 0.12500000E+03</pdfrwt>
<totfact> 0.62538053E+06</totfact>
</mgrwt>
</event>
<event>
 3    1  0.1615911E-001  0.1250000E+03  0.7546771E-02  0.1235069E+00
         21   -1    0    0  502  501  0.00000000000E+00  0.00000000000E+00  0.10654057787E+04  0.10654057787E+04  0.00000000000E+00 0.  1.
         21   -1    0    0  501  502 -0.00000000000E+00 -0.00000000000E+00 -0.36664434134E+01  0.36664434134E+01  0.00000000000E+00 0.  1.
         25    1    1    2    0    0  0.00000000000E+00  0.00000000000E+00  0.10617393353E+04  0.10690722221E+04  0.12500000000E+03 0.  0.
<mgrwt>
<rscale>  0 0.12500000E+03</rscale>
<asrwt>0</asrwt>
<pdfrwt beam="1">  1       21 0.16390834E+00 0.12500000E+03</pdfrwt>
<pdfrwt beam="2">  1       21 0.56406907E-03 0.12500000E+03</pdfrwt>
<totfact> 0.21952715E+06</totfact>
</mgrwt>
</event>
<event>
 3    1  0.1615911E-001  0.1250000E+03  0.7546771E-02  0.1235069E+00
         21   -1    0    0  502  501  0.00000000000E+00  0.00000000000E+00  0.32262997041E+01  0.32262997041E+01  0.00000000000E+00 0. -1.
         21   -1    0    0  501  502 -0.00000000000E+00 -0.00000000000E+00 -0.12107523660E+04  0.12107523660E+04  0.00000000000E+00 0. -1.
         25    1    1    2    0    0  0.00000000000E+00  0.00000000000E+00 -0.12075260662E+04  0.12139786657E+04  0.12500000000E+03 0.  0.
<mgrwt>
<rscale>  0 0.12500000E+03</rscale>
<asrwt>0</asrwt>
<pdfrwt beam="1">  1       21 0.49635363E-03 0.12500000E+03</pdfrwt>
<pdfrwt beam="2">  1       21 0.18626966E+00 0.12500000E+03</pdfrwt>
<totfact> 0.18867001E+06</totfact>
</mgrwt>
</event>
<event>
 3    1  0.1615911E-001  0.1250000E+03  0.7546771E-02  0.1235069E+00
         21   -1    0    0  502  501  0.00000000000E+00  0.00000000000E+00  0.12250419538E+02  0.12250419538E+02  0.00000000000E+00 0.  1.
         21   -1    0    0  501  502 -0.00000000000E+00 -0.00000000000E+00 -0.31886663048E+03  0.31886663048E+03  0.00000000000E+00 0.  1.
         25    1    1    2    0    0  0.00000000000E+00  0.00000000000E+00 -0.30661621094E+03  0.33111705002E+03  0.12500000000E+03 0.  0.
<mgrwt>
<rscale>  0 0.12500000E+03</rscale>
<asrwt>0</asrwt>
<pdfrwt beam="1">  1       21 0.18846802E-02 0.12500000E+03</pdfrwt>
<pdfrwt beam="2">  1       21 0.49056399E-01 0.12500000E+03</pdfrwt>
<totfact> 0.52963969E+06</totfact>
</mgrwt>
</event>
<event>
 3    1  0.1615911E-001  0.1250000E+03  0.7546771E-02  0.1235069E+00
         21   -1    0    0  502  501  0.00000000000E+00  0.00000000000E+00  0.79596592358E+01  0.79596592358E+01  0.00000000000E+00 0.  1.
         21   -1    0    0  501  502 -0.00000000000E+00 -0.00000000000E+00 -0.49075593368E+03  0.49075593368E+03  0.00000000000E+00 0.  1.
         25    1    1    2    0    0  0.00000000000E+00  0.00000000000E+00 -0.48279627444E+03  0.49871559291E+03  0.12500000000E+03 0.  0.
<mgrwt>
<rscale>  0 0.12500000E+03</rscale>
<asrwt>0</asrwt>
<pdfrwt beam="1">  1       21 0.12245629E-02 0.12500000E+03</pdfrwt>
<pdfrwt beam="2">  1       21 0.75500917E-01 0.12500000E+03</pdfrwt>
<totfact> 0.42113811E+06</totfact>
</mgrwt>
</event>
<event>
 3    1  0.1615911E-001  0.1250000E+03  0.7546771E-02  0.1235069E+00
         21   -1    0    0  502  501  0.00000000000E+00  0.00000000000E+00  0.41916861708E+03  0.41916861708E+03  0.00000000000E+00 0.  1.
         21   -1    0    0  501  502 -0.00000000000E+00 -0.00000000000E+00 -0.93190421249E+01  0.93190421249E+01  0.00000000000E+00 0.  1.
         25    1    1    2    0    0  0.00000000000E+00  0.00000000000E+00  0.40984957496E+03  0.42848765921E+03  0.12500000000E+03 0.  0.
<mgrwt>
<rscale>  0 0.12500000E+03</rscale>
<asrwt>0</asrwt>
<pdfrwt beam="1">  1       21 0.64487465E-01 0.12500000E+03</pdfrwt>
<pdfrwt beam="2">  1       21 0.14336991E-02 0.12500000E+03</pdfrwt>
<totfact> 0.46207472E+06</totfact>
</mgrwt>
</event>
<event>
 3    1  0.1615911E-001  0.1250000E+03  0.7546771E-02  0.1235069E+00
         21   -1    0    0  502  501  0.00000000000E+00  0.00000000000E+00  0.73621331779E+01  0.73621331779E+01  0.00000000000E+00 0.  1.
         21   -1    0    0  501  502 -0.00000000000E+00 -0.00000000000E+00 -0.53058670709E+03  0.53058670709E+03  0.00000000000E+00 0.  1.
         25    1    1    2    0    0  0.00000000000E+00  0.00000000000E+00 -0.52322457391E+03  0.53794884027E+03  0.12500000000E+03 0.  0.
<mgrwt>
<rscale>  0 0.12500000E+03</rscale>
<asrwt>0</asrwt>
<pdfrwt beam="1">  1       21 0.11326355E-02 0.12500000E+03</pdfrwt>
<pdfrwt beam="2">  1       21 0.81628753E-01 0.12500000E+03</pdfrwt>
<totfact> 0.40058059E+06</totfact>
</mgrwt>
</event>
<event>
 3    1  0.1615911E-001  0.1250000E+03  0.7546771E-02  0.1235069E+00
         21   -1    0    0  502  501  0.00000000000E+00  0.00000000000E+00  0.96006708953E+02  0.96006708953E+02  0.00000000000E+00 0.  1.
         21   -1    0    0  501  502 -0.00000000000E+00 -0.00000000000E+00 -0.40687260740E+02  0.40687260740E+02  0.00000000000E+00 0.  1.
         25    1    1    2    0    0  0.00000000000E+00  0.00000000000E+00  0.55319448213E+02  0.13669396969E+03  0.12500000000E+03 0.  0.
<mgrwt>
<rscale>  0 0.12500000E+03</rscale>
<asrwt>0</asrwt>
<pdfrwt beam="1">  1       21 0.14770263E-01 0.12500000E+03</pdfrwt>
<pdfrwt beam="2">  1       21 0.62595786E-02 0.12500000E+03</pdfrwt>
<totfact> 0.72472948E+06</totfact>
</mgrwt>
</event>
<event>
 3    1  0.1615911E-001  0.1250000E+03  0.7546771E-02  0.1235069E+00
         21   -1    0    0  502  501  0.00000000000E+00  0.00000000000E+00  0.18095791803E+02  0.18095791803E+02  0.00000000000E+00 0.  1.
         21   -1    0    0  501  502 -0.00000000000E+00 -0.00000000000E+00 -0.21586510513E+03  0.21586510513E+03  0.00000000000E+00 0.  1.
         25    1    1    2    0    0  0.00000000000E+00  0.00000000000E+00 -0.19776931332E+03  0.23396089693E+03  0.12500000000E+03 0.  0.
<mgrwt>
<rscale>  0 0.12500000E+03</rscale>
<asrwt>0</asrwt>
<pdfrwt beam="1">  1       21 0.27839677E-02 0.12500000E+03</pdfrwt>
<pdfrwt beam="2">  1       21 0.33210019E-01 0.12500000E+03</pdfrwt>
<totfact> 0.61421994E+06</totfact>
</mgrwt>
</event>
<event>
 3    1  0.1615911E-001  0.1250000E+03  0.7546771E-02  0.1235069E+00
         21   -1    0    0  502  501  0.00000000000E+00  0.00000000000E+00  0.37031518453E+02  0.37031518453E+02  0.00000000000E+00 0.  1.
         21   -1    0    0  501  502 -0.00000000000E+00 -0.00000000000E+00 -0.10548446737E+03  0.10548446737E+03  0.00000000000E+00 0.  1.
         25    1    1    2    0    0  0.00000000000E+00  0.00000000000E+00 -0.68452948918E+02  0.14251598582E+03  0.12500000000E+03 0.  0.
<mgrwt>
<rscale>  0 0.12500000E+03</rscale>
<asrwt>0</asrwt>
<pdfrwt beam="1">  1       21 0.56971568E-02 0.12500000E+03</pdfrwt>
<pdfrwt beam="2">  1       21 0.16228379E-01 0.12500000E+03</pdfrwt>
<totfact> 0.71712530E+06</totfact>
</mgrwt>
</event>
<event>
 3    1  0.1615911E-001  0.1250000E+03  0.7546771E-02  0.1235069E+00
         21   -1    0    0  502  501  0.00000000000E+00  0.00000000000E+00  0.16453209382E+03  0.16453209382E+03  0.00000000000E+00 0.  1.
         21   -1    0    0  501  502 -0.00000000000E+00 -0.00000000000E+00 -0.23741568647E+02  0.23741568647E+02  0.00000000000E+00 0.  1.
         25    1    1    2    0    0  0.00000000000E+00  0.00000000000E+00  0.14079052517E+03  0.18827366246E+03  0.12500000000E+03 0.  0.
<mgrwt>
<rscale>  0 0.12500000E+03</rscale>
<asrwt>0</asrwt>
<pdfrwt beam="1">  1       21 0.25312629E-01 0.12500000E+03</pdfrwt>
<pdfrwt beam="2">  1       21 0.36525491E-02 0.12500000E+03</pdfrwt>
<totfact> 0.66214846E+06</totfact>
</mgrwt>
</event>
<event>
 3    1  0.1615911E-001  0.1250000E+03  0.7546771E-02  0.1235069E+00
         21   -1    0    0  502  501  0.00000000000E+00  0.00000000000E+00  0.55206429419E+02  0.55206429419E+02  0.00000000000E+00 0. -1.
         21   -1    0    0  501  502 -0.00000000000E+00 -0.00000000000E+00 -0.70757157113E+02  0.70757157113E+02  0.00000000000E+00 0. -1.
         25    1    1    2    0    0  0.00000000000E+00  0.00000000000E+00 -0.15550727694E+02  0.12596358653E+03  0.12500000000E+03 0.  0.
<mgrwt>
<rscale>  0 0.12500000E+03</rscale>
<asrwt>0</asrwt>
<pdfrwt beam="1">  1       21 0.84932968E-02 0.12500000E+03</pdfrwt>
<pdfrwt beam="2">  1       21 0.10885716E-01 0.12500000E+03</pdfrwt>
<totfact> 0.73911061E+06</totfact>
</mgrwt>
</event>
<event>
 3    1  0.1615911E-001  0.1250000E+03  0.7546771E-02  0.1235069E+00
         21   -1    0    0  502  501  0.00000000000E+00  0.00000000000E+00  0.39362771245E+02  0.39362771245E+02  0.00000000000E+00 0. -1.
         21   -1    0    0  501  502 -0.00000000000E+00 -0.00000000000E+00 -0.99237169450E+02  0.99237169450E+02  0.00000000000E+00 0. -1.
         25    1    1    2    0    0  0.00000000000E+00  0.00000000000E+00 -0.59874398205E+02  0.13859994069E+03  0.12500000000E+03 0.  0.
<mgrwt>
<rscale>  0 0.12500000E+03</rscale>
<asrwt>0</asrwt>
<pdfrwt beam="1">  1       21 0.60558110E-02 0.12500000E+03</pdfrwt>
<pdfrwt beam="2">  1       21 0.15267257E-01 0.12500000E+03</pdfrwt>
<totfact> 0.72222614E+06</totfact>
</mgrwt>
</event>
<event>
 3    1  0.1615911E-001  0.1250000E+03  0.7546771E-02  0.1235069E+00
         21   -1    0    0  502  501  0.00000000000E+00  0.00000000000E+00  0.27919358003E+02  0.27919358003E+02  0.00000000000E+00 0. -1.
         21   -1    0    0  501  502 -0.00000000000E+00 -0.00000000000E+00 -0.13991188478E+03  0.13991188478E+03  0.00000000000E+00 0. -1.
         25    1    1    2    0    0  0.00000000000E+00  0.00000000000E+00 -0.11199252678E+03  0.16783124278E+03  0.12500000000E+03 0.  0.
<mgrwt>
<rscale>  0 0.12500000E+03</rscale>
<asrwt>0</asrwt>
<pdfrwt beam="1">  1       21 0.42952859E-02 0.12500000E+03</pdfrwt>
<pdfrwt beam="2">  1       21 0.21524905E-01 0.12500000E+03</pdfrwt>
<totfact> 0.68575038E+06</totfact>
</mgrwt>
</event>
<event>
 3    1  0.1615911E-001  0.1250000E+03  0.7546771E-02  0.1235069E+00
         21   -1    0    0  502  501  0.00000000000E+00  0.00000000000E+00  0.11551803097E+03  0.11551803097E+03  0.00000000000E+00 0. -1.
         21   -1    0    0  501  502 -0.00000000000E+00 -0.00000000000E+00 -0.33815067372E+02  0.33815067372E+02  0.00000000000E+00 0. -1.
         25    1    1    2    0    0  0.00000000000E+00  0.00000000000E+00  0.81702963602E+02  0.14933309835E+03  0.12500000000E+03 0.  0.
<mgrwt>
<rscale>  0 0.12500000E+03</rscale>
<asrwt>0</asrwt>
<pdfrwt beam="1">  1       21 0.17772005E-01 0.12500000E+03</pdfrwt>
<pdfrwt beam="2">  1       21 0.52023181E-02 0.12500000E+03</pdfrwt>
<totfact> 0.70843077E+06</totfact>
</mgrwt>
</event>
<event>
 3    1  0.1615911E-001  0.1250000E+03  0.7546771E-02  0.1235069E+00
         21   -1    0    0  502  501  0.00000000000E+00  0.00000000000E+00  0.15090508114E+02  0.15090508114E+02  0.00000000000E+00 0.  1.
         21   -1    0    0  501  502 -0.00000000000E+00 -0.00000000000E+00 -0.25885476954E+03  0.25885476954E+03  0.00000000000E+00 0.  1.
         25    1    1    2    0    0  0.00000000000E+00  0.00000000000E+00 -0.24376426142E+03  0.27394527765E+03  0.12500000000E+03 0.  0.
<mgrwt>
<rscale>  0 0.12500000E+03</rscale>
<asrwt>0</asrwt>
<pdfrwt beam="1">  1       21 0.23216168E-02 0.12500000E+03</pdfrwt>
<pdfrwt beam="2">  1       21 0.39823808E-01 0.12500000E+03</pdfrwt>
<totfact> 0.57693395E+06</totfact>
</mgrwt>
</event>
<event>
 3    1  0.1615911E-001  0.1250000E+03  0.7546771E-02  0.1235069E+00
         21   -1    0    0  502  501  0.00000000000E+00  0.00000000000E+00  0.24250470881E+02  0.24250470881E+02  0.00000000000E+00 0.  1.
         21   -1    0    0  501  502 -0.00000000000E+00 -0.00000000000E+00 -0.16107934642E+03  0.16107934642E+03  0.00000000000E+00 0.  1.
         25    1    1    2    0    0  0.00000000000E+00  0.00000000000E+00 -0.13682887554E+03  0.18532981730E+03  0.12500000000E+03 0.  0.
<mgrwt>
<rscale>  0 0.12500000E+03</rscale>
<asrwt>0</asrwt>
<pdfrwt beam="1">  1       21 0.37308416E-02 0.12500000E+03</pdfrwt>
<pdfrwt beam="2">  1       21 0.24781439E-01 0.12500000E+03</pdfrwt>
<totfact> 0.66545313E+06</totfact>
</mgrwt>
</event>
<event>
 3    1  0.1615911E-001  0.1250000E+03  0.7546771E-02  0.1235069E+00
         21   -1    0    0  502  501  0.00000000000E+00  0.00000000000E+00  0.15087141675E+04  0.15087141675E+04  0.00000000000E+00 0. -1.
         21   -1    0    0  501  502 -0.00000000000E+00 -0.00000000000E+00 -0.25891252858E+01  0.25891252858E+01  0.00000000000E+00 0. -1.
         25    1    1    2    0    0  0.00000000000E+00  0.00000000000E+00  0.15061250422E+04  0.15113032927E+04  0.12500000000E+03 0.  0.
<mgrwt>
<rscale>  0 0.12500000E+03</rscale>
<asrwt>0</asrwt>
<pdfrwt beam="1">  1       21 0.23210917E+00 0.12500000E+03</pdfrwt>
<pdfrwt beam="2">  1       21 0.39832817E-03 0.12500000E+03</pdfrwt>
<totfact> 0.13826205E+06</totfact>
</mgrwt>
</event>
<event>
 3    1  0.1615911E-001  0.1250000E+03  0.7546771E-02  0.1235069E+00
         21   -1    0    0  502  501  0.00000000000E+00  0.00000000000E+00  0.92778171761E+01  0.92778171761E+01  0.00000000000E+00 0.  1.
         21   -1    0    0  501  502 -0.00000000000E+00 -0.00000000000E+00 -0.42103114621E+03  0.42103114621E+03  0.00000000000E+00 0.  1.
         25    1    1    2    0    0  0.00000000000E+00  0.00000000000E+00 -0.41175332903E+03  0.43030896339E+03  0.12500000000E+03 0.  0.
<mgrwt>
<rscale>  0 0.12500000E+03</rscale>
<asrwt>0</asrwt>
<pdfrwt beam="1">  1       21 0.14273566E-02 0.12500000E+03</pdfrwt>
<pdfrwt beam="2">  1       21 0.64774018E-01 0.12500000E+03</pdfrwt>
<totfact> 0.46093887E+06</totfact>
</mgrwt>
</event>
<event>
 3    1  0.1615911E-001  0.1250000E+03  0.7546771E-02  0.1235069E+00
         21   -1    0    0  502  501  0.00000000000E+00  0.00000000000E+00  0.12484087832E+04  0.12484087832E+04  0.00000000000E+00 0.  1.
         21   -1    0    0  501  502 -0.00000000000E+00 -0.00000000000E+00 -0.31289831124E+01  0.31289831124E+01  0.00000000000E+00 0.  1.
         25    1    1    2    0    0  0.00000000000E+00  0.00000000000E+00  0.12452798001E+04  0.12515377663E+04  0.12500000000E+03 0.  0.
<mgrwt>
<rscale>  0 0.12500000E+03</rscale>
<asrwt>0</asrwt>
<pdfrwt beam="1">  1       21 0.19206249E+00 0.12500000E+03</pdfrwt>
<pdfrwt beam="2">  1       21 0.48138301E-03 0.12500000E+03</pdfrwt>
<totfact> 0.18145537E+06</totfact>
</mgrwt>
</event>
<event>
 3    1  0.1615911E-001  0.1250000E+03  0.7546771E-02  0.1235069E+00
         21   -1    0    0  502  501  0.00000000000E+00  0.00000000000E+00  0.13174651238E+03  0.13174651238E+03  0.00000000000E+00 0.  1.
         21   -1    0    0  501  502 -0.00000000000E+00 -0.00000000000E+00 -0.29649741230E+02  0.29649741230E+02  0.00000000000E+00 0.  1.
         25    1    1    2    0    0  0.00000000000E+00  0.00000000000E+00  0.10209677115E+03  0.16139625361E+03  0.12500000000E+03 0.  0.
<mgrwt>
<rscale>  0 0.12500000E+03</rscale>
<asrwt>0</asrwt>
<pdfrwt beam="1">  1       21 0.20268694E-01 0.12500000E+03</pdfrwt>
<pdfrwt beam="2">  1       21 0.45614987E-02 0.12500000E+03</pdfrwt>
<totfact> 0.69349290E+06</totfact>
</mgrwt>
</event>
<event>
 3    1  0.1615911E-001  0.1250000E+03  0.7546771E-02  0.1235069E+00
         21   -1    0    0  502  501  0.00000000000E+00  0.00000000000E+00  0.92599207689E+02  0.92599207689E+02  0.00000000000E+00 0. -1.
         21   -1    0    0  501  502 -0.00000000000E+00 -0.00000000000E+00 -0.42184486212E+02  0.42184486212E+02  0.00000000000E+00 0. -1.
         25    1    1    2    0    0  0.00000000000E+00  0.00000000000E+00  0.50414721476E+02  0.13478369390E+03  0.12500000000E+03 0.  0.
<mgrwt>
<rscale>  0 0.12500000E+03</rscale>
<asrwt>0</asrwt>
<pdfrwt beam="1">  1       21 0.14246032E-01 0.12500000E+03</pdfrwt>
<pdfrwt beam="2">  1       21 0.64899210E-02 0.12500000E+03</pdfrwt>
<totfact> 0.72725125E+06</totfact>
</mgrwt>
</event>
<event>
 3    1  0.1615911E-001  0.1250000E+03  0.7546771E-02  0.1235069E+00
         21   -1    0    0  502  501  0.00000000000E+00  0.00000000000E+00  0.33313964251E+02  0.33313964251E+02  0.00000000000E+00 0.  1.
         21   -1    0    0  501  502 -0.00000000000E+00 -0.00000000000E+00 -0.11725563402E+03  0.11725563402E+03  0.00000000000E+00 0.  1.
         25    1    1    2    0    0  0.00000000000E+00  0.00000000000E+00 -0.83941669770E+02  0.15056959827E+03  0.12500000000E+03 0.  0.
<mgrwt>
<rscale>  0 0.12500000E+03</rscale>
<asrwt>0</asrwt>
<pdfrwt beam="1">  1       21 0.51252251E-02 0.12500000E+03</pdfrwt>
<pdfrwt beam="2">  1       21 0.18039329E-01 0.12500000E+03</pdfrwt>
<totfact> 0.70687722E+06</totfact>
</mgrwt>
</event>
<event>
 3    1  0.1615911E-001  0.1250000E+03  0.7546771E-02  0.1235069E+00
         21   -1    0    0  502  501  0.00000000000E+00  0.00000000000E+00  0.34788846081E+02  0.34788846081E+02  0.00000000000E+00 0. -1.
         21   -1    0    0  501  502 -0.00000000000E+00 -0.00000000000E+00 -0.11228455209E+03  0.11228455209E+03  0.00000000000E+00 0. -1.
         25    1    1    2    0    0  0.00000000000E+00  0.00000000000E+00 -0.77495706013E+02  0.14707339817E+03  0.12500000000E+03 0.  0.
<mgrwt>
<rscale>  0 0.12500000E+03</rscale>
<asrwt>0</asrwt>
<pdfrwt beam="1">  1       21 0.53521302E-02 0.12500000E+03</pdfrwt>
<pdfrwt beam="2">  1       21 0.17274546E-01 0.12500000E+03</pdfrwt>
<totfact> 0.71128801E+06</totfact>
</mgrwt>
</event>
<event>
 3    1  0.1615911E-001  0.1250000E+03  0.7546771E-02  0.1235069E+00
         21   -1    0    0  502  501  0.00000000000E+00  0.00000000000E+00  0.76743965014E+02  0.76743965014E+02  0.00000000000E+00 0. -1.
         21   -1    0    0  501  502 -0.00000000000E+00 -0.00000000000E+00 -0.50899767810E+02  0.50899767810E+02  0.00000000000E+00 0. -1.
         25    1    1    2    0    0  0.00000000000E+00  0.00000000000E+00  0.25844197204E+02  0.12764373282E+03  0.12500000000E+03 0.  0.
<mgrwt>
<rscale>  0 0.12500000E+03</rscale>
<asrwt>0</asrwt>
<pdfrwt beam="1">  1       21 0.11806764E-01 0.12500000E+03</pdfrwt>
<pdfrwt beam="2">  1       21 0.78307335E-02 0.12500000E+03</pdfrwt>
<totfact> 0.73681744E+06</totfact>
</mgrwt>
</event>
<event>
 3    1  0.1615911E-001  0.1250000E+03  0.7546771E-02  0.1235069E+00
         21   -1    0    0  502  501  0.00000000000E+00  0.00000000000E+00  0.94598731984E+02  0.94598731984E+02  0.00000000000E+00 0. -1.
         21   -1    0    0  501  502 -0.00000000000E+00 -0.00000000000E+00 -0.41292836786E+02  0.41292836786E+02  0.00000000000E+00 0. -1.
         25    1    1    2    0    0  0.00000000000E+00  0.00000000000E+00  0.53305895198E+02  0.13589156877E+03  0.12500000000E+03 0.  0.
<mgrwt>
<rscale>  0 0.12500000E+03</rscale>
<asrwt>0</asrwt>
<pdfrwt beam="1">  1       21 0.14553651E-01 0.12500000E+03</pdfrwt>
<pdfrwt beam="2">  1       21 0.63527441E-02 0.12500000E+03</pdfrwt>
<totfact> 0.72578637E+06</totfact>
</mgrwt>
</event>
<event>
 3    1  0.1615911E-001  0.1250000E+03  0.7546771E-02  0.1235069E+00
         21   -1    0    0  502  501  0.00000000000E+00  0.00000000000E+00  0.30312503516E+02  0.30312503516E+02  0.00000000000E+00 0. -1.
         21   -1    0    0  501  502 -0.00000000000E+00 -0.00000000000E+00 -0.12886596443E+03  0.12886596443E+03  0.00000000000E+00 0. -1.
         25    1    1    2    0    0  0.00000000000E+00  0.00000000000E+00 -0.98553460916E+02  0.15917846795E+03  0.12500000000E+03 0.  0.
<mgrwt>
<rscale>  0 0.12500000E+03</rscale>
<asrwt>0</asrwt>
<pdfrwt beam="1">  1       21 0.46634621E-02 0.12500000E+03</pdfrwt>
<pdfrwt beam="2">  1       21 0.19825533E-01 0.12500000E+03</pdfrwt>
<totfact> 0.69620018E+06</totfact>
</mgrwt>
</event>
<event>
 3    1  0.1615911E-001  0.1250000E+03  0.7546771E-02  0.1235069E+00
         21   -1    0    0  502  501  0.00000000000E+00  0.00000000000E+00  0.90712518611E+02  0.90712518611E+02  0.00000000000E+00 0. -1.
         21   -1    0    0  501  502 -0.00000000000E+00 -0.00000000000E+00 -0.43061862462E+02  0.43061862462E+02  0.00000000000E+00 0. -1.
         25    1    1    2    0    0  0.00000000000E+00  0.00000000000E+00  0.47650656149E+02  0.13377438107E+03  0.12500000000E+03 0.  0.
<mgrwt>
<rscale>  0 0.12500000E+03</rscale>
<asrwt>0</asrwt>
<pdfrwt beam="1">  1       21 0.13955772E-01 0.12500000E+03</pdfrwt>
<pdfrwt beam="2">  1       21 0.66249019E-02 0.12500000E+03</pdfrwt>
<totfact> 0.72859166E+06</totfact>
</mgrwt>
</event>
<event>
 3    1  0.1615911E-001  0.1250000E+03  0.7546771E-02  0.1235069E+00
         21   -1    0    0  502  501  0.00000000000E+00  0.00000000000E+00  0.35694968750E+02  0.35694968750E+02  0.00000000000E+00 0. -1.
         21   -1    0    0  501  502 -0.00000000000E+00 -0.00000000000E+00 -0.10943419022E+03  0.10943419022E+03  0.00000000000E+00 0. -1.
         25    1    1    2    0    0  0.00000000000E+00  0.00000000000E+00 -0.73739221470E+02  0.14512915897E+03  0.12500000000E+03 0.  0.
<mgrwt>
<rscale>  0 0.12500000E+03</rscale>
<asrwt>0</asrwt>
<pdfrwt beam="1">  1       21 0.54915337E-02 0.12500000E+03</pdfrwt>
<pdfrwt beam="2">  1       21 0.16836029E-01 0.12500000E+03</pdfrwt>
<totfact> 0.71376574E+06</totfact>
</mgrwt>
</event>
<event>
 3    1  0.1615911E-001  0.1250000E+03  0.7546771E-02  0.1235069E+00
         21   -1    0    0  502  501  0.00000000000E+00  0.00000000000E+00  0.67286971431E+03  0.67286971431E+03  0.00000000000E+00 0.  1.
         21   -1    0    0  501  502 -0.00000000000E+00 -0.00000000000E+00 -0.58053586258E+01  0.58053586258E+01  0.00000000000E+00 0.  1.
         25    1    1    2    0    0  0.00000000000E+00  0.00000000000E+00  0.66706435568E+03  0.67867507293E+03  0.12500000000E+03 0.  0.
<mgrwt>
<rscale>  0 0.12500000E+03</rscale>
<asrwt>0</asrwt>
<pdfrwt beam="1">  1       21 0.10351836E+00 0.12500000E+03</pdfrwt>
<pdfrwt beam="2">  1       21 0.89313263E-03 0.12500000E+03</pdfrwt>
<totfact> 0.33748634E+06</totfact>
</mgrwt>
</event>
<event>
 3    1  0.1615911E-001  0.1250000E+03  0.7546771E-02  0.1235069E+00
         21   -1    0    0  502  501  0.00000000000E+00  0.00000000000E+00  0.26117535490E+03  0.26117535490E+03  0.00000000000E+00 0.  1.
         21   -1    0    0  501  502 -0.00000000000E+00 -0.00000000000E+00 -0.14956426503E+02  0.14956426503E+02  0.00000000000E+00 0.  1.
         25    1    1    2    0    0  0.00000000000E+00  0.00000000000E+00  0.24621892840E+03  0.27613178141E+03  0.12500000000E+03 0.  0.
<mgrwt>
<rscale>  0 0.12500000E+03</rscale>
<asrwt>0</asrwt>
<pdfrwt beam="1">  1       21 0.40180820E-01 0.12500000E+03</pdfrwt>
<pdfrwt beam="2">  1       21 0.23009889E-02 0.12500000E+03</pdfrwt>
<totfact> 0.57499938E+06</totfact>
</mgrwt>
</event>
<event>
 3    1  0.1615911E-001  0.1250000E+03  0.7546771E-02  0.1235069E+00
         21   -1    0    0  502  501  0.00000000000E+00  0.00000000000E+00  0.15712542000E+03  0.15712542000E+03  0.00000000000E+00 0.  1.
         21   -1    0    0  501  502 -0.00000000000E+00 -0.00000000000E+00 -0.24860713181E+02  0.24860713181E+02  0.00000000000E+00 0.  1.
         25    1    1    2    0    0  0.00000000000E+00  0.00000000000E+00  0.13226470682E+03  0.18198613318E+03  0.12500000000E+03 0.  0.
<mgrwt>
<rscale>  0 0.12500000E+03</rscale>
<asrwt>0</asrwt>
<pdfrwt beam="1">  1       21 0.24173141E-01 0.12500000E+03</pdfrwt>
<pdfrwt beam="2">  1       21 0.38247252E-02 0.12500000E+03</pdfrwt>
<totfact> 0.66924421E+06</totfact>
</mgrwt>
</event>
<event>
 3    1  0.1615911E-001  0.1250000E+03  0.7546771E-02  0.1235069E+00
         21   -1    0    0  502  501  0.00000000000E+00  0.00000000000E+00  0.39481053636E+02  0.39481053636E+02  0.00000000000E+00 0. -1.
         21   -1    0    0  501  502 -0.00000000000E+00 -0.00000000000E+00 -0.98939862042E+02  0.98939862042E+02  0.00000000000E+00 0. -1.
         25    1    1    2    0    0  0.00000000000E+00  0.00000000000E+00 -0.59458808406E+02  0.13842091568E+03  0.12500000000E+03 0.  0.
<mgrwt>
<rscale>  0 0.12500000E+03</rscale>
<asrwt>0</asrwt>
<pdfrwt beam="1">  1       21 0.60740083E-02 0.12500000E+03</pdfrwt>
<pdfrwt beam="2">  1       21 0.15221517E-01 0.12500000E+03</pdfrwt>
<totfact> 0.72246131E+06</totfact>
</mgrwt>
</event>
<event>
 3    1  0.1615911E-001  0.1250000E+03  0.7546771E-02  0.1235069E+00
         21   -1    0    0  502  501  0.00000000000E+00  0.00000000000E+00  0.17450177311E+02  0.17450177311E+02  0.00000000000E+00 0.  1.
         21   -1    0    0  501  502 -0.00000000000E+00 -0.00000000000E+00 -0.22385159362E+03  0.22385159362E+03  0.00000000000E+00 0.  1.
         25    1    1    2    0    0  0.00000000000E+00  0.00000000000E+00 -0.20640141631E+03  0.24130177093E+03  0.12500000000E+03 0.  0.
<mgrwt>
<rscale>  0 0.12500000E+03</rscale>
<asrwt>0</asrwt>
<pdfrwt beam="1">  1       21 0.26846427E-02 0.12500000E+03</pdfrwt>
<pdfrwt beam="2">  1       21 0.34438707E-01 0.12500000E+03</pdfrwt>
<totfact> 0.60706920E+06</totfact>
</mgrwt>
</event>
<event>
 3    1  0.1615911E-001  0.1250000E+03  0.7546771E-02  0.1235069E+00
         21   -1    0    0  502  501  0.00000000000E+00  0.00000000000E+00  0.39105507109E+02  0.39105507109E+02  0.00000000000E+00 0. -1.
         21   -1    0    0  501  502 -0.00000000000E+00 -0.00000000000E+00 -0.99890022883E+02  0.99890022883E+02  0.00000000000E+00 0. -1.
         25    1    1    2    0    0  0.00000000000E+00  0.00000000000E+00 -0.60784515774E+02  0.13899552999E+03  0.12500000000E+03 0.  0.
<mgrwt>
<rscale>  0 0.12500000E+03</rscale>
<asrwt>0</asrwt>
<pdfrwt beam="1">  1       21 0.60162320E-02 0.12500000E+03</pdfrwt>
<pdfrwt beam="2">  1       21 0.15367696E-01 0.12500000E+03</pdfrwt>
<totfact> 0.72170712E+06</totfact>
</mgrwt>
</event>
<event>
 3    1  0.1615911E-001  0.1250000E+03  0.7546771E-02  0.1235069E+00
         21   -1    0    0  502  501  0.00000000000E+00  0.00000000000E+00  0.44330460177E+02  0.44330460177E+02  0.00000000000E+00 0.  1.
         21   -1    0    0  501  502 -0.00000000000E+00 -0.00000000000E+00 -0.88116612920E+02  0.88116612920E+02  0.00000000000E+00 0.  1.
         25    1    1    2    0    0  0.00000000000E+00  0.00000000000E+00 -0.43786152743E+02  0.13244707310E+03  0.12500000000E+03 0.  0.
<mgrwt>
<rscale>  0 0.12500000E+03</rscale>
<asrwt>0</asrwt>
<pdfrwt beam="1">  1       21 0.68200709E-02 0.12500000E+03</pdfrwt>
<pdfrwt beam="2">  1       21 0.13556402E-01 0.12500000E+03</pdfrwt>
<totfact> 0.73036323E+06</totfact>
</mgrwt>
</event>
<event>
 3    1  0.1615911E-001  0.1250000E+03  0.7546771E-02  0.1235069E+00
         21   -1    0    0  502  501  0.00000000000E+00  0.00000000000E+00  0.18354131860E+02  0.18354131860E+02  0.00000000000E+00 0.  1.
         21   -1    0    0  501  502 -0.00000000000E+00 -0.00000000000E+00 -0.21282673731E+03  0.21282673731E+03  0.00000000000E+00 0.  1.
         25    1    1    2    0    0  0.00000000000E+00  0.00000000000E+00 -0.19447260545E+03  0.23118086917E+03  0.12500000000E+03 0.  0.
<mgrwt>
<rscale>  0 0.12500000E+03</rscale>
<asrwt>0</asrwt>
<pdfrwt beam="1">  1       21 0.28237124E-02 0.12500000E+03</pdfrwt>
<pdfrwt beam="2">  1       21 0.32742577E-01 0.12500000E+03</pdfrwt>
<totfact> 0.61696657E+06</totfact>
</mgrwt>
</event>
<event>
 3    1  0.1615911E-001  0.1250000E+03  0.7546771E-02  0.1235069E+00
         21   -1    0    0  502  501  0.00000000000E+00  0.00000000000E+00  0.54698384012E+02  0.54698384012E+02  0.00000000000E+00 0. -1.
         21   -1    0    0  501  502 -0.00000000000E+00 -0.00000000000E+00 -0.71414358404E+02  0.71414358404E+02  0.00000000000E+00 0. -1.
         25    1    1    2    0    0  0.00000000000E+00  0.00000000000E+00 -0.16715974392E+02  0.12611274242E+03  0.12500000000E+03 0.  0.
<mgrwt>
<rscale>  0 0.12500000E+03</rscale>
<asrwt>0</asrwt>
<pdfrwt beam="1">  1       21 0.84151360E-02 0.12500000E+03</pdfrwt>
<pdfrwt beam="2">  1       21 0.10986824E-01 0.12500000E+03</pdfrwt>
<totfact> 0.73890509E+06</totfact>
</mgrwt>
</event>
<event>
 3    1  0.1615911E-001  0.1250000E+03  0.7546771E-02  0.1235069E+00
         21   -1    0    0  502  501  0.00000000000E+00  0.00000000000E+00  0.58685975522E+03  0.58685975522E+03  0.00000000000E+00 0. -1.
         21   -1    0    0  501  502 -0.00000000000E+00 -0.00000000000E+00 -0.66561899419E+01  0.66561899419E+01  0.00000000000E+00 0. -1.
         25    1    1    2    0    0  0.00000000000E+00  0.00000000000E+00  0.58020356528E+03  0.59351594516E+03  0.12500000000E+03 0.  0.
<mgrwt>
<rscale>  0 0.12500000E+03</rscale>
<asrwt>0</asrwt>
<pdfrwt beam="1">  1       21 0.90286075E-01 0.12500000E+03</pdfrwt>
<pdfrwt beam="2">  1       21 0.10240297E-02 0.12500000E+03</pdfrwt>
<totfact> 0.37387527E+06</totfact>
</mgrwt>
</event>
<event>
 3    1  0.1615911E-001  0.1250000E+03  0.7546771E-02  0.1235069E+00
         21   -1    0    0  502  501  0.00000000000E+00  0.00000000000E+00  0.34935725262E+02  0.34935725262E+02  0.00000000000E+00 0. -1.
         21   -1    0    0  501  502 -0.00000000000E+00 -0.00000000000E+00 -0.11181247765E+03  0.11181247765E+03  0.00000000000E+00 0. -1.
         25    1    1    2    0    0  0.00000000000E+00  0.00000000000E+00 -0.76876752388E+02  0.14674820291E+03  0.12500000000E+03 0.  0.
<mgrwt>
<rscale>  0 0.12500000E+03</rscale>
<asrwt>0</asrwt>
<pdfrwt beam="1">  1       21 0.53747270E-02 0.12500000E+03</pdfrwt>
<pdfrwt beam="2">  1       21 0.17201920E-01 0.12500000E+03</pdfrwt>
<totfact> 0.71170117E+06</totfact>
</mgrwt>
</event>
<event>
 3    1  0.1615911E-001  0.1250000E+03  0.7546771E-02  0.1235069E+00
         21   -1    0    0  502  501  0.00000000000E+00  0.00000000000E+00  0.51980843080E+01  0.51980843080E+01  0.00000000000E+00 0. -1.
         21   -1    0    0  501  502 -0.00000000000E+00 -0.00000000000E+00 -0.75147876959E+03  0.75147876959E+03  0.00000000000E+00 0. -1.
         25    1    1    2    0    0  0.00000000000E+00  0.00000000000E+00 -0.74628068528E+03  0.75667685390E+03  0.12500000000E+03 0.  0.
<mgrwt>
<rscale>  0 0.12500000E+03</rscale>
<asrwt>0</asrwt>
<pdfrwt beam="1">  1       21 0.79970557E-03 0.12500000E+03</pdfrwt>
<pdfrwt beam="2">  1       21 0.11561208E+00 0.12500000E+03</pdfrwt>
<totfact> 0.30835417E+06</totfact>
</mgrwt>
</event>
<event>
 3    1  0.1615911E-001  0.1250000E+03  0.7546771E-02  0.1235069E+00
         21   -1    0    0  502  501  0.00000000000E+00  0.00000000000E+00  0.17336374281E+03  0.17336374281E+03  0.00000000000E+00 0.  1.
         21   -1    0    0  501  502 -0.00000000000E+00 -0.00000000000E+00 -0.22532104676E+02  0.22532104676E+02  0.00000000000E+00 0.  1.
         25    1    1    2    0    0  0.00000000000E+00  0.00000000000E+00  0.15083163813E+03  0.19589584748E+03  0.12500000000E+03 0.  0.
<mgrwt>
<rscale>  0 0.12500000E+03</rscale>
<asrwt>0</asrwt>
<pdfrwt beam="1">  1       21 0.26671344E-01 0.12500000E+03</pdfrwt>
<pdfrwt beam="2">  1       21 0.34664778E-02 0.12500000E+03</pdfrwt>
<totfact> 0.65373108E+06</totfact>
</mgrwt>
</event>
<event>
 3    1  0.1615911E-001  0.1250000E+03  0.7546771E-02  0.1235069E+00
         21   -1    0    0  502  501  0.00000000000E+00  0.00000000000E+00  0.17488707887E+03  0.17488707887E+03  0.00000000000E+00 0. -1.
         21   -1    0    0  501  502 -0.00000000000E+00 -0.00000000000E+00 -0.22335841076E+02  0.22335841076E+02  0.00000000000E+00 0. -1.
         25    1    1    2    0    0  0.00000000000E+00  0.00000000000E+00  0.15255123780E+03  0.19722291995E+03  0.12500000000E+03 0.  0.
<mgrwt>
<rscale>  0 0.12500000E+03</rscale>
<asrwt>0</asrwt>
<pdfrwt beam="1">  1       21 0.26905704E-01 0.12500000E+03</pdfrwt>
<pdfrwt beam="2">  1       21 0.34362833E-02 0.12500000E+03</pdfrwt>
<totfact> 0.65228549E+06</totfact>
</mgrwt>
</event>
<event>
 3    1  0.1615911E-001  0.1250000E+03  0.7546771E-02  0.1235069E+00
         21   -1    0    0  502  501  0.00000000000E+00  0.00000000000E+00  0.15316856902E+03  0.15316856902E+03  0.00000000000E+00 0. -1.
         21   -1    0    0  501  502 -0.00000000000E+00 -0.00000000000E+00 -0.25502947668E+02  0.25502947668E+02  0.00000000000E+00 0. -1.
         25    1    1    2    0    0  0.00000000000E+00  0.00000000000E+00  0.12766562135E+03  0.17867151669E+03  0.12500000000E+03 0.  0.
<mgrwt>
<rscale>  0 0.12500000E+03</rscale>
<asrwt>0</asrwt>
<pdfrwt beam="1">  1       21 0.23564395E-01 0.12500000E+03</pdfrwt>
<pdfrwt beam="2">  1       21 0.39235305E-02 0.12500000E+03</pdfrwt>
<totfact> 0.67304264E+06</totfact>
</mgrwt>
</event>
<event>
 3    1  0.1615911E-001  0.1250000E+03  0.7546771E-02  0.1235069E+00
         21   -1    0    0  502  501  0.00000000000E+00  0.00000000000E+00  0.79725746265E+02  0.79725746265E+02  0.00000000000E+00 0. -1.
         21   -1    0    0  501  502 -0.00000000000E+00 -0.00000000000E+00 -0.48996092016E+02  0.48996092016E+02  0.00000000000E+00 0. -1.
         25    1    1    2    0    0  0.00000000000E+00  0.00000000000E+00  0.30729654249E+02  0.12872183828E+03  0.12500000000E+03 0.  0.
<mgrwt>
<rscale>  0 0.12500000E+03</rscale>
<asrwt>0</asrwt>
<pdfrwt beam="1">  1       21 0.12265499E-01 0.12500000E+03</pdfrwt>
<pdfrwt beam="2">  1       21 0.75378603E-02 0.12500000E+03</pdfrwt>
<totfact> 0.73536266E+06</totfact>
</mgrwt>
</event>
<event>
 3    1  0.1615911E-001  0.1250000E+03  0.7546771E-02  0.1235069E+00
         21   -1    0    0  502  501  0.00000000000E+00  0.00000000000E+00  0.32939133251E+02  0.32939133251E+02  0.00000000000E+00 0.  1.
         21   -1    0    0  501  502 -0.00000000000E+00 -0.00000000000E+00 -0.11858994498E+03  0.11858994498E+03  0.00000000000E+00 0.  1.
         25    1    1    2    0    0  0.00000000000E+00  0.00000000000E+00 -0.85650811732E+02  0.15152907823E+03  0.12500000000E+03 0.  0.
<mgrwt>
<rscale>  0 0.12500000E+03</rscale>
<asrwt>0</asrwt>
<pdfrwt beam="1">  1       21 0.50675590E-02 0.12500000E+03</pdfrwt>
<pdfrwt beam="2">  1       21 0.18244607E-01 0.12500000E+03</pdfrwt>
<totfact> 0.70567646E+06</totfact>
</mgrwt>
</event>
<event>
 3    1  0.1615911E-001  0.1250000E+03  0.7546771E-02  0.1235069E+00
         21   -1    0    0  502  501  0.00000000000E+00  0.00000000000E+00  0.31796753328E+01  0.31796753328E+01  0.00000000000E+00 0.  1.
         21   -1    0    0  501  502 -0.00000000000E+00 -0.00000000000E+00 -0.12285059294E+04  0.12285059294E+04  0.00000000000E+00 0.  1.
         25    1    1    2    0    0  0.00000000000E+00  0.00000000000E+00 -0.12253262541E+04  0.12316856048E+04  0.12500000000E+03 0.  0.
<mgrwt>
<rscale>  0 0.12500000E+03</rscale>
<asrwt>0</asrwt>
<pdfrwt beam="1">  1       21 0.48918078E-03 0.12500000E+03</pdfrwt>
<pdfrwt beam="2">  1       21 0.18900093E+00 0.12500000E+03</pdfrwt>
<totfact> 0.18523172E+06</totfact>
</mgrwt>
</event>
<event>
 3    1  0.1615911E-001  0.1250000E+03  0.7546771E-02  0.1235069E+00
         21   -1    0    0  502  501  0.00000000000E+00  0.00000000000E+00  0.50886057556E+01  0.50886057556E+01  0.00000000000E+00 0. -1.
         21   -1    0    0  501  502 -0.00000000000E+00 -0.00000000000E+00 -0.76764642175E+03  0.76764642175E+03  0.00000000000E+00 0. -1.
         25    1    1    2    0    0  0.00000000000E+00  0.00000000000E+00 -0.76255781600E+03  0.77273502751E+03  0.12500000000E+03 0.  0.
<mgrwt>
<rscale>  0 0.12500000E+03</rscale>
<asrwt>0</asrwt>
<pdfrwt beam="1">  1       21 0.78286286E-03 0.12500000E+03</pdfrwt>
<pdfrwt beam="2">  1       21 0.11809938E+00 0.12500000E+03</pdfrwt>
<totfact> 0.30284883E+06</totfact>
</mgrwt>
</event>
<event>
 3    1  0.1615911E-001  0.1250000E+03  0.7546771E-02  0.1235069E+00
         21   -1    0    0  502  501  0.00000000000E+00  0.00000000000E+00  0.80551107760E+03  0.80551107760E+03  0.00000000000E+00 0. -1.
         21   -1    0    0  501  502 -0.00000000000E+00 -0.00000000000E+00 -0.48494056862E+01  0.48494056862E+01  0.00000000000E+00 0. -1.
         25    1    1    2    0    0  0.00000000000E+00  0.00000000000E+00  0.80066167191E+03  0.81036048328E+03  0.12500000000E+03 0.  0.
<mgrwt>
<rscale>  0 0.12500000E+03</rscale>
<asrwt>0</asrwt>
<pdfrwt beam="1">  1       21 0.12392467E+00 0.12500000E+03</pdfrwt>
<pdfrwt beam="2">  1       21 0.74606305E-03 0.12500000E+03</pdfrwt>
<totfact> 0.29022431E+06</totfact>
</mgrwt>
</event>
<event>
 3    1  0.1615911E-001  0.1250000E+03  0.7546771E-02  0.1235069E+00
         21   -1    0    0  502  501  0.00000000000E+00  0.00000000000E+00  0.62576134041E+02  0.62576134041E+02  0.00000000000E+00 0. -1.
         21   -1    0    0  501  502 -0.00000000000E+00 -0.00000000000E+00 -0.62423958588E+02  0.62423958588E+02  0.00000000000E+00 0. -1.
         25    1    1    2    0    0  0.00000000000E+00  0.00000000000E+00  0.15217545250E+00  0.12500009263E+03  0.12500000000E+03 0.  0.
<mgrwt>
<rscale>  0 0.12500000E+03</rscale>
<asrwt>0</asrwt>
<pdfrwt beam="1">  1       21 0.96270976E-02 0.12500000E+03</pdfrwt>
<pdfrwt beam="2">  1       21 0.96036859E-02 0.12500000E+03</pdfrwt>
<totfact> 0.74043569E+06</totfact>
</mgrwt>
</event>
<event>
 3    1  0.1615911E-001  0.1250000E+03  0.7546771E-02  0.1235069E+00
         21   -1    0    0  502  501  0.00000000000E+00  0.00000000000E+00  0.13830407425E+02  0.13830407425E+02  0.00000000000E+00 0. -1.
         21   -1    0    0  501  502 -0.00000000000E+00 -0.00000000000E+00 -0.28243925720E+03  0.28243925720E+03  0.00000000000E+00 0. -1.
         25    1    1    2    0    0  0.00000000000E+00  0.00000000000E+00 -0.26860884978E+03  0.29626966463E+03  0.12500000000E+03 0.  0.
<mgrwt>
<rscale>  0 0.12500000E+03</rscale>
<asrwt>0</asrwt>
<pdfrwt beam="1">  1       21 0.21277550E-02 0.12500000E+03</pdfrwt>
<pdfrwt beam="2">  1       21 0.43452194E-01 0.12500000E+03</pdfrwt>
<totfact> 0.55767610E+06</totfact>
</mgrwt>
</event>
<event>
 3    1  0.1615911E-001  0.1250000E+03  0.7546771E-02  0.1235069E+00
         21   -1    0    0  502  501  0.00000000000E+00  0.00000000000E+00  0.60783490822E+03  0.60783490822E+03  0.00000000000E+00 0. -1.
         21   -1    0    0  501  502 -0.00000000000E+00 -0.00000000000E+00 -0.64264982928E+01  0.64264982928E+01  0.00000000000E+00 0. -1.
         25    1    1    2    0    0  0.00000000000E+00  0.00000000000E+00  0.60140840993E+03  0.61426140651E+03  0.12500000000E+03 0.  0.
<mgrwt>
<rscale>  0 0.12500000E+03</rscale>
<asrwt>0</asrwt>
<pdfrwt beam="1">  1       21 0.93513018E-01 0.12500000E+03</pdfrwt>
<pdfrwt beam="2">  1       21 0.98869252E-03 0.12500000E+03</pdfrwt>
<totfact> 0.36455530E+06</totfact>
</mgrwt>
</event>
<event>
 3    1  0.1615911E-001  0.1250000E+03  0.7546771E-02  0.1235069E+00
         21   -1    0    0  502  501  0.00000000000E+00  0.00000000000E+00  0.20653979902E+04  0.20653979902E+04  0.00000000000E+00 0. -1.
         21   -1    0    0  501  502 -0.00000000000E+00 -0.00000000000E+00 -0.18912819798E+01  0.18912819798E+01  0.00000000000E+00 0. -1.
         25    1    1    2    0    0  0.00000000000E+00  0.00000000000E+00  0.20635067082E+04  0.20672892722E+04  0.12500000000E+03 0.  0.
<mgrwt>
<rscale>  0 0.12500000E+03</rscale>
<asrwt>0</asrwt>
<pdfrwt beam="1">  1       21 0.31775173E+00 0.12500000E+03</pdfrwt>
<pdfrwt beam="2">  1       21 0.29096811E-03 0.12500000E+03</pdfrwt>
<totfact> 0.73104749E+05</totfact>
</mgrwt>
</event>
<event>
 3    1  0.1615911E-001  0.1250000E+03  0.7546771E-02  0.1235069E+00
         21   -1    0    0  502  501  0.00000000000E+00  0.00000000000E+00  0.24437026755E+02  0.24437026755E+02  0.00000000000E+00 0. -1.
         21   -1    0    0  501  502 -0.00000000000E+00 -0.00000000000E+00 -0.15984964288E+03  0.15984964288E+03  0.00000000000E+00 0. -1.
         25    1    1    2    0    0  0.00000000000E+00  0.00000000000E+00 -0.13541261613E+03  0.18428666964E+03  0.12500000000E+03 0.  0.
<mgrwt>
<rscale>  0 0.12500000E+03</rscale>
<asrwt>0</asrwt>
<pdfrwt beam="1">  1       21 0.37595427E-02 0.12500000E+03</pdfrwt>
<pdfrwt beam="2">  1       21 0.24592252E-01 0.12500000E+03</pdfrwt>
<totfact> 0.66663154E+06</totfact>
</mgrwt>
</event>
<event>
 3    1  0.1615911E-001  0.1250000E+03  0.7546771E-02  0.1235069E+00
         21   -1    0    0  502  501  0.00000000000E+00  0.00000000000E+00  0.34703420164E+02  0.34703420164E+02  0.00000000000E+00 0.  1.
         21   -1    0    0  501  502 -0.00000000000E+00 -0.00000000000E+00 -0.11256095167E+03  0.11256095167E+03  0.00000000000E+00 0.  1.
         25    1    1    2    0    0  0.00000000000E+00  0.00000000000E+00 -0.77857531510E+02  0.14726437184E+03  0.12500000000E+03 0.  0.
<mgrwt>
<rscale>  0 0.12500000E+03</rscale>
<asrwt>0</asrwt>
<pdfrwt beam="1">  1       21 0.53389877E-02 0.12500000E+03</pdfrwt>
<pdfrwt beam="2">  1       21 0.17317070E-01 0.12500000E+03</pdfrwt>
<totfact> 0.71104561E+06</totfact>
</mgrwt>
</event>
<event>
 3    1  0.1615911E-001  0.1250000E+03  0.7546771E-02  0.1235069E+00
         21   -1    0    0  502  501  0.00000000000E+00  0.00000000000E+00  0.24586961295E+02  0.24586961295E+02  0.00000000000E+00 0.  1.
         21   -1    0    0  501  502 -0.00000000000E+00 -0.00000000000E+00 -0.15887485864E+03  0.15887485864E+03  0.00000000000E+00 0.  1.
         25    1    1    2    0    0  0.00000000000E+00  0.00000000000E+00 -0.13428789734E+03  0.18346181993E+03  0.12500000000E+03 0.  0.
<mgrwt>
<rscale>  0 0.12500000E+03</rscale>
<asrwt>0</asrwt>
<pdfrwt beam="1">  1       21 0.37826095E-02 0.12500000E+03</pdfrwt>
<pdfrwt beam="2">  1       21 0.24442285E-01 0.12500000E+03</pdfrwt>
<totfact> 0.66756610E+06</totfact>
</mgrwt>
</event>
<event>
 3    1  0.1615911E-001  0.1250000E+03  0.7546771E-02  0.1235069E+00
         21   -1    0    0  502  501  0.00000000000E+00  0.00000000000E+00  0.86948867849E+02  0.86948867849E+02  0.00000000000E+00 0. -1.
         21   -1    0    0  501  502 -0.00000000000E+00 -0.00000000000E+00 -0.44925829360E+02  0.44925829360E+02  0.00000000000E+00 0. -1.
         25    1    1    2    0    0  0.00000000000E+00  0.00000000000E+00  0.42023038490E+02  0.13187469721E+03  0.12500000000E+03 0.  0.
<mgrwt>
<rscale>  0 0.12500000E+03</rscale>
<asrwt>0</asrwt>
<pdfrwt beam="1">  1       21 0.13376749E-01 0.12500000E+03</pdfrwt>
<pdfrwt beam="2">  1       21 0.69116661E-02 0.12500000E+03</pdfrwt>
<totfact> 0.73113041E+06</totfact>
</mgrwt>
</event>
<event>
 3    1  0.1615911E-001  0.1250000E+03  0.7546771E-02  0.1235069E+00
         21   -1    0    0  502  501  0.00000000000E+00  0.00000000000E+00  0.86459091872E+01  0.86459091872E+01  0.00000000000E+00 0.  1.
         21   -1    0    0  501  502 -0.00000000000E+00 -0.00000000000E+00 -0.45180326504E+03  0.45180326504E+03  0.00000000000E+00 0.  1.
         25    1    1    2    0    0  0.00000000000E+00  0.00000000000E+00 -0.44315735585E+03  0.46044917423E+03  0.12500000000E+03 0.  0.
<mgrwt>
<rscale>  0 0.12500000E+03</rscale>
<asrwt>0</asrwt>
<pdfrwt beam="1">  1       21 0.13301394E-02 0.12500000E+03</pdfrwt>
<pdfrwt beam="2">  1       21 0.69508218E-01 0.12500000E+03</pdfrwt>
<totfact> 0.44273535E+06</totfact>
</mgrwt>
</event>
<event>
 3    1  0.1615911E-001  0.1250000E+03  0.7546771E-02  0.1235069E+00
         21   -1    0    0  502  501  0.00000000000E+00  0.00000000000E+00  0.17551978716E+03  0.17551978716E+03  0.00000000000E+00 0. -1.
         21   -1    0    0  501  502 -0.00000000000E+00 -0.00000000000E+00 -0.22255325529E+02  0.22255325529E+02  0.00000000000E+00 0. -1.
         25    1    1    2    0    0  0.00000000000E+00  0.00000000000E+00  0.15326446163E+03  0.19777511269E+03  0.12500000000E+03 0.  0.
<mgrwt>
<rscale>  0 0.12500000E+03</rscale>
<asrwt>0</asrwt>
<pdfrwt beam="1">  1       21 0.27003043E-01 0.12500000E+03</pdfrwt>
<pdfrwt beam="2">  1       21 0.34238964E-02 0.12500000E+03</pdfrwt>
<totfact> 0.65168568E+06</totfact>
</mgrwt>
</event>
<event>
 3    1  0.1615911E-001  0.1250000E+03  0.7546771E-02  0.1235069E+00
         21   -1    0    0  502  501  0.00000000000E+00  0.00000000000E+00  0.39238299846E+01  0.39238299846E+01  0.00000000000E+00 0. -1.
         21   -1    0    0  501  502 -0.00000000000E+00 -0.00000000000E+00 -0.99551968748E+03  0.99551968748E+03  0.00000000000E+00 0. -1.
         25    1    1    2    0    0  0.00000000000E+00  0.00000000000E+00 -0.99159585750E+03  0.99944351746E+03  0.12500000000E+03 0.  0.
<mgrwt>
<rscale>  0 0.12500000E+03</rscale>
<asrwt>0</asrwt>
<pdfrwt beam="1">  1       21 0.60366575E-03 0.12500000E+03</pdfrwt>
<pdfrwt beam="2">  1       21 0.15315698E+00 0.12500000E+03</pdfrwt>
<totfact> 0.23632579E+06</totfact>
</mgrwt>
</event>
<event>
 3    1  0.1615911E-001  0.1250000E+03  0.7546771E-02  0.1235069E+00
         21   -1    0    0  502  501  0.00000000000E+00  0.00000000000E+00  0.54175849011E+01  0.54175849011E+01  0.00000000000E+00 0.  1.
         21   -1    0    0  501  502 -0.00000000000E+00 -0.00000000000E+00 -0.72103161673E+03  0.72103161673E+03  0.00000000000E+00 0.  1.
         25    1    1    2    0    0  0.00000000000E+00  0.00000000000E+00 -0.71561403183E+03  0.72644920163E+03  0.12500000000E+03 0.  0.
<mgrwt>
<rscale>  0 0.12500000E+03</rscale>
<asrwt>0</asrwt>
<pdfrwt beam="1">  1       21 0.83347486E-03 0.12500000E+03</pdfrwt>
<pdfrwt beam="2">  1       21 0.11092791E+00 0.12500000E+03</pdfrwt>
<totfact> 0.31915044E+06</totfact>
</mgrwt>
</event>
<event>
 3    1  0.1615911E-001  0.1250000E+03  0.7546771E-02  0.1235069E+00
         21   -1    0    0  502  501  0.00000000000E+00  0.00000000000E+00  0.13773102227E+03  0.13773102227E+03  0.00000000000E+00 0.  1.
         21   -1    0    0  501  502 -0.00000000000E+00 -0.00000000000E+00 -0.28361439098E+02  0.28361439098E+02  0.00000000000E+00 0.  1.
         25    1    1    2    0    0  0.00000000000E+00  0.00000000000E+00  0.10936958317E+03  0.16609246137E+03  0.12500000000E+03 0.  0.
<mgrwt>
<rscale>  0 0.12500000E+03</rscale>
<asrwt>0</asrwt>
<pdfrwt beam="1">  1       21 0.21189388E-01 0.12500000E+03</pdfrwt>
<pdfrwt beam="2">  1       21 0.43632984E-02 0.12500000E+03</pdfrwt>
<totfact> 0.68782620E+06</totfact>
</mgrwt>
</event>
<event>
 3    1  0.1615911E-001  0.1250000E+03  0.7546771E-02  0.1235069E+00
         21   -1    0    0  502  501  0.00000000000E+00  0.00000000000E+00  0.35973504694E+02  0.35973504694E+02  0.00000000000E+00 0.  1.
         21   -1    0    0  501  502 -0.00000000000E+00 -0.00000000000E+00 -0.10858686228E+03  0.10858686228E+03  0.00000000000E+00 0.  1.
         25    1    1    2    0    0  0.00000000000E+00  0.00000000000E+00 -0.72613357586E+02  0.14456036697E+03  0.12500000000E+03 0.  0.
<mgrwt>
<rscale>  0 0.12500000E+03</rscale>
<asrwt>0</asrwt>
<pdfrwt beam="1">  1       21 0.55343854E-02 0.12500000E+03</pdfrwt>
<pdfrwt beam="2">  1       21 0.16705671E-01 0.12500000E+03</pdfrwt>
<totfact> 0.71449408E+06</totfact>
</mgrwt>
</event>
<event>
 3    1  0.1615911E-001  0.1250000E+03  0.7546771E-02  0.1235069E+00
         21   -1    0    0  502  501  0.00000000000E+00  0.00000000000E+00  0.12093624724E+03  0.12093624724E+03  0.00000000000E+00 0. -1.
         21   -1    0    0  501  502 -0.00000000000E+00 -0.00000000000E+00 -0.32300076191E+02  0.32300076191E+02  0.00000000000E+00 0. -1.
         25    1    1    2    0    0  0.00000000000E+00  0.00000000000E+00  0.88636171044E+02  0.15323632343E+03  0.12500000000E+03 0.  0.
<mgrwt>
<rscale>  0 0.12500000E+03</rscale>
<asrwt>0</asrwt>
<pdfrwt beam="1">  1       21 0.18605576E-01 0.12500000E+03</pdfrwt>
<pdfrwt beam="2">  1       21 0.49692426E-02 0.12500000E+03</pdfrwt>
<totfact> 0.70354988E+06</totfact>
</mgrwt>
</event>
<event>
 3    1  0.1615911E-001  0.1250000E+03  0.7546771E-02  0.1235069E+00
         21   -1    0    0  502  501  0.00000000000E+00  0.00000000000E+00  0.14460098218E+03  0.14460098218E+03  0.00000000000E+00 0.  1.
         21   -1    0    0  501  502 -0.00000000000E+00 -0.00000000000E+00 -0.27013993550E+02  0.27013993550E+02  0.00000000000E+00 0.  1.
         25    1    1    2    0    0  0.00000000000E+00  0.00000000000E+00  0.11758698863E+03  0.17161497573E+03  0.12500000000E+03 0.  0.
<mgrwt>
<rscale>  0 0.12500000E+03</rscale>
<asrwt>0</asrwt>
<pdfrwt beam="1">  1       21 0.22246304E-01 0.12500000E+03</pdfrwt>
<pdfrwt beam="2">  1       21 0.41559991E-02 0.12500000E+03</pdfrwt>
<totfact> 0.68126704E+06</totfact>
</mgrwt>
</event>
<event>
 3    1  0.1615911E-001  0.1250000E+03  0.7546771E-02  0.1235069E+00
         21   -1    0    0  502  501  0.00000000000E+00  0.00000000000E+00  0.91582125581E+01  0.91582125581E+01  0.00000000000E+00 0.  1.
         21   -1    0    0  501  502 -0.00000000000E+00 -0.00000000000E+00 -0.42652973768E+03  0.42652973768E+03  0.00000000000E+00 0.  1.
         25    1    1    2    0    0  0.00000000000E+00  0.00000000000E+00 -0.41737152512E+03  0.43568795023E+03  0.12500000000E+03 0.  0.
<mgrwt>
<rscale>  0 0.12500000E+03</rscale>
<asrwt>0</asrwt>
<pdfrwt beam="1">  1       21 0.14089557E-02 0.12500000E+03</pdfrwt>
<pdfrwt beam="2">  1       21 0.65619966E-01 0.12500000E+03</pdfrwt>
<totfact> 0.45760911E+06</totfact>
</mgrwt>
</event>
<event>
 3    1  0.1615911E-001  0.1250000E+03  0.7546771E-02  0.1235069E+00
         21   -1    0    0  502  501  0.00000000000E+00  0.00000000000E+00  0.36609670523E+02  0.36609670523E+02  0.00000000000E+00 0. -1.
         21   -1    0    0  501  502 -0.00000000000E+00 -0.00000000000E+00 -0.10669994961E+03  0.10669994961E+03  0.00000000000E+00 0. -1.
         25    1    1    2    0    0  0.00000000000E+00  0.00000000000E+00 -0.70090279087E+02  0.14330962013E+03  0.12500000000E+03 0.  0.
<mgrwt>
<rscale>  0 0.12500000E+03</rscale>
<asrwt>0</asrwt>
<pdfrwt beam="1">  1       21 0.56322571E-02 0.12500000E+03</pdfrwt>
<pdfrwt beam="2">  1       21 0.16415377E-01 0.12500000E+03</pdfrwt>
<totfact> 0.71610134E+06</totfact>
</mgrwt>
</event>
<event>
 3    1  0.1615911E-001  0.1250000E+03  0.7546771E-02  0.1235069E+00
         21   -1    0    0  502  501  0.00000000000E+00  0.00000000000E+00  0.64498359155E+01  0.64498359155E+01  0.00000000000E+00 0.  1.
         21   -1    0    0  501  502 -0.00000000000E+00 -0.00000000000E+00 -0.60563556208E+03  0.60563556208E+03  0.00000000000E+00 0.  1.
         25    1    1    2    0    0  0.00000000000E+00  0.00000000000E+00 -0.59918572617E+03  0.61208539800E+03  0.12500000000E+03 0.  0.
<mgrwt>
<rscale>  0 0.12500000E+03</rscale>
<asrwt>0</asrwt>
<pdfrwt beam="1">  1       21 0.99228233E-03 0.12500000E+03</pdfrwt>
<pdfrwt beam="2">  1       21 0.93174713E-01 0.12500000E+03</pdfrwt>
<totfact> 0.36551722E+06</totfact>
</mgrwt>
</event>
<event>
 3    1  0.1615911E-001  0.1250000E+03  0.7546771E-02  0.1235069E+00
         21   -1    0    0  502  501  0.00000000000E+00  0.00000000000E+00  0.61360493382E+01  0.61360493382E+01  0.00000000000E+00 0. -1.
         21   -1    0    0  501  502 -0.00000000000E+00 -0.00000000000E+00 -0.63660668041E+03  0.63660668041E+03  0.00000000000E+00 0. -1.
         25    1    1    2    0    0  0.00000000000E+00  0.00000000000E+00 -0.63047063107E+03  0.64274272974E+03  0.12500000000E+03 0.  0.
<mgrwt>
<rscale>  0 0.12500000E+03</rscale>
<asrwt>0</asrwt>
<pdfrwt beam="1">  1       21 0.94400777E-03 0.12500000E+03</pdfrwt>
<pdfrwt beam="2">  1       21 0.97939470E-01 0.12500000E+03</pdfrwt>
<totfact> 0.35228175E+06</totfact>
</mgrwt>
</event>
<event>
 3    1  0.1615911E-001  0.1250000E+03  0.7546771E-02  0.1235069E+00
         21   -1    0    0  502  501  0.00000000000E+00  0.00000000000E+00  0.10577820263E+02  0.10577820263E+02  0.00000000000E+00 0.  1.
         21   -1    0    0  501  502 -0.00000000000E+00 -0.00000000000E+00 -0.36928685712E+03  0.36928685712E+03  0.00000000000E+00 0.  1.
         25    1    1    2    0    0  0.00000000000E+00  0.00000000000E+00 -0.35870903686E+03  0.37986467738E+03  0.12500000000E+03 0.  0.
<mgrwt>
<rscale>  0 0.12500000E+03</rscale>
<asrwt>0</asrwt>
<pdfrwt beam="1">  1       21 0.16273567E-02 0.12500000E+03</pdfrwt>
<pdfrwt beam="2">  1       21 0.56813371E-01 0.12500000E+03</pdfrwt>
<totfact> 0.49405678E+06</totfact>
</mgrwt>
</event>
<event>
 3    1  0.1615911E-001  0.1250000E+03  0.7546771E-02  0.1235069E+00
         21   -1    0    0  502  501  0.00000000000E+00  0.00000000000E+00  0.24544433178E+03  0.24544433178E+03  0.00000000000E+00 0.  1.
         21   -1    0    0  501  502 -0.00000000000E+00 -0.00000000000E+00 -0.15915014096E+02  0.15915014096E+02  0.00000000000E+00 0.  1.
         25    1    1    2    0    0  0.00000000000E+00  0.00000000000E+00  0.22952931769E+03  0.26135934588E+03  0.12500000000E+03 0.  0.
<mgrwt>
<rscale>  0 0.12500000E+03</rscale>
<asrwt>0</asrwt>
<pdfrwt beam="1">  1       21 0.37760664E-01 0.12500000E+03</pdfrwt>
<pdfrwt beam="2">  1       21 0.24484639E-02 0.12500000E+03</pdfrwt>
<totfact> 0.58824904E+06</totfact>
</mgrwt>
</event>
<event>
 3    1  0.1615911E-001  0.1250000E+03  0.7546771E-02  0.1235069E+00
         21   -1    0    0  502  501  0.00000000000E+00  0.00000000000E+00  0.52323843504E+01  0.52323843504E+01  0.00000000000E+00 0.  1.
         21   -1    0    0  501  502 -0.00000000000E+00 -0.00000000000E+00 -0.74655257305E+03  0.74655257305E+03  0.00000000000E+00 0.  1.
         25    1    1    2    0    0  0.00000000000E+00  0.00000000000E+00 -0.74132018870E+03  0.75178495740E+03  0.12500000000E+03 0.  0.
<mgrwt>
<rscale>  0 0.12500000E+03</rscale>
<asrwt>0</asrwt>
<pdfrwt beam="1">  1       21 0.80498252E-03 0.12500000E+03</pdfrwt>
<pdfrwt beam="2">  1       21 0.11485420E+00 0.12500000E+03</pdfrwt>
<totfact> 0.31006189E+06</totfact>
</mgrwt>
</event>
<event>
 3    1  0.1615911E-001  0.1250000E+03  0.7546771E-02  0.1235069E+00
         21   -1    0    0  502  501  0.00000000000E+00  0.00000000000E+00  0.12773362225E+03  0.12773362225E+03  0.00000000000E+00 0.  1.
         21   -1    0    0  501  502 -0.00000000000E+00 -0.00000000000E+00 -0.30581219974E+02  0.30581219974E+02  0.00000000000E+00 0.  1.
         25    1    1    2    0    0  0.00000000000E+00  0.00000000000E+00  0.97152402275E+02  0.15831484222E+03  0.12500000000E+03 0.  0.
<mgrwt>
<rscale>  0 0.12500000E+03</rscale>
<asrwt>0</asrwt>
<pdfrwt beam="1">  1       21 0.19651326E-01 0.12500000E+03</pdfrwt>
<pdfrwt beam="2">  1       21 0.47048032E-02 0.12500000E+03</pdfrwt>
<totfact> 0.69725992E+06</totfact>
</mgrwt>
</event>
<event>
 3    1  0.1615911E-001  0.1250000E+03  0.7546771E-02  0.1235069E+00
         21   -1    0    0  502  501  0.00000000000E+00  0.00000000000E+00  0.21347348233E+02  0.21347348233E+02  0.00000000000E+00 0.  1.
         21   -1    0    0  501  502 -0.00000000000E+00 -0.00000000000E+00 -0.18298525687E+03  0.18298525687E+03  0.00000000000E+00 0.  1.
         25    1    1    2    0    0  0.00000000000E+00  0.00000000000E+00 -0.16163790864E+03  0.20433260510E+03  0.12500000000E+03 0.  0.
<mgrwt>
<rscale>  0 0.12500000E+03</rscale>
<asrwt>0</asrwt>
<pdfrwt beam="1">  1       21 0.32842074E-02 0.12500000E+03</pdfrwt>
<pdfrwt beam="2">  1       21 0.28151578E-01 0.12500000E+03</pdfrwt>
<totfact> 0.64460787E+06</totfact>
</mgrwt>
</event>
<event>
 3    1  0.1615911E-001  0.1250000E+03  0.7546771E-02  0.1235069E+00
         21   -1    0    0  502  501  0.00000000000E+00  0.00000000000E+00  0.84999483506E+01  0.84999483506E+01  0.00000000000E+00 0.  1.
         21   -1    0    0  501  502 -0.00000000000E+00 -0.00000000000E+00 -0.45956161601E+03  0.45956161601E+03  0.00000000000E+00 0.  1.
         25    1    1    2    0    0  0.00000000000E+00  0.00000000000E+00 -0.45106166766E+03  0.46806156436E+03  0.12500000000E+03 0.  0.
<mgrwt>
<rscale>  0 0.12500000E+03</rscale>
<asrwt>0</asrwt>
<pdfrwt beam="1">  1       21 0.13076838E-02 0.12500000E+03</pdfrwt>
<pdfrwt beam="2">  1       21 0.70701820E-01 0.12500000E+03</pdfrwt>
<totfact> 0.43830853E+06</totfact>
</mgrwt>
</event>
<event>
 3    1  0.1615911E-001  0.1250000E+03  0.7546771E-02  0.1235069E+00
         21   -1    0    0  502  501  0.00000000000E+00  0.00000000000E+00  0.25607494501E+02  0.25607494501E+02  0.00000000000E+00 0.  1.
         21   -1    0    0  501  502 -0.00000000000E+00 -0.00000000000E+00 -0.15254323299E+03  0.15254323299E+03  0.00000000000E+00 0.  1.
         25    1    1    2    0    0  0.00000000000E+00  0.00000000000E+00 -0.12693573849E+03  0.17815072749E+03  0.12500000000E+03 0.  0.
<mgrwt>
<rscale>  0 0.12500000E+03</rscale>
<asrwt>0</asrwt>
<pdfrwt beam="1">  1       21 0.39396145E-02 0.12500000E+03</pdfrwt>
<pdfrwt beam="2">  1       21 0.23468190E-01 0.12500000E+03</pdfrwt>
<totfact> 0.67364315E+06</totfact>
</mgrwt>
</event>
<event>
 3    1  0.1615911E-001  0.1250000E+03  0.7546771E-02  0.1235069E+00
         21   -1    0    0  502  501  0.00000000000E+00  0.00000000000E+00  0.47444499305E+02  0.47444499305E+02  0.00000000000E+00 0.  1.
         21   -1    0    0  501  502 -0.00000000000E+00 -0.00000000000E+00 -0.82333042971E+02  0.82333042971E+02  0.00000000000E+00 0.  1.
         25    1    1    2    0    0  0.00000000000E+00  0.00000000000E+00 -0.34888543666E+02  0.12977754228E+03  0.12500000000E+03 0.  0.
<mgrwt>
<rscale>  0 0.12500000E+03</rscale>
<asrwt>0</asrwt>
<pdfrwt beam="1">  1       21 0.72991538E-02 0.12500000E+03</pdfrwt>
<pdfrwt beam="2">  1       21 0.12666622E-01 0.12500000E+03</pdfrwt>
<totfact> 0.73394661E+06</totfact>
</mgrwt>
</event>
<event>
 3    1  0.1615911E-001  0.1250000E+03  0.7546771E-02  0.1235069E+00
         21   -1    0    0  502  501  0.00000000000E+00  0.00000000000E+00  0.22163109588E+04  0.22163109588E+04  0.00000000000E+00 0.  1.
         21   -1    0    0  501  502 -0.00000000000E+00 -0.00000000000E+00 -0.17625008731E+01  0.17625008731E+01  0.00000000000E+00 0.  1.
         25    1    1    2    0    0  0.00000000000E+00  0.00000000000E+00  0.22145484579E+04  0.22180734597E+04  0.12500000000E+03 0.  0.
<mgrwt>
<rscale>  0 0.12500000E+03</rscale>
<asrwt>0</asrwt>
<pdfrwt beam="1">  1       21 0.34096869E+00 0.12500000E+03</pdfrwt>
<pdfrwt beam="2">  1       21 0.27115575E-03 0.12500000E+03</pdfrwt>
<totfact> 0.60105873E+05</totfact>
</mgrwt>
</event>
<event>
 3    1  0.1615911E-001  0.1250000E+03  0.7546771E-02  0.1235069E+00
         21   -1    0    0  502  501  0.00000000000E+00  0.00000000000E+00  0.81522277391E+01  0.81522277391E+01  0.00000000000E+00 0.  1.
         21   -1    0    0  501  502 -0.00000000000E+00 -0.00000000000E+00 -0.47916350291E+03  0.47916350291E+03  0.00000000000E+00 0.  1.
         25    1    1    2    0    0  0.00000000000E+00  0.00000000000E+00 -0.47101127517E+03  0.48731573065E+03  0.12500000000E+03 0.  0.
<mgrwt>
<rscale>  0 0.12500000E+03</rscale>
<asrwt>0</asrwt>
<pdfrwt beam="1">  1       21 0.12541889E-02 0.12500000E+03</pdfrwt>
<pdfrwt beam="2">  1       21 0.73717463E-01 0.12500000E+03</pdfrwt>
<totfact> 0.42740427E+06</totfact>
</mgrwt>
</event>
<event>
 3    1  0.1615911E-001  0.1250000E+03  0.7546771E-02  0.1235069E+00
         21   -1    0    0  502  501  0.00000000000E+00  0.00000000000E+00  0.51429525031E+02  0.51429525031E+02  0.00000000000E+00 0.  1.
         21   -1    0    0  501  502 -0.00000000000E+00 -0.00000000000E+00 -0.75953452762E+02  0.75953452762E+02  0.00000000000E+00 0.  1.
         25    1    1    2    0    0  0.00000000000E+00  0.00000000000E+00 -0.24523927731E+02  0.12738297779E+03  0.12500000000E+03 0.  0.
<mgrwt>
<rscale>  0 0.12500000E+03</rscale>
<asrwt>0</asrwt>
<pdfrwt beam="1">  1       21 0.79122347E-02 0.12500000E+03</pdfrwt>
<pdfrwt beam="2">  1       21 0.11685147E-01 0.12500000E+03</pdfrwt>
<totfact> 0.73717089E+06</totfact>
</mgrwt>
</event>
<event>
 3    1  0.1615911E-001  0.1250000E+03  0.7546771E-02  0.1235069E+00
         21   -1    0    0  502  501  0.00000000000E+00  0.00000000000E+00  0.81324398061E+01  0.81324398061E+01  0.00000000000E+00 0. -1.
         21   -1    0    0  501  502 -0.00000000000E+00 -0.00000000000E+00 -0.48032940829E+03  0.48032940829E+03  0.00000000000E+00 0. -1.
         25    1    1    2    0    0  0.00000000000E+00  0.00000000000E+00 -0.47219696848E+03  0.48846184810E+03  0.12500000000E+03 0.  0.
<mgrwt>
<rscale>  0 0.12500000E+03</rscale>
<asrwt>0</asrwt>
<pdfrwt beam="1">  1       21 0.12511442E-02 0.12500000E+03</pdfrwt>
<pdfrwt beam="2">  1       21 0.73896854E-01 0.12500000E+03</pdfrwt>
<totfact> 0.42676795E+06</totfact>
</mgrwt>
</event>
<event>
 3    1  0.1615911E-001  0.1250000E+03  0.7546771E-02  0.1235069E+00
         21   -1    0    0  502  501  0.00000000000E+00  0.00000000000E+00  0.16155131940E+02  0.16155131940E+02  0.00000000000E+00 0. -1.
         21   -1    0    0  501  502 -0.00000000000E+00 -0.00000000000E+00 -0.24179623011E+03  0.24179623011E+03  0.00000000000E+00 0. -1.
         25    1    1    2    0    0  0.00000000000E+00  0.00000000000E+00 -0.22564109817E+03  0.25795136205E+03  0.12500000000E+03 0.  0.
<mgrwt>
<rscale>  0 0.12500000E+03</rscale>
<asrwt>0</asrwt>
<pdfrwt beam="1">  1       21 0.24854049E-02 0.12500000E+03</pdfrwt>
<pdfrwt beam="2">  1       21 0.37199420E-01 0.12500000E+03</pdfrwt>
<totfact> 0.59137552E+06</totfact>
</mgrwt>
</event>
<event>
 3    1  0.1615911E-001  0.1250000E+03  0.7546771E-02  0.1235069E+00
         21   -1    0    0  502  501  0.00000000000E+00  0.00000000000E+00  0.16538747466E+02  0.16538747466E+02  0.00000000000E+00 0.  1.
         21   -1    0    0  501  502 -0.00000000000E+00 -0.00000000000E+00 -0.23618777710E+03  0.23618777710E+03  0.00000000000E+00 0.  1.
         25    1    1    2    0    0  0.00000000000E+00  0.00000000000E+00 -0.21964902964E+03  0.25272652457E+03  0.12500000000E+03 0.  0.
<mgrwt>
<rscale>  0 0.12500000E+03</rscale>
<asrwt>0</asrwt>
<pdfrwt beam="1">  1       21 0.25444229E-02 0.12500000E+03</pdfrwt>
<pdfrwt beam="2">  1       21 0.36336578E-01 0.12500000E+03</pdfrwt>
<totfact> 0.59622438E+06</totfact>
</mgrwt>
</event>
<event>
 3    1  0.1615911E-001  0.1250000E+03  0.7546771E-02  0.1235069E+00
         21   -1    0    0  502  501  0.00000000000E+00  0.00000000000E+00  0.35832410306E+02  0.35832410306E+02  0.00000000000E+00 0.  1.
         21   -1    0    0  501  502 -0.00000000000E+00 -0.00000000000E+00 -0.10901443600E+03  0.10901443600E+03  0.00000000000E+00 0.  1.
         25    1    1    2    0    0  0.00000000000E+00  0.00000000000E+00 -0.73182025692E+02  0.14484684630E+03  0.12500000000E+03 0.  0.
<mgrwt>
<rscale>  0 0.12500000E+03</rscale>
<asrwt>0</asrwt>
<pdfrwt beam="1">  1       21 0.55126786E-02 0.12500000E+03</pdfrwt>
<pdfrwt beam="2">  1       21 0.16771451E-01 0.12500000E+03</pdfrwt>
<totfact> 0.71412704E+06</totfact>
</mgrwt>
</event>
<event>
 3    1  0.1615911E-001  0.1250000E+03  0.7546771E-02  0.1235069E+00
         21   -1    0    0  502  501  0.00000000000E+00  0.00000000000E+00  0.48698782601E+01  0.48698782601E+01  0.00000000000E+00 0.  1.
         21   -1    0    0  501  502 -0.00000000000E+00 -0.00000000000E+00 -0.80212477425E+03  0.80212477425E+03  0.00000000000E+00 0.  1.
         25    1    1    2    0    0  0.00000000000E+00  0.00000000000E+00 -0.79725489599E+03  0.80699465251E+03  0.12500000000E+03 0.  0.
<mgrwt>
<rscale>  0 0.12500000E+03</rscale>
<asrwt>0</asrwt>
<pdfrwt beam="1">  1       21 0.74921094E-03 0.12500000E+03</pdfrwt>
<pdfrwt beam="2">  1       21 0.12340399E+00 0.12500000E+03</pdfrwt>
<totfact> 0.29132331E+06</totfact>
</mgrwt>
</event>
<event>
 3    1  0.1615911E-001  0.1250000E+03  0.7546771E-02  0.1235069E+00
         21   -1    0    0  502  501  0.00000000000E+00  0.00000000000E+00  0.22574608512E+03  0.22574608512E+03  0.00000000000E+00 0.  1.
         21   -1    0    0  501  502 -0.00000000000E+00 -0.00000000000E+00 -0.17303733077E+02  0.17303733077E+02  0.00000000000E+00 0.  1.
         25    1    1    2    0    0  0.00000000000E+00  0.00000000000E+00  0.20844235204E+03  0.24304981819E+03  0.12500000000E+03 0.  0.
<mgrwt>
<rscale>  0 0.12500000E+03</rscale>
<asrwt>0</asrwt>
<pdfrwt beam="1">  1       21 0.34730165E-01 0.12500000E+03</pdfrwt>
<pdfrwt beam="2">  1       21 0.26621129E-02 0.12500000E+03</pdfrwt>
<totfact> 0.60538782E+06</totfact>
</mgrwt>
</event>
<event>
 3    1  0.1615911E-001  0.1250000E+03  0.7546771E-02  0.1235069E+00
         21   -1    0    0  502  501  0.00000000000E+00  0.00000000000E+00  0.26675949323E+02  0.26675949323E+02  0.00000000000E+00 0. -1.
         21   -1    0    0  501  502 -0.00000000000E+00 -0.00000000000E+00 -0.14643340159E+03  0.14643340159E+03  0.00000000000E+00 0. -1.
         25    1    1    2    0    0  0.00000000000E+00  0.00000000000E+00 -0.11975745227E+03  0.17310935091E+03  0.12500000000E+03 0.  0.
<mgrwt>
<rscale>  0 0.12500000E+03</rscale>
<asrwt>0</asrwt>
<pdfrwt beam="1">  1       21 0.41039923E-02 0.12500000E+03</pdfrwt>
<pdfrwt beam="2">  1       21 0.22528215E-01 0.12500000E+03</pdfrwt>
<totfact> 0.67950938E+06</totfact>
</mgrwt>
</event>
<event>
 3    1  0.1615911E-001  0.1250000E+03  0.7546771E-02  0.1235069E+00
         21   -1    0    0  502  501  0.00000000000E+00  0.00000000000E+00  0.34303767150E+03  0.34303767150E+03  0.00000000000E+00 0.  1.
         21   -1    0    0  501  502 -0.00000000000E+00 -0.00000000000E+00 -0.11387233311E+02  0.11387233311E+02  0.00000000000E+00 0.  1.
         25    1    1    2    0    0  0.00000000000E+00  0.00000000000E+00  0.33165043819E+03  0.35442490481E+03  0.12500000000E+03 0.  0.
<mgrwt>
<rscale>  0 0.12500000E+03</rscale>
<asrwt>0</asrwt>
<pdfrwt beam="1">  1       21 0.52775018E-01 0.12500000E+03</pdfrwt>
<pdfrwt beam="2">  1       21 0.17518823E-02 0.12500000E+03</pdfrwt>
<totfact> 0.51213295E+06</totfact>
</mgrwt>
</event>
<event>
 3    1  0.1615911E-001  0.1250000E+03  0.7546771E-02  0.1235069E+00
         21   -1    0    0  502  501  0.00000000000E+00  0.00000000000E+00  0.35015237510E+02  0.35015237510E+02  0.00000000000E+00 0. -1.
         21   -1    0    0  501  502 -0.00000000000E+00 -0.00000000000E+00 -0.11155857500E+03  0.11155857500E+03  0.00000000000E+00 0. -1.
         25    1    1    2    0    0  0.00000000000E+00  0.00000000000E+00 -0.76543337494E+02  0.14657381251E+03  0.12500000000E+03 0.  0.
<mgrwt>
<rscale>  0 0.12500000E+03</rscale>
<asrwt>0</asrwt>
<pdfrwt beam="1">  1       21 0.53869597E-02 0.12500000E+03</pdfrwt>
<pdfrwt beam="2">  1       21 0.17162858E-01 0.12500000E+03</pdfrwt>
<totfact> 0.71192294E+06</totfact>
</mgrwt>
</event>
<event>
 3    1  0.1615911E-001  0.1250000E+03  0.7546771E-02  0.1235069E+00
         21   -1    0    0  502  501  0.00000000000E+00  0.00000000000E+00  0.35243900803E+03  0.35243900803E+03  0.00000000000E+00 0. -1.
         21   -1    0    0  501  502 -0.00000000000E+00 -0.00000000000E+00 -0.11083478023E+02  0.11083478023E+02  0.00000000000E+00 0. -1.
         25    1    1    2    0    0  0.00000000000E+00  0.00000000000E+00  0.34135553001E+03  0.36352248605E+03  0.12500000000E+03 0.  0.
<mgrwt>
<rscale>  0 0.12500000E+03</rscale>
<asrwt>0</asrwt>
<pdfrwt beam="1">  1       21 0.54221377E-01 0.12500000E+03</pdfrwt>
<pdfrwt beam="2">  1       21 0.17051507E-02 0.12500000E+03</pdfrwt>
<totfact> 0.50555006E+06</totfact>
</mgrwt>
</event>
<event>
 3    1  0.1615911E-001  0.1250000E+03  0.7546771E-02  0.1235069E+00
         21   -1    0    0  502  501  0.00000000000E+00  0.00000000000E+00  0.23818624056E+03  0.23818624056E+03  0.00000000000E+00 0. -1.
         21   -1    0    0  501  502 -0.00000000000E+00 -0.00000000000E+00 -0.16399981757E+02  0.16399981757E+02  0.00000000000E+00 0. -1.
         25    1    1    2    0    0  0.00000000000E+00  0.00000000000E+00  0.22178625880E+03  0.25458622231E+03  0.12500000000E+03 0.  0.
<mgrwt>
<rscale>  0 0.12500000E+03</rscale>
<asrwt>0</asrwt>
<pdfrwt beam="1">  1       21 0.36644035E-01 0.12500000E+03</pdfrwt>
<pdfrwt beam="2">  1       21 0.25230743E-02 0.12500000E+03</pdfrwt>
<totfact> 0.59449072E+06</totfact>
</mgrwt>
</event>
<event>
 3    1  0.1615911E-001  0.1250000E+03  0.7546771E-02  0.1235069E+00
         21   -1    0    0  502  501  0.00000000000E+00  0.00000000000E+00  0.52771645708E+02  0.52771645708E+02  0.00000000000E+00 0. -1.
         21   -1    0    0  501  502 -0.00000000000E+00 -0.00000000000E+00 -0.74021758231E+02  0.74021758231E+02  0.00000000000E+00 0. -1.
         25    1    1    2    0    0  0.00000000000E+00  0.00000000000E+00 -0.21250112523E+02  0.12679340394E+03  0.12500000000E+03 0.  0.
<mgrwt>
<rscale>  0 0.12500000E+03</rscale>
<asrwt>0</asrwt>
<pdfrwt beam="1">  1       21 0.81187148E-02 0.12500000E+03</pdfrwt>
<pdfrwt beam="2">  1       21 0.11387963E-01 0.12500000E+03</pdfrwt>
<totfact> 0.73797288E+06</totfact>
</mgrwt>
</event>
<event>
 3    1  0.1615911E-001  0.1250000E+03  0.7546771E-02  0.1235069E+00
         21   -1    0    0  502  501  0.00000000000E+00  0.00000000000E+00  0.55718927797E+01  0.55718927797E+01  0.00000000000E+00 0. -1.
         21   -1    0    0  501  502 -0.00000000000E+00 -0.00000000000E+00 -0.70106338267E+03  0.70106338267E+03  0.00000000000E+00 0. -1.
         25    1    1    2    0    0  0.00000000000E+00  0.00000000000E+00 -0.69549148989E+03  0.70663527545E+03  0.12500000000E+03 0.  0.
<mgrwt>
<rscale>  0 0.12500000E+03</rscale>
<asrwt>0</asrwt>
<pdfrwt beam="1">  1       21 0.85721364E-03 0.12500000E+03</pdfrwt>
<pdfrwt beam="2">  1       21 0.10785598E+00 0.12500000E+03</pdfrwt>
<totfact> 0.32655873E+06</totfact>
</mgrwt>
</event>
<event>
 3    1  0.1615911E-001  0.1250000E+03  0.7546771E-02  0.1235069E+00
         21   -1    0    0  502  501  0.00000000000E+00  0.00000000000E+00  0.44727946770E+03  0.44727946770E+03  0.00000000000E+00 0.  1.
         21   -1    0    0  501  502 -0.00000000000E+00 -0.00000000000E+00 -0.87333541601E+01  0.87333541601E+01  0.00000000000E+00 0.  1.
         25    1    1    2    0    0  0.00000000000E+00  0.00000000000E+00  0.43854611354E+03  0.45601282186E+03  0.12500000000E+03 0.  0.
<mgrwt>
<rscale>  0 0.12500000E+03</rscale>
<asrwt>0</asrwt>
<pdfrwt beam="1">  1       21 0.68812208E-01 0.12500000E+03</pdfrwt>
<pdfrwt beam="2">  1       21 0.13435933E-02 0.12500000E+03</pdfrwt>
<totfact> 0.44534654E+06</totfact>
</mgrwt>
</event>
<event>
 3    1  0.1615911E-001  0.1250000E+03  0.7546771E-02  0.1235069E+00
         21   -1    0    0  502  501  0.00000000000E+00  0.00000000000E+00  0.18841304492E+03  0.18841304492E+03  0.00000000000E+00 0.  1.
         21   -1    0    0  501  502 -0.00000000000E+00 -0.00000000000E+00 -0.20732375519E+02  0.20732375519E+02  0.00000000000E+00 0.  1.
         25    1    1    2    0    0  0.00000000000E+00  0.00000000000E+00  0.16768066940E+03  0.20914542044E+03  0.12500000000E+03 0.  0.
<mgrwt>
<rscale>  0 0.12500000E+03</rscale>
<asrwt>0</asrwt>
<pdfrwt beam="1">  1       21 0.28986621E-01 0.12500000E+03</pdfrwt>
<pdfrwt beam="2">  1       21 0.31895964E-02 0.12500000E+03</pdfrwt>
<totfact> 0.63949560E+06</totfact>
</mgrwt>
</event>
<event>
 3    1  0.1615911E-001  0.1250000E+03  0.7546771E-02  0.1235069E+00
         21   -1    0    0  502  501  0.00000000000E+00  0.00000000000E+00  0.15368855519E+02  0.15368855519E+02  0.00000000000E+00 0. -1.
         21   -1    0    0  501  502 -0.00000000000E+00 -0.00000000000E+00 -0.25416661606E+03  0.25416661606E+03  0.00000000000E+00 0. -1.
         25    1    1    2    0    0  0.00000000000E+00  0.00000000000E+00 -0.23879776054E+03  0.26953547158E+03  0.12500000000E+03 0.  0.
<mgrwt>
<rscale>  0 0.12500000E+03</rscale>
<asrwt>0</asrwt>
<pdfrwt beam="1">  1       21 0.23644394E-02 0.12500000E+03</pdfrwt>
<pdfrwt beam="2">  1       21 0.39102554E-01 0.12500000E+03</pdfrwt>
<totfact> 0.58086166E+06</totfact>
</mgrwt>
</event>
<event>
 3    1  0.1615911E-001  0.1250000E+03  0.7546771E-02  0.1235069E+00
         21   -1    0    0  502  501  0.00000000000E+00  0.00000000000E+00  0.36787883128E+03  0.36787883128E+03  0.00000000000E+00 0.  1.
         21   -1    0    0  501  502 -0.00000000000E+00 -0.00000000000E+00 -0.10618305996E+02  0.10618305996E+02  0.00000000000E+00 0.  1.
         25    1    1    2    0    0  0.00000000000E+00  0.00000000000E+00  0.35726052528E+03  0.37849713727E+03  0.12500000000E+03 0.  0.
<mgrwt>
<rscale>  0 0.12500000E+03</rscale>
<asrwt>0</asrwt>
<pdfrwt beam="1">  1       21 0.56596733E-01 0.12500000E+03</pdfrwt>
<pdfrwt beam="2">  1       21 0.16335858E-02 0.12500000E+03</pdfrwt>
<totfact> 0.49500278E+06</totfact>
</mgrwt>
</event>
<event>
 3    1  0.1615911E-001  0.1250000E+03  0.7546771E-02  0.1235069E+00
         21   -1    0    0  502  501  0.00000000000E+00  0.00000000000E+00  0.30291353671E+02  0.30291353671E+02  0.00000000000E+00 0. -1.
         21   -1    0    0  501  502 -0.00000000000E+00 -0.00000000000E+00 -0.12895594045E+03  0.12895594045E+03  0.00000000000E+00 0. -1.
         25    1    1    2    0    0  0.00000000000E+00  0.00000000000E+00 -0.98664586776E+02  0.15924729412E+03  0.12500000000E+03 0.  0.
<mgrwt>
<rscale>  0 0.12500000E+03</rscale>
<asrwt>0</asrwt>
<pdfrwt beam="1">  1       21 0.46602082E-02 0.12500000E+03</pdfrwt>
<pdfrwt beam="2">  1       21 0.19839376E-01 0.12500000E+03</pdfrwt>
<totfact> 0.69611585E+06</totfact>
</mgrwt>
</event>
<event>
 3    1  0.1615911E-001  0.1250000E+03  0.7546771E-02  0.1235069E+00
         21   -1    0    0  502  501  0.00000000000E+00  0.00000000000E+00  0.78272648922E+03  0.78272648922E+03  0.00000000000E+00 0.  1.
         21   -1    0    0  501  502 -0.00000000000E+00 -0.00000000000E+00 -0.49905682940E+01  0.49905682940E+01  0.00000000000E+00 0.  1.
         25    1    1    2    0    0  0.00000000000E+00  0.00000000000E+00  0.77773592092E+03  0.78771705751E+03  0.12500000000E+03 0.  0.
<mgrwt>
<rscale>  0 0.12500000E+03</rscale>
<asrwt>0</asrwt>
<pdfrwt beam="1">  1       21 0.12041936E+00 0.12500000E+03</pdfrwt>
<pdfrwt beam="2">  1       21 0.76778036E-03 0.12500000E+03</pdfrwt>
<totfact> 0.29773864E+06</totfact>
</mgrwt>
</event>
<event>
 3    1  0.1615911E-001  0.1250000E+03  0.7546771E-02  0.1235069E+00
         21   -1    0    0  502  501  0.00000000000E+00  0.00000000000E+00  0.13898436629E+03  0.13898436629E+03  0.00000000000E+00 0. -1.
         21   -1    0    0  501  502 -0.00000000000E+00 -0.00000000000E+00 -0.28105679108E+02  0.28105679108E+02  0.00000000000E+00 0. -1.
         25    1    1    2    0    0  0.00000000000E+00  0.00000000000E+00  0.11087868718E+03  0.16709004540E+03  0.12500000000E+03 0.  0.
<mgrwt>
<rscale>  0 0.12500000E+03</rscale>
<asrwt>0</asrwt>
<pdfrwt beam="1">  1       21 0.21382210E-01 0.12500000E+03</pdfrwt>
<pdfrwt beam="2">  1       21 0.43239507E-02 0.12500000E+03</pdfrwt>
<totfact> 0.68663380E+06</totfact>
</mgrwt>
</event>
<event>
 3    1  0.1615911E-001  0.1250000E+03  0.7546771E-02  0.1235069E+00
         21   -1    0    0  502  501  0.00000000000E+00  0.00000000000E+00  0.24120964743E+02  0.24120964743E+02  0.00000000000E+00 0.  1.
         21   -1    0    0  501  502 -0.00000000000E+00 -0.00000000000E+00 -0.16194418597E+03  0.16194418597E+03  0.00000000000E+00 0.  1.
         25    1    1    2    0    0  0.00000000000E+00  0.00000000000E+00 -0.13782322122E+03  0.18606515071E+03  0.12500000000E+03 0.  0.
<mgrwt>
<rscale>  0 0.12500000E+03</rscale>
<asrwt>0</asrwt>
<pdfrwt beam="1">  1       21 0.37109176E-02 0.12500000E+03</pdfrwt>
<pdfrwt beam="2">  1       21 0.24914490E-01 0.12500000E+03</pdfrwt>
<totfact> 0.66462480E+06</totfact>
</mgrwt>
</event>
<event>
 3    1  0.1615911E-001  0.1250000E+03  0.7546771E-02  0.1235069E+00
         21   -1    0    0  502  501  0.00000000000E+00  0.00000000000E+00  0.10249017022E+02  0.10249017022E+02  0.00000000000E+00 0. -1.
         21   -1    0    0  501  502 -0.00000000000E+00 -0.00000000000E+00 -0.38113411183E+03  0.38113411183E+03  0.00000000000E+00 0. -1.
         25    1    1    2    0    0  0.00000000000E+00  0.00000000000E+00 -0.37088509481E+03  0.39138312886E+03  0.12500000000E+03 0.  0.
<mgrwt>
<rscale>  0 0.12500000E+03</rscale>
<asrwt>0</asrwt>
<pdfrwt beam="1">  1       21 0.15767718E-02 0.12500000E+03</pdfrwt>
<pdfrwt beam="2">  1       21 0.58636019E-01 0.12500000E+03</pdfrwt>
<totfact> 0.48618199E+06</totfact>
</mgrwt>
</event>
<event>
 3    1  0.1615911E-001  0.1250000E+03  0.7546771E-02  0.1235069E+00
         21   -1    0    0  502  501  0.00000000000E+00  0.00000000000E+00  0.23519239897E+02  0.23519239897E+02  0.00000000000E+00 0. -1.
         21   -1    0    0  501  502 -0.00000000000E+00 -0.00000000000E+00 -0.16608742532E+03  0.16608742532E+03  0.00000000000E+00 0. -1.
         25    1    1    2    0    0  0.00000000000E+00  0.00000000000E+00 -0.14256818542E+03  0.18960666522E+03  0.12500000000E+03 0.  0.
<mgrwt>
<rscale>  0 0.12500000E+03</rscale>
<asrwt>0</asrwt>
<pdfrwt beam="1">  1       21 0.36183445E-02 0.12500000E+03</pdfrwt>
<pdfrwt beam="2">  1       21 0.25551913E-01 0.12500000E+03</pdfrwt>
<totfact> 0.66066205E+06</totfact>
</mgrwt>
</event>
<event>
 3    1  0.1615911E-001  0.1250000E+03  0.7546771E-02  0.1235069E+00
         21   -1    0    0  502  501  0.00000000000E+00  0.00000000000E+00  0.87288062608E+03  0.87288062608E+03  0.00000000000E+00 0. -1.
         21   -1    0    0  501  502 -0.00000000000E+00 -0.00000000000E+00 -0.44751251011E+01  0.44751251011E+01  0.00000000000E+00 0. -1.
         25    1    1    2    0    0  0.00000000000E+00  0.00000000000E+00  0.86840550098E+03  0.87735575118E+03  0.12500000000E+03 0.  0.
<mgrwt>
<rscale>  0 0.12500000E+03</rscale>
<asrwt>0</asrwt>
<pdfrwt beam="1">  1       21 0.13428919E+00 0.12500000E+03</pdfrwt>
<pdfrwt beam="2">  1       21 0.68848148E-03 0.12500000E+03</pdfrwt>
<totfact> 0.26953855E+06</totfact>
</mgrwt>
</event>
<event>
 3    1  0.1615911E-001  0.1250000E+03  0.7546771E-02  0.1235069E+00
         21   -1    0    0  502  501  0.00000000000E+00  0.00000000000E+00  0.16078025960E+03  0.16078025960E+03  0.00000000000E+00 0.  1.
         21   -1    0    0  501  502 -0.00000000000E+00 -0.00000000000E+00 -0.24295582117E+02  0.24295582117E+02  0.00000000000E+00 0.  1.
         25    1    1    2    0    0  0.00000000000E+00  0.00000000000E+00  0.13648467749E+03  0.18507584172E+03  0.12500000000E+03 0.  0.
<mgrwt>
<rscale>  0 0.12500000E+03</rscale>
<asrwt>0</asrwt>
<pdfrwt beam="1">  1       21 0.24735424E-01 0.12500000E+03</pdfrwt>
<pdfrwt beam="2">  1       21 0.37377820E-02 0.12500000E+03</pdfrwt>
<totfact> 0.66573969E+06</totfact>
</mgrwt>
</event>
<event>
 3    1  0.1615911E-001  0.1250000E+03  0.7546771E-02  0.1235069E+00
         21   -1    0    0  502  501  0.00000000000E+00  0.00000000000E+00  0.26214017794E+02  0.26214017794E+02  0.00000000000E+00 0.  1.
         21   -1    0    0  501  502 -0.00000000000E+00 -0.00000000000E+00 -0.14901378456E+03  0.14901378456E+03  0.00000000000E+00 0.  1.
         25    1    1    2    0    0  0.00000000000E+00  0.00000000000E+00 -0.12279976676E+03  0.17522780235E+03  0.12500000000E+03 0.  0.
<mgrwt>
<rscale>  0 0.12500000E+03</rscale>
<asrwt>0</asrwt>
<pdfrwt beam="1">  1       21 0.40329257E-02 0.12500000E+03</pdfrwt>
<pdfrwt beam="2">  1       21 0.22925198E-01 0.12500000E+03</pdfrwt>
<totfact> 0.67703249E+06</totfact>
</mgrwt>
</event>
<event>
 3    1  0.1615911E-001  0.1250000E+03  0.7546771E-02  0.1235069E+00
         21   -1    0    0  502  501  0.00000000000E+00  0.00000000000E+00  0.15609051855E+02  0.15609051855E+02  0.00000000000E+00 0. -1.
         21   -1    0    0  501  502 -0.00000000000E+00 -0.00000000000E+00 -0.25025543103E+03  0.25025543103E+03  0.00000000000E+00 0. -1.
         25    1    1    2    0    0  0.00000000000E+00  0.00000000000E+00 -0.23464637917E+03  0.26586448288E+03  0.12500000000E+03 0.  0.
<mgrwt>
<rscale>  0 0.12500000E+03</rscale>
<asrwt>0</asrwt>
<pdfrwt beam="1">  1       21 0.24013927E-02 0.12500000E+03</pdfrwt>
<pdfrwt beam="2">  1       21 0.38500834E-01 0.12500000E+03</pdfrwt>
<totfact> 0.58415896E+06</totfact>
</mgrwt>
</event>
<event>
 3    1  0.1615911E-001  0.1250000E+03  0.7546771E-02  0.1235069E+00
         21   -1    0    0  502  501  0.00000000000E+00  0.00000000000E+00  0.70197907347E+02  0.70197907347E+02  0.00000000000E+00 0.  1.
         21   -1    0    0  501  502 -0.00000000000E+00 -0.00000000000E+00 -0.55646245702E+02  0.55646245702E+02  0.00000000000E+00 0.  1.
         25    1    1    2    0    0  0.00000000000E+00  0.00000000000E+00  0.14551661644E+02  0.12584415305E+03  0.12500000000E+03 0.  0.
<mgrwt>
<rscale>  0 0.12500000E+03</rscale>
<asrwt>0</asrwt>
<pdfrwt beam="1">  1       21 0.10799678E-01 0.12500000E+03</pdfrwt>
<pdfrwt beam="2">  1       21 0.85609609E-02 0.12500000E+03</pdfrwt>
<totfact> 0.73927561E+06</totfact>
</mgrwt>
</event>
<event>
 3    1  0.1615911E-001  0.1250000E+03  0.7546771E-02  0.1235069E+00
         21   -1    0    0  502  501  0.00000000000E+00  0.00000000000E+00  0.17954127261E+01  0.17954127261E+01  0.00000000000E+00 0.  1.
         21   -1    0    0  501  502 -0.00000000000E+00 -0.00000000000E+00 -0.21756835870E+04  0.21756835870E+04  0.00000000000E+00 0.  1.
         25    1    1    2    0    0  0.00000000000E+00  0.00000000000E+00 -0.21738881743E+04  0.21774789997E+04  0.12500000000E+03 0.  0.
<mgrwt>
<rscale>  0 0.12500000E+03</rscale>
<asrwt>0</asrwt>
<pdfrwt beam="1">  1       21 0.27621406E-03 0.12500000E+03</pdfrwt>
<pdfrwt beam="2">  1       21 0.33472453E+00 0.12500000E+03</pdfrwt>
<totfact> 0.63432001E+05</totfact>
</mgrwt>
</event>
<event>
 3    1  0.1615911E-001  0.1250000E+03  0.7546771E-02  0.1235069E+00
         21   -1    0    0  502  501  0.00000000000E+00  0.00000000000E+00  0.76029016956E+02  0.76029016956E+02  0.00000000000E+00 0. -1.
         21   -1    0    0  501  502 -0.00000000000E+00 -0.00000000000E+00 -0.51378409934E+02  0.51378409934E+02  0.00000000000E+00 0. -1.
         25    1    1    2    0    0  0.00000000000E+00  0.00000000000E+00  0.24650607022E+02  0.12740742689E+03  0.12500000000E+03 0.  0.
<mgrwt>
<rscale>  0 0.12500000E+03</rscale>
<asrwt>0</asrwt>
<pdfrwt beam="1">  1       21 0.11696772E-01 0.12500000E+03</pdfrwt>
<pdfrwt beam="2">  1       21 0.79043708E-02 0.12500000E+03</pdfrwt>
<totfact> 0.73713772E+06</totfact>
</mgrwt>
</event>
<event>
 3    1  0.1615911E-001  0.1250000E+03  0.7546771E-02  0.1235069E+00
         21   -1    0    0  502  501  0.00000000000E+00  0.00000000000E+00  0.15768052088E+02  0.15768052088E+02  0.00000000000E+00 0.  1.
         21   -1    0    0  501  502 -0.00000000000E+00 -0.00000000000E+00 -0.24773193152E+03  0.24773193152E+03  0.00000000000E+00 0.  1.
         25    1    1    2    0    0  0.00000000000E+00  0.00000000000E+00 -0.23196387943E+03  0.26349998361E+03  0.12500000000E+03 0.  0.
<mgrwt>
<rscale>  0 0.12500000E+03</rscale>
<asrwt>0</asrwt>
<pdfrwt beam="1">  1       21 0.24258545E-02 0.12500000E+03</pdfrwt>
<pdfrwt beam="2">  1       21 0.38112600E-01 0.12500000E+03</pdfrwt>
<totfact> 0.58629959E+06</totfact>
</mgrwt>
</event>
<event>
 3    1  0.1615911E-001  0.1250000E+03  0.7546771E-02  0.1235069E+00
         21   -1    0    0  502  501  0.00000000000E+00  0.00000000000E+00  0.60695669554E+03  0.60695669554E+03  0.00000000000E+00 0.  1.
         21   -1    0    0  501  502 -0.00000000000E+00 -0.00000000000E+00 -0.64357968678E+01  0.64357968678E+01  0.00000000000E+00 0.  1.
         25    1    1    2    0    0  0.00000000000E+00  0.00000000000E+00  0.60052089867E+03  0.61339249240E+03  0.12500000000E+03 0.  0.
<mgrwt>
<rscale>  0 0.12500000E+03</rscale>
<asrwt>0</asrwt>
<pdfrwt beam="1">  1       21 0.93377908E-01 0.12500000E+03</pdfrwt>
<pdfrwt beam="2">  1       21 0.99012308E-03 0.12500000E+03</pdfrwt>
<totfact> 0.36493905E+06</totfact>
</mgrwt>
</event>
<event>
 3    1  0.1615911E-001  0.1250000E+03  0.7546771E-02  0.1235069E+00
         21   -1    0    0  502  501  0.00000000000E+00  0.00000000000E+00  0.14626028203E+03  0.14626028203E+03  0.00000000000E+00 0.  1.
         21   -1    0    0  501  502 -0.00000000000E+00 -0.00000000000E+00 -0.26707524051E+02  0.26707524051E+02  0.00000000000E+00 0.  1.
         25    1    1    2    0    0  0.00000000000E+00  0.00000000000E+00  0.11955275798E+03  0.17296780608E+03  0.12500000000E+03 0.  0.
<mgrwt>
<rscale>  0 0.12500000E+03</rscale>
<asrwt>0</asrwt>
<pdfrwt beam="1">  1       21 0.22501581E-01 0.12500000E+03</pdfrwt>
<pdfrwt beam="2">  1       21 0.41088499E-02 0.12500000E+03</pdfrwt>
<totfact> 0.67967549E+06</totfact>
</mgrwt>
</event>
<event>
 3    1  0.1615911E-001  0.1250000E+03  0.7546771E-02  0.1235069E+00
         21   -1    0    0  502  501  0.00000000000E+00  0.00000000000E+00  0.28528969254E+03  0.28528969254E+03  0.00000000000E+00 0.  1.
         21   -1    0    0  501  502 -0.00000000000E+00 -0.00000000000E+00 -0.13692222685E+02  0.13692222685E+02  0.00000000000E+00 0.  1.
         25    1    1    2    0    0  0.00000000000E+00  0.00000000000E+00  0.27159746985E+03  0.29898191522E+03  0.12500000000E+03 0.  0.
<mgrwt>
<rscale>  0 0.12500000E+03</rscale>
<asrwt>0</asrwt>
<pdfrwt beam="1">  1       21 0.43890718E-01 0.12500000E+03</pdfrwt>
<pdfrwt beam="2">  1       21 0.21064960E-02 0.12500000E+03</pdfrwt>
<totfact> 0.55540889E+06</totfact>
</mgrwt>
</event>
<event>
 3    1  0.1615911E-001  0.1250000E+03  0.7546771E-02  0.1235069E+00
         21   -1    0    0  502  501  0.00000000000E+00  0.00000000000E+00  0.23102740043E+02  0.23102740043E+02  0.00000000000E+00 0. -1.
         21   -1    0    0  501  502 -0.00000000000E+00 -0.00000000000E+00 -0.16908167571E+03  0.16908167571E+03  0.00000000000E+00 0. -1.
         25    1    1    2    0    0  0.00000000000E+00  0.00000000000E+00 -0.14597893567E+03  0.19218441576E+03  0.12500000000E+03 0.  0.
<mgrwt>
<rscale>  0 0.12500000E+03</rscale>
<asrwt>0</asrwt>
<pdfrwt beam="1">  1       21 0.35542676E-02 0.12500000E+03</pdfrwt>
<pdfrwt beam="2">  1       21 0.26012566E-01 0.12500000E+03</pdfrwt>
<totfact> 0.65780505E+06</totfact>
</mgrwt>
</event>
<event>
 3    1  0.1615911E-001  0.1250000E+03  0.7546771E-02  0.1235069E+00
         21   -1    0    0  502  501  0.00000000000E+00  0.00000000000E+00  0.37768862251E+01  0.37768862251E+01  0.00000000000E+00 0. -1.
         21   -1    0    0  501  502 -0.00000000000E+00 -0.00000000000E+00 -0.10342514355E+04  0.10342514355E+04  0.00000000000E+00 0. -1.
         25    1    1    2    0    0  0.00000000000E+00  0.00000000000E+00 -0.10304745493E+04  0.10380283217E+04  0.12500000000E+03 0.  0.
<mgrwt>
<rscale>  0 0.12500000E+03</rscale>
<asrwt>0</asrwt>
<pdfrwt beam="1">  1       21 0.58105812E-03 0.12500000E+03</pdfrwt>
<pdfrwt beam="2">  1       21 0.15911596E+00 0.12500000E+03</pdfrwt>
<totfact> 0.22684730E+06</totfact>
</mgrwt>
</event>
<event>
 3    1  0.1615911E-001  0.1250000E+03  0.7546771E-02  0.1235069E+00
         21   -1    0    0  502  501  0.00000000000E+00  0.00000000000E+00  0.11249331617E+03  0.11249331617E+03  0.00000000000E+00 0.  1.
         21   -1    0    0  501  502 -0.00000000000E+00 -0.00000000000E+00 -0.34724285255E+02  0.34724285255E+02  0.00000000000E+00 0.  1.
         25    1    1    2    0    0  0.00000000000E+00  0.00000000000E+00  0.77769030916E+02  0.14721760143E+03  0.12500000000E+03 0.  0.
<mgrwt>
<rscale>  0 0.12500000E+03</rscale>
<asrwt>0</asrwt>
<pdfrwt beam="1">  1       21 0.17306664E-01 0.12500000E+03</pdfrwt>
<pdfrwt beam="2">  1       21 0.53421978E-02 0.12500000E+03</pdfrwt>
<totfact> 0.71110496E+06</totfact>
</mgrwt>
</event>
<event>
 3    1  0.1615911E-001  0.1250000E+03  0.7546771E-02  0.1235069E+00
         21   -1    0    0  502  501  0.00000000000E+00  0.00000000000E+00  0.24909152083E+03  0.24909152083E+03  0.00000000000E+00 0.  1.
         21   -1    0    0  501  502 -0.00000000000E+00 -0.00000000000E+00 -0.15681987034E+02  0.15681987034E+02  0.00000000000E+00 0.  1.
         25    1    1    2    0    0  0.00000000000E+00  0.00000000000E+00  0.23340953380E+03  0.26477350787E+03  0.12500000000E+03 0.  0.
<mgrwt>
<rscale>  0 0.12500000E+03</rscale>
<asrwt>0</asrwt>
<pdfrwt beam="1">  1       21 0.38321770E-01 0.12500000E+03</pdfrwt>
<pdfrwt beam="2">  1       21 0.24126136E-02 0.12500000E+03</pdfrwt>
<totfact> 0.58514499E+06</totfact>
</mgrwt>
</event>
<event>
 3    1  0.1615911E-001  0.1250000E+03  0.7546771E-02  0.1235069E+00
         21   -1    0    0  502  501  0.00000000000E+00  0.00000000000E+00  0.42285282733E+03  0.42285282733E+03  0.00000000000E+00 0. -1.
         21   -1    0    0  501  502 -0.00000000000E+00 -0.00000000000E+00 -0.92378476565E+01  0.92378476565E+01  0.00000000000E+00 0. -1.
         25    1    1    2    0    0  0.00000000000E+00  0.00000000000E+00  0.41361497968E+03  0.43209067499E+03  0.12500000000E+03 0.  0.
<mgrwt>
<rscale>  0 0.12500000E+03</rscale>
<asrwt>0</asrwt>
<pdfrwt beam="1">  1       21 0.65054266E-01 0.12500000E+03</pdfrwt>
<pdfrwt beam="2">  1       21 0.14212077E-02 0.12500000E+03</pdfrwt>
<totfact> 0.45983191E+06</totfact>
</mgrwt>
</event>
<event>
 3    1  0.1615911E-001  0.1250000E+03  0.7546771E-02  0.1235069E+00
         21   -1    0    0  502  501  0.00000000000E+00  0.00000000000E+00  0.10002480731E+02  0.10002480731E+02  0.00000000000E+00 0. -1.
         21   -1    0    0  501  502 -0.00000000000E+00 -0.00000000000E+00 -0.39052812049E+03  0.39052812049E+03  0.00000000000E+00 0. -1.
         25    1    1    2    0    0  0.00000000000E+00  0.00000000000E+00 -0.38052563975E+03  0.40053060122E+03  0.12500000000E+03 0.  0.
<mgrwt>
<rscale>  0 0.12500000E+03</rscale>
<asrwt>0</asrwt>
<pdfrwt beam="1">  1       21 0.15388433E-02 0.12500000E+03</pdfrwt>
<pdfrwt beam="2">  1       21 0.60081245E-01 0.12500000E+03</pdfrwt>
<totfact> 0.48006178E+06</totfact>
</mgrwt>
</event>
<event>
 3    1  0.1615911E-001  0.1250000E+03  0.7546771E-02  0.1235069E+00
         21   -1    0    0  502  501  0.00000000000E+00  0.00000000000E+00  0.17468113440E+03  0.17468113440E+03  0.00000000000E+00 0.  1.
         21   -1    0    0  501  502 -0.00000000000E+00 -0.00000000000E+00 -0.22362174446E+02  0.22362174446E+02  0.00000000000E+00 0.  1.
         25    1    1    2    0    0  0.00000000000E+00  0.00000000000E+00  0.15231895996E+03  0.19704330885E+03  0.12500000000E+03 0.  0.
<mgrwt>
<rscale>  0 0.12500000E+03</rscale>
<asrwt>0</asrwt>
<pdfrwt beam="1">  1       21 0.26874020E-01 0.12500000E+03</pdfrwt>
<pdfrwt beam="2">  1       21 0.34403346E-02 0.12500000E+03</pdfrwt>
<totfact> 0.65248080E+06</totfact>
</mgrwt>
</event>
<event>
 3    1  0.1615911E-001  0.1250000E+03  0.7546771E-02  0.1235069E+00
         21   -1    0    0  502  501  0.00000000000E+00  0.00000000000E+00  0.99490403865E+03  0.99490403865E+03  0.00000000000E+00 0.  1.
         21   -1    0    0  501  502 -0.00000000000E+00 -0.00000000000E+00 -0.39262580593E+01  0.39262580593E+01  0.00000000000E+00 0.  1.
         25    1    1    2    0    0  0.00000000000E+00  0.00000000000E+00  0.99097778059E+03  0.99883029671E+03  0.12500000000E+03 0.  0.
<mgrwt>
<rscale>  0 0.12500000E+03</rscale>
<asrwt>0</asrwt>
<pdfrwt beam="1">  1       21 0.15306196E+00 0.12500000E+03</pdfrwt>
<pdfrwt beam="2">  1       21 0.60404049E-03 0.12500000E+03</pdfrwt>
<totfact> 0.23647962E+06</totfact>
</mgrwt>
</event>
<event>
 3    1  0.1615911E-001  0.1250000E+03  0.7546771E-02  0.1235069E+00
         21   -1    0    0  502  501  0.00000000000E+00  0.00000000000E+00  0.29736314634E+02  0.29736314634E+02  0.00000000000E+00 0. -1.
         21   -1    0    0  501  502 -0.00000000000E+00 -0.00000000000E+00 -0.13136294958E+03  0.13136294958E+03  0.00000000000E+00 0. -1.
         25    1    1    2    0    0  0.00000000000E+00  0.00000000000E+00 -0.10162663495E+03  0.16109926422E+03  0.12500000000E+03 0.  0.
<mgrwt>
<rscale>  0 0.12500000E+03</rscale>
<asrwt>0</asrwt>
<pdfrwt beam="1">  1       21 0.45748176E-02 0.12500000E+03</pdfrwt>
<pdfrwt beam="2">  1       21 0.20209685E-01 0.12500000E+03</pdfrwt>
<totfact> 0.69385426E+06</totfact>
</mgrwt>
</event>
<event>
 3    1  0.1615911E-001  0.1250000E+03  0.7546771E-02  0.1235069E+00
         21   -1    0    0  502  501  0.00000000000E+00  0.00000000000E+00  0.33562384671E+02  0.33562384671E+02  0.00000000000E+00 0.  1.
         21   -1    0    0  501  502 -0.00000000000E+00 -0.00000000000E+00 -0.11638773699E+03  0.11638773699E+03  0.00000000000E+00 0.  1.
         25    1    1    2    0    0  0.00000000000E+00  0.00000000000E+00 -0.82825352323E+02  0.14995012166E+03  0.12500000000E+03 0.  0.
<mgrwt>
<rscale>  0 0.12500000E+03</rscale>
<asrwt>0</asrwt>
<pdfrwt beam="1">  1       21 0.51634439E-02 0.12500000E+03</pdfrwt>
<pdfrwt beam="2">  1       21 0.17905805E-01 0.12500000E+03</pdfrwt>
<totfact> 0.70765467E+06</totfact>
</mgrwt>
</event>
<event>
 3    1  0.1615911E-001  0.1250000E+03  0.7546771E-02  0.1235069E+00
         21   -1    0    0  502  501  0.00000000000E+00  0.00000000000E+00  0.36414308733E+01  0.36414308733E+01  0.00000000000E+00 0.  1.
         21   -1    0    0  501  502 -0.00000000000E+00 -0.00000000000E+00 -0.10727239198E+04  0.10727239198E+04  0.00000000000E+00 0.  1.
         25    1    1    2    0    0  0.00000000000E+00  0.00000000000E+00 -0.10690824889E+04  0.10763653507E+04  0.12500000000E+03 0.  0.
<mgrwt>
<rscale>  0 0.12500000E+03</rscale>
<asrwt>0</asrwt>
<pdfrwt beam="1">  1       21 0.56022012E-03 0.12500000E+03</pdfrwt>
<pdfrwt beam="2">  1       21 0.16503445E+00 0.12500000E+03</pdfrwt>
<totfact> 0.21784841E+06</totfact>
</mgrwt>
</event>
<event>
 3    1  0.1615911E-001  0.1250000E+03  0.7546771E-02  0.1235069E+00
         21   -1    0    0  502  501  0.00000000000E+00  0.00000000000E+00  0.19674145559E+03  0.19674145559E+03  0.00000000000E+00 0. -1.
         21   -1    0    0  501  502 -0.00000000000E+00 -0.00000000000E+00 -0.19854737723E+02  0.19854737723E+02  0.00000000000E+00 0. -1.
         25    1    1    2    0    0  0.00000000000E+00  0.00000000000E+00  0.17688671786E+03  0.21659619331E+03  0.12500000000E+03 0.  0.
<mgrwt>
<rscale>  0 0.12500000E+03</rscale>
<asrwt>0</asrwt>
<pdfrwt beam="1">  1       21 0.30267915E-01 0.12500000E+03</pdfrwt>
<pdfrwt beam="2">  1       21 0.30545752E-02 0.12500000E+03</pdfrwt>
<totfact> 0.63172154E+06</totfact>
</mgrwt>
</event>
<event>
 3    1  0.1615911E-001  0.1250000E+03  0.7546771E-02  0.1235069E+00
         21   -1    0    0  502  501  0.00000000000E+00  0.00000000000E+00  0.12995892582E+02  0.12995892582E+02  0.00000000000E+00 0.  1.
         21   -1    0    0  501  502 -0.00000000000E+00 -0.00000000000E+00 -0.30057573771E+03  0.30057573771E+03  0.00000000000E+00 0.  1.
         25    1    1    2    0    0  0.00000000000E+00  0.00000000000E+00 -0.28757984513E+03  0.31357163029E+03  0.12500000000E+03 0.  0.
<mgrwt>
<rscale>  0 0.12500000E+03</rscale>
<asrwt>0</asrwt>
<pdfrwt beam="1">  1       21 0.19993682E-02 0.12500000E+03</pdfrwt>
<pdfrwt beam="2">  1       21 0.46242419E-01 0.12500000E+03</pdfrwt>
<totfact> 0.54346723E+06</totfact>
</mgrwt>
</event>
<event>
 3    1  0.1615911E-001  0.1250000E+03  0.7546771E-02  0.1235069E+00
         21   -1    0    0  502  501  0.00000000000E+00  0.00000000000E+00  0.29643282397E+02  0.29643282397E+02  0.00000000000E+00 0.  1.
         21   -1    0    0  501  502 -0.00000000000E+00 -0.00000000000E+00 -0.13177521800E+03  0.13177521800E+03  0.00000000000E+00 0.  1.
         25    1    1    2    0    0  0.00000000000E+00  0.00000000000E+00 -0.10213193560E+03  0.16141850039E+03  0.12500000000E+03 0.  0.
<mgrwt>
<rscale>  0 0.12500000E+03</rscale>
<asrwt>0</asrwt>
<pdfrwt beam="1">  1       21 0.45605050E-02 0.12500000E+03</pdfrwt>
<pdfrwt beam="2">  1       21 0.20273110E-01 0.12500000E+03</pdfrwt>
<totfact> 0.69346584E+06</totfact>
</mgrwt>
</event>
<event>
 3    1  0.1615911E-001  0.1250000E+03  0.7546771E-02  0.1235069E+00
         21   -1    0    0  502  501  0.00000000000E+00  0.00000000000E+00  0.25603414642E+03  0.25603414642E+03  0.00000000000E+00 0.  1.
         21   -1    0    0  501  502 -0.00000000000E+00 -0.00000000000E+00 -0.15256754048E+02  0.15256754048E+02  0.00000000000E+00 0.  1.
         25    1    1    2    0    0  0.00000000000E+00  0.00000000000E+00  0.24077739238E+03  0.27129090047E+03  0.12500000000E+03 0.  0.
<mgrwt>
<rscale>  0 0.12500000E+03</rscale>
<asrwt>0</asrwt>
<pdfrwt beam="1">  1       21 0.39389866E-01 0.12500000E+03</pdfrwt>
<pdfrwt beam="2">  1       21 0.23471931E-02 0.12500000E+03</pdfrwt>
<totfact> 0.57929599E+06</totfact>
</mgrwt>
</event>
<event>
 3    1  0.1615911E-001  0.1250000E+03  0.7546771E-02  0.1235069E+00
         21   -1    0    0  502  501  0.00000000000E+00  0.00000000000E+00  0.32864817108E+03  0.32864817108E+03  0.00000000000E+00 0. -1.
         21   -1    0    0  501  502 -0.00000000000E+00 -0.00000000000E+00 -0.11885810857E+02  0.11885810857E+02  0.00000000000E+00 0. -1.
         25    1    1    2    0    0  0.00000000000E+00  0.00000000000E+00  0.31676236022E+03  0.34053398193E+03  0.12500000000E+03 0.  0.
<mgrwt>
<rscale>  0 0.12500000E+03</rscale>
<asrwt>0</asrwt>
<pdfrwt beam="1">  1       21 0.50561250E-01 0.12500000E+03</pdfrwt>
<pdfrwt beam="2">  1       21 0.18285865E-02 0.12500000E+03</pdfrwt>
<totfact> 0.52245216E+06</totfact>
</mgrwt>
</event>
<event>
 3    1  0.1615911E-001  0.1250000E+03  0.7546771E-02  0.1235069E+00
         21   -1    0    0  502  501  0.00000000000E+00  0.00000000000E+00  0.77876648407E+03  0.77876648407E+03  0.00000000000E+00 0. -1.
         21   -1    0    0  501  502 -0.00000000000E+00 -0.00000000000E+00 -0.50159451901E+01  0.50159451901E+01  0.00000000000E+00 0. -1.
         25    1    1    2    0    0  0.00000000000E+00  0.00000000000E+00  0.77375053888E+03  0.78378242926E+03  0.12500000000E+03 0.  0.
<mgrwt>
<rscale>  0 0.12500000E+03</rscale>
<asrwt>0</asrwt>
<pdfrwt beam="1">  1       21 0.11981013E+00 0.12500000E+03</pdfrwt>
<pdfrwt beam="2">  1       21 0.77168449E-03 0.12500000E+03</pdfrwt>
<totfact> 0.29907251E+06</totfact>
</mgrwt>
</event>
<event>
 3    1  0.1615911E-001  0.1250000E+03  0.7546771E-02  0.1235069E+00
         21   -1    0    0  502  501  0.00000000000E+00  0.00000000000E+00  0.72558328052E+01  0.72558328052E+01  0.00000000000E+00 0.  1.
         21   -1    0    0  501  502 -0.00000000000E+00 -0.00000000000E+00 -0.53835997947E+03  0.53835997947E+03  0.00000000000E+00 0.  1.
         25    1    1    2    0    0  0.00000000000E+00  0.00000000000E+00 -0.53110414666E+03  0.54561581227E+03  0.12500000000E+03 0.  0.
<mgrwt>
<rscale>  0 0.12500000E+03</rscale>
<asrwt>0</asrwt>
<pdfrwt beam="1">  1       21 0.11162821E-02 0.12500000E+03</pdfrwt>
<pdfrwt beam="2">  1       21 0.82824602E-01 0.12500000E+03</pdfrwt>
<totfact> 0.39673565E+06</totfact>
</mgrwt>
</event>
<event>
 3    1  0.1615911E-001  0.1250000E+03  0.7546771E-02  0.1235069E+00
         21   -1    0    0  502  501  0.00000000000E+00  0.00000000000E+00  0.46705212692E+02  0.46705212692E+02  0.00000000000E+00 0. -1.
         21   -1    0    0  501  502 -0.00000000000E+00 -0.00000000000E+00 -0.83636274729E+02  0.83636274729E+02  0.00000000000E+00 0. -1.
         25    1    1    2    0    0  0.00000000000E+00  0.00000000000E+00 -0.36931062037E+02  0.13034148742E+03  0.12500000000E+03 0.  0.
<mgrwt>
<rscale>  0 0.12500000E+03</rscale>
<asrwt>0</asrwt>
<pdfrwt beam="1">  1       21 0.71854173E-02 0.12500000E+03</pdfrwt>
<pdfrwt beam="2">  1       21 0.12867119E-01 0.12500000E+03</pdfrwt>
<totfact> 0.73319310E+06</totfact>
</mgrwt>
</event>
<event>
 3    1  0.1615911E-001  0.1250000E+03  0.7546771E-02  0.1235069E+00
         21   -1    0    0  502  501  0.00000000000E+00  0.00000000000E+00  0.77154784728E+02  0.77154784728E+02  0.00000000000E+00 0.  1.
         21   -1    0    0  501  502 -0.00000000000E+00 -0.00000000000E+00 -0.50628746017E+02  0.50628746017E+02  0.00000000000E+00 0.  1.
         25    1    1    2    0    0  0.00000000000E+00  0.00000000000E+00  0.26526038711E+02  0.12778353075E+03  0.12500000000E+03 0.  0.
<mgrwt>
<rscale>  0 0.12500000E+03</rscale>
<asrwt>0</asrwt>
<pdfrwt beam="1">  1       21 0.11869967E-01 0.12500000E+03</pdfrwt>
<pdfrwt beam="2">  1       21 0.77890378E-02 0.12500000E+03</pdfrwt>
<totfact> 0.73662822E+06</totfact>
</mgrwt>
</event>
<event>
 3    1  0.1615911E-001  0.1250000E+03  0.7546771E-02  0.1235069E+00
         21   -1    0    0  502  501  0.00000000000E+00  0.00000000000E+00  0.18716473926E+02  0.18716473926E+02  0.00000000000E+00 0.  1.
         21   -1    0    0  501  502 -0.00000000000E+00 -0.00000000000E+00 -0.20870651253E+03  0.20870651253E+03  0.00000000000E+00 0.  1.
         25    1    1    2    0    0  0.00000000000E+00  0.00000000000E+00 -0.18999003860E+03  0.22742298645E+03  0.12500000000E+03 0.  0.
<mgrwt>
<rscale>  0 0.12500000E+03</rscale>
<asrwt>0</asrwt>
<pdfrwt beam="1">  1       21 0.28794573E-02 0.12500000E+03</pdfrwt>
<pdfrwt beam="2">  1       21 0.32108697E-01 0.12500000E+03</pdfrwt>
<totfact> 0.62071374E+06</totfact>
</mgrwt>
</event>
<event>
 3    1  0.1615911E-001  0.1250000E+03  0.7546771E-02  0.1235069E+00
         21   -1    0    0  502  501  0.00000000000E+00  0.00000000000E+00  0.42127667086E+02  0.42127667086E+02  0.00000000000E+00 0. -1.
         21   -1    0    0  501  502 -0.00000000000E+00 -0.00000000000E+00 -0.92724099628E+02  0.92724099628E+02  0.00000000000E+00 0. -1.
         25    1    1    2    0    0  0.00000000000E+00  0.00000000000E+00 -0.50596432541E+02  0.13485176671E+03  0.12500000000E+03 0.  0.
<mgrwt>
<rscale>  0 0.12500000E+03</rscale>
<asrwt>0</asrwt>
<pdfrwt beam="1">  1       21 0.64811796E-02 0.12500000E+03</pdfrwt>
<pdfrwt beam="2">  1       21 0.14265246E-01 0.12500000E+03</pdfrwt>
<totfact> 0.72716105E+06</totfact>
</mgrwt>
</event>
<event>
 3    1  0.1615911E-001  0.1250000E+03  0.7546771E-02  0.1235069E+00
         21   -1    0    0  502  501  0.00000000000E+00  0.00000000000E+00  0.50415996782E+03  0.50415996782E+03  0.00000000000E+00 0. -1.
         21   -1    0    0  501  502 -0.00000000000E+00 -0.00000000000E+00 -0.77480368322E+01  0.77480368322E+01  0.00000000000E+00 0. -1.
         25    1    1    2    0    0  0.00000000000E+00  0.00000000000E+00  0.49641193099E+03  0.51190800465E+03  0.12500000000E+03 0.  0.
<mgrwt>
<rscale>  0 0.12500000E+03</rscale>
<asrwt>0</asrwt>
<pdfrwt beam="1">  1       21 0.77563046E-01 0.12500000E+03</pdfrwt>
<pdfrwt beam="2">  1       21 0.11920061E-02 0.12500000E+03</pdfrwt>
<totfact> 0.41405558E+06</totfact>
</mgrwt>
</event>
<event>
 3    1  0.1615911E-001  0.1250000E+03  0.7546771E-02  0.1235069E+00
         21   -1    0    0  502  501  0.00000000000E+00  0.00000000000E+00  0.23673550639E+02  0.23673550639E+02  0.00000000000E+00 0.  1.
         21   -1    0    0  501  502 -0.00000000000E+00 -0.00000000000E+00 -0.16500482161E+03  0.16500482161E+03  0.00000000000E+00 0.  1.
         25    1    1    2    0    0  0.00000000000E+00  0.00000000000E+00 -0.14133127097E+03  0.18867837225E+03  0.12500000000E+03 0.  0.
<mgrwt>
<rscale>  0 0.12500000E+03</rscale>
<asrwt>0</asrwt>
<pdfrwt beam="1">  1       21 0.36420848E-02 0.12500000E+03</pdfrwt>
<pdfrwt beam="2">  1       21 0.25385357E-01 0.12500000E+03</pdfrwt>
<totfact> 0.66169652E+06</totfact>
</mgrwt>
</event>
<event>
 3    1  0.1615911E-001  0.1250000E+03  0.7546771E-02  0.1235069E+00
         21   -1    0    0  502  501  0.00000000000E+00  0.00000000000E+00  0.56454915302E+02  0.56454915302E+02  0.00000000000E+00 0.  1.
         21   -1    0    0  501  502 -0.00000000000E+00 -0.00000000000E+00 -0.69192380842E+02  0.69192380842E+02  0.00000000000E+00 0.  1.
         25    1    1    2    0    0  0.00000000000E+00  0.00000000000E+00 -0.12737465540E+02  0.12564729614E+03  0.12500000000E+03 0.  0.
<mgrwt>
<rscale>  0 0.12500000E+03</rscale>
<asrwt>0</asrwt>
<pdfrwt beam="1">  1       21 0.86853716E-02 0.12500000E+03</pdfrwt>
<pdfrwt beam="2">  1       21 0.10644982E-01 0.12500000E+03</pdfrwt>
<totfact> 0.73954860E+06</totfact>
</mgrwt>
</event>
<event>
 3    1  0.1615911E-001  0.1250000E+03  0.7546771E-02  0.1235069E+00
         21   -1    0    0  502  501  0.00000000000E+00  0.00000000000E+00  0.85502525710E+02  0.85502525710E+02  0.00000000000E+00 0.  1.
         21   -1    0    0  501  502 -0.00000000000E+00 -0.00000000000E+00 -0.45685784923E+02  0.45685784923E+02  0.00000000000E+00 0.  1.
         25    1    1    2    0    0  0.00000000000E+00  0.00000000000E+00  0.39816740787E+02  0.13118831063E+03  0.12500000000E+03 0.  0.
<mgrwt>
<rscale>  0 0.12500000E+03</rscale>
<asrwt>0</asrwt>
<pdfrwt beam="1">  1       21 0.13154235E-01 0.12500000E+03</pdfrwt>
<pdfrwt beam="2">  1       21 0.70285823E-02 0.12500000E+03</pdfrwt>
<totfact> 0.73205306E+06</totfact>
</mgrwt>
</event>
<event>
 3    1  0.1615911E-001  0.1250000E+03  0.7546771E-02  0.1235069E+00
         21   -1    0    0  502  501  0.00000000000E+00  0.00000000000E+00  0.12111671206E+04  0.12111671206E+04  0.00000000000E+00 0.  1.
         21   -1    0    0  501  502 -0.00000000000E+00 -0.00000000000E+00 -0.32251948831E+01  0.32251948831E+01  0.00000000000E+00 0.  1.
         25    1    1    2    0    0  0.00000000000E+00  0.00000000000E+00  0.12079419257E+04  0.12143923155E+04  0.12500000000E+03 0.  0.
<mgrwt>
<rscale>  0 0.12500000E+03</rscale>
<asrwt>0</asrwt>
<pdfrwt beam="1">  1       21 0.18633304E+00 0.12500000E+03</pdfrwt>
<pdfrwt beam="2">  1       21 0.49618479E-03 0.12500000E+03</pdfrwt>
<totfact> 0.18858944E+06</totfact>
</mgrwt>
</event>
<event>
 3    1  0.1615911E-001  0.1250000E+03  0.7546771E-02  0.1235069E+00
         21   -1    0    0  502  501  0.00000000000E+00  0.00000000000E+00  0.54186938878E+02  0.54186938878E+02  0.00000000000E+00 0. -1.
         21   -1    0    0  501  502 -0.00000000000E+00 -0.00000000000E+00 -0.72088405082E+02  0.72088405082E+02  0.00000000000E+00 0. -1.
         25    1    1    2    0    0  0.00000000000E+00  0.00000000000E+00 -0.17901466203E+02  0.12627534396E+03  0.12500000000E+03 0.  0.
<mgrwt>
<rscale>  0 0.12500000E+03</rscale>
<asrwt>0</asrwt>
<pdfrwt beam="1">  1       21 0.83364522E-02 0.12500000E+03</pdfrwt>
<pdfrwt beam="2">  1       21 0.11090524E-01 0.12500000E+03</pdfrwt>
<totfact> 0.73868162E+06</totfact>
</mgrwt>
</event>
<event>
 3    1  0.1615911E-001  0.1250000E+03  0.7546771E-02  0.1235069E+00
         21   -1    0    0  502  501  0.00000000000E+00  0.00000000000E+00  0.12223930865E+03  0.12223930865E+03  0.00000000000E+00 0. -1.
         21   -1    0    0  501  502 -0.00000000000E+00 -0.00000000000E+00 -0.31955759921E+02  0.31955759921E+02  0.00000000000E+00 0. -1.
         25    1    1    2    0    0  0.00000000000E+00  0.00000000000E+00  0.90283548726E+02  0.15419506857E+03  0.12500000000E+03 0.  0.
<mgrwt>
<rscale>  0 0.12500000E+03</rscale>
<asrwt>0</asrwt>
<pdfrwt beam="1">  1       21 0.18806047E-01 0.12500000E+03</pdfrwt>
<pdfrwt beam="2">  1       21 0.49162708E-02 0.12500000E+03</pdfrwt>
<totfact> 0.70235840E+06</totfact>
</mgrwt>
</event>
<event>
 3    1  0.1615911E-001  0.1250000E+03  0.7546771E-02  0.1235069E+00
         21   -1    0    0  502  501  0.00000000000E+00  0.00000000000E+00  0.27098103455E+02  0.27098103455E+02  0.00000000000E+00 0.  1.
         21   -1    0    0  501  502 -0.00000000000E+00 -0.00000000000E+00 -0.14415215465E+03  0.14415215465E+03  0.00000000000E+00 0.  1.
         25    1    1    2    0    0  0.00000000000E+00  0.00000000000E+00 -0.11705405120E+03  0.17125025811E+03  0.12500000000E+03 0.  0.
<mgrwt>
<rscale>  0 0.12500000E+03</rscale>
<asrwt>0</asrwt>
<pdfrwt beam="1">  1       21 0.41689391E-02 0.12500000E+03</pdfrwt>
<pdfrwt beam="2">  1       21 0.22177254E-01 0.12500000E+03</pdfrwt>
<totfact> 0.68169733E+06</totfact>
</mgrwt>
</event>
<event>
 3    1  0.1615911E-001  0.1250000E+03  0.7546771E-02  0.1235069E+00
         21   -1    0    0  502  501  0.00000000000E+00  0.00000000000E+00  0.16716736733E+02  0.16716736733E+02  0.00000000000E+00 0. -1.
         21   -1    0    0  501  502 -0.00000000000E+00 -0.00000000000E+00 -0.23367299865E+03  0.23367299865E+03  0.00000000000E+00 0. -1.
         25    1    1    2    0    0  0.00000000000E+00  0.00000000000E+00 -0.21695626191E+03  0.25038973538E+03  0.12500000000E+03 0.  0.
<mgrwt>
<rscale>  0 0.12500000E+03</rscale>
<asrwt>0</asrwt>
<pdfrwt beam="1">  1       21 0.25718057E-02 0.12500000E+03</pdfrwt>
<pdfrwt beam="2">  1       21 0.35949691E-01 0.12500000E+03</pdfrwt>
<totfact> 0.59841516E+06</totfact>
</mgrwt>
</event>
<event>
 3    1  0.1615911E-001  0.1250000E+03  0.7546771E-02  0.1235069E+00
         21   -1    0    0  502  501  0.00000000000E+00  0.00000000000E+00  0.14176795160E+02  0.14176795160E+02  0.00000000000E+00 0. -1.
         21   -1    0    0  501  502 -0.00000000000E+00 -0.00000000000E+00 -0.27553829733E+03  0.27553829733E+03  0.00000000000E+00 0. -1.
         25    1    1    2    0    0  0.00000000000E+00  0.00000000000E+00 -0.26136150217E+03  0.28971509249E+03  0.12500000000E+03 0.  0.
<mgrwt>
<rscale>  0 0.12500000E+03</rscale>
<asrwt>0</asrwt>
<pdfrwt beam="1">  1       21 0.21810456E-02 0.12500000E+03</pdfrwt>
<pdfrwt beam="2">  1       21 0.42390503E-01 0.12500000E+03</pdfrwt>
<totfact> 0.56321871E+06</totfact>
</mgrwt>
</event>
<event>
 3    1  0.1615911E-001  0.1250000E+03  0.7546771E-02  0.1235069E+00
         21   -1    0    0  502  501  0.00000000000E+00  0.00000000000E+00  0.12742921632E+04  0.12742921632E+04  0.00000000000E+00 0. -1.
         21   -1    0    0  501  502 -0.00000000000E+00 -0.00000000000E+00 -0.30654273117E+01  0.30654273117E+01  0.00000000000E+00 0. -1.
         25    1    1    2    0    0  0.00000000000E+00  0.00000000000E+00  0.12712267358E+04  0.12773575905E+04  0.12500000000E+03 0.  0.
<mgrwt>
<rscale>  0 0.12500000E+03</rscale>
<asrwt>0</asrwt>
<pdfrwt beam="1">  1       21 0.19604452E+00 0.12500000E+03</pdfrwt>
<pdfrwt beam="2">  1       21 0.47160522E-03 0.12500000E+03</pdfrwt>
<totfact> 0.17663910E+06</totfact>
</mgrwt>
</event>
<event>
 3    1  0.1615911E-001  0.1250000E+03  0.7546771E-02  0.1235069E+00
         21   -1    0    0  502  501  0.00000000000E+00  0.00000000000E+00  0.28911060461E+03  0.28911060461E+03  0.00000000000E+00 0.  1.
         21   -1    0    0  501  502 -0.00000000000E+00 -0.00000000000E+00 -0.13511265024E+02  0.13511265024E+02  0.00000000000E+00 0.  1.
         25    1    1    2    0    0  0.00000000000E+00  0.00000000000E+00  0.27559933958E+03  0.30262186963E+03  0.12500000000E+03 0.  0.
<mgrwt>
<rscale>  0 0.12500000E+03</rscale>
<asrwt>0</asrwt>
<pdfrwt beam="1">  1       21 0.44478550E-01 0.12500000E+03</pdfrwt>
<pdfrwt beam="2">  1       21 0.20786564E-02 0.12500000E+03</pdfrwt>
<totfact> 0.55238990E+06</totfact>
</mgrwt>
</event>
<event>
 3    1  0.1615911E-001  0.1250000E+03  0.7546771E-02  0.1235069E+00
         21   -1    0    0  502  501  0.00000000000E+00  0.00000000000E+00  0.50462675102E+03  0.50462675102E+03  0.00000000000E+00 0.  1.
         21   -1    0    0  501  502 -0.00000000000E+00 -0.00000000000E+00 -0.77408698450E+01  0.77408698450E+01  0.00000000000E+00 0.  1.
         25    1    1    2    0    0  0.00000000000E+00  0.00000000000E+00  0.49688588118E+03  0.51236762087E+03  0.12500000000E+03 0.  0.
<mgrwt>
<rscale>  0 0.12500000E+03</rscale>
<asrwt>0</asrwt>
<pdfrwt beam="1">  1       21 0.77634859E-01 0.12500000E+03</pdfrwt>
<pdfrwt beam="2">  1       21 0.11909034E-02 0.12500000E+03</pdfrwt>
<totfact> 0.41381201E+06</totfact>
</mgrwt>
</event>
<event>
 3    1  0.1615911E-001  0.1250000E+03  0.7546771E-02  0.1235069E+00
         21   -1    0    0  502  501  0.00000000000E+00  0.00000000000E+00  0.16045094558E+02  0.16045094558E+02  0.00000000000E+00 0. -1.
         21   -1    0    0  501  502 -0.00000000000E+00 -0.00000000000E+00 -0.24345447051E+03  0.24345447051E+03  0.00000000000E+00 0. -1.
         25    1    1    2    0    0  0.00000000000E+00  0.00000000000E+00 -0.22740937595E+03  0.25949956507E+03  0.12500000000E+03 0.  0.
<mgrwt>
<rscale>  0 0.12500000E+03</rscale>
<asrwt>0</asrwt>
<pdfrwt beam="1">  1       21 0.24684762E-02 0.12500000E+03</pdfrwt>
<pdfrwt beam="2">  1       21 0.37454532E-01 0.12500000E+03</pdfrwt>
<totfact> 0.58995170E+06</totfact>
</mgrwt>
</event>
<event>
 3    1  0.1615911E-001  0.1250000E+03  0.7546771E-02  0.1235069E+00
         21   -1    0    0  502  501  0.00000000000E+00  0.00000000000E+00  0.24704249874E+03  0.24704249874E+03  0.00000000000E+00 0.  1.
         21   -1    0    0  501  502 -0.00000000000E+00 -0.00000000000E+00 -0.15812056711E+02  0.15812056711E+02  0.00000000000E+00 0.  1.
         25    1    1    2    0    0  0.00000000000E+00  0.00000000000E+00  0.23123044202E+03  0.26285455545E+03  0.12500000000E+03 0.  0.
<mgrwt>
<rscale>  0 0.12500000E+03</rscale>
<asrwt>0</asrwt>
<pdfrwt beam="1">  1       21 0.38006536E-01 0.12500000E+03</pdfrwt>
<pdfrwt beam="2">  1       21 0.24326243E-02 0.12500000E+03</pdfrwt>
<totfact> 0.58688621E+06</totfact>
</mgrwt>
</event>
<event>
 3    1  0.1615911E-001  0.1250000E+03  0.7546771E-02  0.1235069E+00
         21   -1    0    0  502  501  0.00000000000E+00  0.00000000000E+00  0.10005310399E+02  0.10005310399E+02  0.00000000000E+00 0. -1.
         21   -1    0    0  501  502 -0.00000000000E+00 -0.00000000000E+00 -0.39041767264E+03  0.39041767264E+03  0.00000000000E+00 0. -1.
         25    1    1    2    0    0  0.00000000000E+00  0.00000000000E+00 -0.38041236224E+03  0.40042298303E+03  0.12500000000E+03 0.  0.
<mgrwt>
<rscale>  0 0.12500000E+03</rscale>
<asrwt>0</asrwt>
<pdfrwt beam="1">  1       21 0.15392788E-02 0.12500000E+03</pdfrwt>
<pdfrwt beam="2">  1       21 0.60064245E-01 0.12500000E+03</pdfrwt>
<totfact> 0.48013312E+06</totfact>
</mgrwt>
</event>
<event>
 3    1  0.1615911E-001  0.1250000E+03  0.7546771E-02  0.1235069E+00
         21   -1    0    0  502  501  0.00000000000E+00  0.00000000000E+00  0.13774172280E+03  0.13774172280E+03  0.00000000000E+00 0. -1.
         21   -1    0    0  501  502 -0.00000000000E+00 -0.00000000000E+00 -0.28359235826E+02  0.28359235826E+02  0.00000000000E+00 0. -1.
         25    1    1    2    0    0  0.00000000000E+00  0.00000000000E+00  0.10938248697E+03  0.16610095863E+03  0.12500000000E+03 0.  0.
<mgrwt>
<rscale>  0 0.12500000E+03</rscale>
<asrwt>0</asrwt>
<pdfrwt beam="1">  1       21 0.21191034E-01 0.12500000E+03</pdfrwt>
<pdfrwt beam="2">  1       21 0.43629594E-02 0.12500000E+03</pdfrwt>
<totfact> 0.68781603E+06</totfact>
</mgrwt>
</event>
<event>
 3    1  0.1615911E-001  0.1250000E+03  0.7546771E-02  0.1235069E+00
         21   -1    0    0  502  501  0.00000000000E+00  0.00000000000E+00  0.43565900302E+03  0.43565900302E+03  0.00000000000E+00 0.  1.
         21   -1    0    0  501  502 -0.00000000000E+00 -0.00000000000E+00 -0.89663015637E+01  0.89663015637E+01  0.00000000000E+00 0.  1.
         25    1    1    2    0    0  0.00000000000E+00  0.00000000000E+00  0.42669270145E+03  0.44462530458E+03  0.12500000000E+03 0.  0.
<mgrwt>
<rscale>  0 0.12500000E+03</rscale>
<asrwt>0</asrwt>
<pdfrwt beam="1">  1       21 0.67024446E-01 0.12500000E+03</pdfrwt>
<pdfrwt beam="2">  1       21 0.13794313E-02 0.12500000E+03</pdfrwt>
<totfact> 0.45215640E+06</totfact>
</mgrwt>
</event>
<event>
 3    1  0.1615911E-001  0.1250000E+03  0.7546771E-02  0.1235069E+00
         21   -1    0    0  502  501  0.00000000000E+00  0.00000000000E+00  0.25859994321E+02  0.25859994321E+02  0.00000000000E+00 0. -1.
         21   -1    0    0  501  502 -0.00000000000E+00 -0.00000000000E+00 -0.15105378414E+03  0.15105378414E+03  0.00000000000E+00 0. -1.
         25    1    1    2    0    0  0.00000000000E+00  0.00000000000E+00 -0.12519378982E+03  0.17691377846E+03  0.12500000000E+03 0.  0.
<mgrwt>
<rscale>  0 0.12500000E+03</rscale>
<asrwt>0</asrwt>
<pdfrwt beam="1">  1       21 0.39784605E-02 0.12500000E+03</pdfrwt>
<pdfrwt beam="2">  1       21 0.23239044E-01 0.12500000E+03</pdfrwt>
<totfact> 0.67507353E+06</totfact>
</mgrwt>
</event>
<event>
 3    1  0.1615911E-001  0.1250000E+03  0.7546771E-02  0.1235069E+00
         21   -1    0    0  502  501  0.00000000000E+00  0.00000000000E+00  0.30757613091E+02  0.30757613091E+02  0.00000000000E+00 0. -1.
         21   -1    0    0  501  502 -0.00000000000E+00 -0.00000000000E+00 -0.12700107737E+03  0.12700107737E+03  0.00000000000E+00 0. -1.
         25    1    1    2    0    0  0.00000000000E+00  0.00000000000E+00 -0.96243464283E+02  0.15775869046E+03  0.12500000000E+03 0.  0.
<mgrwt>
<rscale>  0 0.12500000E+03</rscale>
<asrwt>0</asrwt>
<pdfrwt beam="1">  1       21 0.47319404E-02 0.12500000E+03</pdfrwt>
<pdfrwt beam="2">  1       21 0.19538628E-01 0.12500000E+03</pdfrwt>
<totfact> 0.69794401E+06</totfact>
</mgrwt>
</event>
<event>
 3    1  0.1615911E-001  0.1250000E+03  0.7546771E-02  0.1235069E+00
         21   -1    0    0  502  501  0.00000000000E+00  0.00000000000E+00  0.46832083589E+02  0.46832083589E+02  0.00000000000E+00 0. -1.
         21   -1    0    0  501  502 -0.00000000000E+00 -0.00000000000E+00 -0.83409699092E+02  0.83409699092E+02  0.00000000000E+00 0. -1.
         25    1    1    2    0    0  0.00000000000E+00  0.00000000000E+00 -0.36577615503E+02  0.13024178268E+03  0.12500000000E+03 0.  0.
<mgrwt>
<rscale>  0 0.12500000E+03</rscale>
<asrwt>0</asrwt>
<pdfrwt beam="1">  1       21 0.72049360E-02 0.12500000E+03</pdfrwt>
<pdfrwt beam="2">  1       21 0.12832261E-01 0.12500000E+03</pdfrwt>
<totfact> 0.73332618E+06</totfact>
</mgrwt>
</event>
<event>
 3    1  0.1615911E-001  0.1250000E+03  0.7546771E-02  0.1235069E+00
         21   -1    0    0  502  501  0.00000000000E+00  0.00000000000E+00  0.18899709075E+02  0.18899709075E+02  0.00000000000E+00 0. -1.
         21   -1    0    0  501  502 -0.00000000000E+00 -0.00000000000E+00 -0.20668307563E+03  0.20668307563E+03  0.00000000000E+00 0. -1.
         25    1    1    2    0    0  0.00000000000E+00  0.00000000000E+00 -0.18778336655E+03  0.22558278470E+03  0.12500000000E+03 0.  0.
<mgrwt>
<rscale>  0 0.12500000E+03</rscale>
<asrwt>0</asrwt>
<pdfrwt beam="1">  1       21 0.29076474E-02 0.12500000E+03</pdfrwt>
<pdfrwt beam="2">  1       21 0.31797397E-01 0.12500000E+03</pdfrwt>
<totfact> 0.62256333E+06</totfact>
</mgrwt>
</event>
<event>
 3    1  0.1615911E-001  0.1250000E+03  0.7546771E-02  0.1235069E+00
         21   -1    0    0  502  501  0.00000000000E+00  0.00000000000E+00  0.66588689795E+02  0.66588689795E+02  0.00000000000E+00 0.  1.
         21   -1    0    0  501  502 -0.00000000000E+00 -0.00000000000E+00 -0.58662364615E+02  0.58662364615E+02  0.00000000000E+00 0.  1.
         25    1    1    2    0    0  0.00000000000E+00  0.00000000000E+00  0.79263251802E+01  0.12525105441E+03  0.12500000000E+03 0.  0.
<mgrwt>
<rscale>  0 0.12500000E+03</rscale>
<asrwt>0</asrwt>
<pdfrwt beam="1">  1       21 0.10244414E-01 0.12500000E+03</pdfrwt>
<pdfrwt beam="2">  1       21 0.90249792E-02 0.12500000E+03</pdfrwt>
<totfact> 0.74009679E+06</totfact>
</mgrwt>
</event>
<event>
 3    1  0.1615911E-001  0.1250000E+03  0.7546771E-02  0.1235069E+00
         21   -1    0    0  502  501  0.00000000000E+00  0.00000000000E+00  0.24619142434E+01  0.24619142434E+01  0.00000000000E+00 0. -1.
         21   -1    0    0  501  502 -0.00000000000E+00 -0.00000000000E+00 -0.15866718390E+04  0.15866718390E+04  0.00000000000E+00 0. -1.
         25    1    1    2    0    0  0.00000000000E+00  0.00000000000E+00 -0.15842099247E+04  0.15891337532E+04  0.12500000000E+03 0.  0.
<mgrwt>
<rscale>  0 0.12500000E+03</rscale>
<asrwt>0</asrwt>
<pdfrwt beam="1">  1       21 0.37875745E-03 0.12500000E+03</pdfrwt>
<pdfrwt beam="2">  1       21 0.24410245E+00 0.12500000E+03</pdfrwt>
<totfact> 0.12721972E+06</totfact>
</mgrwt>
</event>
<event>
 3    1  0.1615911E-001  0.1250000E+03  0.7546771E-02  0.1235069E+00
         21   -1    0    0  502  501  0.00000000000E+00  0.00000000000E+00  0.41119693412E+03  0.41119693412E+03  0.00000000000E+00 0.  1.
         21   -1    0    0  501  502 -0.00000000000E+00 -0.00000000000E+00 -0.94997060431E+01  0.94997060431E+01  0.00000000000E+00 0.  1.
         25    1    1    2    0    0  0.00000000000E+00  0.00000000000E+00  0.40169722808E+03  0.42069664016E+03  0.12500000000E+03 0.  0.
<mgrwt>
<rscale>  0 0.12500000E+03</rscale>
<asrwt>0</asrwt>
<pdfrwt beam="1">  1       21 0.63261053E-01 0.12500000E+03</pdfrwt>
<pdfrwt beam="2">  1       21 0.14614936E-02 0.12500000E+03</pdfrwt>
<totfact> 0.46698200E+06</totfact>
</mgrwt>
</event>
<event>
 3    1  0.1615911E-001  0.1250000E+03  0.7546771E-02  0.1235069E+00
         21   -1    0    0  502  501  0.00000000000E+00  0.00000000000E+00  0.20103932585E+03  0.20103932585E+03  0.00000000000E+00 0.  1.
         21   -1    0    0  501  502 -0.00000000000E+00 -0.00000000000E+00 -0.19430278049E+02  0.19430278049E+02  0.00000000000E+00 0.  1.
         25    1    1    2    0    0  0.00000000000E+00  0.00000000000E+00  0.18160904780E+03  0.22046960390E+03  0.12500000000E+03 0.  0.
<mgrwt>
<rscale>  0 0.12500000E+03</rscale>
<asrwt>0</asrwt>
<pdfrwt beam="1">  1       21 0.30929126E-01 0.12500000E+03</pdfrwt>
<pdfrwt beam="2">  1       21 0.29892737E-02 0.12500000E+03</pdfrwt>
<totfact> 0.62774568E+06</totfact>
</mgrwt>
</event>
<event>
 3    1  0.1615911E-001  0.1250000E+03  0.7546771E-02  0.1235069E+00
         21   -1    0    0  502  501  0.00000000000E+00  0.00000000000E+00  0.20857241488E+03  0.20857241488E+03  0.00000000000E+00 0.  1.
         21   -1    0    0  501  502 -0.00000000000E+00 -0.00000000000E+00 -0.18728507326E+02  0.18728507326E+02  0.00000000000E+00 0.  1.
         25    1    1    2    0    0  0.00000000000E+00  0.00000000000E+00  0.18984390755E+03  0.22730092220E+03  0.12500000000E+03 0.  0.
<mgrwt>
<rscale>  0 0.12500000E+03</rscale>
<asrwt>0</asrwt>
<pdfrwt beam="1">  1       21 0.32088062E-01 0.12500000E+03</pdfrwt>
<pdfrwt beam="2">  1       21 0.28813090E-02 0.12500000E+03</pdfrwt>
<totfact> 0.62083615E+06</totfact>
</mgrwt>
</event>
<event>
 3    1  0.1615911E-001  0.1250000E+03  0.7546771E-02  0.1235069E+00
         21   -1    0    0  502  501  0.00000000000E+00  0.00000000000E+00  0.76017543636E+02  0.76017543636E+02  0.00000000000E+00 0.  1.
         21   -1    0    0  501  502 -0.00000000000E+00 -0.00000000000E+00 -0.51386164472E+02  0.51386164472E+02  0.00000000000E+00 0.  1.
         25    1    1    2    0    0  0.00000000000E+00  0.00000000000E+00  0.24631379164E+02  0.12740370811E+03  0.12500000000E+03 0.  0.
<mgrwt>
<rscale>  0 0.12500000E+03</rscale>
<asrwt>0</asrwt>
<pdfrwt beam="1">  1       21 0.11695007E-01 0.12500000E+03</pdfrwt>
<pdfrwt beam="2">  1       21 0.79055637E-02 0.12500000E+03</pdfrwt>
<totfact> 0.73714276E+06</totfact>
</mgrwt>
</event>
<event>
 3    1  0.1615911E-001  0.1250000E+03  0.7546771E-02  0.1235069E+00
         21   -1    0    0  502  501  0.00000000000E+00  0.00000000000E+00  0.16411574420E+03  0.16411574420E+03  0.00000000000E+00 0.  1.
         21   -1    0    0  501  502 -0.00000000000E+00 -0.00000000000E+00 -0.23801799267E+02  0.23801799267E+02  0.00000000000E+00 0.  1.
         25    1    1    2    0    0  0.00000000000E+00  0.00000000000E+00  0.14031394493E+03  0.18791754347E+03  0.12500000000E+03 0.  0.
<mgrwt>
<rscale>  0 0.12500000E+03</rscale>
<asrwt>0</asrwt>
<pdfrwt beam="1">  1       21 0.25248575E-01 0.12500000E+03</pdfrwt>
<pdfrwt beam="2">  1       21 0.36618154E-02 0.12500000E+03</pdfrwt>
<totfact> 0.66254661E+06</totfact>
</mgrwt>
</event>
<event>
 3    1  0.1615911E-001  0.1250000E+03  0.7546771E-02  0.1235069E+00
         21   -1    0    0  502  501  0.00000000000E+00  0.00000000000E+00  0.53258363549E+03  0.53258363549E+03  0.00000000000E+00 0.  1.
         21   -1    0    0  501  502 -0.00000000000E+00 -0.00000000000E+00 -0.73345287757E+01  0.73345287757E+01  0.00000000000E+00 0.  1.
         25    1    1    2    0    0  0.00000000000E+00  0.00000000000E+00  0.52524910672E+03  0.53991816427E+03  0.12500000000E+03 0.  0.
<mgrwt>
<rscale>  0 0.12500000E+03</rscale>
<asrwt>0</asrwt>
<pdfrwt beam="1">  1       21 0.81935914E-01 0.12500000E+03</pdfrwt>
<pdfrwt beam="2">  1       21 0.11283895E-02 0.12500000E+03</pdfrwt>
<totfact> 0.39958799E+06</totfact>
</mgrwt>
</event>
<event>
 3    1  0.1615911E-001  0.1250000E+03  0.7546771E-02  0.1235069E+00
         21   -1    0    0  502  501  0.00000000000E+00  0.00000000000E+00  0.47410469682E+01  0.47410469682E+01  0.00000000000E+00 0.  1.
         21   -1    0    0  501  502 -0.00000000000E+00 -0.00000000000E+00 -0.82392138828E+03  0.82392138828E+03  0.00000000000E+00 0.  1.
         25    1    1    2    0    0  0.00000000000E+00  0.00000000000E+00 -0.81918034132E+03  0.82866243525E+03  0.12500000000E+03 0.  0.
<mgrwt>
<rscale>  0 0.12500000E+03</rscale>
<asrwt>0</asrwt>
<pdfrwt beam="1">  1       21 0.72939235E-03 0.12500000E+03</pdfrwt>
<pdfrwt beam="2">  1       21 0.12675705E+00 0.12500000E+03</pdfrwt>
<totfact> 0.28434946E+06</totfact>
</mgrwt>
</event>
<event>
 3    1  0.1615911E-001  0.1250000E+03  0.7546771E-02  0.1235069E+00
         21   -1    0    0  502  501  0.00000000000E+00  0.00000000000E+00  0.19905399142E+02  0.19905399142E+02  0.00000000000E+00 0.  1.
         21   -1    0    0  501  502 -0.00000000000E+00 -0.00000000000E+00 -0.19624072705E+03  0.19624072705E+03  0.00000000000E+00 0.  1.
         25    1    1    2    0    0  0.00000000000E+00  0.00000000000E+00 -0.17633532791E+03  0.21614612620E+03  0.12500000000E+03 0.  0.
<mgrwt>
<rscale>  0 0.12500000E+03</rscale>
<asrwt>0</asrwt>
<pdfrwt beam="1">  1       21 0.30623692E-02 0.12500000E+03</pdfrwt>
<pdfrwt beam="2">  1       21 0.30190880E-01 0.12500000E+03</pdfrwt>
<totfact> 0.63218638E+06</totfact>
</mgrwt>
</event>
<event>
 3    1  0.1615911E-001  0.1250000E+03  0.7546771E-02  0.1235069E+00
         21   -1    0    0  502  501  0.00000000000E+00  0.00000000000E+00  0.10825012193E+02  0.10825012193E+02  0.00000000000E+00 0.  1.
         21   -1    0    0  501  502 -0.00000000000E+00 -0.00000000000E+00 -0.36085409701E+03  0.36085409701E+03  0.00000000000E+00 0.  1.
         25    1    1    2    0    0  0.00000000000E+00  0.00000000000E+00 -0.35002908481E+03  0.37167910920E+03  0.12500000000E+03 0.  0.
<mgrwt>
<rscale>  0 0.12500000E+03</rscale>
<asrwt>0</asrwt>
<pdfrwt beam="1">  1       21 0.16653863E-02 0.12500000E+03</pdfrwt>
<pdfrwt beam="2">  1       21 0.55516020E-01 0.12500000E+03</pdfrwt>
<totfact> 0.49976144E+06</totfact>
</mgrwt>
</event>
<event>
 3    1  0.1615911E-001  0.1250000E+03  0.7546771E-02  0.1235069E+00
         21   -1    0    0  502  501  0.00000000000E+00  0.00000000000E+00  0.42560776816E+02  0.42560776816E+02  0.00000000000E+00 0. -1.
         21   -1    0    0  501  502 -0.00000000000E+00 -0.00000000000E+00 -0.91780514649E+02  0.91780514649E+02  0.00000000000E+00 0. -1.
         25    1    1    2    0    0  0.00000000000E+00  0.00000000000E+00 -0.49219737833E+02  0.13434129146E+03  0.12500000000E+03 0.  0.
<mgrwt>
<rscale>  0 0.12500000E+03</rscale>
<asrwt>0</asrwt>
<pdfrwt beam="1">  1       21 0.65478118E-02 0.12500000E+03</pdfrwt>
<pdfrwt beam="2">  1       21 0.14120079E-01 0.12500000E+03</pdfrwt>
<totfact> 0.72783808E+06</totfact>
</mgrwt>
</event>
<event>
 3    1  0.1615911E-001  0.1250000E+03  0.7546771E-02  0.1235069E+00
         21   -1    0    0  502  501  0.00000000000E+00  0.00000000000E+00  0.91150790956E+01  0.91150790956E+01  0.00000000000E+00 0.  1.
         21   -1    0    0  501  502 -0.00000000000E+00 -0.00000000000E+00 -0.42854811889E+03  0.42854811889E+03  0.00000000000E+00 0.  1.
         25    1    1    2    0    0  0.00000000000E+00  0.00000000000E+00 -0.41943303980E+03  0.43766319799E+03  0.12500000000E+03 0.  0.
<mgrwt>
<rscale>  0 0.12500000E+03</rscale>
<asrwt>0</asrwt>
<pdfrwt beam="1">  1       21 0.14023202E-02 0.12500000E+03</pdfrwt>
<pdfrwt beam="2">  1       21 0.65930465E-01 0.12500000E+03</pdfrwt>
<totfact> 0.45639565E+06</totfact>
</mgrwt>
</event>
<event>
 3    1  0.1615911E-001  0.1250000E+03  0.7546771E-02  0.1235069E+00
         21   -1    0    0  502  501  0.00000000000E+00  0.00000000000E+00  0.95883015181E+03  0.95883015181E+03  0.00000000000E+00 0.  1.
         21   -1    0    0  501  502 -0.00000000000E+00 -0.00000000000E+00 -0.40739749294E+01  0.40739749294E+01  0.00000000000E+00 0.  1.
         25    1    1    2    0    0  0.00000000000E+00  0.00000000000E+00  0.95475617689E+03  0.96290412674E+03  0.12500000000E+03 0.  0.
<mgrwt>
<rscale>  0 0.12500000E+03</rscale>
<asrwt>0</asrwt>
<pdfrwt beam="1">  1       21 0.14751215E+00 0.12500000E+03</pdfrwt>
<pdfrwt beam="2">  1       21 0.62676613E-03 0.12500000E+03</pdfrwt>
<totfact> 0.24569097E+06</totfact>
</mgrwt>
</event>
<event>
 3    1  0.1615911E-001  0.1250000E+03  0.7546771E-02  0.1235069E+00
         21   -1    0    0  502  501  0.00000000000E+00  0.00000000000E+00  0.20507855371E+02  0.20507855371E+02  0.00000000000E+00 0.  1.
         21   -1    0    0  501  502 -0.00000000000E+00 -0.00000000000E+00 -0.19047579229E+03  0.19047579229E+03  0.00000000000E+00 0.  1.
         25    1    1    2    0    0  0.00000000000E+00  0.00000000000E+00 -0.16996793692E+03  0.21098364766E+03  0.12500000000E+03 0.  0.
<mgrwt>
<rscale>  0 0.12500000E+03</rscale>
<asrwt>0</asrwt>
<pdfrwt beam="1">  1       21 0.31550545E-02 0.12500000E+03</pdfrwt>
<pdfrwt beam="2">  1       21 0.29303970E-01 0.12500000E+03</pdfrwt>
<totfact> 0.63756192E+06</totfact>
</mgrwt>
</event>
<event>
 3    1  0.1615911E-001  0.1250000E+03  0.7546771E-02  0.1235069E+00
         21   -1    0    0  502  501  0.00000000000E+00  0.00000000000E+00  0.34917014483E+02  0.34917014483E+02  0.00000000000E+00 0.  1.
         21   -1    0    0  501  502 -0.00000000000E+00 -0.00000000000E+00 -0.11187239396E+03  0.11187239396E+03  0.00000000000E+00 0.  1.
         25    1    1    2    0    0  0.00000000000E+00  0.00000000000E+00 -0.76955379475E+02  0.14678940844E+03  0.12500000000E+03 0.  0.
<mgrwt>
<rscale>  0 0.12500000E+03</rscale>
<asrwt>0</asrwt>
<pdfrwt beam="1">  1       21 0.53718485E-02 0.12500000E+03</pdfrwt>
<pdfrwt beam="2">  1       21 0.17211137E-01 0.12500000E+03</pdfrwt>
<totfact> 0.71164879E+06</totfact>
</mgrwt>
</event>
<event>
 3    1  0.1615911E-001  0.1250000E+03  0.7546771E-02  0.1235069E+00
         21   -1    0    0  502  501  0.00000000000E+00  0.00000000000E+00  0.40274078641E+03  0.40274078641E+03  0.00000000000E+00 0.  1.
         21   -1    0    0  501  502 -0.00000000000E+00 -0.00000000000E+00 -0.96991666396E+01  0.96991666396E+01  0.00000000000E+00 0.  1.
         25    1    1    2    0    0  0.00000000000E+00  0.00000000000E+00  0.39304161977E+03  0.41243995305E+03  0.12500000000E+03 0.  0.
<mgrwt>
<rscale>  0 0.12500000E+03</rscale>
<asrwt>0</asrwt>
<pdfrwt beam="1">  1       21 0.61960108E-01 0.12500000E+03</pdfrwt>
<pdfrwt beam="2">  1       21 0.14921798E-02 0.12500000E+03</pdfrwt>
<totfact> 0.47227027E+06</totfact>
</mgrwt>
</event>
<event>
 3    1  0.1615911E-001  0.1250000E+03  0.7546771E-02  0.1235069E+00
         21   -1    0    0  502  501  0.00000000000E+00  0.00000000000E+00  0.52458421670E+02  0.52458421670E+02  0.00000000000E+00 0.  1.
         21   -1    0    0  501  502 -0.00000000000E+00 -0.00000000000E+00 -0.74463734815E+02  0.74463734815E+02  0.00000000000E+00 0.  1.
         25    1    1    2    0    0  0.00000000000E+00  0.00000000000E+00 -0.22005313145E+02  0.12692215648E+03  0.12500000000E+03 0.  0.
<mgrwt>
<rscale>  0 0.12500000E+03</rscale>
<asrwt>0</asrwt>
<pdfrwt beam="1">  1       21 0.80705265E-02 0.12500000E+03</pdfrwt>
<pdfrwt beam="2">  1       21 0.11455959E-01 0.12500000E+03</pdfrwt>
<totfact> 0.73779737E+06</totfact>
</mgrwt>
</event>
<event>
 3    1  0.1615911E-001  0.1250000E+03  0.7546771E-02  0.1235069E+00
         21   -1    0    0  502  501  0.00000000000E+00  0.00000000000E+00  0.31465836516E+01  0.31465836516E+01  0.00000000000E+00 0. -1.
         21   -1    0    0  501  502 -0.00000000000E+00 -0.00000000000E+00 -0.12414257597E+04  0.12414257597E+04  0.00000000000E+00 0. -1.
         25    1    1    2    0    0  0.00000000000E+00  0.00000000000E+00 -0.12382791760E+04  0.12445723433E+04  0.12500000000E+03 0.  0.
<mgrwt>
<rscale>  0 0.12500000E+03</rscale>
<asrwt>0</asrwt>
<pdfrwt beam="1">  1       21 0.48408999E-03 0.12500000E+03</pdfrwt>
<pdfrwt beam="2">  1       21 0.19098850E+00 0.12500000E+03</pdfrwt>
<totfact> 0.18277177E+06</totfact>
</mgrwt>
</event>
<event>
 3    1  0.1615911E-001  0.1250000E+03  0.7546771E-02  0.1235069E+00
         21   -1    0    0  502  501  0.00000000000E+00  0.00000000000E+00  0.10838778997E+03  0.10838778997E+03  0.00000000000E+00 0.  1.
         21   -1    0    0  501  502 -0.00000000000E+00 -0.00000000000E+00 -0.36039576054E+02  0.36039576054E+02  0.00000000000E+00 0.  1.
         25    1    1    2    0    0  0.00000000000E+00  0.00000000000E+00  0.72348213917E+02  0.14442736603E+03  0.12500000000E+03 0.  0.
<mgrwt>
<rscale>  0 0.12500000E+03</rscale>
<asrwt>0</asrwt>
<pdfrwt beam="1">  1       21 0.16675044E-01 0.12500000E+03</pdfrwt>
<pdfrwt beam="2">  1       21 0.55445502E-02 0.12500000E+03</pdfrwt>
<totfact> 0.71466462E+06</totfact>
</mgrwt>
</event>
<event>
 3    1  0.1615911E-001  0.1250000E+03  0.7546771E-02  0.1235069E+00
         21   -1    0    0  502  501  0.00000000000E+00  0.00000000000E+00  0.61280070927E+02  0.61280070927E+02  0.00000000000E+00 0.  1.
         21   -1    0    0  501  502 -0.00000000000E+00 -0.00000000000E+00 -0.63744214732E+02  0.63744214732E+02  0.00000000000E+00 0.  1.
         25    1    1    2    0    0  0.00000000000E+00  0.00000000000E+00 -0.24641438052E+01  0.12502428566E+03  0.12500000000E+03 0.  0.
<mgrwt>
<rscale>  0 0.12500000E+03</rscale>
<asrwt>0</asrwt>
<pdfrwt beam="1">  1       21 0.94277032E-02 0.12500000E+03</pdfrwt>
<pdfrwt beam="2">  1       21 0.98068023E-02 0.12500000E+03</pdfrwt>
<totfact> 0.74040301E+06</totfact>
</mgrwt>
</event>
<event>
 3    1  0.1615911E-001  0.1250000E+03  0.7546771E-02  0.1235069E+00
         21   -1    0    0  502  501  0.00000000000E+00  0.00000000000E+00  0.60901584027E+02  0.60901584027E+02  0.00000000000E+00 0.  1.
         21   -1    0    0  501  502 -0.00000000000E+00 -0.00000000000E+00 -0.64140367815E+02  0.64140367815E+02  0.00000000000E+00 0.  1.
         25    1    1    2    0    0  0.00000000000E+00  0.00000000000E+00 -0.32387837885E+01  0.12504195184E+03  0.12500000000E+03 0.  0.
<mgrwt>
<rscale>  0 0.12500000E+03</rscale>
<asrwt>0</asrwt>
<pdfrwt beam="1">  1       21 0.93694744E-02 0.12500000E+03</pdfrwt>
<pdfrwt beam="2">  1       21 0.98677489E-02 0.12500000E+03</pdfrwt>
<totfact> 0.74037915E+06</totfact>
</mgrwt>
</event>
<event>
 3    1  0.1615911E-001  0.1250000E+03  0.7546771E-02  0.1235069E+00
         21   -1    0    0  502  501  0.00000000000E+00  0.00000000000E+00  0.60060125910E+02  0.60060125910E+02  0.00000000000E+00 0. -1.
         21   -1    0    0  501  502 -0.00000000000E+00 -0.00000000000E+00 -0.65038991192E+02  0.65038991192E+02  0.00000000000E+00 0. -1.
         25    1    1    2    0    0  0.00000000000E+00  0.00000000000E+00 -0.49788652822E+01  0.12509911710E+03  0.12500000000E+03 0.  0.
<mgrwt>
<rscale>  0 0.12500000E+03</rscale>
<asrwt>0</asrwt>
<pdfrwt beam="1">  1       21 0.92400194E-02 0.12500000E+03</pdfrwt>
<pdfrwt beam="2">  1       21 0.10005999E-01 0.12500000E+03</pdfrwt>
<totfact> 0.74030195E+06</totfact>
</mgrwt>
</event>
<event>
 3    1  0.1615911E-001  0.1250000E+03  0.7546771E-02  0.1235069E+00
         21   -1    0    0  502  501  0.00000000000E+00  0.00000000000E+00  0.30176627337E+02  0.30176627337E+02  0.00000000000E+00 0. -1.
         21   -1    0    0  501  502 -0.00000000000E+00 -0.00000000000E+00 -0.12944620870E+03  0.12944620870E+03  0.00000000000E+00 0. -1.
         25    1    1    2    0    0  0.00000000000E+00  0.00000000000E+00 -0.99269581361E+02  0.15962283603E+03  0.12500000000E+03 0.  0.
<mgrwt>
<rscale>  0 0.12500000E+03</rscale>
<asrwt>0</asrwt>
<pdfrwt beam="1">  1       21 0.46425582E-02 0.12500000E+03</pdfrwt>
<pdfrwt beam="2">  1       21 0.19914801E-01 0.12500000E+03</pdfrwt>
<totfact> 0.69565611E+06</totfact>
</mgrwt>
</event>
<event>
 3    1  0.1615911E-001  0.1250000E+03  0.7546771E-02  0.1235069E+00
         21   -1    0    0  502  501  0.00000000000E+00  0.00000000000E+00  0.11773743432E+02  0.11773743432E+02  0.00000000000E+00 0. -1.
         21   -1    0    0  501  502 -0.00000000000E+00 -0.00000000000E+00 -0.33177638214E+03  0.33177638214E+03  0.00000000000E+00 0. -1.
         25    1    1    2    0    0  0.00000000000E+00  0.00000000000E+00 -0.32000263871E+03  0.34355012557E+03  0.12500000000E+03 0.  0.
<mgrwt>
<rscale>  0 0.12500000E+03</rscale>
<asrwt>0</asrwt>
<pdfrwt beam="1">  1       21 0.18113450E-02 0.12500000E+03</pdfrwt>
<pdfrwt beam="2">  1       21 0.51042523E-01 0.12500000E+03</pdfrwt>
<totfact> 0.52018327E+06</totfact>
</mgrwt>
</event>
<event>
 3    1  0.1615911E-001  0.1250000E+03  0.7546771E-02  0.1235069E+00
         21   -1    0    0  502  501  0.00000000000E+00  0.00000000000E+00  0.19900673030E+02  0.19900673030E+02  0.00000000000E+00 0. -1.
         21   -1    0    0  501  502 -0.00000000000E+00 -0.00000000000E+00 -0.19628733129E+03  0.19628733129E+03  0.00000000000E+00 0. -1.
         25    1    1    2    0    0  0.00000000000E+00  0.00000000000E+00 -0.17638665826E+03  0.21618800432E+03  0.12500000000E+03 0.  0.
<mgrwt>
<rscale>  0 0.12500000E+03</rscale>
<asrwt>0</asrwt>
<pdfrwt beam="1">  1       21 0.30616421E-02 0.12500000E+03</pdfrwt>
<pdfrwt beam="2">  1       21 0.30198050E-01 0.12500000E+03</pdfrwt>
<totfact> 0.63214311E+06</totfact>
</mgrwt>
</event>
<event>
 3    1  0.1615911E-001  0.1250000E+03  0.7546771E-02  0.1235069E+00
         21   -1    0    0  502  501  0.00000000000E+00  0.00000000000E+00  0.27805714659E+02  0.27805714659E+02  0.00000000000E+00 0. -1.
         21   -1    0    0  501  502 -0.00000000000E+00 -0.00000000000E+00 -0.14048371164E+03  0.14048371164E+03  0.00000000000E+00 0. -1.
         25    1    1    2    0    0  0.00000000000E+00  0.00000000000E+00 -0.11267799698E+03  0.16828942630E+03  0.12500000000E+03 0.  0.
<mgrwt>
<rscale>  0 0.12500000E+03</rscale>
<asrwt>0</asrwt>
<pdfrwt beam="1">  1       21 0.42778023E-02 0.12500000E+03</pdfrwt>
<pdfrwt beam="2">  1       21 0.21612878E-01 0.12500000E+03</pdfrwt>
<totfact> 0.68520535E+06</totfact>
</mgrwt>
</event>
<event>
 3    1  0.1615911E-001  0.1250000E+03  0.7546771E-02  0.1235069E+00
         21   -1    0    0  502  501  0.00000000000E+00  0.00000000000E+00  0.34025090238E+03  0.34025090238E+03  0.00000000000E+00 0. -1.
         21   -1    0    0  501  502 -0.00000000000E+00 -0.00000000000E+00 -0.11480498575E+02  0.11480498575E+02  0.00000000000E+00 0. -1.
         25    1    1    2    0    0  0.00000000000E+00  0.00000000000E+00  0.32877040381E+03  0.35173140096E+03  0.12500000000E+03 0.  0.
<mgrwt>
<rscale>  0 0.12500000E+03</rscale>
<asrwt>0</asrwt>
<pdfrwt beam="1">  1       21 0.52346285E-01 0.12500000E+03</pdfrwt>
<pdfrwt beam="2">  1       21 0.17662308E-02 0.12500000E+03</pdfrwt>
<totfact> 0.51410820E+06</totfact>
</mgrwt>
</event>
<event>
 3    1  0.1615911E-001  0.1250000E+03  0.7546771E-02  0.1235069E+00
         21   -1    0    0  502  501  0.00000000000E+00  0.00000000000E+00  0.16944593500E+03  0.16944593500E+03  0.00000000000E+00 0. -1.
         21   -1    0    0  501  502 -0.00000000000E+00 -0.00000000000E+00 -0.23053075897E+02  0.23053075897E+02  0.00000000000E+00 0. -1.
         25    1    1    2    0    0  0.00000000000E+00  0.00000000000E+00  0.14639285910E+03  0.19249901089E+03  0.12500000000E+03 0.  0.
<mgrwt>
<rscale>  0 0.12500000E+03</rscale>
<asrwt>0</asrwt>
<pdfrwt beam="1">  1       21 0.26068605E-01 0.12500000E+03</pdfrwt>
<pdfrwt beam="2">  1       21 0.35466272E-02 0.12500000E+03</pdfrwt>
<totfact> 0.65745794E+06</totfact>
</mgrwt>
</event>
<event>
 3    1  0.1615911E-001  0.1250000E+03  0.7546771E-02  0.1235069E+00
         21   -1    0    0  502  501  0.00000000000E+00  0.00000000000E+00  0.23539084925E+03  0.23539084925E+03  0.00000000000E+00 0. -1.
         21   -1    0    0  501  502 -0.00000000000E+00 -0.00000000000E+00 -0.16594740248E+02  0.16594740248E+02  0.00000000000E+00 0. -1.
         25    1    1    2    0    0  0.00000000000E+00  0.00000000000E+00  0.21879610900E+03  0.25198558949E+03  0.12500000000E+03 0.  0.
<mgrwt>
<rscale>  0 0.12500000E+03</rscale>
<asrwt>0</asrwt>
<pdfrwt beam="1">  1       21 0.36213974E-01 0.12500000E+03</pdfrwt>
<pdfrwt beam="2">  1       21 0.25530371E-02 0.12500000E+03</pdfrwt>
<totfact> 0.59691752E+06</totfact>
</mgrwt>
</event>
<event>
 3    1  0.1615911E-001  0.1250000E+03  0.7546771E-02  0.1235069E+00
         21   -1    0    0  502  501  0.00000000000E+00  0.00000000000E+00  0.61906109050E+01  0.61906109050E+01  0.00000000000E+00 0.  1.
         21   -1    0    0  501  502 -0.00000000000E+00 -0.00000000000E+00 -0.63099588392E+03  0.63099588392E+03  0.00000000000E+00 0.  1.
         25    1    1    2    0    0  0.00000000000E+00  0.00000000000E+00 -0.62480527301E+03  0.63718649482E+03  0.12500000000E+03 0.  0.
<mgrwt>
<rscale>  0 0.12500000E+03</rscale>
<asrwt>0</asrwt>
<pdfrwt beam="1">  1       21 0.95240214E-03 0.12500000E+03</pdfrwt>
<pdfrwt beam="2">  1       21 0.97076243E-01 0.12500000E+03</pdfrwt>
<totfact> 0.35463130E+06</totfact>
</mgrwt>
</event>
<event>
 3    1  0.1615911E-001  0.1250000E+03  0.7546771E-02  0.1235069E+00
         21   -1    0    0  502  501  0.00000000000E+00  0.00000000000E+00  0.42895243848E+03  0.42895243848E+03  0.00000000000E+00 0.  1.
         21   -1    0    0  501  502 -0.00000000000E+00 -0.00000000000E+00 -0.91064874554E+01  0.91064874554E+01  0.00000000000E+00 0.  1.
         25    1    1    2    0    0  0.00000000000E+00  0.00000000000E+00  0.41984595103E+03  0.43805892594E+03  0.12500000000E+03 0.  0.
<mgrwt>
<rscale>  0 0.12500000E+03</rscale>
<asrwt>0</asrwt>
<pdfrwt beam="1">  1       21 0.65992667E-01 0.12500000E+03</pdfrwt>
<pdfrwt beam="2">  1       21 0.14009984E-02 0.12500000E+03</pdfrwt>
<totfact> 0.45615312E+06</totfact>
</mgrwt>
</event>
<event>
 3    1  0.1615911E-001  0.1250000E+03  0.7546771E-02  0.1235069E+00
         21   -1    0    0  502  501  0.00000000000E+00  0.00000000000E+00  0.10870191469E+03  0.10870191469E+03  0.00000000000E+00 0.  1.
         21   -1    0    0  501  502 -0.00000000000E+00 -0.00000000000E+00 -0.35935429576E+02  0.35935429576E+02  0.00000000000E+00 0.  1.
         25    1    1    2    0    0  0.00000000000E+00  0.00000000000E+00  0.72766485109E+02  0.14463734426E+03  0.12500000000E+03 0.  0.
<mgrwt>
<rscale>  0 0.12500000E+03</rscale>
<asrwt>0</asrwt>
<pdfrwt beam="1">  1       21 0.16723371E-01 0.12500000E+03</pdfrwt>
<pdfrwt beam="2">  1       21 0.55285277E-02 0.12500000E+03</pdfrwt>
<totfact> 0.71439542E+06</totfact>
</mgrwt>
</event>
<event>
 3    1  0.1615911E-001  0.1250000E+03  0.7546771E-02  0.1235069E+00
         21   -1    0    0  502  501  0.00000000000E+00  0.00000000000E+00  0.73551816853E+02  0.73551816853E+02  0.00000000000E+00 0.  1.
         21   -1    0    0  501  502 -0.00000000000E+00 -0.00000000000E+00 -0.53108817255E+02  0.53108817255E+02  0.00000000000E+00 0.  1.
         25    1    1    2    0    0  0.00000000000E+00  0.00000000000E+00  0.20442999598E+02  0.12666063411E+03  0.12500000000E+03 0.  0.
<mgrwt>
<rscale>  0 0.12500000E+03</rscale>
<asrwt>0</asrwt>
<pdfrwt beam="1">  1       21 0.11315664E-01 0.12500000E+03</pdfrwt>
<pdfrwt beam="2">  1       21 0.81705873E-02 0.12500000E+03</pdfrwt>
<totfact> 0.73815411E+06</totfact>
</mgrwt>
</event>
<event>
 3    1  0.1615911E-001  0.1250000E+03  0.7546771E-02  0.1235069E+00
         21   -1    0    0  502  501  0.00000000000E+00  0.00000000000E+00  0.64887963943E+03  0.64887963943E+03  0.00000000000E+00 0.  1.
         21   -1    0    0  501  502 -0.00000000000E+00 -0.00000000000E+00 -0.60199916327E+01  0.60199916327E+01  0.00000000000E+00 0.  1.
         25    1    1    2    0    0  0.00000000000E+00  0.00000000000E+00  0.64285964780E+03  0.65489963106E+03  0.12500000000E+03 0.  0.
<mgrwt>
<rscale>  0 0.12500000E+03</rscale>
<asrwt>0</asrwt>
<pdfrwt beam="1">  1       21 0.99827582E-01 0.12500000E+03</pdfrwt>
<pdfrwt beam="2">  1       21 0.92615307E-03 0.12500000E+03</pdfrwt>
<totfact> 0.34721593E+06</totfact>
</mgrwt>
</event>
<event>
 3    1  0.1615911E-001  0.1250000E+03  0.7546771E-02  0.1235069E+00
         21   -1    0    0  502  501  0.00000000000E+00  0.00000000000E+00  0.58502105180E+02  0.58502105180E+02  0.00000000000E+00 0. -1.
         21   -1    0    0  501  502 -0.00000000000E+00 -0.00000000000E+00 -0.66771101450E+02  0.66771101450E+02  0.00000000000E+00 0. -1.
         25    1    1    2    0    0  0.00000000000E+00  0.00000000000E+00 -0.82689962693E+01  0.12527320663E+03  0.12500000000E+03 0.  0.
<mgrwt>
<rscale>  0 0.12500000E+03</rscale>
<asrwt>0</asrwt>
<pdfrwt beam="1">  1       21 0.90003239E-02 0.12500000E+03</pdfrwt>
<pdfrwt beam="2">  1       21 0.10272477E-01 0.12500000E+03</pdfrwt>
<totfact> 0.74006688E+06</totfact>
</mgrwt>
</event>
<event>
 3    1  0.1615911E-001  0.1250000E+03  0.7546771E-02  0.1235069E+00
         21   -1    0    0  502  501  0.00000000000E+00  0.00000000000E+00  0.12484802289E+02  0.12484802289E+02  0.00000000000E+00 0. -1.
         21   -1    0    0  501  502 -0.00000000000E+00 -0.00000000000E+00 -0.31288040527E+03  0.31288040527E+03  0.00000000000E+00 0. -1.
         25    1    1    2    0    0  0.00000000000E+00  0.00000000000E+00 -0.30039560299E+03  0.32536520756E+03  0.12500000000E+03 0.  0.
<mgrwt>
<rscale>  0 0.12500000E+03</rscale>
<asrwt>0</asrwt>
<pdfrwt beam="1">  1       21 0.19207389E-02 0.12500000E+03</pdfrwt>
<pdfrwt beam="2">  1       21 0.48135444E-01 0.12500000E+03</pdfrwt>
<totfact> 0.53410898E+06</totfact>
</mgrwt>
</event>
<event>
 3    1  0.1615911E-001  0.1250000E+03  0.7546771E-02  0.1235069E+00
         21   -1    0    0  502  501  0.00000000000E+00  0.00000000000E+00  0.12733655573E+03  0.12733655573E+03  0.00000000000E+00 0.  1.
         21   -1    0    0  501  502 -0.00000000000E+00 -0.00000000000E+00 -0.30676579695E+02  0.30676579695E+02  0.00000000000E+00 0.  1.
         25    1    1    2    0    0  0.00000000000E+00  0.00000000000E+00  0.96659976037E+02  0.15801313543E+03  0.12500000000E+03 0.  0.
<mgrwt>
<rscale>  0 0.12500000E+03</rscale>
<asrwt>0</asrwt>
<pdfrwt beam="1">  1       21 0.19590239E-01 0.12500000E+03</pdfrwt>
<pdfrwt beam="2">  1       21 0.47194739E-02 0.12500000E+03</pdfrwt>
<totfact> 0.69763088E+06</totfact>
</mgrwt>
</event>
<event>
 3    1  0.1615911E-001  0.1250000E+03  0.7546771E-02  0.1235069E+00
         21   -1    0    0  502  501  0.00000000000E+00  0.00000000000E+00  0.34546285830E+03  0.34546285830E+03  0.00000000000E+00 0.  1.
         21   -1    0    0  501  502 -0.00000000000E+00 -0.00000000000E+00 -0.11307293696E+02  0.11307293696E+02  0.00000000000E+00 0.  1.
         25    1    1    2    0    0  0.00000000000E+00  0.00000000000E+00  0.33415556460E+03  0.35677015200E+03  0.12500000000E+03 0.  0.
<mgrwt>
<rscale>  0 0.12500000E+03</rscale>
<asrwt>0</asrwt>
<pdfrwt beam="1">  1       21 0.53148124E-01 0.12500000E+03</pdfrwt>
<pdfrwt beam="2">  1       21 0.17395839E-02 0.12500000E+03</pdfrwt>
<totfact> 0.51042295E+06</totfact>
</mgrwt>
</event>
<event>
 3    1  0.1615911E-001  0.1250000E+03  0.7546771E-02  0.1235069E+00
         21   -1    0    0  502  501  0.00000000000E+00  0.00000000000E+00  0.17011982871E+02  0.17011982871E+02  0.00000000000E+00 0.  1.
         21   -1    0    0  501  502 -0.00000000000E+00 -0.00000000000E+00 -0.22961756014E+03  0.22961756014E+03  0.00000000000E+00 0.  1.
         25    1    1    2    0    0  0.00000000000E+00  0.00000000000E+00 -0.21260557727E+03  0.24662954301E+03  0.12500000000E+03 0.  0.
<mgrwt>
<rscale>  0 0.12500000E+03</rscale>
<asrwt>0</asrwt>
<pdfrwt beam="1">  1       21 0.26172283E-02 0.12500000E+03</pdfrwt>
<pdfrwt beam="2">  1       21 0.35325777E-01 0.12500000E+03</pdfrwt>
<totfact> 0.60196972E+06</totfact>
</mgrwt>
</event>
<event>
 3    1  0.1615911E-001  0.1250000E+03  0.7546771E-02  0.1235069E+00
         21   -1    0    0  502  501  0.00000000000E+00  0.00000000000E+00  0.81813553912E+02  0.81813553912E+02  0.00000000000E+00 0. -1.
         21   -1    0    0  501  502 -0.00000000000E+00 -0.00000000000E+00 -0.47745756213E+02  0.47745756213E+02  0.00000000000E+00 0. -1.
         25    1    1    2    0    0  0.00000000000E+00  0.00000000000E+00  0.34067797699E+02  0.12955931012E+03  0.12500000000E+03 0.  0.
<mgrwt>
<rscale>  0 0.12500000E+03</rscale>
<asrwt>0</asrwt>
<pdfrwt beam="1">  1       21 0.12586701E-01 0.12500000E+03</pdfrwt>
<pdfrwt beam="2">  1       21 0.73455010E-02 0.12500000E+03</pdfrwt>
<totfact> 0.73423872E+06</totfact>
</mgrwt>
</event>
<event>
 3    1  0.1615911E-001  0.1250000E+03  0.7546771E-02  0.1235069E+00
         21   -1    0    0  502  501  0.00000000000E+00  0.00000000000E+00  0.65377572768E+03  0.65377572768E+03  0.00000000000E+00 0. -1.
         21   -1    0    0  501  502 -0.00000000000E+00 -0.00000000000E+00 -0.59749082669E+01  0.59749082669E+01  0.00000000000E+00 0. -1.
         25    1    1    2    0    0  0.00000000000E+00  0.00000000000E+00  0.64780081941E+03  0.65975063594E+03  0.12500000000E+03 0.  0.
<mgrwt>
<rscale>  0 0.12500000E+03</rscale>
<asrwt>0</asrwt>
<pdfrwt beam="1">  1       21 0.10058082E+00 0.12500000E+03</pdfrwt>
<pdfrwt beam="2">  1       21 0.91921717E-03 0.12500000E+03</pdfrwt>
<totfact> 0.34520250E+06</totfact>
</mgrwt>
</event>
<event>
 3    1  0.1615911E-001  0.1250000E+03  0.7546771E-02  0.1235069E+00
         21   -1    0    0  502  501  0.00000000000E+00  0.00000000000E+00  0.11298975727E+03  0.11298975727E+03  0.00000000000E+00 0. -1.
         21   -1    0    0  501  502 -0.00000000000E+00 -0.00000000000E+00 -0.34571717777E+02  0.34571717777E+02  0.00000000000E+00 0. -1.
         25    1    1    2    0    0  0.00000000000E+00  0.00000000000E+00  0.78418039491E+02  0.14756147505E+03  0.12500000000E+03 0.  0.
<mgrwt>
<rscale>  0 0.12500000E+03</rscale>
<asrwt>0</asrwt>
<pdfrwt beam="1">  1       21 0.17383039E-01 0.12500000E+03</pdfrwt>
<pdfrwt beam="2">  1       21 0.53187259E-02 0.12500000E+03</pdfrwt>
<totfact> 0.71066885E+06</totfact>
</mgrwt>
</event>
<event>
 3    1  0.1615911E-001  0.1250000E+03  0.7546771E-02  0.1235069E+00
         21   -1    0    0  502  501  0.00000000000E+00  0.00000000000E+00  0.31375875894E+03  0.31375875894E+03  0.00000000000E+00 0. -1.
         21   -1    0    0  501  502 -0.00000000000E+00 -0.00000000000E+00 -0.12449851642E+02  0.12449851642E+02  0.00000000000E+00 0. -1.
         25    1    1    2    0    0  0.00000000000E+00  0.00000000000E+00  0.30130890730E+03  0.32620861058E+03  0.12500000000E+03 0.  0.
<mgrwt>
<rscale>  0 0.12500000E+03</rscale>
<asrwt>0</asrwt>
<pdfrwt beam="1">  1       21 0.48270572E-01 0.12500000E+03</pdfrwt>
<pdfrwt beam="2">  1       21 0.19153620E-02 0.12500000E+03</pdfrwt>
<totfact> 0.53344983E+06</totfact>
</mgrwt>
</event>
<event>
 3    1  0.1615911E-001  0.1250000E+03  0.7546771E-02  0.1235069E+00
         21   -1    0    0  502  501  0.00000000000E+00  0.00000000000E+00  0.24925655134E+02  0.24925655134E+02  0.00000000000E+00 0.  1.
         21   -1    0    0  501  502 -0.00000000000E+00 -0.00000000000E+00 -0.15671604132E+03  0.15671604132E+03  0.00000000000E+00 0.  1.
         25    1    1    2    0    0  0.00000000000E+00  0.00000000000E+00 -0.13179038619E+03  0.18164169646E+03  0.12500000000E+03 0.  0.
<mgrwt>
<rscale>  0 0.12500000E+03</rscale>
<asrwt>0</asrwt>
<pdfrwt beam="1">  1       21 0.38347162E-02 0.12500000E+03</pdfrwt>
<pdfrwt beam="2">  1       21 0.24110160E-01 0.12500000E+03</pdfrwt>
<totfact> 0.66963704E+06</totfact>
</mgrwt>
</event>
<event>
 3    1  0.1615911E-001  0.1250000E+03  0.7546771E-02  0.1235069E+00
         21   -1    0    0  502  501  0.00000000000E+00  0.00000000000E+00  0.17113258881E+02  0.17113258881E+02  0.00000000000E+00 0.  1.
         21   -1    0    0  501  502 -0.00000000000E+00 -0.00000000000E+00 -0.22825868685E+03  0.22825868685E+03  0.00000000000E+00 0.  1.
         25    1    1    2    0    0  0.00000000000E+00  0.00000000000E+00 -0.21114542797E+03  0.24537194573E+03  0.12500000000E+03 0.  0.
<mgrwt>
<rscale>  0 0.12500000E+03</rscale>
<asrwt>0</asrwt>
<pdfrwt beam="1">  1       21 0.26328092E-02 0.12500000E+03</pdfrwt>
<pdfrwt beam="2">  1       21 0.35116719E-01 0.12500000E+03</pdfrwt>
<totfact> 0.60316672E+06</totfact>
</mgrwt>
</event>
<event>
 3    1  0.1615911E-001  0.1250000E+03  0.7546771E-02  0.1235069E+00
         21   -1    0    0  502  501  0.00000000000E+00  0.00000000000E+00  0.25097516618E+03  0.25097516618E+03  0.00000000000E+00 0.  1.
         21   -1    0    0  501  502 -0.00000000000E+00 -0.00000000000E+00 -0.15564288927E+02  0.15564288927E+02  0.00000000000E+00 0.  1.
         25    1    1    2    0    0  0.00000000000E+00  0.00000000000E+00  0.23541087726E+03  0.26653945511E+03  0.12500000000E+03 0.  0.
<mgrwt>
<rscale>  0 0.12500000E+03</rscale>
<asrwt>0</asrwt>
<pdfrwt beam="1">  1       21 0.38611561E-01 0.12500000E+03</pdfrwt>
<pdfrwt beam="2">  1       21 0.23945062E-02 0.12500000E+03</pdfrwt>
<totfact> 0.58355034E+06</totfact>
</mgrwt>
</event>
<event>
 3    1  0.1615911E-001  0.1250000E+03  0.7546771E-02  0.1235069E+00
         21   -1    0    0  502  501  0.00000000000E+00  0.00000000000E+00  0.57303952457E+01  0.57303952457E+01  0.00000000000E+00 0. -1.
         21   -1    0    0  501  502 -0.00000000000E+00 -0.00000000000E+00 -0.68167200210E+03  0.68167200210E+03  0.00000000000E+00 0. -1.
         25    1    1    2    0    0  0.00000000000E+00  0.00000000000E+00 -0.67594160686E+03  0.68740239735E+03  0.12500000000E+03 0.  0.
<mgrwt>
<rscale>  0 0.12500000E+03</rscale>
<asrwt>0</asrwt>
<pdfrwt beam="1">  1       21 0.88159950E-03 0.12500000E+03</pdfrwt>
<pdfrwt beam="2">  1       21 0.10487259E+00 0.12500000E+03</pdfrwt>
<totfact> 0.33401512E+06</totfact>
</mgrwt>
</event>
<event>
 3    1  0.1615911E-001  0.1250000E+03  0.7546771E-02  0.1235069E+00
         21   -1    0    0  502  501  0.00000000000E+00  0.00000000000E+00  0.40610848204E+01  0.40610848204E+01  0.00000000000E+00 0. -1.
         21   -1    0    0  501  502 -0.00000000000E+00 -0.00000000000E+00 -0.96187353202E+03  0.96187353202E+03  0.00000000000E+00 0. -1.
         25    1    1    2    0    0  0.00000000000E+00  0.00000000000E+00 -0.95781244720E+03  0.96593461684E+03  0.12500000000E+03 0.  0.
<mgrwt>
<rscale>  0 0.12500000E+03</rscale>
<asrwt>0</asrwt>
<pdfrwt beam="1">  1       21 0.62478254E-03 0.12500000E+03</pdfrwt>
<pdfrwt beam="2">  1       21 0.14798048E+00 0.12500000E+03</pdfrwt>
<totfact> 0.24489586E+06</totfact>
</mgrwt>
</event>
<event>
 3    1  0.1615911E-001  0.1250000E+03  0.7546771E-02  0.1235069E+00
         21   -1    0    0  502  501  0.00000000000E+00  0.00000000000E+00  0.59422485212E+02  0.59422485212E+02  0.00000000000E+00 0.  1.
         21   -1    0    0  501  502 -0.00000000000E+00 -0.00000000000E+00 -0.65736900536E+02  0.65736900536E+02  0.00000000000E+00 0.  1.
         25    1    1    2    0    0  0.00000000000E+00  0.00000000000E+00 -0.63144153244E+01  0.12515938575E+03  0.12500000000E+03 0.  0.
<mgrwt>
<rscale>  0 0.12500000E+03</rscale>
<asrwt>0</asrwt>
<pdfrwt beam="1">  1       21 0.91419208E-02 0.12500000E+03</pdfrwt>
<pdfrwt beam="2">  1       21 0.10113369E-01 0.12500000E+03</pdfrwt>
<totfact> 0.74022056E+06</totfact>
</mgrwt>
</event>
<event>
 3    1  0.1615911E-001  0.1250000E+03  0.7546771E-02  0.1235069E+00
         21   -1    0    0  502  501  0.00000000000E+00  0.00000000000E+00  0.60510843814E+02  0.60510843814E+02  0.00000000000E+00 0.  1.
         21   -1    0    0  501  502 -0.00000000000E+00 -0.00000000000E+00 -0.64554545165E+02  0.64554545165E+02  0.00000000000E+00 0.  1.
         25    1    1    2    0    0  0.00000000000E+00  0.00000000000E+00 -0.40437013507E+01  0.12506538898E+03  0.12500000000E+03 0.  0.
<mgrwt>
<rscale>  0 0.12500000E+03</rscale>
<asrwt>0</asrwt>
<pdfrwt beam="1">  1       21 0.93093606E-02 0.12500000E+03</pdfrwt>
<pdfrwt beam="2">  1       21 0.99314685E-02 0.12500000E+03</pdfrwt>
<totfact> 0.74034750E+06</totfact>
</mgrwt>
</event>
<event>
 3    1  0.1615911E-001  0.1250000E+03  0.7546771E-02  0.1235069E+00
         21   -1    0    0  502  501  0.00000000000E+00  0.00000000000E+00  0.30800202126E+02  0.30800202126E+02  0.00000000000E+00 0. -1.
         21   -1    0    0  501  502 -0.00000000000E+00 -0.00000000000E+00 -0.12682546640E+03  0.12682546640E+03  0.00000000000E+00 0. -1.
         25    1    1    2    0    0  0.00000000000E+00  0.00000000000E+00 -0.96025264279E+02  0.15762566853E+03  0.12500000000E+03 0.  0.
<mgrwt>
<rscale>  0 0.12500000E+03</rscale>
<asrwt>0</asrwt>
<pdfrwt beam="1">  1       21 0.47384927E-02 0.12500000E+03</pdfrwt>
<pdfrwt beam="2">  1       21 0.19511610E-01 0.12500000E+03</pdfrwt>
<totfact> 0.69810783E+06</totfact>
</mgrwt>
</event>
<event>
 3    1  0.1615911E-001  0.1250000E+03  0.7546771E-02  0.1235069E+00
         21   -1    0    0  502  501  0.00000000000E+00  0.00000000000E+00  0.74477830469E+02  0.74477830469E+02  0.00000000000E+00 0. -1.
         21   -1    0    0  501  502 -0.00000000000E+00 -0.00000000000E+00 -0.52448493403E+02  0.52448493403E+02  0.00000000000E+00 0. -1.
         25    1    1    2    0    0  0.00000000000E+00  0.00000000000E+00  0.22029337067E+02  0.12692632387E+03  0.12500000000E+03 0.  0.
<mgrwt>
<rscale>  0 0.12500000E+03</rscale>
<asrwt>0</asrwt>
<pdfrwt beam="1">  1       21 0.11458128E-01 0.12500000E+03</pdfrwt>
<pdfrwt beam="2">  1       21 0.80689990E-02 0.12500000E+03</pdfrwt>
<totfact> 0.73779169E+06</totfact>
</mgrwt>
</event>
<event>
 3    1  0.1615911E-001  0.1250000E+03  0.7546771E-02  0.1235069E+00
         21   -1    0    0  502  501  0.00000000000E+00  0.00000000000E+00  0.35273279161E+02  0.35273279161E+02  0.00000000000E+00 0.  1.
         21   -1    0    0  501  502 -0.00000000000E+00 -0.00000000000E+00 -0.11074246832E+03  0.11074246832E+03  0.00000000000E+00 0.  1.
         25    1    1    2    0    0  0.00000000000E+00  0.00000000000E+00 -0.75469189158E+02  0.14601574748E+03  0.12500000000E+03 0.  0.
<mgrwt>
<rscale>  0 0.12500000E+03</rscale>
<asrwt>0</asrwt>
<pdfrwt beam="1">  1       21 0.54266582E-02 0.12500000E+03</pdfrwt>
<pdfrwt beam="2">  1       21 0.17037303E-01 0.12500000E+03</pdfrwt>
<totfact> 0.71263361E+06</totfact>
</mgrwt>
</event>
<event>
 3    1  0.1615911E-001  0.1250000E+03  0.7546771E-02  0.1235069E+00
         21   -1    0    0  502  501  0.00000000000E+00  0.00000000000E+00  0.16237356902E+03  0.16237356902E+03  0.00000000000E+00 0. -1.
         21   -1    0    0  501  502 -0.00000000000E+00 -0.00000000000E+00 -0.24057178909E+02  0.24057178909E+02  0.00000000000E+00 0. -1.
         25    1    1    2    0    0  0.00000000000E+00  0.00000000000E+00  0.13831639011E+03  0.18643074793E+03  0.12500000000E+03 0.  0.
<mgrwt>
<rscale>  0 0.12500000E+03</rscale>
<asrwt>0</asrwt>
<pdfrwt beam="1">  1       21 0.24980548E-01 0.12500000E+03</pdfrwt>
<pdfrwt beam="2">  1       21 0.37011046E-02 0.12500000E+03</pdfrwt>
<totfact> 0.66421368E+06</totfact>
</mgrwt>
</event>
<event>
 3    1  0.1615911E-001  0.1250000E+03  0.7546771E-02  0.1235069E+00
         21   -1    0    0  502  501  0.00000000000E+00  0.00000000000E+00  0.61704101613E+01  0.61704101613E+01  0.00000000000E+00 0.  1.
         21   -1    0    0  501  502 -0.00000000000E+00 -0.00000000000E+00 -0.63306164386E+03  0.63306164386E+03  0.00000000000E+00 0.  1.
         25    1    1    2    0    0  0.00000000000E+00  0.00000000000E+00 -0.62689123370E+03  0.63923205402E+03  0.12500000000E+03 0.  0.
<mgrwt>
<rscale>  0 0.12500000E+03</rscale>
<asrwt>0</asrwt>
<pdfrwt beam="1">  1       21 0.94929365E-03 0.12500000E+03</pdfrwt>
<pdfrwt beam="2">  1       21 0.97394122E-01 0.12500000E+03</pdfrwt>
<totfact> 0.35376361E+06</totfact>
</mgrwt>
</event>
<event>
 3    1  0.1615911E-001  0.1250000E+03  0.7546771E-02  0.1235069E+00
         21   -1    0    0  502  501  0.00000000000E+00  0.00000000000E+00  0.56392354410E+03  0.56392354410E+03  0.00000000000E+00 0.  1.
         21   -1    0    0  501  502 -0.00000000000E+00 -0.00000000000E+00 -0.69269141905E+01  0.69269141905E+01  0.00000000000E+00 0.  1.
         25    1    1    2    0    0  0.00000000000E+00  0.00000000000E+00  0.55699662991E+03  0.57085045829E+03  0.12500000000E+03 0.  0.
<mgrwt>
<rscale>  0 0.12500000E+03</rscale>
<asrwt>0</asrwt>
<pdfrwt beam="1">  1       21 0.86757432E-01 0.12500000E+03</pdfrwt>
<pdfrwt beam="2">  1       21 0.10656795E-02 0.12500000E+03</pdfrwt>
<totfact> 0.38444971E+06</totfact>
</mgrwt>
</event>
<event>
 3    1  0.1615911E-001  0.1250000E+03  0.7546771E-02  0.1235069E+00
         21   -1    0    0  502  501  0.00000000000E+00  0.00000000000E+00  0.57791293795E+03  0.57791293795E+03  0.00000000000E+00 0.  1.
         21   -1    0    0  501  502 -0.00000000000E+00 -0.00000000000E+00 -0.67592361123E+01  0.67592361123E+01  0.00000000000E+00 0.  1.
         25    1    1    2    0    0  0.00000000000E+00  0.00000000000E+00  0.57115370184E+03  0.58467217407E+03  0.12500000000E+03 0.  0.
<mgrwt>
<rscale>  0 0.12500000E+03</rscale>
<asrwt>0</asrwt>
<pdfrwt beam="1">  1       21 0.88909644E-01 0.12500000E+03</pdfrwt>
<pdfrwt beam="2">  1       21 0.10398829E-02 0.12500000E+03</pdfrwt>
<totfact> 0.37795126E+06</totfact>
</mgrwt>
</event>
<event>
 3    1  0.1615911E-001  0.1250000E+03  0.7546771E-02  0.1235069E+00
         21   -1    0    0  502  501  0.00000000000E+00  0.00000000000E+00  0.97547891637E+02  0.97547891637E+02  0.00000000000E+00 0. -1.
         21   -1    0    0  501  502 -0.00000000000E+00 -0.00000000000E+00 -0.40044432888E+02  0.40044432888E+02  0.00000000000E+00 0. -1.
         25    1    1    2    0    0  0.00000000000E+00  0.00000000000E+00  0.57503458749E+02  0.13759232452E+03  0.12500000000E+03 0.  0.
<mgrwt>
<rscale>  0 0.12500000E+03</rscale>
<asrwt>0</asrwt>
<pdfrwt beam="1">  1       21 0.15007368E-01 0.12500000E+03</pdfrwt>
<pdfrwt beam="2">  1       21 0.61606820E-02 0.12500000E+03</pdfrwt>
<totfact> 0.72355015E+06</totfact>
</mgrwt>
</event>
<event>
 3    1  0.1615911E-001  0.1250000E+03  0.7546771E-02  0.1235069E+00
         21   -1    0    0  502  501  0.00000000000E+00  0.00000000000E+00  0.25745310763E+01  0.25745310763E+01  0.00000000000E+00 0.  1.
         21   -1    0    0  501  502 -0.00000000000E+00 -0.00000000000E+00 -0.15172665951E+04  0.15172665951E+04  0.00000000000E+00 0.  1.
         25    1    1    2    0    0  0.00000000000E+00  0.00000000000E+00 -0.15146920640E+04  0.15198411261E+04  0.12500000000E+03 0.  0.
<mgrwt>
<rscale>  0 0.12500000E+03</rscale>
<asrwt>0</asrwt>
<pdfrwt beam="1">  1       21 0.39608181E-03 0.12500000E+03</pdfrwt>
<pdfrwt beam="2">  1       21 0.23342557E+00 0.12500000E+03</pdfrwt>
<totfact> 0.13701184E+06</totfact>
</mgrwt>
</event>
<event>
 3    1  0.1615911E-001  0.1250000E+03  0.7546771E-02  0.1235069E+00
         21   -1    0    0  502  501  0.00000000000E+00  0.00000000000E+00  0.25699190133E+02  0.25699190133E+02  0.00000000000E+00 0. -1.
         21   -1    0    0  501  502 -0.00000000000E+00 -0.00000000000E+00 -0.15199895327E+03  0.15199895327E+03  0.00000000000E+00 0. -1.
         25    1    1    2    0    0  0.00000000000E+00  0.00000000000E+00 -0.12629976313E+03  0.17769814340E+03  0.12500000000E+03 0.  0.
<mgrwt>
<rscale>  0 0.12500000E+03</rscale>
<asrwt>0</asrwt>
<pdfrwt beam="1">  1       21 0.39537215E-02 0.12500000E+03</pdfrwt>
<pdfrwt beam="2">  1       21 0.23384455E-01 0.12500000E+03</pdfrwt>
<totfact> 0.67416584E+06</totfact>
</mgrwt>
</event>
<event>
 3    1  0.1615911E-001  0.1250000E+03  0.7546771E-02  0.1235069E+00
         21   -1    0    0  502  501  0.00000000000E+00  0.00000000000E+00  0.13098096946E+03  0.13098096946E+03  0.00000000000E+00 0.  1.
         21   -1    0    0  501  502 -0.00000000000E+00 -0.00000000000E+00 -0.29823034721E+02  0.29823034721E+02  0.00000000000E+00 0.  1.
         25    1    1    2    0    0  0.00000000000E+00  0.00000000000E+00  0.10115793474E+03  0.16080400418E+03  0.12500000000E+03 0.  0.
<mgrwt>
<rscale>  0 0.12500000E+03</rscale>
<asrwt>0</asrwt>
<pdfrwt beam="1">  1       21 0.20150918E-01 0.12500000E+03</pdfrwt>
<pdfrwt beam="2">  1       21 0.45881593E-02 0.12500000E+03</pdfrwt>
<totfact> 0.69421389E+06</totfact>
</mgrwt>
</event>
<event>
 3    1  0.1615911E-001  0.1250000E+03  0.7546771E-02  0.1235069E+00
         21   -1    0    0  502  501  0.00000000000E+00  0.00000000000E+00  0.56270709056E+03  0.56270709056E+03  0.00000000000E+00 0. -1.
         21   -1    0    0  501  502 -0.00000000000E+00 -0.00000000000E+00 -0.69418887118E+01  0.69418887118E+01  0.00000000000E+00 0. -1.
         25    1    1    2    0    0  0.00000000000E+00  0.00000000000E+00  0.55576520184E+03  0.56964897927E+03  0.12500000000E+03 0.  0.
<mgrwt>
<rscale>  0 0.12500000E+03</rscale>
<asrwt>0</asrwt>
<pdfrwt beam="1">  1       21 0.86570286E-01 0.12500000E+03</pdfrwt>
<pdfrwt beam="2">  1       21 0.10679833E-02 0.12500000E+03</pdfrwt>
<totfact> 0.38502215E+06</totfact>
</mgrwt>
</event>
<event>
 3    1  0.1615911E-001  0.1250000E+03  0.7546771E-02  0.1235069E+00
         21   -1    0    0  502  501  0.00000000000E+00  0.00000000000E+00  0.11028029134E+03  0.11028029134E+03  0.00000000000E+00 0.  1.
         21   -1    0    0  501  502 -0.00000000000E+00 -0.00000000000E+00 -0.35421107005E+02  0.35421107005E+02  0.00000000000E+00 0.  1.
         25    1    1    2    0    0  0.00000000000E+00  0.00000000000E+00  0.74859184333E+02  0.14570139834E+03  0.12500000000E+03 0.  0.
<mgrwt>
<rscale>  0 0.12500000E+03</rscale>
<asrwt>0</asrwt>
<pdfrwt beam="1">  1       21 0.16966199E-01 0.12500000E+03</pdfrwt>
<pdfrwt beam="2">  1       21 0.54494011E-02 0.12500000E+03</pdfrwt>
<totfact> 0.71303458E+06</totfact>
</mgrwt>
</event>
<event>
 3    1  0.1615911E-001  0.1250000E+03  0.7546771E-02  0.1235069E+00
         21   -1    0    0  502  501  0.00000000000E+00  0.00000000000E+00  0.15326091700E+03  0.15326091700E+03  0.00000000000E+00 0.  1.
         21   -1    0    0  501  502 -0.00000000000E+00 -0.00000000000E+00 -0.25487580763E+02  0.25487580763E+02  0.00000000000E+00 0.  1.
         25    1    1    2    0    0  0.00000000000E+00  0.00000000000E+00  0.12777333624E+03  0.17874849777E+03  0.12500000000E+03 0.  0.
<mgrwt>
<rscale>  0 0.12500000E+03</rscale>
<asrwt>0</asrwt>
<pdfrwt beam="1">  1       21 0.23578602E-01 0.12500000E+03</pdfrwt>
<pdfrwt beam="2">  1       21 0.39211664E-02 0.12500000E+03</pdfrwt>
<totfact> 0.67295396E+06</totfact>
</mgrwt>
</event>
<event>
 3    1  0.1615911E-001  0.1250000E+03  0.7546771E-02  0.1235069E+00
         21   -1    0    0  502  501  0.00000000000E+00  0.00000000000E+00  0.29743702825E+03  0.29743702825E+03  0.00000000000E+00 0. -1.
         21   -1    0    0  501  502 -0.00000000000E+00 -0.00000000000E+00 -0.13133031966E+02  0.13133031966E+02  0.00000000000E+00 0. -1.
         25    1    1    2    0    0  0.00000000000E+00  0.00000000000E+00  0.28430399629E+03  0.31057006022E+03  0.12500000000E+03 0.  0.
<mgrwt>
<rscale>  0 0.12500000E+03</rscale>
<asrwt>0</asrwt>
<pdfrwt beam="1">  1       21 0.45759538E-01 0.12500000E+03</pdfrwt>
<pdfrwt beam="2">  1       21 0.20204667E-02 0.12500000E+03</pdfrwt>
<totfact> 0.54589044E+06</totfact>
</mgrwt>
</event>
<event>
 3    1  0.1615911E-001  0.1250000E+03  0.7546771E-02  0.1235069E+00
         21   -1    0    0  502  501  0.00000000000E+00  0.00000000000E+00  0.62822788453E+02  0.62822788453E+02  0.00000000000E+00 0.  1.
         21   -1    0    0  501  502 -0.00000000000E+00 -0.00000000000E+00 -0.62178870060E+02  0.62178870060E+02  0.00000000000E+00 0.  1.
         25    1    1    2    0    0  0.00000000000E+00  0.00000000000E+00  0.64391839257E+00  0.12500165851E+03  0.12500000000E+03 0.  0.
<mgrwt>
<rscale>  0 0.12500000E+03</rscale>
<asrwt>0</asrwt>
<pdfrwt beam="1">  1       21 0.96650444E-02 0.12500000E+03</pdfrwt>
<pdfrwt beam="2">  1       21 0.95659800E-02 0.12500000E+03</pdfrwt>
<totfact> 0.74043357E+06</totfact>
</mgrwt>
</event>
<event>
 3    1  0.1615911E-001  0.1250000E+03  0.7546771E-02  0.1235069E+00
         21   -1    0    0  502  501  0.00000000000E+00  0.00000000000E+00  0.38524539984E+03  0.38524539984E+03  0.00000000000E+00 0.  1.
         21   -1    0    0  501  502 -0.00000000000E+00 -0.00000000000E+00 -0.10139640867E+02  0.10139640867E+02  0.00000000000E+00 0.  1.
         25    1    1    2    0    0  0.00000000000E+00  0.00000000000E+00  0.37510575897E+03  0.39538504071E+03  0.12500000000E+03 0.  0.
<mgrwt>
<rscale>  0 0.12500000E+03</rscale>
<asrwt>0</asrwt>
<pdfrwt beam="1">  1       21 0.59268512E-01 0.12500000E+03</pdfrwt>
<pdfrwt beam="2">  1       21 0.15599450E-02 0.12500000E+03</pdfrwt>
<totfact> 0.48348974E+06</totfact>
</mgrwt>
</event>
<event>
 3    1  0.1615911E-001  0.1250000E+03  0.7546771E-02  0.1235069E+00
         21   -1    0    0  502  501  0.00000000000E+00  0.00000000000E+00  0.19682818584E+01  0.19682818584E+01  0.00000000000E+00 0.  1.
         21   -1    0    0  501  502 -0.00000000000E+00 -0.00000000000E+00 -0.19845988944E+04  0.19845988944E+04  0.00000000000E+00 0.  1.
         25    1    1    2    0    0  0.00000000000E+00  0.00000000000E+00 -0.19826306125E+04  0.19865671762E+04  0.12500000000E+03 0.  0.
<mgrwt>
<rscale>  0 0.12500000E+03</rscale>
<asrwt>0</asrwt>
<pdfrwt beam="1">  1       21 0.30281222E-03 0.12500000E+03</pdfrwt>
<pdfrwt beam="2">  1       21 0.30532329E+00 0.12500000E+03</pdfrwt>
<totfact> 0.80796774E+05</totfact>
</mgrwt>
</event>
<event>
 3    1  0.1615911E-001  0.1250000E+03  0.7546771E-02  0.1235069E+00
         21   -1    0    0  502  501  0.00000000000E+00  0.00000000000E+00  0.50392682197E+02  0.50392682197E+02  0.00000000000E+00 0.  1.
         21   -1    0    0  501  502 -0.00000000000E+00 -0.00000000000E+00 -0.77516215245E+02  0.77516215245E+02  0.00000000000E+00 0.  1.
         25    1    1    2    0    0  0.00000000000E+00  0.00000000000E+00 -0.27123533048E+02  0.12790889744E+03  0.12500000000E+03 0.  0.
<mgrwt>
<rscale>  0 0.12500000E+03</rscale>
<asrwt>0</asrwt>
<pdfrwt beam="1">  1       21 0.77527204E-02 0.12500000E+03</pdfrwt>
<pdfrwt beam="2">  1       21 0.11925572E-01 0.12500000E+03</pdfrwt>
<totfact> 0.73645870E+06</totfact>
</mgrwt>
</event>
<event>
 3    1  0.1615911E-001  0.1250000E+03  0.7546771E-02  0.1235069E+00
         21   -1    0    0  502  501  0.00000000000E+00  0.00000000000E+00  0.23531597994E+02  0.23531597994E+02  0.00000000000E+00 0. -1.
         21   -1    0    0  501  502 -0.00000000000E+00 -0.00000000000E+00 -0.16600020114E+03  0.16600020114E+03  0.00000000000E+00 0. -1.
         25    1    1    2    0    0  0.00000000000E+00  0.00000000000E+00 -0.14246860314E+03  0.18953179913E+03  0.12500000000E+03 0.  0.
<mgrwt>
<rscale>  0 0.12500000E+03</rscale>
<asrwt>0</asrwt>
<pdfrwt beam="1">  1       21 0.36202459E-02 0.12500000E+03</pdfrwt>
<pdfrwt beam="2">  1       21 0.25538492E-01 0.12500000E+03</pdfrwt>
<totfact> 0.66074538E+06</totfact>
</mgrwt>
</event>
<event>
 3    1  0.1615911E-001  0.1250000E+03  0.7546771E-02  0.1235069E+00
         21   -1    0    0  502  501  0.00000000000E+00  0.00000000000E+00  0.31424318683E+03  0.31424318683E+03  0.00000000000E+00 0. -1.
         21   -1    0    0  501  502 -0.00000000000E+00 -0.00000000000E+00 -0.12430659323E+02  0.12430659323E+02  0.00000000000E+00 0. -1.
         25    1    1    2    0    0  0.00000000000E+00  0.00000000000E+00  0.30181252750E+03  0.32667384615E+03  0.12500000000E+03 0.  0.
<mgrwt>
<rscale>  0 0.12500000E+03</rscale>
<asrwt>0</asrwt>
<pdfrwt beam="1">  1       21 0.48345100E-01 0.12500000E+03</pdfrwt>
<pdfrwt beam="2">  1       21 0.19124094E-02 0.12500000E+03</pdfrwt>
<totfact> 0.53308679E+06</totfact>
</mgrwt>
</event>
<event>
 3    1  0.1615911E-001  0.1250000E+03  0.7546771E-02  0.1235069E+00
         21   -1    0    0  502  501  0.00000000000E+00  0.00000000000E+00  0.79865195947E+02  0.79865195947E+02  0.00000000000E+00 0. -1.
         21   -1    0    0  501  502 -0.00000000000E+00 -0.00000000000E+00 -0.48910541741E+02  0.48910541741E+02  0.00000000000E+00 0. -1.
         25    1    1    2    0    0  0.00000000000E+00  0.00000000000E+00  0.30954654205E+02  0.12877573769E+03  0.12500000000E+03 0.  0.
<mgrwt>
<rscale>  0 0.12500000E+03</rscale>
<asrwt>0</asrwt>
<pdfrwt beam="1">  1       21 0.12286953E-01 0.12500000E+03</pdfrwt>
<pdfrwt beam="2">  1       21 0.75246987E-02 0.12500000E+03</pdfrwt>
<totfact> 0.73529017E+06</totfact>
</mgrwt>
</event>
<event>
 3    1  0.1615911E-001  0.1250000E+03  0.7546771E-02  0.1235069E+00
         21   -1    0    0  502  501  0.00000000000E+00  0.00000000000E+00  0.75231910477E+03  0.75231910477E+03  0.00000000000E+00 0. -1.
         21   -1    0    0  501  502 -0.00000000000E+00 -0.00000000000E+00 -0.51922780842E+01  0.51922780842E+01  0.00000000000E+00 0. -1.
         25    1    1    2    0    0  0.00000000000E+00  0.00000000000E+00  0.74712682669E+03  0.75751138285E+03  0.12500000000E+03 0.  0.
<mgrwt>
<rscale>  0 0.12500000E+03</rscale>
<asrwt>0</asrwt>
<pdfrwt beam="1">  1       21 0.11574131E+00 0.12500000E+03</pdfrwt>
<pdfrwt beam="2">  1       21 0.79881261E-03 0.12500000E+03</pdfrwt>
<totfact> 0.30806440E+06</totfact>
</mgrwt>
</event>
<event>
 3    1  0.1615911E-001  0.1250000E+03  0.7546771E-02  0.1235069E+00
         21   -1    0    0  502  501  0.00000000000E+00  0.00000000000E+00  0.49107712891E+03  0.49107712891E+03  0.00000000000E+00 0. -1.
         21   -1    0    0  501  502 -0.00000000000E+00 -0.00000000000E+00 -0.79544531196E+01  0.79544531196E+01  0.00000000000E+00 0. -1.
         25    1    1    2    0    0  0.00000000000E+00  0.00000000000E+00  0.48312267579E+03  0.49903158203E+03  0.12500000000E+03 0.  0.
<mgrwt>
<rscale>  0 0.12500000E+03</rscale>
<asrwt>0</asrwt>
<pdfrwt beam="1">  1       21 0.75550304E-01 0.12500000E+03</pdfrwt>
<pdfrwt beam="2">  1       21 0.12237624E-02 0.12500000E+03</pdfrwt>
<totfact> 0.42096647E+06</totfact>
</mgrwt>
</event>
<event>
 3    1  0.1615911E-001  0.1250000E+03  0.7546771E-02  0.1235069E+00
         21   -1    0    0  502  501  0.00000000000E+00  0.00000000000E+00  0.60263975686E+01  0.60263975686E+01  0.00000000000E+00 0.  1.
         21   -1    0    0  501  502 -0.00000000000E+00 -0.00000000000E+00 -0.64818989380E+03  0.64818989380E+03  0.00000000000E+00 0.  1.
         25    1    1    2    0    0  0.00000000000E+00  0.00000000000E+00 -0.64216349623E+03  0.65421629137E+03  0.12500000000E+03 0.  0.
<mgrwt>
<rscale>  0 0.12500000E+03</rscale>
<asrwt>0</asrwt>
<pdfrwt beam="1">  1       21 0.92713782E-03 0.12500000E+03</pdfrwt>
<pdfrwt beam="2">  1       21 0.99721551E-01 0.12500000E+03</pdfrwt>
<totfact> 0.34749779E+06</totfact>
</mgrwt>
</event>
<event>
 3    1  0.1615911E-001  0.1250000E+03  0.7546771E-02  0.1235069E+00
         21   -1    0    0  502  501  0.00000000000E+00  0.00000000000E+00  0.77318171300E+02  0.77318171300E+02  0.00000000000E+00 0. -1.
         21   -1    0    0  501  502 -0.00000000000E+00 -0.00000000000E+00 -0.50521758784E+02  0.50521758784E+02  0.00000000000E+00 0. -1.
         25    1    1    2    0    0  0.00000000000E+00  0.00000000000E+00  0.26796412516E+02  0.12783993008E+03  0.12500000000E+03 0.  0.
<mgrwt>
<rscale>  0 0.12500000E+03</rscale>
<asrwt>0</asrwt>
<pdfrwt beam="1">  1       21 0.11895103E-01 0.12500000E+03</pdfrwt>
<pdfrwt beam="2">  1       21 0.77725783E-02 0.12500000E+03</pdfrwt>
<totfact> 0.73655194E+06</totfact>
</mgrwt>
</event>
<event>
 3    1  0.1615911E-001  0.1250000E+03  0.7546771E-02  0.1235069E+00
         21   -1    0    0  502  501  0.00000000000E+00  0.00000000000E+00  0.11487294075E+04  0.11487294075E+04  0.00000000000E+00 0.  1.
         21   -1    0    0  501  502 -0.00000000000E+00 -0.00000000000E+00 -0.34004962132E+01  0.34004962132E+01  0.00000000000E+00 0.  1.
         25    1    1    2    0    0  0.00000000000E+00  0.00000000000E+00  0.11453289112E+04  0.11521299037E+04  0.12500000000E+03 0.  0.
<mgrwt>
<rscale>  0 0.12500000E+03</rscale>
<asrwt>0</asrwt>
<pdfrwt beam="1">  1       21 0.17672729E+00 0.12500000E+03</pdfrwt>
<pdfrwt beam="2">  1       21 0.52315418E-03 0.12500000E+03</pdfrwt>
<totfact> 0.20124272E+06</totfact>
</mgrwt>
</event>
<event>
 3    1  0.1615911E-001  0.1250000E+03  0.7546771E-02  0.1235069E+00
         21   -1    0    0  502  501  0.00000000000E+00  0.00000000000E+00  0.45214076518E+02  0.45214076518E+02  0.00000000000E+00 0. -1.
         21   -1    0    0  501  502 -0.00000000000E+00 -0.00000000000E+00 -0.86394554546E+02  0.86394554546E+02  0.00000000000E+00 0. -1.
         25    1    1    2    0    0  0.00000000000E+00  0.00000000000E+00 -0.41180478027E+02  0.13160863106E+03  0.12500000000E+03 0.  0.
<mgrwt>
<rscale>  0 0.12500000E+03</rscale>
<asrwt>0</asrwt>
<pdfrwt beam="1">  1       21 0.69560119E-02 0.12500000E+03</pdfrwt>
<pdfrwt beam="2">  1       21 0.13291470E-01 0.12500000E+03</pdfrwt>
<totfact> 0.73148771E+06</totfact>
</mgrwt>
</event>
<event>
 3    1  0.1615911E-001  0.1250000E+03  0.7546771E-02  0.1235069E+00
         21   -1    0    0  502  501  0.00000000000E+00  0.00000000000E+00  0.41712444295E+03  0.41712444295E+03  0.00000000000E+00 0. -1.
         21   -1    0    0  501  502 -0.00000000000E+00 -0.00000000000E+00 -0.93647113374E+01  0.93647113374E+01  0.00000000000E+00 0. -1.
         25    1    1    2    0    0  0.00000000000E+00  0.00000000000E+00  0.40775973161E+03  0.42648915429E+03  0.12500000000E+03 0.  0.
<mgrwt>
<rscale>  0 0.12500000E+03</rscale>
<asrwt>0</asrwt>
<pdfrwt beam="1">  1       21 0.64172977E-01 0.12500000E+03</pdfrwt>
<pdfrwt beam="2">  1       21 0.14407251E-02 0.12500000E+03</pdfrwt>
<totfact> 0.46332596E+06</totfact>
</mgrwt>
</event>
<event>
 3    1  0.1615911E-001  0.1250000E+03  0.7546771E-02  0.1235069E+00
         21   -1    0    0  502  501  0.00000000000E+00  0.00000000000E+00  0.68091851527E+01  0.68091851527E+01  0.00000000000E+00 0. -1.
         21   -1    0    0  501  502 -0.00000000000E+00 -0.00000000000E+00 -0.57367363530E+03  0.57367363530E+03  0.00000000000E+00 0. -1.
         25    1    1    2    0    0  0.00000000000E+00  0.00000000000E+00 -0.56686445015E+03  0.58048282045E+03  0.12500000000E+03 0.  0.
<mgrwt>
<rscale>  0 0.12500000E+03</rscale>
<asrwt>0</asrwt>
<pdfrwt beam="1">  1       21 0.10475672E-02 0.12500000E+03</pdfrwt>
<pdfrwt beam="2">  1       21 0.88257461E-01 0.12500000E+03</pdfrwt>
<totfact> 0.37990417E+06</totfact>
</mgrwt>
</event>
<event>
 3    1  0.1615911E-001  0.1250000E+03  0.7546771E-02  0.1235069E+00
         21   -1    0    0  502  501  0.00000000000E+00  0.00000000000E+00  0.18131165088E+03  0.18131165088E+03  0.00000000000E+00 0. -1.
         21   -1    0    0  501  502 -0.00000000000E+00 -0.00000000000E+00 -0.21544395967E+02  0.21544395967E+02  0.00000000000E+00 0. -1.
         25    1    1    2    0    0  0.00000000000E+00  0.00000000000E+00  0.15976725491E+03  0.20285604685E+03  0.12500000000E+03 0.  0.
<mgrwt>
<rscale>  0 0.12500000E+03</rscale>
<asrwt>0</asrwt>
<pdfrwt beam="1">  1       21 0.27894099E-01 0.12500000E+03</pdfrwt>
<pdfrwt beam="2">  1       21 0.33145226E-02 0.12500000E+03</pdfrwt>
<totfact> 0.64619089E+06</totfact>
</mgrwt>
</event>
<event>
 3    1  0.1615911E-001  0.1250000E+03  0.7546771E-02  0.1235069E+00
         21   -1    0    0  502  501  0.00000000000E+00  0.00000000000E+00  0.18557647725E+03  0.18557647725E+03  0.00000000000E+00 0. -1.
         21   -1    0    0  501  502 -0.00000000000E+00 -0.00000000000E+00 -0.21049273366E+02  0.21049273366E+02  0.00000000000E+00 0. -1.
         25    1    1    2    0    0  0.00000000000E+00  0.00000000000E+00  0.16452720388E+03  0.20662575062E+03  0.12500000000E+03 0.  0.
<mgrwt>
<rscale>  0 0.12500000E+03</rscale>
<asrwt>0</asrwt>
<pdfrwt beam="1">  1       21 0.28550226E-01 0.12500000E+03</pdfrwt>
<pdfrwt beam="2">  1       21 0.32383499E-02 0.12500000E+03</pdfrwt>
<totfact> 0.64216303E+06</totfact>
</mgrwt>
</event>
<event>
 3    1  0.1615911E-001  0.1250000E+03  0.7546771E-02  0.1235069E+00
         21   -1    0    0  502  501  0.00000000000E+00  0.00000000000E+00  0.21563362451E+02  0.21563362451E+02  0.00000000000E+00 0.  1.
         21   -1    0    0  501  502 -0.00000000000E+00 -0.00000000000E+00 -0.18115217461E+03  0.18115217461E+03  0.00000000000E+00 0.  1.
         25    1    1    2    0    0  0.00000000000E+00  0.00000000000E+00 -0.15958881216E+03  0.20271553707E+03  0.12500000000E+03 0.  0.
<mgrwt>
<rscale>  0 0.12500000E+03</rscale>
<asrwt>0</asrwt>
<pdfrwt beam="1">  1       21 0.33174404E-02 0.12500000E+03</pdfrwt>
<pdfrwt beam="2">  1       21 0.27869565E-01 0.12500000E+03</pdfrwt>
<totfact> 0.64634188E+06</totfact>
</mgrwt>
</event>
<event>
 3    1  0.1615911E-001  0.1250000E+03  0.7546771E-02  0.1235069E+00
         21   -1    0    0  502  501  0.00000000000E+00  0.00000000000E+00  0.67246595028E+01  0.67246595028E+01  0.00000000000E+00 0.  1.
         21   -1    0    0  501  502 -0.00000000000E+00 -0.00000000000E+00 -0.58088442967E+03  0.58088442967E+03  0.00000000000E+00 0.  1.
         25    1    1    2    0    0  0.00000000000E+00  0.00000000000E+00 -0.57415977016E+03  0.58760908917E+03  0.12500000000E+03 0.  0.
<mgrwt>
<rscale>  0 0.12500000E+03</rscale>
<asrwt>0</asrwt>
<pdfrwt beam="1">  1       21 0.10345630E-02 0.12500000E+03</pdfrwt>
<pdfrwt beam="2">  1       21 0.89366835E-01 0.12500000E+03</pdfrwt>
<totfact> 0.37659056E+06</totfact>
</mgrwt>
</event>
<event>
 3    1  0.1615911E-001  0.1250000E+03  0.7546771E-02  0.1235069E+00
         21   -1    0    0  502  501  0.00000000000E+00  0.00000000000E+00  0.23805199169E+04  0.23805199169E+04  0.00000000000E+00 0.  1.
         21   -1    0    0  501  502 -0.00000000000E+00 -0.00000000000E+00 -0.16409230489E+01  0.16409230489E+01  0.00000000000E+00 0.  1.
         25    1    1    2    0    0  0.00000000000E+00  0.00000000000E+00  0.23788789938E+04  0.23821608399E+04  0.12500000000E+03 0.  0.
<mgrwt>
<rscale>  0 0.12500000E+03</rscale>
<asrwt>0</asrwt>
<pdfrwt beam="1">  1       21 0.36623107E+00 0.12500000E+03</pdfrwt>
<pdfrwt beam="2">  1       21 0.25245160E-03 0.12500000E+03</pdfrwt>
<totfact> 0.47861064E+05</totfact>
</mgrwt>
</event>
<event>
 3    1  0.1615911E-001  0.1250000E+03  0.7546771E-02  0.1235069E+00
         21   -1    0    0  502  501  0.00000000000E+00  0.00000000000E+00  0.22194700582E+02  0.22194700582E+02  0.00000000000E+00 0. -1.
         21   -1    0    0  501  502 -0.00000000000E+00 -0.00000000000E+00 -0.17599922042E+03  0.17599922042E+03  0.00000000000E+00 0. -1.
         25    1    1    2    0    0  0.00000000000E+00  0.00000000000E+00 -0.15380451984E+03  0.19819392101E+03  0.12500000000E+03 0.  0.
<mgrwt>
<rscale>  0 0.12500000E+03</rscale>
<asrwt>0</asrwt>
<pdfrwt beam="1">  1       21 0.34145694E-02 0.12500000E+03</pdfrwt>
<pdfrwt beam="2">  1       21 0.27076803E-01 0.12500000E+03</pdfrwt>
<totfact> 0.65123142E+06</totfact>
</mgrwt>
</event>
<event>
 3    1  0.1615911E-001  0.1250000E+03  0.7546771E-02  0.1235069E+00
         21   -1    0    0  502  501  0.00000000000E+00  0.00000000000E+00  0.18586813112E+01  0.18586813112E+01  0.00000000000E+00 0.  1.
         21   -1    0    0  501  502 -0.00000000000E+00 -0.00000000000E+00 -0.21016244025E+04  0.21016244025E+04  0.00000000000E+00 0.  1.
         25    1    1    2    0    0  0.00000000000E+00  0.00000000000E+00 -0.20997657212E+04  0.21034830838E+04  0.12500000000E+03 0.  0.
<mgrwt>
<rscale>  0 0.12500000E+03</rscale>
<asrwt>0</asrwt>
<pdfrwt beam="1">  1       21 0.28595216E-03 0.12500000E+03</pdfrwt>
<pdfrwt beam="2">  1       21 0.32332549E+00 0.12500000E+03</pdfrwt>
<totfact> 0.69824697E+05</totfact>
</mgrwt>
</event>
<event>
 3    1  0.1615911E-001  0.1250000E+03  0.7546771E-02  0.1235069E+00
         21   -1    0    0  502  501  0.00000000000E+00  0.00000000000E+00  0.41790296781E+01  0.41790296781E+01  0.00000000000E+00 0. -1.
         21   -1    0    0  501  502 -0.00000000000E+00 -0.00000000000E+00 -0.93472655158E+03  0.93472655158E+03  0.00000000000E+00 0. -1.
         25    1    1    2    0    0  0.00000000000E+00  0.00000000000E+00 -0.93054752190E+03  0.93890558126E+03  0.12500000000E+03 0.  0.
<mgrwt>
<rscale>  0 0.12500000E+03</rscale>
<asrwt>0</asrwt>
<pdfrwt beam="1">  1       21 0.64292815E-03 0.12500000E+03</pdfrwt>
<pdfrwt beam="2">  1       21 0.14380397E+00 0.12500000E+03</pdfrwt>
<totfact> 0.25210837E+06</totfact>
</mgrwt>
</event>
<event>
 3    1  0.1615911E-001  0.1250000E+03  0.7546771E-02  0.1235069E+00
         21   -1    0    0  502  501  0.00000000000E+00  0.00000000000E+00  0.52761903678E+03  0.52761903678E+03  0.00000000000E+00 0. -1.
         21   -1    0    0  501  502 -0.00000000000E+00 -0.00000000000E+00 -0.74035425708E+01  0.74035425708E+01  0.00000000000E+00 0. -1.
         25    1    1    2    0    0  0.00000000000E+00  0.00000000000E+00  0.52021549421E+03  0.53502257935E+03  0.12500000000E+03 0.  0.
<mgrwt>
<rscale>  0 0.12500000E+03</rscale>
<asrwt>0</asrwt>
<pdfrwt beam="1">  1       21 0.81172130E-01 0.12500000E+03</pdfrwt>
<pdfrwt beam="2">  1       21 0.11390070E-02 0.12500000E+03</pdfrwt>
<totfact> 0.40206266E+06</totfact>
</mgrwt>
</event>
<event>
 3    1  0.1615911E-001  0.1250000E+03  0.7546771E-02  0.1235069E+00
         21   -1    0    0  502  501  0.00000000000E+00  0.00000000000E+00  0.51496171029E+01  0.51496171029E+01  0.00000000000E+00 0. -1.
         21   -1    0    0  501  502 -0.00000000000E+00 -0.00000000000E+00 -0.75855154314E+03  0.75855154314E+03  0.00000000000E+00 0. -1.
         25    1    1    2    0    0  0.00000000000E+00  0.00000000000E+00 -0.75340192603E+03  0.76370116024E+03  0.12500000000E+03 0.  0.
<mgrwt>
<rscale>  0 0.12500000E+03</rscale>
<asrwt>0</asrwt>
<pdfrwt beam="1">  1       21 0.79224905E-03 0.12500000E+03</pdfrwt>
<pdfrwt beam="2">  1       21 0.11670020E+00 0.12500000E+03</pdfrwt>
<totfact> 0.30592738E+06</totfact>
</mgrwt>
</event>
<event>
 3    1  0.1615911E-001  0.1250000E+03  0.7546771E-02  0.1235069E+00
         21   -1    0    0  502  501  0.00000000000E+00  0.00000000000E+00  0.18878631633E+04  0.18878631633E+04  0.00000000000E+00 0.  1.
         21   -1    0    0  501  502 -0.00000000000E+00 -0.00000000000E+00 -0.20691383125E+01  0.20691383125E+01  0.00000000000E+00 0.  1.
         25    1    1    2    0    0  0.00000000000E+00  0.00000000000E+00  0.18857940250E+04  0.18899323016E+04  0.12500000000E+03 0.  0.
<mgrwt>
<rscale>  0 0.12500000E+03</rscale>
<asrwt>0</asrwt>
<pdfrwt beam="1">  1       21 0.29043911E+00 0.12500000E+03</pdfrwt>
<pdfrwt beam="2">  1       21 0.31833048E-03 0.12500000E+03</pdfrwt>
<totfact> 0.90722823E+05</totfact>
</mgrwt>
</event>
<event>
 3    1  0.1615911E-001  0.1250000E+03  0.7546771E-02  0.1235069E+00
         21   -1    0    0  502  501  0.00000000000E+00  0.00000000000E+00  0.41412592525E+02  0.41412592525E+02  0.00000000000E+00 0. -1.
         21   -1    0    0  501  502 -0.00000000000E+00 -0.00000000000E+00 -0.94325174104E+02  0.94325174104E+02  0.00000000000E+00 0. -1.
         25    1    1    2    0    0  0.00000000000E+00  0.00000000000E+00 -0.52912581580E+02  0.13573776663E+03  0.12500000000E+03 0.  0.
<mgrwt>
<rscale>  0 0.12500000E+03</rscale>
<asrwt>0</asrwt>
<pdfrwt beam="1">  1       21 0.63711682E-02 0.12500000E+03</pdfrwt>
<pdfrwt beam="2">  1       21 0.14511565E-01 0.12500000E+03</pdfrwt>
<totfact> 0.72598934E+06</totfact>
</mgrwt>
</event>
<event>
 3    1  0.1615911E-001  0.1250000E+03  0.7546771E-02  0.1235069E+00
         21   -1    0    0  502  501  0.00000000000E+00  0.00000000000E+00  0.46432353894E+02  0.46432353894E+02  0.00000000000E+00 0.  1.
         21   -1    0    0  501  502 -0.00000000000E+00 -0.00000000000E+00 -0.84127761623E+02  0.84127761623E+02  0.00000000000E+00 0.  1.
         25    1    1    2    0    0  0.00000000000E+00  0.00000000000E+00 -0.37695407729E+02  0.13056011552E+03  0.12500000000E+03 0.  0.
<mgrwt>
<rscale>  0 0.12500000E+03</rscale>
<asrwt>0</asrwt>
<pdfrwt beam="1">  1       21 0.71434392E-02 0.12500000E+03</pdfrwt>
<pdfrwt beam="2">  1       21 0.12942732E-01 0.12500000E+03</pdfrwt>
<totfact> 0.73290012E+06</totfact>
</mgrwt>
</event>
<event>
 3    1  0.1615911E-001  0.1250000E+03  0.7546771E-02  0.1235069E+00
         21   -1    0    0  502  501  0.00000000000E+00  0.00000000000E+00  0.16583506352E+04  0.16583506352E+04  0.00000000000E+00 0. -1.
         21   -1    0    0  501  502 -0.00000000000E+00 -0.00000000000E+00 -0.23555030626E+01  0.23555030626E+01  0.00000000000E+00 0. -1.
         25    1    1    2    0    0  0.00000000000E+00  0.00000000000E+00  0.16559951321E+04  0.16607061383E+04  0.12500000000E+03 0.  0.
<mgrwt>
<rscale>  0 0.12500000E+03</rscale>
<asrwt>0</asrwt>
<pdfrwt beam="1">  1       21 0.25512993E+00 0.12500000E+03</pdfrwt>
<pdfrwt beam="2">  1       21 0.36238641E-03 0.12500000E+03</pdfrwt>
<totfact> 0.11769006E+06</totfact>
</mgrwt>
</event>
<event>
 3    1  0.1615911E-001  0.1250000E+03  0.7546771E-02  0.1235069E+00
         21   -1    0    0  502  501  0.00000000000E+00  0.00000000000E+00  0.18006735846E+04  0.18006735846E+04  0.00000000000E+00 0. -1.
         21   -1    0    0  501  502 -0.00000000000E+00 -0.00000000000E+00 -0.21693270970E+01  0.21693270970E+01  0.00000000000E+00 0. -1.
         25    1    1    2    0    0  0.00000000000E+00  0.00000000000E+00  0.17985042575E+04  0.18028429117E+04  0.12500000000E+03 0.  0.
<mgrwt>
<rscale>  0 0.12500000E+03</rscale>
<asrwt>0</asrwt>
<pdfrwt beam="1">  1       21 0.27702551E+00 0.12500000E+03</pdfrwt>
<pdfrwt beam="2">  1       21 0.33374407E-03 0.12500000E+03</pdfrwt>
<totfact> 0.10037320E+06</totfact>
</mgrwt>
</event>
<event>
 3    1  0.1615911E-001  0.1250000E+03  0.7546771E-02  0.1235069E+00
         21   -1    0    0  502  501  0.00000000000E+00  0.00000000000E+00  0.28328190129E+02  0.28328190129E+02  0.00000000000E+00 0.  1.
         21   -1    0    0  501  502 -0.00000000000E+00 -0.00000000000E+00 -0.13789267801E+03  0.13789267801E+03  0.00000000000E+00 0.  1.
         25    1    1    2    0    0  0.00000000000E+00  0.00000000000E+00 -0.10956448788E+03  0.16622086814E+03  0.12500000000E+03 0.  0.
<mgrwt>
<rscale>  0 0.12500000E+03</rscale>
<asrwt>0</asrwt>
<pdfrwt beam="1">  1       21 0.43581831E-02 0.12500000E+03</pdfrwt>
<pdfrwt beam="2">  1       21 0.21214258E-01 0.12500000E+03</pdfrwt>
<totfact> 0.68767249E+06</totfact>
</mgrwt>
</event>
<event>
 3    1  0.1615911E-001  0.1250000E+03  0.7546771E-02  0.1235069E+00
         21   -1    0    0  502  501  0.00000000000E+00  0.00000000000E+00  0.18107292377E+03  0.18107292377E+03  0.00000000000E+00 0. -1.
         21   -1    0    0  501  502 -0.00000000000E+00 -0.00000000000E+00 -0.21572800166E+02  0.21572800166E+02  0.00000000000E+00 0. -1.
         25    1    1    2    0    0  0.00000000000E+00  0.00000000000E+00  0.15950012361E+03  0.20264572394E+03  0.12500000000E+03 0.  0.
<mgrwt>
<rscale>  0 0.12500000E+03</rscale>
<asrwt>0</asrwt>
<pdfrwt beam="1">  1       21 0.27857372E-01 0.12500000E+03</pdfrwt>
<pdfrwt beam="2">  1       21 0.33188925E-02 0.12500000E+03</pdfrwt>
<totfact> 0.64641694E+06</totfact>
</mgrwt>
</event>
<event>
 3    1  0.1615911E-001  0.1250000E+03  0.7546771E-02  0.1235069E+00
         21   -1    0    0  502  501  0.00000000000E+00  0.00000000000E+00  0.12357642992E+02  0.12357642992E+02  0.00000000000E+00 0.  1.
         21   -1    0    0  501  502 -0.00000000000E+00 -0.00000000000E+00 -0.31609992314E+03  0.31609992314E+03  0.00000000000E+00 0.  1.
         25    1    1    2    0    0  0.00000000000E+00  0.00000000000E+00 -0.30374228015E+03  0.32845756614E+03  0.12500000000E+03 0.  0.
<mgrwt>
<rscale>  0 0.12500000E+03</rscale>
<asrwt>0</asrwt>
<pdfrwt beam="1">  1       21 0.19011762E-02 0.12500000E+03</pdfrwt>
<pdfrwt beam="2">  1       21 0.48630749E-01 0.12500000E+03</pdfrwt>
<totfact> 0.53169860E+06</totfact>
</mgrwt>
</event>
<event>
 3    1  0.1615911E-001  0.1250000E+03  0.7546771E-02  0.1235069E+00
         21   -1    0    0  502  501  0.00000000000E+00  0.00000000000E+00  0.17607290387E+04  0.17607290387E+04  0.00000000000E+00 0.  1.
         21   -1    0    0  501  502 -0.00000000000E+00 -0.00000000000E+00 -0.22185412487E+01  0.22185412487E+01  0.00000000000E+00 0.  1.
         25    1    1    2    0    0  0.00000000000E+00  0.00000000000E+00  0.17585104974E+04  0.17629475799E+04  0.12500000000E+03 0.  0.
<mgrwt>
<rscale>  0 0.12500000E+03</rscale>
<asrwt>0</asrwt>
<pdfrwt beam="1">  1       21 0.27088027E+00 0.12500000E+03</pdfrwt>
<pdfrwt beam="2">  1       21 0.34131545E-03 0.12500000E+03</pdfrwt>
<totfact> 0.10503078E+06</totfact>
</mgrwt>
</event>
<event>
 3    1  0.1615911E-001  0.1250000E+03  0.7546771E-02  0.1235069E+00
         21   -1    0    0  502  501  0.00000000000E+00  0.00000000000E+00  0.13680508326E+03  0.13680508326E+03  0.00000000000E+00 0.  1.
         21   -1    0    0  501  502 -0.00000000000E+00 -0.00000000000E+00 -0.28553398068E+02  0.28553398068E+02  0.00000000000E+00 0.  1.
         25    1    1    2    0    0  0.00000000000E+00  0.00000000000E+00  0.10825168519E+03  0.16535848132E+03  0.12500000000E+03 0.  0.
<mgrwt>
<rscale>  0 0.12500000E+03</rscale>
<asrwt>0</asrwt>
<pdfrwt beam="1">  1       21 0.21046936E-01 0.12500000E+03</pdfrwt>
<pdfrwt beam="2">  1       21 0.43928305E-02 0.12500000E+03</pdfrwt>
<totfact> 0.68870603E+06</totfact>
</mgrwt>
</event>
<event>
 3    1  0.1615911E-001  0.1250000E+03  0.7546771E-02  0.1235069E+00
         21   -1    0    0  502  501  0.00000000000E+00  0.00000000000E+00  0.11361864620E+02  0.11361864620E+02  0.00000000000E+00 0. -1.
         21   -1    0    0  501  502 -0.00000000000E+00 -0.00000000000E+00 -0.34380360362E+03  0.34380360362E+03  0.00000000000E+00 0. -1.
         25    1    1    2    0    0  0.00000000000E+00  0.00000000000E+00 -0.33244173900E+03  0.35516546824E+03  0.12500000000E+03 0.  0.
<mgrwt>
<rscale>  0 0.12500000E+03</rscale>
<asrwt>0</asrwt>
<pdfrwt beam="1">  1       21 0.17479790E-02 0.12500000E+03</pdfrwt>
<pdfrwt beam="2">  1       21 0.52892867E-01 0.12500000E+03</pdfrwt>
<totfact> 0.51159194E+06</totfact>
</mgrwt>
</event>
<event>
 3    1  0.1615911E-001  0.1250000E+03  0.7546771E-02  0.1235069E+00
         21   -1    0    0  502  501  0.00000000000E+00  0.00000000000E+00  0.52759615989E+01  0.52759615989E+01  0.00000000000E+00 0. -1.
         21   -1    0    0  501  502 -0.00000000000E+00 -0.00000000000E+00 -0.74038635930E+03  0.74038635930E+03  0.00000000000E+00 0. -1.
         25    1    1    2    0    0  0.00000000000E+00  0.00000000000E+00 -0.73511039770E+03  0.74566232090E+03  0.12500000000E+03 0.  0.
<mgrwt>
<rscale>  0 0.12500000E+03</rscale>
<asrwt>0</asrwt>
<pdfrwt beam="1">  1       21 0.81168680E-03 0.12500000E+03</pdfrwt>
<pdfrwt beam="2">  1       21 0.11390554E+00 0.12500000E+03</pdfrwt>
<totfact> 0.31222025E+06</totfact>
</mgrwt>
</event>
<event>
 3    1  0.1615911E-001  0.1250000E+03  0.7546771E-02  0.1235069E+00
         21   -1    0    0  502  501  0.00000000000E+00  0.00000000000E+00  0.15042139850E+03  0.15042139850E+03  0.00000000000E+00 0. -1.
         21   -1    0    0  501  502 -0.00000000000E+00 -0.00000000000E+00 -0.25968712157E+02  0.25968712157E+02  0.00000000000E+00 0. -1.
         25    1    1    2    0    0  0.00000000000E+00  0.00000000000E+00  0.12445268634E+03  0.17639011066E+03  0.12500000000E+03 0.  0.
<mgrwt>
<rscale>  0 0.12500000E+03</rscale>
<asrwt>0</asrwt>
<pdfrwt beam="1">  1       21 0.23141753E-01 0.12500000E+03</pdfrwt>
<pdfrwt beam="2">  1       21 0.39951866E-02 0.12500000E+03</pdfrwt>
<totfact> 0.67568084E+06</totfact>
</mgrwt>
</event>
<event>
 3    1  0.1615911E-001  0.1250000E+03  0.7546771E-02  0.1235069E+00
         21   -1    0    0  502  501  0.00000000000E+00  0.00000000000E+00  0.42849644791E+03  0.42849644791E+03  0.00000000000E+00 0.  1.
         21   -1    0    0  501  502 -0.00000000000E+00 -0.00000000000E+00 -0.91161782532E+01  0.91161782532E+01  0.00000000000E+00 0.  1.
         25    1    1    2    0    0  0.00000000000E+00  0.00000000000E+00  0.41938026966E+03  0.43761262616E+03  0.12500000000E+03 0.  0.
<mgrwt>
<rscale>  0 0.12500000E+03</rscale>
<asrwt>0</asrwt>
<pdfrwt beam="1">  1       21 0.65922515E-01 0.12500000E+03</pdfrwt>
<pdfrwt beam="2">  1       21 0.14024893E-02 0.12500000E+03</pdfrwt>
<totfact> 0.45642667E+06</totfact>
</mgrwt>
</event>
<event>
 3    1  0.1615911E-001  0.1250000E+03  0.7546771E-02  0.1235069E+00
         21   -1    0    0  502  501  0.00000000000E+00  0.00000000000E+00  0.10068633686E+02  0.10068633686E+02  0.00000000000E+00 0. -1.
         21   -1    0    0  501  502 -0.00000000000E+00 -0.00000000000E+00 -0.38796227193E+03  0.38796227193E+03  0.00000000000E+00 0. -1.
         25    1    1    2    0    0  0.00000000000E+00  0.00000000000E+00 -0.37789363825E+03  0.39803090562E+03  0.12500000000E+03 0.  0.
<mgrwt>
<rscale>  0 0.12500000E+03</rscale>
<asrwt>0</asrwt>
<pdfrwt beam="1">  1       21 0.15490207E-02 0.12500000E+03</pdfrwt>
<pdfrwt beam="2">  1       21 0.59686497E-01 0.12500000E+03</pdfrwt>
<totfact> 0.48172236E+06</totfact>
</mgrwt>
</event>
<event>
 3    1  0.1615911E-001  0.1250000E+03  0.7546771E-02  0.1235069E+00
         21   -1    0    0  502  501  0.00000000000E+00  0.00000000000E+00  0.35976019443E+02  0.35976019443E+02  0.00000000000E+00 0. -1.
         21   -1    0    0  501  502 -0.00000000000E+00 -0.00000000000E+00 -0.10857927198E+03  0.10857927198E+03  0.00000000000E+00 0. -1.
         25    1    1    2    0    0  0.00000000000E+00  0.00000000000E+00 -0.72603252540E+02  0.14455529143E+03  0.12500000000E+03 0.  0.
<mgrwt>
<rscale>  0 0.12500000E+03</rscale>
<asrwt>0</asrwt>
<pdfrwt beam="1">  1       21 0.55347724E-02 0.12500000E+03</pdfrwt>
<pdfrwt beam="2">  1       21 0.16704503E-01 0.12500000E+03</pdfrwt>
<totfact> 0.71450059E+06</totfact>
</mgrwt>
</event>
<event>
 3    1  0.1615911E-001  0.1250000E+03  0.7546771E-02  0.1235069E+00
         21   -1    0    0  502  501  0.00000000000E+00  0.00000000000E+00  0.20443008095E+02  0.20443008095E+02  0.00000000000E+00 0.  1.
         21   -1    0    0  501  502 -0.00000000000E+00 -0.00000000000E+00 -0.19108000064E+03  0.19108000064E+03  0.00000000000E+00 0.  1.
         25    1    1    2    0    0  0.00000000000E+00  0.00000000000E+00 -0.17063699255E+03  0.21152300874E+03  0.12500000000E+03 0.  0.
<mgrwt>
<rscale>  0 0.12500000E+03</rscale>
<asrwt>0</asrwt>
<pdfrwt beam="1">  1       21 0.31450784E-02 0.12500000E+03</pdfrwt>
<pdfrwt beam="2">  1       21 0.29396921E-01 0.12500000E+03</pdfrwt>
<totfact> 0.63699654E+06</totfact>
</mgrwt>
</event>
<event>
 3    1  0.1615911E-001  0.1250000E+03  0.7546771E-02  0.1235069E+00
         21   -1    0    0  502  501  0.00000000000E+00  0.00000000000E+00  0.36970084398E+02  0.36970084398E+02  0.00000000000E+00 0. -1.
         21   -1    0    0  501  502 -0.00000000000E+00 -0.00000000000E+00 -0.10565975338E+03  0.10565975338E+03  0.00000000000E+00 0. -1.
         25    1    1    2    0    0  0.00000000000E+00  0.00000000000E+00 -0.68689668984E+02  0.14262983778E+03  0.12500000000E+03 0.  0.
<mgrwt>
<rscale>  0 0.12500000E+03</rscale>
<asrwt>0</asrwt>
<pdfrwt beam="1">  1       21 0.56877053E-02 0.12500000E+03</pdfrwt>
<pdfrwt beam="2">  1       21 0.16255347E-01 0.12500000E+03</pdfrwt>
<totfact> 0.71697821E+06</totfact>
</mgrwt>
</event>
<event>
 3    1  0.1615911E-001  0.1250000E+03  0.7546771E-02  0.1235069E+00
         21   -1    0    0  502  501  0.00000000000E+00  0.00000000000E+00  0.81843963639E+02  0.81843963639E+02  0.00000000000E+00 0. -1.
         21   -1    0    0  501  502 -0.00000000000E+00 -0.00000000000E+00 -0.47728015926E+02  0.47728015926E+02  0.00000000000E+00 0. -1.
         25    1    1    2    0    0  0.00000000000E+00  0.00000000000E+00  0.34115947714E+02  0.12957197956E+03  0.12500000000E+03 0.  0.
<mgrwt>
<rscale>  0 0.12500000E+03</rscale>
<asrwt>0</asrwt>
<pdfrwt beam="1">  1       21 0.12591379E-01 0.12500000E+03</pdfrwt>
<pdfrwt beam="2">  1       21 0.73427717E-02 0.12500000E+03</pdfrwt>
<totfact> 0.73422176E+06</totfact>
</mgrwt>
</event>
<event>
 3    1  0.1615911E-001  0.1250000E+03  0.7546771E-02  0.1235069E+00
         21   -1    0    0  502  501  0.00000000000E+00  0.00000000000E+00  0.40406567066E+02  0.40406567066E+02  0.00000000000E+00 0. -1.
         21   -1    0    0  501  502 -0.00000000000E+00 -0.00000000000E+00 -0.96673642024E+02  0.96673642024E+02  0.00000000000E+00 0. -1.
         25    1    1    2    0    0  0.00000000000E+00  0.00000000000E+00 -0.56267074958E+02  0.13708020909E+03  0.12500000000E+03 0.  0.
<mgrwt>
<rscale>  0 0.12500000E+03</rscale>
<asrwt>0</asrwt>
<pdfrwt beam="1">  1       21 0.62163950E-02 0.12500000E+03</pdfrwt>
<pdfrwt beam="2">  1       21 0.14872868E-01 0.12500000E+03</pdfrwt>
<totfact> 0.72422193E+06</totfact>
</mgrwt>
</event>
<event>
 3    1  0.1615911E-001  0.1250000E+03  0.7546771E-02  0.1235069E+00
         21   -1    0    0  502  501  0.00000000000E+00  0.00000000000E+00  0.62164597532E+02  0.62164597532E+02  0.00000000000E+00 0.  1.
         21   -1    0    0  501  502 -0.00000000000E+00 -0.00000000000E+00 -0.62837212096E+02  0.62837212096E+02  0.00000000000E+00 0.  1.
         25    1    1    2    0    0  0.00000000000E+00  0.00000000000E+00 -0.67261456337E+00  0.12500180963E+03  0.12500000000E+03 0.  0.
<mgrwt>
<rscale>  0 0.12500000E+03</rscale>
<asrwt>0</asrwt>
<pdfrwt beam="1">  1       21 0.95637843E-02 0.12500000E+03</pdfrwt>
<pdfrwt beam="2">  1       21 0.96672634E-02 0.12500000E+03</pdfrwt>
<totfact> 0.74043337E+06</totfact>
</mgrwt>
</event>
<event>
 3    1  0.1615911E-001  0.1250000E+03  0.7546771E-02  0.1235069E+00
         21   -1    0    0  502  501  0.00000000000E+00  0.00000000000E+00  0.12823847520E+03  0.12823847520E+03  0.00000000000E+00 0. -1.
         21   -1    0    0  501  502 -0.00000000000E+00 -0.00000000000E+00 -0.30460826940E+02  0.30460826940E+02  0.00000000000E+00 0. -1.
         25    1    1    2    0    0  0.00000000000E+00  0.00000000000E+00  0.97777648255E+02  0.15869930214E+03  0.12500000000E+03 0.  0.
<mgrwt>
<rscale>  0 0.12500000E+03</rscale>
<asrwt>0</asrwt>
<pdfrwt beam="1">  1       21 0.19728996E-01 0.12500000E+03</pdfrwt>
<pdfrwt beam="2">  1       21 0.46862811E-02 0.12500000E+03</pdfrwt>
<totfact> 0.69678777E+06</totfact>
</mgrwt>
</event>
<event>
 3    1  0.1615911E-001  0.1250000E+03  0.7546771E-02  0.1235069E+00
         21   -1    0    0  502  501  0.00000000000E+00  0.00000000000E+00  0.18907956138E+03  0.18907956138E+03  0.00000000000E+00 0. -1.
         21   -1    0    0  501  502 -0.00000000000E+00 -0.00000000000E+00 -0.20659292689E+02  0.20659292689E+02  0.00000000000E+00 0. -1.
         25    1    1    2    0    0  0.00000000000E+00  0.00000000000E+00  0.16842026869E+03  0.20973885407E+03  0.12500000000E+03 0.  0.
<mgrwt>
<rscale>  0 0.12500000E+03</rscale>
<asrwt>0</asrwt>
<pdfrwt beam="1">  1       21 0.29089162E-01 0.12500000E+03</pdfrwt>
<pdfrwt beam="2">  1       21 0.31783529E-02 0.12500000E+03</pdfrwt>
<totfact> 0.63887022E+06</totfact>
</mgrwt>
</event>
<event>
 3    1  0.1615911E-001  0.1250000E+03  0.7546771E-02  0.1235069E+00
         21   -1    0    0  502  501  0.00000000000E+00  0.00000000000E+00  0.70028920988E+02  0.70028920988E+02  0.00000000000E+00 0.  1.
         21   -1    0    0  501  502 -0.00000000000E+00 -0.00000000000E+00 -0.55780525316E+02  0.55780525316E+02  0.00000000000E+00 0.  1.
         25    1    1    2    0    0  0.00000000000E+00  0.00000000000E+00  0.14248395672E+02  0.12580944630E+03  0.12500000000E+03 0.  0.
<mgrwt>
<rscale>  0 0.12500000E+03</rscale>
<asrwt>0</asrwt>
<pdfrwt beam="1">  1       21 0.10773680E-01 0.12500000E+03</pdfrwt>
<pdfrwt beam="2">  1       21 0.85816193E-02 0.12500000E+03</pdfrwt>
<totfact> 0.73932364E+06</totfact>
</mgrwt>
</event>
<event>
 3    1  0.1615911E-001  0.1250000E+03  0.7546771E-02  0.1235069E+00
         21   -1    0    0  502  501  0.00000000000E+00  0.00000000000E+00  0.77538242503E+01  0.77538242503E+01  0.00000000000E+00 0.  1.
         21   -1    0    0  501  502 -0.00000000000E+00 -0.00000000000E+00 -0.50378366518E+03  0.50378366518E+03  0.00000000000E+00 0.  1.
         25    1    1    2    0    0  0.00000000000E+00  0.00000000000E+00 -0.49602984093E+03  0.51153748943E+03  0.12500000000E+03 0.  0.
<mgrwt>
<rscale>  0 0.12500000E+03</rscale>
<asrwt>0</asrwt>
<pdfrwt beam="1">  1       21 0.11928957E-02 0.12500000E+03</pdfrwt>
<pdfrwt beam="2">  1       21 0.77505200E-01 0.12500000E+03</pdfrwt>
<totfact> 0.41425193E+06</totfact>
</mgrwt>
</event>
<event>
 3    1  0.1615911E-001  0.1250000E+03  0.7546771E-02  0.1235069E+00
         21   -1    0    0  502  501  0.00000000000E+00  0.00000000000E+00  0.84337152120E+03  0.84337152120E+03  0.00000000000E+00 0.  1.
         21   -1    0    0  501  502 -0.00000000000E+00 -0.00000000000E+00 -0.46317072628E+01  0.46317072628E+01  0.00000000000E+00 0.  1.
         25    1    1    2    0    0  0.00000000000E+00  0.00000000000E+00  0.83873981394E+03  0.84800322847E+03  0.12500000000E+03 0.  0.
<mgrwt>
<rscale>  0 0.12500000E+03</rscale>
<asrwt>0</asrwt>
<pdfrwt beam="1">  1       21 0.12974934E+00 0.12500000E+03</pdfrwt>
<pdfrwt beam="2">  1       21 0.71257102E-03 0.12500000E+03</pdfrwt>
<totfact> 0.27832842E+06</totfact>
</mgrwt>
</event>
<event>
 3    1  0.1615911E-001  0.1250000E+03  0.7546771E-02  0.1235069E+00
         21   -1    0    0  502  501  0.00000000000E+00  0.00000000000E+00  0.13159691008E+03  0.13159691008E+03  0.00000000000E+00 0. -1.
         21   -1    0    0  501  502 -0.00000000000E+00 -0.00000000000E+00 -0.29683447716E+02  0.29683447716E+02  0.00000000000E+00 0. -1.
         25    1    1    2    0    0  0.00000000000E+00  0.00000000000E+00  0.10191346237E+03  0.16128035780E+03  0.12500000000E+03 0.  0.
<mgrwt>
<rscale>  0 0.12500000E+03</rscale>
<asrwt>0</asrwt>
<pdfrwt beam="1">  1       21 0.20245678E-01 0.12500000E+03</pdfrwt>
<pdfrwt beam="2">  1       21 0.45666843E-02 0.12500000E+03</pdfrwt>
<totfact> 0.69363388E+06</totfact>
</mgrwt>
</event>
<event>
 3    1  0.1615911E-001  0.1250000E+03  0.7546771E-02  0.1235069E+00
         21   -1    0    0  502  501  0.00000000000E+00  0.00000000000E+00  0.50235801593E+02  0.50235801593E+02  0.00000000000E+00 0.  1.
         21   -1    0    0  501  502 -0.00000000000E+00 -0.00000000000E+00 -0.77758289430E+02  0.77758289430E+02  0.00000000000E+00 0.  1.
         25    1    1    2    0    0  0.00000000000E+00  0.00000000000E+00 -0.27522487837E+02  0.12799409102E+03  0.12500000000E+03 0.  0.
<mgrwt>
<rscale>  0 0.12500000E+03</rscale>
<asrwt>0</asrwt>
<pdfrwt beam="1">  1       21 0.77285849E-02 0.12500000E+03</pdfrwt>
<pdfrwt beam="2">  1       21 0.11962814E-01 0.12500000E+03</pdfrwt>
<totfact> 0.73634357E+06</totfact>
</mgrwt>
</event>
<event>
 3    1  0.1615911E-001  0.1250000E+03  0.7546771E-02  0.1235069E+00
         21   -1    0    0  502  501  0.00000000000E+00  0.00000000000E+00  0.27612039866E+01  0.27612039866E+01  0.00000000000E+00 0. -1.
         21   -1    0    0  501  502 -0.00000000000E+00 -0.00000000000E+00 -0.14146908446E+04  0.14146908446E+04  0.00000000000E+00 0. -1.
         25    1    1    2    0    0  0.00000000000E+00  0.00000000000E+00 -0.14119296406E+04  0.14174520486E+04  0.12500000000E+03 0.  0.
<mgrwt>
<rscale>  0 0.12500000E+03</rscale>
<asrwt>0</asrwt>
<pdfrwt beam="1">  1       21 0.42480115E-03 0.12500000E+03</pdfrwt>
<pdfrwt beam="2">  1       21 0.21764447E+00 0.12500000E+03</pdfrwt>
<totfact> 0.15263197E+06</totfact>
</mgrwt>
</event>
<event>
 3    1  0.1615911E-001  0.1250000E+03  0.7546771E-02  0.1235069E+00
         21   -1    0    0  502  501  0.00000000000E+00  0.00000000000E+00  0.38007480168E+03  0.38007480168E+03  0.00000000000E+00 0. -1.
         21   -1    0    0  501  502 -0.00000000000E+00 -0.00000000000E+00 -0.10277582157E+02  0.10277582157E+02  0.00000000000E+00 0. -1.
         25    1    1    2    0    0  0.00000000000E+00  0.00000000000E+00  0.36979721953E+03  0.39035238384E+03  0.12500000000E+03 0.  0.
<mgrwt>
<rscale>  0 0.12500000E+03</rscale>
<asrwt>0</asrwt>
<pdfrwt beam="1">  1       21 0.58473036E-01 0.12500000E+03</pdfrwt>
<pdfrwt beam="2">  1       21 0.15811668E-02 0.12500000E+03</pdfrwt>
<totfact> 0.48687924E+06</totfact>
</mgrwt>
</event>
<event>
 3    1  0.1615911E-001  0.1250000E+03  0.7546771E-02  0.1235069E+00
         21   -1    0    0  502  501  0.00000000000E+00  0.00000000000E+00  0.10796796012E+02  0.10796796012E+02  0.00000000000E+00 0. -1.
         21   -1    0    0  501  502 -0.00000000000E+00 -0.00000000000E+00 -0.36179714758E+03  0.36179714758E+03  0.00000000000E+00 0. -1.
         25    1    1    2    0    0  0.00000000000E+00  0.00000000000E+00 -0.35100035157E+03  0.37259394359E+03  0.12500000000E+03 0.  0.
<mgrwt>
<rscale>  0 0.12500000E+03</rscale>
<asrwt>0</asrwt>
<pdfrwt beam="1">  1       21 0.16610459E-02 0.12500000E+03</pdfrwt>
<pdfrwt beam="2">  1       21 0.55661087E-01 0.12500000E+03</pdfrwt>
<totfact> 0.49911883E+06</totfact>
</mgrwt>
</event>
<event>
 3    1  0.1615911E-001  0.1250000E+03  0.7546771E-02  0.1235069E+00
         21   -1    0    0  502  501  0.00000000000E+00  0.00000000000E+00  0.99810593406E+03  0.99810593406E+03  0.00000000000E+00 0. -1.
         21   -1    0    0  501  502 -0.00000000000E+00 -0.00000000000E+00 -0.39136627353E+01  0.39136627353E+01  0.00000000000E+00 0. -1.
         25    1    1    2    0    0  0.00000000000E+00  0.00000000000E+00  0.99419227133E+03  0.10020195968E+04  0.12500000000E+03 0.  0.
<mgrwt>
<rscale>  0 0.12500000E+03</rscale>
<asrwt>0</asrwt>
<pdfrwt beam="1">  1       21 0.15355456E+00 0.12500000E+03</pdfrwt>
<pdfrwt beam="2">  1       21 0.60210275E-03 0.12500000E+03</pdfrwt>
<totfact> 0.23568349E+06</totfact>
</mgrwt>
</event>
<event>
 3    1  0.1615911E-001  0.1250000E+03  0.7546771E-02  0.1235069E+00
         21   -1    0    0  502  501  0.00000000000E+00  0.00000000000E+00  0.98623381297E+02  0.98623381297E+02  0.00000000000E+00 0.  1.
         21   -1    0    0  501  502 -0.00000000000E+00 -0.00000000000E+00 -0.39607747662E+02  0.39607747662E+02  0.00000000000E+00 0.  1.
         25    1    1    2    0    0  0.00000000000E+00  0.00000000000E+00  0.59015633635E+02  0.13823112896E+03  0.12500000000E+03 0.  0.
<mgrwt>
<rscale>  0 0.12500000E+03</rscale>
<asrwt>0</asrwt>
<pdfrwt beam="1">  1       21 0.15172828E-01 0.12500000E+03</pdfrwt>
<pdfrwt beam="2">  1       21 0.60934996E-02 0.12500000E+03</pdfrwt>
<totfact> 0.72271080E+06</totfact>
</mgrwt>
</event>
<event>
 3    1  0.1615911E-001  0.1250000E+03  0.7546771E-02  0.1235069E+00
         21   -1    0    0  502  501  0.00000000000E+00  0.00000000000E+00  0.11631917088E+03  0.11631917088E+03  0.00000000000E+00 0.  1.
         21   -1    0    0  501  502 -0.00000000000E+00 -0.00000000000E+00 -0.33582168532E+02  0.33582168532E+02  0.00000000000E+00 0.  1.
         25    1    1    2    0    0  0.00000000000E+00  0.00000000000E+00  0.82737002346E+02  0.14990133941E+03  0.12500000000E+03 0.  0.
<mgrwt>
<rscale>  0 0.12500000E+03</rscale>
<asrwt>0</asrwt>
<pdfrwt beam="1">  1       21 0.17895257E-01 0.12500000E+03</pdfrwt>
<pdfrwt beam="2">  1       21 0.51664875E-02 0.12500000E+03</pdfrwt>
<totfact> 0.70771597E+06</totfact>
</mgrwt>
</event>
<event>
 3    1  0.1615911E-001  0.1250000E+03  0.7546771E-02  0.1235069E+00
         21   -1    0    0  502  501  0.00000000000E+00  0.00000000000E+00  0.81477395546E+02  0.81477395546E+02  0.00000000000E+00 0.  1.
         21   -1    0    0  501  502 -0.00000000000E+00 -0.00000000000E+00 -0.47942745025E+02  0.47942745025E+02  0.00000000000E+00 0.  1.
         25    1    1    2    0    0  0.00000000000E+00  0.00000000000E+00  0.33534650521E+02  0.12942014057E+03  0.12500000000E+03 0.  0.
<mgrwt>
<rscale>  0 0.12500000E+03</rscale>
<asrwt>0</asrwt>
<pdfrwt beam="1">  1       21 0.12534984E-01 0.12500000E+03</pdfrwt>
<pdfrwt beam="2">  1       21 0.73758069E-02 0.12500000E+03</pdfrwt>
<totfact> 0.73442517E+06</totfact>
</mgrwt>
</event>
<event>
 3    1  0.1615911E-001  0.1250000E+03  0.7546771E-02  0.1235069E+00
         21   -1    0    0  502  501  0.00000000000E+00  0.00000000000E+00  0.46730411210E+03  0.46730411210E+03  0.00000000000E+00 0. -1.
         21   -1    0    0  501  502 -0.00000000000E+00 -0.00000000000E+00 -0.83591175400E+01  0.83591175400E+01  0.00000000000E+00 0. -1.
         25    1    1    2    0    0  0.00000000000E+00  0.00000000000E+00  0.45894499456E+03  0.47566322964E+03  0.12500000000E+03 0.  0.
<mgrwt>
<rscale>  0 0.12500000E+03</rscale>
<asrwt>0</asrwt>
<pdfrwt beam="1">  1       21 0.71892920E-01 0.12500000E+03</pdfrwt>
<pdfrwt beam="2">  1       21 0.12860184E-02 0.12500000E+03</pdfrwt>
<totfact> 0.43395431E+06</totfact>
</mgrwt>
</event>
<event>
 3    1  0.1615911E-001  0.1250000E+03  0.7546771E-02  0.1235069E+00
         21   -1    0    0  502  501  0.00000000000E+00  0.00000000000E+00  0.22946773489E+02  0.22946773489E+02  0.00000000000E+00 0.  1.
         21   -1    0    0  501  502 -0.00000000000E+00 -0.00000000000E+00 -0.17023090422E+03  0.17023090422E+03  0.00000000000E+00 0.  1.
         25    1    1    2    0    0  0.00000000000E+00  0.00000000000E+00 -0.14728413073E+03  0.19317767771E+03  0.12500000000E+03 0.  0.
<mgrwt>
<rscale>  0 0.12500000E+03</rscale>
<asrwt>0</asrwt>
<pdfrwt beam="1">  1       21 0.35302728E-02 0.12500000E+03</pdfrwt>
<pdfrwt beam="2">  1       21 0.26189370E-01 0.12500000E+03</pdfrwt>
<totfact> 0.65671024E+06</totfact>
</mgrwt>
</event>
<event>
 3    1  0.1615911E-001  0.1250000E+03  0.7546771E-02  0.1235069E+00
         21   -1    0    0  502  501  0.00000000000E+00  0.00000000000E+00  0.29471295221E+03  0.29471295221E+03  0.00000000000E+00 0.  1.
         21   -1    0    0  501  502 -0.00000000000E+00 -0.00000000000E+00 -0.13254422552E+02  0.13254422552E+02  0.00000000000E+00 0.  1.
         25    1    1    2    0    0  0.00000000000E+00  0.00000000000E+00  0.28145852965E+03  0.30796737476E+03  0.12500000000E+03 0.  0.
<mgrwt>
<rscale>  0 0.12500000E+03</rscale>
<asrwt>0</asrwt>
<pdfrwt beam="1">  1       21 0.45340449E-01 0.12500000E+03</pdfrwt>
<pdfrwt beam="2">  1       21 0.20391422E-02 0.12500000E+03</pdfrwt>
<totfact> 0.54800488E+06</totfact>
</mgrwt>
</event>
<event>
 3    1  0.1615911E-001  0.1250000E+03  0.7546771E-02  0.1235069E+00
         21   -1    0    0  502  501  0.00000000000E+00  0.00000000000E+00  0.10581206633E+04  0.10581206633E+04  0.00000000000E+00 0.  1.
         21   -1    0    0  501  502 -0.00000000000E+00 -0.00000000000E+00 -0.36916867190E+01  0.36916867190E+01  0.00000000000E+00 0.  1.
         25    1    1    2    0    0  0.00000000000E+00  0.00000000000E+00  0.10544289766E+04  0.10618123501E+04  0.12500000000E+03 0.  0.
<mgrwt>
<rscale>  0 0.12500000E+03</rscale>
<asrwt>0</asrwt>
<pdfrwt beam="1">  1       21 0.16278755E+00 0.12500000E+03</pdfrwt>
<pdfrwt beam="2">  1       21 0.56795264E-03 0.12500000E+03</pdfrwt>
<totfact> 0.22121337E+06</totfact>
</mgrwt>
</event>
<event>
 3    1  0.1615911E-001  0.1250000E+03  0.7546771E-02  0.1235069E+00
         21   -1    0    0  502  501  0.00000000000E+00  0.00000000000E+00  0.45542438916E+02  0.45542438916E+02  0.00000000000E+00 0.  1.
         21   -1    0    0  501  502 -0.00000000000E+00 -0.00000000000E+00 -0.85771647126E+02  0.85771647126E+02  0.00000000000E+00 0.  1.
         25    1    1    2    0    0  0.00000000000E+00  0.00000000000E+00 -0.40229208210E+02  0.13131408604E+03  0.12500000000E+03 0.  0.
<mgrwt>
<rscale>  0 0.12500000E+03</rscale>
<asrwt>0</asrwt>
<pdfrwt beam="1">  1       21 0.70065290E-02 0.12500000E+03</pdfrwt>
<pdfrwt beam="2">  1       21 0.13195638E-01 0.12500000E+03</pdfrwt>
<totfact> 0.73188377E+06</totfact>
</mgrwt>
</event>
<event>
 3    1  0.1615911E-001  0.1250000E+03  0.7546771E-02  0.1235069E+00
         21   -1    0    0  502  501  0.00000000000E+00  0.00000000000E+00  0.26439377267E+03  0.26439377267E+03  0.00000000000E+00 0. -1.
         21   -1    0    0  501  502 -0.00000000000E+00 -0.00000000000E+00 -0.14774364617E+02  0.14774364617E+02  0.00000000000E+00 0. -1.
         25    1    1    2    0    0  0.00000000000E+00  0.00000000000E+00  0.24961940805E+03  0.27916813729E+03  0.12500000000E+03 0.  0.
<mgrwt>
<rscale>  0 0.12500000E+03</rscale>
<asrwt>0</asrwt>
<pdfrwt beam="1">  1       21 0.40675962E-01 0.12500000E+03</pdfrwt>
<pdfrwt beam="2">  1       21 0.22729794E-02 0.12500000E+03</pdfrwt>
<totfact> 0.57233071E+06</totfact>
</mgrwt>
</event>
<event>
 3    1  0.1615911E-001  0.1250000E+03  0.7546771E-02  0.1235069E+00
         21   -1    0    0  502  501  0.00000000000E+00  0.00000000000E+00  0.41925434911E+03  0.41925434911E+03  0.00000000000E+00 0. -1.
         21   -1    0    0  501  502 -0.00000000000E+00 -0.00000000000E+00 -0.93171365026E+01  0.93171365026E+01  0.00000000000E+00 0. -1.
         25    1    1    2    0    0  0.00000000000E+00  0.00000000000E+00  0.40993721261E+03  0.42857148561E+03  0.12500000000E+03 0.  0.
<mgrwt>
<rscale>  0 0.12500000E+03</rscale>
<asrwt>0</asrwt>
<pdfrwt beam="1">  1       21 0.64500655E-01 0.12500000E+03</pdfrwt>
<pdfrwt beam="2">  1       21 0.14334059E-02 0.12500000E+03</pdfrwt>
<totfact> 0.46202235E+06</totfact>
</mgrwt>
</event>
<event>
 3    1  0.1615911E-001  0.1250000E+03  0.7546771E-02  0.1235069E+00
         21   -1    0    0  502  501  0.00000000000E+00  0.00000000000E+00  0.52083987785E+03  0.52083987785E+03  0.00000000000E+00 0. -1.
         21   -1    0    0  501  502 -0.00000000000E+00 -0.00000000000E+00 -0.74999057601E+01  0.74999057601E+01  0.00000000000E+00 0. -1.
         25    1    1    2    0    0  0.00000000000E+00  0.00000000000E+00  0.51333997209E+03  0.52833978361E+03  0.12500000000E+03 0.  0.
<mgrwt>
<rscale>  0 0.12500000E+03</rscale>
<asrwt>0</asrwt>
<pdfrwt beam="1">  1       21 0.80129184E-01 0.12500000E+03</pdfrwt>
<pdfrwt beam="2">  1       21 0.11538321E-02 0.12500000E+03</pdfrwt>
<totfact> 0.40547706E+06</totfact>
</mgrwt>
</event>
<event>
 3    1  0.1615911E-001  0.1250000E+03  0.7546771E-02  0.1235069E+00
         21   -1    0    0  502  501  0.00000000000E+00  0.00000000000E+00  0.53983575292E+02  0.53983575292E+02  0.00000000000E+00 0.  1.
         21   -1    0    0  501  502 -0.00000000000E+00 -0.00000000000E+00 -0.72359972064E+02  0.72359972064E+02  0.00000000000E+00 0.  1.
         25    1    1    2    0    0  0.00000000000E+00  0.00000000000E+00 -0.18376396772E+02  0.12634354736E+03  0.12500000000E+03 0.  0.
<mgrwt>
<rscale>  0 0.12500000E+03</rscale>
<asrwt>0</asrwt>
<pdfrwt beam="1">  1       21 0.83051654E-02 0.12500000E+03</pdfrwt>
<pdfrwt beam="2">  1       21 0.11132303E-01 0.12500000E+03</pdfrwt>
<totfact> 0.73858805E+06</totfact>
</mgrwt>
</event>
<event>
 3    1  0.1615911E-001  0.1250000E+03  0.7546771E-02  0.1235069E+00
         21   -1    0    0  502  501  0.00000000000E+00  0.00000000000E+00  0.25603884124E+03  0.25603884124E+03  0.00000000000E+00 0.  1.
         21   -1    0    0  501  502 -0.00000000000E+00 -0.00000000000E+00 -0.15256474296E+02  0.15256474296E+02  0.00000000000E+00 0.  1.
         25    1    1    2    0    0  0.00000000000E+00  0.00000000000E+00  0.24078236694E+03  0.27129531553E+03  0.12500000000E+03 0.  0.
<mgrwt>
<rscale>  0 0.12500000E+03</rscale>
<asrwt>0</asrwt>
<pdfrwt beam="1">  1       21 0.39390588E-01 0.12500000E+03</pdfrwt>
<pdfrwt beam="2">  1       21 0.23471501E-02 0.12500000E+03</pdfrwt>
<totfact> 0.57929207E+06</totfact>
</mgrwt>
</event>
<event>
 3    1  0.1615911E-001  0.1250000E+03  0.7546771E-02  0.1235069E+00
         21   -1    0    0  502  501  0.00000000000E+00  0.00000000000E+00  0.15294518098E+04  0.15294518098E+04  0.00000000000E+00 0.  1.
         21   -1    0    0  501  502 -0.00000000000E+00 -0.00000000000E+00 -0.25540196658E+01  0.25540196658E+01  0.00000000000E+00 0.  1.
         25    1    1    2    0    0  0.00000000000E+00  0.00000000000E+00  0.15268977901E+04  0.15320058294E+04  0.12500000000E+03 0.  0.
<mgrwt>
<rscale>  0 0.12500000E+03</rscale>
<asrwt>0</asrwt>
<pdfrwt beam="1">  1       21 0.23529955E+00 0.12500000E+03</pdfrwt>
<pdfrwt beam="2">  1       21 0.39292733E-03 0.12500000E+03</pdfrwt>
<totfact> 0.13524871E+06</totfact>
</mgrwt>
</event>
<event>
 3    1  0.1615911E-001  0.1250000E+03  0.7546771E-02  0.1235069E+00
         21   -1    0    0  502  501  0.00000000000E+00  0.00000000000E+00  0.54468269553E+01  0.54468269553E+01  0.00000000000E+00 0.  1.
         21   -1    0    0  501  502 -0.00000000000E+00 -0.00000000000E+00 -0.71716065739E+03  0.71716065739E+03  0.00000000000E+00 0.  1.
         25    1    1    2    0    0  0.00000000000E+00  0.00000000000E+00 -0.71171383044E+03  0.72260748435E+03  0.12500000000E+03 0.  0.
<mgrwt>
<rscale>  0 0.12500000E+03</rscale>
<asrwt>0</asrwt>
<pdfrwt beam="1">  1       21 0.83797392E-03 0.12500000E+03</pdfrwt>
<pdfrwt beam="2">  1       21 0.11033234E+00 0.12500000E+03</pdfrwt>
<totfact> 0.32056579E+06</totfact>
</mgrwt>
</event>
<event>
 3    1  0.1615911E-001  0.1250000E+03  0.7546771E-02  0.1235069E+00
         21   -1    0    0  502  501  0.00000000000E+00  0.00000000000E+00  0.22450298431E+03  0.22450298431E+03  0.00000000000E+00 0.  1.
         21   -1    0    0  501  502 -0.00000000000E+00 -0.00000000000E+00 -0.17399545988E+02  0.17399545988E+02  0.00000000000E+00 0.  1.
         25    1    1    2    0    0  0.00000000000E+00  0.00000000000E+00  0.20710343832E+03  0.24190253030E+03  0.12500000000E+03 0.  0.
<mgrwt>
<rscale>  0 0.12500000E+03</rscale>
<asrwt>0</asrwt>
<pdfrwt beam="1">  1       21 0.34538919E-01 0.12500000E+03</pdfrwt>
<pdfrwt beam="2">  1       21 0.26768534E-02 0.12500000E+03</pdfrwt>
<totfact> 0.60649044E+06</totfact>
</mgrwt>
</event>
<event>
 3    1  0.1615911E-001  0.1250000E+03  0.7546771E-02  0.1235069E+00
         21   -1    0    0  502  501  0.00000000000E+00  0.00000000000E+00  0.37234672668E+03  0.37234672668E+03  0.00000000000E+00 0.  1.
         21   -1    0    0  501  502 -0.00000000000E+00 -0.00000000000E+00 -0.10490893890E+02  0.10490893890E+02  0.00000000000E+00 0.  1.
         25    1    1    2    0    0  0.00000000000E+00  0.00000000000E+00  0.36185583279E+03  0.38283762057E+03  0.12500000000E+03 0.  0.
<mgrwt>
<rscale>  0 0.12500000E+03</rscale>
<asrwt>0</asrwt>
<pdfrwt beam="1">  1       21 0.57284102E-01 0.12500000E+03</pdfrwt>
<pdfrwt beam="2">  1       21 0.16139840E-02 0.12500000E+03</pdfrwt>
<totfact> 0.49200945E+06</totfact>
</mgrwt>
</event>
<event>
 3    1  0.1615911E-001  0.1250000E+03  0.7546771E-02  0.1235069E+00
         21   -1    0    0  502  501  0.00000000000E+00  0.00000000000E+00  0.17477695268E+02  0.17477695268E+02  0.00000000000E+00 0. -1.
         21   -1    0    0  501  502 -0.00000000000E+00 -0.00000000000E+00 -0.22349914792E+03  0.22349914792E+03  0.00000000000E+00 0. -1.
         25    1    1    2    0    0  0.00000000000E+00  0.00000000000E+00 -0.20602145266E+03  0.24097684319E+03  0.12500000000E+03 0.  0.
<mgrwt>
<rscale>  0 0.12500000E+03</rscale>
<asrwt>0</asrwt>
<pdfrwt beam="1">  1       21 0.26888764E-02 0.12500000E+03</pdfrwt>
<pdfrwt beam="2">  1       21 0.34384482E-01 0.12500000E+03</pdfrwt>
<totfact> 0.60738265E+06</totfact>
</mgrwt>
</event>
<event>
 3    1  0.1615911E-001  0.1250000E+03  0.7546771E-02  0.1235069E+00
         21   -1    0    0  502  501  0.00000000000E+00  0.00000000000E+00  0.29879274984E+03  0.29879274984E+03  0.00000000000E+00 0.  1.
         21   -1    0    0  501  502 -0.00000000000E+00 -0.00000000000E+00 -0.13073443054E+02  0.13073443054E+02  0.00000000000E+00 0.  1.
         25    1    1    2    0    0  0.00000000000E+00  0.00000000000E+00  0.28571930678E+03  0.31186619289E+03  0.12500000000E+03 0.  0.
<mgrwt>
<rscale>  0 0.12500000E+03</rscale>
<asrwt>0</asrwt>
<pdfrwt beam="1">  1       21 0.45968110E-01 0.12500000E+03</pdfrwt>
<pdfrwt beam="2">  1       21 0.20112991E-02 0.12500000E+03</pdfrwt>
<totfact> 0.54484242E+06</totfact>
</mgrwt>
</event>
<event>
 3    1  0.1615911E-001  0.1250000E+03  0.7546771E-02  0.1235069E+00
         21   -1    0    0  502  501  0.00000000000E+00  0.00000000000E+00  0.30812278086E+01  0.30812278086E+01  0.00000000000E+00 0. -1.
         21   -1    0    0  501  502 -0.00000000000E+00 -0.00000000000E+00 -0.12677576092E+04  0.12677576092E+04  0.00000000000E+00 0. -1.
         25    1    1    2    0    0  0.00000000000E+00  0.00000000000E+00 -0.12646763814E+04  0.12708388370E+04  0.12500000000E+03 0.  0.
<mgrwt>
<rscale>  0 0.12500000E+03</rscale>
<asrwt>0</asrwt>
<pdfrwt beam="1">  1       21 0.47403536E-03 0.12500000E+03</pdfrwt>
<pdfrwt beam="2">  1       21 0.19503951E+00 0.12500000E+03</pdfrwt>
<totfact> 0.17784216E+06</totfact>
</mgrwt>
</event>
<event>
 3    1  0.1615911E-001  0.1250000E+03  0.7546771E-02  0.1235069E+00
         21   -1    0    0  502  501  0.00000000000E+00  0.00000000000E+00  0.12093058877E+03  0.12093058877E+03  0.00000000000E+00 0. -1.
         21   -1    0    0  501  502 -0.00000000000E+00 -0.00000000000E+00 -0.32301587545E+02  0.32301587545E+02  0.00000000000E+00 0. -1.
         25    1    1    2    0    0  0.00000000000E+00  0.00000000000E+00  0.88629001224E+02  0.15323217631E+03  0.12500000000E+03 0.  0.
<mgrwt>
<rscale>  0 0.12500000E+03</rscale>
<asrwt>0</asrwt>
<pdfrwt beam="1">  1       21 0.18604706E-01 0.12500000E+03</pdfrwt>
<pdfrwt beam="2">  1       21 0.49694751E-02 0.12500000E+03</pdfrwt>
<totfact> 0.70355503E+06</totfact>
</mgrwt>
</event>
<event>
 3    1  0.1615911E-001  0.1250000E+03  0.7546771E-02  0.1235069E+00
         21   -1    0    0  502  501  0.00000000000E+00  0.00000000000E+00  0.69045363242E+03  0.69045363242E+03  0.00000000000E+00 0.  1.
         21   -1    0    0  501  502 -0.00000000000E+00 -0.00000000000E+00 -0.56575124187E+01  0.56575124187E+01  0.00000000000E+00 0.  1.
         25    1    1    2    0    0  0.00000000000E+00  0.00000000000E+00  0.68479612001E+03  0.69611114484E+03  0.12500000000E+03 0.  0.
<mgrwt>
<rscale>  0 0.12500000E+03</rscale>
<asrwt>0</asrwt>
<pdfrwt beam="1">  1       21 0.10622357E+00 0.12500000E+03</pdfrwt>
<pdfrwt beam="2">  1       21 0.87038707E-03 0.12500000E+03</pdfrwt>
<totfact> 0.33060625E+06</totfact>
</mgrwt>
</event>
<event>
 3    1  0.1615911E-001  0.1250000E+03  0.7546771E-02  0.1235069E+00
         21   -1    0    0  502  501  0.00000000000E+00  0.00000000000E+00  0.49895771095E+02  0.49895771095E+02  0.00000000000E+00 0. -1.
         21   -1    0    0  501  502 -0.00000000000E+00 -0.00000000000E+00 -0.78288197863E+02  0.78288197863E+02  0.00000000000E+00 0. -1.
         25    1    1    2    0    0  0.00000000000E+00  0.00000000000E+00 -0.28392426767E+02  0.12818396896E+03  0.12500000000E+03 0.  0.
<mgrwt>
<rscale>  0 0.12500000E+03</rscale>
<asrwt>0</asrwt>
<pdfrwt beam="1">  1       21 0.76762725E-02 0.12500000E+03</pdfrwt>
<pdfrwt beam="2">  1       21 0.12044338E-01 0.12500000E+03</pdfrwt>
<totfact> 0.73608722E+06</totfact>
</mgrwt>
</event>
<event>
 3    1  0.1615911E-001  0.1250000E+03  0.7546771E-02  0.1235069E+00
         21   -1    0    0  502  501  0.00000000000E+00  0.00000000000E+00  0.35702250288E+01  0.35702250288E+01  0.00000000000E+00 0. -1.
         21   -1    0    0  501  502 -0.00000000000E+00 -0.00000000000E+00 -0.10941187092E+04  0.10941187092E+04  0.00000000000E+00 0. -1.
         25    1    1    2    0    0  0.00000000000E+00  0.00000000000E+00 -0.10905484841E+04  0.10976889342E+04  0.12500000000E+03 0.  0.
<mgrwt>
<rscale>  0 0.12500000E+03</rscale>
<asrwt>0</asrwt>
<pdfrwt beam="1">  1       21 0.54926570E-03 0.12500000E+03</pdfrwt>
<pdfrwt beam="2">  1       21 0.16832586E+00 0.12500000E+03</pdfrwt>
<totfact> 0.21302888E+06</totfact>
</mgrwt>
</event>
<event>
 3    1  0.1615911E-001  0.1250000E+03  0.7546771E-02  0.1235069E+00
         21   -1    0    0  502  501  0.00000000000E+00  0.00000000000E+00  0.46771350031E+02  0.46771350031E+02  0.00000000000E+00 0.  1.
         21   -1    0    0  501  502 -0.00000000000E+00 -0.00000000000E+00 -0.83518008298E+02  0.83518008298E+02  0.00000000000E+00 0.  1.
         25    1    1    2    0    0  0.00000000000E+00  0.00000000000E+00 -0.36746658268E+02  0.13028935833E+03  0.12500000000E+03 0.  0.
<mgrwt>
<rscale>  0 0.12500000E+03</rscale>
<asrwt>0</asrwt>
<pdfrwt beam="1">  1       21 0.71955923E-02 0.12500000E+03</pdfrwt>
<pdfrwt beam="2">  1       21 0.12848924E-01 0.12500000E+03</pdfrwt>
<totfact> 0.73326267E+06</totfact>
</mgrwt>
</event>
<event>
 3    1  0.1615911E-001  0.1250000E+03  0.7546771E-02  0.1235069E+00
         21   -1    0    0  502  501  0.00000000000E+00  0.00000000000E+00  0.13968601791E+02  0.13968601791E+02  0.00000000000E+00 0. -1.
         21   -1    0    0  501  502 -0.00000000000E+00 -0.00000000000E+00 -0.27964502521E+03  0.27964502521E+03  0.00000000000E+00 0. -1.
         25    1    1    2    0    0  0.00000000000E+00  0.00000000000E+00 -0.26567642342E+03  0.29361362700E+03  0.12500000000E+03 0.  0.
<mgrwt>
<rscale>  0 0.12500000E+03</rscale>
<asrwt>0</asrwt>
<pdfrwt beam="1">  1       21 0.21490156E-02 0.12500000E+03</pdfrwt>
<pdfrwt beam="2">  1       21 0.43022313E-01 0.12500000E+03</pdfrwt>
<totfact> 0.55991116E+06</totfact>
</mgrwt>
</event>
<event>
 3    1  0.1615911E-001  0.1250000E+03  0.7546771E-02  0.1235069E+00
         21   -1    0    0  502  501  0.00000000000E+00  0.00000000000E+00  0.30731240158E+02  0.30731240158E+02  0.00000000000E+00 0. -1.
         21   -1    0    0  501  502 -0.00000000000E+00 -0.00000000000E+00 -0.12711006715E+03  0.12711006715E+03  0.00000000000E+00 0. -1.
         25    1    1    2    0    0  0.00000000000E+00  0.00000000000E+00 -0.96378826991E+02  0.15784130731E+03  0.12500000000E+03 0.  0.
<mgrwt>
<rscale>  0 0.12500000E+03</rscale>
<asrwt>0</asrwt>
<pdfrwt beam="1">  1       21 0.47278831E-02 0.12500000E+03</pdfrwt>
<pdfrwt beam="2">  1       21 0.19555395E-01 0.12500000E+03</pdfrwt>
<totfact> 0.69784231E+06</totfact>
</mgrwt>
</event>
<event>
 3    1  0.1615911E-001  0.1250000E+03  0.7546771E-02  0.1235069E+00
         21   -1    0    0  502  501  0.00000000000E+00  0.00000000000E+00  0.33356522763E+03  0.33356522763E+03  0.00000000000E+00 0.  1.
         21   -1    0    0  501  502 -0.00000000000E+00 -0.00000000000E+00 -0.11710603134E+02  0.11710603134E+02  0.00000000000E+00 0.  1.
         25    1    1    2    0    0  0.00000000000E+00  0.00000000000E+00  0.32185462449E+03  0.34527583076E+03  0.12500000000E+03 0.  0.
<mgrwt>
<rscale>  0 0.12500000E+03</rscale>
<asrwt>0</asrwt>
<pdfrwt beam="1">  1       21 0.51317720E-01 0.12500000E+03</pdfrwt>
<pdfrwt beam="2">  1       21 0.18016315E-02 0.12500000E+03</pdfrwt>
<totfact> 0.51889231E+06</totfact>
</mgrwt>
</event>
<event>
 3    1  0.1615911E-001  0.1250000E+03  0.7546771E-02  0.1235069E+00
         21   -1    0    0  502  501  0.00000000000E+00  0.00000000000E+00  0.55474250125E+01  0.55474250125E+01  0.00000000000E+00 0.  1.
         21   -1    0    0  501  502 -0.00000000000E+00 -0.00000000000E+00 -0.70415553004E+03  0.70415553004E+03  0.00000000000E+00 0.  1.
         25    1    1    2    0    0  0.00000000000E+00  0.00000000000E+00 -0.69860810502E+03  0.70970295505E+03  0.12500000000E+03 0.  0.
<mgrwt>
<rscale>  0 0.12500000E+03</rscale>
<asrwt>0</asrwt>
<pdfrwt beam="1">  1       21 0.85345013E-03 0.12500000E+03</pdfrwt>
<pdfrwt beam="2">  1       21 0.10833160E+00 0.12500000E+03</pdfrwt>
<totfact> 0.32539405E+06</totfact>
</mgrwt>
</event>
<event>
 3    1  0.1615911E-001  0.1250000E+03  0.7546771E-02  0.1235069E+00
         21   -1    0    0  502  501  0.00000000000E+00  0.00000000000E+00  0.84933413228E+02  0.84933413228E+02  0.00000000000E+00 0.  1.
         21   -1    0    0  501  502 -0.00000000000E+00 -0.00000000000E+00 -0.45991911211E+02  0.45991911211E+02  0.00000000000E+00 0.  1.
         25    1    1    2    0    0  0.00000000000E+00  0.00000000000E+00  0.38941502017E+02  0.13092532444E+03  0.12500000000E+03 0.  0.
<mgrwt>
<rscale>  0 0.12500000E+03</rscale>
<asrwt>0</asrwt>
<pdfrwt beam="1">  1       21 0.13066679E-01 0.12500000E+03</pdfrwt>
<pdfrwt beam="2">  1       21 0.70756786E-02 0.12500000E+03</pdfrwt>
<totfact> 0.73240736E+06</totfact>
</mgrwt>
</event>
<event>
 3    1  0.1615911E-001  0.1250000E+03  0.7546771E-02  0.1235069E+00
         21   -1    0    0  502  501  0.00000000000E+00  0.00000000000E+00  0.45307324625E+02  0.45307324625E+02  0.00000000000E+00 0.  1.
         21   -1    0    0  501  502 -0.00000000000E+00 -0.00000000000E+00 -0.86216743812E+02  0.86216743812E+02  0.00000000000E+00 0.  1.
         25    1    1    2    0    0  0.00000000000E+00  0.00000000000E+00 -0.40909419187E+02  0.13152406844E+03  0.12500000000E+03 0.  0.
<mgrwt>
<rscale>  0 0.12500000E+03</rscale>
<asrwt>0</asrwt>
<pdfrwt beam="1">  1       21 0.69703578E-02 0.12500000E+03</pdfrwt>
<pdfrwt beam="2">  1       21 0.13264114E-01 0.12500000E+03</pdfrwt>
<totfact> 0.73160136E+06</totfact>
</mgrwt>
</event>
<event>
 3    1  0.1615911E-001  0.1250000E+03  0.7546771E-02  0.1235069E+00
         21   -1    0    0  502  501  0.00000000000E+00  0.00000000000E+00  0.88372311849E+01  0.88372311849E+01  0.00000000000E+00 0.  1.
         21   -1    0    0  501  502 -0.00000000000E+00 -0.00000000000E+00 -0.44202193179E+03  0.44202193179E+03  0.00000000000E+00 0.  1.
         25    1    1    2    0    0  0.00000000000E+00  0.00000000000E+00 -0.43318470060E+03  0.45085916297E+03  0.12500000000E+03 0.  0.
<mgrwt>
<rscale>  0 0.12500000E+03</rscale>
<asrwt>0</asrwt>
<pdfrwt beam="1">  1       21 0.13595740E-02 0.12500000E+03</pdfrwt>
<pdfrwt beam="2">  1       21 0.68003374E-01 0.12500000E+03</pdfrwt>
<totfact> 0.44840903E+06</totfact>
</mgrwt>
</event>
<event>
 3    1  0.1615911E-001  0.1250000E+03  0.7546771E-02  0.1235069E+00
         21   -1    0    0  502  501  0.00000000000E+00  0.00000000000E+00  0.68181349596E+02  0.68181349596E+02  0.00000000000E+00 0. -1.
         21   -1    0    0  501  502 -0.00000000000E+00 -0.00000000000E+00 -0.57292060411E+02  0.57292060411E+02  0.00000000000E+00 0. -1.
         25    1    1    2    0    0  0.00000000000E+00  0.00000000000E+00  0.10889289185E+02  0.12547341001E+03  0.12500000000E+03 0.  0.
<mgrwt>
<rscale>  0 0.12500000E+03</rscale>
<asrwt>0</asrwt>
<pdfrwt beam="1">  1       21 0.10489438E-01 0.12500000E+03</pdfrwt>
<pdfrwt beam="2">  1       21 0.88141631E-02 0.12500000E+03</pdfrwt>
<totfact> 0.73979116E+06</totfact>
</mgrwt>
</event>
<event>
 3    1  0.1615911E-001  0.1250000E+03  0.7546771E-02  0.1235069E+00
         21   -1    0    0  502  501  0.00000000000E+00  0.00000000000E+00  0.24111259810E+03  0.24111259810E+03  0.00000000000E+00 0. -1.
         21   -1    0    0  501  502 -0.00000000000E+00 -0.00000000000E+00 -0.16200936951E+02  0.16200936951E+02  0.00000000000E+00 0. -1.
         25    1    1    2    0    0  0.00000000000E+00  0.00000000000E+00  0.22491166115E+03  0.25731353505E+03  0.12500000000E+03 0.  0.
<mgrwt>
<rscale>  0 0.12500000E+03</rscale>
<asrwt>0</asrwt>
<pdfrwt beam="1">  1       21 0.37094243E-01 0.12500000E+03</pdfrwt>
<pdfrwt beam="2">  1       21 0.24924520E-02 0.12500000E+03</pdfrwt>
<totfact> 0.59196384E+06</totfact>
</mgrwt>
</event>
<event>
 3    1  0.1615911E-001  0.1250000E+03  0.7546771E-02  0.1235069E+00
         21   -1    0    0  502  501  0.00000000000E+00  0.00000000000E+00  0.68060529279E+03  0.68060529279E+03  0.00000000000E+00 0.  1.
         21   -1    0    0  501  502 -0.00000000000E+00 -0.00000000000E+00 -0.57393764659E+01  0.57393764659E+01  0.00000000000E+00 0.  1.
         25    1    1    2    0    0  0.00000000000E+00  0.00000000000E+00  0.67486591632E+03  0.68634466926E+03  0.12500000000E+03 0.  0.
<mgrwt>
<rscale>  0 0.12500000E+03</rscale>
<asrwt>0</asrwt>
<pdfrwt beam="1">  1       21 0.10470844E+00 0.12500000E+03</pdfrwt>
<pdfrwt beam="2">  1       21 0.88298153E-03 0.12500000E+03</pdfrwt>
<totfact> 0.33443297E+06</totfact>
</mgrwt>
</event>
<event>
 3    1  0.1615911E-001  0.1250000E+03  0.7546771E-02  0.1235069E+00
         21   -1    0    0  502  501  0.00000000000E+00  0.00000000000E+00  0.12394826347E+02  0.12394826347E+02  0.00000000000E+00 0.  1.
         21   -1    0    0  501  502 -0.00000000000E+00 -0.00000000000E+00 -0.31515165203E+03  0.31515165203E+03  0.00000000000E+00 0.  1.
         25    1    1    2    0    0  0.00000000000E+00  0.00000000000E+00 -0.30275682568E+03  0.32754647837E+03  0.12500000000E+03 0.  0.
<mgrwt>
<rscale>  0 0.12500000E+03</rscale>
<asrwt>0</asrwt>
<pdfrwt beam="1">  1       21 0.19068964E-02 0.12500000E+03</pdfrwt>
<pdfrwt beam="2">  1       21 0.48484869E-01 0.12500000E+03</pdfrwt>
<totfact> 0.53240689E+06</totfact>
</mgrwt>
</event>
<event>
 3    1  0.1615911E-001  0.1250000E+03  0.7546771E-02  0.1235069E+00
         21   -1    0    0  502  501  0.00000000000E+00  0.00000000000E+00  0.79035197139E+01  0.79035197139E+01  0.00000000000E+00 0. -1.
         21   -1    0    0  501  502 -0.00000000000E+00 -0.00000000000E+00 -0.49424182407E+03  0.49424182407E+03  0.00000000000E+00 0. -1.
         25    1    1    2    0    0  0.00000000000E+00  0.00000000000E+00 -0.48633830436E+03  0.50214534378E+03  0.12500000000E+03 0.  0.
<mgrwt>
<rscale>  0 0.12500000E+03</rscale>
<asrwt>0</asrwt>
<pdfrwt beam="1">  1       21 0.12159260E-02 0.12500000E+03</pdfrwt>
<pdfrwt beam="2">  1       21 0.76037213E-01 0.12500000E+03</pdfrwt>
<totfact> 0.41927959E+06</totfact>
</mgrwt>
</event>
<event>
 3    1  0.1615911E-001  0.1250000E+03  0.7546771E-02  0.1235069E+00
         21   -1    0    0  502  501  0.00000000000E+00  0.00000000000E+00  0.14478355202E+03  0.14478355202E+03  0.00000000000E+00 0. -1.
         21   -1    0    0  501  502 -0.00000000000E+00 -0.00000000000E+00 -0.26979929318E+02  0.26979929318E+02  0.00000000000E+00 0. -1.
         25    1    1    2    0    0  0.00000000000E+00  0.00000000000E+00  0.11780362271E+03  0.17176348134E+03  0.12500000000E+03 0.  0.
<mgrwt>
<rscale>  0 0.12500000E+03</rscale>
<asrwt>0</asrwt>
<pdfrwt beam="1">  1       21 0.22274392E-01 0.12500000E+03</pdfrwt>
<pdfrwt beam="2">  1       21 0.41507585E-02 0.12500000E+03</pdfrwt>
<totfact> 0.68109198E+06</totfact>
</mgrwt>
</event>
<event>
 3    1  0.1615911E-001  0.1250000E+03  0.7546771E-02  0.1235069E+00
         21   -1    0    0  502  501  0.00000000000E+00  0.00000000000E+00  0.80783011577E+02  0.80783011577E+02  0.00000000000E+00 0. -1.
         21   -1    0    0  501  502 -0.00000000000E+00 -0.00000000000E+00 -0.48354844957E+02  0.48354844957E+02  0.00000000000E+00 0. -1.
         25    1    1    2    0    0  0.00000000000E+00  0.00000000000E+00  0.32428166620E+02  0.12913785653E+03  0.12500000000E+03 0.  0.
<mgrwt>
<rscale>  0 0.12500000E+03</rscale>
<asrwt>0</asrwt>
<pdfrwt beam="1">  1       21 0.12428156E-01 0.12500000E+03</pdfrwt>
<pdfrwt beam="2">  1       21 0.74392069E-02 0.12500000E+03</pdfrwt>
<totfact> 0.73480373E+06</totfact>
</mgrwt>
</event>
<event>
 3    1  0.1615911E-001  0.1250000E+03  0.7546771E-02  0.1235069E+00
         21   -1    0    0  502  501  0.00000000000E+00  0.00000000000E+00  0.40183088735E+02  0.40183088735E+02  0.00000000000E+00 0.  1.
         21   -1    0    0  501  502 -0.00000000000E+00 -0.00000000000E+00 -0.97211292685E+02  0.97211292685E+02  0.00000000000E+00 0.  1.
         25    1    1    2    0    0  0.00000000000E+00  0.00000000000E+00 -0.57028203950E+02  0.13739438142E+03  0.12500000000E+03 0.  0.
<mgrwt>
<rscale>  0 0.12500000E+03</rscale>
<asrwt>0</asrwt>
<pdfrwt beam="1">  1       21 0.61820137E-02 0.12500000E+03</pdfrwt>
<pdfrwt beam="2">  1       21 0.14955583E-01 0.12500000E+03</pdfrwt>
<totfact> 0.72380965E+06</totfact>
</mgrwt>
</event>
<event>
 3    1  0.1615911E-001  0.1250000E+03  0.7546771E-02  0.1235069E+00
         21   -1    0    0  502  501  0.00000000000E+00  0.00000000000E+00  0.81981573738E+03  0.81981573738E+03  0.00000000000E+00 0.  1.
         21   -1    0    0  501  502 -0.00000000000E+00 -0.00000000000E+00 -0.47647902107E+01  0.47647902107E+01  0.00000000000E+00 0.  1.
         25    1    1    2    0    0  0.00000000000E+00  0.00000000000E+00  0.81505094717E+03  0.82458052759E+03  0.12500000000E+03 0.  0.
<mgrwt>
<rscale>  0 0.12500000E+03</rscale>
<asrwt>0</asrwt>
<pdfrwt beam="1">  1       21 0.12612539E+00 0.12500000E+03</pdfrwt>
<pdfrwt beam="2">  1       21 0.73304530E-03 0.12500000E+03</pdfrwt>
<totfact> 0.28564463E+06</totfact>
</mgrwt>
</event>
<event>
 3    1  0.1615911E-001  0.1250000E+03  0.7546771E-02  0.1235069E+00
         21   -1    0    0  502  501  0.00000000000E+00  0.00000000000E+00  0.57478280952E+02  0.57478280952E+02  0.00000000000E+00 0.  1.
         21   -1    0    0  501  502 -0.00000000000E+00 -0.00000000000E+00 -0.67960452805E+02  0.67960452805E+02  0.00000000000E+00 0.  1.
         25    1    1    2    0    0  0.00000000000E+00  0.00000000000E+00 -0.10482171853E+02  0.12543873376E+03  0.12500000000E+03 0.  0.
<mgrwt>
<rscale>  0 0.12500000E+03</rscale>
<asrwt>0</asrwt>
<pdfrwt beam="1">  1       21 0.88428124E-02 0.12500000E+03</pdfrwt>
<pdfrwt beam="2">  1       21 0.10455454E-01 0.12500000E+03</pdfrwt>
<totfact> 0.73983975E+06</totfact>
</mgrwt>
</event>
<event>
 3    1  0.1615911E-001  0.1250000E+03  0.7546771E-02  0.1235069E+00
         21   -1    0    0  502  501  0.00000000000E+00  0.00000000000E+00  0.21356815408E+01  0.21356815408E+01  0.00000000000E+00 0.  1.
         21   -1    0    0  501  502 -0.00000000000E+00 -0.00000000000E+00 -0.18290414209E+04  0.18290414209E+04  0.00000000000E+00 0.  1.
         25    1    1    2    0    0  0.00000000000E+00  0.00000000000E+00 -0.18269057394E+04  0.18311771025E+04  0.12500000000E+03 0.  0.
<mgrwt>
<rscale>  0 0.12500000E+03</rscale>
<asrwt>0</asrwt>
<pdfrwt beam="1">  1       21 0.32856646E-03 0.12500000E+03</pdfrwt>
<pdfrwt beam="2">  1       21 0.28139093E+00 0.12500000E+03</pdfrwt>
<totfact> 0.97158025E+05</totfact>
</mgrwt>
</event>
<event>
 3    1  0.1615911E-001  0.1250000E+03  0.7546771E-02  0.1235069E+00
         21   -1    0    0  502  501  0.00000000000E+00  0.00000000000E+00  0.58439300016E+03  0.58439300016E+03  0.00000000000E+00 0. -1.
         21   -1    0    0  501  502 -0.00000000000E+00 -0.00000000000E+00 -0.66842860865E+01  0.66842860865E+01  0.00000000000E+00 0. -1.
         25    1    1    2    0    0  0.00000000000E+00  0.00000000000E+00  0.57770871407E+03  0.59107728624E+03  0.12500000000E+03 0.  0.
<mgrwt>
<rscale>  0 0.12500000E+03</rscale>
<asrwt>0</asrwt>
<pdfrwt beam="1">  1       21 0.89906575E-01 0.12500000E+03</pdfrwt>
<pdfrwt beam="2">  1       21 0.10283522E-02 0.12500000E+03</pdfrwt>
<totfact> 0.37499294E+06</totfact>
</mgrwt>
</event>
<event>
 3    1  0.1615911E-001  0.1250000E+03  0.7546771E-02  0.1235069E+00
         21   -1    0    0  502  501  0.00000000000E+00  0.00000000000E+00  0.13506270600E+02  0.13506270600E+02  0.00000000000E+00 0. -1.
         21   -1    0    0  501  502 -0.00000000000E+00 -0.00000000000E+00 -0.28921751354E+03  0.28921751354E+03  0.00000000000E+00 0. -1.
         25    1    1    2    0    0  0.00000000000E+00  0.00000000000E+00 -0.27571124294E+03  0.30272378414E+03  0.12500000000E+03 0.  0.
<mgrwt>
<rscale>  0 0.12500000E+03</rscale>
<asrwt>0</asrwt>
<pdfrwt beam="1">  1       21 0.20778877E-02 0.12500000E+03</pdfrwt>
<pdfrwt beam="2">  1       21 0.44495003E-01 0.12500000E+03</pdfrwt>
<totfact> 0.55230573E+06</totfact>
</mgrwt>
</event>
<event>
 3    1  0.1615911E-001  0.1250000E+03  0.7546771E-02  0.1235069E+00
         21   -1    0    0  502  501  0.00000000000E+00  0.00000000000E+00  0.11874522092E+03  0.11874522092E+03  0.00000000000E+00 0.  1.
         21   -1    0    0  501  502 -0.00000000000E+00 -0.00000000000E+00 -0.32896060739E+02  0.32896060739E+02  0.00000000000E+00 0.  1.
         25    1    1    2    0    0  0.00000000000E+00  0.00000000000E+00  0.85849160185E+02  0.15164128166E+03  0.12500000000E+03 0.  0.
<mgrwt>
<rscale>  0 0.12500000E+03</rscale>
<asrwt>0</asrwt>
<pdfrwt beam="1">  1       21 0.18268495E-01 0.12500000E+03</pdfrwt>
<pdfrwt beam="2">  1       21 0.50609325E-02 0.12500000E+03</pdfrwt>
<totfact> 0.70553630E+06</totfact>
</mgrwt>
</event>
<event>
 3    1  0.1615911E-001  0.1250000E+03  0.7546771E-02  0.1235069E+00
         21   -1    0    0  502  501  0.00000000000E+00  0.00000000000E+00  0.50199640822E+02  0.50199640822E+02  0.00000000000E+00 0. -1.
         21   -1    0    0  501  502 -0.00000000000E+00 -0.00000000000E+00 -0.77814301776E+02  0.77814301776E+02  0.00000000000E+00 0. -1.
         25    1    1    2    0    0  0.00000000000E+00  0.00000000000E+00 -0.27614660954E+02  0.12801394260E+03  0.12500000000E+03 0.  0.
<mgrwt>
<rscale>  0 0.12500000E+03</rscale>
<asrwt>0</asrwt>
<pdfrwt beam="1">  1       21 0.77230217E-02 0.12500000E+03</pdfrwt>
<pdfrwt beam="2">  1       21 0.11971431E-01 0.12500000E+03</pdfrwt>
<totfact> 0.73631676E+06</totfact>
</mgrwt>
</event>
<event>
 3    1  0.1615911E-001  0.1250000E+03  0.7546771E-02  0.1235069E+00
         21   -1    0    0  502  501  0.00000000000E+00  0.00000000000E+00  0.77247872084E+01  0.77247872084E+01  0.00000000000E+00 0. -1.
         21   -1    0    0  501  502 -0.00000000000E+00 -0.00000000000E+00 -0.50567735973E+03  0.50567735973E+03  0.00000000000E+00 0. -1.
         25    1    1    2    0    0  0.00000000000E+00  0.00000000000E+00 -0.49795257252E+03  0.51340214694E+03  0.12500000000E+03 0.  0.
<mgrwt>
<rscale>  0 0.12500000E+03</rscale>
<asrwt>0</asrwt>
<pdfrwt beam="1">  1       21 0.11884285E-02 0.12500000E+03</pdfrwt>
<pdfrwt beam="2">  1       21 0.77796539E-01 0.12500000E+03</pdfrwt>
<totfact> 0.41326438E+06</totfact>
</mgrwt>
</event>
<event>
 3    1  0.1615911E-001  0.1250000E+03  0.7546771E-02  0.1235069E+00
         21   -1    0    0  502  501  0.00000000000E+00  0.00000000000E+00  0.84420324218E+02  0.84420324218E+02  0.00000000000E+00 0. -1.
         21   -1    0    0  501  502 -0.00000000000E+00 -0.00000000000E+00 -0.46271440393E+02  0.46271440393E+02  0.00000000000E+00 0. -1.
         25    1    1    2    0    0  0.00000000000E+00  0.00000000000E+00  0.38148883826E+02  0.13069176461E+03  0.12500000000E+03 0.  0.
<mgrwt>
<rscale>  0 0.12500000E+03</rscale>
<asrwt>0</asrwt>
<pdfrwt beam="1">  1       21 0.12987742E-01 0.12500000E+03</pdfrwt>
<pdfrwt beam="2">  1       21 0.71186832E-02 0.12500000E+03</pdfrwt>
<totfact> 0.73272239E+06</totfact>
</mgrwt>
</event>
<event>
 3    1  0.1615911E-001  0.1250000E+03  0.7546771E-02  0.1235069E+00
         21   -1    0    0  502  501  0.00000000000E+00  0.00000000000E+00  0.40254729008E+01  0.40254729008E+01  0.00000000000E+00 0.  1.
         21   -1    0    0  501  502 -0.00000000000E+00 -0.00000000000E+00 -0.97038288326E+03  0.97038288326E+03  0.00000000000E+00 0.  1.
         25    1    1    2    0    0  0.00000000000E+00  0.00000000000E+00 -0.96635741036E+03  0.97440835617E+03  0.12500000000E+03 0.  0.
<mgrwt>
<rscale>  0 0.12500000E+03</rscale>
<asrwt>0</asrwt>
<pdfrwt beam="1">  1       21 0.61930322E-03 0.12500000E+03</pdfrwt>
<pdfrwt beam="2">  1       21 0.14928975E+00 0.12500000E+03</pdfrwt>
<totfact> 0.24269083E+06</totfact>
</mgrwt>
</event>
<event>
 3    1  0.1615911E-001  0.1250000E+03  0.7546771E-02  0.1235069E+00
         21   -1    0    0  502  501  0.00000000000E+00  0.00000000000E+00  0.14226710005E+04  0.14226710005E+04  0.00000000000E+00 0. -1.
         21   -1    0    0  501  502 -0.00000000000E+00 -0.00000000000E+00 -0.27457156283E+01  0.27457156283E+01  0.00000000000E+00 0. -1.
         25    1    1    2    0    0  0.00000000000E+00  0.00000000000E+00  0.14199252849E+04  0.14254167161E+04  0.12500000000E+03 0.  0.
<mgrwt>
<rscale>  0 0.12500000E+03</rscale>
<asrwt>0</asrwt>
<pdfrwt beam="1">  1       21 0.21887187E+00 0.12500000E+03</pdfrwt>
<pdfrwt beam="2">  1       21 0.42241893E-03 0.12500000E+03</pdfrwt>
<totfact> 0.15136310E+06</totfact>
</mgrwt>
</event>
<event>
 3    1  0.1615911E-001  0.1250000E+03  0.7546771E-02  0.1235069E+00
         21   -1    0    0  502  501  0.00000000000E+00  0.00000000000E+00  0.14368741448E+02  0.14368741448E+02  0.00000000000E+00 0.  1.
         21   -1    0    0  501  502 -0.00000000000E+00 -0.00000000000E+00 -0.27185749107E+03  0.27185749107E+03  0.00000000000E+00 0.  1.
         25    1    1    2    0    0  0.00000000000E+00  0.00000000000E+00 -0.25748874962E+03  0.28622623252E+03  0.12500000000E+03 0.  0.
<mgrwt>
<rscale>  0 0.12500000E+03</rscale>
<asrwt>0</asrwt>
<pdfrwt beam="1">  1       21 0.22105759E-02 0.12500000E+03</pdfrwt>
<pdfrwt beam="2">  1       21 0.41824224E-01 0.12500000E+03</pdfrwt>
<totfact> 0.56620614E+06</totfact>
</mgrwt>
</event>
<event>
 3    1  0.1615911E-001  0.1250000E+03  0.7546771E-02  0.1235069E+00
         21   -1    0    0  502  501  0.00000000000E+00  0.00000000000E+00  0.26341492243E+04  0.26341492243E+04  0.00000000000E+00 0. -1.
         21   -1    0    0  501  502 -0.00000000000E+00 -0.00000000000E+00 -0.14829266178E+01  0.14829266178E+01  0.00000000000E+00 0. -1.
         25    1    1    2    0    0  0.00000000000E+00  0.00000000000E+00  0.26326662976E+04  0.26356321509E+04  0.12500000000E+03 0.  0.
<mgrwt>
<rscale>  0 0.12500000E+03</rscale>
<asrwt>0</asrwt>
<pdfrwt beam="1">  1       21 0.40524998E+00 0.12500000E+03</pdfrwt>
<pdfrwt beam="2">  1       21 0.22814467E-03 0.12500000E+03</pdfrwt>
<totfact> 0.32564342E+05</totfact>
</mgrwt>
</event>
