<event>
 6    1  0.8947013E-004  0.4877960E+03  0.7818608E-02  0.1017057E+00
         21   -1    0    0  501  502  0.00000000000E+00  0.00000000000E+00  0.10258025226E+04  0.10258025226E+04  0.00000000000E+00 0. -1.
         21   -1    0    0  502  503 -0.00000000000E+00 -0.00000000000E+00 -0.26841008853E+03  0.26841008853E+03  0.00000000000E+00 0.  1.
    9000007    2    1    2  501    0  0.25317664872E+03  0.11503366854E+03  0.61835031176E+03  0.78759256405E+03  0.40076648880E+03 0.  0.
    9000005    1    3    3    0    0  0.27533355524E+03  0.20066911512E+03  0.61006001813E+03  0.69874951600E+03  0.99999687468E+00 0.  0.
          4    1    3    3  501    0 -0.22156906519E+02 -0.85635446584E+02  0.82902936303E+01  0.88843048049E+02  0.00000000000E+00 0.  1.
   -9000007    1    1    2    0  503 -0.25317664872E+03 -0.11503366854E+03  0.13904212236E+03  0.50662004712E+03  0.40000000000E+03 0.  1.
<mgrwt>
<rscale>  2 0.48763854E+03</rscale>
<asrwt>0</asrwt>
<pdfrwt beam="1">  1       21 0.15781577E+00 0.48779600E+03</pdfrwt>
<pdfrwt beam="2">  1       21 0.41293860E-01 0.48779600E+03</pdfrwt>
<totfact> 0.12302304E+03</totfact>
</mgrwt>
</event>
<event>
 6    1  0.8947013E-004  0.4782896E+03  0.7818608E-02  0.1019723E+00
         21   -1    0    0  501  502  0.00000000000E+00  0.00000000000E+00  0.15585785520E+03  0.15585785520E+03  0.00000000000E+00 0. -1.
         21   -1    0    0  502  503 -0.00000000000E+00 -0.00000000000E+00 -0.22011105061E+04  0.22011105061E+04  0.00000000000E+00 0. -1.
    9000007    2    1    2  501    0 -0.21777471039E+03 -0.14042912447E+03 -0.34119254213E+03  0.58751448574E+03  0.40201337871E+03 0.  0.
    9000005    1    3    3    0    0 -0.28695300112E+03 -0.22812754530E+03 -0.26039659001E+03  0.44965718704E+03  0.99999687468E+00 0.  0.
          4    1    3    3  501    0  0.69178290737E+02  0.87698420821E+02 -0.80795952128E+02  0.13785729870E+03  0.00000000000E+00 0.  1.
   -9000007    1    1    2    0  503  0.21777471039E+03  0.14042912447E+03 -0.17040601087E+04  0.17694538755E+04  0.40000000000E+03 0. -1.
<mgrwt>
<rscale>  2 0.47786626E+03</rscale>
<asrwt>0</asrwt>
<pdfrwt beam="1">  1       21 0.23978132E-01 0.47828958E+03</pdfrwt>
<pdfrwt beam="2">  1       21 0.33863238E+00 0.47828958E+03</pdfrwt>
<totfact> 0.25572558E+02</totfact>
</mgrwt>
</event>
<event>
 6    1  0.8947013E-004  0.4014854E+03  0.7818608E-02  0.1043638E+00
         21   -1    0    0  501  502  0.00000000000E+00  0.00000000000E+00  0.25828450406E+03  0.25828450406E+03  0.00000000000E+00 0. -1.
         21   -1    0    0  502  503 -0.00000000000E+00 -0.00000000000E+00 -0.88724617258E+03  0.88724617258E+03  0.00000000000E+00 0. -1.
    9000007    2    1    2  501    0 -0.23891706544E+02 -0.24893597944E+02  0.25470019873E+01  0.39720340480E+03  0.39569376127E+03 0.  0.
    9000005    1    3    3    0    0  0.10436408137E+03  0.14796063708E+03 -0.12064191750E+02  0.18146833421E+03  0.99999687468E+00 0.  0.
          4    1    3    3  501    0 -0.12825578791E+03 -0.17285423503E+03  0.14611193737E+02  0.21573507059E+03  0.00000000000E+00 0.  1.
   -9000007    1    1    2    0  503  0.23891706544E+02  0.24893597944E+02 -0.63150867051E+03  0.74832727185E+03  0.40000000000E+03 0. -1.
<mgrwt>
<rscale>  2 0.40040851E+03</rscale>
<asrwt>0</asrwt>
<pdfrwt beam="1">  1       21 0.39736078E-01 0.40148537E+03</pdfrwt>
<pdfrwt beam="2">  1       21 0.13649941E+00 0.40148537E+03</pdfrwt>
<totfact> 0.20418849E+03</totfact>
</mgrwt>
</event>
<event>
 6    1  0.8947013E-004  0.4007531E+03  0.7818608E-02  0.1043644E+00
         21   -1    0    0  501  502  0.00000000000E+00  0.00000000000E+00  0.12897642148E+03  0.12897642148E+03  0.00000000000E+00 0.  1.
         21   -1    0    0  502  503 -0.00000000000E+00 -0.00000000000E+00 -0.12504182413E+04  0.12504182413E+04  0.00000000000E+00 0.  1.
    9000007    2    1    2  501    0 -0.19376213632E+02  0.15087194792E+02 -0.49898784333E+03  0.63908931094E+03  0.39855140003E+03 0.  0.
    9000005    1    3    3    0    0  0.60339129578E+02  0.19374696303E+03 -0.23456756229E+03  0.31016388816E+03  0.99999687468E+00 0.  0.
          4    1    3    3  501    0 -0.79715343210E+02 -0.17865976824E+03 -0.26442028104E+03  0.32892542279E+03  0.00000000000E+00 0.  1.
   -9000007    1    1    2    0  503  0.19376213632E+02 -0.15087194792E+02 -0.62245397649E+03  0.74030535183E+03  0.40000000000E+03 0.  1.
<mgrwt>
<rscale>  2 0.40039116E+03</rscale>
<asrwt>0</asrwt>
<pdfrwt beam="1">  1       21 0.19842526E-01 0.40075312E+03</pdfrwt>
<pdfrwt beam="2">  1       21 0.19237204E+00 0.40075312E+03</pdfrwt>
<totfact> 0.30740965E+03</totfact>
</mgrwt>
</event>
<event>
 6    1  0.8947013E-004  0.8365689E+03  0.7818608E-02  0.9508544E-01
         21   -1    0    0  501  502  0.00000000000E+00  0.00000000000E+00  0.29650095813E+04  0.29650095813E+04  0.00000000000E+00 0. -1.
         21   -1    0    0  502  503 -0.00000000000E+00 -0.00000000000E+00 -0.23716848388E+03  0.23716848388E+03  0.00000000000E+00 0. -1.
    9000007    2    1    2  501    0  0.93841484725E+02  0.72872234853E+03  0.12532200847E+04  0.15067873678E+04  0.40000638201E+03 0.  0.
    9000005    1    3    3    0    0  0.17548160631E+02  0.48105385248E+03  0.11118502093E+04  0.12115826983E+04  0.99999687468E+00 0.  0.
          4    1    3    3  501    0  0.76293324094E+02  0.24766849605E+03  0.14136987540E+03  0.29520466952E+03  0.00000000000E+00 0.  1.
   -9000007    1    1    2    0  503 -0.93841484725E+02 -0.72872234853E+03  0.14746210127E+04  0.16953906974E+04  0.40000000000E+03 0. -1.
<mgrwt>
<rscale>  2 0.83656818E+03</rscale>
<asrwt>0</asrwt>
<pdfrwt beam="1">  1       21 0.45615529E+00 0.83656894E+03</pdfrwt>
<pdfrwt beam="2">  1       21 0.36487461E-01 0.83656894E+03</pdfrwt>
<totfact> 0.16133398E+01</totfact>
</mgrwt>
</event>
<event>
 6    1  0.8947013E-004  0.4008265E+03  0.7818608E-02  0.1043546E+00
         21   -1    0    0  501  502  0.00000000000E+00  0.00000000000E+00  0.55503791534E+03  0.55503791534E+03  0.00000000000E+00 0.  1.
         21   -1    0    0  502  503 -0.00000000000E+00 -0.00000000000E+00 -0.29607126145E+03  0.29607126145E+03  0.00000000000E+00 0.  1.
    9000007    2    1    2  501    0 -0.12331894477E+02 -0.52385232751E+01  0.63934733498E+02  0.40589353497E+03  0.40060253848E+03 0.  0.
    9000005    1    3    3    0    0 -0.18682011905E+03  0.25950678478E+02 -0.50061670850E+02  0.19514703553E+03  0.99999687468E+00 0.  0.
          4    1    3    3  501    0  0.17448822457E+03 -0.31189201753E+02  0.11399640435E+03  0.21074649944E+03  0.00000000000E+00 0.  1.
   -9000007    1    1    2    0  503  0.12331894477E+02  0.52385232751E+01  0.19503192040E+03  0.44521564182E+03  0.40000000000E+03 0. -1.
<mgrwt>
<rscale>  2 0.40067590E+03</rscale>
<asrwt>0</asrwt>
<pdfrwt beam="1">  1       21 0.85390449E-01 0.40082654E+03</pdfrwt>
<pdfrwt beam="2">  1       21 0.45549425E-01 0.40082654E+03</pdfrwt>
<totfact> 0.48997434E+03</totfact>
</mgrwt>
</event>
<event>
 6    1  0.8947013E-004  0.4883582E+03  0.7818608E-02  0.1016914E+00
         21   -1    0    0  501  502  0.00000000000E+00  0.00000000000E+00  0.21388152446E+03  0.21388152446E+03  0.00000000000E+00 0. -1.
         21   -1    0    0  502  503 -0.00000000000E+00 -0.00000000000E+00 -0.11309535208E+04  0.11309535208E+04  0.00000000000E+00 0. -1.
    9000007    2    1    2  501    0 -0.16184586014E+03  0.22707559117E+03 -0.54277156441E+03  0.73013331281E+03  0.40091928961E+03 0.  0.
    9000005    1    3    3    0    0 -0.25714472872E+02  0.18729072965E+03 -0.21919156683E+02  0.19031684358E+03  0.99999687468E+00 0.  0.
          4    1    3    3  501    0 -0.13613138727E+03  0.39784861522E+02 -0.52085240773E+03  0.53981646922E+03  0.00000000000E+00 0.  1.
   -9000007    1    1    2    0  503  0.16184586014E+03 -0.22707559117E+03 -0.37430043197E+03  0.61470173249E+03  0.40000000000E+03 0.  1.
<mgrwt>
<rscale>  2 0.48816944E+03</rscale>
<asrwt>0</asrwt>
<pdfrwt beam="1">  1       21 0.32904849E-01 0.48835815E+03</pdfrwt>
<pdfrwt beam="2">  1       21 0.17399285E+00 0.48835815E+03</pdfrwt>
<totfact> 0.14834381E+03</totfact>
</mgrwt>
</event>
<event>
 6    1  0.8947013E-004  0.5291168E+03  0.7818608E-02  0.1006470E+00
         21   -1    0    0  501  502  0.00000000000E+00  0.00000000000E+00  0.52042186901E+03  0.52042186901E+03  0.00000000000E+00 0. -1.
         21   -1    0    0  502  503 -0.00000000000E+00 -0.00000000000E+00 -0.53922357505E+03  0.53922357505E+03  0.00000000000E+00 0. -1.
    9000007    2    1    2  501    0  0.10745651794E+03 -0.32926848075E+03 -0.38763883931E+02  0.53015217290E+03  0.39949224282E+03 0.  0.
    9000005    1    3    3    0    0  0.50415662458E+02 -0.19948130067E+03 -0.21922941212E+03  0.30066104415E+03  0.99999687468E+00 0.  0.
          4    1    3    3  501    0  0.57040855484E+02 -0.12978718008E+03  0.18046552819E+03  0.22949112875E+03  0.00000000000E+00 0.  1.
   -9000007    1    1    2    0  503 -0.10745651794E+03  0.32926848075E+03  0.19962177893E+02  0.52949327117E+03  0.40000000000E+03 0. -1.
<mgrwt>
<rscale>  2 0.52902088E+03</rscale>
<asrwt>0</asrwt>
<pdfrwt beam="1">  1       21 0.80064903E-01 0.52911685E+03</pdfrwt>
<pdfrwt beam="2">  1       21 0.82957473E-01 0.52911685E+03</pdfrwt>
<totfact> 0.14503881E+03</totfact>
</mgrwt>
</event>
<event>
 6    1  0.8947013E-004  0.4395666E+03  0.7818608E-02  0.1030950E+00
         21   -1    0    0  501  502  0.00000000000E+00  0.00000000000E+00  0.11312402844E+04  0.11312402844E+04  0.00000000000E+00 0.  1.
         21   -1    0    0  502  503 -0.00000000000E+00 -0.00000000000E+00 -0.18863657099E+03  0.18863657099E+03  0.00000000000E+00 0.  1.
    9000007    2    1    2  501    0 -0.57724732932E+02 -0.17287760194E+03  0.67578696874E+03  0.80566874065E+03  0.39899283515E+03 0.  0.
    9000005    1    3    3    0    0  0.11967309680E+02 -0.63440701908E+02  0.67279959635E+03  0.67589069827E+03  0.99999687468E+00 0.  0.
          4    1    3    3  501    0 -0.69692042612E+02 -0.10943690003E+03  0.29873723886E+01  0.12977804238E+03  0.00000000000E+00 0.  1.
   -9000007    1    1    2    0  503  0.57724732932E+02  0.17287760194E+03  0.26681674470E+03  0.51420811477E+03  0.40000000000E+03 0.  1.
<mgrwt>
<rscale>  2 0.43933736E+03</rscale>
<asrwt>0</asrwt>
<pdfrwt beam="1">  1       21 0.17403696E+00 0.43956662E+03</pdfrwt>
<pdfrwt beam="2">  1       21 0.29021012E-01 0.43956662E+03</pdfrwt>
<totfact> 0.19426791E+03</totfact>
</mgrwt>
</event>
<event>
 6    1  0.8947013E-004  0.7485948E+03  0.7818608E-02  0.9638977E-01
         21   -1    0    0  501  502  0.00000000000E+00  0.00000000000E+00  0.37999266432E+03  0.37999266432E+03  0.00000000000E+00 0. -1.
         21   -1    0    0  502  503 -0.00000000000E+00 -0.00000000000E+00 -0.15116106675E+04  0.15116106675E+04  0.00000000000E+00 0. -1.
    9000007    2    1    2  501    0 -0.56052426190E+03  0.28430355653E+03 -0.40586894098E+03  0.85154195782E+03  0.40666712215E+03 0.  0.
    9000005    1    3    3    0    0 -0.17565557863E+03  0.28899590539E+03 -0.80728911839E+02  0.34769479840E+03  0.99999687468E+00 0.  0.
          4    1    3    3  501    0 -0.38486868327E+03 -0.46923488579E+01 -0.32514002915E+03  0.50384715942E+03  0.00000000000E+00 0.  1.
   -9000007    1    1    2    0  503  0.56052426190E+03 -0.28430355653E+03 -0.72574906222E+03  0.10400613740E+04  0.40000000000E+03 0. -1.
<mgrwt>
<rscale>  2 0.74769292E+03</rscale>
<asrwt>0</asrwt>
<pdfrwt beam="1">  1       21 0.58460409E-01 0.74859476E+03</pdfrwt>
<pdfrwt beam="2">  1       21 0.23255549E+00 0.74859476E+03</pdfrwt>
<totfact> 0.16291366E+02</totfact>
</mgrwt>
</event>
<event>
 6    1  0.8947013E-004  0.4467166E+03  0.7818608E-02  0.1028730E+00
         21   -1    0    0  501  502  0.00000000000E+00  0.00000000000E+00  0.14662857307E+04  0.14662857307E+04  0.00000000000E+00 0.  1.
         21   -1    0    0  502  503 -0.00000000000E+00 -0.00000000000E+00 -0.14131907085E+03  0.14131907085E+03  0.00000000000E+00 0.  1.
    9000007    2    1    2  501    0  0.42729675647E+02 -0.19424183843E+03  0.81821492676E+03  0.93206573091E+03  0.39964377062E+03 0.  0.
    9000005    1    3    3    0    0 -0.73901818240E+01 -0.10047680961E+03  0.81956761555E+03  0.82573741620E+03  0.99999687468E+00 0.  0.
          4    1    3    3  501    0  0.50119857471E+02 -0.93765028818E+02 -0.13526887967E+01  0.10632831471E+03  0.00000000000E+00 0.  1.
   -9000007    1    1    2    0  503 -0.42729675647E+02  0.19424183843E+03  0.50675173309E+03  0.67553907064E+03  0.40000000000E+03 0.  1.
<mgrwt>
<rscale>  2 0.44663684E+03</rscale>
<asrwt>0</asrwt>
<pdfrwt beam="1">  1       21 0.22558241E+00 0.44671660E+03</pdfrwt>
<pdfrwt beam="2">  1       21 0.21741397E-01 0.44671660E+03</pdfrwt>
<totfact> 0.15346793E+03</totfact>
</mgrwt>
</event>
<event>
 6    1  0.8947013E-004  0.4224715E+03  0.7818608E-02  0.1036344E+00
         21   -1    0    0  501  502  0.00000000000E+00  0.00000000000E+00  0.30920078055E+03  0.30920078055E+03  0.00000000000E+00 0. -1.
         21   -1    0    0  502  503 -0.00000000000E+00 -0.00000000000E+00 -0.71304743266E+03  0.71304743266E+03  0.00000000000E+00 0. -1.
    9000007    2    1    2  501    0  0.12493217545E+03 -0.53610579778E+02  0.22425206709E+02  0.42209003377E+03  0.39896737208E+03 0.  0.
    9000005    1    3    3    0    0 -0.11216522614E+03  0.72254476072E+02  0.68093829924E+02  0.14979825411E+03  0.99999687468E+00 0.  0.
          4    1    3    3  501    0  0.23709740158E+03 -0.12586505585E+03 -0.45668623214E+02  0.27229177966E+03  0.00000000000E+00 0.  1.
   -9000007    1    1    2    0  503 -0.12493217545E+03  0.53610579778E+02 -0.42627185882E+03  0.60015817944E+03  0.40000000000E+03 0.  1.
<mgrwt>
<rscale>  2 0.42222686E+03</rscale>
<asrwt>0</asrwt>
<pdfrwt beam="1">  1       21 0.47569351E-01 0.42247147E+03</pdfrwt>
<pdfrwt beam="2">  1       21 0.10969961E+00 0.42247147E+03</pdfrwt>
<totfact> 0.24280589E+03</totfact>
</mgrwt>
</event>
<event>
 6    1  0.8947013E-004  0.4672273E+03  0.7818608E-02  0.1022851E+00
         21   -1    0    0  501  502  0.00000000000E+00  0.00000000000E+00  0.49594107604E+03  0.49594107604E+03  0.00000000000E+00 0. -1.
         21   -1    0    0  502  503 -0.00000000000E+00 -0.00000000000E+00 -0.56028797271E+03  0.56028797271E+03  0.00000000000E+00 0. -1.
    9000007    2    1    2  501    0 -0.12824327123E+03 -0.19987906504E+03 -0.27869640654E+03  0.54403407646E+03  0.40237223075E+03 0.  0.
    9000005    1    3    3    0    0 -0.44390048574E+02 -0.17480477625E+02 -0.33273396878E+03  0.33613827137E+03  0.99999687468E+00 0.  0.
          4    1    3    3  501    0 -0.83853222661E+02 -0.18239858741E+03  0.54037562236E+02  0.20789580509E+03  0.00000000000E+00 0.  1.
   -9000007    1    1    2    0  503  0.12824327123E+03  0.19987906504E+03  0.21434950986E+03  0.51219497229E+03  0.40000000000E+03 0.  1.
<mgrwt>
<rscale>  2 0.46671616E+03</rscale>
<asrwt>0</asrwt>
<pdfrwt beam="1">  1       21 0.76298627E-01 0.46722734E+03</pdfrwt>
<pdfrwt beam="2">  1       21 0.86198150E-01 0.46722734E+03</pdfrwt>
<totfact> 0.15140298E+03</totfact>
</mgrwt>
</event>
<event>
 6    1  0.8947013E-004  0.4100438E+03  0.7818608E-02  0.1040472E+00
         21   -1    0    0  501  502  0.00000000000E+00  0.00000000000E+00  0.14675347195E+03  0.14675347195E+03  0.00000000000E+00 0. -1.
         21   -1    0    0  502  503 -0.00000000000E+00 -0.00000000000E+00 -0.15214507001E+04  0.15214507001E+04  0.00000000000E+00 0. -1.
    9000007    2    1    2  501    0  0.76722744092E+02  0.33512139859E+02 -0.27158946415E+03  0.49183000454E+03  0.40140562197E+03 0.  0.
    9000005    1    3    3    0    0  0.24207207913E+03  0.32326109889E+02 -0.15036735181E+03  0.28680168995E+03  0.99999687468E+00 0.  0.
          4    1    3    3  501    0 -0.16534933504E+03  0.11860299704E+01 -0.12122211235E+03  0.20502831460E+03  0.00000000000E+00 0.  1.
   -9000007    1    1    2    0  503 -0.76722744092E+02 -0.33512139859E+02 -0.11031077640E+04  0.11763741675E+04  0.40000000000E+03 0. -1.
<mgrwt>
<rscale>  2 0.40969939E+03</rscale>
<asrwt>0</asrwt>
<pdfrwt beam="1">  1       21 0.22577457E-01 0.41004380E+03</pdfrwt>
<pdfrwt beam="2">  1       21 0.23406935E+00 0.41004380E+03</pdfrwt>
<totfact> 0.12852748E+03</totfact>
</mgrwt>
</event>
<event>
 6    1  0.8947013E-004  0.4560043E+03  0.7818608E-02  0.1026002E+00
         21   -1    0    0  501  502  0.00000000000E+00  0.00000000000E+00  0.49259918434E+03  0.49259918434E+03  0.00000000000E+00 0.  1.
         21   -1    0    0  502  503 -0.00000000000E+00 -0.00000000000E+00 -0.58609914999E+03  0.58609914999E+03  0.00000000000E+00 0.  1.
    9000007    2    1    2  501    0 -0.38957446735E+02 -0.21385831331E+03  0.23910613711E+03  0.51488996225E+03  0.40085766501E+03 0.  0.
    9000005    1    3    3    0    0  0.69148143646E+02  0.27007943470E+02 -0.74344896759E+02  0.10506692366E+03  0.99999687468E+00 0.  0.
          4    1    3    3  501    0 -0.10810559038E+03 -0.24086625678E+03  0.31345103387E+03  0.40982303859E+03  0.00000000000E+00 0.  1.
   -9000007    1    1    2    0  503  0.38957446735E+02  0.21385831331E+03 -0.33260610277E+03  0.56380837208E+03  0.40000000000E+03 0.  1.
<mgrwt>
<rscale>  2 0.45581575E+03</rscale>
<asrwt>0</asrwt>
<pdfrwt beam="1">  1       21 0.75784490E-01 0.45600431E+03</pdfrwt>
<pdfrwt beam="2">  1       21 0.90169100E-01 0.45600431E+03</pdfrwt>
<totfact> 0.13885744E+03</totfact>
</mgrwt>
</event>
<event>
 6    1  0.8947013E-004  0.4045581E+03  0.7818608E-02  0.1042355E+00
         21   -1    0    0  501  502  0.00000000000E+00  0.00000000000E+00  0.40455460127E+03  0.40455460127E+03  0.00000000000E+00 0. -1.
         21   -1    0    0  502  503 -0.00000000000E+00 -0.00000000000E+00 -0.88025628051E+03  0.88025628051E+03  0.00000000000E+00 0. -1.
    9000007    2    1    2  501    0 -0.37469198193E+01  0.48022317396E+02  0.23499684374E+03  0.46785765610E+03  0.40168032990E+03 0.  0.
    9000005    1    3    3    0    0 -0.75113716497E+02 -0.16236733795E+03  0.74553398043E+02  0.19381545860E+03  0.99999687468E+00 0.  0.
          4    1    3    3  501    0  0.71366796678E+02  0.21038965534E+03  0.16044344570E+03  0.27404219750E+03  0.00000000000E+00 0.  1.
   -9000007    1    1    2    0  503  0.37469198193E+01 -0.48022317396E+02 -0.71069852298E+03  0.81695322568E+03  0.40000000000E+03 0. -1.
<mgrwt>
<rscale>  2 0.40414039E+03</rscale>
<asrwt>0</asrwt>
<pdfrwt beam="1">  1       21 0.62239170E-01 0.40455812E+03</pdfrwt>
<pdfrwt beam="2">  1       21 0.13542404E+00 0.40455812E+03</pdfrwt>
<totfact> 0.80301359E+02</totfact>
</mgrwt>
</event>
<event>
 6    1  0.8947013E-004  0.4079963E+03  0.7818608E-02  0.1041088E+00
         21   -1    0    0  501  502  0.00000000000E+00  0.00000000000E+00  0.11098896297E+04  0.11098896297E+04  0.00000000000E+00 0.  1.
         21   -1    0    0  502  503 -0.00000000000E+00 -0.00000000000E+00 -0.20998434920E+03  0.20998434920E+03  0.00000000000E+00 0.  1.
    9000007    2    1    2  501    0  0.22505889696E+02 -0.77165408072E+02  0.80307950326E+03  0.90054565120E+03  0.39948062040E+03 0.  0.
    9000005    1    3    3    0    0  0.11783634094E+03 -0.62215698699E+01  0.34656312543E+02  0.12298850016E+03  0.99999687468E+00 0.  0.
          4    1    3    3  501    0 -0.95330451245E+02 -0.70943838202E+02  0.76842319071E+03  0.77755715104E+03  0.00000000000E+00 0.  1.
   -9000007    1    1    2    0  503 -0.22505889696E+02  0.77165408072E+02  0.96825777237E+02  0.41932832770E+03  0.40000000000E+03 0.  1.
<mgrwt>
<rscale>  2 0.40786899E+03</rscale>
<asrwt>0</asrwt>
<pdfrwt beam="1">  1       21 0.17075225E+00 0.40799634E+03</pdfrwt>
<pdfrwt beam="2">  1       21 0.32305285E-01 0.40799634E+03</pdfrwt>
<totfact> 0.16804634E+03</totfact>
</mgrwt>
</event>
<event>
 6    1  0.8947013E-004  0.4541454E+03  0.7818608E-02  0.1026522E+00
         21   -1    0    0  501  502  0.00000000000E+00  0.00000000000E+00  0.21350734769E+03  0.21350734769E+03  0.00000000000E+00 0.  1.
         21   -1    0    0  502  503 -0.00000000000E+00 -0.00000000000E+00 -0.17593279746E+04  0.17593279746E+04  0.00000000000E+00 0.  1.
    9000007    2    1    2  501    0 -0.61988133944E+02 -0.20505496531E+03 -0.11035430376E+03  0.46736076839E+03  0.40044718494E+03 0.  0.
    9000005    1    3    3    0    0 -0.11537286039E+03  0.67657504928E+02  0.54301141555E+02  0.14435390142E+03  0.99999687468E+00 0.  0.
          4    1    3    3  501    0  0.53384726444E+02 -0.27271247024E+03 -0.16465544531E+03  0.32300686697E+03  0.00000000000E+00 0.  1.
   -9000007    1    1    2    0  503  0.61988133944E+02  0.20505496531E+03 -0.14354663231E+04  0.15054745539E+04  0.40000000000E+03 0.  1.
<mgrwt>
<rscale>  2 0.45404677E+03</rscale>
<asrwt>0</asrwt>
<pdfrwt beam="1">  1       21 0.32847284E-01 0.45414537E+03</pdfrwt>
<pdfrwt beam="2">  1       21 0.27066585E+00 0.45414537E+03</pdfrwt>
<totfact> 0.35878352E+02</totfact>
</mgrwt>
</event>
<event>
 6    1  0.8947013E-004  0.5390161E+03  0.7818608E-02  0.1004070E+00
         21   -1    0    0  501  502  0.00000000000E+00  0.00000000000E+00  0.87054790698E+03  0.87054790698E+03  0.00000000000E+00 0.  1.
         21   -1    0    0  502  503 -0.00000000000E+00 -0.00000000000E+00 -0.37309788997E+03  0.37309788997E+03  0.00000000000E+00 0.  1.
    9000007    2    1    2  501    0  0.13389192943E+03 -0.33554349994E+03  0.45071909804E+03  0.70262798957E+03  0.40002737066E+03 0.  0.
    9000005    1    3    3    0    0 -0.71264645238E+02 -0.34539703421E+02 -0.42179828155E+02  0.89731703819E+02  0.99999687468E+00 0.  0.
          4    1    3    3  501    0  0.20515657467E+03 -0.30100379652E+03  0.49289892619E+03  0.61289628575E+03  0.00000000000E+00 0.  1.
   -9000007    1    1    2    0  503 -0.13389192943E+03  0.33554349994E+03  0.46730918967E+02  0.54101780738E+03  0.40000000000E+03 0.  1.
<mgrwt>
<rscale>  2 0.53901105E+03</rscale>
<asrwt>0</asrwt>
<pdfrwt beam="1">  1       21 0.13393045E+00 0.53901613E+03</pdfrwt>
<pdfrwt beam="2">  1       21 0.57399676E-01 0.53901613E+03</pdfrwt>
<totfact> 0.93415929E+02</totfact>
</mgrwt>
</event>
<event>
 6    1  0.8947013E-004  0.4285580E+03  0.7818608E-02  0.1034321E+00
         21   -1    0    0  501  502  0.00000000000E+00  0.00000000000E+00  0.21855394163E+03  0.21855394163E+03  0.00000000000E+00 0. -1.
         21   -1    0    0  502  503 -0.00000000000E+00 -0.00000000000E+00 -0.15168747519E+04  0.15168747519E+04  0.00000000000E+00 0. -1.
    9000007    2    1    2  501    0  0.15242216473E+03 -0.19392634420E+02 -0.12287255852E+04  0.13013180096E+04  0.40006675425E+03 0.  0.
    9000005    1    3    3    0    0  0.11575850457E+03 -0.20460453944E+03 -0.77520477667E+03  0.81006573480E+03  0.99999687468E+00 0.  0.
          4    1    3    3  501    0  0.36663660169E+02  0.18521190502E+03 -0.45352080850E+03  0.49125227478E+03  0.00000000000E+00 0.  1.
   -9000007    1    1    2    0  503 -0.15242216473E+03  0.19392634420E+02 -0.69595225122E+02  0.43411068396E+03  0.40000000000E+03 0. -1.
<mgrwt>
<rscale>  2 0.42854247E+03</rscale>
<asrwt>0</asrwt>
<pdfrwt beam="1">  1       21 0.33623684E-01 0.42855805E+03</pdfrwt>
<pdfrwt beam="2">  1       21 0.23336534E+00 0.42855805E+03</pdfrwt>
<totfact> 0.58785814E+02</totfact>
</mgrwt>
</event>
<event>
 6    1  0.8947013E-004  0.5169414E+03  0.7818608E-02  0.1009472E+00
         21   -1    0    0  501  502  0.00000000000E+00  0.00000000000E+00  0.62359330246E+03  0.62359330246E+03  0.00000000000E+00 0. -1.
         21   -1    0    0  502  503 -0.00000000000E+00 -0.00000000000E+00 -0.44814235360E+03  0.44814235360E+03  0.00000000000E+00 0. -1.
    9000007    2    1    2  501    0  0.15518480471E+02 -0.32708954843E+03  0.20066638612E+03  0.55417965503E+03  0.39952433668E+03 0.  0.
    9000005    1    3    3    0    0 -0.15660948475E+03 -0.29648858719E+03  0.89668891102E+02  0.34709296028E+03  0.99999687468E+00 0.  0.
          4    1    3    3  501    0  0.17212796522E+03 -0.30600961235E+02  0.11099749502E+03  0.20708669475E+03  0.00000000000E+00 0.  1.
   -9000007    1    1    2    0  503 -0.15518480471E+02  0.32708954843E+03 -0.25215437260E+02  0.51755600103E+03  0.40000000000E+03 0. -1.
<mgrwt>
<rscale>  2 0.51684937E+03</rscale>
<asrwt>0</asrwt>
<pdfrwt beam="1">  1       21 0.95937431E-01 0.51694139E+03</pdfrwt>
<pdfrwt beam="2">  1       21 0.68944978E-01 0.51694139E+03</pdfrwt>
<totfact> 0.14514938E+03</totfact>
</mgrwt>
</event>
<event>
 6    1  0.8947013E-004  0.4032951E+03  0.7818608E-02  0.1042741E+00
         21   -1    0    0  501  502  0.00000000000E+00  0.00000000000E+00  0.10768594165E+04  0.10768594165E+04  0.00000000000E+00 0.  1.
         21   -1    0    0  502  503 -0.00000000000E+00 -0.00000000000E+00 -0.71621342019E+03  0.71621342019E+03  0.00000000000E+00 0.  1.
    9000007    2    1    2  501    0 -0.10685089677E+02 -0.40344689262E+02  0.97708482268E+03  0.10570438347E+04  0.40112972047E+03 0.  0.
    9000005    1    3    3    0    0  0.83328887274E+02  0.83800727562E+02  0.84389011265E+03  0.85212545298E+03  0.99999687468E+00 0.  0.
          4    1    3    3  501    0 -0.94013976951E+02 -0.12414541682E+03  0.13319471003E+03  0.20491838170E+03  0.00000000000E+00 0.  1.
   -9000007    1    1    2    0  503  0.10685089677E+02  0.40344689262E+02 -0.61643882638E+03  0.73602900199E+03  0.40000000000E+03 0.  1.
<mgrwt>
<rscale>  2 0.40301387E+03</rscale>
<asrwt>0</asrwt>
<pdfrwt beam="1">  1       21 0.16567068E+00 0.40329508E+03</pdfrwt>
<pdfrwt beam="2">  1       21 0.11018668E+00 0.40329508E+03</pdfrwt>
<totfact> 0.12312099E+02</totfact>
</mgrwt>
</event>
<event>
 6    1  0.8947013E-004  0.6626977E+03  0.7818608E-02  0.9783583E-01
         21   -1    0    0  501  502  0.00000000000E+00  0.00000000000E+00  0.77532515828E+03  0.77532515828E+03  0.00000000000E+00 0. -1.
         21   -1    0    0  502  503 -0.00000000000E+00 -0.00000000000E+00 -0.13612743502E+04  0.13612743502E+04  0.00000000000E+00 0. -1.
    9000007    2    1    2  501    0 -0.50240528213E+03  0.16051909623E+03  0.52360587188E+03  0.84458949020E+03  0.40123665103E+03 0.  0.
    9000005    1    3    3    0    0 -0.22943548146E+03 -0.10902340740E+03  0.32533471247E+03  0.41275951672E+03  0.99999687468E+00 0.  0.
          4    1    3    3  501    0 -0.27296980066E+03  0.26954250363E+03  0.19827115941E+03  0.43182997347E+03  0.00000000000E+00 0.  1.
   -9000007    1    1    2    0  503  0.50240528213E+03 -0.16051909623E+03 -0.11095550638E+04  0.12920100183E+04  0.40000000000E+03 0. -1.
<mgrwt>
<rscale>  2 0.66251066E+03</rscale>
<asrwt>0</asrwt>
<pdfrwt beam="1">  1       21 0.11928079E+00 0.66269774E+03</pdfrwt>
<pdfrwt beam="2">  1       21 0.20942682E+00 0.66269774E+03</pdfrwt>
<totfact> 0.44006750E+01</totfact>
</mgrwt>
</event>
<event>
 6    1  0.8947013E-004  0.6163117E+03  0.7818608E-02  0.9872253E-01
         21   -1    0    0  501  502  0.00000000000E+00  0.00000000000E+00  0.29453224924E+03  0.29453224924E+03  0.00000000000E+00 0.  1.
         21   -1    0    0  502  503 -0.00000000000E+00 -0.00000000000E+00 -0.14483380788E+04  0.14483380788E+04  0.00000000000E+00 0. -1.
    9000007    2    1    2  501    0 -0.22266915276E+02  0.46802092882E+03 -0.28807926339E+03  0.68031590933E+03  0.40037566005E+03 0.  0.
    9000005    1    3    3    0    0 -0.12571219744E+03  0.36058600719E+03 -0.35078025161E+03  0.51853024027E+03  0.99999687468E+00 0.  0.
          4    1    3    3  501    0  0.10344528216E+03  0.10743492163E+03  0.62700988220E+02  0.16178566905E+03  0.00000000000E+00 0.  1.
   -9000007    1    1    2    0  503  0.22266915276E+02 -0.46802092882E+03 -0.86572656613E+03  0.10625544187E+04  0.40000000000E+03 0. -1.
<mgrwt>
<rscale>  2 0.61625067E+03</rscale>
<asrwt>0</asrwt>
<pdfrwt beam="1">  1       21 0.45312654E-01 0.61631167E+03</pdfrwt>
<pdfrwt beam="2">  1       21 0.22282124E+00 0.61631167E+03</pdfrwt>
<totfact> 0.34120784E+02</totfact>
</mgrwt>
</event>
<event>
 6    1  0.8947013E-004  0.4166148E+03  0.7818608E-02  0.1038188E+00
         21   -1    0    0  501  502  0.00000000000E+00  0.00000000000E+00  0.11801172585E+04  0.11801172585E+04  0.00000000000E+00 0.  1.
         21   -1    0    0  502  503 -0.00000000000E+00 -0.00000000000E+00 -0.20051175304E+03  0.20051175304E+03  0.00000000000E+00 0.  1.
    9000007    2    1    2  501    0 -0.10999382220E+03 -0.36442492767E+02  0.84643589612E+03  0.94340956888E+03  0.40017645135E+03 0.  0.
    9000005    1    3    3    0    0  0.14712651603E+02  0.21959308336E+02 -0.39113231569E+02  0.47217774379E+02  0.99999687468E+00 0.  0.
          4    1    3    3  501    0 -0.12470647380E+03 -0.58401801104E+02  0.88554912769E+03  0.89619179450E+03  0.00000000000E+00 0.  1.
   -9000007    1    1    2    0  503  0.10999382220E+03  0.36442492767E+02  0.13316960935E+03  0.43721944268E+03  0.40000000000E+03 0.  1.
<mgrwt>
<rscale>  2 0.41657242E+03</rscale>
<asrwt>0</asrwt>
<pdfrwt beam="1">  1       21 0.18155650E+00 0.41661480E+03</pdfrwt>
<pdfrwt beam="2">  1       21 0.30847963E-01 0.41661480E+03</pdfrwt>
<totfact> 0.15376200E+03</totfact>
</mgrwt>
</event>
<event>
 6    1  0.8947013E-004  0.4318159E+03  0.7818608E-02  0.1033292E+00
         21   -1    0    0  501  502  0.00000000000E+00  0.00000000000E+00  0.14702885742E+04  0.14702885742E+04  0.00000000000E+00 0. -1.
         21   -1    0    0  502  503 -0.00000000000E+00 -0.00000000000E+00 -0.13537993259E+03  0.13537993259E+03  0.00000000000E+00 0. -1.
    9000007    2    1    2  501    0  0.15636739872E+03  0.44879816233E+02  0.46538787762E+03  0.63482798420E+03  0.39994466068E+03 0.  0.
    9000005    1    3    3    0    0  0.10906304571E+03 -0.44599370978E+02 -0.36090861628E+02  0.12323717831E+03  0.99999687468E+00 0.  0.
          4    1    3    3  501    0  0.47304353009E+02  0.89479187211E+02  0.50147873924E+03  0.51159080589E+03  0.00000000000E+00 0.  1.
   -9000007    1    1    2    0  503 -0.15636739872E+03 -0.44879816233E+02  0.86952076401E+03  0.97084052260E+03  0.40000000000E+03 0.  1.
<mgrwt>
<rscale>  2 0.43180307E+03</rscale>
<asrwt>0</asrwt>
<pdfrwt beam="1">  1       21 0.22619823E+00 0.43181589E+03</pdfrwt>
<pdfrwt beam="2">  1       21 0.20827683E-01 0.43181589E+03</pdfrwt>
<totfact> 0.16627806E+03</totfact>
</mgrwt>
</event>
<event>
 6    1  0.8947013E-004  0.5699095E+03  0.7818608E-02  0.9970107E-01
         21   -1    0    0  501  502  0.00000000000E+00  0.00000000000E+00  0.73963888683E+03  0.73963888683E+03  0.00000000000E+00 0. -1.
         21   -1    0    0  502  503 -0.00000000000E+00 -0.00000000000E+00 -0.10441857523E+04  0.10441857523E+04  0.00000000000E+00 0.  1.
    9000007    2    1    2  501    0 -0.27732735859E+02  0.40500344247E+03  0.52686818156E+03  0.77583263844E+03  0.39941120299E+03 0.  0.
    9000005    1    3    3    0    0 -0.18365126417E+02  0.28416618469E+03  0.57796075596E+03  0.64430375896E+03  0.99999687468E+00 0.  0.
          4    1    3    3  501    0 -0.93676094418E+01  0.12083725779E+03 -0.51092574404E+02  0.13152887947E+03  0.00000000000E+00 0.  1.
   -9000007    1    1    2    0  503  0.27732735859E+02 -0.40500344247E+03 -0.83141504704E+03  0.10079920007E+04  0.40000000000E+03 0.  1.
<mgrwt>
<rscale>  2 0.56980624E+03</rscale>
<asrwt>0</asrwt>
<pdfrwt beam="1">  1       21 0.11379060E+00 0.56990955E+03</pdfrwt>
<pdfrwt beam="2">  1       21 0.16064396E+00 0.56990955E+03</pdfrwt>
<totfact> 0.11382432E+02</totfact>
</mgrwt>
</event>
<event>
 6    1  0.8947013E-004  0.4194299E+03  0.7818608E-02  0.1037286E+00
         21   -1    0    0  501  502  0.00000000000E+00  0.00000000000E+00  0.43739618325E+03  0.43739618325E+03  0.00000000000E+00 0. -1.
         21   -1    0    0  502  503 -0.00000000000E+00 -0.00000000000E+00 -0.49761586643E+03  0.49761586643E+03  0.00000000000E+00 0. -1.
    9000007    2    1    2  501    0  0.10720122382E+03  0.63900995951E+02  0.17501577831E+03  0.45447988424E+03  0.40043227000E+03 0.  0.
    9000005    1    3    3    0    0  0.42768346080E+02  0.20519280378E+03 -0.13739811220E+02  0.21005475609E+03  0.99999687468E+00 0.  0.
          4    1    3    3  501    0  0.64432877739E+02 -0.14129180783E+03  0.18875558953E+03  0.24442512815E+03  0.00000000000E+00 0.  1.
   -9000007    1    1    2    0  503 -0.10720122382E+03 -0.63900995951E+02 -0.23523546149E+03  0.48053216543E+03  0.40000000000E+03 0. -1.
<mgrwt>
<rscale>  2 0.41932670E+03</rscale>
<asrwt>0</asrwt>
<pdfrwt beam="1">  1       21 0.67291721E-01 0.41942990E+03</pdfrwt>
<pdfrwt beam="2">  1       21 0.76556287E-01 0.41942990E+03</pdfrwt>
<totfact> 0.26961214E+03</totfact>
</mgrwt>
</event>
<event>
 6    1  0.8947013E-004  0.4968851E+03  0.7818608E-02  0.1014647E+00
         21   -1    0    0  501  502  0.00000000000E+00  0.00000000000E+00  0.40639184611E+03  0.40639184611E+03  0.00000000000E+00 0. -1.
         21   -1    0    0  502  503 -0.00000000000E+00 -0.00000000000E+00 -0.60691077908E+03  0.60691077908E+03  0.00000000000E+00 0.  1.
    9000007    2    1    2  501    0 -0.14495518924E+03 -0.25513653429E+03 -0.11253998902E+03  0.50947035886E+03  0.40098396403E+03 0.  0.
    9000005    1    3    3    0    0 -0.11977265819E+03  0.71859393214E+02  0.43474731904E+02  0.14628846280E+03  0.99999687468E+00 0.  0.
          4    1    3    3  501    0 -0.25182531057E+02 -0.32699592751E+03 -0.15601472093E+03  0.36318189606E+03  0.00000000000E+00 0.  1.
   -9000007    1    1    2    0  503  0.14495518924E+03  0.25513653429E+03 -0.87978943948E+02  0.50383226633E+03  0.40000000000E+03 0.  1.
<mgrwt>
<rscale>  2 0.49668655E+03</rscale>
<asrwt>0</asrwt>
<pdfrwt beam="1">  1       21 0.62521823E-01 0.49688509E+03</pdfrwt>
<pdfrwt beam="2">  1       21 0.93370889E-01 0.49688509E+03</pdfrwt>
<totfact> 0.19401468E+03</totfact>
</mgrwt>
</event>
<event>
 6    1  0.8947013E-004  0.5164806E+03  0.7818608E-02  0.1009588E+00
         21   -1    0    0  501  502  0.00000000000E+00  0.00000000000E+00  0.19103326296E+04  0.19103326296E+04  0.00000000000E+00 0. -1.
         21   -1    0    0  502  503 -0.00000000000E+00 -0.00000000000E+00 -0.16987331158E+03  0.16987331158E+03  0.00000000000E+00 0.  1.
    9000007    2    1    2  501    0 -0.27097303813E+03  0.18149433714E+03  0.43094124302E+03  0.67265339490E+03  0.40048177603E+03 0.  0.
    9000005    1    3    3    0    0 -0.18316528924E+03  0.22825014284E+03  0.47965411284E+03  0.56188674912E+03  0.99999687468E+00 0.  0.
          4    1    3    3  501    0 -0.87807748897E+02 -0.46755805695E+02 -0.48712869813E+02  0.11076664578E+03  0.00000000000E+00 0.  1.
   -9000007    1    1    2    0  503  0.27097303813E+03 -0.18149433714E+03  0.13095180750E+04  0.14075525463E+04  0.40000000000E+03 0. -1.
<mgrwt>
<rscale>  2 0.51638723E+03</rscale>
<asrwt>0</asrwt>
<pdfrwt beam="1">  1       21 0.29389731E+00 0.51648062E+03</pdfrwt>
<pdfrwt beam="2">  1       21 0.26134357E-01 0.51648062E+03</pdfrwt>
<totfact> 0.39551269E+02</totfact>
</mgrwt>
</event>
<event>
 6    1  0.8947013E-004  0.4099090E+03  0.7818608E-02  0.1040557E+00
         21   -1    0    0  501  502  0.00000000000E+00  0.00000000000E+00  0.45108104149E+03  0.45108104149E+03  0.00000000000E+00 0.  1.
         21   -1    0    0  502  503 -0.00000000000E+00 -0.00000000000E+00 -0.74206560500E+03  0.74206560500E+03  0.00000000000E+00 0.  1.
    9000007    2    1    2  501    0  0.82240305079E+02 -0.35523335221E+02  0.27663739586E+03  0.49298947564E+03  0.39810174476E+03 0.  0.
    9000005    1    3    3    0    0 -0.10340986738E+03 -0.14728206586E+03  0.18384046611E+03  0.25726236524E+03  0.99999687468E+00 0.  0.
          4    1    3    3  501    0  0.18565017246E+03  0.11175873064E+03  0.92796929747E+02  0.23572711040E+03  0.00000000000E+00 0.  1.
   -9000007    1    1    2    0  503 -0.82240305079E+02  0.35523335221E+02 -0.56762195937E+03  0.70015717084E+03  0.40000000000E+03 0.  1.
<mgrwt>
<rscale>  2 0.40944516E+03</rscale>
<asrwt>0</asrwt>
<pdfrwt beam="1">  1       21 0.69397083E-01 0.40990898E+03</pdfrwt>
<pdfrwt beam="2">  1       21 0.11416394E+00 0.40990898E+03</pdfrwt>
<totfact> 0.97308721E+02</totfact>
</mgrwt>
</event>
<event>
 6    1  0.8947013E-004  0.4862639E+03  0.7818608E-02  0.1017432E+00
         21   -1    0    0  501  502  0.00000000000E+00  0.00000000000E+00  0.38564267323E+03  0.38564267323E+03  0.00000000000E+00 0.  1.
         21   -1    0    0  502  503 -0.00000000000E+00 -0.00000000000E+00 -0.61430381723E+03  0.61430381723E+03  0.00000000000E+00 0. -1.
    9000007    2    1    2  501    0  0.19659520133E+03  0.19425430909E+03 -0.91756609371E+02  0.49484525171E+03  0.40008516343E+03 0.  0.
    9000005    1    3    3    0    0 -0.74823230380E+02  0.73291201280E+02 -0.15879039972E+03  0.19022488541E+03  0.99999687468E+00 0.  0.
          4    1    3    3  501    0  0.27141843171E+03  0.12096310781E+03  0.67033790352E+02  0.30462036631E+03  0.00000000000E+00 0.  1.
   -9000007    1    1    2    0  503 -0.19659520133E+03 -0.19425430909E+03 -0.13690453463E+03  0.50510123875E+03  0.40000000000E+03 0. -1.
<mgrwt>
<rscale>  2 0.48624635E+03</rscale>
<asrwt>0</asrwt>
<pdfrwt beam="1">  1       21 0.59329642E-01 0.48626387E+03</pdfrwt>
<pdfrwt beam="2">  1       21 0.94508280E-01 0.48626387E+03</pdfrwt>
<totfact> 0.21229149E+03</totfact>
</mgrwt>
</event>
<event>
 6    1  0.8947013E-004  0.4615242E+03  0.7818608E-02  0.1024351E+00
         21   -1    0    0  501  502  0.00000000000E+00  0.00000000000E+00  0.47079990586E+03  0.47079990586E+03  0.00000000000E+00 0. -1.
         21   -1    0    0  502  503 -0.00000000000E+00 -0.00000000000E+00 -0.50928964340E+03  0.50928964340E+03  0.00000000000E+00 0. -1.
    9000007    2    1    2  501    0  0.73634809141E+02  0.21813407669E+03 -0.18319436828E+03  0.49641198032E+03  0.39982510814E+03 0.  0.
    9000005    1    3    3    0    0 -0.26335304201E+02  0.30689122194E+03 -0.19111183878E+03  0.36249207614E+03  0.99999687468E+00 0.  0.
          4    1    3    3  501    0  0.99970113342E+02 -0.88757145251E+02  0.79174704941E+01  0.13391990417E+03  0.00000000000E+00 0.  1.
   -9000007    1    1    2    0  503 -0.73634809141E+02 -0.21813407669E+03  0.14470463074E+03  0.48367756893E+03  0.40000000000E+03 0. -1.
<mgrwt>
<rscale>  2 0.46148627E+03</rscale>
<asrwt>0</asrwt>
<pdfrwt beam="1">  1       21 0.72430755E-01 0.46152417E+03</pdfrwt>
<pdfrwt beam="2">  1       21 0.78352253E-01 0.46152417E+03</pdfrwt>
<totfact> 0.21326013E+03</totfact>
</mgrwt>
</event>
<event>
 6    1  0.8947013E-004  0.6631435E+03  0.7818608E-02  0.9782547E-01
         21   -1    0    0  501  502  0.00000000000E+00  0.00000000000E+00  0.21390086094E+04  0.21390086094E+04  0.00000000000E+00 0.  1.
         21   -1    0    0  502  503 -0.00000000000E+00 -0.00000000000E+00 -0.25993665195E+03  0.25993665195E+03  0.00000000000E+00 0.  1.
    9000007    2    1    2  501    0 -0.40493508669E+03  0.34027477641E+03  0.39050852818E+03  0.76935008743E+03  0.39955387441E+03 0.  0.
    9000005    1    3    3    0    0 -0.23188281033E+03 -0.32617178858E+02  0.22942328702E+03  0.32782550649E+03  0.99999687468E+00 0.  0.
          4    1    3    3  501    0 -0.17305227635E+03  0.37289195527E+03  0.16108524116E+03  0.44152458094E+03  0.00000000000E+00 0.  1.
   -9000007    1    1    2    0  503  0.40493508669E+03 -0.34027477641E+03  0.14885634293E+04  0.16295951740E+04  0.40000000000E+03 0.  1.
<mgrwt>
<rscale>  2 0.66307627E+03</rscale>
<asrwt>0</asrwt>
<pdfrwt beam="1">  1       21 0.32907824E+00 0.66314353E+03</pdfrwt>
<pdfrwt beam="2">  1       21 0.39990255E-01 0.66314353E+03</pdfrwt>
<totfact> 0.95687887E+01</totfact>
</mgrwt>
</event>
<event>
 6    1  0.8947013E-004  0.4083774E+03  0.7818608E-02  0.1040986E+00
         21   -1    0    0  501  502  0.00000000000E+00  0.00000000000E+00  0.16053318051E+03  0.16053318051E+03  0.00000000000E+00 0. -1.
         21   -1    0    0  502  503 -0.00000000000E+00 -0.00000000000E+00 -0.11047616341E+04  0.11047616341E+04  0.00000000000E+00 0. -1.
    9000007    2    1    2  501    0 -0.10769827278E+02 -0.77386636080E+02 -0.62949001181E+03  0.75035310203E+03  0.40083340945E+03 0.  0.
    9000005    1    3    3    0    0  0.33587233781E+02 -0.23869073577E+03 -0.37682502282E+03  0.44732478965E+03  0.99999687468E+00 0.  0.
          4    1    3    3  501    0 -0.44357061059E+02  0.16130409969E+03 -0.25266498899E+03  0.30302831238E+03  0.00000000000E+00 0.  1.
   -9000007    1    1    2    0  503  0.10769827278E+02  0.77386636080E+02 -0.31473844180E+03  0.51494171260E+03  0.40000000000E+03 0. -1.
<mgrwt>
<rscale>  2 0.40817275E+03</rscale>
<asrwt>0</asrwt>
<pdfrwt beam="1">  1       21 0.24697412E-01 0.40837740E+03</pdfrwt>
<pdfrwt beam="2">  1       21 0.16996333E+00 0.40837740E+03</pdfrwt>
<totfact> 0.28887564E+03</totfact>
</mgrwt>
</event>
<event>
 6    1  0.8947013E-004  0.4356310E+03  0.7818608E-02  0.1032134E+00
         21   -1    0    0  501  502  0.00000000000E+00  0.00000000000E+00  0.12917849539E+03  0.12917849539E+03  0.00000000000E+00 0. -1.
         21   -1    0    0  502  503 -0.00000000000E+00 -0.00000000000E+00 -0.14908263576E+04  0.14908263576E+04  0.00000000000E+00 0.  1.
    9000007    2    1    2  501    0  0.14078449309E+03  0.97620542128E+02 -0.57975609362E+03  0.72518376387E+03  0.40053004825E+03 0.  0.
    9000005    1    3    3    0    0  0.12756505118E+03  0.65190841946E+02  0.11077331520E+01  0.14326519194E+03  0.99999687468E+00 0.  0.
          4    1    3    3  501    0  0.13219441905E+02  0.32429700182E+02 -0.58086382678E+03  0.58191857193E+03  0.00000000000E+00 0.  1.
   -9000007    1    1    2    0  503 -0.14078449309E+03 -0.97620542128E+02 -0.78189176861E+03  0.89482108914E+03  0.40000000000E+03 0.  1.
<mgrwt>
<rscale>  2 0.43550912E+03</rscale>
<asrwt>0</asrwt>
<pdfrwt beam="1">  1       21 0.19873614E-01 0.43563099E+03</pdfrwt>
<pdfrwt beam="2">  1       21 0.22935791E+00 0.43563099E+03</pdfrwt>
<totfact> 0.17335982E+03</totfact>
</mgrwt>
</event>
<event>
 6    1  0.8947013E-004  0.4537038E+03  0.7818608E-02  0.1026635E+00
         21   -1    0    0  501  502  0.00000000000E+00  0.00000000000E+00  0.24767620229E+03  0.24767620229E+03  0.00000000000E+00 0.  1.
         21   -1    0    0  502  503 -0.00000000000E+00 -0.00000000000E+00 -0.11213897694E+04  0.11213897694E+04  0.00000000000E+00 0.  1.
    9000007    2    1    2  501    0 -0.93102764374E+02 -0.19281859859E+03 -0.78525153740E+03  0.90681856237E+03  0.39981594687E+03 0.  0.
    9000005    1    3    3    0    0 -0.13711727894E+03 -0.30314686573E+03 -0.53910186402E+03  0.63350689828E+03  0.99999687468E+00 0.  0.
          4    1    3    3  501    0  0.44014514564E+02  0.11032826714E+03 -0.24614967338E+03  0.27331166409E+03  0.00000000000E+00 0.  1.
   -9000007    1    1    2    0  503  0.93102764374E+02  0.19281859859E+03 -0.88462029680E+02  0.46224740929E+03  0.40000000000E+03 0. -1.
<mgrwt>
<rscale>  2 0.45366323E+03</rscale>
<asrwt>0</asrwt>
<pdfrwt beam="1">  1       21 0.38104032E-01 0.45370380E+03</pdfrwt>
<pdfrwt beam="2">  1       21 0.17252150E+00 0.45370380E+03</pdfrwt>
<totfact> 0.11450754E+03</totfact>
</mgrwt>
</event>
<event>
 6    1  0.8947013E-004  0.4342584E+03  0.7818608E-02  0.1032543E+00
         21   -1    0    0  501  502  0.00000000000E+00  0.00000000000E+00  0.14609175070E+03  0.14609175070E+03  0.00000000000E+00 0.  1.
         21   -1    0    0  502  503 -0.00000000000E+00 -0.00000000000E+00 -0.17887131014E+04  0.17887131014E+04  0.00000000000E+00 0.  1.
    9000007    2    1    2  501    0 -0.16816689781E+03  0.92012805871E+01 -0.31071648951E+03  0.53397105455E+03  0.40026938574E+03 0.  0.
    9000005    1    3    3    0    0  0.12637869927E+03 -0.45103323543E+02 -0.10881165761E+03  0.17276244456E+03  0.99999687468E+00 0.  0.
          4    1    3    3  501    0 -0.29454559708E+03  0.54304604130E+02 -0.20190483190E+03  0.36120860999E+03  0.00000000000E+00 0.  1.
   -9000007    1    1    2    0  503  0.16816689781E+03 -0.92012805871E+01 -0.13319048612E+04  0.14008337975E+04  0.40000000000E+03 0.  1.
<mgrwt>
<rscale>  2 0.43419631E+03</rscale>
<asrwt>0</asrwt>
<pdfrwt beam="1">  1       21 0.22475653E-01 0.43425839E+03</pdfrwt>
<pdfrwt beam="2">  1       21 0.27518664E+00 0.43425839E+03</pdfrwt>
<totfact> 0.71781243E+02</totfact>
</mgrwt>
</event>
<event>
 6    1  0.8947013E-004  0.5364013E+03  0.7818608E-02  0.1004697E+00
         21   -1    0    0  501  502  0.00000000000E+00  0.00000000000E+00  0.11025662324E+04  0.11025662324E+04  0.00000000000E+00 0.  1.
         21   -1    0    0  502  503 -0.00000000000E+00 -0.00000000000E+00 -0.33263681120E+03  0.33263681120E+03  0.00000000000E+00 0.  1.
    9000007    2    1    2  501    0 -0.35160428064E+03 -0.64037055716E+02  0.71815610948E+03  0.89630899975E+03  0.39986911707E+03 0.  0.
    9000005    1    3    3    0    0  0.38597442964E+01 -0.85938834654E+01  0.44372415958E+03  0.44382528347E+03  0.99999687468E+00 0.  0.
          4    1    3    3  501    0 -0.35546402494E+03 -0.55443172251E+02  0.27443194990E+03  0.45248371629E+03  0.00000000000E+00 0.  1.
   -9000007    1    1    2    0  503  0.35160428064E+03  0.64037055716E+02  0.51773311699E+02  0.53889404383E+03  0.40000000000E+03 0.  1.
<mgrwt>
<rscale>  2 0.53637686E+03</rscale>
<asrwt>0</asrwt>
<pdfrwt beam="1">  1       21 0.16962557E+00 0.53640126E+03</pdfrwt>
<pdfrwt beam="2">  1       21 0.51174895E-01 0.53640126E+03</pdfrwt>
<totfact> 0.62681220E+02</totfact>
</mgrwt>
</event>
<event>
 6    1  0.8947013E-004  0.4210478E+03  0.7818608E-02  0.1036763E+00
         21   -1    0    0  501  502  0.00000000000E+00  0.00000000000E+00  0.45923051700E+03  0.45923051700E+03  0.00000000000E+00 0.  1.
         21   -1    0    0  502  503 -0.00000000000E+00 -0.00000000000E+00 -0.44043017485E+03  0.44043017485E+03  0.00000000000E+00 0.  1.
    9000007    2    1    2  501    0  0.17733117270E+02  0.12876455548E+03  0.16809312419E+03  0.45336134279E+03  0.40048275187E+03 0.  0.
    9000005    1    3    3    0    0 -0.16864241984E+03  0.59301482681E+02 -0.19656911042E+02  0.17984528285E+03  0.99999687468E+00 0.  0.
          4    1    3    3  501    0  0.18637553711E+03  0.69463072801E+02  0.18775003523E+03  0.27351605994E+03  0.00000000000E+00 0.  1.
   -9000007    1    1    2    0  503 -0.17733117270E+02 -0.12876455548E+03 -0.14929278203E+03  0.44629934905E+03  0.40000000000E+03 0.  1.
<mgrwt>
<rscale>  2 0.42093292E+03</rscale>
<asrwt>0</asrwt>
<pdfrwt beam="1">  1       21 0.70650849E-01 0.42104775E+03</pdfrwt>
<pdfrwt beam="2">  1       21 0.67758489E-01 0.42104775E+03</pdfrwt>
<totfact> 0.31833041E+03</totfact>
</mgrwt>
</event>
<event>
 6    1  0.8947013E-004  0.4336332E+03  0.7818608E-02  0.1032892E+00
         21   -1    0    0  501  502  0.00000000000E+00  0.00000000000E+00  0.28993064551E+03  0.28993064551E+03  0.00000000000E+00 0. -1.
         21   -1    0    0  502  503 -0.00000000000E+00 -0.00000000000E+00 -0.76231546376E+03  0.76231546376E+03  0.00000000000E+00 0.  1.
    9000007    2    1    2  501    0 -0.14883383341E+03  0.62989847347E+02 -0.30529780792E+02  0.43470655186E+03  0.40239096396E+03 0.  0.
    9000005    1    3    3    0    0 -0.20498840446E+03  0.16529714928E+03  0.78717527381E+02  0.27484694401E+03  0.99999687468E+00 0.  0.
          4    1    3    3  501    0  0.56154571054E+02 -0.10230730193E+03 -0.10924730817E+03  0.15985960785E+03  0.00000000000E+00 0.  1.
   -9000007    1    1    2    0  503  0.14883383341E+03 -0.62989847347E+02 -0.44185503746E+03  0.61753955741E+03  0.40000000000E+03 0. -1.
<mgrwt>
<rscale>  2 0.43307765E+03</rscale>
<asrwt>0</asrwt>
<pdfrwt beam="1">  1       21 0.44604715E-01 0.43363316E+03</pdfrwt>
<pdfrwt beam="2">  1       21 0.11727930E+00 0.43363316E+03</pdfrwt>
<totfact> 0.23428716E+03</totfact>
</mgrwt>
</event>
<event>
 6    1  0.8947013E-004  0.5194440E+03  0.7818608E-02  0.1008857E+00
         21   -1    0    0  501  502  0.00000000000E+00  0.00000000000E+00  0.98537472180E+03  0.98537472180E+03  0.00000000000E+00 0. -1.
         21   -1    0    0  502  503 -0.00000000000E+00 -0.00000000000E+00 -0.39597427899E+03  0.39597427899E+03  0.00000000000E+00 0.  1.
    9000007    2    1    2  501    0 -0.60365664986E+01 -0.33051541716E+03  0.67884046400E+03  0.85477858906E+03  0.40068089501E+03 0.  0.
    9000005    1    3    3    0    0  0.90477582266E+02  0.64674528741E+02  0.12084604311E+03  0.16423688285E+03  0.99999687468E+00 0.  0.
          4    1    3    3  501    0 -0.96514148764E+02 -0.39518994591E+03  0.55799442090E+03  0.69054170620E+03  0.00000000000E+00 0.  1.
   -9000007    1    1    2    0  503  0.60365664986E+01  0.33051541716E+03 -0.89440021202E+02  0.52657041173E+03  0.40000000000E+03 0.  1.
<mgrwt>
<rscale>  2 0.51931268E+03</rscale>
<asrwt>0</asrwt>
<pdfrwt beam="1">  1       21 0.15159611E+00 0.51944399E+03</pdfrwt>
<pdfrwt beam="2">  1       21 0.60919120E-01 0.51944399E+03</pdfrwt>
<totfact> 0.59191257E+02</totfact>
</mgrwt>
</event>
<event>
 6    1  0.8947013E-004  0.4865671E+03  0.7818608E-02  0.1017348E+00
         21   -1    0    0  501  502  0.00000000000E+00  0.00000000000E+00  0.35023783136E+03  0.35023783136E+03  0.00000000000E+00 0. -1.
         21   -1    0    0  502  503 -0.00000000000E+00 -0.00000000000E+00 -0.69525651965E+03  0.69525651965E+03  0.00000000000E+00 0. -1.
    9000007    2    1    2  501    0  0.22204709149E+03 -0.16565821683E+03 -0.85296878399E+02  0.49394836546E+03  0.39995234046E+03 0.  0.
    9000005    1    3    3    0    0  0.29468752057E+03  0.13052187943E+01 -0.44498063968E+01  0.29472570154E+03  0.99999687468E+00 0.  0.
          4    1    3    3  501    0 -0.72640429076E+02 -0.16696343562E+03 -0.80847072002E+02  0.19922266393E+03  0.00000000000E+00 0.  1.
   -9000007    1    1    2    0  503 -0.22204709149E+03  0.16565821683E+03 -0.25972180989E+03  0.55154598555E+03  0.40000000000E+03 0. -1.
<mgrwt>
<rscale>  2 0.48655732E+03</rscale>
<asrwt>0</asrwt>
<pdfrwt beam="1">  1       21 0.53882744E-01 0.48656711E+03</pdfrwt>
<pdfrwt beam="2">  1       21 0.10696254E+00 0.48656711E+03</pdfrwt>
<totfact> 0.19349060E+03</totfact>
</mgrwt>
</event>
<event>
 6    1  0.8947013E-004  0.4162761E+03  0.7818608E-02  0.1038292E+00
         21   -1    0    0  501  502  0.00000000000E+00  0.00000000000E+00  0.32068013341E+03  0.32068013341E+03  0.00000000000E+00 0.  1.
         21   -1    0    0  502  503 -0.00000000000E+00 -0.00000000000E+00 -0.74230071455E+03  0.74230071455E+03  0.00000000000E+00 0.  1.
    9000007    2    1    2  501    0 -0.10006270341E+03 -0.57212412309E+02  0.66494482098E+02  0.42146536123E+03  0.39990715152E+03 0.  0.
    9000005    1    3    3    0    0  0.42110224721E+01 -0.83152312795E+02  0.21934963410E+03  0.23462161411E+03  0.99999687468E+00 0.  0.
          4    1    3    3  501    0 -0.10427372588E+03  0.25939900487E+02 -0.15285515200E+03  0.18684374713E+03  0.00000000000E+00 0.  1.
   -9000007    1    1    2    0  503  0.10006270341E+03  0.57212412309E+02 -0.48811506324E+03  0.64151548672E+03  0.40000000000E+03 0. -1.
<mgrwt>
<rscale>  2 0.41625381E+03</rscale>
<asrwt>0</asrwt>
<pdfrwt beam="1">  1       21 0.49335405E-01 0.41627612E+03</pdfrwt>
<pdfrwt beam="2">  1       21 0.11420011E+00 0.41627612E+03</pdfrwt>
<totfact> 0.20393670E+03</totfact>
</mgrwt>
</event>
<event>
 6    1  0.8947013E-004  0.4090460E+03  0.7818608E-02  0.1040700E+00
         21   -1    0    0  501  502  0.00000000000E+00  0.00000000000E+00  0.48635636526E+03  0.48635636526E+03  0.00000000000E+00 0. -1.
         21   -1    0    0  502  503 -0.00000000000E+00 -0.00000000000E+00 -0.10940154805E+04  0.10940154805E+04  0.00000000000E+00 0. -1.
    9000007    2    1    2  501    0  0.82899059524E+02 -0.21126839686E+02  0.35047271008E+03  0.53857762802E+03  0.39989516560E+03 0.  0.
    9000005    1    3    3    0    0 -0.11534789085E+03 -0.10640912069E+03  0.26184983023E+03  0.30527753025E+03  0.99999687468E+00 0.  0.
          4    1    3    3  501    0  0.19824695038E+03  0.85282281005E+02  0.88622879846E+02  0.23330009777E+03  0.00000000000E+00 0.  1.
   -9000007    1    1    2    0  503 -0.82899059524E+02  0.21126839686E+02 -0.95813182528E+03  0.10417942177E+04  0.40000000000E+03 0. -1.
<mgrwt>
<rscale>  2 0.40902033E+03</rscale>
<asrwt>0</asrwt>
<pdfrwt beam="1">  1       21 0.74824057E-01 0.40904596E+03</pdfrwt>
<pdfrwt beam="2">  1       21 0.16831007E+00 0.40904596E+03</pdfrwt>
<totfact> 0.29381643E+02</totfact>
</mgrwt>
</event>
<event>
 6    1  0.8947013E-004  0.4096443E+03  0.7818608E-02  0.1040510E+00
         21   -1    0    0  501  502  0.00000000000E+00  0.00000000000E+00  0.64266354482E+03  0.64266354482E+03  0.00000000000E+00 0. -1.
         21   -1    0    0  502  503 -0.00000000000E+00 -0.00000000000E+00 -0.36198487922E+03  0.36198487922E+03  0.00000000000E+00 0. -1.
    9000007    2    1    2  501    0  0.20639361963E+02  0.84788205500E+02  0.40573464876E+03  0.57656663049E+03  0.40024174087E+03 0.  0.
    9000005    1    3    3    0    0  0.39891679756E+02  0.18166213655E+03  0.43538088187E+03  0.47344481226E+03  0.99999687468E+00 0.  0.
          4    1    3    3  501    0 -0.19252317792E+02 -0.96873931047E+02 -0.29646233111E+02  0.10312181823E+03  0.00000000000E+00 0.  1.
   -9000007    1    1    2    0  503 -0.20639361963E+02 -0.84788205500E+02 -0.12505598316E+03  0.42808179356E+03  0.40000000000E+03 0. -1.
<mgrwt>
<rscale>  2 0.40958527E+03</rscale>
<asrwt>0</asrwt>
<pdfrwt beam="1">  1       21 0.98871315E-01 0.40964433E+03</pdfrwt>
<pdfrwt beam="2">  1       21 0.55689981E-01 0.40964433E+03</pdfrwt>
<totfact> 0.22493669E+03</totfact>
</mgrwt>
</event>
<event>
 6    1  0.8947013E-004  0.4036544E+03  0.7818608E-02  0.1042526E+00
         21   -1    0    0  501  502  0.00000000000E+00  0.00000000000E+00  0.19069842798E+03  0.19069842798E+03  0.00000000000E+00 0. -1.
         21   -1    0    0  502  503 -0.00000000000E+00 -0.00000000000E+00 -0.11179116164E+04  0.11179116164E+04  0.00000000000E+00 0. -1.
    9000007    2    1    2  501    0  0.82979461146E+01 -0.53195152597E+02 -0.14590988926E+03  0.42921626145E+03  0.40004790106E+03 0.  0.
    9000005    1    3    3    0    0  0.17410546153E+03 -0.27615477159E+02  0.37943111325E+02  0.18032195098E+03  0.99999687468E+00 0.  0.
          4    1    3    3  501    0 -0.16580751542E+03 -0.25579675437E+02 -0.18385300058E+03  0.24889431048E+03  0.00000000000E+00 0.  1.
   -9000007    1    1    2    0  503 -0.82979461146E+01  0.53195152597E+02 -0.78130329918E+03  0.87939378294E+03  0.40000000000E+03 0.  1.
<mgrwt>
<rscale>  2 0.40364257E+03</rscale>
<asrwt>0</asrwt>
<pdfrwt beam="1">  1       21 0.29338220E-01 0.40365444E+03</pdfrwt>
<pdfrwt beam="2">  1       21 0.17198640E+00 0.40365444E+03</pdfrwt>
<totfact> 0.19981212E+03</totfact>
</mgrwt>
</event>
<event>
 6    1  0.8947013E-004  0.5592777E+03  0.7818608E-02  0.9994051E-01
         21   -1    0    0  501  502  0.00000000000E+00  0.00000000000E+00  0.85996692922E+03  0.85996692922E+03  0.00000000000E+00 0. -1.
         21   -1    0    0  502  503 -0.00000000000E+00 -0.00000000000E+00 -0.38787728252E+03  0.38787728252E+03  0.00000000000E+00 0. -1.
    9000007    2    1    2  501    0  0.12063245095E+03  0.37084931662E+03  0.79154566052E+02  0.56485125317E+03  0.40088662864E+03 0.  0.
    9000005    1    3    3    0    0  0.72426660213E+02  0.40863435910E+03 -0.53789992251E+02  0.41847583420E+03  0.99999687468E+00 0.  0.
          4    1    3    3  501    0  0.48205790741E+02 -0.37785042485E+02  0.13294455830E+03  0.14637541897E+03  0.00000000000E+00 0.  1.
   -9000007    1    1    2    0  503 -0.12063245095E+03 -0.37084931662E+03  0.39293508064E+03  0.68299295857E+03  0.40000000000E+03 0. -1.
<mgrwt>
<rscale>  2 0.55911879E+03</rscale>
<asrwt>0</asrwt>
<pdfrwt beam="1">  1       21 0.13230260E+00 0.55927765E+03</pdfrwt>
<pdfrwt beam="2">  1       21 0.59673428E-01 0.55927765E+03</pdfrwt>
<totfact> 0.87971416E+02</totfact>
</mgrwt>
</event>
<event>
 6    1  0.8947013E-004  0.6174144E+03  0.7818608E-02  0.9870066E-01
         21   -1    0    0  501  502  0.00000000000E+00  0.00000000000E+00  0.42370827353E+03  0.42370827353E+03  0.00000000000E+00 0.  1.
         21   -1    0    0  502  503 -0.00000000000E+00 -0.00000000000E+00 -0.92592093505E+03  0.92592093505E+03  0.00000000000E+00 0. -1.
    9000007    2    1    2  501    0 -0.43012993240E+03 -0.18929469103E+03 -0.36567880038E+03  0.71758037025E+03  0.40044520714E+03 0.  0.
    9000005    1    3    3    0    0  0.26608753714E+01 -0.15532932137E+03 -0.19923288672E+03  0.25264406084E+03  0.99999687468E+00 0.  0.
          4    1    3    3  501    0 -0.43279080777E+03 -0.33965369659E+02 -0.16644591366E+03  0.46493630940E+03  0.00000000000E+00 0.  1.
   -9000007    1    1    2    0  503  0.43012993240E+03  0.18929469103E+03 -0.13653386113E+03  0.63204883833E+03  0.40000000000E+03 0.  1.
<mgrwt>
<rscale>  2 0.61734227E+03</rscale>
<asrwt>0</asrwt>
<pdfrwt beam="1">  1       21 0.65185889E-01 0.61741445E+03</pdfrwt>
<pdfrwt beam="2">  1       21 0.14244937E+00 0.61741445E+03</pdfrwt>
<totfact> 0.58265955E+02</totfact>
</mgrwt>
</event>
<event>
 6    1  0.8947013E-004  0.4510198E+03  0.7818608E-02  0.1027478E+00
         21   -1    0    0  501  502  0.00000000000E+00  0.00000000000E+00  0.27588082505E+03  0.27588082505E+03  0.00000000000E+00 0. -1.
         21   -1    0    0  502  503 -0.00000000000E+00 -0.00000000000E+00 -0.12274465761E+04  0.12274465761E+04  0.00000000000E+00 0.  1.
    9000007    2    1    2  501    0  0.20757534265E+03  0.18201676070E+02  0.69024368322E-01  0.45022362200E+03  0.39910209364E+03 0.  0.
    9000005    1    3    3    0    0  0.27193191195E+03  0.67287591552E+02  0.12063763393E+03  0.30500659571E+03  0.99999687468E+00 0.  0.
          4    1    3    3  501    0 -0.64356569300E+02 -0.49085915482E+02 -0.12056860956E+03  0.14521702628E+03  0.00000000000E+00 0.  1.
   -9000007    1    1    2    0  503 -0.20757534265E+03 -0.18201676070E+02 -0.95163477542E+03  0.10531037792E+04  0.40000000000E+03 0.  1.
<mgrwt>
<rscale>  2 0.45082059E+03</rscale>
<asrwt>0</asrwt>
<pdfrwt beam="1">  1       21 0.42443204E-01 0.45101976E+03</pdfrwt>
<pdfrwt beam="2">  1       21 0.18883793E+00 0.45101976E+03</pdfrwt>
<totfact> 0.70458690E+02</totfact>
</mgrwt>
</event>
<event>
 6    1  0.8947013E-004  0.5337544E+03  0.7818608E-02  0.1005337E+00
         21   -1    0    0  501  502  0.00000000000E+00  0.00000000000E+00  0.10713642456E+04  0.10713642456E+04  0.00000000000E+00 0.  1.
         21   -1    0    0  502  503 -0.00000000000E+00 -0.00000000000E+00 -0.58804718056E+03  0.58804718056E+03  0.00000000000E+00 0. -1.
    9000007    2    1    2  501    0 -0.66496448281E+02  0.34679978221E+03  0.85586026022E+03  0.10086577870E+04  0.40025227014E+03 0.  0.
    9000005    1    3    3    0    0 -0.63225730360E+02 -0.15591229838E+02 -0.13741783739E+02  0.66561370490E+02  0.99999687468E+00 0.  0.
          4    1    3    3  501    0 -0.32707179207E+01  0.36239101205E+03  0.86960204396E+03  0.94209641655E+03  0.00000000000E+00 0.  1.
   -9000007    1    1    2    0  503  0.66496448281E+02 -0.34679978221E+03 -0.37254319517E+03  0.65075363913E+03  0.40000000000E+03 0. -1.
<mgrwt>
<rscale>  2 0.53370709E+03</rscale>
<asrwt>0</asrwt>
<pdfrwt beam="1">  1       21 0.16482527E+00 0.53375439E+03</pdfrwt>
<pdfrwt beam="2">  1       21 0.90468797E-01 0.53375439E+03</pdfrwt>
<totfact> 0.18859836E+02</totfact>
</mgrwt>
</event>
<event>
 6    1  0.8947013E-004  0.4074564E+03  0.7818608E-02  0.1041374E+00
         21   -1    0    0  501  502  0.00000000000E+00  0.00000000000E+00  0.54806907550E+03  0.54806907550E+03  0.00000000000E+00 0.  1.
         21   -1    0    0  502  503 -0.00000000000E+00 -0.00000000000E+00 -0.33830489219E+03  0.33830489219E+03  0.00000000000E+00 0.  1.
    9000007    2    1    2  501    0  0.71531661566E+02 -0.30064958769E+02  0.25057758618E+03  0.47687865123E+03  0.39825047514E+03 0.  0.
    9000005    1    3    3    0    0 -0.70196082802E+02  0.10678727428E+01  0.31163709342E+03  0.31944844401E+03  0.99999687468E+00 0.  0.
          4    1    3    3  501    0  0.14172774437E+03 -0.31132831512E+02 -0.61059507233E+02  0.15743020722E+03  0.00000000000E+00 0.  1.
   -9000007    1    1    2    0  503 -0.71531661566E+02  0.30064958769E+02 -0.40813402877E+02  0.40949531646E+03  0.40000000000E+03 0. -1.
<mgrwt>
<rscale>  2 0.40702633E+03</rscale>
<asrwt>0</asrwt>
<pdfrwt beam="1">  1       21 0.84318319E-01 0.40745635E+03</pdfrwt>
<pdfrwt beam="2">  1       21 0.52046907E-01 0.40745635E+03</pdfrwt>
<totfact> 0.37970442E+03</totfact>
</mgrwt>
</event>
<event>
 6    1  0.8947013E-004  0.4318509E+03  0.7818608E-02  0.1033299E+00
         21   -1    0    0  501  502  0.00000000000E+00  0.00000000000E+00  0.67921250089E+03  0.67921250089E+03  0.00000000000E+00 0.  1.
         21   -1    0    0  502  503 -0.00000000000E+00 -0.00000000000E+00 -0.11750038202E+04  0.11750038202E+04  0.00000000000E+00 0.  1.
    9000007    2    1    2  501    0  0.13399302294E+03  0.92417777034E+02  0.56379025383E+03  0.71000992107E+03  0.39969921440E+03 0.  0.
    9000005    1    3    3    0    0  0.26507445881E+03  0.11204921099E+03  0.30553808419E+03  0.41973088435E+03  0.99999687468E+00 0.  0.
          4    1    3    3  501    0 -0.13108143587E+03 -0.19631433961E+02  0.25825216964E+03  0.29027903671E+03  0.00000000000E+00 0.  1.
   -9000007    1    1    2    0  503 -0.13399302294E+03 -0.92417777034E+02 -0.10595815732E+04  0.11442064000E+04  0.40000000000E+03 0.  1.
<mgrwt>
<rscale>  2 0.43178121E+03</rscale>
<asrwt>0</asrwt>
<pdfrwt beam="1">  1       21 0.10449423E+00 0.43185087E+03</pdfrwt>
<pdfrwt beam="2">  1       21 0.18076982E+00 0.43185087E+03</pdfrwt>
<totfact> 0.10745096E+02</totfact>
</mgrwt>
</event>
<event>
 6    1  0.8947013E-004  0.4651518E+03  0.7818608E-02  0.1023314E+00
         21   -1    0    0  501  502  0.00000000000E+00  0.00000000000E+00  0.70857696906E+03  0.70857696906E+03  0.00000000000E+00 0.  1.
         21   -1    0    0  502  503 -0.00000000000E+00 -0.00000000000E+00 -0.81982158554E+03  0.81982158554E+03  0.00000000000E+00 0.  1.
    9000007    2    1    2  501    0  0.51444723622E+01  0.23690505570E+03  0.54983966948E+03  0.72020123702E+03  0.40026952001E+03 0.  0.
    9000005    1    3    3    0    0  0.48976264370E+02 -0.89256709031E+02  0.26879635593E+03  0.28743332363E+03  0.99999687468E+00 0.  0.
          4    1    3    3  501    0 -0.43831792008E+02  0.32616176473E+03  0.28104331356E+03  0.43276791339E+03  0.00000000000E+00 0.  1.
   -9000007    1    1    2    0  503 -0.51444723622E+01 -0.23690505570E+03 -0.66108428596E+03  0.80819731759E+03  0.40000000000E+03 0. -1.
<mgrwt>
<rscale>  2 0.46509377E+03</rscale>
<asrwt>0</asrwt>
<pdfrwt beam="1">  1       21 0.10901184E+00 0.46515176E+03</pdfrwt>
<pdfrwt beam="2">  1       21 0.12612640E+00 0.46515176E+03</pdfrwt>
<totfact> 0.25429604E+02</totfact>
</mgrwt>
</event>
<event>
 6    1  0.8947013E-004  0.4086702E+03  0.7818608E-02  0.1041151E+00
         21   -1    0    0  501  502  0.00000000000E+00  0.00000000000E+00  0.77823396689E+03  0.77823396689E+03  0.00000000000E+00 0.  1.
         21   -1    0    0  502  503 -0.00000000000E+00 -0.00000000000E+00 -0.27540227621E+03  0.27540227621E+03  0.00000000000E+00 0.  1.
    9000007    2    1    2  501    0 -0.40247928451E+02  0.46879128315E+02  0.50403152274E+03  0.64889065879E+03  0.40397247770E+03 0.  0.
    9000005    1    3    3    0    0  0.83654743626E+02 -0.14778471205E+03  0.27873589605E+03  0.32639414362E+03  0.99999687468E+00 0.  0.
          4    1    3    3  501    0 -0.12390267208E+03  0.19466384037E+03  0.22529562669E+03  0.32249651517E+03  0.00000000000E+00 0.  1.
   -9000007    1    1    2    0  503  0.40247928451E+02 -0.46879128315E+02 -0.11998320589E+01  0.40474558430E+03  0.40000000000E+03 0.  1.
<mgrwt>
<rscale>  2 0.40768503E+03</rscale>
<asrwt>0</asrwt>
<pdfrwt beam="1">  1       21 0.11972830E+00 0.40867017E+03</pdfrwt>
<pdfrwt beam="2">  1       21 0.42369581E-01 0.40867017E+03</pdfrwt>
<totfact> 0.24996687E+03</totfact>
</mgrwt>
</event>
<event>
 6    1  0.8947013E-004  0.4533843E+03  0.7818608E-02  0.1026746E+00
         21   -1    0    0  501  502  0.00000000000E+00  0.00000000000E+00  0.14000003874E+04  0.14000003874E+04  0.00000000000E+00 0. -1.
         21   -1    0    0  502  503 -0.00000000000E+00 -0.00000000000E+00 -0.45039821030E+03  0.45039821030E+03  0.00000000000E+00 0.  1.
    9000007    2    1    2  501    0 -0.15489444445E+03  0.14565920260E+03  0.12345918752E+04  0.13152088927E+04  0.40043531432E+03 0.  0.
    9000005    1    3    3    0    0 -0.12829840160E+03  0.20476915499E+02  0.11596472295E+04  0.11669029440E+04  0.99999687468E+00 0.  0.
          4    1    3    3  501    0 -0.26596042852E+02  0.12518228711E+03  0.74944645729E+02  0.14830594871E+03  0.00000000000E+00 0.  1.
   -9000007    1    1    2    0  503  0.15489444445E+03 -0.14565920260E+03 -0.28498969814E+03  0.53518970494E+03  0.40000000000E+03 0.  1.
<mgrwt>
<rscale>  2 0.45328817E+03</rscale>
<asrwt>0</asrwt>
<pdfrwt beam="1">  1       21 0.21538467E+00 0.45338431E+03</pdfrwt>
<pdfrwt beam="2">  1       21 0.69292033E-01 0.45338431E+03</pdfrwt>
<totfact> 0.16282085E+02</totfact>
</mgrwt>
</event>
<event>
 6    1  0.8947013E-004  0.4331904E+03  0.7818608E-02  0.1032893E+00
         21   -1    0    0  501  502  0.00000000000E+00  0.00000000000E+00  0.88990233617E+03  0.88990233617E+03  0.00000000000E+00 0. -1.
         21   -1    0    0  502  503 -0.00000000000E+00 -0.00000000000E+00 -0.24770831734E+03  0.24770831734E+03  0.00000000000E+00 0. -1.
    9000007    2    1    2  501    0 -0.16046756751E+02  0.16432115553E+03  0.54125285807E+03  0.69325937525E+03  0.40049340125E+03 0.  0.
    9000005    1    3    3    0    0  0.12214315588E+03  0.38128427997E+02  0.80989828872E+01  0.12821591581E+03  0.99999687468E+00 0.  0.
          4    1    3    3  501    0 -0.13818991263E+03  0.12619272753E+03  0.53315387518E+03  0.56504345944E+03  0.00000000000E+00 0.  1.
   -9000007    1    1    2    0  503  0.16046756751E+02 -0.16432115553E+03  0.10094116077E+03  0.44435127826E+03  0.40000000000E+03 0.  1.
<mgrwt>
<rscale>  2 0.43307630E+03</rscale>
<asrwt>0</asrwt>
<pdfrwt beam="1">  1       21 0.13690805E+00 0.43319038E+03</pdfrwt>
<pdfrwt beam="2">  1       21 0.38108972E-01 0.43319038E+03</pdfrwt>
<totfact> 0.21779255E+03</totfact>
</mgrwt>
</event>
<event>
 6    1  0.8947013E-004  0.4155613E+03  0.7818608E-02  0.1038529E+00
         21   -1    0    0  501  502  0.00000000000E+00  0.00000000000E+00  0.80126328178E+02  0.80126328178E+02  0.00000000000E+00 0.  1.
         21   -1    0    0  502  503 -0.00000000000E+00 -0.00000000000E+00 -0.21837511318E+04  0.21837511318E+04  0.00000000000E+00 0.  1.
    9000007    2    1    2  501    0  0.75690625630E+02  0.82943908116E+02 -0.11824441862E+04  0.12533417147E+04  0.40010303354E+03 0.  0.
    9000005    1    3    3    0    0 -0.14964620754E+03 -0.36425106077E+02 -0.55724750768E+03  0.57814060624E+03  0.99999687468E+00 0.  0.
          4    1    3    3  501    0  0.22533683317E+03  0.11936901419E+03 -0.62519667857E+03  0.67520110843E+03  0.00000000000E+00 0.  1.
   -9000007    1    1    2    0  503 -0.75690625630E+02 -0.82943908116E+02 -0.92118061734E+03  0.10105357453E+04  0.40000000000E+03 0.  1.
<mgrwt>
<rscale>  2 0.41553651E+03</rscale>
<asrwt>0</asrwt>
<pdfrwt beam="1">  1       21 0.12327126E-01 0.41556131E+03</pdfrwt>
<pdfrwt beam="2">  1       21 0.33596175E+00 0.41556131E+03</pdfrwt>
<totfact> 0.96190892E+02</totfact>
</mgrwt>
</event>
<event>
 6    1  0.8947013E-004  0.4059188E+03  0.7818608E-02  0.1041775E+00
         21   -1    0    0  501  502  0.00000000000E+00  0.00000000000E+00  0.29172783771E+03  0.29172783771E+03  0.00000000000E+00 0. -1.
         21   -1    0    0  502  503 -0.00000000000E+00 -0.00000000000E+00 -0.86185760929E+03  0.86185760929E+03  0.00000000000E+00 0. -1.
    9000007    2    1    2  501    0 -0.15751739997E+02  0.67245296137E+02  0.53873348664E+02  0.40917296642E+03  0.39968754245E+03 0.  0.
    9000005    1    3    3    0    0  0.12703506104E+03  0.98736506032E+02  0.16122753300E+03  0.22777647321E+03  0.99999687468E+00 0.  0.
          4    1    3    3  501    0 -0.14278680104E+03 -0.31491209896E+02 -0.10735418434E+03  0.18139649321E+03  0.00000000000E+00 0.  1.
   -9000007    1    1    2    0  503  0.15751739997E+02 -0.67245296137E+02 -0.62400312025E+03  0.74441248058E+03  0.40000000000E+03 0. -1.
<mgrwt>
<rscale>  2 0.40584177E+03</rscale>
<asrwt>0</asrwt>
<pdfrwt beam="1">  1       21 0.44881207E-01 0.40591877E+03</pdfrwt>
<pdfrwt beam="2">  1       21 0.13259347E+00 0.40591877E+03</pdfrwt>
<totfact> 0.17080464E+03</totfact>
</mgrwt>
</event>
<event>
 6    1  0.8947013E-004  0.6209562E+03  0.7818608E-02  0.9862940E-01
         21   -1    0    0  501  502  0.00000000000E+00  0.00000000000E+00  0.17863989799E+04  0.17863989799E+04  0.00000000000E+00 0. -1.
         21   -1    0    0  502  503 -0.00000000000E+00 -0.00000000000E+00 -0.28238879944E+03  0.28238879944E+03  0.00000000000E+00 0. -1.
    9000007    2    1    2  501    0 -0.39852806301E+03 -0.25838346984E+03  0.12542731927E+04  0.13994932272E+04  0.39974168726E+03 0.  0.
    9000005    1    3    3    0    0 -0.11398331170E+03 -0.13913201554E+03  0.94746578560E+03  0.96438702188E+03  0.99999687468E+00 0.  0.
          4    1    3    3  501    0 -0.28454475131E+03 -0.11925145430E+03  0.30680740712E+03  0.43510620533E+03  0.00000000000E+00 0.  1.
   -9000007    1    1    2    0  503  0.39852806301E+03  0.25838346984E+03  0.24973698779E+03  0.66929455217E+03  0.40000000000E+03 0. -1.
<mgrwt>
<rscale>  2 0.62091463E+03</rscale>
<asrwt>0</asrwt>
<pdfrwt beam="1">  1       21 0.27483061E+00 0.62095623E+03</pdfrwt>
<pdfrwt beam="2">  1       21 0.43444432E-01 0.62095623E+03</pdfrwt>
<totfact> 0.17596306E+02</totfact>
</mgrwt>
</event>
<event>
 6    1  0.8947013E-004  0.7141004E+03  0.7818608E-02  0.9693513E-01
         21   -1    0    0  501  502  0.00000000000E+00  0.00000000000E+00  0.51478575591E+03  0.51478575591E+03  0.00000000000E+00 0.  1.
         21   -1    0    0  502  503 -0.00000000000E+00 -0.00000000000E+00 -0.13051615613E+04  0.13051615613E+04  0.00000000000E+00 0. -1.
    9000007    2    1    2  501    0  0.97182887718E+02 -0.58351934825E+03  0.51828225019E+02  0.71575214772E+03  0.39959433006E+03 0.  0.
    9000005    1    3    3    0    0 -0.69531314355E+02 -0.33130870732E+02 -0.94918647123E+02  0.12224077813E+03  0.99999687468E+00 0.  0.
          4    1    3    3  501    0  0.16671420207E+03 -0.55038847752E+03  0.14674687214E+03  0.59351136960E+03  0.00000000000E+00 0.  1.
   -9000007    1    1    2    0  503 -0.97182887718E+02  0.58351934825E+03 -0.84220403037E+03  0.11041951694E+04  0.40000000000E+03 0. -1.
<mgrwt>
<rscale>  2 0.71404358E+03</rscale>
<asrwt>0</asrwt>
<pdfrwt beam="1">  1       21 0.79197809E-01 0.71410037E+03</pdfrwt>
<pdfrwt beam="2">  1       21 0.20079409E+00 0.71410037E+03</pdfrwt>
<totfact> 0.13394160E+02</totfact>
</mgrwt>
</event>
<event>
 6    1  0.8947013E-004  0.4069973E+03  0.7818608E-02  0.1041450E+00
         21   -1    0    0  501  502  0.00000000000E+00  0.00000000000E+00  0.38667847919E+03  0.38667847919E+03  0.00000000000E+00 0. -1.
         21   -1    0    0  502  503 -0.00000000000E+00 -0.00000000000E+00 -0.48876751780E+03  0.48876751780E+03  0.00000000000E+00 0. -1.
    9000007    2    1    2  501    0  0.71703849281E+02 -0.22479424919E+02  0.10391016673E+03  0.41928545601E+03  0.39919444425E+03 0.  0.
    9000005    1    3    3    0    0  0.38274522780E+02  0.20379177753E+02  0.25502785808E+03  0.25868988842E+03  0.99999687468E+00 0.  0.
          4    1    3    3  501    0  0.33429326501E+02 -0.42858602672E+02 -0.15111769134E+03  0.16059556759E+03  0.00000000000E+00 0.  1.
   -9000007    1    1    2    0  503 -0.71703849281E+02  0.22479424919E+02 -0.20599920534E+03  0.45616054098E+03  0.40000000000E+03 0. -1.
<mgrwt>
<rscale>  2 0.40679919E+03</rscale>
<asrwt>0</asrwt>
<pdfrwt beam="1">  1       21 0.59488997E-01 0.40699726E+03</pdfrwt>
<pdfrwt beam="2">  1       21 0.75195003E-01 0.40699726E+03</pdfrwt>
<totfact> 0.37046867E+03</totfact>
</mgrwt>
</event>
<event>
 6    1  0.8947013E-004  0.4824356E+03  0.7818608E-02  0.1019127E+00
         21   -1    0    0  501  502  0.00000000000E+00  0.00000000000E+00  0.32378892966E+03  0.32378892966E+03  0.00000000000E+00 0. -1.
         21   -1    0    0  502  503 -0.00000000000E+00 -0.00000000000E+00 -0.10087375817E+04  0.10087375817E+04  0.00000000000E+00 0.  1.
    9000007    2    1    2  501    0  0.17815990609E+03 -0.20249227592E+03  0.25713077012E+02  0.47358287696E+03  0.38842696234E+03 0.  0.
    9000005    1    3    3    0    0  0.15596952756E+03 -0.64574160608E+02  0.19249346707E+03  0.25602939402E+03  0.99999687468E+00 0.  0.
          4    1    3    3  501    0  0.22190378533E+02 -0.13791811532E+03 -0.16678039006E+03  0.21755348294E+03  0.00000000000E+00 0.  1.
   -9000007    1    1    2    0  503 -0.17815990609E+03  0.20249227592E+03 -0.71066172905E+03  0.85894363440E+03  0.40000000000E+03 0.  1.
<mgrwt>
<rscale>  2 0.48002982E+03</rscale>
<asrwt>0</asrwt>
<pdfrwt beam="1">  1       21 0.49813681E-01 0.48243556E+03</pdfrwt>
<pdfrwt beam="2">  1       21 0.15519040E+00 0.48243556E+03</pdfrwt>
<totfact> 0.87093523E+02</totfact>
</mgrwt>
</event>
<event>
 6    1  0.8947013E-004  0.4153003E+03  0.7818608E-02  0.1038640E+00
         21   -1    0    0  501  502  0.00000000000E+00  0.00000000000E+00  0.14068944091E+04  0.14068944091E+04  0.00000000000E+00 0. -1.
         21   -1    0    0  502  503 -0.00000000000E+00 -0.00000000000E+00 -0.43392339187E+03  0.43392339187E+03  0.00000000000E+00 0. -1.
    9000007    2    1    2  501    0  0.31972947576E+02 -0.10701438560E+03  0.12661911543E+04  0.13324356643E+04  0.39958780292E+03 0.  0.
    9000005    1    3    3    0    0  0.13094727818E+03 -0.10541008126E+02  0.11996637437E+03  0.17790793542E+03  0.99999687468E+00 0.  0.
          4    1    3    3  501    0 -0.98974330599E+02 -0.96473377470E+02  0.11462247799E+04  0.11545277289E+04  0.00000000000E+00 0.  1.
   -9000007    1    1    2    0  503 -0.31972947576E+02  0.10701438560E+03 -0.29322013705E+03  0.50838213666E+03  0.40000000000E+03 0. -1.
<mgrwt>
<rscale>  2 0.41520103E+03</rscale>
<asrwt>0</asrwt>
<pdfrwt beam="1">  1       21 0.21644529E+00 0.41530031E+03</pdfrwt>
<pdfrwt beam="2">  1       21 0.66757445E-01 0.41530031E+03</pdfrwt>
<totfact> 0.17808021E+02</totfact>
</mgrwt>
</event>
<event>
 6    1  0.8947013E-004  0.4076356E+03  0.7818608E-02  0.1041178E+00
         21   -1    0    0  501  502  0.00000000000E+00  0.00000000000E+00  0.12842605561E+04  0.12842605561E+04  0.00000000000E+00 0. -1.
         21   -1    0    0  502  503 -0.00000000000E+00 -0.00000000000E+00 -0.12934863410E+03  0.12934863410E+03  0.00000000000E+00 0. -1.
    9000007    2    1    2  501    0 -0.44331641662E+02  0.64046850369E+02  0.57654863049E+03  0.70609849031E+03  0.40012430719E+03 0.  0.
    9000005    1    3    3    0    0  0.11771357482E+03  0.10194244400E+03  0.66036523251E+02  0.16914659317E+03  0.99999687468E+00 0.  0.
          4    1    3    3  501    0 -0.16204521648E+03 -0.37895593628E+02  0.51051210724E+03  0.53695189714E+03  0.00000000000E+00 0.  1.
   -9000007    1    1    2    0  503  0.44331641662E+02 -0.64046850369E+02  0.57836329153E+03  0.70751069991E+03  0.40000000000E+03 0. -1.
<mgrwt>
<rscale>  2 0.40760506E+03</rscale>
<asrwt>0</asrwt>
<pdfrwt beam="1">  1       21 0.19757854E+00 0.40763557E+03</pdfrwt>
<pdfrwt beam="2">  1       21 0.19899791E-01 0.40763557E+03</pdfrwt>
<totfact> 0.28113266E+03</totfact>
</mgrwt>
</event>
<event>
 6    1  0.8947013E-004  0.5364775E+03  0.7818608E-02  0.1004712E+00
         21   -1    0    0  501  502  0.00000000000E+00  0.00000000000E+00  0.11894086474E+04  0.11894086474E+04  0.00000000000E+00 0. -1.
         21   -1    0    0  502  503 -0.00000000000E+00 -0.00000000000E+00 -0.24183752171E+03  0.24183752171E+03  0.00000000000E+00 0.  1.
    9000007    2    1    2  501    0  0.20799366697E+03 -0.29076924513E+03  0.45542393899E+03  0.70322352332E+03  0.39912935263E+03 0.  0.
    9000005    1    3    3    0    0  0.20569398095E+03 -0.99111727305E+02  0.45775216863E+03  0.51153806913E+03  0.99999687468E+00 0.  0.
          4    1    3    3  501    0  0.22996860223E+01 -0.19165751783E+03 -0.23282296413E+01  0.19168545419E+03  0.00000000000E+00 0.  1.
   -9000007    1    1    2    0  503 -0.20799366697E+03  0.29076924513E+03  0.49214718672E+03  0.72802264581E+03  0.40000000000E+03 0.  1.
<mgrwt>
<rscale>  2 0.53631523E+03</rscale>
<asrwt>0</asrwt>
<pdfrwt beam="1">  1       21 0.18298594E+00 0.53647751E+03</pdfrwt>
<pdfrwt beam="2">  1       21 0.37205773E-01 0.53647751E+03</pdfrwt>
<totfact> 0.97967626E+02</totfact>
</mgrwt>
</event>
<event>
 6    1  0.8947013E-004  0.4738273E+03  0.7818608E-02  0.1020855E+00
         21   -1    0    0  501  502  0.00000000000E+00  0.00000000000E+00  0.14183236859E+04  0.14183236859E+04  0.00000000000E+00 0. -1.
         21   -1    0    0  502  503 -0.00000000000E+00 -0.00000000000E+00 -0.20729113590E+03  0.20729113590E+03  0.00000000000E+00 0. -1.
    9000007    2    1    2  501    0  0.33586034636E+02 -0.25176235224E+03  0.10008040630E+04  0.11072439888E+04  0.39983518434E+03 0.  0.
    9000005    1    3    3    0    0  0.17225460032E+03 -0.28068692259E+03  0.75178297104E+03  0.82075296611E+03  0.99999687468E+00 0.  0.
          4    1    3    3  501    0 -0.13866856568E+03  0.28924570344E+02  0.24902109192E+03  0.28649102272E+03  0.00000000000E+00 0.  1.
   -9000007    1    1    2    0  503 -0.33586034636E+02  0.25176235224E+03  0.21022848706E+03  0.51837083300E+03  0.40000000000E+03 0. -1.
<mgrwt>
<rscale>  2 0.47379251E+03</rscale>
<asrwt>0</asrwt>
<pdfrwt beam="1">  1       21 0.21820364E+00 0.47382729E+03</pdfrwt>
<pdfrwt beam="2">  1       21 0.31890945E-01 0.47382729E+03</pdfrwt>
<totfact> 0.79744422E+02</totfact>
</mgrwt>
</event>
<event>
 6    1  0.8947013E-004  0.7891489E+03  0.7818608E-02  0.9576031E-01
         21   -1    0    0  501  502  0.00000000000E+00  0.00000000000E+00  0.21266642254E+04  0.21266642254E+04  0.00000000000E+00 0.  1.
         21   -1    0    0  502  503 -0.00000000000E+00 -0.00000000000E+00 -0.35755051522E+03  0.35755051522E+03  0.00000000000E+00 0. -1.
    9000007    2    1    2  501    0 -0.48521280171E+03 -0.47678556019E+03  0.14135025624E+04  0.16186425473E+04  0.39907175910E+03 0.  0.
    9000005    1    3    3    0    0  0.11863641796E+02  0.16817123728E+02 -0.16419412040E+02  0.26346892277E+02  0.99999687468E+00 0.  0.
          4    1    3    3  501    0 -0.49707644351E+03 -0.49360268391E+03  0.14299219744E+04  0.15922956551E+04  0.00000000000E+00 0.  1.
   -9000007    1    1    2    0  503  0.48521280171E+03  0.47678556019E+03  0.35561114782E+03  0.86557219329E+03  0.40000000000E+03 0. -1.
<mgrwt>
<rscale>  2 0.78903132E+03</rscale>
<asrwt>0</asrwt>
<pdfrwt beam="1">  1       21 0.32717911E+00 0.78914887E+03</pdfrwt>
<pdfrwt beam="2">  1       21 0.55007773E-01 0.78914887E+03</pdfrwt>
<totfact> 0.47409922E+01</totfact>
</mgrwt>
</event>
<event>
 6    1  0.8947013E-004  0.4575909E+03  0.7818608E-02  0.1025526E+00
         21   -1    0    0  501  502  0.00000000000E+00  0.00000000000E+00  0.24152102613E+03  0.24152102613E+03  0.00000000000E+00 0. -1.
         21   -1    0    0  502  503 -0.00000000000E+00 -0.00000000000E+00 -0.11568535405E+04  0.11568535405E+04  0.00000000000E+00 0. -1.
    9000007    2    1    2  501    0  0.11651546754E+02 -0.22068679410E+03 -0.80858354758E+03  0.92908386615E+03  0.40068822954E+03 0.  0.
    9000005    1    3    3    0    0  0.11524693433E+03 -0.29607883206E+03 -0.47231961762E+03  0.56923751796E+03  0.99999687468E+00 0.  0.
          4    1    3    3  501    0 -0.10359538758E+03  0.75392037964E+02 -0.33626392996E+03  0.35984634819E+03  0.00000000000E+00 0.  1.
   -9000007    1    1    2    0  503 -0.11651546754E+02  0.22068679410E+03 -0.10674896678E+03  0.46929070046E+03  0.40000000000E+03 0. -1.
<mgrwt>
<rscale>  2 0.45744024E+03</rscale>
<asrwt>0</asrwt>
<pdfrwt beam="1">  1       21 0.37157081E-01 0.45759095E+03</pdfrwt>
<pdfrwt beam="2">  1       21 0.17797747E+00 0.45759095E+03</pdfrwt>
<totfact> 0.10998832E+03</totfact>
</mgrwt>
</event>
<event>
 6    1  0.8947013E-004  0.7716487E+03  0.7818608E-02  0.9602010E-01
         21   -1    0    0  501  502  0.00000000000E+00  0.00000000000E+00  0.71661466835E+03  0.71661466835E+03  0.00000000000E+00 0.  1.
         21   -1    0    0  502  503 -0.00000000000E+00 -0.00000000000E+00 -0.95557566518E+03  0.95557566518E+03  0.00000000000E+00 0. -1.
    9000007    2    1    2  501    0 -0.54551938746E+03  0.37114821735E+03  0.18259293855E+03  0.79295764432E+03  0.40012403470E+03 0.  0.
    9000005    1    3    3    0    0 -0.46812994068E+03  0.35691565430E+03 -0.58974331052E+01  0.58870213637E+03  0.99999687468E+00 0.  0.
          4    1    3    3  501    0 -0.77389446773E+02  0.14232563042E+02  0.18849037166E+03  0.20425550795E+03  0.00000000000E+00 0.  1.
   -9000007    1    1    2    0  503  0.54551938746E+03 -0.37114821735E+03 -0.42155393539E+03  0.87923268921E+03  0.40000000000E+03 0. -1.
<mgrwt>
<rscale>  2 0.77163258E+03</rscale>
<asrwt>0</asrwt>
<pdfrwt beam="1">  1       21 0.11024841E+00 0.77164865E+03</pdfrwt>
<pdfrwt beam="2">  1       21 0.14701164E+00 0.77164865E+03</pdfrwt>
<totfact> 0.14689363E+02</totfact>
</mgrwt>
</event>
<event>
 6    1  0.8947013E-004  0.4617051E+03  0.7818608E-02  0.1024332E+00
         21   -1    0    0  501  502  0.00000000000E+00  0.00000000000E+00  0.23251503464E+03  0.23251503464E+03  0.00000000000E+00 0. -1.
         21   -1    0    0  502  503 -0.00000000000E+00 -0.00000000000E+00 -0.10280990088E+04  0.10280990088E+04  0.00000000000E+00 0. -1.
    9000007    2    1    2  501    0  0.63457296616E+02  0.22168623202E+03 -0.18905610173E+03  0.49834921151E+03  0.39929702359E+03 0.  0.
    9000005    1    3    3    0    0 -0.59537796244E+02  0.26056842403E+03  0.26330455814E+01  0.26729868258E+03  0.99999687468E+00 0.  0.
          4    1    3    3  501    0  0.12299509286E+03 -0.38882192009E+02 -0.19168914731E+03  0.23105052894E+03  0.00000000000E+00 0.  1.
   -9000007    1    1    2    0  503 -0.63457296616E+02 -0.22168623202E+03 -0.60652787244E+03  0.76226483194E+03  0.40000000000E+03 0. -1.
<mgrwt>
<rscale>  2 0.46155282E+03</rscale>
<asrwt>0</asrwt>
<pdfrwt beam="1">  1       21 0.35771543E-01 0.46170512E+03</pdfrwt>
<pdfrwt beam="2">  1       21 0.15816908E+00 0.46170512E+03</pdfrwt>
<totfact> 0.16583129E+03</totfact>
</mgrwt>
</event>
<event>
 6    1  0.8947013E-004  0.4232408E+03  0.7818608E-02  0.1036025E+00
         21   -1    0    0  501  502  0.00000000000E+00  0.00000000000E+00  0.89587463250E+03  0.89587463250E+03  0.00000000000E+00 0. -1.
         21   -1    0    0  502  503 -0.00000000000E+00 -0.00000000000E+00 -0.21012836952E+03  0.21012836952E+03  0.00000000000E+00 0. -1.
    9000007    2    1    2  501    0 -0.12205268146E+03  0.65083784218E+02  0.46480313918E+03  0.62856335141E+03  0.39989645225E+03 0.  0.
    9000005    1    3    3    0    0 -0.10029095336E+03  0.15869502873E+03  0.38601095207E+02  0.19165967759E+03  0.99999687468E+00 0.  0.
          4    1    3    3  501    0 -0.21761728102E+02 -0.93611244511E+02  0.42620204397E+03  0.43690367382E+03  0.00000000000E+00 0.  1.
   -9000007    1    1    2    0  503  0.12205268146E+03 -0.65083784218E+02  0.22094312379E+03  0.47743965061E+03  0.40000000000E+03 0. -1.
<mgrwt>
<rscale>  2 0.42321631E+03</rscale>
<asrwt>0</asrwt>
<pdfrwt beam="1">  1       21 0.13782686E+00 0.42324078E+03</pdfrwt>
<pdfrwt beam="2">  1       21 0.32327442E-01 0.42324078E+03</pdfrwt>
<totfact> 0.29963875E+03</totfact>
</mgrwt>
</event>
<event>
 6    1  0.8947013E-004  0.6655236E+03  0.7818608E-02  0.9778689E-01
         21   -1    0    0  501  502  0.00000000000E+00  0.00000000000E+00  0.24970618038E+03  0.24970618038E+03  0.00000000000E+00 0. -1.
         21   -1    0    0  502  503 -0.00000000000E+00 -0.00000000000E+00 -0.17916765927E+04  0.17916765927E+04  0.00000000000E+00 0.  1.
    9000007    2    1    2  501    0  0.52705445599E+03  0.57931025503E+02 -0.88348361906E+03  0.11061035313E+04  0.40221799244E+03 0.  0.
    9000005    1    3    3    0    0  0.58881336712E+03  0.12788024897E+02 -0.78703233382E+03  0.98299827536E+03  0.99999687468E+00 0.  0.
          4    1    3    3  501    0 -0.61758911135E+02  0.45143000607E+02 -0.96451285233E+02  0.12310525591E+03  0.00000000000E+00 0.  1.
   -9000007    1    1    2    0  503 -0.52705445599E+03 -0.57931025503E+02 -0.65848679331E+03  0.93527924186E+03  0.40000000000E+03 0. -1.
<mgrwt>
<rscale>  2 0.66518886E+03</rscale>
<asrwt>0</asrwt>
<pdfrwt beam="1">  1       21 0.38416334E-01 0.66552364E+03</pdfrwt>
<pdfrwt beam="2">  1       21 0.27564257E+00 0.66552364E+03</pdfrwt>
<totfact> 0.22078460E+02</totfact>
</mgrwt>
</event>
<event>
 6    1  0.8947013E-004  0.4019075E+03  0.7818608E-02  0.1043246E+00
         21   -1    0    0  501  502  0.00000000000E+00  0.00000000000E+00  0.17647323678E+04  0.17647323678E+04  0.00000000000E+00 0.  1.
         21   -1    0    0  502  503 -0.00000000000E+00 -0.00000000000E+00 -0.10631298383E+03  0.10631298383E+03  0.00000000000E+00 0.  1.
    9000007    2    1    2  501    0 -0.10133827846E+02 -0.37774716569E+02  0.11806199374E+04  0.12466881343E+04  0.39854515921E+03 0.  0.
    9000005    1    3    3    0    0  0.77994243998E+02 -0.17225604749E+03  0.92925407158E+03  0.94829814802E+03  0.99999687468E+00 0.  0.
          4    1    3    3  501    0 -0.88128071843E+02  0.13448133093E+03  0.25136586586E+03  0.29838998632E+03  0.00000000000E+00 0.  1.
   -9000007    1    1    2    0  503  0.10133827846E+02  0.37774716569E+02  0.47779944654E+03  0.62435721730E+03  0.40000000000E+03 0.  1.
<mgrwt>
<rscale>  2 0.40154501E+03</rscale>
<asrwt>0</asrwt>
<pdfrwt beam="1">  1       21 0.27149727E+00 0.40190748E+03</pdfrwt>
<pdfrwt beam="2">  1       21 0.16355845E-01 0.40190748E+03</pdfrwt>
<totfact> 0.14040074E+03</totfact>
</mgrwt>
</event>
<event>
 6    1  0.8947013E-004  0.4301643E+03  0.7818608E-02  0.1033810E+00
         21   -1    0    0  501  502  0.00000000000E+00  0.00000000000E+00  0.12664055164E+04  0.12664055164E+04  0.00000000000E+00 0. -1.
         21   -1    0    0  502  503 -0.00000000000E+00 -0.00000000000E+00 -0.15956459190E+03  0.15956459190E+03  0.00000000000E+00 0. -1.
    9000007    2    1    2  501    0  0.13418469314E+03  0.83775702033E+02  0.76048073686E+03  0.87371176322E+03  0.40002174182E+03 0.  0.
    9000005    1    3    3    0    0 -0.70597939018E+02  0.12162974699E+03  0.58413307062E+03  0.60082469035E+03  0.99999687468E+00 0.  0.
          4    1    3    3  501    0  0.20478263215E+03 -0.37854044953E+02  0.17634766624E+03  0.27288707287E+03  0.00000000000E+00 0.  1.
   -9000007    1    1    2    0  503 -0.13418469314E+03 -0.83775702033E+02  0.34636018762E+03  0.55225834506E+03  0.40000000000E+03 0.  1.
<mgrwt>
<rscale>  2 0.43015921E+03</rscale>
<asrwt>0</asrwt>
<pdfrwt beam="1">  1       21 0.19483161E+00 0.43016426E+03</pdfrwt>
<pdfrwt beam="2">  1       21 0.24548400E-01 0.43016426E+03</pdfrwt>
<totfact> 0.19409497E+03</totfact>
</mgrwt>
</event>
<event>
 6    1  0.8947013E-004  0.4085474E+03  0.7818608E-02  0.1040879E+00
         21   -1    0    0  501  502  0.00000000000E+00  0.00000000000E+00  0.28093728134E+04  0.28093728134E+04  0.00000000000E+00 0. -1.
         21   -1    0    0  502  503 -0.00000000000E+00 -0.00000000000E+00 -0.59572528081E+02  0.59572528081E+02  0.00000000000E+00 0.  1.
    9000007    2    1    2  501    0 -0.38733748686E+02 -0.73557082391E+02  0.14563226957E+04  0.15124811058E+04  0.39976537360E+03 0.  0.
    9000005    1    3    3    0    0 -0.89140030987E+02 -0.21266991195E+03  0.11423250212E+04  0.11653677062E+04  0.99999687468E+00 0.  0.
          4    1    3    3  501    0  0.50406282301E+02  0.13911282955E+03  0.31399767446E+03  0.34711339964E+03  0.00000000000E+00 0.  1.
   -9000007    1    1    2    0  503  0.38733748686E+02  0.73557082391E+02  0.12934775896E+04  0.13564642356E+04  0.40000000000E+03 0. -1.
<mgrwt>
<rscale>  2 0.40848992E+03</rscale>
<asrwt>0</asrwt>
<pdfrwt beam="1">  1       21 0.43221110E+00 0.40854736E+03</pdfrwt>
<pdfrwt beam="2">  1       21 0.91650065E-02 0.40854736E+03</pdfrwt>
<totfact> 0.40724675E+02</totfact>
</mgrwt>
</event>
<event>
 6    1  0.8947013E-004  0.4957882E+03  0.7818608E-02  0.1014902E+00
         21   -1    0    0  501  502  0.00000000000E+00  0.00000000000E+00  0.16653028887E+03  0.16653028887E+03  0.00000000000E+00 0. -1.
         21   -1    0    0  502  503 -0.00000000000E+00 -0.00000000000E+00 -0.18597116593E+04  0.18597116593E+04  0.00000000000E+00 0. -1.
    9000007    2    1    2  501    0  0.28209580145E+03 -0.77222180623E+02 -0.38612713014E+03  0.62841073752E+03  0.40033059842E+03 0.  0.
    9000005    1    3    3    0    0 -0.53807507853E+02  0.79946423858E+02 -0.48083267109E+01  0.96492479441E+02  0.99999687468E+00 0.  0.
          4    1    3    3  501    0  0.33590330930E+03 -0.15716860448E+03 -0.38131880343E+03  0.53191825808E+03  0.00000000000E+00 0.  1.
   -9000007    1    1    2    0  503 -0.28209580145E+03  0.77222180623E+02 -0.13070542403E+04  0.13978312107E+04  0.40000000000E+03 0. -1.
<mgrwt>
<rscale>  2 0.49572141E+03</rscale>
<asrwt>0</asrwt>
<pdfrwt beam="1">  1       21 0.25620045E-01 0.49578815E+03</pdfrwt>
<pdfrwt beam="2">  1       21 0.28610948E+00 0.49578815E+03</pdfrwt>
<totfact> 0.46298646E+02</totfact>
</mgrwt>
</event>
<event>
 6    1  0.8947013E-004  0.4161790E+03  0.7818608E-02  0.1038358E+00
         21   -1    0    0  501  502  0.00000000000E+00  0.00000000000E+00  0.27875712309E+03  0.27875712309E+03  0.00000000000E+00 0.  1.
         21   -1    0    0  502  503 -0.00000000000E+00 -0.00000000000E+00 -0.77287718100E+03  0.77287718100E+03  0.00000000000E+00 0.  1.
    9000007    2    1    2  501    0 -0.11481078336E+03 -0.48440014352E+01 -0.13549780306E+02  0.41590419465E+03  0.39948432041E+03 0.  0.
    9000005    1    3    3    0    0  0.85658185939E+02 -0.40489060763E+02 -0.14524134271E+03  0.17341492578E+03  0.99999687468E+00 0.  0.
          4    1    3    3  501    0 -0.20046896930E+03  0.35645059328E+02  0.13169156240E+03  0.24248926887E+03  0.00000000000E+00 0.  1.
   -9000007    1    1    2    0  503  0.11481078336E+03  0.48440014352E+01 -0.48057027761E+03  0.63573010944E+03  0.40000000000E+03 0.  1.
<mgrwt>
<rscale>  2 0.41605507E+03</rscale>
<asrwt>0</asrwt>
<pdfrwt beam="1">  1       21 0.42885711E-01 0.41617902E+03</pdfrwt>
<pdfrwt beam="2">  1       21 0.11890418E+00 0.41617902E+03</pdfrwt>
<totfact> 0.24732051E+03</totfact>
</mgrwt>
</event>
<event>
 6    1  0.8947013E-004  0.4522704E+03  0.7818608E-02  0.1027097E+00
         21   -1    0    0  501  502  0.00000000000E+00  0.00000000000E+00  0.15948840031E+03  0.15948840031E+03  0.00000000000E+00 0.  1.
         21   -1    0    0  502  503 -0.00000000000E+00 -0.00000000000E+00 -0.16475385164E+04  0.16475385164E+04  0.00000000000E+00 0.  1.
    9000007    2    1    2  501    0  0.18235662795E+03  0.10627594916E+03 -0.31721179409E+03  0.55187318375E+03  0.39923949141E+03 0.  0.
    9000005    1    3    3    0    0  0.53599281978E+02 -0.10135560851E+03  0.37965123174E+02  0.12078159204E+03  0.99999687468E+00 0.  0.
          4    1    3    3  501    0  0.12875734598E+03  0.20763155767E+03 -0.35517691726E+03  0.43109159170E+03  0.00000000000E+00 0.  1.
   -9000007    1    1    2    0  503 -0.18235662795E+03 -0.10627594916E+03 -0.11708383220E+04  0.12551537330E+04  0.40000000000E+03 0.  1.
<mgrwt>
<rscale>  2 0.45210219E+03</rscale>
<asrwt>0</asrwt>
<pdfrwt beam="1">  1       21 0.24536677E-01 0.45227040E+03</pdfrwt>
<pdfrwt beam="2">  1       21 0.25346746E+00 0.45227040E+03</pdfrwt>
<totfact> 0.81298264E+02</totfact>
</mgrwt>
</event>
<event>
 6    1  0.8947013E-004  0.5426897E+03  0.7818608E-02  0.1003246E+00
         21   -1    0    0  501  502  0.00000000000E+00  0.00000000000E+00  0.19443751069E+03  0.19443751069E+03  0.00000000000E+00 0.  1.
         21   -1    0    0  502  503 -0.00000000000E+00 -0.00000000000E+00 -0.24467979843E+04  0.24467979843E+04  0.00000000000E+00 0.  1.
    9000007    2    1    2  501    0 -0.27117371888E+03 -0.24693502856E+03 -0.30964889280E+03  0.62414839218E+03  0.39895699581E+03 0.  0.
    9000005    1    3    3    0    0 -0.23893657093E+03  0.20394775696E+02 -0.25375723242E+03  0.34914232743E+03  0.99999687468E+00 0.  0.
          4    1    3    3  501    0 -0.32237147955E+02 -0.26732980426E+03 -0.55891660377E+02  0.27500606475E+03  0.00000000000E+00 0.  1.
   -9000007    1    1    2    0  503  0.27117371888E+03  0.24693502856E+03 -0.19427115808E+04  0.20170871028E+04  0.40000000000E+03 0.  1.
<mgrwt>
<rscale>  2 0.54249751E+03</rscale>
<asrwt>0</asrwt>
<pdfrwt beam="1">  1       21 0.29913466E-01 0.54268968E+03</pdfrwt>
<pdfrwt beam="2">  1       21 0.37643042E+00 0.54268968E+03</pdfrwt>
<totfact> 0.92980281E+01</totfact>
</mgrwt>
</event>
<event>
 6    1  0.8947013E-004  0.6222883E+03  0.7818608E-02  0.9860237E-01
         21   -1    0    0  501  502  0.00000000000E+00  0.00000000000E+00  0.17798525020E+03  0.17798525020E+03  0.00000000000E+00 0.  1.
         21   -1    0    0  502  503 -0.00000000000E+00 -0.00000000000E+00 -0.22409822777E+04  0.22409822777E+04  0.00000000000E+00 0.  1.
    9000007    2    1    2  501    0  0.11476093046E+03 -0.46261673665E+03 -0.12382263338E+04  0.13858019974E+04  0.40007300105E+03 0.  0.
    9000005    1    3    3    0    0  0.13493426595E+03 -0.42056002046E+03 -0.59566348379E+03  0.74154836178E+03  0.99999687468E+00 0.  0.
          4    1    3    3  501    0 -0.20173335493E+02 -0.42056716190E+02 -0.64256284998E+03  0.64425363562E+03  0.00000000000E+00 0.  1.
   -9000007    1    1    2    0  503 -0.11476093046E+03  0.46261673665E+03 -0.82477069372E+03  0.10331655305E+04  0.40000000000E+03 0.  1.
<mgrwt>
<rscale>  2 0.62227656E+03</rscale>
<asrwt>0</asrwt>
<pdfrwt beam="1">  1       21 0.27382348E-01 0.62228830E+03</pdfrwt>
<pdfrwt beam="2">  1       21 0.34476648E+00 0.62228830E+03</pdfrwt>
<totfact> 0.16787326E+02</totfact>
</mgrwt>
</event>
<event>
 6    1  0.8947013E-004  0.7645942E+03  0.7818608E-02  0.9612869E-01
         21   -1    0    0  501  502  0.00000000000E+00  0.00000000000E+00  0.30378209217E+03  0.30378209217E+03  0.00000000000E+00 0.  1.
         21   -1    0    0  502  503 -0.00000000000E+00 -0.00000000000E+00 -0.23194651708E+04  0.23194651708E+04  0.00000000000E+00 0.  1.
    9000007    2    1    2  501    0  0.39753767049E+03  0.51575745849E+03 -0.46610780953E+03  0.89546675896E+03  0.40070222216E+03 0.  0.
    9000005    1    3    3    0    0 -0.77379186111E+02  0.40559293433E+02 -0.90380171458E+02  0.12570668285E+03  0.99999687468E+00 0.  0.
          4    1    3    3  501    0  0.47491685660E+03  0.47519816505E+03 -0.37572763808E+03  0.76976007611E+03  0.00000000000E+00 0.  1.
   -9000007    1    1    2    0  503 -0.39753767049E+03 -0.51575745849E+03 -0.15495752691E+04  0.17277805040E+04  0.40000000000E+03 0.  1.
<mgrwt>
<rscale>  2 0.76450220E+03</rscale>
<asrwt>0</asrwt>
<pdfrwt beam="1">  1       21 0.46735705E-01 0.76459416E+03</pdfrwt>
<pdfrwt beam="2">  1       21 0.35684080E+00 0.76459416E+03</pdfrwt>
<totfact> 0.44422259E+01</totfact>
</mgrwt>
</event>
<event>
 6    1  0.8947013E-004  0.5029332E+03  0.7818608E-02  0.1013078E+00
         21   -1    0    0  501  502  0.00000000000E+00  0.00000000000E+00  0.18572428559E+04  0.18572428559E+04  0.00000000000E+00 0. -1.
         21   -1    0    0  502  503 -0.00000000000E+00 -0.00000000000E+00 -0.39107476516E+03  0.39107476516E+03  0.00000000000E+00 0. -1.
    9000007    2    1    2  501    0  0.77119788155E+02  0.29494811428E+03  0.16408473505E+04  0.17159129858E+04  0.39879254701E+03 0.  0.
    9000005    1    3    3    0    0  0.16755629796E+03  0.34311910290E+03  0.14483882917E+04  0.14978769894E+04  0.99999687468E+00 0.  0.
          4    1    3    3  501    0 -0.90436509801E+02 -0.48170988612E+02  0.19245905874E+03  0.21803599643E+03  0.00000000000E+00 0.  1.
   -9000007    1    1    2    0  503 -0.77119788155E+02 -0.29494811428E+03 -0.17467925971E+03  0.53240463523E+03  0.40000000000E+03 0. -1.
<mgrwt>
<rscale>  2 0.50269313E+03</rscale>
<asrwt>0</asrwt>
<pdfrwt beam="1">  1       21 0.28572966E+00 0.50293325E+03</pdfrwt>
<pdfrwt beam="2">  1       21 0.60165350E-01 0.50293325E+03</pdfrwt>
<totfact> 0.79543753E+01</totfact>
</mgrwt>
</event>
<event>
 6    1  0.8947013E-004  0.4823577E+03  0.7818608E-02  0.1018583E+00
         21   -1    0    0  501  502  0.00000000000E+00  0.00000000000E+00  0.52458357991E+03  0.52458357991E+03  0.00000000000E+00 0. -1.
         21   -1    0    0  502  503 -0.00000000000E+00 -0.00000000000E+00 -0.46159551702E+03  0.46159551702E+03  0.00000000000E+00 0. -1.
    9000007    2    1    2  501    0 -0.26573807344E+03  0.26932290181E+02  0.13244270364E+03  0.50020994250E+03  0.40165513180E+03 0.  0.
    9000005    1    3    3    0    0 -0.29773397134E+03 -0.55085084756E+02  0.22136590274E+03  0.37507832135E+03  0.99999687468E+00 0.  0.
          4    1    3    3  501    0  0.31995897900E+02  0.82017374937E+02 -0.88923199104E+02  0.12513162115E+03  0.00000000000E+00 0.  1.
   -9000007    1    1    2    0  503  0.26573807344E+03 -0.26932290181E+02 -0.69454640756E+02  0.48596915443E+03  0.40000000000E+03 0. -1.
<mgrwt>
<rscale>  2 0.48201296E+03</rscale>
<asrwt>0</asrwt>
<pdfrwt beam="1">  1       21 0.80705166E-01 0.48235766E+03</pdfrwt>
<pdfrwt beam="2">  1       21 0.71014695E-01 0.48235766E+03</pdfrwt>
<totfact> 0.20673866E+03</totfact>
</mgrwt>
</event>
<event>
 6    1  0.8947013E-004  0.4280817E+03  0.7818608E-02  0.1034497E+00
         21   -1    0    0  501  502  0.00000000000E+00  0.00000000000E+00  0.16341063076E+04  0.16341063076E+04  0.00000000000E+00 0. -1.
         21   -1    0    0  502  503 -0.00000000000E+00 -0.00000000000E+00 -0.14911489952E+03  0.14911489952E+03  0.00000000000E+00 0. -1.
    9000007    2    1    2  501    0  0.15022702894E+03  0.19218918447E+02  0.11872833253E+04  0.12620996958E+04  0.40039533020E+03 0.  0.
    9000005    1    3    3    0    0  0.10886071060E+03  0.15652729062E+03  0.25259979278E+03  0.31647922890E+03  0.99999687468E+00 0.  0.
          4    1    3    3  501    0  0.41366318340E+02 -0.13730837217E+03  0.93468353254E+03  0.94562046687E+03  0.00000000000E+00 0.  1.
   -9000007    1    1    2    0  503 -0.15022702894E+03 -0.19218918447E+02  0.29770808278E+03  0.52112151136E+03  0.40000000000E+03 0. -1.
<mgrwt>
<rscale>  2 0.42798924E+03</rscale>
<asrwt>0</asrwt>
<pdfrwt beam="1">  1       21 0.25140096E+00 0.42808171E+03</pdfrwt>
<pdfrwt beam="2">  1       21 0.22940755E-01 0.42808171E+03</pdfrwt>
<totfact> 0.96528380E+02</totfact>
</mgrwt>
</event>
<event>
 6    1  0.8947013E-004  0.6445410E+03  0.7818608E-02  0.9817084E-01
         21   -1    0    0  501  502  0.00000000000E+00  0.00000000000E+00  0.36399957477E+03  0.36399957477E+03  0.00000000000E+00 0.  1.
         21   -1    0    0  502  503 -0.00000000000E+00 -0.00000000000E+00 -0.11470789728E+04  0.11470789728E+04  0.00000000000E+00 0. -1.
    9000007    2    1    2  501    0  0.13456594940E+03 -0.48716028559E+03 -0.33779478160E+03  0.72768112082E+03  0.39997669997E+03 0.  0.
    9000005    1    3    3    0    0  0.13572892683E+03 -0.49547929836E+03 -0.14376710336E+03  0.53347170186E+03  0.99999687468E+00 0.  0.
          4    1    3    3  501    0 -0.11629774288E+01  0.83190127686E+01 -0.19402767824E+03  0.19420941896E+03  0.00000000000E+00 0.  1.
   -9000007    1    1    2    0  503 -0.13456594940E+03  0.48716028559E+03 -0.44528461640E+03  0.78339742673E+03  0.40000000000E+03 0.  1.
<mgrwt>
<rscale>  2 0.64453741E+03</rscale>
<asrwt>0</asrwt>
<pdfrwt beam="1">  1       21 0.55999936E-01 0.64454103E+03</pdfrwt>
<pdfrwt beam="2">  1       21 0.17647368E+00 0.64454103E+03</pdfrwt>
<totfact> 0.44275795E+02</totfact>
</mgrwt>
</event>
<event>
 6    1  0.8947013E-004  0.7391480E+03  0.7818608E-02  0.9652713E-01
         21   -1    0    0  501  502  0.00000000000E+00  0.00000000000E+00  0.16046313651E+04  0.16046313651E+04  0.00000000000E+00 0.  1.
         21   -1    0    0  502  503 -0.00000000000E+00 -0.00000000000E+00 -0.74828664784E+03  0.74828664784E+03  0.00000000000E+00 0. -1.
    9000007    2    1    2  501    0  0.35747569243E+03 -0.50781783529E+03  0.12969588579E+04  0.14927967161E+04  0.40083903503E+03 0.  0.
    9000005    1    3    3    0    0  0.19238851124E+03 -0.53719583662E+03  0.97141087455E+03  0.11266023226E+04  0.99999687468E+00 0.  0.
          4    1    3    3  501    0  0.16508718119E+03  0.29378001333E+02  0.32554798331E+03  0.36619439345E+03  0.00000000000E+00 0.  1.
   -9000007    1    1    2    0  503 -0.35747569243E+03  0.50781783529E+03 -0.44061414057E+03  0.86012129690E+03  0.40000000000E+03 0. -1.
<mgrwt>
<rscale>  2 0.73903430E+03</rscale>
<asrwt>0</asrwt>
<pdfrwt beam="1">  1       21 0.24686636E+00 0.73914799E+03</pdfrwt>
<pdfrwt beam="2">  1       21 0.11512102E+00 0.73914799E+03</pdfrwt>
<totfact> 0.26806529E+01</totfact>
</mgrwt>
</event>
<event>
 6    1  0.8947013E-004  0.4400232E+03  0.7818608E-02  0.1031121E+00
         21   -1    0    0  501  502  0.00000000000E+00  0.00000000000E+00  0.10226186623E+03  0.10226186623E+03  0.00000000000E+00 0. -1.
         21   -1    0    0  502  503 -0.00000000000E+00 -0.00000000000E+00 -0.24510757054E+04  0.24510757054E+04  0.00000000000E+00 0. -1.
    9000007    2    1    2  501    0 -0.27186516620E+02 -0.18133200835E+03 -0.54889861097E+03  0.70041684136E+03  0.39455501846E+03 0.  0.
    9000005    1    3    3    0    0 -0.19453718534E+03 -0.10156628696E+03 -0.16657023710E+03  0.27551237905E+03  0.99999687468E+00 0.  0.
          4    1    3    3  501    0  0.16735066872E+03 -0.79765721389E+02 -0.38232837386E+03  0.42490446231E+03  0.00000000000E+00 0.  1.
   -9000007    1    1    2    0  503  0.27186516620E+02  0.18133200835E+03 -0.17999152282E+04  0.18529207303E+04  0.40000000000E+03 0. -1.
<mgrwt>
<rscale>  2 0.43878199E+03</rscale>
<asrwt>0</asrwt>
<pdfrwt beam="1">  1       21 0.15732594E-01 0.44002319E+03</pdfrwt>
<pdfrwt beam="2">  1       21 0.37708859E+00 0.44002319E+03</pdfrwt>
<totfact> 0.33733140E+02</totfact>
</mgrwt>
</event>
<event>
 6    1  0.8947013E-004  0.4081795E+03  0.7818608E-02  0.1041138E+00
         21   -1    0    0  501  502  0.00000000000E+00  0.00000000000E+00  0.69663123010E+03  0.69663123010E+03  0.00000000000E+00 0.  1.
         21   -1    0    0  502  503 -0.00000000000E+00 -0.00000000000E+00 -0.23992629600E+03  0.23992629600E+03  0.00000000000E+00 0.  1.
    9000007    2    1    2  501    0  0.60655170702E+02 -0.37991896382E+02  0.18796898665E+03  0.44938051168E+03  0.40185578310E+03 0.  0.
    9000005    1    3    3    0    0  0.23441435262E+02  0.13834440762E+03  0.22521505218E+03  0.26535164543E+03  0.99999687468E+00 0.  0.
          4    1    3    3  501    0  0.37213735440E+02 -0.17633630401E+03 -0.37246065534E+02  0.18402886625E+03  0.00000000000E+00 0.  1.
   -9000007    1    1    2    0  503 -0.60655170702E+02  0.37991896382E+02  0.26873594746E+03  0.48717701442E+03  0.40000000000E+03 0.  1.
<mgrwt>
<rscale>  2 0.40772201E+03</rscale>
<asrwt>0</asrwt>
<pdfrwt beam="1">  1       21 0.10717403E+00 0.40817950E+03</pdfrwt>
<pdfrwt beam="2">  1       21 0.36911738E-01 0.40817950E+03</pdfrwt>
<totfact> 0.43722900E+03</totfact>
</mgrwt>
</event>
<event>
 6    1  0.8947013E-004  0.5759643E+03  0.7818608E-02  0.9956836E-01
         21   -1    0    0  501  502  0.00000000000E+00  0.00000000000E+00  0.57331767881E+03  0.57331767881E+03  0.00000000000E+00 0. -1.
         21   -1    0    0  502  503 -0.00000000000E+00 -0.00000000000E+00 -0.79434645977E+03  0.79434645977E+03  0.00000000000E+00 0.  1.
    9000007    2    1    2  501    0  0.19558610918E+03 -0.36535043017E+03  0.24629202157E+03  0.62596096655E+03  0.39929000591E+03 0.  0.
    9000005    1    3    3    0    0  0.61014039964E+02 -0.31410881070E+03 -0.22768813483E+02  0.32079039402E+03  0.99999687468E+00 0.  0.
          4    1    3    3  501    0  0.13457206922E+03 -0.51241619473E+02  0.26906083505E+03  0.30517057253E+03  0.00000000000E+00 0.  1.
   -9000007    1    1    2    0  503 -0.19558610918E+03  0.36535043017E+03 -0.46732080253E+03  0.74170317204E+03  0.40000000000E+03 0.  1.
<mgrwt>
<rscale>  2 0.57584104E+03</rscale>
<asrwt>0</asrwt>
<pdfrwt beam="1">  1       21 0.88202720E-01 0.57596429E+03</pdfrwt>
<pdfrwt beam="2">  1       21 0.12220715E+00 0.57596429E+03</pdfrwt>
<totfact> 0.44081677E+02</totfact>
</mgrwt>
</event>
<event>
 6    1  0.8947013E-004  0.4444561E+03  0.7818608E-02  0.1029419E+00
         21   -1    0    0  501  502  0.00000000000E+00  0.00000000000E+00  0.22803789159E+03  0.22803789159E+03  0.00000000000E+00 0.  1.
         21   -1    0    0  502  503 -0.00000000000E+00 -0.00000000000E+00 -0.86831694028E+03  0.86831694028E+03  0.00000000000E+00 0.  1.
    9000007    2    1    2  501    0  0.25555374189E+02 -0.19206277179E+03 -0.35132297342E+03  0.56622579202E+03  0.39955303833E+03 0.  0.
    9000005    1    3    3    0    0  0.20815705694E+03 -0.99674077749E+02 -0.24121309204E+03  0.33383983869E+03  0.99999687468E+00 0.  0.
          4    1    3    3  501    0 -0.18260168275E+03 -0.92388694042E+02 -0.11010988138E+03  0.23238595334E+03  0.00000000000E+00 0.  1.
   -9000007    1    1    2    0  503 -0.25555374189E+02  0.19206277179E+03 -0.28895607528E+03  0.53012903985E+03  0.40000000000E+03 0.  1.
<mgrwt>
<rscale>  2 0.44435547E+03</rscale>
<asrwt>0</asrwt>
<pdfrwt beam="1">  1       21 0.35082752E-01 0.44445606E+03</pdfrwt>
<pdfrwt beam="2">  1       21 0.13358722E+00 0.44445606E+03</pdfrwt>
<totfact> 0.27361327E+03</totfact>
</mgrwt>
</event>
<event>
 6    1  0.8947013E-004  0.4658580E+03  0.7818608E-02  0.1023166E+00
         21   -1    0    0  501  502  0.00000000000E+00  0.00000000000E+00  0.75826941545E+03  0.75826941545E+03  0.00000000000E+00 0. -1.
         21   -1    0    0  502  503 -0.00000000000E+00 -0.00000000000E+00 -0.12695728729E+04  0.12695728729E+04  0.00000000000E+00 0.  1.
    9000007    2    1    2  501    0 -0.22041769443E+03  0.86726876475E+02  0.63690628577E+03  0.78909650105E+03  0.40114605818E+03 0.  0.
    9000005    1    3    3    0    0 -0.25136424837E+03  0.20502117203E+03  0.55193513909E+03  0.64019611377E+03  0.99999687468E+00 0.  0.
          4    1    3    3  501    0  0.30946553939E+02 -0.11829429556E+03  0.84971146682E+02  0.14890038727E+03  0.00000000000E+00 0.  1.
   -9000007    1    1    2    0  503  0.22041769443E+03 -0.86726876475E+02 -0.11482097432E+04  0.12387457873E+04  0.40000000000E+03 0.  1.
<mgrwt>
<rscale>  2 0.46561117E+03</rscale>
<asrwt>0</asrwt>
<pdfrwt beam="1">  1       21 0.11665684E+00 0.46585799E+03</pdfrwt>
<pdfrwt beam="2">  1       21 0.19531890E+00 0.46585799E+03</pdfrwt>
<totfact> 0.63643318E+01</totfact>
</mgrwt>
</event>
<event>
 6    1  0.8947013E-004  0.5434555E+03  0.7818608E-02  0.1003067E+00
         21   -1    0    0  501  502  0.00000000000E+00  0.00000000000E+00  0.21564279625E+03  0.21564279625E+03  0.00000000000E+00 0.  1.
         21   -1    0    0  502  503 -0.00000000000E+00 -0.00000000000E+00 -0.14408721058E+04  0.14408721058E+04  0.00000000000E+00 0. -1.
    9000007    2    1    2  501    0  0.24930201674E+03  0.26893833264E+03 -0.42625483187E+03  0.69067871600E+03  0.40107927487E+03 0.  0.
    9000005    1    3    3    0    0  0.63036538459E+02  0.32691079904E+03 -0.34472029463E+03  0.47924665594E+03  0.99999687468E+00 0.  0.
          4    1    3    3  501    0  0.18626547828E+03 -0.57972466397E+02 -0.81534537240E+02  0.21143206006E+03  0.00000000000E+00 0.  1.
   -9000007    1    1    2    0  503 -0.24930201674E+03 -0.26893833264E+03 -0.79897447772E+03  0.96583618609E+03  0.40000000000E+03 0.  1.
<mgrwt>
<rscale>  2 0.54325641E+03</rscale>
<asrwt>0</asrwt>
<pdfrwt beam="1">  1       21 0.33175815E-01 0.54345552E+03</pdfrwt>
<pdfrwt beam="2">  1       21 0.22167263E+00 0.54345552E+03</pdfrwt>
<totfact> 0.67918975E+02</totfact>
</mgrwt>
</event>
<event>
 6    1  0.8947013E-004  0.5259058E+03  0.7818608E-02  0.1007273E+00
         21   -1    0    0  501  502  0.00000000000E+00  0.00000000000E+00  0.72908104787E+03  0.72908104787E+03  0.00000000000E+00 0.  1.
         21   -1    0    0  502  503 -0.00000000000E+00 -0.00000000000E+00 -0.68539420078E+03  0.68539420078E+03  0.00000000000E+00 0.  1.
    9000007    2    1    2  501    0  0.75693614541E+02  0.33182791199E+03  0.49483487534E+03  0.72210697248E+03  0.40092098898E+03 0.  0.
    9000005    1    3    3    0    0  0.20012300722E+03  0.81743214954E+02  0.99322867622E+02  0.23790166716E+03  0.99999687468E+00 0.  0.
          4    1    3    3  501    0 -0.12442939268E+03  0.25008469704E+03  0.39551200772E+03  0.48420530532E+03  0.00000000000E+00 0.  1.
   -9000007    1    1    2    0  503 -0.75693614541E+02 -0.33182791199E+03 -0.45114802824E+03  0.69236827617E+03  0.40000000000E+03 0.  1.
<mgrwt>
<rscale>  2 0.52573028E+03</rscale>
<asrwt>0</asrwt>
<pdfrwt beam="1">  1       21 0.11216631E+00 0.52590581E+03</pdfrwt>
<pdfrwt beam="2">  1       21 0.10544526E+00 0.52590581E+03</pdfrwt>
<totfact> 0.36223953E+02</totfact>
</mgrwt>
</event>
<event>
 6    1  0.8947013E-004  0.4136613E+03  0.7818608E-02  0.1039768E+00
         21   -1    0    0  501  502  0.00000000000E+00  0.00000000000E+00  0.14318452371E+04  0.14318452371E+04  0.00000000000E+00 0. -1.
         21   -1    0    0  502  503 -0.00000000000E+00 -0.00000000000E+00 -0.28224254228E+03  0.28224254228E+03  0.00000000000E+00 0. -1.
    9000007    2    1    2  501    0 -0.68804225659E+02 -0.18061860898E+02  0.12319548592E+04  0.12995493237E+04  0.40749897834E+03 0.  0.
    9000005    1    3    3    0    0 -0.13548819362E+03 -0.46081092865E+02  0.12173810814E+04  0.12257643391E+04  0.99999687468E+00 0.  0.
          4    1    3    3  501    0  0.66683967960E+02  0.28019231967E+02  0.14573777736E+02  0.73784984518E+02  0.00000000000E+00 0.  1.
   -9000007    1    1    2    0  503  0.68804225659E+02  0.18061860898E+02 -0.82352164345E+02  0.41453845571E+03  0.40000000000E+03 0. -1.
<mgrwt>
<rscale>  2 0.41180250E+03</rscale>
<asrwt>0</asrwt>
<pdfrwt beam="1">  1       21 0.22028388E+00 0.41366130E+03</pdfrwt>
<pdfrwt beam="2">  1       21 0.43421930E-01 0.41366130E+03</pdfrwt>
<totfact> 0.42476906E+02</totfact>
</mgrwt>
</event>
<event>
 6    1  0.8947013E-004  0.4210617E+03  0.7818608E-02  0.1036834E+00
         21   -1    0    0  501  502  0.00000000000E+00  0.00000000000E+00  0.77935747054E+03  0.77935747054E+03  0.00000000000E+00 0.  1.
         21   -1    0    0  502  503 -0.00000000000E+00 -0.00000000000E+00 -0.34798550361E+03  0.34798550361E+03  0.00000000000E+00 0. -1.
    9000007    2    1    2  501    0  0.13143774772E+03  0.41315984594E+01 -0.11726754705E+03  0.43575186088E+03  0.39854115853E+03 0.  0.
    9000005    1    3    3    0    0 -0.10862085645E+03 -0.99244389091E+02 -0.91144558669E+02  0.17307879648E+03  0.99999687468E+00 0.  0.
          4    1    3    3  501    0  0.24005860418E+03  0.10337598755E+03 -0.26122988384E+02  0.26267306440E+03  0.00000000000E+00 0.  1.
   -9000007    1    1    2    0  503 -0.13143774772E+03 -0.41315984594E+01  0.54863951399E+03  0.69159111326E+03  0.40000000000E+03 0.  1.
<mgrwt>
<rscale>  2 0.42071486E+03</rscale>
<asrwt>0</asrwt>
<pdfrwt beam="1">  1       21 0.11990115E+00 0.42106170E+03</pdfrwt>
<pdfrwt beam="2">  1       21 0.53536231E-01 0.42106170E+03</pdfrwt>
<totfact> 0.15129386E+03</totfact>
</mgrwt>
</event>
<event>
 6    1  0.8947013E-004  0.5044553E+03  0.7818608E-02  0.1012628E+00
         21   -1    0    0  501  502  0.00000000000E+00  0.00000000000E+00  0.14836920742E+03  0.14836920742E+03  0.00000000000E+00 0.  1.
         21   -1    0    0  502  503 -0.00000000000E+00 -0.00000000000E+00 -0.17216557491E+04  0.17216557491E+04  0.00000000000E+00 0.  1.
    9000007    2    1    2  501    0 -0.25769410949E+02  0.30615122709E+03 -0.72800628610E+03  0.88570217060E+03  0.40010316922E+03 0.  0.
    9000005    1    3    3    0    0 -0.11395846148E+02  0.27396812434E+03 -0.77778658897E+03  0.82470684273E+03  0.99999687468E+00 0.  0.
          4    1    3    3  501    0 -0.14373564801E+02  0.32183102750E+02  0.49780302875E+02  0.60995327870E+02  0.00000000000E+00 0.  1.
   -9000007    1    1    2    0  503  0.25769410949E+02 -0.30615122709E+03 -0.84528025555E+03  0.98432278588E+03  0.40000000000E+03 0.  1.
<mgrwt>
<rscale>  2 0.50443488E+03</rscale>
<asrwt>0</asrwt>
<pdfrwt beam="1">  1       21 0.22826031E-01 0.50445533E+03</pdfrwt>
<pdfrwt beam="2">  1       21 0.26487012E+00 0.50445533E+03</pdfrwt>
<totfact> 0.77658439E+02</totfact>
</mgrwt>
</event>
<event>
 6    1  0.8947013E-004  0.4923906E+03  0.7818608E-02  0.1015809E+00
         21   -1    0    0  501  502  0.00000000000E+00  0.00000000000E+00  0.15272031712E+03  0.15272031712E+03  0.00000000000E+00 0.  1.
         21   -1    0    0  502  503 -0.00000000000E+00 -0.00000000000E+00 -0.16503071330E+04  0.16503071330E+04  0.00000000000E+00 0.  1.
    9000007    2    1    2  501    0 -0.20984134882E+03 -0.19599784320E+03 -0.57105288380E+03  0.75378311559E+03  0.39954854905E+03 0.  0.
    9000005    1    3    3    0    0 -0.79029156167E+02 -0.29988429597E+03 -0.45398663877E+03  0.54980093368E+03  0.99999687468E+00 0.  0.
          4    1    3    3  501    0 -0.13081219265E+03  0.10388645277E+03 -0.11706624503E+03  0.20398218192E+03  0.00000000000E+00 0.  1.
   -9000007    1    1    2    0  503  0.20984134882E+03  0.19599784320E+03 -0.92653393208E+03  0.10492443345E+04  0.40000000000E+03 0.  1.
<mgrwt>
<rscale>  2 0.49229895E+03</rscale>
<asrwt>0</asrwt>
<pdfrwt beam="1">  1       21 0.23495433E-01 0.49239064E+03</pdfrwt>
<pdfrwt beam="2">  1       21 0.25389341E+00 0.49239064E+03</pdfrwt>
<totfact> 0.86193160E+02</totfact>
</mgrwt>
</event>
<event>
 6    1  0.8947013E-004  0.4430947E+03  0.7818608E-02  0.1029830E+00
         21   -1    0    0  501  502  0.00000000000E+00  0.00000000000E+00  0.23364322060E+03  0.23364322060E+03  0.00000000000E+00 0.  1.
         21   -1    0    0  502  503 -0.00000000000E+00 -0.00000000000E+00 -0.10011854605E+04  0.10011854605E+04  0.00000000000E+00 0.  1.
    9000007    2    1    2  501    0 -0.18234612281E+03  0.55522862328E+02 -0.63166702561E+03  0.77136889796E+03  0.39959210296E+03 0.  0.
    9000005    1    3    3    0    0  0.17879545589E+02  0.18993214997E+03 -0.19666432934E+03  0.27399225933E+03  0.99999687468E+00 0.  0.
          4    1    3    3  501    0 -0.20022566840E+03 -0.13440928764E+03 -0.43500269627E+03  0.49737663863E+03  0.00000000000E+00 0.  1.
   -9000007    1    1    2    0  503  0.18234612281E+03 -0.55522862328E+02 -0.13587521431E+03  0.46345978316E+03  0.40000000000E+03 0.  1.
<mgrwt>
<rscale>  2 0.44300261E+03</rscale>
<asrwt>0</asrwt>
<pdfrwt beam="1">  1       21 0.35945111E-01 0.44309468E+03</pdfrwt>
<pdfrwt beam="2">  1       21 0.15402853E+00 0.44309468E+03</pdfrwt>
<totfact> 0.17801982E+03</totfact>
</mgrwt>
</event>
<event>
 6    1  0.8947013E-004  0.4602150E+03  0.7818608E-02  0.1024741E+00
         21   -1    0    0  501  502  0.00000000000E+00  0.00000000000E+00  0.18167221905E+04  0.18167221905E+04  0.00000000000E+00 0. -1.
         21   -1    0    0  502  503 -0.00000000000E+00 -0.00000000000E+00 -0.59526946391E+03  0.59526946391E+03  0.00000000000E+00 0. -1.
    9000007    2    1    2  501    0 -0.20823225274E+03 -0.90295386052E+02  0.16923256400E+04  0.17537855861E+04  0.40035469539E+03 0.  0.
    9000005    1    3    3    0    0 -0.22199042348E+03  0.18763734208E+02  0.15835332946E+04  0.15991280502E+04  0.99999687468E+00 0.  0.
          4    1    3    3  501    0  0.13758170746E+02 -0.10905912026E+03  0.10879234546E+03  0.15465753588E+03  0.00000000000E+00 0.  1.
   -9000007    1    1    2    0  503  0.20823225274E+03  0.90295386052E+02 -0.47087291343E+03  0.65820606836E+03  0.40000000000E+03 0. -1.
<mgrwt>
<rscale>  2 0.46013781E+03</rscale>
<asrwt>0</asrwt>
<pdfrwt beam="1">  1       21 0.27949572E+00 0.46021496E+03</pdfrwt>
<pdfrwt beam="2">  1       21 0.91579918E-01 0.46021496E+03</pdfrwt>
<totfact> 0.34139382E+01</totfact>
</mgrwt>
</event>
<event>
 6    1  0.8947013E-004  0.5003482E+03  0.7818608E-02  0.1013995E+00
         21   -1    0    0  501  502  0.00000000000E+00  0.00000000000E+00  0.32859942749E+03  0.32859942749E+03  0.00000000000E+00 0.  1.
         21   -1    0    0  502  503 -0.00000000000E+00 -0.00000000000E+00 -0.96115153105E+03  0.96115153105E+03  0.00000000000E+00 0.  1.
    9000007    2    1    2  501    0  0.27139751141E+03  0.12919632588E+03 -0.16267839357E+02  0.49592818606E+03  0.39412158442E+03 0.  0.
    9000005    1    3    3    0    0  0.23999535939E+02  0.22325235525E+03 -0.47214815552E+02  0.22945115090E+03  0.99999687468E+00 0.  0.
          4    1    3    3  501    0  0.24739797547E+03 -0.94056029368E+02  0.30946976195E+02  0.26647703515E+03  0.00000000000E+00 0.  1.
   -9000007    1    1    2    0  503 -0.27139751141E+03 -0.12919632588E+03 -0.61628426420E+03  0.79382277249E+03  0.40000000000E+03 0.  1.
<mgrwt>
<rscale>  2 0.49917232E+03</rscale>
<asrwt>0</asrwt>
<pdfrwt beam="1">  1       21 0.50553759E-01 0.50034818E+03</pdfrwt>
<pdfrwt beam="2">  1       21 0.14786946E+00 0.50034818E+03</pdfrwt>
<totfact> 0.95623631E+02</totfact>
</mgrwt>
</event>
<event>
 6    1  0.8947013E-004  0.4296489E+03  0.7818608E-02  0.1034018E+00
         21   -1    0    0  501  502  0.00000000000E+00  0.00000000000E+00  0.21372248224E+04  0.21372248224E+04  0.00000000000E+00 0. -1.
         21   -1    0    0  502  503 -0.00000000000E+00 -0.00000000000E+00 -0.10571391561E+03  0.10571391561E+03  0.00000000000E+00 0. -1.
    9000007    2    1    2  501    0 -0.14857076046E+03 -0.44916951914E+02  0.14974868840E+04  0.15579040963E+04  0.40063375059E+03 0.  0.
    9000005    1    3    3    0    0 -0.89805195163E+02  0.15449322826E+03  0.10420793061E+04  0.10572905990E+04  0.99999687468E+00 0.  0.
          4    1    3    3  501    0 -0.58765565294E+02 -0.19941018018E+03  0.45540757788E+03  0.50061349723E+03  0.00000000000E+00 0.  1.
   -9000007    1    1    2    0  503  0.14857076046E+03  0.44916951914E+02  0.53402402285E+03  0.68503464176E+03  0.40000000000E+03 0. -1.
<mgrwt>
<rscale>  2 0.42950113E+03</rscale>
<asrwt>0</asrwt>
<pdfrwt beam="1">  1       21 0.32880379E+00 0.42964893E+03</pdfrwt>
<pdfrwt beam="2">  1       21 0.16263681E-01 0.42964893E+03</pdfrwt>
<totfact> 0.63212001E+02</totfact>
</mgrwt>
</event>
<event>
 6    1  0.8947013E-004  0.6371702E+03  0.7818608E-02  0.9831212E-01
         21   -1    0    0  501  502  0.00000000000E+00  0.00000000000E+00  0.35809940604E+03  0.35809940604E+03  0.00000000000E+00 0. -1.
         21   -1    0    0  502  503 -0.00000000000E+00 -0.00000000000E+00 -0.14413048165E+04  0.14413048165E+04  0.00000000000E+00 0.  1.
    9000007    2    1    2  501    0 -0.36310284115E+03 -0.33762847671E+03 -0.12587726455E+03  0.64948516432E+03  0.40018649577E+03 0.  0.
    9000005    1    3    3    0    0 -0.40938605905E+03 -0.30520534762E+03  0.95209441904E+00  0.51063603088E+03  0.99999687468E+00 0.  0.
          4    1    3    3  501    0  0.46283217895E+02 -0.32423129096E+02 -0.12682935897E+03  0.13884913344E+03  0.00000000000E+00 0.  1.
   -9000007    1    1    2    0  503  0.36310284115E+03  0.33762847671E+03 -0.95732814595E+03  0.11499190583E+04  0.40000000000E+03 0.  1.
<mgrwt>
<rscale>  2 0.63714094E+03</rscale>
<asrwt>0</asrwt>
<pdfrwt beam="1">  1       21 0.55092216E-01 0.63717022E+03</pdfrwt>
<pdfrwt beam="2">  1       21 0.22173920E+00 0.63717022E+03</pdfrwt>
<totfact> 0.22638270E+02</totfact>
</mgrwt>
</event>
<event>
 6    1  0.8947013E-004  0.4399280E+03  0.7818608E-02  0.1030776E+00
         21   -1    0    0  501  502  0.00000000000E+00  0.00000000000E+00  0.19303951648E+03  0.19303951648E+03  0.00000000000E+00 0. -1.
         21   -1    0    0  502  503 -0.00000000000E+00 -0.00000000000E+00 -0.22085062857E+04  0.22085062857E+04  0.00000000000E+00 0. -1.
    9000007    2    1    2  501    0 -0.39271121185E+02 -0.17886989729E+03 -0.12031027335E+03  0.45599837152E+03  0.39990410330E+03 0.  0.
    9000005    1    3    3    0    0 -0.38932165778E+02  0.30184245915E+02  0.12460501481E+03  0.13399332798E+03  0.99999687468E+00 0.  0.
          4    1    3    3  501    0 -0.33895540752E+00 -0.20905414321E+03 -0.24491528817E+03  0.32200504353E+03  0.00000000000E+00 0.  1.
   -9000007    1    1    2    0  503  0.39271121185E+02  0.17886989729E+03 -0.18951564959E+04  0.19455474307E+04  0.40000000000E+03 0. -1.
<mgrwt>
<rscale>  2 0.43990622E+03</rscale>
<asrwt>0</asrwt>
<pdfrwt beam="1">  1       21 0.29698387E-01 0.43992802E+03</pdfrwt>
<pdfrwt beam="2">  1       21 0.33977020E+00 0.43992802E+03</pdfrwt>
<totfact> 0.16947069E+02</totfact>
</mgrwt>
</event>
<event>
 6    1  0.8947013E-004  0.5307218E+03  0.7818608E-02  0.1006331E+00
         21   -1    0    0  501  502  0.00000000000E+00  0.00000000000E+00  0.23288058176E+04  0.23288058176E+04  0.00000000000E+00 0.  1.
         21   -1    0    0  502  503 -0.00000000000E+00 -0.00000000000E+00 -0.23807529760E+03  0.23807529760E+03  0.00000000000E+00 0. -1.
    9000007    2    1    2  501    0 -0.34406600036E+03 -0.57307634581E+02  0.19472576427E+04  0.20171083948E+04  0.39401569971E+03 0.  0.
    9000005    1    3    3    0    0 -0.31923398326E+03  0.85218358852E+02  0.87810828638E+03  0.93821514982E+03  0.99999687468E+00 0.  0.
          4    1    3    3  501    0 -0.24832017108E+02 -0.14252599343E+03  0.10691493563E+04  0.10788932450E+04  0.00000000000E+00 0.  1.
   -9000007    1    1    2    0  503  0.34406600036E+03  0.57307634581E+02  0.14347287728E+03  0.54977272041E+03  0.40000000000E+03 0. -1.
<mgrwt>
<rscale>  2 0.52959426E+03</rscale>
<asrwt>0</asrwt>
<pdfrwt beam="1">  1       21 0.35827780E+00 0.53072175E+03</pdfrwt>
<pdfrwt beam="2">  1       21 0.36626971E-01 0.53072175E+03</pdfrwt>
<totfact> 0.80832741E+01</totfact>
</mgrwt>
</event>
<event>
 6    1  0.8947013E-004  0.6130287E+03  0.7818608E-02  0.9878784E-01
         21   -1    0    0  501  502  0.00000000000E+00  0.00000000000E+00  0.23034939052E+03  0.23034939052E+03  0.00000000000E+00 0. -1.
         21   -1    0    0  502  503 -0.00000000000E+00 -0.00000000000E+00 -0.16762860965E+04  0.16762860965E+04  0.00000000000E+00 0.  1.
    9000007    2    1    2  501    0  0.45125540249E+02  0.46235040484E+03 -0.56659626673E+03  0.83470087178E+03  0.39986248216E+03 0.  0.
    9000005    1    3    3    0    0 -0.14202831227E+03  0.15175965018E+03 -0.69031295385E+02  0.21901906914E+03  0.99999687468E+00 0.  0.
          4    1    3    3  501    0  0.18715385252E+03  0.31059075466E+03 -0.49756497134E+03  0.61568180264E+03  0.00000000000E+00 0.  1.
   -9000007    1    1    2    0  503 -0.45125540249E+02 -0.46235040484E+03 -0.87934043928E+03  0.10719346153E+04  0.40000000000E+03 0. -1.
<mgrwt>
<rscale>  2 0.61300629E+03</rscale>
<asrwt>0</asrwt>
<pdfrwt beam="1">  1       21 0.35438370E-01 0.61302872E+03</pdfrwt>
<pdfrwt beam="2">  1       21 0.25789016E+00 0.61302872E+03</pdfrwt>
<totfact> 0.34199418E+02</totfact>
</mgrwt>
</event>
<event>
 6    1  0.8947013E-004  0.4266315E+03  0.7818608E-02  0.1034957E+00
         21   -1    0    0  501  502  0.00000000000E+00  0.00000000000E+00  0.93812185077E+03  0.93812185077E+03  0.00000000000E+00 0.  1.
         21   -1    0    0  502  503 -0.00000000000E+00 -0.00000000000E+00 -0.29019987706E+03  0.29019987706E+03  0.00000000000E+00 0.  1.
    9000007    2    1    2  501    0  0.98742179125E+02 -0.10940469246E+03  0.67790783035E+03  0.80098280347E+03  0.40036860559E+03 0.  0.
    9000005    1    3    3    0    0  0.93147553198E+02  0.14377298323E+03  0.23542686163E+03  0.29115965474E+03  0.99999687468E+00 0.  0.
          4    1    3    3  501    0  0.55946259278E+01 -0.25317767570E+03  0.44248096871E+03  0.50982314873E+03  0.00000000000E+00 0.  1.
   -9000007    1    1    2    0  503 -0.98742179125E+02  0.10940469246E+03 -0.29985856631E+02  0.42733892436E+03  0.40000000000E+03 0.  1.
<mgrwt>
<rscale>  2 0.42654499E+03</rscale>
<asrwt>0</asrwt>
<pdfrwt beam="1">  1       21 0.14432644E+00 0.42663149E+03</pdfrwt>
<pdfrwt beam="2">  1       21 0.44646136E-01 0.42663149E+03</pdfrwt>
<totfact> 0.13680625E+03</totfact>
</mgrwt>
</event>
<event>
 6    1  0.8947013E-004  0.4144912E+03  0.7818608E-02  0.1038876E+00
         21   -1    0    0  501  502  0.00000000000E+00  0.00000000000E+00  0.13061888670E+04  0.13061888670E+04  0.00000000000E+00 0.  1.
         21   -1    0    0  502  503 -0.00000000000E+00 -0.00000000000E+00 -0.14912869048E+03  0.14912869048E+03  0.00000000000E+00 0.  1.
    9000007    2    1    2  501    0 -0.86362543491E+02  0.65912640726E+02  0.82853582045E+03  0.92642133167E+03  0.39997739047E+03 0.  0.
    9000005    1    3    3    0    0  0.72743490288E+01 -0.39023094506E+02  0.77487655062E+03  0.77589328310E+03  0.99999687468E+00 0.  0.
          4    1    3    3  501    0 -0.93636892520E+02  0.10493573523E+03  0.53659269829E+02  0.15052804858E+03  0.00000000000E+00 0.  1.
   -9000007    1    1    2    0  503  0.86362543491E+02 -0.65912640726E+02  0.32852435603E+03  0.52889622577E+03  0.40000000000E+03 0.  1.
<mgrwt>
<rscale>  2 0.41448576E+03</rscale>
<asrwt>0</asrwt>
<pdfrwt beam="1">  1       21 0.20095213E+00 0.41449121E+03</pdfrwt>
<pdfrwt beam="2">  1       21 0.22942876E-01 0.41449121E+03</pdfrwt>
<totfact> 0.20272924E+03</totfact>
</mgrwt>
</event>
<event>
 6    1  0.8947013E-004  0.4342773E+03  0.7818608E-02  0.1032571E+00
         21   -1    0    0  501  502  0.00000000000E+00  0.00000000000E+00  0.30132240723E+03  0.30132240723E+03  0.00000000000E+00 0.  1.
         21   -1    0    0  502  503 -0.00000000000E+00 -0.00000000000E+00 -0.63772886206E+03  0.63772886206E+03  0.00000000000E+00 0. -1.
    9000007    2    1    2  501    0 -0.10975202630E+03  0.12631111125E+03 -0.10175613876E+03  0.44603932732E+03  0.40074526278E+03 0.  0.
    9000005    1    3    3    0    0  0.60778558277E+02  0.11138415157E+03 -0.20866277288E+03  0.24421632858E+03  0.99999687468E+00 0.  0.
          4    1    3    3  501    0 -0.17053058458E+03  0.14926959673E+02  0.10690663411E+03  0.20182299874E+03  0.00000000000E+00 0.  1.
   -9000007    1    1    2    0  503  0.10975202630E+03 -0.12631111125E+03 -0.23465031606E+03  0.49301194198E+03  0.40000000000E+03 0. -1.
<mgrwt>
<rscale>  2 0.43410529E+03</rscale>
<asrwt>0</asrwt>
<pdfrwt beam="1">  1       21 0.46357294E-01 0.43427730E+03</pdfrwt>
<pdfrwt beam="2">  1       21 0.98112132E-01 0.43427730E+03</pdfrwt>
<totfact> 0.33548404E+03</totfact>
</mgrwt>
</event>
<event>
 6    1  0.8947013E-004  0.4638323E+03  0.7818608E-02  0.1023680E+00
         21   -1    0    0  501  502  0.00000000000E+00  0.00000000000E+00  0.21125184520E+03  0.21125184520E+03  0.00000000000E+00 0.  1.
         21   -1    0    0  502  503 -0.00000000000E+00 -0.00000000000E+00 -0.10869024939E+04  0.10869024939E+04  0.00000000000E+00 0.  1.
    9000007    2    1    2  501    0  0.11373141279E+03 -0.20543996538E+03 -0.60088704314E+03  0.75904817832E+03  0.39993560079E+03 0.  0.
    9000005    1    3    3    0    0  0.18185817252E+03 -0.12230112350E+02 -0.79498486277E+02  0.19885416736E+03  0.99999687468E+00 0.  0.
          4    1    3    3  501    0 -0.68126759735E+02 -0.19320985303E+03 -0.52138855686E+03  0.56019401097E+03  0.00000000000E+00 0.  1.
   -9000007    1    1    2    0  503 -0.11373141279E+03  0.20543996538E+03 -0.27476360552E+03  0.53910616074E+03  0.40000000000E+03 0.  1.
<mgrwt>
<rscale>  2 0.46381843E+03</rscale>
<asrwt>0</asrwt>
<pdfrwt beam="1">  1       21 0.32500285E-01 0.46383231E+03</pdfrwt>
<pdfrwt beam="2">  1       21 0.16721576E+00 0.46383231E+03</pdfrwt>
<totfact> 0.17202960E+03</totfact>
</mgrwt>
</event>
<event>
 6    1  0.8947013E-004  0.4618771E+03  0.7818608E-02  0.1024251E+00
         21   -1    0    0  501  502  0.00000000000E+00  0.00000000000E+00  0.28897839718E+03  0.28897839718E+03  0.00000000000E+00 0.  1.
         21   -1    0    0  502  503 -0.00000000000E+00 -0.00000000000E+00 -0.12190777389E+04  0.12190777389E+04  0.00000000000E+00 0.  1.
    9000007    2    1    2  501    0 -0.12205512006E+03  0.19562158288E+03  0.86007250979E+01  0.46195715822E+03  0.40020643116E+03 0.  0.
    9000005    1    3    3    0    0 -0.13492938197E+03 -0.97739124307E+02 -0.15467528773E+02  0.16732937273E+03  0.99999687468E+00 0.  0.
          4    1    3    3  501    0  0.12874261914E+02  0.29336070718E+03  0.24068253871E+02  0.29462778549E+03  0.00000000000E+00 0.  1.
   -9000007    1    1    2    0  503  0.12205512006E+03 -0.19562158288E+03 -0.93870006683E+03  0.10460989779E+04  0.40000000000E+03 0.  1.
<mgrwt>
<rscale>  2 0.46183237E+03</rscale>
<asrwt>0</asrwt>
<pdfrwt beam="1">  1       21 0.44458215E-01 0.46187709E+03</pdfrwt>
<pdfrwt beam="2">  1       21 0.18755042E+00 0.46187709E+03</pdfrwt>
<totfact> 0.64952508E+02</totfact>
</mgrwt>
</event>
<event>
 6    1  0.8947013E-004  0.5298409E+03  0.7818608E-02  0.1006281E+00
         21   -1    0    0  501  502  0.00000000000E+00  0.00000000000E+00  0.15014708113E+04  0.15014708113E+04  0.00000000000E+00 0.  1.
         21   -1    0    0  502  503 -0.00000000000E+00 -0.00000000000E+00 -0.11441411299E+04  0.11441411299E+04  0.00000000000E+00 0. -1.
    9000007    2    1    2  501    0 -0.96067739988E+02  0.33391964466E+03  0.13886011128E+04  0.14861930760E+04  0.39978177664E+03 0.  0.
    9000005    1    3    3    0    0  0.40675388119E+02  0.16799518747E+03  0.11582930870E+04  0.11711194413E+04  0.99999687468E+00 0.  0.
          4    1    3    3  501    0 -0.13674312811E+03  0.16592445720E+03  0.23030802573E+03  0.31507363472E+03  0.00000000000E+00 0.  1.
   -9000007    1    1    2    0  503  0.96067739988E+02 -0.33391964466E+03 -0.10312714314E+04  0.11594188652E+04  0.40000000000E+03 0. -1.
<mgrwt>
<rscale>  2 0.52979968E+03</rscale>
<asrwt>0</asrwt>
<pdfrwt beam="1">  1       21 0.23099551E+00 0.52984086E+03</pdfrwt>
<pdfrwt beam="2">  1       21 0.17602171E+00 0.52984086E+03</pdfrwt>
<totfact> 0.11832049E+01</totfact>
</mgrwt>
</event>
<event>
 6    1  0.8947013E-004  0.4098715E+03  0.7818608E-02  0.1040428E+00
         21   -1    0    0  501  502  0.00000000000E+00  0.00000000000E+00  0.87958577009E+03  0.87958577009E+03  0.00000000000E+00 0. -1.
         21   -1    0    0  502  503 -0.00000000000E+00 -0.00000000000E+00 -0.19785333788E+03  0.19785333788E+03  0.00000000000E+00 0. -1.
    9000007    2    1    2  501    0 -0.77625489304E+02 -0.44372738002E+02  0.44169183959E+03  0.60245053699E+03  0.39982535173E+03 0.  0.
    9000005    1    3    3    0    0  0.50952613100E+02 -0.15394731814E+03  0.40503776146E+02  0.16714515076E+03  0.99999687468E+00 0.  0.
          4    1    3    3  501    0 -0.12857810240E+03  0.10957458014E+03  0.40118806344E+03  0.43530538623E+03  0.00000000000E+00 0.  1.
   -9000007    1    1    2    0  503  0.77625489304E+02  0.44372738002E+02  0.24004059262E+03  0.47498857099E+03  0.40000000000E+03 0. -1.
<mgrwt>
<rscale>  2 0.40982890E+03</rscale>
<asrwt>0</asrwt>
<pdfrwt beam="1">  1       21 0.13532089E+00 0.40987151E+03</pdfrwt>
<pdfrwt beam="2">  1       21 0.30438976E-01 0.40987151E+03</pdfrwt>
<totfact> 0.35640761E+03</totfact>
</mgrwt>
</event>
<event>
 6    1  0.8947013E-004  0.5096533E+03  0.7818608E-02  0.1011315E+00
         21   -1    0    0  501  502  0.00000000000E+00  0.00000000000E+00  0.91795622786E+03  0.91795622786E+03  0.00000000000E+00 0.  1.
         21   -1    0    0  502  503 -0.00000000000E+00 -0.00000000000E+00 -0.82798849398E+03  0.82798849398E+03  0.00000000000E+00 0.  1.
    9000007    2    1    2  501    0 -0.25838558102E+03 -0.18161338413E+03  0.75338992286E+03  0.90935908331E+03  0.39948846888E+03 0.  0.
    9000005    1    3    3    0    0 -0.11740350769E+03 -0.29362359740E+03  0.37662710735E+03  0.49177980698E+03  0.99999687468E+00 0.  0.
          4    1    3    3  501    0 -0.14098207333E+03  0.11201021327E+03  0.37676281550E+03  0.41757927633E+03  0.00000000000E+00 0.  1.
   -9000007    1    1    2    0  503  0.25838558102E+03  0.18161338413E+03 -0.66342218897E+03  0.83658563853E+03  0.40000000000E+03 0.  1.
<mgrwt>
<rscale>  2 0.50955297E+03</rscale>
<asrwt>0</asrwt>
<pdfrwt beam="1">  1       21 0.14122403E+00 0.50965334E+03</pdfrwt>
<pdfrwt beam="2">  1       21 0.12738285E+00 0.50965334E+03</pdfrwt>
<totfact> 0.12475369E+02</totfact>
</mgrwt>
</event>
<event>
 6    1  0.8947013E-004  0.5028296E+03  0.7818608E-02  0.1013047E+00
         21   -1    0    0  501  502  0.00000000000E+00  0.00000000000E+00  0.21726438856E+04  0.21726438856E+04  0.00000000000E+00 0.  1.
         21   -1    0    0  502  503 -0.00000000000E+00 -0.00000000000E+00 -0.11925114123E+03  0.11925114123E+03  0.00000000000E+00 0.  1.
    9000007    2    1    2  501    0  0.23925720814E+03  0.18848086460E+03  0.12052725951E+04  0.13059554569E+04  0.40008571449E+03 0.  0.
    9000005    1    3    3    0    0  0.31848418724E+03  0.23333671800E+02  0.78823257515E+03  0.85046353848E+03  0.99999687468E+00 0.  0.
          4    1    3    3  501    0 -0.79226979101E+02  0.16514719280E+03  0.41704002000E+03  0.45549191847E+03  0.00000000000E+00 0.  1.
   -9000007    1    1    2    0  503 -0.23925720814E+03 -0.18848086460E+03  0.84812014927E+03  0.98593956993E+03  0.40000000000E+03 0.  1.
<mgrwt>
<rscale>  2 0.50281257E+03</rscale>
<asrwt>0</asrwt>
<pdfrwt beam="1">  1       21 0.33425288E+00 0.50282962E+03</pdfrwt>
<pdfrwt beam="2">  1       21 0.18346331E-01 0.50282962E+03</pdfrwt>
<totfact> 0.44796394E+02</totfact>
</mgrwt>
</event>
<event>
 6    1  0.8947013E-004  0.4109931E+03  0.7818608E-02  0.1040301E+00
         21   -1    0    0  501  502  0.00000000000E+00  0.00000000000E+00  0.14574149111E+03  0.14574149111E+03  0.00000000000E+00 0. -1.
         21   -1    0    0  502  503 -0.00000000000E+00 -0.00000000000E+00 -0.15615003114E+04  0.15615003114E+04  0.00000000000E+00 0. -1.
    9000007    2    1    2  501    0 -0.69665901931E+02  0.38710010286E+02 -0.27177230605E+03  0.49272257764E+03  0.40319170303E+03 0.  0.
    9000005    1    3    3    0    0  0.68326242840E+02 -0.12384434978E+03  0.71586991662E+01  0.14162678207E+03  0.99999687468E+00 0.  0.
          4    1    3    3  501    0 -0.13799214477E+03  0.16255436007E+03 -0.27893100521E+03  0.35109579557E+03  0.00000000000E+00 0.  1.
   -9000007    1    1    2    0  503  0.69665901931E+02 -0.38710010286E+02 -0.11439865143E+04  0.12145192249E+04  0.40000000000E+03 0. -1.
<mgrwt>
<rscale>  2 0.41020822E+03</rscale>
<asrwt>0</asrwt>
<pdfrwt beam="1">  1       21 0.22421767E-01 0.41099313E+03</pdfrwt>
<pdfrwt beam="2">  1       21 0.24023083E+00 0.41099313E+03</pdfrwt>
<totfact> 0.11921240E+03</totfact>
</mgrwt>
</event>
<event>
 6    1  0.8947013E-004  0.4856112E+03  0.7818608E-02  0.1017635E+00
         21   -1    0    0  501  502  0.00000000000E+00  0.00000000000E+00  0.28067606201E+03  0.28067606201E+03  0.00000000000E+00 0.  1.
         21   -1    0    0  502  503 -0.00000000000E+00 -0.00000000000E+00 -0.83955962839E+03  0.83955962839E+03  0.00000000000E+00 0. -1.
    9000007    2    1    2  501    0  0.17433247765E+03 -0.21313471679E+03 -0.27171277629E+03  0.55606791133E+03  0.39945646690E+03 0.  0.
    9000005    1    3    3    0    0  0.88852605946E+02 -0.30400485876E+03 -0.78884385812E+02  0.32640080584E+03  0.99999687468E+00 0.  0.
          4    1    3    3  501    0  0.85479871706E+02  0.90870141974E+02 -0.19282839048E+03  0.22966710549E+03  0.00000000000E+00 0.  1.
   -9000007    1    1    2    0  503 -0.17433247765E+03  0.21313471679E+03 -0.28717079009E+03  0.56416777907E+03  0.40000000000E+03 0.  1.
<mgrwt>
<rscale>  2 0.48549924E+03</rscale>
<asrwt>0</asrwt>
<pdfrwt beam="1">  1       21 0.43180933E-01 0.48561118E+03</pdfrwt>
<pdfrwt beam="2">  1       21 0.12916302E+00 0.48561118E+03</pdfrwt>
<totfact> 0.19201134E+03</totfact>
</mgrwt>
</event>
<event>
 6    1  0.8947013E-004  0.5351100E+03  0.7818608E-02  0.1005002E+00
         21   -1    0    0  501  502  0.00000000000E+00  0.00000000000E+00  0.36645322448E+03  0.36645322448E+03  0.00000000000E+00 0. -1.
         21   -1    0    0  502  503 -0.00000000000E+00 -0.00000000000E+00 -0.18179790882E+04  0.18179790882E+04  0.00000000000E+00 0. -1.
    9000007    2    1    2  501    0  0.22759027751E+03  0.27302991246E+03  0.99000653467E+02  0.54416552095E+03  0.39996539512E+03 0.  0.
    9000005    1    3    3    0    0  0.31272654551E+03  0.23384008047E+03  0.17069477714E+03  0.42616520557E+03  0.99999687468E+00 0.  0.
          4    1    3    3  501    0 -0.85136268005E+02  0.39189831992E+02 -0.71694123672E+02  0.11800031538E+03  0.00000000000E+00 0.  1.
   -9000007    1    1    2    0  503 -0.22759027751E+03 -0.27302991246E+03 -0.15505265171E+04  0.16402667917E+04  0.40000000000E+03 0. -1.
<mgrwt>
<rscale>  2 0.53510349E+03</rscale>
<asrwt>0</asrwt>
<pdfrwt beam="1">  1       21 0.56377420E-01 0.53510996E+03</pdfrwt>
<pdfrwt beam="2">  1       21 0.27968909E+00 0.53510996E+03</pdfrwt>
<totfact> 0.98058157E+01</totfact>
</mgrwt>
</event>
<event>
 6    1  0.8947013E-004  0.5165748E+03  0.7818608E-02  0.1009631E+00
         21   -1    0    0  501  502  0.00000000000E+00  0.00000000000E+00  0.79402201416E+03  0.79402201416E+03  0.00000000000E+00 0. -1.
         21   -1    0    0  502  503 -0.00000000000E+00 -0.00000000000E+00 -0.34351977419E+03  0.34351977419E+03  0.00000000000E+00 0. -1.
    9000007    2    1    2  501    0 -0.29753391491E+03  0.13536267444E+03  0.13610797651E+03  0.53281603476E+03  0.39814326752E+03 0.  0.
    9000005    1    3    3    0    0  0.18902523842E+02  0.11681441077E+01 -0.10901251939E+03  0.11064989537E+03  0.99999687468E+00 0.  0.
          4    1    3    3  501    0 -0.31643643875E+03  0.13419453034E+03  0.24512049590E+03  0.42216613940E+03  0.00000000000E+00 0.  1.
   -9000007    1    1    2    0  503  0.29753391491E+03 -0.13536267444E+03  0.31439426345E+03  0.60472575358E+03  0.40000000000E+03 0. -1.
<mgrwt>
<rscale>  2 0.51621529E+03</rscale>
<asrwt>0</asrwt>
<pdfrwt beam="1">  1       21 0.12215723E+00 0.51657476E+03</pdfrwt>
<pdfrwt beam="2">  1       21 0.52849196E-01 0.51657476E+03</pdfrwt>
<totfact> 0.14299301E+03</totfact>
</mgrwt>
</event>
<event>
 6    1  0.8947013E-004  0.6228530E+03  0.7818608E-02  0.9859237E-01
         21   -1    0    0  501  502  0.00000000000E+00  0.00000000000E+00  0.46996521441E+03  0.46996521441E+03  0.00000000000E+00 0.  1.
         21   -1    0    0  502  503 -0.00000000000E+00 -0.00000000000E+00 -0.92549725282E+03  0.92549725282E+03  0.00000000000E+00 0.  1.
    9000007    2    1    2  501    0  0.34972923695E+03 -0.32446803457E+03  0.19943283571E+01  0.62285621504E+03  0.40044455626E+03 0.  0.
    9000005    1    3    3    0    0  0.13158648447E+03 -0.27823323780E+03  0.16256004916E+03  0.34807399657E+03  0.99999687468E+00 0.  0.
          4    1    3    3  501    0  0.21814275248E+03 -0.46234796771E+02 -0.16056572080E+03  0.27478221847E+03  0.00000000000E+00 0.  1.
   -9000007    1    1    2    0  503 -0.34972923695E+03  0.32446803457E+03 -0.45752636677E+03  0.77260625219E+03  0.40000000000E+03 0.  1.
<mgrwt>
<rscale>  2 0.62278158E+03</rscale>
<asrwt>0</asrwt>
<pdfrwt beam="1">  1       21 0.72302341E-01 0.62285302E+03</pdfrwt>
<pdfrwt beam="2">  1       21 0.14238419E+00 0.62285302E+03</pdfrwt>
<totfact> 0.46076690E+02</totfact>
</mgrwt>
</event>
<event>
 6    1  0.8947013E-004  0.4198782E+03  0.7818608E-02  0.1037316E+00
         21   -1    0    0  501  502  0.00000000000E+00  0.00000000000E+00  0.82101423212E+03  0.82101423212E+03  0.00000000000E+00 0. -1.
         21   -1    0    0  502  503 -0.00000000000E+00 -0.00000000000E+00 -0.22072734266E+03  0.22072734266E+03  0.00000000000E+00 0. -1.
    9000007    2    1    2  501    0  0.12501421127E+03  0.25867694903E+02  0.39403355862E+03  0.57394019904E+03  0.39729990700E+03 0.  0.
    9000005    1    3    3    0    0 -0.14370712467E+03  0.34555606935E+02  0.15513573851E+03  0.21427534858E+03  0.99999687468E+00 0.  0.
          4    1    3    3  501    0  0.26872133594E+03 -0.86879120317E+01  0.23889782011E+03  0.35966485046E+03  0.00000000000E+00 0.  1.
   -9000007    1    1    2    0  503 -0.12501421127E+03 -0.25867694903E+02  0.20625333084E+03  0.46780137573E+03  0.40000000000E+03 0.  1.
<mgrwt>
<rscale>  2 0.41923384E+03</rscale>
<asrwt>0</asrwt>
<pdfrwt beam="1">  1       21 0.12630988E+00 0.41987819E+03</pdfrwt>
<pdfrwt beam="2">  1       21 0.33958053E-01 0.41987819E+03</pdfrwt>
<totfact> 0.34103683E+03</totfact>
</mgrwt>
</event>
<event>
 6    1  0.8947013E-004  0.5637017E+03  0.7818608E-02  0.9984238E-01
         21   -1    0    0  501  502  0.00000000000E+00  0.00000000000E+00  0.22399529461E+03  0.22399529461E+03  0.00000000000E+00 0. -1.
         21   -1    0    0  502  503 -0.00000000000E+00 -0.00000000000E+00 -0.15224871215E+04  0.15224871215E+04  0.00000000000E+00 0.  1.
    9000007    2    1    2  501    0  0.38994362525E+03 -0.68201161809E+02 -0.41907417270E+03  0.70241209288E+03  0.40131304072E+03 0.  0.
    9000005    1    3    3    0    0  0.51313127274E+02 -0.59457247709E+01  0.80517316300E+02  0.95668317073E+02  0.99999687468E+00 0.  0.
          4    1    3    3  501    0  0.33863049797E+03 -0.62255437038E+02 -0.49959148900E+03  0.60674377580E+03  0.00000000000E+00 0.  1.
   -9000007    1    1    2    0  503 -0.38994362525E+03  0.68201161809E+02 -0.87941765420E+03  0.10440703232E+04  0.40000000000E+03 0.  1.
<mgrwt>
<rscale>  2 0.56346803E+03</rscale>
<asrwt>0</asrwt>
<pdfrwt beam="1">  1       21 0.34460814E-01 0.56370168E+03</pdfrwt>
<pdfrwt beam="2">  1       21 0.23422879E+00 0.56370168E+03</pdfrwt>
<totfact> 0.51886618E+02</totfact>
</mgrwt>
</event>
<event>
 6    1  0.8947013E-004  0.4449444E+03  0.7818608E-02  0.1029279E+00
         21   -1    0    0  501  502  0.00000000000E+00  0.00000000000E+00  0.11594124870E+04  0.11594124870E+04  0.00000000000E+00 0.  1.
         21   -1    0    0  502  503 -0.00000000000E+00 -0.00000000000E+00 -0.23335652912E+03  0.23335652912E+03  0.00000000000E+00 0.  1.
    9000007    2    1    2  501    0  0.82173989715E+02 -0.17670008976E+03  0.82408160039E+03  0.93628872530E+03  0.39943786341E+03 0.  0.
    9000005    1    3    3    0    0 -0.17226742444E+02  0.97727413738E+02  0.45524624347E+03  0.46593728144E+03  0.99999687468E+00 0.  0.
          4    1    3    3  501    0  0.99400732159E+02 -0.27442750350E+03  0.36883535692E+03  0.47035144386E+03  0.00000000000E+00 0.  1.
   -9000007    1    1    2    0  503 -0.82173989715E+02  0.17670008976E+03  0.10197435748E+03  0.45648029080E+03  0.40000000000E+03 0.  1.
<mgrwt>
<rscale>  2 0.44481799E+03</rscale>
<asrwt>0</asrwt>
<pdfrwt beam="1">  1       21 0.17837115E+00 0.44494436E+03</pdfrwt>
<pdfrwt beam="2">  1       21 0.35901005E-01 0.44494436E+03</pdfrwt>
<totfact> 0.11785487E+03</totfact>
</mgrwt>
</event>
<event>
 6    1  0.8947013E-004  0.4579640E+03  0.7818608E-02  0.1025578E+00
         21   -1    0    0  501  502  0.00000000000E+00  0.00000000000E+00  0.31646663770E+04  0.31646663770E+04  0.00000000000E+00 0. -1.
         21   -1    0    0  502  503 -0.00000000000E+00 -0.00000000000E+00 -0.70246772548E+02  0.70246772548E+02  0.00000000000E+00 0. -1.
    9000007    2    1    2  501    0  0.21435345419E+03 -0.34981253815E+02  0.11478215803E+04  0.12358096107E+04  0.40318720495E+03 0.  0.
    9000005    1    3    3    0    0  0.78538450088E+02  0.34669634331E+02  0.10522006668E+04  0.10556976437E+04  0.99999687468E+00 0.  0.
          4    1    3    3  501    0  0.13581500410E+03 -0.69650888146E+02  0.95620913501E+02  0.18011196700E+03  0.00000000000E+00 0.  1.
   -9000007    1    1    2    0  503 -0.21435345419E+03  0.34981253815E+02  0.19465980242E+04  0.19991035389E+04  0.40000000000E+03 0. -1.
<mgrwt>
<rscale>  2 0.45726150E+03</rscale>
<asrwt>0</asrwt>
<pdfrwt beam="1">  1       21 0.48687164E+00 0.45796399E+03</pdfrwt>
<pdfrwt beam="2">  1       21 0.10807198E-01 0.45796399E+03</pdfrwt>
<totfact> 0.12379672E+02</totfact>
</mgrwt>
</event>
<event>
 6    1  0.8947013E-004  0.5985445E+03  0.7818608E-02  0.9908513E-01
         21   -1    0    0  501  502  0.00000000000E+00  0.00000000000E+00  0.93184202607E+03  0.93184202607E+03  0.00000000000E+00 0.  1.
         21   -1    0    0  502  503 -0.00000000000E+00 -0.00000000000E+00 -0.38510909053E+03  0.38510909053E+03  0.00000000000E+00 0.  1.
    9000007    2    1    2  501    0 -0.40411228139E+03  0.18694583594E+03  0.30242811747E+03  0.67046807300E+03  0.39976141526E+03 0.  0.
    9000005    1    3    3    0    0 -0.10336930170E+03 -0.11892169597E+03  0.14318512476E+03  0.21290975143E+03  0.99999687468E+00 0.  0.
          4    1    3    3  501    0 -0.30074297968E+03  0.30586753191E+03  0.15924299271E+03  0.45755832156E+03  0.00000000000E+00 0.  1.
   -9000007    1    1    2    0  503  0.40411228139E+03 -0.18694583594E+03  0.24430481807E+03  0.64648304361E+03  0.40000000000E+03 0.  1.
<mgrwt>
<rscale>  2 0.59850461E+03</rscale>
<asrwt>0</asrwt>
<pdfrwt beam="1">  1       21 0.14336031E+00 0.59854447E+03</pdfrwt>
<pdfrwt beam="2">  1       21 0.59247553E-01 0.59854447E+03</pdfrwt>
<totfact> 0.71223414E+02</totfact>
</mgrwt>
</event>
<event>
 6    1  0.8947013E-004  0.4057848E+03  0.7818608E-02  0.1041817E+00
         21   -1    0    0  501  502  0.00000000000E+00  0.00000000000E+00  0.11739701391E+04  0.11739701391E+04  0.00000000000E+00 0. -1.
         21   -1    0    0  502  503 -0.00000000000E+00 -0.00000000000E+00 -0.14235876155E+03  0.14235876155E+03  0.00000000000E+00 0. -1.
    9000007    2    1    2  501    0  0.56852687448E+02 -0.34851042071E+02  0.59760202022E+03  0.72234999071E+03  0.40026804930E+03 0.  0.
    9000005    1    3    3    0    0  0.10422946888E+03  0.52173363717E+02  0.61130798252E+03  0.62232169459E+03  0.99999687468E+00 0.  0.
          4    1    3    3  501    0 -0.47376781432E+02 -0.87024405788E+02 -0.13705962299E+02  0.10002829612E+03  0.00000000000E+00 0.  1.
   -9000007    1    1    2    0  503 -0.56852687448E+02  0.34851042071E+02  0.43400935729E+03  0.59397890991E+03  0.40000000000E+03 0.  1.
<mgrwt>
<rscale>  2 0.40571872E+03</rscale>
<asrwt>0</asrwt>
<pdfrwt beam="1">  1       21 0.18061078E+00 0.40578484E+03</pdfrwt>
<pdfrwt beam="2">  1       21 0.21901349E-01 0.40578484E+03</pdfrwt>
<totfact> 0.30611739E+03</totfact>
</mgrwt>
</event>
<event>
 6    1  0.8947013E-004  0.4194939E+03  0.7818608E-02  0.1037237E+00
         21   -1    0    0  501  502  0.00000000000E+00  0.00000000000E+00  0.96234694890E+03  0.96234694890E+03  0.00000000000E+00 0. -1.
         21   -1    0    0  502  503 -0.00000000000E+00 -0.00000000000E+00 -0.19353971522E+03  0.19353971522E+03  0.00000000000E+00 0.  1.
    9000007    2    1    2  501    0 -0.68061131797E+02 -0.10650260420E+03  0.52033439747E+03  0.66832756750E+03  0.39992340507E+03 0.  0.
    9000005    1    3    3    0    0 -0.10388608277E+03 -0.23563885657E+03  0.21719529405E+03  0.33688690190E+03  0.99999687468E+00 0.  0.
          4    1    3    3  501    0  0.35824950975E+02  0.12913625237E+03  0.30313910343E+03  0.33144066560E+03  0.00000000000E+00 0.  1.
   -9000007    1    1    2    0  503  0.68061131797E+02  0.10650260420E+03  0.24847283622E+03  0.48755909662E+03  0.40000000000E+03 0.  1.
<mgrwt>
<rscale>  2 0.41947563E+03</rscale>
<asrwt>0</asrwt>
<pdfrwt beam="1">  1       21 0.14805337E+00 0.41949389E+03</pdfrwt>
<pdfrwt beam="2">  1       21 0.29775341E-01 0.41949389E+03</pdfrwt>
<totfact> 0.29197080E+03</totfact>
</mgrwt>
</event>
<event>
 6    1  0.8947013E-004  0.4574746E+03  0.7818608E-02  0.1025539E+00
         21   -1    0    0  501  502  0.00000000000E+00  0.00000000000E+00  0.11216010426E+04  0.11216010426E+04  0.00000000000E+00 0. -1.
         21   -1    0    0  502  503 -0.00000000000E+00 -0.00000000000E+00 -0.28876257119E+03  0.28876257119E+03  0.00000000000E+00 0.  1.
    9000007    2    1    2  501    0 -0.19089631621E+03 -0.11332081850E+03  0.83604565208E+03  0.95287776983E+03  0.39965072303E+03 0.  0.
    9000005    1    3    3    0    0 -0.23389064112E+03 -0.14533777846E+03  0.85324506240E+03  0.89658019070E+03  0.99999687468E+00 0.  0.
          4    1    3    3  501    0  0.42994324911E+02  0.32016959964E+02 -0.17199410321E+02  0.56297579124E+02  0.00000000000E+00 0.  1.
   -9000007    1    1    2    0  503  0.19089631621E+03  0.11332081850E+03 -0.32071806516E+01  0.45748584399E+03  0.40000000000E+03 0.  1.
<mgrwt>
<rscale>  2 0.45739824E+03</rscale>
<asrwt>0</asrwt>
<pdfrwt beam="1">  1       21 0.17255400E+00 0.45747460E+03</pdfrwt>
<pdfrwt beam="2">  1       21 0.44425012E-01 0.45747460E+03</pdfrwt>
<totfact> 0.83170208E+02</totfact>
</mgrwt>
</event>
<event>
 6    1  0.8947013E-004  0.4831656E+03  0.7818608E-02  0.1018289E+00
         21   -1    0    0  501  502  0.00000000000E+00  0.00000000000E+00  0.19893040453E+03  0.19893040453E+03  0.00000000000E+00 0.  1.
         21   -1    0    0  502  503 -0.00000000000E+00 -0.00000000000E+00 -0.12299746259E+04  0.12299746259E+04  0.00000000000E+00 0.  1.
    9000007    2    1    2  501    0  0.14062017360E+03  0.23106058492E+03 -0.66970764818E+03  0.82580707300E+03  0.40035729125E+03 0.  0.
    9000005    1    3    3    0    0 -0.23265982886E+02 -0.89133663278E+02 -0.39633972614E+02  0.10028941952E+03  0.99999687468E+00 0.  0.
          4    1    3    3  501    0  0.16388615648E+03  0.32019424820E+03 -0.63007367556E+03  0.72551765347E+03  0.00000000000E+00 0.  1.
   -9000007    1    1    2    0  503 -0.14062017360E+03 -0.23106058492E+03 -0.36133657318E+03  0.60309795742E+03  0.40000000000E+03 0.  1.
<mgrwt>
<rscale>  2 0.48309157E+03</rscale>
<asrwt>0</asrwt>
<pdfrwt beam="1">  1       21 0.30604677E-01 0.48316559E+03</pdfrwt>
<pdfrwt beam="2">  1       21 0.18922687E+00 0.48316559E+03</pdfrwt>
<totfact> 0.13427772E+03</totfact>
</mgrwt>
</event>
<event>
 6    1  0.8947013E-004  0.4679221E+03  0.7818608E-02  0.1022542E+00
         21   -1    0    0  501  502  0.00000000000E+00  0.00000000000E+00  0.47745482589E+03  0.47745482589E+03  0.00000000000E+00 0.  1.
         21   -1    0    0  502  503 -0.00000000000E+00 -0.00000000000E+00 -0.74291562977E+03  0.74291562977E+03  0.00000000000E+00 0.  1.
    9000007    2    1    2  501    0 -0.23611924773E+03 -0.52446997233E+02  0.24503112074E+03  0.52819635056E+03  0.40055979322E+03 0.  0.
    9000005    1    3    3    0    0  0.54943680497E+02 -0.40982907084E+02  0.22613288937E+03  0.23629534559E+03  0.99999687468E+00 0.  0.
          4    1    3    3  501    0 -0.29106292823E+03 -0.11464090149E+02  0.18898231377E+02  0.29190100497E+03  0.00000000000E+00 0.  1.
   -9000007    1    1    2    0  503  0.23611924773E+03  0.52446997233E+02 -0.51049192462E+03  0.69217410510E+03  0.40000000000E+03 0.  1.
<mgrwt>
<rscale>  2 0.46780232E+03</rscale>
<asrwt>0</asrwt>
<pdfrwt beam="1">  1       21 0.73454589E-01 0.46792215E+03</pdfrwt>
<pdfrwt beam="2">  1       21 0.11429471E+00 0.46792215E+03</pdfrwt>
<totfact> 0.83230718E+02</totfact>
</mgrwt>
</event>
<event>
 6    1  0.8947013E-004  0.4018248E+03  0.7818608E-02  0.1043179E+00
         21   -1    0    0  501  502  0.00000000000E+00  0.00000000000E+00  0.57379356815E+03  0.57379356815E+03  0.00000000000E+00 0. -1.
         21   -1    0    0  502  503 -0.00000000000E+00 -0.00000000000E+00 -0.30686502248E+03  0.30686502248E+03  0.00000000000E+00 0. -1.
    9000007    2    1    2  501    0  0.86091983528E+01  0.37270514021E+02  0.26086706603E+03  0.47878802558E+03  0.39965377239E+03 0.  0.
    9000005    1    3    3    0    0 -0.17995110099E+03  0.40975689061E+02  0.21753266549E+03  0.28527682414E+03  0.99999687468E+00 0.  0.
          4    1    3    3  501    0  0.18856029935E+03 -0.37051750401E+01  0.43334400546E+02  0.19351120144E+03  0.00000000000E+00 0.  1.
   -9000007    1    1    2    0  503 -0.86091983528E+01 -0.37270514021E+02  0.60614796362E+01  0.40187056504E+03  0.40000000000E+03 0. -1.
<mgrwt>
<rscale>  2 0.40173866E+03</rscale>
<asrwt>0</asrwt>
<pdfrwt beam="1">  1       21 0.88275933E-01 0.40182485E+03</pdfrwt>
<pdfrwt beam="2">  1       21 0.47210004E-01 0.40182485E+03</pdfrwt>
<totfact> 0.42028726E+03</totfact>
</mgrwt>
</event>
<event>
 6    1  0.8947013E-004  0.4147827E+03  0.7818608E-02  0.1038791E+00
         21   -1    0    0  501  502  0.00000000000E+00  0.00000000000E+00  0.74217682339E+03  0.74217682339E+03  0.00000000000E+00 0.  1.
         21   -1    0    0  502  503 -0.00000000000E+00 -0.00000000000E+00 -0.32726978660E+03  0.32726978660E+03  0.00000000000E+00 0.  1.
    9000007    2    1    2  501    0  0.10470145820E+03  0.30899026885E+02  0.49640214724E+03  0.64688466395E+03  0.40015938257E+03 0.  0.
    9000005    1    3    3    0    0 -0.13416113129E+03  0.75003938849E+01  0.32579819979E+03  0.35242152607E+03  0.99999687468E+00 0.  0.
          4    1    3    3  501    0  0.23886258949E+03  0.23398633000E+02  0.17060394745E+03  0.29446313788E+03  0.00000000000E+00 0.  1.
   -9000007    1    1    2    0  503 -0.10470145820E+03 -0.30899026885E+02 -0.81495110452E+02  0.42256194604E+03  0.40000000000E+03 0.  1.
<mgrwt>
<rscale>  2 0.41474424E+03</rscale>
<asrwt>0</asrwt>
<pdfrwt beam="1">  1       21 0.11418105E+00 0.41478269E+03</pdfrwt>
<pdfrwt beam="2">  1       21 0.50349198E-01 0.41478269E+03</pdfrwt>
<totfact> 0.19552065E+03</totfact>
</mgrwt>
</event>
<event>
 6    1  0.8947013E-004  0.4294033E+03  0.7818608E-02  0.1034058E+00
         21   -1    0    0  501  502  0.00000000000E+00  0.00000000000E+00  0.25866935108E+03  0.25866935108E+03  0.00000000000E+00 0. -1.
         21   -1    0    0  502  503 -0.00000000000E+00 -0.00000000000E+00 -0.12654727847E+04  0.12654727847E+04  0.00000000000E+00 0. -1.
    9000007    2    1    2  501    0 -0.16002275400E+02  0.15534201806E+03  0.34042424842E+00  0.42927868958E+03  0.39986605513E+03 0.  0.
    9000005    1    3    3    0    0 -0.42384114595E+02  0.27849475278E+03  0.62915521760E+02  0.28864355764E+03  0.99999687468E+00 0.  0.
          4    1    3    3  501    0  0.26381839195E+02 -0.12315273472E+03 -0.62575097512E+02  0.14063513194E+03  0.00000000000E+00 0.  1.
   -9000007    1    1    2    0  503  0.16002275400E+02 -0.15534201806E+03 -0.10071438579E+04  0.10948634462E+04  0.40000000000E+03 0. -1.
<mgrwt>
<rscale>  2 0.42937213E+03</rscale>
<asrwt>0</asrwt>
<pdfrwt beam="1">  1       21 0.39795285E-01 0.42940332E+03</pdfrwt>
<pdfrwt beam="2">  1       21 0.19468812E+00 0.42940332E+03</pdfrwt>
<totfact> 0.74210551E+02</totfact>
</mgrwt>
</event>
<event>
 6    1  0.8947013E-004  0.4661356E+03  0.7818608E-02  0.1023044E+00
         21   -1    0    0  501  502  0.00000000000E+00  0.00000000000E+00  0.76555569510E+03  0.76555569510E+03  0.00000000000E+00 0. -1.
         21   -1    0    0  502  503 -0.00000000000E+00 -0.00000000000E+00 -0.62844163288E+03  0.62844163288E+03  0.00000000000E+00 0. -1.
    9000007    2    1    2  501    0 -0.23841065990E+03  0.21042101663E+02  0.58486266226E+03  0.74765282105E+03  0.39954723666E+03 0.  0.
    9000005    1    3    3    0    0 -0.33485698455E+03 -0.25687894339E+02  0.52950502158E+03  0.62702921454E+03  0.99999687468E+00 0.  0.
          4    1    3    3  501    0  0.96446324650E+02  0.46729996002E+02  0.55357640675E+02  0.12062360650E+03  0.00000000000E+00 0.  1.
   -9000007    1    1    2    0  503  0.23841065990E+03 -0.21042101663E+02 -0.44774860004E+03  0.64634450693E+03  0.40000000000E+03 0. -1.
<mgrwt>
<rscale>  2 0.46603847E+03</rscale>
<asrwt>0</asrwt>
<pdfrwt beam="1">  1       21 0.11777780E+00 0.46613562E+03</pdfrwt>
<pdfrwt beam="2">  1       21 0.96683328E-01 0.46613562E+03</pdfrwt>
<totfact> 0.40628150E+02</totfact>
</mgrwt>
</event>
<event>
 6    1  0.8947013E-004  0.7201453E+03  0.7818608E-02  0.9684201E-01
         21   -1    0    0  501  502  0.00000000000E+00  0.00000000000E+00  0.21554839032E+04  0.21554839032E+04  0.00000000000E+00 0.  1.
         21   -1    0    0  502  503 -0.00000000000E+00 -0.00000000000E+00 -0.38699574175E+03  0.38699574175E+03  0.00000000000E+00 0. -1.
    9000007    2    1    2  501    0  0.29507582222E+02  0.59574338136E+03  0.16686219682E+04  0.18173905949E+04  0.40352004657E+03 0.  0.
    9000005    1    3    3    0    0  0.21168906574E+03  0.24202142856E+03  0.70542571607E+03  0.77525032946E+03  0.99999687468E+00 0.  0.
          4    1    3    3  501    0 -0.18218148352E+03  0.35372195280E+03  0.96319625212E+03  0.10421402655E+04  0.00000000000E+00 0.  1.
   -9000007    1    1    2    0  503 -0.29507582222E+02 -0.59574338136E+03  0.99866193208E+02  0.72508904997E+03  0.40000000000E+03 0. -1.
<mgrwt>
<rscale>  2 0.71965321E+03</rscale>
<asrwt>0</asrwt>
<pdfrwt beam="1">  1       21 0.33161290E+00 0.72014533E+03</pdfrwt>
<pdfrwt beam="2">  1       21 0.59537807E-01 0.72014533E+03</pdfrwt>
<totfact> 0.38419895E+01</totfact>
</mgrwt>
</event>
<event>
 6    1  0.8947013E-004  0.4609864E+03  0.7818608E-02  0.1024534E+00
         21   -1    0    0  501  502  0.00000000000E+00  0.00000000000E+00  0.32967403739E+03  0.32967403739E+03  0.00000000000E+00 0.  1.
         21   -1    0    0  502  503 -0.00000000000E+00 -0.00000000000E+00 -0.91745267118E+03  0.91745267118E+03  0.00000000000E+00 0.  1.
    9000007    2    1    2  501    0  0.12594519596E+03  0.19143213428E+03  0.46748056909E+02  0.46282282892E+03  0.39938845216E+03 0.  0.
    9000005    1    3    3    0    0  0.17656720458E+03  0.24871366564E+03 -0.79524393984E+02  0.31521356957E+03  0.99999687468E+00 0.  0.
          4    1    3    3  501    0 -0.50622008616E+02 -0.57281531358E+02  0.12627245089E+03  0.14760925935E+03  0.00000000000E+00 0.  1.
   -9000007    1    1    2    0  503 -0.12594519596E+03 -0.19143213428E+03 -0.63452669070E+03  0.78430387965E+03  0.40000000000E+03 0.  1.
<mgrwt>
<rscale>  2 0.46085370E+03</rscale>
<asrwt>0</asrwt>
<pdfrwt beam="1">  1       21 0.50719082E-01 0.46098639E+03</pdfrwt>
<pdfrwt beam="2">  1       21 0.14114657E+00 0.46098639E+03</pdfrwt>
<totfact> 0.10933596E+03</totfact>
</mgrwt>
</event>
<event>
 6    1  0.8947013E-004  0.5626332E+03  0.7818608E-02  0.9986149E-01
         21   -1    0    0  501  502  0.00000000000E+00  0.00000000000E+00  0.17960321010E+03  0.17960321010E+03  0.00000000000E+00 0. -1.
         21   -1    0    0  502  503 -0.00000000000E+00 -0.00000000000E+00 -0.23128780461E+04  0.23128780461E+04  0.00000000000E+00 0.  1.
    9000007    2    1    2  501    0 -0.26283815687E+03 -0.29575700856E+03 -0.45857046307E+03  0.72579202447E+03  0.39991385118E+03 0.  0.
    9000005    1    3    3    0    0 -0.19798816274E+03 -0.28695787820E+03 -0.10197507521E+03  0.36324103898E+03  0.99999687468E+00 0.  0.
          4    1    3    3  501    0 -0.64849994128E+02 -0.87991303624E+01 -0.35659538786E+03  0.36255098548E+03  0.00000000000E+00 0.  1.
   -9000007    1    1    2    0  503  0.26283815687E+03  0.29575700856E+03 -0.16747043729E+04  0.17666892317E+04  0.40000000000E+03 0. -1.
<mgrwt>
<rscale>  2 0.56261788E+03</rscale>
<asrwt>0</asrwt>
<pdfrwt beam="1">  1       21 0.27631265E-01 0.56263319E+03</pdfrwt>
<pdfrwt beam="2">  1       21 0.35582736E+00 0.56263319E+03</pdfrwt>
<totfact> 0.14492681E+02</totfact>
</mgrwt>
</event>
<event>
 6    1  0.8947013E-004  0.4045725E+03  0.7818608E-02  0.1042456E+00
         21   -1    0    0  501  502  0.00000000000E+00  0.00000000000E+00  0.17411498337E+04  0.17411498337E+04  0.00000000000E+00 0.  1.
         21   -1    0    0  502  503 -0.00000000000E+00 -0.00000000000E+00 -0.15858267282E+03  0.15858267282E+03  0.00000000000E+00 0.  1.
    9000007    2    1    2  501    0 -0.58501619636E+02 -0.16014735118E+02  0.13988892900E+04  0.14554167725E+04  0.39707407979E+03 0.  0.
    9000005    1    3    3    0    0 -0.13129371329E+03 -0.12246979391E+03  0.12294029604E+04  0.12424449802E+04  0.99999687468E+00 0.  0.
          4    1    3    3  501    0  0.72792093653E+02  0.10645505879E+03  0.16948632955E+03  0.21297179237E+03  0.00000000000E+00 0.  1.
   -9000007    1    1    2    0  503  0.58501619636E+02  0.16014735118E+02  0.18367787093E+03  0.44431573403E+03  0.40000000000E+03 0. -1.
<mgrwt>
<rscale>  2 0.40384740E+03</rscale>
<asrwt>0</asrwt>
<pdfrwt beam="1">  1       21 0.26786919E+00 0.40457250E+03</pdfrwt>
<pdfrwt beam="2">  1       21 0.24397336E-01 0.40457250E+03</pdfrwt>
<totfact> 0.68977516E+02</totfact>
</mgrwt>
</event>
<event>
 6    1  0.8947013E-004  0.5208054E+03  0.7818608E-02  0.1008497E+00
         21   -1    0    0  501  502  0.00000000000E+00  0.00000000000E+00  0.14341152141E+04  0.14341152141E+04  0.00000000000E+00 0.  1.
         21   -1    0    0  502  503 -0.00000000000E+00 -0.00000000000E+00 -0.24258753069E+03  0.24258753069E+03  0.00000000000E+00 0.  1.
    9000007    2    1    2  501    0 -0.33083529443E+03 -0.40149155886E+02  0.98959846751E+03  0.11182769619E+04  0.40021780304E+03 0.  0.
    9000005    1    3    3    0    0 -0.34709710726E+03 -0.24736667447E+02  0.40797012217E+03  0.53621723691E+03  0.99999687468E+00 0.  0.
          4    1    3    3  501    0  0.16261812828E+02 -0.15412488439E+02  0.58162834534E+03  0.58205972499E+03  0.00000000000E+00 0.  1.
   -9000007    1    1    2    0  503  0.33083529443E+03  0.40149155886E+02  0.20192921591E+03  0.55842578289E+03  0.40000000000E+03 0.  1.
<mgrwt>
<rscale>  2 0.52076353E+03</rscale>
<asrwt>0</asrwt>
<pdfrwt beam="1">  1       21 0.22063310E+00 0.52080537E+03</pdfrwt>
<pdfrwt beam="2">  1       21 0.37321159E-01 0.52080537E+03</pdfrwt>
<totfact> 0.54804235E+02</totfact>
</mgrwt>
</event>
<event>
 6    1  0.8947013E-004  0.5519310E+03  0.7818608E-02  0.1001061E+00
         21   -1    0    0  501  502  0.00000000000E+00  0.00000000000E+00  0.24733823509E+04  0.24733823509E+04  0.00000000000E+00 0.  1.
         21   -1    0    0  502  503 -0.00000000000E+00 -0.00000000000E+00 -0.12815870490E+03  0.12815870490E+03  0.00000000000E+00 0. -1.
    9000007    2    1    2  501    0 -0.63571229655E+02  0.37462447000E+03  0.14309284382E+04  0.15336831431E+04  0.40030362642E+03 0.  0.
    9000005    1    3    3    0    0  0.13160133109E+03  0.16541882121E+03  0.29913048761E+03  0.36628178410E+03  0.99999687468E+00 0.  0.
          4    1    3    3  501    0 -0.19517256074E+03  0.20920564879E+03  0.11317979506E+04  0.11674013590E+04  0.00000000000E+00 0.  1.
   -9000007    1    1    2    0  503  0.63571229655E+02 -0.37462447000E+03  0.91429520775E+03  0.10678579127E+04  0.40000000000E+03 0.  1.
<mgrwt>
<rscale>  2 0.55187591E+03</rscale>
<asrwt>0</asrwt>
<pdfrwt beam="1">  1       21 0.38052033E+00 0.55193096E+03</pdfrwt>
<pdfrwt beam="2">  1       21 0.19716726E-01 0.55193096E+03</pdfrwt>
<totfact> 0.19641474E+02</totfact>
</mgrwt>
</event>
<event>
 6    1  0.8947013E-004  0.4041196E+03  0.7818608E-02  0.1042363E+00
         21   -1    0    0  501  502  0.00000000000E+00  0.00000000000E+00  0.64488699193E+03  0.64488699193E+03  0.00000000000E+00 0.  1.
         21   -1    0    0  502  503 -0.00000000000E+00 -0.00000000000E+00 -0.28778993942E+03  0.28778993942E+03  0.00000000000E+00 0.  1.
    9000007    2    1    2  501    0 -0.48746684578E+02 -0.30590844674E+02  0.16973017536E+02  0.40447583498E+03  0.40000072340E+03 0.  0.
    9000005    1    3    3    0    0 -0.10760059498E+03  0.15716768442E+03 -0.49470219275E+02  0.19679398277E+03  0.99999687468E+00 0.  0.
          4    1    3    3  501    0  0.58853910401E+02 -0.18775852910E+03  0.66443236811E+02  0.20768185221E+03  0.00000000000E+00 0.  1.
   -9000007    1    1    2    0  503  0.48746684578E+02  0.30590844674E+02  0.34012403498E+03  0.52820109637E+03  0.40000000000E+03 0.  1.
<mgrwt>
<rscale>  2 0.40411938E+03</rscale>
<asrwt>0</asrwt>
<pdfrwt beam="1">  1       21 0.99213383E-01 0.40411956E+03</pdfrwt>
<pdfrwt beam="2">  1       21 0.44275376E-01 0.40411956E+03</pdfrwt>
<totfact> 0.36364935E+03</totfact>
</mgrwt>
</event>
<event>
 6    1  0.8947013E-004  0.4079536E+03  0.7818608E-02  0.1041108E+00
         21   -1    0    0  501  502  0.00000000000E+00  0.00000000000E+00  0.38100942998E+03  0.38100942998E+03  0.00000000000E+00 0. -1.
         21   -1    0    0  502  503 -0.00000000000E+00 -0.00000000000E+00 -0.59988455262E+03  0.59988455262E+03  0.00000000000E+00 0. -1.
    9000007    2    1    2  501    0  0.17757638710E+02  0.75117772757E+02  0.14670521636E+03  0.43353030297E+03  0.40058468464E+03 0.  0.
    9000005    1    3    3    0    0 -0.88463035995E+01  0.18321540807E+03  0.23022132732E+03  0.29436202606E+03  0.99999687468E+00 0.  0.
          4    1    3    3  501    0  0.26603942310E+02 -0.10809763531E+03 -0.83516110960E+02  0.13916827690E+03  0.00000000000E+00 0.  1.
   -9000007    1    1    2    0  503 -0.17757638710E+02 -0.75117772757E+02 -0.36558033900E+03  0.54736367963E+03  0.40000000000E+03 0. -1.
<mgrwt>
<rscale>  2 0.40780995E+03</rscale>
<asrwt>0</asrwt>
<pdfrwt beam="1">  1       21 0.58616835E-01 0.40795356E+03</pdfrwt>
<pdfrwt beam="2">  1       21 0.92289931E-01 0.40795356E+03</pdfrwt>
<totfact> 0.23754633E+03</totfact>
</mgrwt>
</event>
<event>
 6    1  0.8947013E-004  0.8251395E+03  0.7818608E-02  0.9524381E-01
         21   -1    0    0  501  502  0.00000000000E+00  0.00000000000E+00  0.99067939230E+03  0.99067939230E+03  0.00000000000E+00 0.  1.
         21   -1    0    0  502  503 -0.00000000000E+00 -0.00000000000E+00 -0.74507955027E+03  0.74507955027E+03  0.00000000000E+00 0. -1.
    9000007    2    1    2  501    0  0.48737524055E+03  0.53202732942E+03  0.36485745947E+03  0.90220625457E+03  0.40033418004E+03 0.  0.
    9000005    1    3    3    0    0  0.34567357407E+03  0.12966338895E+03  0.28916470471E+03  0.46895633132E+03  0.99999687468E+00 0.  0.
          4    1    3    3  501    0  0.14170166647E+03  0.40236394047E+03  0.75692754768E+02  0.43324992325E+03  0.00000000000E+00 0.  1.
   -9000007    1    1    2    0  503 -0.48737524055E+03 -0.53202732942E+03 -0.11925761744E+03  0.83355268800E+03  0.40000000000E+03 0. -1.
<mgrwt>
<rscale>  2 0.82509896E+03</rscale>
<asrwt>0</asrwt>
<pdfrwt beam="1">  1       21 0.15241221E+00 0.82513948E+03</pdfrwt>
<pdfrwt beam="2">  1       21 0.11462762E+00 0.82513948E+03</pdfrwt>
<totfact> 0.11864882E+02</totfact>
</mgrwt>
</event>
<event>
 6    1  0.8947013E-004  0.4207266E+03  0.7818608E-02  0.1037029E+00
         21   -1    0    0  501  502  0.00000000000E+00  0.00000000000E+00  0.29768563491E+03  0.29768563491E+03  0.00000000000E+00 0. -1.
         21   -1    0    0  502  503 -0.00000000000E+00 -0.00000000000E+00 -0.10367548170E+04  0.10367548170E+04  0.00000000000E+00 0. -1.
    9000007    2    1    2  501    0 -0.12873318567E+03 -0.20942816099E+02  0.68486755145E+02  0.42385963376E+03  0.39743643374E+03 0.  0.
    9000005    1    3    3    0    0  0.15659842124E+02  0.93492458472E+02  0.18358831460E+03  0.20661979503E+03  0.99999687468E+00 0.  0.
          4    1    3    3  501    0 -0.14439302780E+03 -0.11443527457E+03 -0.11510155946E+03  0.21723983873E+03  0.00000000000E+00 0.  1.
   -9000007    1    1    2    0  503  0.12873318567E+03  0.20942816099E+02 -0.80755593726E+03  0.91058081818E+03  0.40000000000E+03 0.  1.
<mgrwt>
<rscale>  2 0.42011610E+03</rscale>
<asrwt>0</asrwt>
<pdfrwt beam="1">  1       21 0.45797789E-01 0.42072656E+03</pdfrwt>
<pdfrwt beam="2">  1       21 0.15950074E+00 0.42072656E+03</pdfrwt>
<totfact> 0.99047740E+02</totfact>
</mgrwt>
</event>
<event>
 6    1  0.8947013E-004  0.4183605E+03  0.7818608E-02  0.1037606E+00
         21   -1    0    0  501  502  0.00000000000E+00  0.00000000000E+00  0.16368150857E+03  0.16368150857E+03  0.00000000000E+00 0.  1.
         21   -1    0    0  502  503 -0.00000000000E+00 -0.00000000000E+00 -0.10797105587E+04  0.10797105587E+04  0.00000000000E+00 0. -1.
    9000007    2    1    2  501    0 -0.57634589091E+02 -0.10818376560E+03 -0.39654826542E+03  0.57639449705E+03  0.39994326650E+03 0.  0.
    9000005    1    3    3    0    0  0.82804087790E+02 -0.21974479762E+03 -0.18432132647E+03  0.29852913496E+03  0.99999687468E+00 0.  0.
          4    1    3    3  501    0 -0.14043867688E+03  0.11156103202E+03 -0.21222693895E+03  0.27786536208E+03  0.00000000000E+00 0.  1.
   -9000007    1    1    2    0  503  0.57634589091E+02  0.10818376560E+03 -0.51948078467E+03  0.66699757019E+03  0.40000000000E+03 0. -1.
<mgrwt>
<rscale>  2 0.41834690E+03</rscale>
<asrwt>0</asrwt>
<pdfrwt beam="1">  1       21 0.25181771E-01 0.41836046E+03</pdfrwt>
<pdfrwt beam="2">  1       21 0.16610932E+00 0.41836046E+03</pdfrwt>
<totfact> 0.29556450E+03</totfact>
</mgrwt>
</event>
<event>
 6    1  0.8947013E-004  0.6136904E+03  0.7818608E-02  0.9877718E-01
         21   -1    0    0  501  502  0.00000000000E+00  0.00000000000E+00  0.48501135939E+03  0.48501135939E+03  0.00000000000E+00 0. -1.
         21   -1    0    0  502  503 -0.00000000000E+00 -0.00000000000E+00 -0.80992966486E+03  0.80992966486E+03  0.00000000000E+00 0.  1.
    9000007    2    1    2  501    0 -0.46317024752E+03  0.45708260502E+02 -0.29313300946E+02  0.61376686006E+03  0.39904205997E+03 0.  0.
    9000005    1    3    3    0    0 -0.44644433960E+03 -0.17946310740E+02  0.10959918552E+03  0.46005173610E+03  0.99999687468E+00 0.  0.
          4    1    3    3  501    0 -0.16725907921E+02  0.63654571242E+02 -0.13891248646E+03  0.15371512395E+03  0.00000000000E+00 0.  1.
   -9000007    1    1    2    0  503  0.46317024752E+03 -0.45708260502E+02 -0.29560500453E+03  0.68117416420E+03  0.40000000000E+03 0.  1.
<mgrwt>
<rscale>  2 0.61353437E+03</rscale>
<asrwt>0</asrwt>
<pdfrwt beam="1">  1       21 0.74617132E-01 0.61369041E+03</pdfrwt>
<pdfrwt beam="2">  1       21 0.12460456E+00 0.61369041E+03</pdfrwt>
<totfact> 0.61157144E+02</totfact>
</mgrwt>
</event>
<event>
 6    1  0.8947013E-004  0.5645826E+03  0.7818608E-02  0.9982140E-01
         21   -1    0    0  501  502  0.00000000000E+00  0.00000000000E+00  0.25839287304E+04  0.25839287304E+04  0.00000000000E+00 0. -1.
         21   -1    0    0  502  503 -0.00000000000E+00 -0.00000000000E+00 -0.13449692963E+03  0.13449692963E+03  0.00000000000E+00 0.  1.
    9000007    2    1    2  501    0  0.56065230040E+02  0.39447460418E+03  0.83014354961E+03  0.10035355867E+04  0.39898851785E+03 0.  0.
    9000005    1    3    3    0    0 -0.61187348396E+02  0.15887240261E+03  0.67907502864E+03  0.70009158431E+03  0.99999687468E+00 0.  0.
          4    1    3    3  501    0  0.11725257844E+03  0.23560220157E+03  0.15106852098E+03  0.30344400235E+03  0.00000000000E+00 0.  1.
   -9000007    1    1    2    0  503 -0.56065230040E+02 -0.39447460418E+03  0.16192882511E+04  0.17148900733E+04  0.40000000000E+03 0.  1.
<mgrwt>
<rscale>  2 0.56440348E+03</rscale>
<asrwt>0</asrwt>
<pdfrwt beam="1">  1       21 0.39752746E+00 0.56458261E+03</pdfrwt>
<pdfrwt beam="2">  1       21 0.20691837E-01 0.56458261E+03</pdfrwt>
<totfact> 0.13849451E+02</totfact>
</mgrwt>
</event>
<event>
 6    1  0.8947013E-004  0.4041127E+03  0.7818608E-02  0.1042372E+00
         21   -1    0    0  501  502  0.00000000000E+00  0.00000000000E+00  0.12606788687E+04  0.12606788687E+04  0.00000000000E+00 0.  1.
         21   -1    0    0  502  503 -0.00000000000E+00 -0.00000000000E+00 -0.18281637277E+03  0.18281637277E+03  0.00000000000E+00 0.  1.
    9000007    2    1    2  501    0 -0.30100017456E+02  0.49000977058E+02  0.92861759117E+03  0.10127039366E+04  0.39991439796E+03 0.  0.
    9000005    1    3    3    0    0  0.51618975693E+02 -0.34364625896E+01 -0.22657646558E+02  0.56486253797E+02  0.99999687468E+00 0.  0.
          4    1    3    3  501    0 -0.81718993149E+02  0.52437439648E+02  0.95127523773E+03  0.95621768276E+03  0.00000000000E+00 0.  1.
   -9000007    1    1    2    0  503  0.30100017456E+02 -0.49000977058E+02  0.14924490480E+03  0.43079130494E+03  0.40000000000E+03 0.  1.
<mgrwt>
<rscale>  2 0.40409156E+03</rscale>
<asrwt>0</asrwt>
<pdfrwt beam="1">  1       21 0.19395059E+00 0.40411274E+03</pdfrwt>
<pdfrwt beam="2">  1       21 0.28125597E-01 0.40411274E+03</pdfrwt>
<totfact> 0.15268841E+03</totfact>
</mgrwt>
</event>
<event>
 6    1  0.8947013E-004  0.4327891E+03  0.7818608E-02  0.1033002E+00
         21   -1    0    0  501  502  0.00000000000E+00  0.00000000000E+00  0.12921165664E+04  0.12921165664E+04  0.00000000000E+00 0.  1.
         21   -1    0    0  502  503 -0.00000000000E+00 -0.00000000000E+00 -0.15835800848E+03  0.15835800848E+03  0.00000000000E+00 0.  1.
    9000007    2    1    2  501    0 -0.75715975599E+02  0.14687931222E+03  0.77833764257E+03  0.89044737162E+03  0.39972564901E+03 0.  0.
    9000005    1    3    3    0    0 -0.46806287686E+02 -0.94249957768E+02  0.38977737250E+02  0.11222364769E+03  0.99999687468E+00 0.  0.
          4    1    3    3  501    0 -0.28909687913E+02  0.24112926999E+03  0.73935990532E+03  0.77822372393E+03  0.00000000000E+00 0.  1.
   -9000007    1    1    2    0  503  0.75715975599E+02 -0.14687931222E+03  0.35542091535E+03  0.56002720326E+03  0.40000000000E+03 0.  1.
<mgrwt>
<rscale>  2 0.43272574E+03</rscale>
<asrwt>0</asrwt>
<pdfrwt beam="1">  1       21 0.19878716E+00 0.43278914E+03</pdfrwt>
<pdfrwt beam="2">  1       21 0.24362771E-01 0.43278914E+03</pdfrwt>
<totfact> 0.18507140E+03</totfact>
</mgrwt>
</event>
<event>
 6    1  0.8947013E-004  0.4352288E+03  0.7818608E-02  0.1032235E+00
         21   -1    0    0  501  502  0.00000000000E+00  0.00000000000E+00  0.44074059345E+03  0.44074059345E+03  0.00000000000E+00 0. -1.
         21   -1    0    0  502  503 -0.00000000000E+00 -0.00000000000E+00 -0.46868398278E+03  0.46868398278E+03  0.00000000000E+00 0. -1.
    9000007    2    1    2  501    0 -0.50453212762E+02 -0.16346426912E+03  0.11732387925E+03  0.45076492761E+03  0.40019749296E+03 0.  0.
    9000005    1    3    3    0    0 -0.81621632804E+02 -0.20810278105E+03  0.23301588348E+03  0.32290286522E+03  0.99999687468E+00 0.  0.
          4    1    3    3  501    0  0.31168420042E+02  0.44638511934E+02 -0.11569200423E+03  0.12786206239E+03  0.00000000000E+00 0.  1.
   -9000007    1    1    2    0  503  0.50453212762E+02  0.16346426912E+03 -0.14526726858E+03  0.45865964862E+03  0.40000000000E+03 0. -1.
<mgrwt>
<rscale>  2 0.43518342E+03</rscale>
<asrwt>0</asrwt>
<pdfrwt beam="1">  1       21 0.67806245E-01 0.43522882E+03</pdfrwt>
<pdfrwt beam="2">  1       21 0.72105228E-01 0.43522882E+03</pdfrwt>
<totfact> 0.30195673E+03</totfact>
</mgrwt>
</event>
<event>
 6    1  0.8947013E-004  0.6112385E+03  0.7818608E-02  0.9882471E-01
         21   -1    0    0  501  502  0.00000000000E+00  0.00000000000E+00  0.22892713846E+03  0.22892713846E+03  0.00000000000E+00 0. -1.
         21   -1    0    0  502  503 -0.00000000000E+00 -0.00000000000E+00 -0.22336865256E+04  0.22336865256E+04  0.00000000000E+00 0.  1.
    9000007    2    1    2  501    0  0.35516881819E+03 -0.29529847401E+03 -0.16418693921E+04  0.17519553589E+04  0.40033286231E+03 0.  0.
    9000005    1    3    3    0    0  0.40881696231E+03 -0.12327930900E+03 -0.12422831427E+04  0.13136199996E+04  0.99999687468E+00 0.  0.
          4    1    3    3  501    0 -0.53648144124E+02 -0.17201916500E+03 -0.39958624945E+03  0.43833535933E+03  0.00000000000E+00 0.  1.
   -9000007    1    1    2    0  503 -0.35516881819E+03  0.29529847401E+03 -0.36288999498E+03  0.71065830511E+03  0.40000000000E+03 0. -1.
<mgrwt>
<rscale>  2 0.61118398E+03</rscale>
<asrwt>0</asrwt>
<pdfrwt beam="1">  1       21 0.35219561E-01 0.61123848E+03</pdfrwt>
<pdfrwt beam="2">  1       21 0.34364407E+00 0.61123848E+03</pdfrwt>
<totfact> 0.10341669E+02</totfact>
</mgrwt>
</event>
<event>
 6    1  0.8947013E-004  0.4727213E+03  0.7818608E-02  0.1021240E+00
         21   -1    0    0  501  502  0.00000000000E+00  0.00000000000E+00  0.16862752454E+03  0.16862752454E+03  0.00000000000E+00 0.  1.
         21   -1    0    0  502  503 -0.00000000000E+00 -0.00000000000E+00 -0.14910634242E+04  0.14910634242E+04  0.00000000000E+00 0.  1.
    9000007    2    1    2  501    0  0.22979986163E+03  0.10323498655E+03 -0.94005155616E+03  0.10516751389E+04  0.39857023311E+03 0.  0.
    9000005    1    3    3    0    0  0.18405074427E+03 -0.97514150526E+02 -0.22083362646E+03  0.30356576979E+03  0.99999687468E+00 0.  0.
          4    1    3    3  501    0  0.45749117360E+02  0.20074913708E+03 -0.71921792970E+03  0.74810936913E+03  0.00000000000E+00 0.  1.
   -9000007    1    1    2    0  503 -0.22979986163E+03 -0.10323498655E+03 -0.38238434352E+03  0.60801580984E+03  0.40000000000E+03 0.  1.
<mgrwt>
<rscale>  2 0.47241872E+03</rscale>
<asrwt>0</asrwt>
<pdfrwt beam="1">  1       21 0.25942696E-01 0.47272131E+03</pdfrwt>
<pdfrwt beam="2">  1       21 0.22939437E+00 0.47272131E+03</pdfrwt>
<totfact> 0.10188931E+03</totfact>
</mgrwt>
</event>
<event>
 6    1  0.8947013E-004  0.5788190E+03  0.7818608E-02  0.9950424E-01
         21   -1    0    0  501  502  0.00000000000E+00  0.00000000000E+00  0.34316383201E+04  0.34316383201E+04  0.00000000000E+00 0. -1.
         21   -1    0    0  502  503 -0.00000000000E+00 -0.00000000000E+00 -0.12475863962E+03  0.12475863962E+03  0.00000000000E+00 0. -1.
    9000007    2    1    2  501    0 -0.40235910145E+03  0.11462351691E+03  0.24828311838E+04  0.25493779321E+04  0.39980714877E+03 0.  0.
    9000005    1    3    3    0    0 -0.30560799402E+02 -0.34667799239E+02  0.12944666778E+04  0.12952917813E+04  0.99999687468E+00 0.  0.
          4    1    3    3  501    0 -0.37179830204E+03  0.14929131615E+03  0.11883645060E+04  0.12540861508E+04  0.00000000000E+00 0.  1.
   -9000007    1    1    2    0  503  0.40235910145E+03 -0.11462351691E+03  0.82404849672E+03  0.10070190277E+04  0.40000000000E+03 0. -1.
<mgrwt>
<rscale>  2 0.57878565E+03</rscale>
<asrwt>0</asrwt>
<pdfrwt beam="1">  1       21 0.52794429E+00 0.57881897E+03</pdfrwt>
<pdfrwt beam="2">  1       21 0.19193639E-01 0.57881897E+03</pdfrwt>
<totfact> 0.20012960E+01</totfact>
</mgrwt>
</event>
<event>
 6    1  0.8947013E-004  0.4005390E+03  0.7818608E-02  0.1043621E+00
         21   -1    0    0  501  502  0.00000000000E+00  0.00000000000E+00  0.31122025258E+04  0.31122025258E+04  0.00000000000E+00 0. -1.
         21   -1    0    0  502  503 -0.00000000000E+00 -0.00000000000E+00 -0.63562648431E+02  0.63562648431E+02  0.00000000000E+00 0. -1.
    9000007    2    1    2  501    0 -0.12439049005E+02 -0.43421808981E+01  0.22163281392E+04  0.22522304353E+04  0.40032228107E+03 0.  0.
    9000005    1    3    3    0    0 -0.22679416670E+02 -0.17056338324E+03  0.51960921648E+03  0.54735816564E+03  0.99999687468E+00 0.  0.
          4    1    3    3  501    0  0.10240367665E+02  0.16622120235E+03  0.16967189227E+04  0.17048722697E+04  0.00000000000E+00 0.  1.
   -9000007    1    1    2    0  503  0.12439049005E+02  0.43421808981E+01  0.83231173818E+03  0.92353473892E+03  0.40000000000E+03 0. -1.
<mgrwt>
<rscale>  2 0.40045848E+03</rscale>
<asrwt>0</asrwt>
<pdfrwt beam="1">  1       21 0.47880027E+00 0.40053903E+03</pdfrwt>
<pdfrwt beam="2">  1       21 0.97788714E-02 0.40053903E+03</pdfrwt>
<totfact> 0.17604098E+02</totfact>
</mgrwt>
</event>
<event>
 6    1  0.8947013E-004  0.4938667E+03  0.7818608E-02  0.1015399E+00
         21   -1    0    0  501  502  0.00000000000E+00  0.00000000000E+00  0.64577477040E+03  0.64577477040E+03  0.00000000000E+00 0.  1.
         21   -1    0    0  502  503 -0.00000000000E+00 -0.00000000000E+00 -0.38612934941E+03  0.38612934941E+03  0.00000000000E+00 0. -1.
    9000007    2    1    2  501    0 -0.46090055520E+01  0.28945574595E+03  0.20644539746E+03  0.53527939802E+03  0.40012305609E+03 0.  0.
    9000005    1    3    3    0    0 -0.89966088545E+02  0.72571805334E-01  0.21540207265E+03  0.23343726192E+03  0.99999687468E+00 0.  0.
          4    1    3    3  501    0  0.85357082993E+02  0.28938317414E+03 -0.89566751927E+01  0.30184213610E+03  0.00000000000E+00 0.  1.
   -9000007    1    1    2    0  503  0.46090055520E+01 -0.28945574595E+03  0.53200023523E+02  0.49662472179E+03  0.40000000000E+03 0. -1.
<mgrwt>
<rscale>  2 0.49384179E+03</rscale>
<asrwt>0</asrwt>
<pdfrwt beam="1">  1       21 0.99349965E-01 0.49386671E+03</pdfrwt>
<pdfrwt beam="2">  1       21 0.59404515E-01 0.49386671E+03</pdfrwt>
<totfact> 0.18716383E+03</totfact>
</mgrwt>
</event>
<event>
 6    1  0.8947013E-004  0.4950947E+03  0.7818608E-02  0.1015072E+00
         21   -1    0    0  501  502  0.00000000000E+00  0.00000000000E+00  0.78748970333E+03  0.78748970333E+03  0.00000000000E+00 0.  1.
         21   -1    0    0  502  503 -0.00000000000E+00 -0.00000000000E+00 -0.45995955690E+03  0.45995955690E+03  0.00000000000E+00 0.  1.
    9000007    2    1    2  501    0 -0.11222169940E+03 -0.26930469271E+03  0.51844664197E+03  0.71681960068E+03  0.39990585394E+03 0.  0.
    9000005    1    3    3    0    0 -0.14381013947E+03 -0.31410124693E+03  0.21159441825E+03  0.40511004352E+03  0.99999687468E+00 0.  0.
          4    1    3    3  501    0  0.31588440074E+02  0.44796554223E+02  0.30685222373E+03  0.31170955716E+03  0.00000000000E+00 0.  1.
   -9000007    1    1    2    0  503  0.11222169940E+03  0.26930469271E+03 -0.19091649554E+03  0.53062965955E+03  0.40000000000E+03 0.  1.
<mgrwt>
<rscale>  2 0.49507565E+03</rscale>
<asrwt>0</asrwt>
<pdfrwt beam="1">  1       21 0.12115226E+00 0.49509467E+03</pdfrwt>
<pdfrwt beam="2">  1       21 0.70763009E-01 0.49509467E+03</pdfrwt>
<totfact> 0.77331315E+02</totfact>
</mgrwt>
</event>
<event>
 6    1  0.8947013E-004  0.5348908E+03  0.7818608E-02  0.1005066E+00
         21   -1    0    0  501  502  0.00000000000E+00  0.00000000000E+00  0.11396391221E+04  0.11396391221E+04  0.00000000000E+00 0. -1.
         21   -1    0    0  502  503 -0.00000000000E+00 -0.00000000000E+00 -0.25113687323E+03  0.25113687323E+03  0.00000000000E+00 0.  1.
    9000007    2    1    2  501    0  0.32355276752E+03 -0.14636176600E+03  0.42520655047E+03  0.68313833091E+03  0.39971140674E+03 0.  0.
    9000005    1    3    3    0    0  0.74082424761E+02 -0.24301116110E+03  0.28244632909E+03  0.37989414169E+03  0.99999687468E+00 0.  0.
          4    1    3    3  501    0  0.24947034276E+03  0.96649395098E+02  0.14276022137E+03  0.30324418922E+03  0.00000000000E+00 0.  1.
   -9000007    1    1    2    0  503 -0.32355276752E+03  0.14636176600E+03  0.46329569836E+03  0.70763766437E+03  0.40000000000E+03 0. -1.
<mgrwt>
<rscale>  2 0.53483684E+03</rscale>
<asrwt>0</asrwt>
<pdfrwt beam="1">  1       21 0.17532909E+00 0.53489079E+03</pdfrwt>
<pdfrwt beam="2">  1       21 0.38636443E-01 0.53489079E+03</pdfrwt>
<totfact> 0.10285383E+03</totfact>
</mgrwt>
</event>
<event>
 6    1  0.8947013E-004  0.6317991E+03  0.7818608E-02  0.9841598E-01
         21   -1    0    0  501  502  0.00000000000E+00  0.00000000000E+00  0.39783119172E+03  0.39783119172E+03  0.00000000000E+00 0. -1.
         21   -1    0    0  502  503 -0.00000000000E+00 -0.00000000000E+00 -0.12806132064E+04  0.12806132064E+04  0.00000000000E+00 0.  1.
    9000007    2    1    2  501    0  0.12497441404E+03  0.47281232840E+03 -0.50755598915E+02  0.63372526909E+03  0.39982681728E+03 0.  0.
    9000005    1    3    3    0    0  0.96315020000E+02 -0.17509792494E+02  0.78906700545E+02  0.12573958524E+03  0.99999687468E+00 0.  0.
          4    1    3    3  501    0  0.28659394040E+02  0.49032212089E+03 -0.12966229946E+03  0.50798568386E+03  0.00000000000E+00 0.  1.
   -9000007    1    1    2    0  503 -0.12497441404E+03 -0.47281232840E+03 -0.83202641579E+03  0.10447191291E+04  0.40000000000E+03 0.  1.
<mgrwt>
<rscale>  2 0.63177169E+03</rscale>
<asrwt>0</asrwt>
<pdfrwt beam="1">  1       21 0.61204798E-01 0.63179910E+03</pdfrwt>
<pdfrwt beam="2">  1       21 0.19701742E+00 0.63179910E+03</pdfrwt>
<totfact> 0.26256801E+02</totfact>
</mgrwt>
</event>
<event>
 6    1  0.8947013E-004  0.5707328E+03  0.7818608E-02  0.9968846E-01
         21   -1    0    0  501  502  0.00000000000E+00  0.00000000000E+00  0.46109648302E+03  0.46109648302E+03  0.00000000000E+00 0. -1.
         21   -1    0    0  502  503 -0.00000000000E+00 -0.00000000000E+00 -0.17932053809E+04  0.17932053809E+04  0.00000000000E+00 0. -1.
    9000007    2    1    2  501    0 -0.31657566599E+03  0.25596054778E+03 -0.15439147194E+04  0.16455345353E+04  0.39796393297E+03 0.  0.
    9000005    1    3    3    0    0 -0.25391908049E+03  0.19508147881E+03 -0.15221996952E+04  0.15555142541E+04  0.99999687468E+00 0.  0.
          4    1    3    3  501    0 -0.62656585499E+02  0.60879068976E+02 -0.21715024155E+02  0.90020281158E+02  0.00000000000E+00 0.  1.
   -9000007    1    1    2    0  503  0.31657566599E+03 -0.25596054778E+03  0.21180582150E+03  0.60876732857E+03  0.40000000000E+03 0. -1.
<mgrwt>
<rscale>  2 0.57037621E+03</rscale>
<asrwt>0</asrwt>
<pdfrwt beam="1">  1       21 0.70937919E-01 0.57073282E+03</pdfrwt>
<pdfrwt beam="2">  1       21 0.27587776E+00 0.57073282E+03</pdfrwt>
<totfact> 0.60958881E+01</totfact>
</mgrwt>
</event>
<event>
 6    1  0.8947013E-004  0.4837361E+03  0.7818608E-02  0.1018132E+00
         21   -1    0    0  501  502  0.00000000000E+00  0.00000000000E+00  0.74175128615E+03  0.74175128615E+03  0.00000000000E+00 0. -1.
         21   -1    0    0  502  503 -0.00000000000E+00 -0.00000000000E+00 -0.31674052857E+03  0.31674052857E+03  0.00000000000E+00 0. -1.
    9000007    2    1    2  501    0  0.26442595408E+03 -0.61718631790E+02  0.17672931102E+03  0.51500864902E+03  0.40033783794E+03 0.  0.
    9000005    1    3    3    0    0  0.22354148828E+03  0.14032594686E+03  0.15894857769E+03  0.30810358435E+03  0.99999687468E+00 0.  0.
          4    1    3    3  501    0  0.40884465801E+02 -0.20204457865E+03  0.17780733328E+02  0.20690506467E+03  0.00000000000E+00 0.  1.
   -9000007    1    1    2    0  503 -0.26442595408E+03  0.61718631790E+02  0.24828144656E+03  0.54348316571E+03  0.40000000000E+03 0. -1.
<mgrwt>
<rscale>  2 0.48366624E+03</rscale>
<asrwt>0</asrwt>
<pdfrwt beam="1">  1       21 0.11411558E+00 0.48373615E+03</pdfrwt>
<pdfrwt beam="2">  1       21 0.48729312E-01 0.48373615E+03</pdfrwt>
<totfact> 0.20441467E+03</totfact>
</mgrwt>
</event>
<event>
 6    1  0.8947013E-004  0.4165177E+03  0.7818608E-02  0.1038215E+00
         21   -1    0    0  501  502  0.00000000000E+00  0.00000000000E+00  0.43205507300E+03  0.43205507300E+03  0.00000000000E+00 0.  1.
         21   -1    0    0  502  503 -0.00000000000E+00 -0.00000000000E+00 -0.46761359060E+03  0.46761359060E+03  0.00000000000E+00 0. -1.
    9000007    2    1    2  501    0  0.10271386015E+03 -0.53280264157E+02  0.15145684752E+03  0.44319996763E+03  0.40012262000E+03 0.  0.
    9000005    1    3    3    0    0  0.25402021097E+03 -0.66738427426E+02  0.11652548701E+03  0.28733164530E+03  0.99999687468E+00 0.  0.
          4    1    3    3  501    0 -0.15130635082E+03  0.13458163269E+02  0.34931360510E+02  0.15586832233E+03  0.00000000000E+00 0.  1.
   -9000007    1    1    2    0  503 -0.10271386015E+03  0.53280264157E+02 -0.18701536512E+03  0.45646869597E+03  0.40000000000E+03 0. -1.
<mgrwt>
<rscale>  2 0.41648830E+03</rscale>
<asrwt>0</asrwt>
<pdfrwt beam="1">  1       21 0.66470011E-01 0.41651775E+03</pdfrwt>
<pdfrwt beam="2">  1       21 0.71940553E-01 0.41651775E+03</pdfrwt>
<totfact> 0.31951962E+03</totfact>
</mgrwt>
</event>
<event>
 6    1  0.8947013E-004  0.5220315E+03  0.7818608E-02  0.1008204E+00
         21   -1    0    0  501  502  0.00000000000E+00  0.00000000000E+00  0.17952975942E+04  0.17952975942E+04  0.00000000000E+00 0. -1.
         21   -1    0    0  502  503 -0.00000000000E+00 -0.00000000000E+00 -0.23835416952E+03  0.23835416952E+03  0.00000000000E+00 0. -1.
    9000007    2    1    2  501    0 -0.53659221786E+02  0.33111564751E+03  0.13914182425E+04  0.14860063766E+04  0.39956644227E+03 0.  0.
    9000005    1    3    3    0    0 -0.40434034521E+01  0.41863981945E+03  0.10610947437E+04  0.11407009699E+04  0.99999687468E+00 0.  0.
          4    1    3    3  501    0 -0.49615818334E+02 -0.87524171939E+02  0.33032349875E+03  0.34530540675E+03  0.00000000000E+00 0.  1.
   -9000007    1    1    2    0  503  0.53659221786E+02 -0.33111564751E+03  0.16552518227E+03  0.54764538715E+03  0.40000000000E+03 0. -1.
<mgrwt>
<rscale>  2 0.52194844E+03</rscale>
<asrwt>0</asrwt>
<pdfrwt beam="1">  1       21 0.27619962E+00 0.52203150E+03</pdfrwt>
<pdfrwt beam="2">  1       21 0.36669873E-01 0.52203150E+03</pdfrwt>
<totfact> 0.25643490E+02</totfact>
</mgrwt>
</event>
<event>
 6    1  0.8947013E-004  0.4526336E+03  0.7818608E-02  0.1026954E+00
         21   -1    0    0  501  502  0.00000000000E+00  0.00000000000E+00  0.75730600119E+03  0.75730600119E+03  0.00000000000E+00 0. -1.
         21   -1    0    0  502  503 -0.00000000000E+00 -0.00000000000E+00 -0.27308334733E+03  0.27308334733E+03  0.00000000000E+00 0. -1.
    9000007    2    1    2  501    0 -0.20585311336E+03 -0.48185579004E+02  0.29308633083E+03  0.53923718443E+03  0.40022467372E+03 0.  0.
    9000005    1    3    3    0    0 -0.31826142569E+03 -0.47368660320E+02  0.14400091616E+03  0.35252147298E+03  0.99999687468E+00 0.  0.
          4    1    3    3  501    0  0.11240831233E+03 -0.81691868384E+00  0.14908541466E+03  0.18671571145E+03  0.00000000000E+00 0.  1.
   -9000007    1    1    2    0  503  0.20585311336E+03  0.48185579004E+02  0.19113632304E+03  0.49115216409E+03  0.40000000000E+03 0. -1.
<mgrwt>
<rscale>  2 0.45258389E+03</rscale>
<asrwt>0</asrwt>
<pdfrwt beam="1">  1       21 0.11650861E+00 0.45263356E+03</pdfrwt>
<pdfrwt beam="2">  1       21 0.42012823E-01 0.45263356E+03</pdfrwt>
<totfact> 0.26789524E+03</totfact>
</mgrwt>
</event>
<event>
 6    1  0.8947013E-004  0.4121103E+03  0.7818608E-02  0.1039729E+00
         21   -1    0    0  501  502  0.00000000000E+00  0.00000000000E+00  0.96277361214E+03  0.96277361214E+03  0.00000000000E+00 0.  1.
         21   -1    0    0  502  503 -0.00000000000E+00 -0.00000000000E+00 -0.41045779728E+03  0.41045779728E+03  0.00000000000E+00 0.  1.
    9000007    2    1    2  501    0 -0.86273644109E+02  0.48905924841E+02  0.79490029379E+03  0.89502417341E+03  0.39920779398E+03 0.  0.
    9000005    1    3    3    0    0 -0.21110154002E+03  0.56563534711E+02  0.23333811731E+03  0.31970450519E+03  0.99999687468E+00 0.  0.
          4    1    3    3  501    0  0.12482789591E+03 -0.76576098698E+01  0.56156217648E+03  0.57531966822E+03  0.00000000000E+00 0.  1.
   -9000007    1    1    2    0  503  0.86273644109E+02 -0.48905924841E+02 -0.24258447893E+03  0.47820723601E+03  0.40000000000E+03 0.  1.
<mgrwt>
<rscale>  2 0.41191798E+03</rscale>
<asrwt>0</asrwt>
<pdfrwt beam="1">  1       21 0.14811902E+00 0.41211034E+03</pdfrwt>
<pdfrwt beam="2">  1       21 0.63147354E-01 0.41211034E+03</pdfrwt>
<totfact> 0.61051213E+02</totfact>
</mgrwt>
</event>
<event>
 6    1  0.8947013E-004  0.4552534E+03  0.7818608E-02  0.1026188E+00
         21   -1    0    0  501  502  0.00000000000E+00  0.00000000000E+00  0.21084152631E+04  0.21084152631E+04  0.00000000000E+00 0. -1.
         21   -1    0    0  502  503 -0.00000000000E+00 -0.00000000000E+00 -0.12935839595E+03  0.12935839595E+03  0.00000000000E+00 0. -1.
    9000007    2    1    2  501    0  0.16232644037E+03 -0.14458845891E+03  0.15380897788E+04  0.16039695342E+04  0.39967787433E+03 0.  0.
    9000005    1    3    3    0    0  0.29576951899E+03 -0.11564195263E+03  0.11194029836E+04  0.11635792665E+04  0.99999687468E+00 0.  0.
          4    1    3    3  501    0 -0.13344307862E+03 -0.28946506277E+02  0.41868679516E+03  0.44039026772E+03  0.00000000000E+00 0.  1.
   -9000007    1    1    2    0  503 -0.16232644037E+03  0.14458845891E+03  0.44096708835E+03  0.63380412487E+03  0.40000000000E+03 0. -1.
<mgrwt>
<rscale>  2 0.45518267E+03</rscale>
<asrwt>0</asrwt>
<pdfrwt beam="1">  1       21 0.32437155E+00 0.45525344E+03</pdfrwt>
<pdfrwt beam="2">  1       21 0.19901293E-01 0.45525344E+03</pdfrwt>
<totfact> 0.45275268E+02</totfact>
</mgrwt>
</event>
<event>
 6    1  0.8947013E-004  0.4428699E+03  0.7818608E-02  0.1030133E+00
         21   -1    0    0  501  502  0.00000000000E+00  0.00000000000E+00  0.84259834414E+03  0.84259834414E+03  0.00000000000E+00 0.  1.
         21   -1    0    0  502  503 -0.00000000000E+00 -0.00000000000E+00 -0.32786823617E+03  0.32786823617E+03  0.00000000000E+00 0.  1.
    9000007    2    1    2  501    0 -0.14484798403E+03 -0.12309692917E+03  0.57481907378E+03  0.72353876034E+03  0.39617871938E+03 0.  0.
    9000005    1    3    3    0    0  0.32863904530E+02  0.11076790573E+03  0.58478591842E+02  0.12950023497E+03  0.99999687468E+00 0.  0.
          4    1    3    3  501    0 -0.17771188856E+03 -0.23386483490E+03  0.51634048194E+03  0.59403852537E+03  0.00000000000E+00 0.  1.
   -9000007    1    1    2    0  503  0.14484798403E+03  0.12309692917E+03 -0.60088965807E+02  0.44692781997E+03  0.40000000000E+03 0.  1.
<mgrwt>
<rscale>  2 0.44200534E+03</rscale>
<asrwt>0</asrwt>
<pdfrwt beam="1">  1       21 0.12963051E+00 0.44286995E+03</pdfrwt>
<pdfrwt beam="2">  1       21 0.50441267E-01 0.44286995E+03</pdfrwt>
<totfact> 0.13937518E+03</totfact>
</mgrwt>
</event>
<event>
 6    1  0.8947013E-004  0.4134389E+03  0.7818608E-02  0.1039261E+00
         21   -1    0    0  501  502  0.00000000000E+00  0.00000000000E+00  0.60894929418E+03  0.60894929418E+03  0.00000000000E+00 0.  1.
         21   -1    0    0  502  503 -0.00000000000E+00 -0.00000000000E+00 -0.29435251622E+03  0.29435251622E+03  0.00000000000E+00 0. -1.
    9000007    2    1    2  501    0 -0.20393616508E+02  0.10070053799E+03  0.25574363782E+03  0.48614453784E+03  0.40046873216E+03 0.  0.
    9000005    1    3    3    0    0  0.22832624351E+02 -0.15184789950E+03  0.12765995619E+03  0.19969270824E+03  0.99999687468E+00 0.  0.
          4    1    3    3  501    0 -0.43226240859E+02  0.25254843749E+03  0.12808368163E+03  0.28645182960E+03  0.00000000000E+00 0.  1.
   -9000007    1    1    2    0  503  0.20393616508E+02 -0.10070053799E+03  0.58853140141E+02  0.41715727256E+03  0.40000000000E+03 0. -1.
<mgrwt>
<rscale>  2 0.41332533E+03</rscale>
<asrwt>0</asrwt>
<pdfrwt beam="1">  1       21 0.93684507E-01 0.41343888E+03</pdfrwt>
<pdfrwt beam="2">  1       21 0.45285003E-01 0.41343888E+03</pdfrwt>
<totfact> 0.39665411E+03</totfact>
</mgrwt>
</event>
<event>
 6    1  0.8947013E-004  0.5788859E+03  0.7818608E-02  0.9950251E-01
         21   -1    0    0  501  502  0.00000000000E+00  0.00000000000E+00  0.70256119613E+03  0.70256119613E+03  0.00000000000E+00 0.  1.
         21   -1    0    0  502  503 -0.00000000000E+00 -0.00000000000E+00 -0.83927355116E+03  0.83927355116E+03  0.00000000000E+00 0. -1.
    9000007    2    1    2  501    0  0.40889453282E+03 -0.88422525696E+02  0.43819543906E+03  0.72603314535E+03  0.40011948630E+03 0.  0.
    9000005    1    3    3    0    0  0.37490278747E+03  0.86367504315E+01  0.12327420640E+03  0.39474577068E+03  0.99999687468E+00 0.  0.
          4    1    3    3  501    0  0.33991745347E+02 -0.97059276127E+02  0.31492123267E+03  0.33128737467E+03  0.00000000000E+00 0.  1.
   -9000007    1    1    2    0  503 -0.40889453282E+03  0.88422525696E+02 -0.57490779409E+03  0.81580160194E+03  0.40000000000E+03 0. -1.
<mgrwt>
<rscale>  2 0.57886525E+03</rscale>
<asrwt>0</asrwt>
<pdfrwt beam="1">  1       21 0.10808634E+00 0.57888590E+03</pdfrwt>
<pdfrwt beam="2">  1       21 0.12911901E+00 0.57888590E+03</pdfrwt>
<totfact> 0.23288092E+02</totfact>
</mgrwt>
</event>
<event>
 6    1  0.8947013E-004  0.4103060E+03  0.7818608E-02  0.1040327E+00
         21   -1    0    0  501  502  0.00000000000E+00  0.00000000000E+00  0.33285169888E+03  0.33285169888E+03  0.00000000000E+00 0.  1.
         21   -1    0    0  502  503 -0.00000000000E+00 -0.00000000000E+00 -0.81121176750E+03  0.81121176750E+03  0.00000000000E+00 0.  1.
    9000007    2    1    2  501    0  0.86584778445E+02 -0.29224352402E+02  0.11243954572E+03  0.42476160282E+03  0.39928533801E+03 0.  0.
    9000005    1    3    3    0    0 -0.69899262266E+02  0.60521058128E+02 -0.10652606869E+03  0.14105852915E+03  0.99999687468E+00 0.  0.
          4    1    3    3  501    0  0.15648404071E+03 -0.89745410530E+02  0.21896561441E+03  0.28370307366E+03  0.00000000000E+00 0.  1.
   -9000007    1    1    2    0  503 -0.86584778445E+02  0.29224352402E+02 -0.59079961433E+03  0.71930186357E+03  0.40000000000E+03 0.  1.
<mgrwt>
<rscale>  2 0.41013169E+03</rscale>
<asrwt>0</asrwt>
<pdfrwt beam="1">  1       21 0.51207954E-01 0.41030597E+03</pdfrwt>
<pdfrwt beam="2">  1       21 0.12480181E+00 0.41030597E+03</pdfrwt>
<totfact> 0.15090358E+03</totfact>
</mgrwt>
</event>
<event>
 6    1  0.8947013E-004  0.4632418E+03  0.7818608E-02  0.1023846E+00
         21   -1    0    0  501  502  0.00000000000E+00  0.00000000000E+00  0.32145725619E+03  0.32145725619E+03  0.00000000000E+00 0.  1.
         21   -1    0    0  502  503 -0.00000000000E+00 -0.00000000000E+00 -0.66820157480E+03  0.66820157480E+03  0.00000000000E+00 0.  1.
    9000007    2    1    2  501    0 -0.23205482619E+03  0.27268253634E+02 -0.18893273230E+03  0.50027401635E+03  0.39998189220E+03 0.  0.
    9000005    1    3    3    0    0 -0.13976975039E+02  0.13578177997E+03 -0.21565819375E+03  0.25522833724E+03  0.99999687468E+00 0.  0.
          4    1    3    3  501    0 -0.21807785115E+03 -0.10851352634E+03  0.26725461450E+02  0.24504567911E+03  0.00000000000E+00 0.  1.
   -9000007    1    1    2    0  503  0.23205482619E+03 -0.27268253634E+02 -0.15781158631E+03  0.48938481463E+03  0.40000000000E+03 0.  1.
<mgrwt>
<rscale>  2 0.46323793E+03</rscale>
<asrwt>0</asrwt>
<pdfrwt beam="1">  1       21 0.49454963E-01 0.46324184E+03</pdfrwt>
<pdfrwt beam="2">  1       21 0.10280024E+00 0.46324184E+03</pdfrwt>
<totfact> 0.25848203E+03</totfact>
</mgrwt>
</event>
<event>
 6    1  0.8947013E-004  0.4650359E+03  0.7818608E-02  0.1023388E+00
         21   -1    0    0  501  502  0.00000000000E+00  0.00000000000E+00  0.11686601533E+04  0.11686601533E+04  0.00000000000E+00 0.  1.
         21   -1    0    0  502  503 -0.00000000000E+00 -0.00000000000E+00 -0.21595499436E+03  0.21595499436E+03  0.00000000000E+00 0.  1.
    9000007    2    1    2  501    0  0.57701760221E+02  0.22845406223E+03  0.73994054031E+03  0.87393958079E+03  0.40092098472E+03 0.  0.
    9000005    1    3    3    0    0 -0.97567099277E+02 -0.26929947157E+02  0.33080436990E+02  0.10648885491E+03  0.99999687468E+00 0.  0.
          4    1    3    3  501    0  0.15526885950E+03  0.25538400939E+03  0.70686010332E+03  0.76745072588E+03  0.00000000000E+00 0.  1.
   -9000007    1    1    2    0  503 -0.57701760221E+02 -0.22845406223E+03  0.21276461867E+03  0.51067556691E+03  0.40000000000E+03 0.  1.
<mgrwt>
<rscale>  2 0.46483733E+03</rscale>
<asrwt>0</asrwt>
<pdfrwt beam="1">  1       21 0.17979387E+00 0.46503590E+03</pdfrwt>
<pdfrwt beam="2">  1       21 0.33223846E-01 0.46503590E+03</pdfrwt>
<totfact> 0.13351716E+03</totfact>
</mgrwt>
</event>
<event>
 6    1  0.8947013E-004  0.5102635E+03  0.7818608E-02  0.1011370E+00
         21   -1    0    0  501  502  0.00000000000E+00  0.00000000000E+00  0.43940480344E+03  0.43940480344E+03  0.00000000000E+00 0.  1.
         21   -1    0    0  502  503 -0.00000000000E+00 -0.00000000000E+00 -0.78485207038E+03  0.78485207038E+03  0.00000000000E+00 0.  1.
    9000007    2    1    2  501    0 -0.28065215998E+03  0.13359024434E+03  0.13315934946E+03  0.52735208725E+03  0.40466878221E+03 0.  0.
    9000005    1    3    3    0    0 -0.28729121497E+03  0.94312358625E+02  0.25726472538E+03  0.39701032997E+03  0.99999687468E+00 0.  0.
          4    1    3    3  501    0  0.66390549963E+01  0.39277885712E+02 -0.12410537592E+03  0.13034175728E+03  0.00000000000E+00 0.  1.
   -9000007    1    1    2    0  503  0.28065215998E+03 -0.13359024434E+03 -0.47860661640E+03  0.69690478657E+03  0.40000000000E+03 0. -1.
<mgrwt>
<rscale>  2 0.50933730E+03</rscale>
<asrwt>0</asrwt>
<pdfrwt beam="1">  1       21 0.67600740E-01 0.51026347E+03</pdfrwt>
<pdfrwt beam="2">  1       21 0.12074647E+00 0.51026347E+03</pdfrwt>
<totfact> 0.85970035E+02</totfact>
</mgrwt>
</event>
<event>
 6    1  0.8947013E-004  0.4474414E+03  0.7818608E-02  0.1028499E+00
         21   -1    0    0  501  502  0.00000000000E+00  0.00000000000E+00  0.33464866017E+03  0.33464866017E+03  0.00000000000E+00 0. -1.
         21   -1    0    0  502  503 -0.00000000000E+00 -0.00000000000E+00 -0.64074878791E+03  0.64074878791E+03  0.00000000000E+00 0. -1.
    9000007    2    1    2  501    0  0.16956008940E+03 -0.10701964802E+03 -0.27132391960E+02  0.44811495588E+03  0.39983373796E+03 0.  0.
    9000005    1    3    3    0    0 -0.14943862198E+02 -0.18590320537E+03 -0.12534193681E+03  0.22471075163E+03  0.99999687468E+00 0.  0.
          4    1    3    3  501    0  0.18450395160E+03  0.78883557349E+02  0.98209544845E+02  0.22340420425E+03  0.00000000000E+00 0.  1.
   -9000007    1    1    2    0  503 -0.16956008940E+03  0.10701964802E+03 -0.27896773577E+03  0.52728249220E+03  0.40000000000E+03 0. -1.
<mgrwt>
<rscale>  2 0.44740426E+03</rscale>
<asrwt>0</asrwt>
<pdfrwt beam="1">  1       21 0.51484409E-01 0.44744143E+03</pdfrwt>
<pdfrwt beam="2">  1       21 0.98576737E-01 0.44744143E+03</pdfrwt>
<totfact> 0.26429744E+03</totfact>
</mgrwt>
</event>
<event>
 6    1  0.8947013E-004  0.5159559E+03  0.7818608E-02  0.1009714E+00
         21   -1    0    0  501  502  0.00000000000E+00  0.00000000000E+00  0.39428797815E+03  0.39428797815E+03  0.00000000000E+00 0.  1.
         21   -1    0    0  502  503 -0.00000000000E+00 -0.00000000000E+00 -0.19479960477E+04  0.19479960477E+04  0.00000000000E+00 0.  1.
    9000007    2    1    2  501    0  0.18803689211E+03 -0.26618148538E+03  0.17002904387E+03  0.54298413641E+03  0.39963913807E+03 0.  0.
    9000005    1    3    3    0    0 -0.65370080107E+02 -0.15511923588E+03 -0.64512847725E+02  0.18027238344E+03  0.99999687468E+00 0.  0.
          4    1    3    3  501    0  0.25340697222E+03 -0.11106224950E+03  0.23454189159E+03  0.36271175297E+03  0.00000000000E+00 0.  1.
   -9000007    1    1    2    0  503 -0.18803689211E+03  0.26618148538E+03 -0.17237371134E+04  0.17992998894E+04  0.40000000000E+03 0.  1.
<mgrwt>
<rscale>  2 0.51588592E+03</rscale>
<asrwt>0</asrwt>
<pdfrwt beam="1">  1       21 0.60659688E-01 0.51595587E+03</pdfrwt>
<pdfrwt beam="2">  1       21 0.29969170E+00 0.51595587E+03</pdfrwt>
<totfact> 0.63849587E+01</totfact>
</mgrwt>
</event>
<event>
 6    1  0.8947013E-004  0.5002425E+03  0.7818608E-02  0.1013725E+00
         21   -1    0    0  501  502  0.00000000000E+00  0.00000000000E+00  0.32892123468E+03  0.32892123468E+03  0.00000000000E+00 0. -1.
         21   -1    0    0  502  503 -0.00000000000E+00 -0.00000000000E+00 -0.76593508165E+03  0.76593508165E+03  0.00000000000E+00 0. -1.
    9000007    2    1    2  501    0 -0.27062068397E+03 -0.12986972896E+03 -0.26429514019E+03  0.56576893908E+03  0.40017604901E+03 0.  0.
    9000005    1    3    3    0    0 -0.12616579129E+02  0.55646026804E+00  0.99944740777E+02  0.10074442376E+03  0.99999687468E+00 0.  0.
          4    1    3    3  501    0 -0.25800410484E+03 -0.13042618923E+03 -0.36423988097E+03  0.46502451532E+03  0.00000000000E+00 0.  1.
   -9000007    1    1    2    0  503  0.27062068397E+03  0.12986972896E+03 -0.17271870677E+03  0.52908737725E+03  0.40000000000E+03 0.  1.
<mgrwt>
<rscale>  2 0.50020730E+03</rscale>
<asrwt>0</asrwt>
<pdfrwt beam="1">  1       21 0.50603267E-01 0.50024251E+03</pdfrwt>
<pdfrwt beam="2">  1       21 0.11783617E+00 0.50024251E+03</pdfrwt>
<totfact> 0.17302666E+03</totfact>
</mgrwt>
</event>
<event>
 6    1  0.8947013E-004  0.4497267E+03  0.7818608E-02  0.1027804E+00
         21   -1    0    0  501  502  0.00000000000E+00  0.00000000000E+00  0.64952171710E+03  0.64952171710E+03  0.00000000000E+00 0. -1.
         21   -1    0    0  502  503 -0.00000000000E+00 -0.00000000000E+00 -0.59221219658E+03  0.59221219658E+03  0.00000000000E+00 0.  1.
    9000007    2    1    2  501    0 -0.20484315209E+03 -0.17128143847E+02  0.45619555156E+03  0.64059819188E+03  0.39999696486E+03 0.  0.
    9000005    1    3    3    0    0 -0.26704368403E+03 -0.48600274544E+02  0.49224330432E+03  0.56211990403E+03  0.99999687468E+00 0.  0.
          4    1    3    3  501    0  0.62200531938E+02  0.31472130697E+02 -0.36047752760E+02  0.78478287844E+02  0.00000000000E+00 0.  1.
   -9000007    1    1    2    0  503  0.20484315209E+03  0.17128143847E+02 -0.39888603104E+03  0.60113572180E+03  0.40000000000E+03 0.  1.
<mgrwt>
<rscale>  2 0.44972601E+03</rscale>
<asrwt>0</asrwt>
<pdfrwt beam="1">  1       21 0.99926418E-01 0.44972668E+03</pdfrwt>
<pdfrwt beam="2">  1       21 0.91109568E-01 0.44972668E+03</pdfrwt>
<totfact> 0.70861060E+02</totfact>
</mgrwt>
</event>
<event>
 6    1  0.8947013E-004  0.4365688E+03  0.7818608E-02  0.1031903E+00
         21   -1    0    0  501  502  0.00000000000E+00  0.00000000000E+00  0.26525769936E+03  0.26525769936E+03  0.00000000000E+00 0. -1.
         21   -1    0    0  502  503 -0.00000000000E+00 -0.00000000000E+00 -0.74398115801E+03  0.74398115801E+03  0.00000000000E+00 0. -1.
    9000007    2    1    2  501    0  0.80392375978E+02 -0.15533621679E+03 -0.14193679534E+03  0.45786100967E+03  0.39862059147E+03 0.  0.
    9000005    1    3    3    0    0  0.37267625012E+02  0.50333024868E+00  0.13342355910E+03  0.13853510505E+03  0.99999687468E+00 0.  0.
          4    1    3    3  501    0  0.43124750966E+02 -0.15583954704E+03 -0.27536035444E+03  0.31932590462E+03  0.00000000000E+00 0.  1.
   -9000007    1    1    2    0  503 -0.80392375978E+02  0.15533621679E+03 -0.33678666331E+03  0.55137784771E+03  0.40000000000E+03 0. -1.
<mgrwt>
<rscale>  2 0.43625253E+03</rscale>
<asrwt>0</asrwt>
<pdfrwt beam="1">  1       21 0.40808876E-01 0.43656875E+03</pdfrwt>
<pdfrwt beam="2">  1       21 0.11445864E+00 0.43656875E+03</pdfrwt>
<totfact> 0.29920611E+03</totfact>
</mgrwt>
</event>
<event>
 6    1  0.8947013E-004  0.4737181E+03  0.7818608E-02  0.1021018E+00
         21   -1    0    0  501  502  0.00000000000E+00  0.00000000000E+00  0.11968167924E+04  0.11968167924E+04  0.00000000000E+00 0. -1.
         21   -1    0    0  502  503 -0.00000000000E+00 -0.00000000000E+00 -0.47641698598E+03  0.47641698598E+03  0.00000000000E+00 0.  1.
    9000007    2    1    2  501    0  0.62202884674E+02 -0.24604804621E+03  0.10123042863E+04  0.11168013339E+04  0.39758824357E+03 0.  0.
    9000005    1    3    3    0    0  0.48773411291E+02 -0.34932601121E+03  0.88253056767E+03  0.95040449842E+03  0.99999687468E+00 0.  0.
          4    1    3    3  501    0  0.13429473383E+02  0.10327796499E+03  0.12977371862E+03  0.16639683547E+03  0.00000000000E+00 0.  1.
   -9000007    1    1    2    0  503 -0.62202884674E+02  0.24604804621E+03 -0.29190447988E+03  0.55643244449E+03  0.40000000000E+03 0.  1.
<mgrwt>
<rscale>  2 0.47320861E+03</rscale>
<asrwt>0</asrwt>
<pdfrwt beam="1">  1       21 0.18412566E+00 0.47371810E+03</pdfrwt>
<pdfrwt beam="2">  1       21 0.73294921E-01 0.47371810E+03</pdfrwt>
<totfact> 0.22965837E+02</totfact>
</mgrwt>
</event>
<event>
 6    1  0.8947013E-004  0.6306887E+03  0.7818608E-02  0.9843997E-01
         21   -1    0    0  501  502  0.00000000000E+00  0.00000000000E+00  0.18020482106E+04  0.18020482106E+04  0.00000000000E+00 0.  1.
         21   -1    0    0  502  503 -0.00000000000E+00 -0.00000000000E+00 -0.64582957977E+03  0.64582957977E+03  0.00000000000E+00 0.  1.
    9000007    2    1    2  501    0  0.46478476804E+03  0.14487790722E+03  0.15714386003E+04  0.16932771598E+04  0.40094111362E+03 0.  0.
    9000005    1    3    3    0    0 -0.20946016623E+02  0.81747630381E+02  0.57622621769E+02  0.10218990762E+03  0.99999687468E+00 0.  0.
          4    1    3    3  501    0  0.48573078467E+03  0.63130276844E+02  0.15138159786E+04  0.15910872521E+04  0.00000000000E+00 0.  1.
   -9000007    1    1    2    0  503 -0.46478476804E+03 -0.14487790722E+03 -0.41521996951E+03  0.75460063059E+03  0.40000000000E+03 0.  1.
<mgrwt>
<rscale>  2 0.63053920E+03</rscale>
<asrwt>0</asrwt>
<pdfrwt beam="1">  1       21 0.27723818E+00 0.63068872E+03</pdfrwt>
<pdfrwt beam="2">  1       21 0.99358397E-01 0.63068872E+03</pdfrwt>
<totfact> 0.26294354E+01</totfact>
</mgrwt>
</event>
<event>
 6    1  0.8947013E-004  0.7852047E+03  0.7818608E-02  0.9582644E-01
         21   -1    0    0  501  502  0.00000000000E+00  0.00000000000E+00  0.10133501579E+04  0.10133501579E+04  0.00000000000E+00 0. -1.
         21   -1    0    0  502  503 -0.00000000000E+00 -0.00000000000E+00 -0.72592806916E+03  0.72592806916E+03  0.00000000000E+00 0. -1.
    9000007    2    1    2  501    0 -0.31209405056E+03 -0.59928605033E+03  0.49636497309E+03  0.92674909199E+03  0.39489141099E+03 0.  0.
    9000005    1    3    3    0    0 -0.33542138466E+03 -0.32349284404E+03  0.44675768148E+03  0.64556064889E+03  0.99999687468E+00 0.  0.
          4    1    3    3  501    0  0.23327334105E+02 -0.27579320629E+03  0.49607291610E+02  0.28118844310E+03  0.00000000000E+00 0.  1.
   -9000007    1    1    2    0  503  0.31209405056E+03  0.59928605033E+03 -0.20894288430E+03  0.81252913512E+03  0.40000000000E+03 0. -1.
<mgrwt>
<rscale>  2 0.78455641E+03</rscale>
<asrwt>0</asrwt>
<pdfrwt beam="1">  1       21 0.15590002E+00 0.78520473E+03</pdfrwt>
<pdfrwt beam="2">  1       21 0.11168124E+00 0.78520473E+03</pdfrwt>
<totfact> 0.12034810E+02</totfact>
</mgrwt>
</event>
<event>
 6    1  0.8947013E-004  0.4171731E+03  0.7818608E-02  0.1038002E+00
         21   -1    0    0  501  502  0.00000000000E+00  0.00000000000E+00  0.10133198125E+04  0.10133198125E+04  0.00000000000E+00 0.  1.
         21   -1    0    0  502  503 -0.00000000000E+00 -0.00000000000E+00 -0.19037202330E+03  0.19037202330E+03  0.00000000000E+00 0.  1.
    9000007    2    1    2  501    0  0.29932599017E+02 -0.11410720083E+03  0.22298988036E+03  0.47303055577E+03  0.40014623100E+03 0.  0.
    9000005    1    3    3    0    0 -0.14068105973E+03 -0.17914591014E+03  0.16565489173E+03  0.28165042310E+03  0.99999687468E+00 0.  0.
          4    1    3    3  501    0  0.17061365875E+03  0.65038709307E+02  0.57334988632E+02  0.19138013267E+03  0.00000000000E+00 0.  1.
   -9000007    1    1    2    0  503 -0.29932599017E+02  0.11410720083E+03  0.59995790887E+03  0.73066128006E+03  0.40000000000E+03 0. -1.
<mgrwt>
<rscale>  2 0.41713806E+03</rscale>
<asrwt>0</asrwt>
<pdfrwt beam="1">  1       21 0.15589535E+00 0.41717313E+03</pdfrwt>
<pdfrwt beam="2">  1       21 0.29288004E-01 0.41717313E+03</pdfrwt>
<totfact> 0.26240431E+03</totfact>
</mgrwt>
</event>
<event>
 6    1  0.8947013E-004  0.1281095E+04  0.7818608E-02  0.9044730E-01
         21   -1    0    0  501  502  0.00000000000E+00  0.00000000000E+00  0.72705941298E+03  0.72705941298E+03  0.00000000000E+00 0.  1.
         21   -1    0    0  502  503 -0.00000000000E+00 -0.00000000000E+00 -0.25998608698E+04  0.25998608698E+04  0.00000000000E+00 0.  1.
    9000007    2    1    2  501    0 -0.11521422825E+04  0.39213923174E+03 -0.33225657352E+03  0.13233026661E+04  0.39941269296E+03 0.  0.
    9000005    1    3    3    0    0 -0.11228879235E+03  0.18617737703E+03 -0.20656171710E+02  0.21839978487E+03  0.99999687468E+00 0.  0.
          4    1    3    3  501    0 -0.10398534902E+04  0.20596185471E+03 -0.31160040181E+03  0.11049028813E+04  0.00000000000E+00 0.  1.
   -9000007    1    1    2    0  503  0.11521422825E+04 -0.39213923174E+03 -0.15405448833E+04  0.20036176167E+04  0.40000000000E+03 0.  1.
<mgrwt>
<rscale>  2 0.12810494E+04</rscale>
<asrwt>0</asrwt>
<pdfrwt beam="1">  1       21 0.11185529E+00 0.12810952E+04</pdfrwt>
<pdfrwt beam="2">  1       21 0.39997859E+00 0.12810952E+04</pdfrwt>
<totfact> 0.26197945E+00</totfact>
</mgrwt>
</event>
<event>
 6    1  0.8947013E-004  0.4032118E+03  0.7818608E-02  0.1042684E+00
         21   -1    0    0  501  502  0.00000000000E+00  0.00000000000E+00  0.24873107986E+03  0.24873107986E+03  0.00000000000E+00 0. -1.
         21   -1    0    0  502  503 -0.00000000000E+00 -0.00000000000E+00 -0.71475690087E+03  0.71475690087E+03  0.00000000000E+00 0. -1.
    9000007    2    1    2  501    0 -0.45948490529E+02 -0.19134590456E+02 -0.91935853961E+02  0.41356007656E+03  0.40012790374E+03 0.  0.
    9000005    1    3    3    0    0  0.49888096700E+02 -0.16653294620E+03 -0.14874258805E+03  0.22879554597E+03  0.99999687468E+00 0.  0.
          4    1    3    3  501    0 -0.95836587229E+02  0.14739835574E+03  0.56806734093E+02  0.18476453059E+03  0.00000000000E+00 0.  1.
   -9000007    1    1    2    0  503  0.45948490529E+02  0.19134590456E+02 -0.37408996705E+03  0.54992790417E+03  0.40000000000E+03 0. -1.
<mgrwt>
<rscale>  2 0.40318004E+03</rscale>
<asrwt>0</asrwt>
<pdfrwt beam="1">  1       21 0.38266320E-01 0.40321178E+03</pdfrwt>
<pdfrwt beam="2">  1       21 0.10996260E+00 0.40321178E+03</pdfrwt>
<totfact> 0.38205086E+03</totfact>
</mgrwt>
</event>
<event>
 6    1  0.8947013E-004  0.5969003E+03  0.7818608E-02  0.9911881E-01
         21   -1    0    0  501  502  0.00000000000E+00  0.00000000000E+00  0.17641077319E+03  0.17641077319E+03  0.00000000000E+00 0. -1.
         21   -1    0    0  502  503 -0.00000000000E+00 -0.00000000000E+00 -0.20547419094E+04  0.20547419094E+04  0.00000000000E+00 0.  1.
    9000007    2    1    2  501    0 -0.24041544321E+01 -0.44303966649E+03 -0.79305071948E+03  0.99255528674E+03  0.39993327884E+03 0.  0.
    9000005    1    3    3    0    0  0.13201427519E+03 -0.41863055273E+03 -0.47696877590E+03  0.64821255905E+03  0.99999687468E+00 0.  0.
          4    1    3    3  501    0 -0.13441842962E+03 -0.24409113761E+02 -0.31608194358E+03  0.34434272769E+03  0.00000000000E+00 0.  1.
   -9000007    1    1    2    0  503  0.24041544321E+01  0.44303966649E+03 -0.10852804167E+04  0.12385973958E+04  0.40000000000E+03 0. -1.
<mgrwt>
<rscale>  2 0.59688909E+03</rscale>
<asrwt>0</asrwt>
<pdfrwt beam="1">  1       21 0.27140121E-01 0.59690026E+03</pdfrwt>
<pdfrwt beam="2">  1       21 0.31611412E+00 0.59690026E+03</pdfrwt>
<totfact> 0.25910398E+02</totfact>
</mgrwt>
</event>
<event>
 6    1  0.8947013E-004  0.4631910E+03  0.7818608E-02  0.1023900E+00
         21   -1    0    0  501  502  0.00000000000E+00  0.00000000000E+00  0.30501270894E+03  0.30501270894E+03  0.00000000000E+00 0. -1.
         21   -1    0    0  502  503 -0.00000000000E+00 -0.00000000000E+00 -0.70322188111E+03  0.70322188111E+03  0.00000000000E+00 0. -1.
    9000007    2    1    2  501    0 -0.20992556561E+03  0.99768629225E+02 -0.21490534359E+03  0.51061745203E+03  0.40065365734E+03 0.  0.
    9000005    1    3    3    0    0 -0.32568112396E+03  0.11535887098E+03 -0.14672416666E+03  0.37537294081E+03  0.99999687468E+00 0.  0.
          4    1    3    3  501    0  0.11575555835E+03 -0.15590241758E+02 -0.68181176933E+02  0.13524451122E+03  0.00000000000E+00 0.  1.
   -9000007    1    1    2    0  503  0.20992556561E+03 -0.99768629225E+02 -0.18330382858E+03  0.49761713802E+03  0.40000000000E+03 0. -1.
<mgrwt>
<rscale>  2 0.46304958E+03</rscale>
<asrwt>0</asrwt>
<pdfrwt beam="1">  1       21 0.46925032E-01 0.46319097E+03</pdfrwt>
<pdfrwt beam="2">  1       21 0.10818798E+00 0.46319097E+03</pdfrwt>
<totfact> 0.25470114E+03</totfact>
</mgrwt>
</event>
<event>
 6    1  0.8947013E-004  0.4229716E+03  0.7818608E-02  0.1036167E+00
         21   -1    0    0  501  502  0.00000000000E+00  0.00000000000E+00  0.10539336469E+03  0.10539336469E+03  0.00000000000E+00 0. -1.
         21   -1    0    0  502  503 -0.00000000000E+00 -0.00000000000E+00 -0.21651371551E+04  0.21651371551E+04  0.00000000000E+00 0. -1.
    9000007    2    1    2  501    0 -0.41374793233E+01 -0.13497761776E+03 -0.50123213703E+03  0.65584954519E+03  0.40083524634E+03 0.  0.
    9000005    1    3    3    0    0  0.38191481436E+02  0.11410172909E+03 -0.34588667050E+02  0.12520051804E+03  0.99999687468E+00 0.  0.
          4    1    3    3  501    0 -0.42328960760E+02 -0.24907934685E+03 -0.46664346998E+03  0.53064902715E+03  0.00000000000E+00 0.  1.
   -9000007    1    1    2    0  503  0.41374793233E+01  0.13497761776E+03 -0.15585116534E+04  0.16146809746E+04  0.40000000000E+03 0. -1.
<mgrwt>
<rscale>  2 0.42277359E+03</rscale>
<asrwt>0</asrwt>
<pdfrwt beam="1">  1       21 0.16214364E-01 0.42297160E+03</pdfrwt>
<pdfrwt beam="2">  1       21 0.33309801E+00 0.42297160E+03</pdfrwt>
<totfact> 0.60123370E+02</totfact>
</mgrwt>
</event>
<event>
 6    1  0.8947013E-004  0.4247339E+03  0.7818608E-02  0.1035538E+00
         21   -1    0    0  501  502  0.00000000000E+00  0.00000000000E+00  0.45888225461E+03  0.45888225461E+03  0.00000000000E+00 0.  1.
         21   -1    0    0  502  503 -0.00000000000E+00 -0.00000000000E+00 -0.13994408861E+04  0.13994408861E+04  0.00000000000E+00 0. -1.
    9000007    2    1    2  501    0  0.10490093592E+03 -0.96854471000E+02  0.31764155539E+03  0.53037257493E+03  0.40001739415E+03 0.  0.
    9000005    1    3    3    0    0  0.13760969313E+03  0.12964505477E+03  0.97057332723E+02  0.21252151349E+03  0.99999687468E+00 0.  0.
          4    1    3    3  501    0 -0.32708757204E+02 -0.22649952577E+03  0.22058422266E+03  0.31785106144E+03  0.00000000000E+00 0.  1.
   -9000007    1    1    2    0  503 -0.10490093592E+03  0.96854471000E+02 -0.12582001869E+04  0.13279505658E+04  0.40000000000E+03 0. -1.
<mgrwt>
<rscale>  2 0.42472983E+03</rscale>
<asrwt>0</asrwt>
<pdfrwt beam="1">  1       21 0.70597271E-01 0.42473393E+03</pdfrwt>
<pdfrwt beam="2">  1       21 0.21529859E+00 0.42473393E+03</pdfrwt>
<totfact> 0.15890708E+02</totfact>
</mgrwt>
</event>
<event>
 6    1  0.8947013E-004  0.4256687E+03  0.7818608E-02  0.1035617E+00
         21   -1    0    0  501  502  0.00000000000E+00  0.00000000000E+00  0.74619392137E+03  0.74619392137E+03  0.00000000000E+00 0. -1.
         21   -1    0    0  502  503 -0.00000000000E+00 -0.00000000000E+00 -0.39317420969E+03  0.39317420969E+03  0.00000000000E+00 0.  1.
    9000007    2    1    2  501    0  0.67810069636E+02 -0.12882414835E+03  0.53131982716E+03  0.67786537059E+03  0.39497700587E+03 0.  0.
    9000005    1    3    3    0    0 -0.52255328671E+02  0.10994793914E+03  0.30233852436E+03  0.32592752569E+03  0.99999687468E+00 0.  0.
          4    1    3    3  501    0  0.12006539831E+03 -0.23877208750E+03  0.22898130280E+03  0.35193784490E+03  0.00000000000E+00 0.  1.
   -9000007    1    1    2    0  503 -0.67810069636E+02  0.12882414835E+03 -0.17830011549E+03  0.46150276047E+03  0.40000000000E+03 0.  1.
<mgrwt>
<rscale>  2 0.42448465E+03</rscale>
<asrwt>0</asrwt>
<pdfrwt beam="1">  1       21 0.11479906E+00 0.42566873E+03</pdfrwt>
<pdfrwt beam="2">  1       21 0.60488340E-01 0.42566873E+03</pdfrwt>
<totfact> 0.12925469E+03</totfact>
</mgrwt>
</event>
<event>
 6    1  0.8947013E-004  0.4001421E+03  0.7818608E-02  0.1043750E+00
         21   -1    0    0  501  502  0.00000000000E+00  0.00000000000E+00  0.26320141451E+03  0.26320141451E+03  0.00000000000E+00 0.  1.
         21   -1    0    0  502  503 -0.00000000000E+00 -0.00000000000E+00 -0.10527366564E+04  0.10527366564E+04  0.00000000000E+00 0.  1.
    9000007    2    1    2  501    0  0.89367294057E+01  0.58149656579E+01  0.32954634711E+02  0.40127787386E+03  0.39978024606E+03 0.  0.
    9000005    1    3    3    0    0 -0.92205875413E+02 -0.15850114322E+03  0.83990414868E+02  0.20169265145E+03  0.99999687468E+00 0.  0.
          4    1    3    3  501    0  0.10114260482E+03  0.16431610888E+03 -0.51035780158E+02  0.19958522241E+03  0.00000000000E+00 0.  1.
   -9000007    1    1    2    0  503 -0.89367294057E+01 -0.58149656579E+01 -0.82248987660E+03  0.91466019705E+03  0.40000000000E+03 0.  1.
<mgrwt>
<rscale>  2 0.40008714E+03</rscale>
<asrwt>0</asrwt>
<pdfrwt beam="1">  1       21 0.40492525E-01 0.40014207E+03</pdfrwt>
<pdfrwt beam="2">  1       21 0.16195949E+00 0.40014207E+03</pdfrwt>
<totfact> 0.12379794E+03</totfact>
</mgrwt>
</event>
<event>
 6    1  0.8947013E-004  0.4427919E+03  0.7818608E-02  0.1029917E+00
         21   -1    0    0  501  502  0.00000000000E+00  0.00000000000E+00  0.49999729792E+03  0.49999729792E+03  0.00000000000E+00 0.  1.
         21   -1    0    0  502  503 -0.00000000000E+00 -0.00000000000E+00 -0.70716038632E+03  0.70716038632E+03  0.00000000000E+00 0.  1.
    9000007    2    1    2  501    0 -0.98568357352E+02  0.16148642146E+03  0.29942833082E+03  0.53452966563E+03  0.40033867257E+03 0.  0.
    9000005    1    3    3    0    0 -0.19686014362E+03 -0.60783713976E+01  0.27569285503E+03  0.33881914505E+03  0.99999687468E+00 0.  0.
          4    1    3    3  501    0  0.98291786271E+02  0.16756479286E+03  0.23735475793E+02  0.19571052058E+03  0.00000000000E+00 0.  1.
   -9000007    1    1    2    0  503  0.98568357352E+02 -0.16148642146E+03 -0.50659141923E+03  0.67262801861E+03  0.40000000000E+03 0.  1.
<mgrwt>
<rscale>  2 0.44271530E+03</rscale>
<asrwt>0</asrwt>
<pdfrwt beam="1">  1       21 0.76922661E-01 0.44279187E+03</pdfrwt>
<pdfrwt beam="2">  1       21 0.10879391E+00 0.44279187E+03</pdfrwt>
<totfact> 0.85591106E+02</totfact>
</mgrwt>
</event>
<event>
 6    1  0.8947013E-004  0.4321404E+03  0.7818608E-02  0.1033213E+00
         21   -1    0    0  501  502  0.00000000000E+00  0.00000000000E+00  0.59630861390E+03  0.59630861390E+03  0.00000000000E+00 0. -1.
         21   -1    0    0  502  503 -0.00000000000E+00 -0.00000000000E+00 -0.31418233376E+03  0.31418233376E+03  0.00000000000E+00 0. -1.
    9000007    2    1    2  501    0  0.27472185208E+02  0.16121611898E+03  0.16982931650E+03  0.46399798465E+03  0.39963330071E+03 0.  0.
    9000005    1    3    3    0    0 -0.95500236713E+02  0.15205827090E+03 -0.71272832283E+02  0.19319117365E+03  0.99999687468E+00 0.  0.
          4    1    3    3  501    0  0.12297242192E+03  0.91578480773E+01  0.24110214878E+03  0.27080681100E+03  0.00000000000E+00 0.  1.
   -9000007    1    1    2    0  503 -0.27472185208E+02 -0.16121611898E+03  0.11229696364E+03  0.44649296301E+03  0.40000000000E+03 0. -1.
<mgrwt>
<rscale>  2 0.43205556E+03</rscale>
<asrwt>0</asrwt>
<pdfrwt beam="1">  1       21 0.91739786E-01 0.43214044E+03</pdfrwt>
<pdfrwt beam="2">  1       21 0.48335744E-01 0.43214044E+03</pdfrwt>
<totfact> 0.36104263E+03</totfact>
</mgrwt>
</event>
<event>
 6    1  0.8947013E-004  0.4356085E+03  0.7818608E-02  0.1032121E+00
         21   -1    0    0  501  502  0.00000000000E+00  0.00000000000E+00  0.11169096772E+03  0.11169096772E+03  0.00000000000E+00 0.  1.
         21   -1    0    0  502  503 -0.00000000000E+00 -0.00000000000E+00 -0.22547458905E+04  0.22547458905E+04  0.00000000000E+00 0.  1.
    9000007    2    1    2  501    0 -0.98876060017E+01 -0.17162463338E+03 -0.48379831057E+03  0.65101117208E+03  0.40025237204E+03 0.  0.
    9000005    1    3    3    0    0  0.73774785431E+02 -0.81573695891E+02 -0.51301173440E+03  0.52467039792E+03  0.99999687468E+00 0.  0.
          4    1    3    3  501    0 -0.83662391433E+02 -0.90050937494E+02  0.29213423827E+02  0.12634077416E+03  0.00000000000E+00 0.  1.
   -9000007    1    1    2    0  503  0.98876060017E+01  0.17162463338E+03 -0.16592566122E+04  0.17154256862E+04  0.40000000000E+03 0.  1.
<mgrwt>
<rscale>  2 0.43555049E+03</rscale>
<asrwt>0</asrwt>
<pdfrwt beam="1">  1       21 0.17183225E-01 0.43560847E+03</pdfrwt>
<pdfrwt beam="2">  1       21 0.34688399E+00 0.43560847E+03</pdfrwt>
<totfact> 0.44119710E+02</totfact>
</mgrwt>
</event>
<event>
 6    1  0.8947013E-004  0.4008308E+03  0.7818608E-02  0.1043498E+00
         21   -1    0    0  501  502  0.00000000000E+00  0.00000000000E+00  0.20241389942E+04  0.20241389942E+04  0.00000000000E+00 0.  1.
         21   -1    0    0  502  503 -0.00000000000E+00 -0.00000000000E+00 -0.79659953857E+02  0.79659953857E+02  0.00000000000E+00 0.  1.
    9000007    2    1    2  501    0  0.21667828544E+02  0.11807322041E+02  0.10367956310E+04  0.11115801822E+04  0.40007051057E+03 0.  0.
    9000005    1    3    3    0    0  0.16783425061E+03  0.11596978957E+03  0.38733303527E+03  0.43777300965E+03  0.99999687468E+00 0.  0.
          4    1    3    3  501    0 -0.14616642207E+03 -0.10416246753E+03  0.64946259569E+03  0.67380717255E+03  0.00000000000E+00 0.  1.
   -9000007    1    1    2    0  503 -0.21667828544E+02 -0.11807322041E+02  0.90768340935E+03  0.99221876582E+03  0.40000000000E+03 0. -1.
<mgrwt>
<rscale>  2 0.40081319E+03</rscale>
<asrwt>0</asrwt>
<pdfrwt beam="1">  1       21 0.31140596E+00 0.40083079E+03</pdfrwt>
<pdfrwt beam="2">  1       21 0.12255379E-01 0.40083079E+03</pdfrwt>
<totfact> 0.13789639E+03</totfact>
</mgrwt>
</event>
<event>
 6    1  0.8947013E-004  0.4217634E+03  0.7818608E-02  0.1036538E+00
         21   -1    0    0  501  502  0.00000000000E+00  0.00000000000E+00  0.88472925029E+03  0.88472925029E+03  0.00000000000E+00 0. -1.
         21   -1    0    0  502  503 -0.00000000000E+00 -0.00000000000E+00 -0.31713549522E+03  0.31713549522E+03  0.00000000000E+00 0.  1.
    9000007    2    1    2  501    0 -0.13355743645E+03  0.68380575579E+01  0.64764609457E+03  0.77257146006E+03  0.39942064196E+03 0.  0.
    9000005    1    3    3    0    0  0.59172408137E+02 -0.12158292890E+03  0.44413628277E+03  0.46426481684E+03  0.99999687468E+00 0.  0.
          4    1    3    3  501    0 -0.19272984459E+03  0.12842098646E+03  0.20350981180E+03  0.30830664323E+03  0.00000000000E+00 0.  1.
   -9000007    1    1    2    0  503  0.13355743645E+03 -0.68380575579E+01 -0.80052339501E+02  0.42929328544E+03  0.40000000000E+03 0.  1.
<mgrwt>
<rscale>  2 0.42162596E+03</rscale>
<asrwt>0</asrwt>
<pdfrwt beam="1">  1       21 0.13611219E+00 0.42176338E+03</pdfrwt>
<pdfrwt beam="2">  1       21 0.48790076E-01 0.42176338E+03</pdfrwt>
<totfact> 0.13291029E+03</totfact>
</mgrwt>
</event>
<event>
 6    1  0.8947013E-004  0.8063723E+03  0.7818608E-02  0.9551421E-01
         21   -1    0    0  501  502  0.00000000000E+00  0.00000000000E+00  0.55993020895E+03  0.55993020895E+03  0.00000000000E+00 0. -1.
         21   -1    0    0  502  503 -0.00000000000E+00 -0.00000000000E+00 -0.14101698509E+04  0.14101698509E+04  0.00000000000E+00 0.  1.
    9000007    2    1    2  501    0  0.22433000806E+03 -0.66128471434E+03 -0.97011451178E+01  0.80643069502E+03  0.40325541251E+03 0.  0.
    9000005    1    3    3    0    0  0.14715648127E+03 -0.41460321561E+03 -0.20216622933E+03  0.48417253191E+03  0.99999687468E+00 0.  0.
          4    1    3    3  501    0  0.77173526791E+02 -0.24668149873E+03  0.19246508421E+03  0.32225816311E+03  0.00000000000E+00 0.  1.
   -9000007    1    1    2    0  503 -0.22433000806E+03  0.66128471434E+03 -0.84053849679E+03  0.11636693648E+04  0.40000000000E+03 0.  1.
<mgrwt>
<rscale>  2 0.80596627E+03</rscale>
<asrwt>0</asrwt>
<pdfrwt beam="1">  1       21 0.86143110E-01 0.80637234E+03</pdfrwt>
<pdfrwt beam="2">  1       21 0.21694921E+00 0.80637234E+03</pdfrwt>
<totfact> 0.83215609E+01</totfact>
</mgrwt>
</event>
<event>
 6    1  0.8947013E-004  0.4199773E+03  0.7818608E-02  0.1037088E+00
         21   -1    0    0  501  502  0.00000000000E+00  0.00000000000E+00  0.15108445376E+04  0.15108445376E+04  0.00000000000E+00 0.  1.
         21   -1    0    0  502  503 -0.00000000000E+00 -0.00000000000E+00 -0.12817572709E+03  0.12817572709E+03  0.00000000000E+00 0.  1.
    9000007    2    1    2  501    0 -0.34204859688E+02 -0.12333265574E+03  0.93646964453E+03  0.10262604324E+04  0.39981766283E+03 0.  0.
    9000005    1    3    3    0    0 -0.12785179089E+03 -0.19374839573E+03  0.30117926993E+03  0.38025580063E+03  0.99999687468E+00 0.  0.
          4    1    3    3  501    0  0.93646931207E+02  0.70415739988E+02  0.63529037460E+03  0.64600463174E+03  0.00000000000E+00 0.  1.
   -9000007    1    1    2    0  503  0.34204859688E+02  0.12333265574E+03  0.44619916603E+03  0.61275983237E+03  0.40000000000E+03 0.  1.
<mgrwt>
<rscale>  2 0.41993386E+03</rscale>
<asrwt>0</asrwt>
<pdfrwt beam="1">  1       21 0.23243761E+00 0.41997728E+03</pdfrwt>
<pdfrwt beam="2">  1       21 0.19719344E-01 0.41997728E+03</pdfrwt>
<totfact> 0.16955395E+03</totfact>
</mgrwt>
</event>
<event>
 6    1  0.8947013E-004  0.4172413E+03  0.7818608E-02  0.1038003E+00
         21   -1    0    0  501  502  0.00000000000E+00  0.00000000000E+00  0.54087774618E+03  0.54087774618E+03  0.00000000000E+00 0.  1.
         21   -1    0    0  502  503 -0.00000000000E+00 -0.00000000000E+00 -0.52500601446E+03  0.52500601446E+03  0.00000000000E+00 0.  1.
    9000007    2    1    2  501    0 -0.11869566845E+03  0.12949468266E+01  0.33971086130E+03  0.53771511291E+03  0.39955442029E+03 0.  0.
    9000005    1    3    3    0    0 -0.26742608781E+03  0.13986524538E+00  0.20374634345E+03  0.33619979843E+03  0.99999687468E+00 0.  0.
          4    1    3    3  501    0  0.14873041936E+03  0.11550815812E+01  0.13596451785E+03  0.20151531448E+03  0.00000000000E+00 0.  1.
   -9000007    1    1    2    0  503  0.11869566845E+03 -0.12949468266E+01 -0.32383912958E+03  0.52816864773E+03  0.40000000000E+03 0.  1.
<mgrwt>
<rscale>  2 0.41713452E+03</rscale>
<asrwt>0</asrwt>
<pdfrwt beam="1">  1       21 0.83211961E-01 0.41724134E+03</pdfrwt>
<pdfrwt beam="2">  1       21 0.80770156E-01 0.41724134E+03</pdfrwt>
<totfact> 0.14711124E+03</totfact>
</mgrwt>
</event>
<event>
 6    1  0.8947013E-004  0.5108782E+03  0.7818608E-02  0.1011008E+00
         21   -1    0    0  501  502  0.00000000000E+00  0.00000000000E+00  0.13276890664E+04  0.13276890664E+04  0.00000000000E+00 0.  1.
         21   -1    0    0  502  503 -0.00000000000E+00 -0.00000000000E+00 -0.21381496184E+03  0.21381496184E+03  0.00000000000E+00 0.  1.
    9000007    2    1    2  501    0 -0.30161541493E+03  0.97691282574E+02  0.77715018380E+03  0.93003167072E+03  0.40060086764E+03 0.  0.
    9000005    1    3    3    0    0 -0.16192849952E+03 -0.10532086412E+03  0.11808534344E+03  0.22640333855E+03  0.99999687468E+00 0.  0.
          4    1    3    3  501    0 -0.13968691540E+03  0.20301214669E+03  0.65906484036E+03  0.70362833217E+03  0.00000000000E+00 0.  1.
   -9000007    1    1    2    0  503  0.30161541493E+03 -0.97691282574E+02  0.33672392081E+03  0.61147235756E+03  0.40000000000E+03 0.  1.
<mgrwt>
<rscale>  2 0.51076037E+03</rscale>
<asrwt>0</asrwt>
<pdfrwt beam="1">  1       21 0.20425985E+00 0.51087817E+03</pdfrwt>
<pdfrwt beam="2">  1       21 0.32894610E-01 0.51087817E+03</pdfrwt>
<totfact> 0.90946646E+02</totfact>
</mgrwt>
</event>
<event>
 6    1  0.8947013E-004  0.5637216E+03  0.7818608E-02  0.9983771E-01
         21   -1    0    0  501  502  0.00000000000E+00  0.00000000000E+00  0.23896477535E+03  0.23896477535E+03  0.00000000000E+00 0.  1.
         21   -1    0    0  502  503 -0.00000000000E+00 -0.00000000000E+00 -0.14172443528E+04  0.14172443528E+04  0.00000000000E+00 0.  1.
    9000007    2    1    2  501    0  0.22094091340E+03  0.32979186379E+03 -0.79539582125E+03  0.97490337342E+03  0.40025556138E+03 0.  0.
    9000005    1    3    3    0    0 -0.10309194862E+03  0.13500909536E+03 -0.36135367814E+03  0.39929047872E+03  0.99999687468E+00 0.  0.
          4    1    3    3  501    0  0.32403286203E+03  0.19478276843E+03 -0.43404214311E+03  0.57561289470E+03  0.00000000000E+00 0.  1.
   -9000007    1    1    2    0  503 -0.22094091340E+03 -0.32979186379E+03 -0.38288375618E+03  0.68130575470E+03  0.40000000000E+03 0.  1.
<mgrwt>
<rscale>  2 0.56367627E+03</rscale>
<asrwt>0</asrwt>
<pdfrwt beam="1">  1       21 0.36763812E-01 0.56372163E+03</pdfrwt>
<pdfrwt beam="2">  1       21 0.21803759E+00 0.56372163E+03</pdfrwt>
<totfact> 0.57721575E+02</totfact>
</mgrwt>
</event>
<event>
 6    1  0.8947013E-004  0.4355058E+03  0.7818608E-02  0.1032144E+00
         21   -1    0    0  501  502  0.00000000000E+00  0.00000000000E+00  0.22400732346E+04  0.22400732346E+04  0.00000000000E+00 0.  1.
         21   -1    0    0  502  503 -0.00000000000E+00 -0.00000000000E+00 -0.23829518007E+03  0.23829518007E+03  0.00000000000E+00 0. -1.
    9000007    2    1    2  501    0  0.17103368949E+03  0.17477677352E+02  0.19959880962E+04  0.20429473359E+04  0.40013415876E+03 0.  0.
    9000005    1    3    3    0    0 -0.80566901750E+02  0.79190567343E+02  0.21176833725E+03  0.24001874982E+03  0.99999687468E+00 0.  0.
          4    1    3    3  501    0  0.25160059124E+03 -0.61712889991E+02  0.17842197590E+04  0.18029285861E+04  0.00000000000E+00 0.  1.
   -9000007    1    1    2    0  503 -0.17103368949E+03 -0.17477677352E+02  0.57899582527E+01  0.43542107868E+03  0.40000000000E+03 0. -1.
<mgrwt>
<rscale>  2 0.43547502E+03</rscale>
<asrwt>0</asrwt>
<pdfrwt beam="1">  1       21 0.34462664E+00 0.43550584E+03</pdfrwt>
<pdfrwt beam="2">  1       21 0.36660799E-01 0.43550584E+03</pdfrwt>
<totfact> 0.10400947E+02</totfact>
</mgrwt>
</event>
<event>
 6    1  0.8947013E-004  0.4160567E+03  0.7818608E-02  0.1038429E+00
         21   -1    0    0  501  502  0.00000000000E+00  0.00000000000E+00  0.69184078893E+03  0.69184078893E+03  0.00000000000E+00 0. -1.
         21   -1    0    0  502  503 -0.00000000000E+00 -0.00000000000E+00 -0.28575536271E+03  0.28575536271E+03  0.00000000000E+00 0. -1.
    9000007    2    1    2  501    0  0.72245659769E+02  0.88790363620E+02  0.37651667080E+03  0.56049007961E+03  0.39910044089E+03 0.  0.
    9000005    1    3    3    0    0 -0.13923066104E+03  0.12883446060E+03  0.23876917008E+03  0.30495116296E+03  0.99999687468E+00 0.  0.
          4    1    3    3  501    0  0.21147632081E+03 -0.40044096980E+02  0.13774750072E+03  0.25553891665E+03  0.00000000000E+00 0.  1.
   -9000007    1    1    2    0  503 -0.72245659769E+02 -0.88790363620E+02  0.29568755414E+02  0.41710607203E+03  0.40000000000E+03 0. -1.
<mgrwt>
<rscale>  2 0.41584032E+03</rscale>
<asrwt>0</asrwt>
<pdfrwt beam="1">  1       21 0.10643704E+00 0.41605668E+03</pdfrwt>
<pdfrwt beam="2">  1       21 0.43962364E-01 0.41605668E+03</pdfrwt>
<totfact> 0.30939575E+03</totfact>
</mgrwt>
</event>
<event>
 6    1  0.8947013E-004  0.4435690E+03  0.7818608E-02  0.1029695E+00
         21   -1    0    0  501  502  0.00000000000E+00  0.00000000000E+00  0.17723011620E+03  0.17723011620E+03  0.00000000000E+00 0.  1.
         21   -1    0    0  502  503 -0.00000000000E+00 -0.00000000000E+00 -0.23873219696E+04  0.23873219696E+04  0.00000000000E+00 0.  1.
    9000007    2    1    2  501    0 -0.11503154272E+03  0.15336634971E+03 -0.16642692187E+03  0.47330369179E+03  0.39945584399E+03 0.  0.
    9000005    1    3    3    0    0 -0.60576283044E+02 -0.13345781343E+03 -0.88198405555E+02  0.17105681153E+03  0.99999687468E+00 0.  0.
          4    1    3    3  501    0 -0.54455259672E+02  0.28682416314E+03 -0.78228516315E+02  0.30224688027E+03  0.00000000000E+00 0.  1.
   -9000007    1    1    2    0  503  0.11503154272E+03 -0.15336634971E+03 -0.20436649315E+04  0.20912483940E+04  0.40000000000E+03 0.  1.
<mgrwt>
<rscale>  2 0.44344633E+03</rscale>
<asrwt>0</asrwt>
<pdfrwt beam="1">  1       21 0.27266173E-01 0.44356904E+03</pdfrwt>
<pdfrwt beam="2">  1       21 0.36728029E+00 0.44356904E+03</pdfrwt>
<totfact> 0.13555469E+02</totfact>
</mgrwt>
</event>
<event>
 6    1  0.8947013E-004  0.4049742E+03  0.7818608E-02  0.1042182E+00
         21   -1    0    0  501  502  0.00000000000E+00  0.00000000000E+00  0.67809082240E+03  0.67809082240E+03  0.00000000000E+00 0.  1.
         21   -1    0    0  502  503 -0.00000000000E+00 -0.00000000000E+00 -0.26181177721E+03  0.26181177721E+03  0.00000000000E+00 0.  1.
    9000007    2    1    2  501    0  0.36194864765E+02  0.51904310901E+02  0.34006603947E+03  0.52781941873E+03  0.39867819336E+03 0.  0.
    9000005    1    3    3    0    0 -0.65015195891E+02  0.15753768892E+02 -0.74159485621E+02  0.99878857785E+02  0.99999687468E+00 0.  0.
          4    1    3    3  501    0  0.10121006066E+03  0.36150542008E+02  0.41422552509E+03  0.42794056095E+03  0.00000000000E+00 0.  1.
   -9000007    1    1    2    0  503 -0.36194864765E+02 -0.51904310901E+02  0.76213005720E+02  0.41208318088E+03  0.40000000000E+03 0.  1.
<mgrwt>
<rscale>  2 0.40464745E+03</rscale>
<asrwt>0</asrwt>
<pdfrwt beam="1">  1       21 0.10432166E+00 0.40497423E+03</pdfrwt>
<pdfrwt beam="2">  1       21 0.40278735E-01 0.40497423E+03</pdfrwt>
<totfact> 0.39130372E+03</totfact>
</mgrwt>
</event>
<event>
 6    1  0.8947013E-004  0.4799123E+03  0.7818608E-02  0.1019173E+00
         21   -1    0    0  501  502  0.00000000000E+00  0.00000000000E+00  0.36391396679E+03  0.36391396679E+03  0.00000000000E+00 0.  1.
         21   -1    0    0  502  503 -0.00000000000E+00 -0.00000000000E+00 -0.70408008478E+03  0.70408008478E+03  0.00000000000E+00 0.  1.
    9000007    2    1    2  501    0 -0.86056989838E+02  0.25081860836E+03  0.66302882095E-01  0.47971360823E+03  0.39976163113E+03 0.  0.
    9000005    1    3    3    0    0  0.12815092570E+03 -0.13987426687E+02  0.44167211146E+02  0.13627197216E+03  0.99999687468E+00 0.  0.
          4    1    3    3  501    0 -0.21420791554E+03  0.26480603505E+03 -0.44100908264E+02  0.34344163607E+03  0.00000000000E+00 0.  1.
   -9000007    1    1    2    0  503  0.86056989838E+02 -0.25081860836E+03 -0.34023242087E+03  0.58828044334E+03  0.40000000000E+03 0.  1.
<mgrwt>
<rscale>  2 0.47986259E+03</rscale>
<asrwt>0</asrwt>
<pdfrwt beam="1">  1       21 0.55986765E-01 0.47991226E+03</pdfrwt>
<pdfrwt beam="2">  1       21 0.10832001E+00 0.47991226E+03</pdfrwt>
<totfact> 0.17305015E+03</totfact>
</mgrwt>
</event>
<event>
 6    1  0.8947013E-004  0.4702902E+03  0.7818608E-02  0.1021876E+00
         21   -1    0    0  501  502  0.00000000000E+00  0.00000000000E+00  0.10930317657E+04  0.10930317657E+04  0.00000000000E+00 0.  1.
         21   -1    0    0  502  503 -0.00000000000E+00 -0.00000000000E+00 -0.33826078910E+03  0.33826078910E+03  0.00000000000E+00 0.  1.
    9000007    2    1    2  501    0  0.56776258516E+02 -0.23967066722E+03  0.83153303598E+03  0.95531147742E+03  0.40063356914E+03 0.  0.
    9000005    1    3    3    0    0  0.63000174425E+02 -0.16024193976E+03  0.64061332201E+02  0.18371541991E+03  0.99999687468E+00 0.  0.
          4    1    3    3  501    0 -0.62239159085E+01 -0.79428727458E+02  0.76747170378E+03  0.77159605751E+03  0.00000000000E+00 0.  1.
   -9000007    1    1    2    0  503 -0.56776258516E+02  0.23967066722E+03 -0.76762059379E+02  0.47598107737E+03  0.40000000000E+03 0.  1.
<mgrwt>
<rscale>  2 0.47015519E+03</rscale>
<asrwt>0</asrwt>
<pdfrwt beam="1">  1       21 0.16815873E+00 0.47029015E+03</pdfrwt>
<pdfrwt beam="2">  1       21 0.52040122E-01 0.47029015E+03</pdfrwt>
<totfact> 0.63683575E+02</totfact>
</mgrwt>
</event>
<event>
 6    1  0.8947013E-004  0.4675330E+03  0.7818608E-02  0.1022648E+00
         21   -1    0    0  501  502  0.00000000000E+00  0.00000000000E+00  0.89787934703E+03  0.89787934703E+03  0.00000000000E+00 0. -1.
         21   -1    0    0  502  503 -0.00000000000E+00 -0.00000000000E+00 -0.25117190215E+03  0.25117190215E+03  0.00000000000E+00 0. -1.
    9000007    2    1    2  501    0  0.24031533944E+03 -0.28906902941E+02  0.42532949299E+03  0.63175513573E+03  0.39952759919E+03 0.  0.
    9000005    1    3    3    0    0 -0.78164190558E+02  0.59901832012E+02  0.22389215335E+03  0.24459469841E+03  0.99999687468E+00 0.  0.
          4    1    3    3  501    0  0.31847952999E+03 -0.88808734953E+02  0.20143733964E+03  0.38716043732E+03  0.00000000000E+00 0.  1.
   -9000007    1    1    2    0  503 -0.24031533944E+03  0.28906902941E+02  0.22137795189E+03  0.51729611345E+03  0.40000000000E+03 0.  1.
<mgrwt>
<rscale>  2 0.46743190E+03</rscale>
<asrwt>0</asrwt>
<pdfrwt beam="1">  1       21 0.13813528E+00 0.46753296E+03</pdfrwt>
<pdfrwt beam="2">  1       21 0.38641832E-01 0.46753296E+03</pdfrwt>
<totfact> 0.20400729E+03</totfact>
</mgrwt>
</event>
<event>
 6    1  0.8947013E-004  0.8366670E+03  0.7818608E-02  0.9509375E-01
         21   -1    0    0  501  502  0.00000000000E+00  0.00000000000E+00  0.14718239309E+04  0.14718239309E+04  0.00000000000E+00 0. -1.
         21   -1    0    0  502  503 -0.00000000000E+00 -0.00000000000E+00 -0.47602331731E+03  0.47602331731E+03  0.00000000000E+00 0. -1.
    9000007    2    1    2  501    0 -0.43014808584E+03 -0.59580556670E+03  0.56043038502E+03  0.10046829544E+04  0.39407356349E+03 0.  0.
    9000005    1    3    3    0    0  0.22539270055E+02 -0.13966219268E+03 -0.14737519353E+02  0.14223832546E+03  0.99999687468E+00 0.  0.
          4    1    3    3  501    0 -0.45268735590E+03 -0.45614337402E+03  0.57516790437E+03  0.86244462899E+03  0.00000000000E+00 0.  1.
   -9000007    1    1    2    0  503  0.43014808584E+03  0.59580556670E+03  0.43537022852E+03  0.94316429372E+03  0.40000000000E+03 0. -1.
<mgrwt>
<rscale>  2 0.83596182E+03</rscale>
<asrwt>0</asrwt>
<pdfrwt beam="1">  1       21 0.22643445E+00 0.83666699E+03</pdfrwt>
<pdfrwt beam="2">  1       21 0.73234357E-01 0.83666699E+03</pdfrwt>
<totfact> 0.10450422E+02</totfact>
</mgrwt>
</event>
<event>
 6    1  0.8947013E-004  0.4306319E+03  0.7818608E-02  0.1033676E+00
         21   -1    0    0  501  502  0.00000000000E+00  0.00000000000E+00  0.12877198771E+04  0.12877198771E+04  0.00000000000E+00 0.  1.
         21   -1    0    0  502  503 -0.00000000000E+00 -0.00000000000E+00 -0.16017757088E+03  0.16017757088E+03  0.00000000000E+00 0. -1.
    9000007    2    1    2  501    0 -0.10382008312E+03 -0.12039306337E+03  0.33341208781E+03  0.54461681432E+03  0.40021338656E+03 0.  0.
    9000005    1    3    3    0    0  0.64339234813E+02  0.67429741427E+02 -0.33843708060E+02  0.99159990592E+02  0.99999687468E+00 0.  0.
          4    1    3    3  501    0 -0.16815931793E+03 -0.18782280479E+03  0.36725579587E+03  0.44545682373E+03  0.00000000000E+00 0.  1.
   -9000007    1    1    2    0  503  0.10382008312E+03  0.12039306337E+03  0.79413021843E+03  0.90328063368E+03  0.40000000000E+03 0.  1.
<mgrwt>
<rscale>  2 0.43058234E+03</rscale>
<asrwt>0</asrwt>
<pdfrwt beam="1">  1       21 0.19811074E+00 0.43063192E+03</pdfrwt>
<pdfrwt beam="2">  1       21 0.24642704E-01 0.43063192E+03</pdfrwt>
<totfact> 0.18308555E+03</totfact>
</mgrwt>
</event>
<event>
 6    1  0.8947013E-004  0.4123544E+03  0.7818608E-02  0.1039763E+00
         21   -1    0    0  501  502  0.00000000000E+00  0.00000000000E+00  0.34400510846E+03  0.34400510846E+03  0.00000000000E+00 0.  1.
         21   -1    0    0  502  503 -0.00000000000E+00 -0.00000000000E+00 -0.64232093180E+03  0.64232093180E+03  0.00000000000E+00 0.  1.
    9000007    2    1    2  501    0  0.81556282826E+02 -0.58178395012E+02  0.89940444164E+02  0.41995241608E+03  0.39778712317E+03 0.  0.
    9000005    1    3    3    0    0  0.67046266510E+02  0.11232412253E+03 -0.99731999150E+02  0.16449736169E+03  0.99999687468E+00 0.  0.
          4    1    3    3  501    0  0.14510016316E+02 -0.17050251754E+03  0.18967244331E+03  0.25545505439E+03  0.00000000000E+00 0.  1.
   -9000007    1    1    2    0  503 -0.81556282826E+02  0.58178395012E+02 -0.38825626750E+03  0.56637362418E+03  0.40000000000E+03 0.  1.
<mgrwt>
<rscale>  2 0.41181680E+03</rscale>
<asrwt>0</asrwt>
<pdfrwt beam="1">  1       21 0.52923863E-01 0.41235440E+03</pdfrwt>
<pdfrwt beam="2">  1       21 0.98818605E-01 0.41235440E+03</pdfrwt>
<totfact> 0.25102459E+03</totfact>
</mgrwt>
</event>
<event>
 6    1  0.8947013E-004  0.4402620E+03  0.7818608E-02  0.1030926E+00
         21   -1    0    0  501  502  0.00000000000E+00  0.00000000000E+00  0.76243916182E+03  0.76243916182E+03  0.00000000000E+00 0. -1.
         21   -1    0    0  502  503 -0.00000000000E+00 -0.00000000000E+00 -0.28023581962E+03  0.28023581962E+03  0.00000000000E+00 0.  1.
    9000007    2    1    2  501    0 -0.88627414372E+02 -0.16117007527E+03  0.40491726581E+03  0.59568085469E+03  0.39629165618E+03 0.  0.
    9000005    1    3    3    0    0 -0.78032863450E+02 -0.85612249915E+01  0.43307626433E+03  0.44013460790E+03  0.99999687468E+00 0.  0.
          4    1    3    3  501    0 -0.10594550922E+02 -0.15260885028E+03 -0.28158998524E+02  0.15554624679E+03  0.00000000000E+00 0.  1.
   -9000007    1    1    2    0  503  0.88627414372E+02  0.16117007527E+03  0.77286076401E+02  0.44699412675E+03  0.40000000000E+03 0.  1.
<mgrwt>
<rscale>  2 0.43941794E+03</rscale>
<asrwt>0</asrwt>
<pdfrwt beam="1">  1       21 0.11729833E+00 0.44026198E+03</pdfrwt>
<pdfrwt beam="2">  1       21 0.43113203E-01 0.44026198E+03</pdfrwt>
<totfact> 0.25077012E+03</totfact>
</mgrwt>
</event>
<event>
 6    1  0.8947013E-004  0.4565969E+03  0.7818608E-02  0.1025931E+00
         21   -1    0    0  501  502  0.00000000000E+00  0.00000000000E+00  0.34718631764E+03  0.34718631764E+03  0.00000000000E+00 0.  1.
         21   -1    0    0  502  503 -0.00000000000E+00 -0.00000000000E+00 -0.92788906561E+03  0.92788906561E+03  0.00000000000E+00 0.  1.
    9000007    2    1    2  501    0 -0.16170592361E+03 -0.14272046529E+03  0.89541926809E+02  0.46529401706E+03  0.40244605690E+03 0.  0.
    9000005    1    3    3    0    0  0.82436504562E+02  0.72488993419E+02  0.86602217550E+02  0.13982623334E+03  0.99999687468E+00 0.  0.
          4    1    3    3  501    0 -0.24414242817E+03 -0.21520945871E+03  0.29397092590E+01  0.32546778372E+03  0.00000000000E+00 0.  1.
   -9000007    1    1    2    0  503  0.16170592361E+03  0.14272046529E+03 -0.67024467479E+03  0.80978136619E+03  0.40000000000E+03 0.  1.
<mgrwt>
<rscale>  2 0.45605736E+03</rscale>
<asrwt>0</asrwt>
<pdfrwt beam="1">  1       21 0.53413281E-01 0.45659694E+03</pdfrwt>
<pdfrwt beam="2">  1       21 0.14275216E+00 0.45659694E+03</pdfrwt>
<totfact> 0.95124592E+02</totfact>
</mgrwt>
</event>
<event>
 6    1  0.8947013E-004  0.5446645E+03  0.7818608E-02  0.1002746E+00
         21   -1    0    0  501  502  0.00000000000E+00  0.00000000000E+00  0.14651441003E+03  0.14651441003E+03  0.00000000000E+00 0.  1.
         21   -1    0    0  502  503 -0.00000000000E+00 -0.00000000000E+00 -0.24935341996E+04  0.24935341996E+04  0.00000000000E+00 0.  1.
    9000007    2    1    2  501    0  0.24104828087E+03  0.27995159690E+03 -0.17463663715E+04  0.18293318286E+04  0.40022776704E+03 0.  0.
    9000005    1    3    3    0    0  0.12762273627E+03 -0.24999925229E+02 -0.10797230148E+04  0.10875271711E+04  0.99999687468E+00 0.  0.
          4    1    3    3  501    0  0.11342554460E+03  0.30495152213E+03 -0.66664335665E+03  0.74180465756E+03  0.00000000000E+00 0.  1.
   -9000007    1    1    2    0  503 -0.24104828087E+03 -0.27995159690E+03 -0.60065341804E+03  0.81071678095E+03  0.40000000000E+03 0.  1.
<mgrwt>
<rscale>  2 0.54462268E+03</rscale>
<asrwt>0</asrwt>
<pdfrwt beam="1">  1       21 0.22540680E-01 0.54466452E+03</pdfrwt>
<pdfrwt beam="2">  1       21 0.38362062E+00 0.54466452E+03</pdfrwt>
<totfact> 0.14572541E+02</totfact>
</mgrwt>
</event>
<event>
 6    1  0.8947013E-004  0.4165698E+03  0.7818608E-02  0.1038369E+00
         21   -1    0    0  501  502  0.00000000000E+00  0.00000000000E+00  0.29088841978E+03  0.29088841978E+03  0.00000000000E+00 0. -1.
         21   -1    0    0  502  503 -0.00000000000E+00 -0.00000000000E+00 -0.92960342923E+03  0.92960342923E+03  0.00000000000E+00 0. -1.
    9000007    2    1    2  501    0 -0.22806443713E+02  0.10579772956E+03  0.47083582904E+02  0.41922222977E+03  0.40226498816E+03 0.  0.
    9000005    1    3    3    0    0 -0.44019112375E+02  0.46328560298E+02  0.22317851294E+03  0.23215009452E+03  0.99999687468E+00 0.  0.
          4    1    3    3  501    0  0.21212668662E+02  0.59469169264E+02 -0.17609493003E+03  0.18707213525E+03  0.00000000000E+00 0.  1.
   -9000007    1    1    2    0  503  0.22806443713E+02 -0.10579772956E+03 -0.68579859235E+03  0.80126961925E+03  0.40000000000E+03 0. -1.
<mgrwt>
<rscale>  2 0.41602204E+03</rscale>
<asrwt>0</asrwt>
<pdfrwt beam="1">  1       21 0.44752065E-01 0.41656982E+03</pdfrwt>
<pdfrwt beam="2">  1       21 0.14301591E+00 0.41656982E+03</pdfrwt>
<totfact> 0.14010803E+03</totfact>
</mgrwt>
</event>
<event>
 6    1  0.8947013E-004  0.4848855E+03  0.7818608E-02  0.1017802E+00
         21   -1    0    0  501  502  0.00000000000E+00  0.00000000000E+00  0.18981411647E+04  0.18981411647E+04  0.00000000000E+00 0.  1.
         21   -1    0    0  502  503 -0.00000000000E+00 -0.00000000000E+00 -0.18909858917E+03  0.18909858917E+03  0.00000000000E+00 0.  1.
    9000007    2    1    2  501    0  0.17678153616E+03 -0.20943313962E+03  0.14674903563E+04  0.15455189530E+04  0.39998367059E+03 0.  0.
    9000005    1    3    3    0    0  0.21884136728E+02 -0.29777056937E+03  0.77747256189E+03  0.83283300361E+03  0.99999687468E+00 0.  0.
          4    1    3    3  501    0  0.15489739943E+03  0.88337429745E+02  0.69001779440E+03  0.71268594937E+03  0.00000000000E+00 0.  1.
   -9000007    1    1    2    0  503 -0.17678153616E+03  0.20943313962E+03  0.24155221925E+03  0.54172080090E+03  0.40000000000E+03 0.  1.
<mgrwt>
<rscale>  2 0.48488214E+03</rscale>
<asrwt>0</asrwt>
<pdfrwt beam="1">  1       21 0.29202170E+00 0.48488550E+03</pdfrwt>
<pdfrwt beam="2">  1       21 0.29092092E-01 0.48488550E+03</pdfrwt>
<totfact> 0.33395554E+02</totfact>
</mgrwt>
</event>
<event>
 6    1  0.8947013E-004  0.5331955E+03  0.7818608E-02  0.1005489E+00
         21   -1    0    0  501  502  0.00000000000E+00  0.00000000000E+00  0.76420018951E+03  0.76420018951E+03  0.00000000000E+00 0. -1.
         21   -1    0    0  502  503 -0.00000000000E+00 -0.00000000000E+00 -0.50143638188E+03  0.50143638188E+03  0.00000000000E+00 0.  1.
    9000007    2    1    2  501    0 -0.10589674436E+03 -0.33550791055E+03  0.45333605382E+03  0.69986501014E+03  0.40064669750E+03 0.  0.
    9000005    1    3    3    0    0  0.14576910053E+03 -0.12521114024E+03  0.24480751263E+03  0.31122046614E+03  0.99999687468E+00 0.  0.
          4    1    3    3  501    0 -0.25166584489E+03 -0.21029677030E+03  0.20852854119E+03  0.38864454400E+03  0.00000000000E+00 0.  1.
   -9000007    1    1    2    0  503  0.10589674436E+03  0.33550791055E+03 -0.19057224620E+03  0.56577156126E+03  0.40000000000E+03 0.  1.
<mgrwt>
<rscale>  2 0.53307403E+03</rscale>
<asrwt>0</asrwt>
<pdfrwt beam="1">  1       21 0.11756926E+00 0.53319551E+03</pdfrwt>
<pdfrwt beam="2">  1       21 0.77144059E-01 0.53319551E+03</pdfrwt>
<totfact> 0.67587640E+02</totfact>
</mgrwt>
</event>
<event>
 6    1  0.8947013E-004  0.6164488E+03  0.7818608E-02  0.9872093E-01
         21   -1    0    0  501  502  0.00000000000E+00  0.00000000000E+00  0.10454062843E+04  0.10454062843E+04  0.00000000000E+00 0.  1.
         21   -1    0    0  502  503 -0.00000000000E+00 -0.00000000000E+00 -0.45494709934E+03  0.45494709934E+03  0.00000000000E+00 0. -1.
    9000007    2    1    2  501    0 -0.17566495645E+03 -0.43424318042E+03  0.63215835538E+03  0.88296846518E+03  0.40072909498E+03 0.  0.
    9000005    1    3    3    0    0 -0.15463274222E+03 -0.26001906410E+03  0.93806778174E+02  0.31673634191E+03  0.99999687468E+00 0.  0.
          4    1    3    3  501    0 -0.21032214228E+02 -0.17422411632E+03  0.53835157720E+03  0.56623212327E+03  0.00000000000E+00 0.  1.
   -9000007    1    1    2    0  503  0.17566495645E+03  0.43424318042E+03 -0.41699170462E+02  0.61738491841E+03  0.40000000000E+03 0.  1.
<mgrwt>
<rscale>  2 0.61633034E+03</rscale>
<asrwt>0</asrwt>
<pdfrwt beam="1">  1       21 0.16083174E+00 0.61644880E+03</pdfrwt>
<pdfrwt beam="2">  1       21 0.69991862E-01 0.61644880E+03</pdfrwt>
<totfact> 0.35531622E+02</totfact>
</mgrwt>
</event>
<event>
 6    1  0.8947013E-004  0.4586111E+03  0.7818608E-02  0.1025261E+00
         21   -1    0    0  501  502  0.00000000000E+00  0.00000000000E+00  0.12331855191E+04  0.12331855191E+04  0.00000000000E+00 0.  1.
         21   -1    0    0  502  503 -0.00000000000E+00 -0.00000000000E+00 -0.21012410210E+03  0.21012410210E+03  0.00000000000E+00 0.  1.
    9000007    2    1    2  501    0 -0.12726665092E+03 -0.18473594499E+03  0.82575538503E+03  0.94405633873E+03  0.39880602427E+03 0.  0.
    9000005    1    3    3    0    0  0.40437018382E+02 -0.12012027884E+03  0.72901723236E+03  0.73995348429E+03  0.99999687468E+00 0.  0.
          4    1    3    3  501    0 -0.16770366930E+03 -0.64615666158E+02  0.96738152668E+02  0.20410285444E+03  0.00000000000E+00 0.  1.
   -9000007    1    1    2    0  503  0.12726665092E+03  0.18473594499E+03  0.19730603199E+03  0.49925328248E+03  0.40000000000E+03 0.  1.
<mgrwt>
<rscale>  2 0.45835066E+03</rscale>
<asrwt>0</asrwt>
<pdfrwt beam="1">  1       21 0.18972084E+00 0.45861113E+03</pdfrwt>
<pdfrwt beam="2">  1       21 0.32326786E-01 0.45861113E+03</pdfrwt>
<totfact> 0.12066785E+03</totfact>
</mgrwt>
</event>
<event>
 6    1  0.8947013E-004  0.4552687E+03  0.7818608E-02  0.1026174E+00
         21   -1    0    0  501  502  0.00000000000E+00  0.00000000000E+00  0.44495405174E+03  0.44495405174E+03  0.00000000000E+00 0. -1.
         21   -1    0    0  502  503 -0.00000000000E+00 -0.00000000000E+00 -0.59564185289E+03  0.59564185289E+03  0.00000000000E+00 0.  1.
    9000007    2    1    2  501    0 -0.15045721607E+03 -0.15694641638E+03  0.16771676497E+03  0.48503220962E+03  0.39982218502E+03 0.  0.
    9000005    1    3    3    0    0  0.68653755835E+02 -0.15177966074E+03 -0.52174920872E+02  0.17456696700E+03  0.99999687468E+00 0.  0.
          4    1    3    3  501    0 -0.21911097191E+03 -0.51667556411E+01  0.21989168585E+03  0.31046524263E+03  0.00000000000E+00 0.  1.
   -9000007    1    1    2    0  503  0.15045721607E+03  0.15694641638E+03 -0.31840456613E+03  0.55556369501E+03  0.40000000000E+03 0.  1.
<mgrwt>
<rscale>  2 0.45522960E+03</rscale>
<asrwt>0</asrwt>
<pdfrwt beam="1">  1       21 0.68454470E-01 0.45526866E+03</pdfrwt>
<pdfrwt beam="2">  1       21 0.91637208E-01 0.45526866E+03</pdfrwt>
<totfact> 0.16830082E+03</totfact>
</mgrwt>
</event>
<event>
 6    1  0.8947013E-004  0.4790190E+03  0.7818608E-02  0.1019435E+00
         21   -1    0    0  501  502  0.00000000000E+00  0.00000000000E+00  0.96967802678E+03  0.96967802678E+03  0.00000000000E+00 0. -1.
         21   -1    0    0  502  503 -0.00000000000E+00 -0.00000000000E+00 -0.28896332965E+03  0.28896332965E+03  0.00000000000E+00 0. -1.
    9000007    2    1    2  501    0 -0.22884169331E+03 -0.12910799804E+03  0.60884822366E+03  0.77469695285E+03  0.40052691988E+03 0.  0.
    9000005    1    3    3    0    0 -0.70339912815E+02 -0.40264641150E+01  0.56332840276E+03  0.56771806832E+03  0.99999687468E+00 0.  0.
          4    1    3    3  501    0 -0.15850178049E+03 -0.12508153392E+03  0.45519820903E+02  0.20697888453E+03  0.00000000000E+00 0.  1.
   -9000007    1    1    2    0  503  0.22884169331E+03  0.12910799804E+03  0.71866473465E+02  0.48394440358E+03  0.40000000000E+03 0. -1.
<mgrwt>
<rscale>  2 0.47890885E+03</rscale>
<asrwt>0</asrwt>
<pdfrwt beam="1">  1       21 0.14918123E+00 0.47901901E+03</pdfrwt>
<pdfrwt beam="2">  1       21 0.44455897E-01 0.47901901E+03</pdfrwt>
<totfact> 0.12353983E+03</totfact>
</mgrwt>
</event>
<event>
 6    1  0.8947013E-004  0.4295657E+03  0.7818608E-02  0.1034079E+00
         21   -1    0    0  501  502  0.00000000000E+00  0.00000000000E+00  0.12681860044E+03  0.12681860044E+03  0.00000000000E+00 0. -1.
         21   -1    0    0  502  503 -0.00000000000E+00 -0.00000000000E+00 -0.16467731071E+04  0.16467731071E+04  0.00000000000E+00 0. -1.
    9000007    2    1    2  501    0 -0.12545948371E+03  0.93736880551E+02 -0.45382124186E+03  0.62417149581E+03  0.39888551213E+03 0.  0.
    9000005    1    3    3    0    0 -0.24668850879E+03  0.63296888935E+02 -0.42567981484E+03  0.49605042211E+03  0.99999687468E+00 0.  0.
          4    1    3    3  501    0  0.12122902508E+03  0.30439991617E+02 -0.28141427026E+02  0.12812107370E+03  0.00000000000E+00 0.  1.
   -9000007    1    1    2    0  503  0.12545948371E+03 -0.93736880551E+02 -0.10661332648E+04  0.11494202118E+04  0.40000000000E+03 0. -1.
<mgrwt>
<rscale>  2 0.42930606E+03</rscale>
<asrwt>0</asrwt>
<pdfrwt beam="1">  1       21 0.19510556E-01 0.42956569E+03</pdfrwt>
<pdfrwt beam="2">  1       21 0.25334968E+00 0.42956569E+03</pdfrwt>
<totfact> 0.12790420E+03</totfact>
</mgrwt>
</event>
<event>
 6    1  0.8947013E-004  0.4226477E+03  0.7818608E-02  0.1036394E+00
         21   -1    0    0  501  502  0.00000000000E+00  0.00000000000E+00  0.47565802267E+03  0.47565802267E+03  0.00000000000E+00 0. -1.
         21   -1    0    0  502  503 -0.00000000000E+00 -0.00000000000E+00 -0.47134416747E+03  0.47134416747E+03  0.00000000000E+00 0.  1.
    9000007    2    1    2  501    0 -0.13429288912E+03 -0.24423736826E+02  0.21787678059E+03  0.47346209459E+03  0.39757384786E+03 0.  0.
    9000005    1    3    3    0    0 -0.29815485836E+02 -0.17046721792E+03  0.23636489214E+03  0.29294606639E+03  0.99999687468E+00 0.  0.
          4    1    3    3  501    0 -0.10447740328E+03  0.14604348110E+03 -0.18488111553E+02  0.18051602820E+03  0.00000000000E+00 0.  1.
   -9000007    1    1    2    0  503  0.13429288912E+03  0.24423736826E+02 -0.21356292539E+03  0.47354009554E+03  0.40000000000E+03 0.  1.
<mgrwt>
<rscale>  2 0.42207270E+03</rscale>
<asrwt>0</asrwt>
<pdfrwt beam="1">  1       21 0.73178158E-01 0.42264772E+03</pdfrwt>
<pdfrwt beam="2">  1       21 0.72514487E-01 0.42264772E+03</pdfrwt>
<totfact> 0.25226579E+03</totfact>
</mgrwt>
</event>
<event>
 6    1  0.8947013E-004  0.4092949E+03  0.7818608E-02  0.1040753E+00
         21   -1    0    0  501  502  0.00000000000E+00  0.00000000000E+00  0.29396882330E+03  0.29396882330E+03  0.00000000000E+00 0.  1.
         21   -1    0    0  502  503 -0.00000000000E+00 -0.00000000000E+00 -0.14180071677E+04  0.14180071677E+04  0.00000000000E+00 0.  1.
    9000007    2    1    2  501    0 -0.62086684212E+02  0.60560039397E+02  0.10139288187E+03  0.41999922454E+03  0.39824183280E+03 0.  0.
    9000005    1    3    3    0    0  0.10381538239E+03  0.17600287672E+03  0.35418042972E+02  0.20738872678E+03  0.99999687468E+00 0.  0.
          4    1    3    3  501    0 -0.16590206660E+03 -0.11544283732E+03  0.65974838900E+02  0.21261049776E+03  0.00000000000E+00 0.  1.
   -9000007    1    1    2    0  503  0.62086684212E+02 -0.60560039397E+02 -0.12254312263E+04  0.12919767665E+04  0.40000000000E+03 0.  1.
<mgrwt>
<rscale>  2 0.40886466E+03</rscale>
<asrwt>0</asrwt>
<pdfrwt beam="1">  1       21 0.45225973E-01 0.40929485E+03</pdfrwt>
<pdfrwt beam="2">  1       21 0.21815495E+00 0.40929485E+03</pdfrwt>
<totfact> 0.40356434E+02</totfact>
</mgrwt>
</event>
<event>
 6    1  0.8947013E-004  0.4484092E+03  0.7818608E-02  0.1028302E+00
         21   -1    0    0  501  502  0.00000000000E+00  0.00000000000E+00  0.39903818253E+03  0.39903818253E+03  0.00000000000E+00 0.  1.
         21   -1    0    0  502  503 -0.00000000000E+00 -0.00000000000E+00 -0.13055177635E+04  0.13055177635E+04  0.00000000000E+00 0. -1.
    9000007    2    1    2  501    0 -0.10464542163E+03  0.16993155537E+03  0.21498509717E+03  0.49728198287E+03  0.40155121804E+03 0.  0.
    9000005    1    3    3    0    0  0.51416382988E+02 -0.63777583427E+02 -0.61965661625E+02  0.10272277158E+03  0.99999687468E+00 0.  0.
          4    1    3    3  501    0 -0.15606180462E+03  0.23370913879E+03  0.27695075880E+03  0.39455921129E+03  0.00000000000E+00 0.  1.
   -9000007    1    1    2    0  503  0.10464542163E+03 -0.16993155537E+03 -0.11214646781E+04  0.12072739631E+04  0.40000000000E+03 0. -1.
<mgrwt>
<rscale>  2 0.44806161E+03</rscale>
<asrwt>0</asrwt>
<pdfrwt beam="1">  1       21 0.61390490E-01 0.44840916E+03</pdfrwt>
<pdfrwt beam="2">  1       21 0.20084889E+00 0.44840916E+03</pdfrwt>
<totfact> 0.26607151E+02</totfact>
</mgrwt>
</event>
<event>
 6    1  0.8947013E-004  0.5037218E+03  0.7818608E-02  0.1012931E+00
         21   -1    0    0  501  502  0.00000000000E+00  0.00000000000E+00  0.82543175054E+03  0.82543175054E+03  0.00000000000E+00 0.  1.
         21   -1    0    0  502  503 -0.00000000000E+00 -0.00000000000E+00 -0.36188853925E+03  0.36188853925E+03  0.00000000000E+00 0.  1.
    9000007    2    1    2  501    0 -0.20591199258E+03 -0.22657431350E+03  0.46413908408E+03  0.68359812104E+03  0.39767528649E+03 0.  0.
    9000005    1    3    3    0    0  0.18470698840E+02 -0.26695469233E+03  0.30395520517E+03  0.40496387643E+03  0.99999687468E+00 0.  0.
          4    1    3    3  501    0 -0.22438269142E+03  0.40380378822E+02  0.16018387892E+03  0.27863424461E+03  0.00000000000E+00 0.  1.
   -9000007    1    1    2    0  503  0.20591199258E+03  0.22657431350E+03 -0.59587278664E+00  0.50372216875E+03  0.40000000000E+03 0.  1.
<mgrwt>
<rscale>  2 0.50326017E+03</rscale>
<asrwt>0</asrwt>
<pdfrwt beam="1">  1       21 0.12698950E+00 0.50372182E+03</pdfrwt>
<pdfrwt beam="2">  1       21 0.55675160E-01 0.50372182E+03</pdfrwt>
<totfact> 0.11613211E+03</totfact>
</mgrwt>
</event>
<event>
 6    1  0.8947013E-004  0.5212557E+03  0.7818608E-02  0.1008395E+00
         21   -1    0    0  501  502  0.00000000000E+00  0.00000000000E+00  0.82687326200E+03  0.82687326200E+03  0.00000000000E+00 0. -1.
         21   -1    0    0  502  503 -0.00000000000E+00 -0.00000000000E+00 -0.35954714764E+03  0.35954714764E+03  0.00000000000E+00 0. -1.
    9000007    2    1    2  501    0  0.82094773155E+02  0.32398759662E+03  0.40820430083E+03  0.66182256044E+03  0.39958833285E+03 0.  0.
    9000005    1    3    3    0    0  0.13934682897E+03  0.32769234969E+03  0.13207401715E+03  0.37979515635E+03  0.99999687468E+00 0.  0.
          4    1    3    3  501    0 -0.57252055813E+02 -0.37047530694E+01  0.27613028369E+03  0.28202740409E+03  0.00000000000E+00 0.  1.
   -9000007    1    1    2    0  503 -0.82094773155E+02 -0.32398759662E+03  0.59121813529E+02  0.52459784920E+03  0.40000000000E+03 0. -1.
<mgrwt>
<rscale>  2 0.52117673E+03</rscale>
<asrwt>0</asrwt>
<pdfrwt beam="1">  1       21 0.12721127E+00 0.52125571E+03</pdfrwt>
<pdfrwt beam="2">  1       21 0.55314946E-01 0.52125571E+03</pdfrwt>
<totfact> 0.11651981E+03</totfact>
</mgrwt>
</event>
<event>
 6    1  0.8947013E-004  0.4336534E+03  0.7818608E-02  0.1032716E+00
         21   -1    0    0  501  502  0.00000000000E+00  0.00000000000E+00  0.14051976196E+04  0.14051976196E+04  0.00000000000E+00 0.  1.
         21   -1    0    0  502  503 -0.00000000000E+00 -0.00000000000E+00 -0.81514738104E+03  0.81514738104E+03  0.00000000000E+00 0.  1.
    9000007    2    1    2  501    0  0.76104657245E+02  0.14907686192E+03  0.13099951430E+04  0.13799067251E+04  0.40004932915E+03 0.  0.
    9000005    1    3    3    0    0  0.19794568118E+03  0.36139946425E+02  0.33444226375E+03  0.39030912902E+03  0.99999687468E+00 0.  0.
          4    1    3    3  501    0 -0.12184102394E+03  0.11293691549E+03  0.97555287925E+03  0.98959759610E+03  0.00000000000E+00 0.  1.
   -9000007    1    1    2    0  503 -0.76104657245E+02 -0.14907686192E+03 -0.71994490441E+03  0.84043827555E+03  0.40000000000E+03 0.  1.
<mgrwt>
<rscale>  2 0.43364205E+03</rscale>
<asrwt>0</asrwt>
<pdfrwt beam="1">  1       21 0.21618425E+00 0.43365343E+03</pdfrwt>
<pdfrwt beam="2">  1       21 0.12540729E+00 0.43365343E+03</pdfrwt>
<totfact> 0.39357053E+01</totfact>
</mgrwt>
</event>
<event>
 6    1  0.8947013E-004  0.5063003E+03  0.7818608E-02  0.1012163E+00
         21   -1    0    0  501  502  0.00000000000E+00  0.00000000000E+00  0.46481161984E+03  0.46481161984E+03  0.00000000000E+00 0.  1.
         21   -1    0    0  502  503 -0.00000000000E+00 -0.00000000000E+00 -0.11343029832E+04  0.11343029832E+04  0.00000000000E+00 0.  1.
    9000007    2    1    2  501    0  0.31035154911E+03 -0.46814581025E+01  0.23854837737E+03  0.55946265607E+03  0.39969129977E+03 0.  0.
    9000005    1    3    3    0    0 -0.88724262056E+02 -0.54101896258E+02  0.47632658956E+02  0.11431920245E+03  0.99999687468E+00 0.  0.
          4    1    3    3  501    0  0.39907581116E+03  0.49420438156E+02  0.19091571842E+03  0.44514345362E+03  0.00000000000E+00 0.  1.
   -9000007    1    1    2    0  503 -0.31035154911E+03  0.46814581025E+01 -0.90803974069E+03  0.10396519469E+04  0.40000000000E+03 0.  1.
<mgrwt>
<rscale>  2 0.50623933E+03</rscale>
<asrwt>0</asrwt>
<pdfrwt beam="1">  1       21 0.71509480E-01 0.50630031E+03</pdfrwt>
<pdfrwt beam="2">  1       21 0.17450815E+00 0.50630031E+03</pdfrwt>
<totfact> 0.27987104E+02</totfact>
</mgrwt>
</event>
<event>
 6    1  0.8947013E-004  0.4761484E+03  0.7818608E-02  0.1020206E+00
         21   -1    0    0  501  502  0.00000000000E+00  0.00000000000E+00  0.27810592232E+04  0.27810592232E+04  0.00000000000E+00 0.  1.
         21   -1    0    0  502  503 -0.00000000000E+00 -0.00000000000E+00 -0.92235634898E+02  0.92235634898E+02  0.00000000000E+00 0.  1.
    9000007    2    1    2  501    0 -0.21868531855E+03  0.13745548708E+03  0.18343071551E+04  0.18950742213E+04  0.39988284011E+03 0.  0.
    9000005    1    3    3    0    0  0.10748974408E+03  0.54036948822E+01  0.67534454662E+03  0.68386731290E+03  0.99999687468E+00 0.  0.
          4    1    3    3  501    0 -0.32617506264E+03  0.13205179220E+03  0.11589626084E+04  0.12112069084E+04  0.00000000000E+00 0.  1.
   -9000007    1    1    2    0  503  0.21868531855E+03 -0.13745548708E+03  0.85451643319E+03  0.97822063671E+03  0.40000000000E+03 0.  1.
<mgrwt>
<rscale>  2 0.47612377E+03</rscale>
<asrwt>0</asrwt>
<pdfrwt beam="1">  1       21 0.42785520E+00 0.47614838E+03</pdfrwt>
<pdfrwt beam="2">  1       21 0.14190100E-01 0.47614838E+03</pdfrwt>
<totfact> 0.18798657E+02</totfact>
</mgrwt>
</event>
<event>
 6    1  0.8947013E-004  0.4075747E+03  0.7818608E-02  0.1041226E+00
         21   -1    0    0  501  502  0.00000000000E+00  0.00000000000E+00  0.12683888950E+03  0.12683888950E+03  0.00000000000E+00 0.  1.
         21   -1    0    0  502  503 -0.00000000000E+00 -0.00000000000E+00 -0.15547229709E+04  0.15547229709E+04  0.00000000000E+00 0.  1.
    9000007    2    1    2  501    0  0.62046773961E+02 -0.43546254039E+02 -0.37948305343E+03  0.55688822158E+03  0.40046351281E+03 0.  0.
    9000005    1    3    3    0    0 -0.48109313308E+02 -0.80849687309E+02 -0.42252837464E+03  0.43287689398E+03  0.99999687468E+00 0.  0.
          4    1    3    3  501    0  0.11015608727E+03  0.37303433269E+02  0.43045321211E+02  0.12401132760E+03  0.00000000000E+00 0.  1.
   -9000007    1    1    2    0  503 -0.62046773961E+02  0.43546254039E+02 -0.10484010280E+04  0.11246736388E+04  0.40000000000E+03 0.  1.
<mgrwt>
<rscale>  2 0.40746076E+03</rscale>
<asrwt>0</asrwt>
<pdfrwt beam="1">  1       21 0.19513673E-01 0.40757466E+03</pdfrwt>
<pdfrwt beam="2">  1       21 0.23918817E+00 0.40757466E+03</pdfrwt>
<totfact> 0.15800304E+03</totfact>
</mgrwt>
</event>
<event>
 6    1  0.8947013E-004  0.4014343E+03  0.7818608E-02  0.1043311E+00
         21   -1    0    0  501  502  0.00000000000E+00  0.00000000000E+00  0.43615854361E+03  0.43615854361E+03  0.00000000000E+00 0. -1.
         21   -1    0    0  502  503 -0.00000000000E+00 -0.00000000000E+00 -0.37401699396E+03  0.37401699396E+03  0.00000000000E+00 0. -1.
    9000007    2    1    2  501    0  0.75979875449E+01 -0.28946014290E+02 -0.14967911716E+02  0.40171321350E+03  0.40031720717E+03 0.  0.
    9000005    1    3    3    0    0  0.10508306229E+03 -0.14879221773E+03  0.10123483182E+03  0.20840121210E+03  0.99999687468E+00 0.  0.
          4    1    3    3  501    0 -0.97485074742E+02  0.11984620344E+03 -0.11620274354E+03  0.19331200139E+03  0.00000000000E+00 0.  1.
   -9000007    1    1    2    0  503 -0.75979875449E+01  0.28946014290E+02  0.77109461370E+02  0.40846232408E+03  0.40000000000E+03 0. -1.
<mgrwt>
<rscale>  2 0.40135516E+03</rscale>
<asrwt>0</asrwt>
<pdfrwt beam="1">  1       21 0.67101314E-01 0.40143426E+03</pdfrwt>
<pdfrwt beam="2">  1       21 0.57541076E-01 0.40143426E+03</pdfrwt>
<totfact> 0.51589007E+03</totfact>
</mgrwt>
</event>
<event>
 6    1  0.8947013E-004  0.5254290E+03  0.7818608E-02  0.1007364E+00
         21   -1    0    0  501  502  0.00000000000E+00  0.00000000000E+00  0.37685287658E+03  0.37685287658E+03  0.00000000000E+00 0. -1.
         21   -1    0    0  502  503 -0.00000000000E+00 -0.00000000000E+00 -0.94925772130E+03  0.94925772130E+03  0.00000000000E+00 0. -1.
    9000007    2    1    2  501    0  0.34026420916E+03 -0.28267397305E+01  0.30802873526E+02  0.52633108210E+03  0.40035967389E+03 0.  0.
    9000005    1    3    3    0    0 -0.51669035477E+02 -0.60724385709E+02  0.96020895481E+02  0.12481246977E+03  0.99999687468E+00 0.  0.
          4    1    3    3  501    0  0.39193324464E+03  0.57897645979E+02 -0.65218021954E+02  0.40151861234E+03  0.00000000000E+00 0.  1.
   -9000007    1    1    2    0  503 -0.34026420916E+03  0.28267397305E+01 -0.60320771825E+03  0.79977951577E+03  0.40000000000E+03 0. -1.
<mgrwt>
<rscale>  2 0.52536044E+03</rscale>
<asrwt>0</asrwt>
<pdfrwt beam="1">  1       21 0.57977366E-01 0.52542896E+03</pdfrwt>
<pdfrwt beam="2">  1       21 0.14603965E+00 0.52542896E+03</pdfrwt>
<totfact> 0.72880960E+02</totfact>
</mgrwt>
</event>
<event>
 6    1  0.8947013E-004  0.4960175E+03  0.7818608E-02  0.1014915E+00
         21   -1    0    0  501  502  0.00000000000E+00  0.00000000000E+00  0.90722083225E+03  0.90722083225E+03  0.00000000000E+00 0.  1.
         21   -1    0    0  502  503 -0.00000000000E+00 -0.00000000000E+00 -0.68542748691E+03  0.68542748691E+03  0.00000000000E+00 0.  1.
    9000007    2    1    2  501    0 -0.29366794790E+01  0.29094571211E+03  0.73058241326E+03  0.88305382431E+03  0.40171552445E+03 0.  0.
    9000005    1    3    3    0    0  0.16152269881E+03  0.21809926415E+03  0.24649751834E+03  0.36663182867E+03  0.99999687468E+00 0.  0.
          4    1    3    3  501    0 -0.16445937829E+03  0.72846447958E+02  0.48408489492E+03  0.51642199564E+03  0.00000000000E+00 0.  1.
   -9000007    1    1    2    0  503  0.29366794790E+01 -0.29094571211E+03 -0.50878906792E+03  0.70959449485E+03  0.40000000000E+03 0.  1.
<mgrwt>
<rscale>  2 0.49567008E+03</rscale>
<asrwt>0</asrwt>
<pdfrwt beam="1">  1       21 0.13957244E+00 0.49601753E+03</pdfrwt>
<pdfrwt beam="2">  1       21 0.10545038E+00 0.49601753E+03</pdfrwt>
<totfact> 0.20873964E+02</totfact>
</mgrwt>
</event>
<event>
 6    1  0.8947013E-004  0.5098943E+03  0.7818608E-02  0.1011363E+00
         21   -1    0    0  501  502  0.00000000000E+00  0.00000000000E+00  0.22236676431E+03  0.22236676431E+03  0.00000000000E+00 0. -1.
         21   -1    0    0  502  503 -0.00000000000E+00 -0.00000000000E+00 -0.14496731145E+04  0.14496731145E+04  0.00000000000E+00 0. -1.
    9000007    2    1    2  501    0  0.25448881414E+03 -0.18188468229E+03 -0.24379686302E+03  0.56518058083E+03  0.40267304896E+03 0.  0.
    9000005    1    3    3    0    0  0.29415332190E+03  0.10011875488E+02 -0.68341407127E+02  0.30215552677E+03  0.99999687468E+00 0.  0.
          4    1    3    3  501    0 -0.39664507761E+02 -0.19189655778E+03 -0.17545545590E+03  0.26302505407E+03  0.00000000000E+00 0.  1.
   -9000007    1    1    2    0  503 -0.25448881414E+03  0.18188468229E+03 -0.98350948719E+03  0.11068592980E+04  0.40000000000E+03 0. -1.
<mgrwt>
<rscale>  2 0.50936639E+03</rscale>
<asrwt>0</asrwt>
<pdfrwt beam="1">  1       21 0.34210272E-01 0.50989428E+03</pdfrwt>
<pdfrwt beam="2">  1       21 0.22302663E+00 0.50989428E+03</pdfrwt>
<totfact> 0.63445184E+02</totfact>
</mgrwt>
</event>
<event>
 6    1  0.8947013E-004  0.4802772E+03  0.7818608E-02  0.1019085E+00
         21   -1    0    0  501  502  0.00000000000E+00  0.00000000000E+00  0.12178151729E+03  0.12178151729E+03  0.00000000000E+00 0. -1.
         21   -1    0    0  502  503 -0.00000000000E+00 -0.00000000000E+00 -0.20584236578E+04  0.20584236578E+04  0.00000000000E+00 0.  1.
    9000007    2    1    2  501    0 -0.18744293296E+03  0.18849754778E+03 -0.12773648820E+04  0.13645381583E+04  0.39954619898E+03 0.  0.
    9000005    1    3    3    0    0 -0.19827133626E+03  0.17459219582E+03 -0.35759776845E+03  0.44460220605E+03  0.99999687468E+00 0.  0.
          4    1    3    3  501    0  0.10828403304E+02  0.13905351955E+02 -0.91976711355E+03  0.91993595228E+03  0.00000000000E+00 0.  1.
   -9000007    1    1    2    0  503  0.18744293296E+03 -0.18849754778E+03 -0.65927725849E+03  0.81566701674E+03  0.40000000000E+03 0.  1.
<mgrwt>
<rscale>  2 0.48018269E+03</rscale>
<asrwt>0</asrwt>
<pdfrwt beam="1">  1       21 0.18735618E-01 0.48027719E+03</pdfrwt>
<pdfrwt beam="2">  1       21 0.31668056E+00 0.48027719E+03</pdfrwt>
<totfact> 0.55716392E+02</totfact>
</mgrwt>
</event>
<event>
 6    1  0.8947013E-004  0.4160051E+03  0.7818608E-02  0.1038415E+00
         21   -1    0    0  501  502  0.00000000000E+00  0.00000000000E+00  0.99815865228E+03  0.99815865228E+03  0.00000000000E+00 0.  1.
         21   -1    0    0  502  503 -0.00000000000E+00 -0.00000000000E+00 -0.23290580179E+03  0.23290580179E+03  0.00000000000E+00 0.  1.
    9000007    2    1    2  501    0  0.10749727006E+03 -0.33021904179E+02  0.69452116431E+03  0.80958007636E+03  0.40051734437E+03 0.  0.
    9000005    1    3    3    0    0 -0.75594930325E+02 -0.90522242654E+02  0.35472989393E+02  0.12315925818E+03  0.99999687468E+00 0.  0.
          4    1    3    3  501    0  0.18309220038E+03  0.57500338475E+02  0.65904817492E+03  0.68642081818E+03  0.00000000000E+00 0.  1.
   -9000007    1    1    2    0  503 -0.10749727006E+03  0.33021904179E+02  0.70731686172E+02  0.42148437771E+03  0.40000000000E+03 0.  1.
<mgrwt>
<rscale>  2 0.41588054E+03</rscale>
<asrwt>0</asrwt>
<pdfrwt beam="1">  1       21 0.15356287E+00 0.41600511E+03</pdfrwt>
<pdfrwt beam="2">  1       21 0.35831662E-01 0.41600511E+03</pdfrwt>
<totfact> 0.18272485E+03</totfact>
</mgrwt>
</event>
<event>
 6    1  0.8947013E-004  0.4203683E+03  0.7818608E-02  0.1036970E+00
         21   -1    0    0  501  502  0.00000000000E+00  0.00000000000E+00  0.13091946102E+04  0.13091946102E+04  0.00000000000E+00 0.  1.
         21   -1    0    0  502  503 -0.00000000000E+00 -0.00000000000E+00 -0.45247990833E+03  0.45247990833E+03  0.00000000000E+00 0.  1.
    9000007    2    1    2  501    0  0.11059813016E+03  0.66914826491E+02  0.11662747874E+04  0.12396237673E+04  0.39970071853E+03 0.  0.
    9000005    1    3    3    0    0 -0.88832369347E+02 -0.40543348958E+02  0.82022390720E+03  0.82601647134E+03  0.99999687468E+00 0.  0.
          4    1    3    3  501    0  0.19943049950E+03  0.10745817545E+03  0.34605088018E+03  0.41360729596E+03  0.00000000000E+00 0.  1.
   -9000007    1    1    2    0  503 -0.11059813016E+03 -0.66914826491E+02 -0.30956008545E+03  0.52205075127E+03  0.40000000000E+03 0.  1.
<mgrwt>
<rscale>  2 0.42029713E+03</rscale>
<asrwt>0</asrwt>
<pdfrwt beam="1">  1       21 0.20141455E+00 0.42036834E+03</pdfrwt>
<pdfrwt beam="2">  1       21 0.69612294E-01 0.42036834E+03</pdfrwt>
<totfact> 0.20257571E+02</totfact>
</mgrwt>
</event>
<event>
 6    1  0.8947013E-004  0.5078164E+03  0.7818608E-02  0.1011812E+00
         21   -1    0    0  501  502  0.00000000000E+00  0.00000000000E+00  0.49167433648E+03  0.49167433648E+03  0.00000000000E+00 0.  1.
         21   -1    0    0  502  503 -0.00000000000E+00 -0.00000000000E+00 -0.59502323132E+03  0.59502323132E+03  0.00000000000E+00 0.  1.
    9000007    2    1    2  501    0 -0.30703913901E+03 -0.60037177338E+02  0.13657548163E+03  0.52505604337E+03  0.39894046040E+03 0.  0.
    9000005    1    3    3    0    0  0.44341303207E+02  0.48831950732E+02  0.14263008963E+03  0.15714659731E+03  0.99999687468E+00 0.  0.
          4    1    3    3  501    0 -0.35138044222E+03 -0.10886912807E+03 -0.60546079985E+01  0.36790944606E+03  0.00000000000E+00 0.  1.
   -9000007    1    1    2    0  503  0.30703913901E+03  0.60037177338E+02 -0.23992437648E+03  0.56164152444E+03  0.40000000000E+03 0.  1.
<mgrwt>
<rscale>  2 0.50760773E+03</rscale>
<asrwt>0</asrwt>
<pdfrwt beam="1">  1       21 0.75642206E-01 0.50781640E+03</pdfrwt>
<pdfrwt beam="2">  1       21 0.91542035E-01 0.50781640E+03</pdfrwt>
<totfact> 0.13198554E+03</totfact>
</mgrwt>
</event>
<event>
 6    1  0.8947013E-004  0.4837390E+03  0.7818608E-02  0.1018250E+00
         21   -1    0    0  501  502  0.00000000000E+00  0.00000000000E+00  0.14929575451E+04  0.14929575451E+04  0.00000000000E+00 0. -1.
         21   -1    0    0  502  503 -0.00000000000E+00 -0.00000000000E+00 -0.16139698607E+03  0.16139698607E+03  0.00000000000E+00 0.  1.
    9000007    2    1    2  501    0  0.26843275842E+03  0.76913559590E+00  0.51706773486E+03  0.70806953288E+03  0.40242599767E+03 0.  0.
    9000005    1    3    3    0    0  0.33358440151E+03 -0.46552514766E+02  0.52853399992E+03  0.62673349889E+03  0.99999687468E+00 0.  0.
          4    1    3    3  501    0 -0.65151643097E+02  0.47321650362E+02 -0.11466265056E+02  0.81336033992E+02  0.00000000000E+00 0.  1.
   -9000007    1    1    2    0  503 -0.26843275842E+03 -0.76913559590E+00  0.81449282418E+03  0.94628499830E+03  0.40000000000E+03 0.  1.
<mgrwt>
<rscale>  2 0.48323413E+03</rscale>
<asrwt>0</asrwt>
<pdfrwt beam="1">  1       21 0.22968577E+00 0.48373900E+03</pdfrwt>
<pdfrwt beam="2">  1       21 0.24830307E-01 0.48373900E+03</pdfrwt>
<totfact> 0.10996421E+03</totfact>
</mgrwt>
</event>
<event>
 6    1  0.8947013E-004  0.4860511E+03  0.7818608E-02  0.1017528E+00
         21   -1    0    0  501  502  0.00000000000E+00  0.00000000000E+00  0.20924876656E+03  0.20924876656E+03  0.00000000000E+00 0.  1.
         21   -1    0    0  502  503 -0.00000000000E+00 -0.00000000000E+00 -0.11375145622E+04  0.11375145622E+04  0.00000000000E+00 0.  1.
    9000007    2    1    2  501    0  0.12326078483E+03 -0.24583742939E+03 -0.40139198424E+03  0.63036590003E+03  0.40076973457E+03 0.  0.
    9000005    1    3    3    0    0 -0.80580644392E+02 -0.33643521716E+02  0.43040084238E+02  0.97357976812E+02  0.99999687468E+00 0.  0.
          4    1    3    3  501    0  0.20384142922E+03 -0.21219390768E+03 -0.44443206848E+03  0.53300792322E+03  0.00000000000E+00 0.  1.
   -9000007    1    1    2    0  503 -0.12326078483E+03  0.24583742939E+03 -0.52687381144E+03  0.71639742877E+03  0.40000000000E+03 0.  1.
<mgrwt>
<rscale>  2 0.48589237E+03</rscale>
<asrwt>0</asrwt>
<pdfrwt beam="1">  1       21 0.32192117E-01 0.48605107E+03</pdfrwt>
<pdfrwt beam="2">  1       21 0.17500224E+00 0.48605107E+03</pdfrwt>
<totfact> 0.15258178E+03</totfact>
</mgrwt>
</event>
<event>
 6    1  0.8947013E-004  0.4983788E+03  0.7818608E-02  0.1014318E+00
         21   -1    0    0  501  502  0.00000000000E+00  0.00000000000E+00  0.88365458629E+03  0.88365458629E+03  0.00000000000E+00 0.  1.
         21   -1    0    0  502  503 -0.00000000000E+00 -0.00000000000E+00 -0.33162072758E+03  0.33162072758E+03  0.00000000000E+00 0. -1.
    9000007    2    1    2  501    0  0.39521167572E+02  0.29167614234E+03  0.51594117305E+03  0.71734000014E+03  0.40217469719E+03 0.  0.
    9000005    1    3    3    0    0  0.21217945639E+03  0.20886807624E+03  0.24510429649E+03  0.38564635502E+03  0.99999687468E+00 0.  0.
          4    1    3    3  501    0 -0.17265828882E+03  0.82808066100E+02  0.27083687656E+03  0.33169364512E+03  0.00000000000E+00 0.  1.
   -9000007    1    1    2    0  503 -0.39521167572E+02 -0.29167614234E+03  0.36092685668E+02  0.49793531373E+03  0.40000000000E+03 0. -1.
<mgrwt>
<rscale>  2 0.49793986E+03</rscale>
<asrwt>0</asrwt>
<pdfrwt beam="1">  1       21 0.13594686E+00 0.49837875E+03</pdfrwt>
<pdfrwt beam="2">  1       21 0.51018574E-01 0.49837875E+03</pdfrwt>
<totfact> 0.11755028E+03</totfact>
</mgrwt>
</event>
<event>
 6    1  0.8947013E-004  0.5785950E+03  0.7818608E-02  0.9950864E-01
         21   -1    0    0  501  502  0.00000000000E+00  0.00000000000E+00  0.35773953399E+03  0.35773953399E+03  0.00000000000E+00 0.  1.
         21   -1    0    0  502  503 -0.00000000000E+00 -0.00000000000E+00 -0.96457666389E+03  0.96457666389E+03  0.00000000000E+00 0. -1.
    9000007    2    1    2  501    0 -0.97178813008E+02 -0.40653546359E+03 -0.18907186927E+03  0.60870382562E+03  0.40007170698E+03 0.  0.
    9000005    1    3    3    0    0 -0.16451483343E+03 -0.34821469612E+03 -0.28400755193E+03  0.47851843701E+03  0.99999687468E+00 0.  0.
          4    1    3    3  501    0  0.67336020417E+02 -0.58320767469E+02  0.94935682666E+02  0.13018538861E+03  0.00000000000E+00 0.  1.
   -9000007    1    1    2    0  503  0.97178813008E+02  0.40653546359E+03 -0.41776526062E+03  0.71361237226E+03  0.40000000000E+03 0.  1.
<mgrwt>
<rscale>  2 0.57858261E+03</rscale>
<asrwt>0</asrwt>
<pdfrwt beam="1">  1       21 0.55036851E-01 0.57859500E+03</pdfrwt>
<pdfrwt beam="2">  1       21 0.14839641E+00 0.57859500E+03</pdfrwt>
<totfact> 0.76691694E+02</totfact>
</mgrwt>
</event>
<event>
 6    1  0.8947013E-004  0.4176812E+03  0.7818608E-02  0.1038192E+00
         21   -1    0    0  501  502  0.00000000000E+00  0.00000000000E+00  0.10404405028E+04  0.10404405028E+04  0.00000000000E+00 0. -1.
         21   -1    0    0  502  503 -0.00000000000E+00 -0.00000000000E+00 -0.18763500077E+03  0.18763500077E+03  0.00000000000E+00 0. -1.
    9000007    2    1    2  501    0  0.62465095514E+02 -0.10274080767E+03  0.21532811068E+03  0.46595019485E+03  0.39533002303E+03 0.  0.
    9000005    1    3    3    0    0  0.20768131491E+03 -0.37565892647E+02  0.22242426374E+03  0.30662073959E+03  0.99999687468E+00 0.  0.
          4    1    3    3  501    0 -0.14521621939E+03 -0.65174915027E+02 -0.70961530588E+01  0.15932945526E+03  0.00000000000E+00 0.  1.
   -9000007    1    1    2    0  503 -0.62465095514E+02  0.10274080767E+03  0.63747739132E+03  0.76212530870E+03  0.40000000000E+03 0. -1.
<mgrwt>
<rscale>  2 0.41655913E+03</rscale>
<asrwt>0</asrwt>
<pdfrwt beam="1">  1       21 0.16006777E+00 0.41768117E+03</pdfrwt>
<pdfrwt beam="2">  1       21 0.28866924E-01 0.41768117E+03</pdfrwt>
<totfact> 0.25094007E+03</totfact>
</mgrwt>
</event>
<event>
 6    1  0.8947013E-004  0.5366593E+03  0.7818608E-02  0.1004630E+00
         21   -1    0    0  501  502  0.00000000000E+00  0.00000000000E+00  0.22276350405E+04  0.22276350405E+04  0.00000000000E+00 0.  1.
         21   -1    0    0  502  503 -0.00000000000E+00 -0.00000000000E+00 -0.23465664167E+03  0.23465664167E+03  0.00000000000E+00 0.  1.
    9000007    2    1    2  501    0 -0.33775460978E+03 -0.11800420057E+03  0.18214882314E+04  0.18988983513E+04  0.39999050431E+03 0.  0.
    9000005    1    3    3    0    0 -0.87255830298E+02 -0.57499212890E+02  0.63841301633E+02  0.12245999833E+03  0.99999687468E+00 0.  0.
          4    1    3    3  501    0 -0.25049877948E+03 -0.60504987676E+02  0.17576469298E+04  0.17764383529E+04  0.00000000000E+00 0.  1.
   -9000007    1    1    2    0  503  0.33775460978E+03  0.11800420057E+03  0.17149016744E+03  0.56339333091E+03  0.40000000000E+03 0.  1.
<mgrwt>
<rscale>  2 0.53665750E+03</rscale>
<asrwt>0</asrwt>
<pdfrwt beam="1">  1       21 0.34271307E+00 0.53665927E+03</pdfrwt>
<pdfrwt beam="2">  1       21 0.36101023E-01 0.53665927E+03</pdfrwt>
<totfact> 0.10355130E+02</totfact>
</mgrwt>
</event>
<event>
 6    1  0.8947013E-004  0.4215149E+03  0.7818608E-02  0.1036689E+00
         21   -1    0    0  501  502  0.00000000000E+00  0.00000000000E+00  0.77166062522E+03  0.77166062522E+03  0.00000000000E+00 0. -1.
         21   -1    0    0  502  503 -0.00000000000E+00 -0.00000000000E+00 -0.54503656196E+03  0.54503656196E+03  0.00000000000E+00 0. -1.
    9000007    2    1    2  501    0  0.13263042785E+03  0.91622400834E+01  0.61416710005E+03  0.74410275619E+03  0.39851337235E+03 0.  0.
    9000005    1    3    3    0    0  0.19989087971E+03 -0.31486489519E+02  0.63192299495E+03  0.66353254205E+03  0.99999687468E+00 0.  0.
          4    1    3    3  501    0 -0.67260451860E+02  0.40648729603E+02 -0.17755894899E+02  0.80570214139E+02  0.00000000000E+00 0.  1.
   -9000007    1    1    2    0  503 -0.13263042785E+03 -0.91622400834E+01 -0.38754303680E+03  0.57259443100E+03  0.40000000000E+03 0. -1.
<mgrwt>
<rscale>  2 0.42116179E+03</rscale>
<asrwt>0</asrwt>
<pdfrwt beam="1">  1       21 0.11871702E+00 0.42151486E+03</pdfrwt>
<pdfrwt beam="2">  1       21 0.83851779E-01 0.42151486E+03</pdfrwt>
<totfact> 0.56955571E+02</totfact>
</mgrwt>
</event>
<event>
 6    1  0.8947013E-004  0.4716048E+03  0.7818608E-02  0.1021490E+00
         21   -1    0    0  501  502  0.00000000000E+00  0.00000000000E+00  0.45724007635E+03  0.45724007635E+03  0.00000000000E+00 0.  1.
         21   -1    0    0  502  503 -0.00000000000E+00 -0.00000000000E+00 -0.52509521095E+03  0.52509521095E+03  0.00000000000E+00 0.  1.
    9000007    2    1    2  501    0 -0.18392132359E+03 -0.16906821628E+03  0.99940729006E+02  0.48176904106E+03  0.39962750728E+03 0.  0.
    9000005    1    3    3    0    0 -0.15235493125E+02  0.46306046890E+01 -0.13999111645E+03  0.14089739326E+03  0.99999687468E+00 0.  0.
          4    1    3    3  501    0 -0.16868583047E+03 -0.17369882097E+03  0.23993184545E+03  0.34087164779E+03  0.00000000000E+00 0.  1.
   -9000007    1    1    2    0  503  0.18392132359E+03  0.16906821628E+03 -0.16779586361E+03  0.50056624624E+03  0.40000000000E+03 0.  1.
<mgrwt>
<rscale>  2 0.47152584E+03</rscale>
<asrwt>0</asrwt>
<pdfrwt beam="1">  1       21 0.70344627E-01 0.47160483E+03</pdfrwt>
<pdfrwt beam="2">  1       21 0.80783879E-01 0.47160483E+03</pdfrwt>
<totfact> 0.21153830E+03</totfact>
</mgrwt>
</event>
<event>
 6    1  0.8947013E-004  0.4793847E+03  0.7818608E-02  0.1019382E+00
         21   -1    0    0  501  502  0.00000000000E+00  0.00000000000E+00  0.12903084759E+04  0.12903084759E+04  0.00000000000E+00 0. -1.
         21   -1    0    0  502  503 -0.00000000000E+00 -0.00000000000E+00 -0.23499071922E+03  0.23499071922E+03  0.00000000000E+00 0. -1.
    9000007    2    1    2  501    0  0.12471484430E+03  0.23060660703E+03  0.90473617593E+03  0.10238931600E+04  0.40134331379E+03 0.  0.
    9000005    1    3    3    0    0  0.16820066270E+03 -0.10314289803E+02  0.64630880002E+03  0.66791759408E+03  0.99999687468E+00 0.  0.
          4    1    3    3  501    0 -0.43485818404E+02  0.24092089683E+03  0.25842737591E+03  0.35597556595E+03  0.00000000000E+00 0.  1.
   -9000007    1    1    2    0  503 -0.12471484430E+03 -0.23060660703E+03  0.15058158080E+03  0.50140603513E+03  0.40000000000E+03 0. -1.
<mgrwt>
<rscale>  2 0.47910340E+03</rscale>
<asrwt>0</asrwt>
<pdfrwt beam="1">  1       21 0.19850899E+00 0.47938466E+03</pdfrwt>
<pdfrwt beam="2">  1       21 0.36152419E-01 0.47938466E+03</pdfrwt>
<totfact> 0.83158745E+02</totfact>
</mgrwt>
</event>
<event>
 6    1  0.8947013E-004  0.4369414E+03  0.7818608E-02  0.1031726E+00
         21   -1    0    0  501  502  0.00000000000E+00  0.00000000000E+00  0.30765386885E+03  0.30765386885E+03  0.00000000000E+00 0.  1.
         21   -1    0    0  502  503 -0.00000000000E+00 -0.00000000000E+00 -0.12281538687E+04  0.12281538687E+04  0.00000000000E+00 0.  1.
    9000007    2    1    2  501    0  0.38482668845E+02 -0.17157177445E+03  0.80293875789E+02  0.44378842861E+03  0.39947875199E+03 0.  0.
    9000005    1    3    3    0    0  0.57193036640E+02  0.10244690067E+03 -0.63874050930E+02  0.13359380701E+03  0.99999687468E+00 0.  0.
          4    1    3    3  501    0 -0.18710367796E+02 -0.27401867512E+03  0.14416792672E+03  0.31019462160E+03  0.00000000000E+00 0.  1.
   -9000007    1    1    2    0  503 -0.38482668845E+02  0.17157177445E+03 -0.10007938756E+04  0.10920193089E+04  0.40000000000E+03 0.  1.
<mgrwt>
<rscale>  2 0.43682207E+03</rscale>
<asrwt>0</asrwt>
<pdfrwt beam="1">  1       21 0.47331364E-01 0.43694140E+03</pdfrwt>
<pdfrwt beam="2">  1       21 0.18894675E+00 0.43694140E+03</pdfrwt>
<totfact> 0.56368400E+02</totfact>
</mgrwt>
</event>
<event>
 6    1  0.8947013E-004  0.4292341E+03  0.7818608E-02  0.1034170E+00
         21   -1    0    0  501  502  0.00000000000E+00  0.00000000000E+00  0.53266581290E+03  0.53266581290E+03  0.00000000000E+00 0.  1.
         21   -1    0    0  502  503 -0.00000000000E+00 -0.00000000000E+00 -0.35657491952E+03  0.35657491952E+03  0.00000000000E+00 0. -1.
    9000007    2    1    2  501    0 -0.11799621209E+03  0.97897798031E+02  0.16755559204E+03  0.46077843969E+03  0.40091745925E+03 0.  0.
    9000005    1    3    3    0    0  0.17195267462E+02 -0.11062302454E+03 -0.57187017605E+02  0.12571589302E+03  0.99999687468E+00 0.  0.
          4    1    3    3  501    0 -0.13519147955E+03  0.20852082257E+03  0.22474260964E+03  0.33506254666E+03  0.00000000000E+00 0.  1.
   -9000007    1    1    2    0  503  0.11799621209E+03 -0.97897798031E+02  0.85353013419E+01  0.42846229273E+03  0.40000000000E+03 0.  1.
<mgrwt>
<rscale>  2 0.42901972E+03</rscale>
<asrwt>0</asrwt>
<pdfrwt beam="1">  1       21 0.81948587E-01 0.42923408E+03</pdfrwt>
<pdfrwt beam="2">  1       21 0.54857680E-01 0.42923408E+03</pdfrwt>
<totfact> 0.35951695E+03</totfact>
</mgrwt>
</event>
<event>
 6    1  0.8947013E-004  0.4785345E+03  0.7818608E-02  0.1019584E+00
         21   -1    0    0  501  502  0.00000000000E+00  0.00000000000E+00  0.21752930016E+03  0.21752930016E+03  0.00000000000E+00 0.  1.
         21   -1    0    0  502  503 -0.00000000000E+00 -0.00000000000E+00 -0.10561672010E+04  0.10561672010E+04  0.00000000000E+00 0.  1.
    9000007    2    1    2  501    0 -0.19473869011E+03  0.17449284423E+03 -0.37625816812E+03  0.60874091818E+03  0.40077972288E+03 0.  0.
    9000005    1    3    3    0    0  0.41000962643E+02 -0.10963933340E+02  0.63527819436E+02  0.76407268032E+02  0.99999687468E+00 0.  0.
          4    1    3    3  501    0 -0.23573965275E+03  0.18545677757E+03 -0.43978598756E+03  0.53233365015E+03  0.00000000000E+00 0.  1.
   -9000007    1    1    2    0  503  0.19473869011E+03 -0.17449284423E+03 -0.46237973272E+03  0.66495558299E+03  0.40000000000E+03 0.  1.
<mgrwt>
<rscale>  2 0.47837124E+03</rscale>
<asrwt>0</asrwt>
<pdfrwt beam="1">  1       21 0.33466046E-01 0.47853453E+03</pdfrwt>
<pdfrwt beam="2">  1       21 0.16248726E+00 0.47853453E+03</pdfrwt>
<totfact> 0.17484019E+03</totfact>
</mgrwt>
</event>
<event>
 6    1  0.8947013E-004  0.4100580E+03  0.7818608E-02  0.1040471E+00
         21   -1    0    0  501  502  0.00000000000E+00  0.00000000000E+00  0.23282876807E+03  0.23282876807E+03  0.00000000000E+00 0. -1.
         21   -1    0    0  502  503 -0.00000000000E+00 -0.00000000000E+00 -0.73046291896E+03  0.73046291896E+03  0.00000000000E+00 0. -1.
    9000007    2    1    2  501    0 -0.11576318927E+01 -0.83568038858E+02 -0.30771976441E+03  0.51267829239E+03  0.40145064560E+03 0.  0.
    9000005    1    3    3    0    0  0.81258276849E+02 -0.15418444698E+03 -0.35408694700E+03  0.39465721491E+03  0.99999687468E+00 0.  0.
          4    1    3    3  501    0 -0.82415908742E+02  0.70616408124E+02  0.46367182588E+02  0.11802107749E+03  0.00000000000E+00 0.  1.
   -9000007    1    1    2    0  503  0.11576318927E+01  0.83568038858E+02 -0.18991438648E+03  0.45061339463E+03  0.40000000000E+03 0. -1.
<mgrwt>
<rscale>  2 0.40970253E+03</rscale>
<asrwt>0</asrwt>
<pdfrwt beam="1">  1       21 0.35819811E-01 0.41005802E+03</pdfrwt>
<pdfrwt beam="2">  1       21 0.11237891E+00 0.41005802E+03</pdfrwt>
<totfact> 0.41296005E+03</totfact>
</mgrwt>
</event>
<event>
 6    1  0.8947013E-004  0.4094112E+03  0.7818608E-02  0.1040700E+00
         21   -1    0    0  501  502  0.00000000000E+00  0.00000000000E+00  0.54067672050E+03  0.54067672050E+03  0.00000000000E+00 0.  1.
         21   -1    0    0  502  503 -0.00000000000E+00 -0.00000000000E+00 -0.38257195356E+03  0.38257195356E+03  0.00000000000E+00 0.  1.
    9000007    2    1    2  501    0  0.24069235836E+02  0.83894014572E+02 -0.12373465590E+03  0.42620642831E+03  0.39840195866E+03 0.  0.
    9000005    1    3    3    0    0  0.79621233222E+02  0.19896952406E+03  0.40512094838E+02  0.21810695107E+03  0.99999687468E+00 0.  0.
          4    1    3    3  501    0 -0.55551997385E+02 -0.11507550949E+03 -0.16424675074E+03  0.20809947724E+03  0.00000000000E+00 0.  1.
   -9000007    1    1    2    0  503 -0.24069235836E+02 -0.83894014572E+02  0.28183942284E+03  0.49704224575E+03  0.40000000000E+03 0.  1.
<mgrwt>
<rscale>  2 0.40902035E+03</rscale>
<asrwt>0</asrwt>
<pdfrwt beam="1">  1       21 0.83181035E-01 0.40941120E+03</pdfrwt>
<pdfrwt beam="2">  1       21 0.58857223E-01 0.40941120E+03</pdfrwt>
<totfact> 0.30036440E+03</totfact>
</mgrwt>
</event>
<event>
 6    1  0.8947013E-004  0.5597895E+03  0.7818608E-02  0.9993052E-01
         21   -1    0    0  501  502  0.00000000000E+00  0.00000000000E+00  0.21952157502E+03  0.21952157502E+03  0.00000000000E+00 0. -1.
         21   -1    0    0  502  503 -0.00000000000E+00 -0.00000000000E+00 -0.14334140504E+04  0.14334140504E+04  0.00000000000E+00 0. -1.
    9000007    2    1    2  501    0 -0.32265770587E+03  0.21960789999E+03 -0.54466424122E+03  0.78103995832E+03  0.40128375987E+03 0.  0.
    9000005    1    3    3    0    0  0.21016815419E+02  0.20041998571E+03 -0.12056179506E+03  0.23483190504E+03  0.99999687468E+00 0.  0.
          4    1    3    3  501    0 -0.34367452129E+03  0.19187914284E+02 -0.42410244615E+03  0.54620805328E+03  0.00000000000E+00 0.  1.
   -9000007    1    1    2    0  503  0.32265770587E+03 -0.21960789999E+03 -0.66922823418E+03  0.87189566710E+03  0.40000000000E+03 0. -1.
<mgrwt>
<rscale>  2 0.55955947E+03</rscale>
<asrwt>0</asrwt>
<pdfrwt beam="1">  1       21 0.33772550E-01 0.55978950E+03</pdfrwt>
<pdfrwt beam="2">  1       21 0.22052524E+00 0.55978950E+03</pdfrwt>
<totfact> 0.66209368E+02</totfact>
</mgrwt>
</event>
<event>
 6    1  0.8947013E-004  0.5432474E+03  0.7818608E-02  0.1003112E+00
         21   -1    0    0  501  502  0.00000000000E+00  0.00000000000E+00  0.43034265578E+03  0.43034265578E+03  0.00000000000E+00 0. -1.
         21   -1    0    0  502  503 -0.00000000000E+00 -0.00000000000E+00 -0.70429683545E+03  0.70429683545E+03  0.00000000000E+00 0. -1.
    9000007    2    1    2  501    0 -0.23686806819E+03 -0.28108940337E+03 -0.42628000550E+02  0.54419090282E+03  0.39900984683E+03 0.  0.
    9000005    1    3    3    0    0 -0.12808773944E+03 -0.30774396383E+02  0.15780867362E+03  0.20556777455E+03  0.99999687468E+00 0.  0.
          4    1    3    3  501    0 -0.10878032875E+03 -0.25031500699E+03 -0.20043667417E+03  0.33862312827E+03  0.00000000000E+00 0.  1.
   -9000007    1    1    2    0  503  0.23686806819E+03  0.28108940337E+03 -0.23132617912E+03  0.59044858841E+03  0.40000000000E+03 0. -1.
<mgrwt>
<rscale>  2 0.54306514E+03</rscale>
<asrwt>0</asrwt>
<pdfrwt beam="1">  1       21 0.66206563E-01 0.54324740E+03</pdfrwt>
<pdfrwt beam="2">  1       21 0.10835336E+00 0.54324740E+03</pdfrwt>
<totfact> 0.11692470E+03</totfact>
</mgrwt>
</event>
<event>
 6    1  0.8947013E-004  0.4030628E+03  0.7818608E-02  0.1042754E+00
         21   -1    0    0  501  502  0.00000000000E+00  0.00000000000E+00  0.69680647438E+03  0.69680647438E+03  0.00000000000E+00 0.  1.
         21   -1    0    0  502  503 -0.00000000000E+00 -0.00000000000E+00 -0.24446541322E+03  0.24446541322E+03  0.00000000000E+00 0.  1.
    9000007    2    1    2  501    0  0.36396784076E+02 -0.29249011317E+02  0.32841551041E+03  0.51991957340E+03  0.40034907864E+03 0.  0.
    9000005    1    3    3    0    0 -0.26961318116E+02 -0.19070754767E+03  0.27999136604E+03  0.33984179622E+03  0.99999687468E+00 0.  0.
          4    1    3    3  501    0  0.63358102192E+02  0.16145853635E+03  0.48424144374E+02  0.18007777717E+03  0.00000000000E+00 0.  1.
   -9000007    1    1    2    0  503 -0.36396784076E+02  0.29249011317E+02  0.12392555075E+03  0.42135231420E+03  0.40000000000E+03 0.  1.
<mgrwt>
<rscale>  2 0.40297608E+03</rscale>
<asrwt>0</asrwt>
<pdfrwt beam="1">  1       21 0.10720100E+00 0.40306279E+03</pdfrwt>
<pdfrwt beam="2">  1       21 0.37610064E-01 0.40306279E+03</pdfrwt>
<totfact> 0.42144072E+03</totfact>
</mgrwt>
</event>
<event>
 6    1  0.8947013E-004  0.5866577E+03  0.7818608E-02  0.9933796E-01
         21   -1    0    0  501  502  0.00000000000E+00  0.00000000000E+00  0.96553603444E+03  0.96553603444E+03  0.00000000000E+00 0.  1.
         21   -1    0    0  502  503 -0.00000000000E+00 -0.00000000000E+00 -0.46792024062E+03  0.46792024062E+03  0.00000000000E+00 0.  1.
    9000007    2    1    2  501    0 -0.41359592700E+03 -0.11448001691E+03  0.59909560953E+03  0.83808629085E+03  0.39913132732E+03 0.  0.
    9000005    1    3    3    0    0 -0.39247713690E+03 -0.22093060412E+03  0.36378436736E+03  0.57895483481E+03  0.99999687468E+00 0.  0.
          4    1    3    3  501    0 -0.21118790099E+02  0.10645058721E+03  0.23531124217E+03  0.25913145603E+03  0.00000000000E+00 0.  1.
   -9000007    1    1    2    0  503  0.41359592700E+03  0.11448001691E+03 -0.10147981571E+03  0.59536998421E+03  0.40000000000E+03 0.  1.
<mgrwt>
<rscale>  2 0.58650967E+03</rscale>
<asrwt>0</asrwt>
<pdfrwt beam="1">  1       21 0.14854400E+00 0.58665771E+03</pdfrwt>
<pdfrwt beam="2">  1       21 0.71987730E-01 0.58665771E+03</pdfrwt>
<totfact> 0.41987776E+02</totfact>
</mgrwt>
</event>
<event>
 6    1  0.8947013E-004  0.4552157E+03  0.7818608E-02  0.1026243E+00
         21   -1    0    0  501  502  0.00000000000E+00  0.00000000000E+00  0.30000877400E+03  0.30000877400E+03  0.00000000000E+00 0. -1.
         21   -1    0    0  502  503 -0.00000000000E+00 -0.00000000000E+00 -0.75907739931E+03  0.75907739931E+03  0.00000000000E+00 0. -1.
    9000007    2    1    2  501    0  0.12837245664E+03  0.17533363331E+03 -0.68858599747E+02  0.45951529790E+03  0.39898800940E+03 0.  0.
    9000005    1    3    3    0    0  0.11189714473E+03 -0.62483009547E+02  0.10400064614E+03  0.16505220953E+03  0.99999687468E+00 0.  0.
          4    1    3    3  501    0  0.16475311919E+02  0.23781664286E+03 -0.17285924588E+03  0.29446308837E+03  0.00000000000E+00 0.  1.
   -9000007    1    1    2    0  503 -0.12837245664E+03 -0.17533363331E+03 -0.39021002557E+03  0.59957087542E+03  0.40000000000E+03 0. -1.
<mgrwt>
<rscale>  2 0.45499333E+03</rscale>
<asrwt>0</asrwt>
<pdfrwt beam="1">  1       21 0.46155196E-01 0.45521574E+03</pdfrwt>
<pdfrwt beam="2">  1       21 0.11678114E+00 0.45521574E+03</pdfrwt>
<totfact> 0.21862490E+03</totfact>
</mgrwt>
</event>
<event>
 6    1  0.8947013E-004  0.4547480E+03  0.7818608E-02  0.1026905E+00
         21   -1    0    0  501  502  0.00000000000E+00  0.00000000000E+00  0.13765174020E+04  0.13765174020E+04  0.00000000000E+00 0.  1.
         21   -1    0    0  502  503 -0.00000000000E+00 -0.00000000000E+00 -0.32014644332E+03  0.32014644332E+03  0.00000000000E+00 0. -1.
    9000007    2    1    2  501    0 -0.12490268591E+02  0.19871241532E+03  0.11530731173E+04  0.12395052970E+04  0.40884365783E+03 0.  0.
    9000005    1    3    3    0    0  0.11341664924E+02 -0.42305695464E+01 -0.33412981147E+02  0.35552192406E+02  0.99999687468E+00 0.  0.
          4    1    3    3  501    0 -0.23831933515E+02  0.20294298487E+03  0.11864860985E+04  0.12039531046E+04  0.00000000000E+00 0.  1.
   -9000007    1    1    2    0  503  0.12490268591E+02 -0.19871241532E+03 -0.96702158652E+02  0.45715854832E+03  0.40000000000E+03 0. -1.
<mgrwt>
<rscale>  2 0.45275137E+03</rscale>
<asrwt>0</asrwt>
<pdfrwt beam="1">  1       21 0.21177190E+00 0.45474803E+03</pdfrwt>
<pdfrwt beam="2">  1       21 0.49253300E-01 0.45474803E+03</pdfrwt>
<totfact> 0.36176581E+02</totfact>
</mgrwt>
</event>
<event>
 6    1  0.8947013E-004  0.4532640E+03  0.7818608E-02  0.1026757E+00
         21   -1    0    0  501  502  0.00000000000E+00  0.00000000000E+00  0.80950121782E+03  0.80950121782E+03  0.00000000000E+00 0.  1.
         21   -1    0    0  502  503 -0.00000000000E+00 -0.00000000000E+00 -0.25812120943E+03  0.25812120943E+03  0.00000000000E+00 0.  1.
    9000007    2    1    2  501    0 -0.18531457927E+03 -0.10515449697E+03  0.20636430546E+03  0.49803064642E+03  0.40006166609E+03 0.  0.
    9000005    1    3    3    0    0  0.11431773010E+03 -0.46137144565E+02  0.13806928345E+03  0.18509809980E+03  0.99999687468E+00 0.  0.
          4    1    3    3  501    0 -0.29963230936E+03 -0.59017352408E+02  0.68295022011E+02  0.31293254662E+03  0.00000000000E+00 0.  1.
   -9000007    1    1    2    0  503  0.18531457927E+03  0.10515449697E+03  0.34501570293E+03  0.56959178083E+03  0.40000000000E+03 0.  1.
<mgrwt>
<rscale>  2 0.45325044E+03</rscale>
<asrwt>0</asrwt>
<pdfrwt beam="1">  1       21 0.12453865E+00 0.45326405E+03</pdfrwt>
<pdfrwt beam="2">  1       21 0.39710956E-01 0.45326405E+03</pdfrwt>
<totfact> 0.25397381E+03</totfact>
</mgrwt>
</event>
<event>
 6    1  0.8947013E-004  0.4822439E+03  0.7818608E-02  0.1018550E+00
         21   -1    0    0  501  502  0.00000000000E+00  0.00000000000E+00  0.18187511160E+03  0.18187511160E+03  0.00000000000E+00 0.  1.
         21   -1    0    0  502  503 -0.00000000000E+00 -0.00000000000E+00 -0.14616729256E+04  0.14616729256E+04  0.00000000000E+00 0.  1.
    9000007    2    1    2  501    0 -0.21252777642E+02  0.26774762035E+03 -0.93183449510E+03  0.10492257845E+04  0.40052309779E+03 0.  0.
    9000005    1    3    3    0    0 -0.16533357034E+03 -0.13345202831E+02 -0.29841176898E+03  0.34141451020E+03  0.99999687468E+00 0.  0.
          4    1    3    3  501    0  0.14408079269E+03  0.28109282318E+03 -0.63342272612E+03  0.70781127431E+03  0.00000000000E+00 0.  1.
   -9000007    1    1    2    0  503  0.21252777642E+02 -0.26774762035E+03 -0.34796331893E+03  0.59432225272E+03  0.40000000000E+03 0.  1.
<mgrwt>
<rscale>  2 0.48213531E+03</rscale>
<asrwt>0</asrwt>
<pdfrwt beam="1">  1       21 0.27980786E-01 0.48224394E+03</pdfrwt>
<pdfrwt beam="2">  1       21 0.22487276E+00 0.48224394E+03</pdfrwt>
<totfact> 0.93400860E+02</totfact>
</mgrwt>
</event>
<event>
 6    1  0.8947013E-004  0.4033753E+03  0.7818608E-02  0.1042624E+00
         21   -1    0    0  501  502  0.00000000000E+00  0.00000000000E+00  0.19288400472E+04  0.19288400472E+04  0.00000000000E+00 0. -1.
         21   -1    0    0  502  503 -0.00000000000E+00 -0.00000000000E+00 -0.15532975197E+03  0.15532975197E+03  0.00000000000E+00 0. -1.
    9000007    2    1    2  501    0  0.47985956641E+02 -0.20224099942E+02  0.18222842041E+03  0.44255788663E+03  0.39992326709E+03 0.  0.
    9000005    1    3    3    0    0  0.71987010937E+02 -0.82144910783E+02 -0.10273934496E+03  0.14995429006E+03  0.99999687468E+00 0.  0.
          4    1    3    3  501    0 -0.24001054296E+02  0.61920810841E+02  0.28496776537E+03  0.29260359656E+03  0.00000000000E+00 0.  1.
   -9000007    1    1    2    0  503 -0.47985956641E+02  0.20224099942E+02  0.15912818748E+04  0.16416119126E+04  0.40000000000E+03 0. -1.
<mgrwt>
<rscale>  2 0.40335632E+03</rscale>
<asrwt>0</asrwt>
<pdfrwt beam="1">  1       21 0.29674461E+00 0.40337534E+03</pdfrwt>
<pdfrwt beam="2">  1       21 0.23896886E-01 0.40337534E+03</pdfrwt>
<totfact> 0.48222617E+02</totfact>
</mgrwt>
</event>
<event>
 6    1  0.8947013E-004  0.4792421E+03  0.7818608E-02  0.1019353E+00
         21   -1    0    0  501  502  0.00000000000E+00  0.00000000000E+00  0.47965804091E+03  0.47965804091E+03  0.00000000000E+00 0. -1.
         21   -1    0    0  502  503 -0.00000000000E+00 -0.00000000000E+00 -0.10653189432E+04  0.10653189432E+04  0.00000000000E+00 0. -1.
    9000007    2    1    2  501    0  0.24955436191E+03 -0.85226256931E+02  0.28038780457E+03  0.55523901017E+03  0.40016514471E+03 0.  0.
    9000005    1    3    3    0    0  0.31510289699E+03  0.33771347412E+02  0.27448633401E+03  0.41925420350E+03  0.99999687468E+00 0.  0.
          4    1    3    3  501    0 -0.65548535076E+02 -0.11899760434E+03  0.59014705526E+01  0.13598480667E+03  0.00000000000E+00 0.  1.
   -9000007    1    1    2    0  503 -0.24955436191E+03  0.85226256931E+02 -0.86604870691E+03  0.98973797399E+03  0.40000000000E+03 0. -1.
<mgrwt>
<rscale>  2 0.47920767E+03</rscale>
<asrwt>0</asrwt>
<pdfrwt beam="1">  1       21 0.73793545E-01 0.47924215E+03</pdfrwt>
<pdfrwt beam="2">  1       21 0.16389522E+00 0.47924215E+03</pdfrwt>
<totfact> 0.31548575E+02</totfact>
</mgrwt>
</event>
<event>
 6    1  0.8947013E-004  0.4069672E+03  0.7818608E-02  0.1041409E+00
         21   -1    0    0  501  502  0.00000000000E+00  0.00000000000E+00  0.14776086487E+03  0.14776086487E+03  0.00000000000E+00 0. -1.
         21   -1    0    0  502  503 -0.00000000000E+00 -0.00000000000E+00 -0.11982060549E+04  0.11982060549E+04  0.00000000000E+00 0. -1.
    9000007    2    1    2  501    0 -0.43579957859E+02 -0.59790952731E+02 -0.35381729150E+03  0.53926709964E+03  0.40018515495E+03 0.  0.
    9000005    1    3    3    0    0  0.13391009014E+03 -0.34032650330E+01  0.60219626484E+01  0.13409235057E+03  0.99999687468E+00 0.  0.
          4    1    3    3  501    0 -0.17749004800E+03 -0.56387687698E+02 -0.35983925415E+03  0.40517474907E+03  0.00000000000E+00 0.  1.
   -9000007    1    1    2    0  503  0.43579957859E+02  0.59790952731E+02 -0.69662789849E+03  0.80669982008E+03  0.40000000000E+03 0. -1.
<mgrwt>
<rscale>  2 0.40692171E+03</rscale>
<asrwt>0</asrwt>
<pdfrwt beam="1">  1       21 0.22732441E-01 0.40696723E+03</pdfrwt>
<pdfrwt beam="2">  1       21 0.18433939E+00 0.40696723E+03</pdfrwt>
<totfact> 0.26830348E+03</totfact>
</mgrwt>
</event>
<event>
 6    1  0.8947013E-004  0.4161955E+03  0.7818608E-02  0.1038379E+00
         21   -1    0    0  501  502  0.00000000000E+00  0.00000000000E+00  0.49178537692E+03  0.49178537692E+03  0.00000000000E+00 0.  1.
         21   -1    0    0  502  503 -0.00000000000E+00 -0.00000000000E+00 -0.40933942767E+03  0.40933942767E+03  0.00000000000E+00 0.  1.
    9000007    2    1    2  501    0  0.32170684218E+02  0.11037994413E+03  0.21050342290E+03  0.46567400191E+03  0.39915147503E+03 0.  0.
    9000005    1    3    3    0    0 -0.14079565094E+03  0.13792787622E+03  0.70638592212E+01  0.19722680463E+03  0.99999687468E+00 0.  0.
          4    1    3    3  501    0  0.17296633516E+03 -0.27547932090E+02  0.20343956367E+03  0.26844719728E+03  0.00000000000E+00 0.  1.
   -9000007    1    1    2    0  503 -0.32170684218E+02 -0.11037994413E+03 -0.12805747364E+03  0.43545080267E+03  0.40000000000E+03 0.  1.
<mgrwt>
<rscale>  2 0.41599148E+03</rscale>
<asrwt>0</asrwt>
<pdfrwt beam="1">  1       21 0.75659289E-01 0.41619549E+03</pdfrwt>
<pdfrwt beam="2">  1       21 0.62975297E-01 0.41619549E+03</pdfrwt>
<totfact> 0.32125831E+03</totfact>
</mgrwt>
</event>
<event>
 6    1  0.8947013E-004  0.4078454E+03  0.7818608E-02  0.1041097E+00
         21   -1    0    0  501  502  0.00000000000E+00  0.00000000000E+00  0.55283581461E+03  0.55283581461E+03  0.00000000000E+00 0.  1.
         21   -1    0    0  502  503 -0.00000000000E+00 -0.00000000000E+00 -0.15970079233E+04  0.15970079233E+04  0.00000000000E+00 0.  1.
    9000007    2    1    2  501    0 -0.79558534188E+02  0.44517951750E+00  0.44629835874E+03  0.60458260372E+03  0.40001017632E+03 0.  0.
    9000005    1    3    3    0    0  0.10313863032E+03 -0.13569651343E+03  0.25688278073E+03  0.30828701537E+03  0.99999687468E+00 0.  0.
          4    1    3    3  501    0 -0.18269716451E+03  0.13614169295E+03  0.18941557801E+03  0.29629558834E+03  0.00000000000E+00 0.  1.
   -9000007    1    1    2    0  503  0.79558534188E+02 -0.44517951750E+00 -0.14904704675E+04  0.15452611342E+04  0.40000000000E+03 0.  1.
<mgrwt>
<rscale>  2 0.40784294E+03</rscale>
<asrwt>0</asrwt>
<pdfrwt beam="1">  1       21 0.85051663E-01 0.40784544E+03</pdfrwt>
<pdfrwt beam="2">  1       21 0.24569353E+00 0.40784544E+03</pdfrwt>
<totfact> 0.67569720E+01</totfact>
</mgrwt>
</event>
<event>
 6    1  0.8947013E-004  0.5451954E+03  0.7818608E-02  0.1002809E+00
         21   -1    0    0  501  502  0.00000000000E+00  0.00000000000E+00  0.30857368794E+03  0.30857368794E+03  0.00000000000E+00 0.  1.
         21   -1    0    0  502  503 -0.00000000000E+00 -0.00000000000E+00 -0.15554432986E+04  0.15554432986E+04  0.00000000000E+00 0. -1.
    9000007    2    1    2  501    0 -0.33301612681E+03 -0.16229073256E+03 -0.44323561130E+02  0.54365528464E+03  0.39542188591E+03 0.  0.
    9000005    1    3    3    0    0 -0.38559033436E+03 -0.22486037740E+03 -0.81711432809E+02  0.45378392823E+03  0.99999687468E+00 0.  0.
          4    1    3    3  501    0  0.52574207549E+02  0.62569644833E+02  0.37387871679E+02  0.89871356408E+02  0.00000000000E+00 0.  1.
   -9000007    1    1    2    0  503  0.33301612681E+03  0.16229073256E+03 -0.12025460496E+04  0.13203617019E+04  0.40000000000E+03 0. -1.
<mgrwt>
<rscale>  2 0.54435597E+03</rscale>
<asrwt>0</asrwt>
<pdfrwt beam="1">  1       21 0.47472876E-01 0.54519540E+03</pdfrwt>
<pdfrwt beam="2">  1       21 0.23929896E+00 0.54519540E+03</pdfrwt>
<totfact> 0.25013786E+02</totfact>
</mgrwt>
</event>
<event>
 6    1  0.8947013E-004  0.4769388E+03  0.7818608E-02  0.1020009E+00
         21   -1    0    0  501  502  0.00000000000E+00  0.00000000000E+00  0.57177324203E+03  0.57177324203E+03  0.00000000000E+00 0. -1.
         21   -1    0    0  502  503 -0.00000000000E+00 -0.00000000000E+00 -0.39837881043E+03  0.39837881043E+03  0.00000000000E+00 0. -1.
    9000007    2    1    2  501    0 -0.20415191675E+03 -0.15934278369E+03  0.10975600689E+03  0.48940474157E+03  0.40050279924E+03 0.  0.
    9000005    1    3    3    0    0 -0.16029511336E+03 -0.12395460068E+03  0.25959599350E+03  0.32931800168E+03  0.99999687468E+00 0.  0.
          4    1    3    3  501    0 -0.43856803390E+02 -0.35388183008E+02 -0.14983998661E+03  0.16008673989E+03  0.00000000000E+00 0.  1.
   -9000007    1    1    2    0  503  0.20415191675E+03  0.15934278369E+03  0.63638424719E+02  0.48074731089E+03  0.40000000000E+03 0. -1.
<mgrwt>
<rscale>  2 0.47683323E+03</rscale>
<asrwt>0</asrwt>
<pdfrwt beam="1">  1       21 0.87965114E-01 0.47693880E+03</pdfrwt>
<pdfrwt beam="2">  1       21 0.61289048E-01 0.47693880E+03</pdfrwt>
<totfact> 0.23522261E+03</totfact>
</mgrwt>
</event>
<event>
 6    1  0.8947013E-004  0.4725709E+03  0.7818608E-02  0.1021212E+00
         21   -1    0    0  501  502  0.00000000000E+00  0.00000000000E+00  0.80976564313E+03  0.80976564313E+03  0.00000000000E+00 0.  1.
         21   -1    0    0  502  503 -0.00000000000E+00 -0.00000000000E+00 -0.27946171004E+03  0.27946171004E+03  0.00000000000E+00 0.  1.
    9000007    2    1    2  501    0  0.22085533063E+03 -0.11976321568E+03  0.20170882733E+03  0.51381876057E+03  0.40025362309E+03 0.  0.
    9000005    1    3    3    0    0  0.94899034503E+02  0.60961212517E+02  0.26215304004E+03  0.28538975556E+03  0.99999687468E+00 0.  0.
          4    1    3    3  501    0  0.12595629613E+03 -0.18072442820E+03 -0.60444212713E+02  0.22842900502E+03  0.00000000000E+00 0.  1.
   -9000007    1    1    2    0  503 -0.22085533063E+03  0.11976321568E+03  0.32859510577E+03  0.57540859260E+03  0.40000000000E+03 0.  1.
<mgrwt>
<rscale>  2 0.47251721E+03</rscale>
<asrwt>0</asrwt>
<pdfrwt beam="1">  1       21 0.12457933E+00 0.47257091E+03</pdfrwt>
<pdfrwt beam="2">  1       21 0.42994110E-01 0.47257091E+03</pdfrwt>
<totfact> 0.21373746E+03</totfact>
</mgrwt>
</event>
<event>
 6    1  0.8947013E-004  0.4189586E+03  0.7818608E-02  0.1037544E+00
         21   -1    0    0  501  502  0.00000000000E+00  0.00000000000E+00  0.33772413417E+03  0.33772413417E+03  0.00000000000E+00 0.  1.
         21   -1    0    0  502  503 -0.00000000000E+00 -0.00000000000E+00 -0.52105703622E+03  0.52105703622E+03  0.00000000000E+00 0.  1.
    9000007    2    1    2  501    0  0.13022199076E+02 -0.11807185708E+03 -0.57051221361E+02  0.42282520474E+03  0.40176581587E+03 0.  0.
    9000005    1    3    3    0    0 -0.17920833752E+02 -0.21427676746E+03  0.99148000026E+02  0.23678474456E+03  0.99999687468E+00 0.  0.
          4    1    3    3  501    0  0.30943032828E+02  0.96204910377E+02 -0.15619922139E+03  0.18604046018E+03  0.00000000000E+00 0.  1.
   -9000007    1    1    2    0  503 -0.13022199076E+02  0.11807185708E+03 -0.12628168070E+03  0.43595596565E+03  0.40000000000E+03 0.  1.
<mgrwt>
<rscale>  2 0.41853470E+03</rscale>
<asrwt>0</asrwt>
<pdfrwt beam="1">  1       21 0.51957559E-01 0.41895860E+03</pdfrwt>
<pdfrwt beam="2">  1       21 0.80162621E-01 0.41895860E+03</pdfrwt>
<totfact> 0.42665928E+03</totfact>
</mgrwt>
</event>
<event>
 6    1  0.8947013E-004  0.4047810E+03  0.7818608E-02  0.1042152E+00
         21   -1    0    0  501  502  0.00000000000E+00  0.00000000000E+00  0.98608826244E+03  0.98608826244E+03  0.00000000000E+00 0.  1.
         21   -1    0    0  502  503 -0.00000000000E+00 -0.00000000000E+00 -0.26928490234E+03  0.26928490234E+03  0.00000000000E+00 0.  1.
    9000007    2    1    2  501    0 -0.47212016611E+02  0.38408142009E+02  0.74702381697E+03  0.84964242168E+03  0.40017933694E+03 0.  0.
    9000005    1    3    3    0    0  0.14419423754E+03  0.29218615334E+02  0.57027763649E+03  0.58895100670E+03  0.99999687468E+00 0.  0.
          4    1    3    3  501    0 -0.19140625415E+03  0.91895266750E+01  0.17674618048E+03  0.26069141498E+03  0.00000000000E+00 0.  1.
   -9000007    1    1    2    0  503  0.47212016611E+02 -0.38408142009E+02 -0.30220456870E+02  0.40573074310E+03  0.40000000000E+03 0.  1.
<mgrwt>
<rscale>  2 0.40473667E+03</rscale>
<asrwt>0</asrwt>
<pdfrwt beam="1">  1       21 0.15170588E+00 0.40478100E+03</pdfrwt>
<pdfrwt beam="2">  1       21 0.41428447E-01 0.40478100E+03</pdfrwt>
<totfact> 0.14107229E+03</totfact>
</mgrwt>
</event>
<event>
 6    1  0.8947013E-004  0.4148929E+03  0.7818608E-02  0.1038824E+00
         21   -1    0    0  501  502  0.00000000000E+00  0.00000000000E+00  0.97709444565E+03  0.97709444565E+03  0.00000000000E+00 0. -1.
         21   -1    0    0  502  503 -0.00000000000E+00 -0.00000000000E+00 -0.39272857759E+03  0.39272857759E+03  0.00000000000E+00 0. -1.
    9000007    2    1    2  501    0 -0.17783504459E+02  0.10871933299E+03  0.80112059794E+03  0.90172179559E+03  0.39896345421E+03 0.  0.
    9000005    1    3    3    0    0  0.18325964403E+03  0.66710332997E+02  0.50496201253E+03  0.54131506515E+03  0.99999687468E+00 0.  0.
          4    1    3    3  501    0 -0.20104314849E+03  0.42008999994E+02  0.29615858541E+03  0.36040673044E+03  0.00000000000E+00 0.  1.
   -9000007    1    1    2    0  503  0.17783504459E+02 -0.10871933299E+03 -0.21675472989E+03  0.46810122765E+03  0.40000000000E+03 0. -1.
<mgrwt>
<rscale>  2 0.41464290E+03</rscale>
<asrwt>0</asrwt>
<pdfrwt beam="1">  1       21 0.15032222E+00 0.41489293E+03</pdfrwt>
<pdfrwt beam="2">  1       21 0.60419782E-01 0.41489293E+03</pdfrwt>
<totfact> 0.64554887E+02</totfact>
</mgrwt>
</event>
<event>
 6    1  0.8947013E-004  0.4931777E+03  0.7818608E-02  0.1015575E+00
         21   -1    0    0  501  502  0.00000000000E+00  0.00000000000E+00  0.97325342033E+03  0.97325342033E+03  0.00000000000E+00 0. -1.
         21   -1    0    0  502  503 -0.00000000000E+00 -0.00000000000E+00 -0.37197446331E+03  0.37197446331E+03  0.00000000000E+00 0.  1.
    9000007    2    1    2  501    0  0.22982468478E+02  0.28756923843E+03 -0.84671055500E+02  0.50038962669E+03  0.39999541260E+03 0.  0.
    9000005    1    3    3    0    0  0.17162258155E+03  0.26502977670E+03  0.21285952140E+02  0.31646355997E+03  0.99999687468E+00 0.  0.
          4    1    3    3  501    0 -0.14864011307E+03  0.22539461737E+02 -0.10595700764E+03  0.18392606672E+03  0.00000000000E+00 0.  1.
   -9000007    1    1    2    0  503 -0.22982468478E+02 -0.28756923843E+03  0.68595001252E+03  0.84483825696E+03  0.40000000000E+03 0. -1.
<mgrwt>
<rscale>  2 0.49317679E+03</rscale>
<asrwt>0</asrwt>
<pdfrwt beam="1">  1       21 0.14973129E+00 0.49317772E+03</pdfrwt>
<pdfrwt beam="2">  1       21 0.57226841E-01 0.49317772E+03</pdfrwt>
<totfact> 0.70944322E+02</totfact>
</mgrwt>
</event>
<event>
 6    1  0.8947013E-004  0.4174674E+03  0.7818608E-02  0.1037903E+00
         21   -1    0    0  501  502  0.00000000000E+00  0.00000000000E+00  0.17167772007E+03  0.17167772007E+03  0.00000000000E+00 0. -1.
         21   -1    0    0  502  503 -0.00000000000E+00 -0.00000000000E+00 -0.17577051604E+04  0.17577051604E+04  0.00000000000E+00 0. -1.
    9000007    2    1    2  501    0  0.95210489128E+02 -0.71584281545E+02 -0.16594563614E+03  0.44924042881E+03  0.40011206196E+03 0.  0.
    9000005    1    3    3    0    0  0.22268434868E+03 -0.62086116931E+02  0.10429618920E+02  0.23141474025E+03  0.99999687468E+00 0.  0.
          4    1    3    3  501    0 -0.12747385955E+03 -0.94981646139E+01 -0.17637525506E+03  0.21782568856E+03  0.00000000000E+00 0.  1.
   -9000007    1    1    2    0  503 -0.95210489128E+02  0.71584281545E+02 -0.14200818042E+04  0.14801424516E+04  0.40000000000E+03 0. -1.
<mgrwt>
<rscale>  2 0.41744052E+03</rscale>
<asrwt>0</asrwt>
<pdfrwt beam="1">  1       21 0.26411957E-01 0.41746737E+03</pdfrwt>
<pdfrwt beam="2">  1       21 0.27041618E+00 0.41746737E+03</pdfrwt>
<totfact> 0.56625356E+02</totfact>
</mgrwt>
</event>
<event>
 6    1  0.8947013E-004  0.5846998E+03  0.7818608E-02  0.9943099E-01
         21   -1    0    0  501  502  0.00000000000E+00  0.00000000000E+00  0.75246399175E+03  0.75246399175E+03  0.00000000000E+00 0. -1.
         21   -1    0    0  502  503 -0.00000000000E+00 -0.00000000000E+00 -0.44711436738E+03  0.44711436738E+03  0.00000000000E+00 0.  1.
    9000007    2    1    2  501    0 -0.59663640678E+02 -0.42227255415E+03  0.13036952749E+03  0.58925721881E+03  0.38516749112E+03 0.  0.
    9000005    1    3    3    0    0 -0.61486339319E+02 -0.70201467875E+01  0.16138250285E+03  0.17284433633E+03  0.99999687468E+00 0.  0.
          4    1    3    3  501    0  0.18226986415E+01 -0.41525240736E+03 -0.31012975361E+02  0.41641288248E+03  0.00000000000E+00 0.  1.
   -9000007    1    1    2    0  503  0.59663640678E+02  0.42227255415E+03  0.17498009689E+03  0.61032114031E+03  0.40000000000E+03 0. -1.
<mgrwt>
<rscale>  2 0.58217215E+03</rscale>
<asrwt>0</asrwt>
<pdfrwt beam="1">  1       21 0.11576369E+00 0.58469980E+03</pdfrwt>
<pdfrwt beam="2">  1       21 0.68786826E-01 0.58469980E+03</pdfrwt>
<totfact> 0.89690129E+02</totfact>
</mgrwt>
</event>
<event>
 6    1  0.8947013E-004  0.4406141E+03  0.7818608E-02  0.1030587E+00
         21   -1    0    0  501  502  0.00000000000E+00  0.00000000000E+00  0.10749636744E+04  0.10749636744E+04  0.00000000000E+00 0.  1.
         21   -1    0    0  502  503 -0.00000000000E+00 -0.00000000000E+00 -0.24701479740E+03  0.24701479740E+03  0.00000000000E+00 0.  1.
    9000007    2    1    2  501    0  0.93069251504E+02 -0.15962110348E+03  0.70720108154E+02  0.44588704356E+03  0.39959121570E+03 0.  0.
    9000005    1    3    3    0    0  0.24093121869E+01  0.12998331303E+03  0.57440685849E+02  0.14213338396E+03  0.99999687468E+00 0.  0.
          4    1    3    3  501    0  0.90659939317E+02 -0.28960441651E+03  0.13279422305E+02  0.30375365960E+03  0.00000000000E+00 0.  1.
   -9000007    1    1    2    0  503 -0.93069251504E+02  0.15962110348E+03  0.75722876883E+03  0.87609142821E+03  0.40000000000E+03 0.  1.
<mgrwt>
<rscale>  2 0.44052130E+03</rscale>
<asrwt>0</asrwt>
<pdfrwt beam="1">  1       21 0.16537902E+00 0.44061410E+03</pdfrwt>
<pdfrwt beam="2">  1       21 0.38002277E-01 0.44061410E+03</pdfrwt>
<totfact> 0.13055985E+03</totfact>
</mgrwt>
</event>
<event>
 6    1  0.8947013E-004  0.4095928E+03  0.7818608E-02  0.1040510E+00
         21   -1    0    0  501  502  0.00000000000E+00  0.00000000000E+00  0.10004841121E+04  0.10004841121E+04  0.00000000000E+00 0. -1.
         21   -1    0    0  502  503 -0.00000000000E+00 -0.00000000000E+00 -0.16919377280E+03  0.16919377280E+03  0.00000000000E+00 0.  1.
    9000007    2    1    2  501    0  0.38301418748E+02  0.79367874858E+02  0.36021260602E+03  0.54543395099E+03  0.39997351802E+03 0.  0.
    9000005    1    3    3    0    0 -0.16014905407E+03  0.10500981068E+03  0.25634475461E+03  0.31998189491E+03  0.99999687468E+00 0.  0.
          4    1    3    3  501    0  0.19845047282E+03 -0.25641935820E+02  0.10386785141E+03  0.22545205608E+03  0.00000000000E+00 0.  1.
   -9000007    1    1    2    0  503 -0.38301418748E+02 -0.79367874858E+02  0.47107773325E+03  0.62424393389E+03  0.40000000000E+03 0.  1.
<mgrwt>
<rscale>  2 0.40958633E+03</rscale>
<asrwt>0</asrwt>
<pdfrwt beam="1">  1       21 0.15392063E+00 0.40959280E+03</pdfrwt>
<pdfrwt beam="2">  1       21 0.26029812E-01 0.40959280E+03</pdfrwt>
<totfact> 0.34363840E+03</totfact>
</mgrwt>
</event>
<event>
 6    1  0.8947013E-004  0.5358707E+03  0.7818608E-02  0.1004853E+00
         21   -1    0    0  501  502  0.00000000000E+00  0.00000000000E+00  0.20515531511E+03  0.20515531511E+03  0.00000000000E+00 0. -1.
         21   -1    0    0  502  503 -0.00000000000E+00 -0.00000000000E+00 -0.13989527347E+04  0.13989527347E+04  0.00000000000E+00 0. -1.
    9000007    2    1    2  501    0 -0.35453885795E+03 -0.38204663420E+02 -0.57789564081E+03  0.78771819243E+03  0.39922322192E+03 0.  0.
    9000005    1    3    3    0    0  0.71901004238E+02  0.64445482900E+02 -0.11047943971E+03  0.14672996037E+03  0.99999687468E+00 0.  0.
          4    1    3    3  501    0 -0.42643986218E+03 -0.10265014632E+03 -0.46741620109E+03  0.64098823206E+03  0.00000000000E+00 0.  1.
   -9000007    1    1    2    0  503  0.35453885795E+03  0.38204663420E+02 -0.61590177876E+03  0.81638985735E+03  0.40000000000E+03 0.  1.
<mgrwt>
<rscale>  2 0.53572574E+03</rscale>
<asrwt>0</asrwt>
<pdfrwt beam="1">  1       21 0.31562357E-01 0.53587069E+03</pdfrwt>
<pdfrwt beam="2">  1       21 0.21522349E+00 0.53587069E+03</pdfrwt>
<totfact> 0.82902321E+02</totfact>
</mgrwt>
</event>
<event>
 6    1  0.8947013E-004  0.4059667E+03  0.7818608E-02  0.1041910E+00
         21   -1    0    0  501  502  0.00000000000E+00  0.00000000000E+00  0.23213069581E+03  0.23213069581E+03  0.00000000000E+00 0.  1.
         21   -1    0    0  502  503 -0.00000000000E+00 -0.00000000000E+00 -0.97405208220E+03  0.97405208220E+03  0.00000000000E+00 0.  1.
    9000007    2    1    2  501    0  0.29053852399E+02 -0.62966926573E+02 -0.54105579916E+02  0.40749664202E+03  0.39789086355E+03 0.  0.
    9000005    1    3    3    0    0 -0.16631151449E+03  0.46673916404E+02 -0.61460055426E+02  0.18334751902E+03  0.99999687468E+00 0.  0.
          4    1    3    3  501    0  0.19536536689E+03 -0.10964084298E+03  0.73544755098E+01  0.22414912299E+03  0.00000000000E+00 0.  1.
   -9000007    1    1    2    0  503 -0.29053852399E+02  0.62966926573E+02 -0.68781580648E+03  0.79868613599E+03  0.40000000000E+03 0. -1.
<mgrwt>
<rscale>  2 0.40544620E+03</rscale>
<asrwt>0</asrwt>
<pdfrwt beam="1">  1       21 0.35712414E-01 0.40596670E+03</pdfrwt>
<pdfrwt beam="2">  1       21 0.14985417E+00 0.40596670E+03</pdfrwt>
<totfact> 0.19746052E+03</totfact>
</mgrwt>
</event>
<event>
 6    1  0.8947013E-004  0.4392902E+03  0.7818608E-02  0.1030994E+00
         21   -1    0    0  501  502  0.00000000000E+00  0.00000000000E+00  0.29243344323E+03  0.29243344323E+03  0.00000000000E+00 0.  1.
         21   -1    0    0  502  503 -0.00000000000E+00 -0.00000000000E+00 -0.12714495040E+04  0.12714495040E+04  0.00000000000E+00 0.  1.
    9000007    2    1    2  501    0  0.20115903681E+02 -0.17954016427E+03  0.52938827705E+02  0.44246856708E+03  0.40042052046E+03 0.  0.
    9000005    1    3    3    0    0  0.39511001000E+02 -0.24465504390E+03 -0.10605525251E+03  0.26956618164E+03  0.99999687468E+00 0.  0.
          4    1    3    3  501    0 -0.19395097319E+02  0.65114879622E+02  0.15899408022E+03  0.17290238544E+03  0.00000000000E+00 0.  1.
   -9000007    1    1    2    0  503 -0.20115903681E+02  0.17954016427E+03 -0.10319548885E+04  0.11214143801E+04  0.40000000000E+03 0.  1.
<mgrwt>
<rscale>  2 0.43919439E+03</rscale>
<asrwt>0</asrwt>
<pdfrwt beam="1">  1       21 0.44989761E-01 0.43929024E+03</pdfrwt>
<pdfrwt beam="2">  1       21 0.19560761E+00 0.43929024E+03</pdfrwt>
<totfact> 0.56438137E+02</totfact>
</mgrwt>
</event>
<event>
 6    1  0.8947013E-004  0.4645685E+03  0.7818608E-02  0.1023495E+00
         21   -1    0    0  501  502  0.00000000000E+00  0.00000000000E+00  0.86846217750E+03  0.86846217750E+03  0.00000000000E+00 0. -1.
         21   -1    0    0  502  503 -0.00000000000E+00 -0.00000000000E+00 -0.90741715654E+03  0.90741715654E+03  0.00000000000E+00 0. -1.
    9000007    2    1    2  501    0  0.23487079453E+03  0.16250929834E+02  0.73729409450E+03  0.87145078131E+03  0.40049406938E+03 0.  0.
    9000005    1    3    3    0    0 -0.12446616986E+02  0.17173019042E+03  0.25956441235E+03  0.31148171813E+03  0.99999687468E+00 0.  0.
          4    1    3    3  501    0  0.24731741152E+03 -0.15547926058E+03  0.47772968214E+03  0.55996906317E+03  0.00000000000E+00 0.  1.
   -9000007    1    1    2    0  503 -0.23487079453E+03 -0.16250929834E+02 -0.77624907353E+03  0.90442855274E+03  0.40000000000E+03 0. -1.
<mgrwt>
<rscale>  2 0.46446199E+03</rscale>
<asrwt>0</asrwt>
<pdfrwt beam="1">  1       21 0.13360957E+00 0.46456849E+03</pdfrwt>
<pdfrwt beam="2">  1       21 0.13960264E+00 0.46456849E+03</pdfrwt>
<totfact> 0.11622615E+02</totfact>
</mgrwt>
</event>
<event>
 6    1  0.8947013E-004  0.7259409E+03  0.7818608E-02  0.9674504E-01
         21   -1    0    0  501  502  0.00000000000E+00  0.00000000000E+00  0.86592833838E+03  0.86592833838E+03  0.00000000000E+00 0.  1.
         21   -1    0    0  502  503 -0.00000000000E+00 -0.00000000000E+00 -0.78726044418E+03  0.78726044418E+03  0.00000000000E+00 0.  1.
    9000007    2    1    2  501    0 -0.49178918160E+03  0.35054863995E+03  0.43458745468E+03  0.84608303879E+03  0.40280181809E+03 0.  0.
    9000005    1    3    3    0    0 -0.41713163718E+03  0.42048454785E+03  0.26688380122E+03  0.64964145578E+03  0.99999687468E+00 0.  0.
          4    1    3    3  501    0 -0.74657544422E+02 -0.69935907903E+02  0.16770365346E+03  0.19644158301E+03  0.00000000000E+00 0.  1.
   -9000007    1    1    2    0  503  0.49178918160E+03 -0.35054863995E+03 -0.35591956048E+03  0.80710574378E+03  0.40000000000E+03 0.  1.
<mgrwt>
<rscale>  2 0.72555291E+03</rscale>
<asrwt>0</asrwt>
<pdfrwt beam="1">  1       21 0.13321974E+00 0.72594094E+03</pdfrwt>
<pdfrwt beam="2">  1       21 0.12111699E+00 0.72594094E+03</pdfrwt>
<totfact> 0.15293788E+02</totfact>
</mgrwt>
</event>
<event>
 6    1  0.8947013E-004  0.4002783E+03  0.7818608E-02  0.1043697E+00
         21   -1    0    0  501  502  0.00000000000E+00  0.00000000000E+00  0.10191184185E+04  0.10191184185E+04  0.00000000000E+00 0. -1.
         21   -1    0    0  502  503 -0.00000000000E+00 -0.00000000000E+00 -0.18159141871E+03  0.18159141871E+03  0.00000000000E+00 0. -1.
    9000007    2    1    2  501    0  0.49348062833E+01 -0.83850648175E+01  0.63907112498E+03  0.75407867410E+03  0.40016007088E+03 0.  0.
    9000005    1    3    3    0    0 -0.17919041501E+03  0.74696828060E+02  0.36738693504E+03  0.41552735287E+03  0.99999687468E+00 0.  0.
          4    1    3    3  501    0  0.18412522130E+03 -0.83081892878E+02  0.27168418994E+03  0.33855132123E+03  0.00000000000E+00 0.  1.
   -9000007    1    1    2    0  503 -0.49348062833E+01  0.83850648175E+01  0.19845587485E+03  0.44663116314E+03  0.40000000000E+03 0. -1.
<mgrwt>
<rscale>  2 0.40023832E+03</rscale>
<asrwt>0</asrwt>
<pdfrwt beam="1">  1       21 0.15678745E+00 0.40027833E+03</pdfrwt>
<pdfrwt beam="2">  1       21 0.27937142E-01 0.40027833E+03</pdfrwt>
<totfact> 0.28558229E+03</totfact>
</mgrwt>
</event>
<event>
 6    1  0.8947013E-004  0.4026027E+03  0.7818608E-02  0.1042889E+00
         21   -1    0    0  501  502  0.00000000000E+00  0.00000000000E+00  0.81066233148E+03  0.81066233148E+03  0.00000000000E+00 0. -1.
         21   -1    0    0  502  503 -0.00000000000E+00 -0.00000000000E+00 -0.19991160855E+03  0.19991160855E+03  0.00000000000E+00 0. -1.
    9000007    2    1    2  501    0 -0.44241706823E+02 -0.84525448173E+01  0.30715262089E+03  0.50639085652E+03  0.40007523407E+03 0.  0.
    9000005    1    3    3    0    0 -0.73874686092E+02  0.67685888202E+02  0.38240471545E+03  0.39531407147E+03  0.99999687468E+00 0.  0.
          4    1    3    3  501    0  0.29632979269E+02 -0.76138433019E+02 -0.75252094560E+02  0.11107678506E+03  0.00000000000E+00 0.  1.
   -9000007    1    1    2    0  503  0.44241706823E+02  0.84525448173E+01  0.30359810204E+03  0.50418308351E+03  0.40000000000E+03 0. -1.
<mgrwt>
<rscale>  2 0.40258405E+03</rscale>
<asrwt>0</asrwt>
<pdfrwt beam="1">  1       21 0.12471728E+00 0.40260274E+03</pdfrwt>
<pdfrwt beam="2">  1       21 0.30755633E-01 0.40260274E+03</pdfrwt>
<totfact> 0.43244837E+03</totfact>
</mgrwt>
</event>
<event>
 6    1  0.8947013E-004  0.6116085E+03  0.7818608E-02  0.9881730E-01
         21   -1    0    0  501  502  0.00000000000E+00  0.00000000000E+00  0.60044071839E+03  0.60044071839E+03  0.00000000000E+00 0.  1.
         21   -1    0    0  502  503 -0.00000000000E+00 -0.00000000000E+00 -0.76633753504E+03  0.76633753504E+03  0.00000000000E+00 0. -1.
    9000007    2    1    2  501    0  0.40021717215E+03  0.23152234583E+03  0.21285749696E+03  0.64759037007E+03  0.40036057735E+03 0.  0.
    9000005    1    3    3    0    0  0.26208037024E+02 -0.10250474519E+03  0.67456088004E+02  0.12548070686E+03  0.99999687468E+00 0.  0.
          4    1    3    3  501    0  0.37400913512E+03  0.33402709102E+03  0.14540140896E+03  0.52210966321E+03  0.00000000000E+00 0.  1.
   -9000007    1    1    2    0  503 -0.40021717215E+03 -0.23152234583E+03 -0.37875431360E+03  0.71918788336E+03  0.40000000000E+03 0.  1.
<mgrwt>
<rscale>  2 0.61154951E+03</rscale>
<asrwt>0</asrwt>
<pdfrwt beam="1">  1       21 0.92375495E-01 0.61160851E+03</pdfrwt>
<pdfrwt beam="2">  1       21 0.11789808E+00 0.61160851E+03</pdfrwt>
<totfact> 0.42761896E+02</totfact>
</mgrwt>
</event>
<event>
 6    1  0.8947013E-004  0.4429659E+03  0.7818608E-02  0.1029901E+00
         21   -1    0    0  501  502  0.00000000000E+00  0.00000000000E+00  0.46123455038E+03  0.46123455038E+03  0.00000000000E+00 0. -1.
         21   -1    0    0  502  503 -0.00000000000E+00 -0.00000000000E+00 -0.44353285384E+03  0.44353285384E+03  0.00000000000E+00 0. -1.
    9000007    2    1    2  501    0  0.21064403186E+02  0.18727448076E+03 -0.84463849345E+02  0.45094669184E+03  0.40087820695E+03 0.  0.
    9000005    1    3    3    0    0  0.89633465306E+02  0.26669349968E+03 -0.15812758870E+03  0.32274589877E+03  0.99999687468E+00 0.  0.
          4    1    3    3  501    0 -0.68569062120E+02 -0.79419018917E+02  0.73663739356E+02  0.12820079306E+03  0.00000000000E+00 0.  1.
   -9000007    1    1    2    0  503 -0.21064403186E+02 -0.18727448076E+03  0.10216554588E+03  0.45382071239E+03  0.40000000000E+03 0. -1.
<mgrwt>
<rscale>  2 0.44276710E+03</rscale>
<asrwt>0</asrwt>
<pdfrwt beam="1">  1       21 0.70959162E-01 0.44296589E+03</pdfrwt>
<pdfrwt beam="2">  1       21 0.68235823E-01 0.44296589E+03</pdfrwt>
<totfact> 0.30783167E+03</totfact>
</mgrwt>
</event>
<event>
 6    1  0.8947013E-004  0.4340859E+03  0.7818608E-02  0.1032589E+00
         21   -1    0    0  501  502  0.00000000000E+00  0.00000000000E+00  0.76219037104E+03  0.76219037104E+03  0.00000000000E+00 0.  1.
         21   -1    0    0  502  503 -0.00000000000E+00 -0.00000000000E+00 -0.31465447647E+03  0.31465447647E+03  0.00000000000E+00 0.  1.
    9000007    2    1    2  501    0 -0.16447312415E+03  0.37136495611E+02  0.47315396932E+03  0.64200371142E+03  0.39982941228E+03 0.  0.
    9000005    1    3    3    0    0  0.34121930630E+02  0.16288744483E+03  0.81702552992E+02  0.18539938779E+03  0.99999687468E+00 0.  0.
          4    1    3    3  501    0 -0.19859505478E+03 -0.12575094922E+03  0.39145141633E+03  0.45660432363E+03  0.00000000000E+00 0.  1.
   -9000007    1    1    2    0  503  0.16447312415E+03 -0.37136495611E+02 -0.25618074750E+02  0.43484113608E+03  0.40000000000E+03 0.  1.
<mgrwt>
<rscale>  2 0.43404655E+03</rscale>
<asrwt>0</asrwt>
<pdfrwt beam="1">  1       21 0.11726006E+00 0.43408585E+03</pdfrwt>
<pdfrwt beam="2">  1       21 0.48408381E-01 0.43408585E+03</pdfrwt>
<totfact> 0.19729501E+03</totfact>
</mgrwt>
</event>
<event>
 6    1  0.8947013E-004  0.4538023E+03  0.7818608E-02  0.1026599E+00
         21   -1    0    0  501  502  0.00000000000E+00  0.00000000000E+00  0.20248241952E+03  0.20248241952E+03  0.00000000000E+00 0. -1.
         21   -1    0    0  502  503 -0.00000000000E+00 -0.00000000000E+00 -0.13509756991E+04  0.13509756991E+04  0.00000000000E+00 0. -1.
    9000007    2    1    2  501    0  0.15334985956E+02  0.21365011818E+03 -0.18803905435E+03  0.49121810169E+03  0.40006874744E+03 0.  0.
    9000005    1    3    3    0    0  0.84408732025E+02  0.10131067761E+03  0.10584967451E+03  0.16909713489E+03  0.99999687468E+00 0.  0.
          4    1    3    3  501    0 -0.69073746069E+02  0.11233944056E+03 -0.29388872886E+03  0.32212096680E+03  0.00000000000E+00 0.  1.
   -9000007    1    1    2    0  503 -0.15334985956E+02 -0.21365011818E+03 -0.96045422521E+03  0.10622400169E+04  0.40000000000E+03 0. -1.
<mgrwt>
<rscale>  2 0.45378716E+03</rscale>
<asrwt>0</asrwt>
<pdfrwt beam="1">  1       21 0.31151143E-01 0.45380231E+03</pdfrwt>
<pdfrwt beam="2">  1       21 0.20784241E+00 0.45380231E+03</pdfrwt>
<totfact> 0.98483709E+02</totfact>
</mgrwt>
</event>
<event>
 6    1  0.8947013E-004  0.6462968E+03  0.7818608E-02  0.9814834E-01
         21   -1    0    0  501  502  0.00000000000E+00  0.00000000000E+00  0.97447215531E+03  0.97447215531E+03  0.00000000000E+00 0.  1.
         21   -1    0    0  502  503 -0.00000000000E+00 -0.00000000000E+00 -0.45387798303E+03  0.45387798303E+03  0.00000000000E+00 0. -1.
    9000007    2    1    2  501    0  0.37031137558E+03 -0.34723051392E+03  0.43323885262E+03  0.77617646778E+03  0.39630097280E+03 0.  0.
    9000005    1    3    3    0    0  0.37770267336E+03 -0.41326200440E+03  0.43610422852E+03  0.70967083347E+03  0.99999687468E+00 0.  0.
          4    1    3    3  501    0 -0.73912977792E+01  0.66031490475E+02 -0.28653759031E+01  0.66505634319E+02  0.00000000000E+00 0.  1.
   -9000007    1    1    2    0  503 -0.37031137558E+03  0.34723051392E+03  0.87355319667E+02  0.65217367055E+03  0.40000000000E+03 0.  1.
<mgrwt>
<rscale>  2 0.64572533E+03</rscale>
<asrwt>0</asrwt>
<pdfrwt beam="1">  1       21 0.14991879E+00 0.64629679E+03</pdfrwt>
<pdfrwt beam="2">  1       21 0.69827382E-01 0.64629679E+03</pdfrwt>
<totfact> 0.43016475E+02</totfact>
</mgrwt>
</event>
<event>
 6    1  0.8947013E-004  0.4897072E+03  0.7818608E-02  0.1016552E+00
         21   -1    0    0  501  502  0.00000000000E+00  0.00000000000E+00  0.39772575441E+03  0.39772575441E+03  0.00000000000E+00 0.  1.
         21   -1    0    0  502  503 -0.00000000000E+00 -0.00000000000E+00 -0.65316730311E+03  0.65316730311E+03  0.00000000000E+00 0. -1.
    9000007    2    1    2  501    0  0.19842268161E+03  0.19924396600E+03  0.19216455856E+02  0.49008405435E+03  0.40092816013E+03 0.  0.
    9000005    1    3    3    0    0 -0.52429094293E+02  0.16432722073E+03  0.12764037929E+03  0.21458171362E+03  0.99999687468E+00 0.  0.
          4    1    3    3  501    0  0.25085177591E+03  0.34916745273E+02 -0.10842392343E+03  0.27550234073E+03  0.00000000000E+00 0.  1.
   -9000007    1    1    2    0  503 -0.19842268161E+03 -0.19924396600E+03 -0.27465800455E+03  0.56080900317E+03  0.40000000000E+03 0. -1.
<mgrwt>
<rscale>  2 0.48951715E+03</rscale>
<asrwt>0</asrwt>
<pdfrwt beam="1">  1       21 0.61188579E-01 0.48970717E+03</pdfrwt>
<pdfrwt beam="2">  1       21 0.10048728E+00 0.48970717E+03</pdfrwt>
<totfact> 0.17083344E+03</totfact>
</mgrwt>
</event>
<event>
 6    1  0.8947013E-004  0.6201552E+03  0.7818608E-02  0.9865113E-01
         21   -1    0    0  501  502  0.00000000000E+00  0.00000000000E+00  0.35694998328E+03  0.35694998328E+03  0.00000000000E+00 0.  1.
         21   -1    0    0  502  503 -0.00000000000E+00 -0.00000000000E+00 -0.16827491647E+04  0.16827491647E+04  0.00000000000E+00 0.  1.
    9000007    2    1    2  501    0  0.57467418228E+02 -0.47041467197E+03 -0.49612641073E+02  0.62081065571E+03  0.39793465333E+03 0.  0.
    9000005    1    3    3    0    0 -0.43980580852E+02 -0.77137053963E+02  0.14531903678E+03  0.17030278633E+03  0.99999687468E+00 0.  0.
          4    1    3    3  501    0  0.10144799908E+03 -0.39327761801E+03 -0.19493167785E+03  0.45050786938E+03  0.00000000000E+00 0.  1.
   -9000007    1    1    2    0  503 -0.57467418228E+02  0.47041467197E+03 -0.12761865403E+04  0.14188884923E+04  0.40000000000E+03 0.  1.
<mgrwt>
<rscale>  2 0.61982239E+03</rscale>
<asrwt>0</asrwt>
<pdfrwt beam="1">  1       21 0.54915382E-01 0.62015520E+03</pdfrwt>
<pdfrwt beam="2">  1       21 0.25888449E+00 0.62015520E+03</pdfrwt>
<totfact> 0.13379602E+02</totfact>
</mgrwt>
</event>
<event>
 6    1  0.8947013E-004  0.4669973E+03  0.7818608E-02  0.1023105E+00
         21   -1    0    0  501  502  0.00000000000E+00  0.00000000000E+00  0.21776383860E+04  0.21776383860E+04  0.00000000000E+00 0. -1.
         21   -1    0    0  502  503 -0.00000000000E+00 -0.00000000000E+00 -0.10338180875E+03  0.10338180875E+03  0.00000000000E+00 0.  1.
    9000007    2    1    2  501    0 -0.16808197919E+03  0.17272776707E+03  0.12628747496E+04  0.13448434468E+04  0.39454382499E+03 0.  0.
    9000005    1    3    3    0    0 -0.15219370922E+03 -0.17944010522E+02  0.10394611000E+04  0.10506975260E+04  0.99999687468E+00 0.  0.
          4    1    3    3  501    0 -0.15888269978E+02  0.19067177760E+03  0.22341364963E+03  0.29414592082E+03  0.00000000000E+00 0.  1.
   -9000007    1    1    2    0  503  0.16808197919E+03 -0.17272776707E+03  0.81138182761E+03  0.93617674796E+03  0.40000000000E+03 0.  1.
<mgrwt>
<rscale>  2 0.46582665E+03</rscale>
<asrwt>0</asrwt>
<pdfrwt beam="1">  1       21 0.33502125E+00 0.46699725E+03</pdfrwt>
<pdfrwt beam="2">  1       21 0.15904895E-01 0.46699725E+03</pdfrwt>
<totfact> 0.59107298E+02</totfact>
</mgrwt>
</event>
<event>
 6    1  0.8947013E-004  0.5082999E+03  0.7818608E-02  0.1011666E+00
         21   -1    0    0  501  502  0.00000000000E+00  0.00000000000E+00  0.28499129564E+03  0.28499129564E+03  0.00000000000E+00 0. -1.
         21   -1    0    0  502  503 -0.00000000000E+00 -0.00000000000E+00 -0.14783784604E+04  0.14783784604E+04  0.00000000000E+00 0. -1.
    9000007    2    1    2  501    0 -0.30491325927E+03 -0.69997811832E+02 -0.48123825366E+02  0.51057292259E+03  0.40062079000E+03 0.  0.
    9000005    1    3    3    0    0 -0.30072129481E+03 -0.21086884652E+03 -0.30740062882E+02  0.36857145718E+03  0.99999687468E+00 0.  0.
          4    1    3    3  501    0 -0.41919644535E+01  0.14087103469E+03 -0.17383762484E+02  0.14200146541E+03  0.00000000000E+00 0.  1.
   -9000007    1    1    2    0  503  0.30491325927E+03  0.69997811832E+02 -0.11452633394E+04  0.12527968334E+04  0.40000000000E+03 0. -1.
<mgrwt>
<rscale>  2 0.50817759E+03</rscale>
<asrwt>0</asrwt>
<pdfrwt beam="1">  1       21 0.43844815E-01 0.50829992E+03</pdfrwt>
<pdfrwt beam="2">  1       21 0.22744284E+00 0.50829992E+03</pdfrwt>
<totfact> 0.35721993E+02</totfact>
</mgrwt>
</event>
<event>
 6    1  0.8947013E-004  0.4162994E+03  0.7818608E-02  0.1038319E+00
         21   -1    0    0  501  502  0.00000000000E+00  0.00000000000E+00  0.32037985350E+03  0.32037985350E+03  0.00000000000E+00 0. -1.
         21   -1    0    0  502  503 -0.00000000000E+00 -0.00000000000E+00 -0.62057900330E+03  0.62057900330E+03  0.00000000000E+00 0. -1.
    9000007    2    1    2  501    0 -0.10620084266E+03 -0.40128740624E+02  0.19052456826E+02  0.41673512295E+03  0.40051995179E+03 0.  0.
    9000005    1    3    3    0    0 -0.21270644120E+03 -0.70184765040E+02 -0.10764463896E+03  0.24851217206E+03  0.99999687468E+00 0.  0.
          4    1    3    3  501    0  0.10650559853E+03  0.30056024416E+02  0.12669709579E+03  0.16822295089E+03  0.00000000000E+00 0.  1.
   -9000007    1    1    2    0  503  0.10620084266E+03  0.40128740624E+02 -0.31925160662E+03  0.52422373386E+03  0.40000000000E+03 0. -1.
<mgrwt>
<rscale>  2 0.41617426E+03</rscale>
<asrwt>0</asrwt>
<pdfrwt beam="1">  1       21 0.49289208E-01 0.41629937E+03</pdfrwt>
<pdfrwt beam="2">  1       21 0.95473693E-01 0.41629937E+03</pdfrwt>
<totfact> 0.31682753E+03</totfact>
</mgrwt>
</event>
<event>
 6    1  0.8947013E-004  0.4230530E+03  0.7818608E-02  0.1036180E+00
         21   -1    0    0  501  502  0.00000000000E+00  0.00000000000E+00  0.44237842740E+03  0.44237842740E+03  0.00000000000E+00 0.  1.
         21   -1    0    0  502  503 -0.00000000000E+00 -0.00000000000E+00 -0.46421759766E+03  0.46421759766E+03  0.00000000000E+00 0. -1.
    9000007    2    1    2  501    0 -0.55262372873E+02 -0.12185525757E+03  0.15319290547E+03  0.44993547149E+03  0.40133680191E+03 0.  0.
    9000005    1    3    3    0    0  0.30084206039E+01 -0.47801044300E+02 -0.13683756802E+03  0.14498106927E+03  0.99999687468E+00 0.  0.
          4    1    3    3  501    0 -0.58270793477E+02 -0.74054213269E+02  0.29003047350E+03  0.30495440222E+03  0.00000000000E+00 0.  1.
   -9000007    1    1    2    0  503  0.55262372873E+02  0.12185525757E+03 -0.17503207573E+03  0.45666055357E+03  0.40000000000E+03 0. -1.
<mgrwt>
<rscale>  2 0.42273568E+03</rscale>
<asrwt>0</asrwt>
<pdfrwt beam="1">  1       21 0.68058219E-01 0.42305303E+03</pdfrwt>
<pdfrwt beam="2">  1       21 0.71418092E-01 0.42305303E+03</pdfrwt>
<totfact> 0.30739014E+03</totfact>
</mgrwt>
</event>
<event>
 6    1  0.8947013E-004  0.5074998E+03  0.7818608E-02  0.1011871E+00
         21   -1    0    0  501  502  0.00000000000E+00  0.00000000000E+00  0.97515858556E+03  0.97515858556E+03  0.00000000000E+00 0. -1.
         21   -1    0    0  502  503 -0.00000000000E+00 -0.00000000000E+00 -0.41705981213E+03  0.41705981213E+03  0.00000000000E+00 0.  1.
    9000007    2    1    2  501    0  0.50638386691E+02 -0.30820734248E+03  0.70085594900E+03  0.86502239682E+03  0.39938536975E+03 0.  0.
    9000005    1    3    3    0    0 -0.78385162435E+02 -0.27699008577E+03  0.66929309118E+03  0.72857531059E+03  0.99999687468E+00 0.  0.
          4    1    3    3  501    0  0.12902354913E+03 -0.31217256707E+02  0.31562857825E+02  0.13644708623E+03  0.00000000000E+00 0.  1.
   -9000007    1    1    2    0  503 -0.50638386691E+02  0.30820734248E+03 -0.14275717558E+03  0.52719600088E+03  0.40000000000E+03 0.  1.
<mgrwt>
<rscale>  2 0.50737865E+03</rscale>
<asrwt>0</asrwt>
<pdfrwt beam="1">  1       21 0.15002440E+00 0.50749977E+03</pdfrwt>
<pdfrwt beam="2">  1       21 0.64163048E-01 0.50749977E+03</pdfrwt>
<totfact> 0.54547342E+02</totfact>
</mgrwt>
</event>
<event>
 6    1  0.8947013E-004  0.4892867E+03  0.7818608E-02  0.1016650E+00
         21   -1    0    0  501  502  0.00000000000E+00  0.00000000000E+00  0.15725597539E+04  0.15725597539E+04  0.00000000000E+00 0. -1.
         21   -1    0    0  502  503 -0.00000000000E+00 -0.00000000000E+00 -0.15852955834E+03  0.15852955834E+03  0.00000000000E+00 0.  1.
    9000007    2    1    2  501    0  0.22530644993E+03 -0.16766154994E+03  0.53265672611E+03  0.72327356303E+03  0.40065954050E+03 0.  0.
    9000005    1    3    3    0    0  0.24193274645E+03  0.36798546836E+02  0.14436694765E+03  0.28412744045E+03  0.99999687468E+00 0.  0.
          4    1    3    3  501    0 -0.16626296517E+02 -0.20446009678E+03  0.38828977847E+03  0.43914612258E+03  0.00000000000E+00 0.  1.
   -9000007    1    1    2    0  503 -0.22530644993E+03  0.16766154994E+03  0.88137346950E+03  0.10078157493E+04  0.40000000000E+03 0.  1.
<mgrwt>
<rscale>  2 0.48915165E+03</rscale>
<asrwt>0</asrwt>
<pdfrwt beam="1">  1       21 0.24193226E+00 0.48928668E+03</pdfrwt>
<pdfrwt beam="2">  1       21 0.24389164E-01 0.48928668E+03</pdfrwt>
<totfact> 0.95183564E+02</totfact>
</mgrwt>
</event>
<event>
 6    1  0.8947013E-004  0.4850144E+03  0.7818608E-02  0.1017882E+00
         21   -1    0    0  501  502  0.00000000000E+00  0.00000000000E+00  0.37108733318E+03  0.37108733318E+03  0.00000000000E+00 0. -1.
         21   -1    0    0  502  503 -0.00000000000E+00 -0.00000000000E+00 -0.64406232934E+03  0.64406232934E+03  0.00000000000E+00 0.  1.
    9000007    2    1    2  501    0  0.54456449549E+02  0.26574072183E+03 -0.20708556885E+03  0.52737404529E+03  0.40206381917E+03 0.  0.
    9000005    1    3    3    0    0 -0.14837017483E+03  0.17448778329E+03 -0.84856097526E+01  0.22920013278E+03  0.99999687468E+00 0.  0.
          4    1    3    3  501    0  0.20282662438E+03  0.91252938540E+02 -0.19859995910E+03  0.29817391251E+03  0.00000000000E+00 0.  1.
   -9000007    1    1    2    0  503 -0.54456449549E+02 -0.26574072183E+03 -0.65889427306E+02  0.48777561723E+03  0.40000000000E+03 0. -1.
<mgrwt>
<rscale>  2 0.48458645E+03</rscale>
<asrwt>0</asrwt>
<pdfrwt beam="1">  1       21 0.57090359E-01 0.48501438E+03</pdfrwt>
<pdfrwt beam="2">  1       21 0.99086512E-01 0.48501438E+03</pdfrwt>
<totfact> 0.20609640E+03</totfact>
</mgrwt>
</event>
<event>
 6    1  0.8947013E-004  0.4098259E+03  0.7818608E-02  0.1040461E+00
         21   -1    0    0  501  502  0.00000000000E+00  0.00000000000E+00  0.27513370833E+04  0.27513370833E+04  0.00000000000E+00 0.  1.
         21   -1    0    0  502  503 -0.00000000000E+00 -0.00000000000E+00 -0.72006025072E+02  0.72006025072E+02  0.00000000000E+00 0.  1.
    9000007    2    1    2  501    0  0.78161577107E+02  0.42988545265E+02  0.78696571417E+03  0.88710865910E+03  0.39961167477E+03 0.  0.
    9000005    1    3    3    0    0  0.62672070925E+02 -0.17731598331E+03  0.38451086236E+03  0.42804012625E+03  0.99999687468E+00 0.  0.
          4    1    3    3  501    0  0.15489506182E+02  0.22030452857E+03  0.40245485181E+03  0.45906853285E+03  0.00000000000E+00 0.  1.
   -9000007    1    1    2    0  503 -0.78161577107E+02 -0.42988545265E+02  0.18923653441E+04  0.19362344493E+04  0.40000000000E+03 0.  1.
<mgrwt>
<rscale>  2 0.40973109E+03</rscale>
<asrwt>0</asrwt>
<pdfrwt beam="1">  1       21 0.42328255E+00 0.40982587E+03</pdfrwt>
<pdfrwt beam="2">  1       21 0.11077852E-01 0.40982587E+03</pdfrwt>
<totfact> 0.33141238E+02</totfact>
</mgrwt>
</event>
<event>
 6    1  0.8947013E-004  0.5895195E+03  0.7818608E-02  0.9927610E-01
         21   -1    0    0  501  502  0.00000000000E+00  0.00000000000E+00  0.18913930990E+04  0.18913930990E+04  0.00000000000E+00 0. -1.
         21   -1    0    0  502  503 -0.00000000000E+00 -0.00000000000E+00 -0.45720773880E+03  0.45720773880E+03  0.00000000000E+00 0.  1.
    9000007    2    1    2  501    0  0.39086332547E+03  0.18513443854E+03  0.16255854934E+04  0.17291794057E+04  0.40060494419E+03 0.  0.
    9000005    1    3    3    0    0  0.35941209758E+03  0.29417073702E+03  0.14242284588E+04  0.14980457874E+04  0.99999687468E+00 0.  0.
          4    1    3    3  501    0  0.31451227899E+02 -0.10903629848E+03  0.20135703460E+03  0.23113361829E+03  0.00000000000E+00 0.  1.
   -9000007    1    1    2    0  503 -0.39086332547E+03 -0.18513443854E+03 -0.19140013319E+03  0.61942143208E+03  0.40000000000E+03 0. -1.
<mgrwt>
<rscale>  2 0.58941673E+03</rscale>
<asrwt>0</asrwt>
<pdfrwt beam="1">  1       21 0.29098355E+00 0.58951948E+03</pdfrwt>
<pdfrwt beam="2">  1       21 0.70339653E-01 0.58951948E+03</pdfrwt>
<totfact> 0.49796215E+01</totfact>
</mgrwt>
</event>
<event>
 6    1  0.8947013E-004  0.4052871E+03  0.7818608E-02  0.1042433E+00
         21   -1    0    0  501  502  0.00000000000E+00  0.00000000000E+00  0.40898109188E+03  0.40898109188E+03  0.00000000000E+00 0.  1.
         21   -1    0    0  502  503 -0.00000000000E+00 -0.00000000000E+00 -0.39907246266E+03  0.39907246266E+03  0.00000000000E+00 0.  1.
    9000007    2    1    2  501    0  0.59269007748E+02 -0.27291295947E+02 -0.29172186363E+02  0.40088658602E+03  0.39446344353E+03 0.  0.
    9000005    1    3    3    0    0 -0.10383441585E+03  0.70101091745E+02 -0.13438498881E+03  0.18372826182E+03  0.99999687468E+00 0.  0.
          4    1    3    3  501    0  0.16310342360E+03 -0.97392387692E+02  0.10521280245E+03  0.21715832420E+03  0.00000000000E+00 0.  1.
   -9000007    1    1    2    0  503 -0.59269007748E+02  0.27291295947E+02  0.39080815581E+02  0.40716696853E+03  0.40000000000E+03 0.  1.
<mgrwt>
<rscale>  2 0.40391430E+03</rscale>
<asrwt>0</asrwt>
<pdfrwt beam="1">  1       21 0.62920168E-01 0.40528710E+03</pdfrwt>
<pdfrwt beam="2">  1       21 0.61395764E-01 0.40528710E+03</pdfrwt>
<totfact> 0.51569844E+03</totfact>
</mgrwt>
</event>
<event>
 6    1  0.8947013E-004  0.4569374E+03  0.7818608E-02  0.1025682E+00
         21   -1    0    0  501  502  0.00000000000E+00  0.00000000000E+00  0.29576657900E+03  0.29576657900E+03  0.00000000000E+00 0. -1.
         21   -1    0    0  502  503 -0.00000000000E+00 -0.00000000000E+00 -0.88834848022E+03  0.88834848022E+03  0.00000000000E+00 0. -1.
    9000007    2    1    2  501    0  0.22054230737E+03 -0.66887606796E+01 -0.27898887132E+02  0.45778830406E+03  0.40013514538E+03 0.  0.
    9000005    1    3    3    0    0  0.21604235399E+01  0.73051537251E+02  0.14879554206E+03  0.16577788711E+03  0.99999687468E+00 0.  0.
          4    1    3    3  501    0  0.21838188383E+03 -0.79740297930E+02 -0.17669442919E+03  0.29201041695E+03  0.00000000000E+00 0.  1.
   -9000007    1    1    2    0  503 -0.22054230737E+03  0.66887606796E+01 -0.56468301408E+03  0.72632675516E+03  0.40000000000E+03 0. -1.
<mgrwt>
<rscale>  2 0.45690781E+03</rscale>
<asrwt>0</asrwt>
<pdfrwt beam="1">  1       21 0.45502551E-01 0.45693740E+03</pdfrwt>
<pdfrwt beam="2">  1       21 0.13666900E+00 0.45693740E+03</pdfrwt>
<totfact> 0.15010851E+03</totfact>
</mgrwt>
</event>
<event>
 6    1  0.8947013E-004  0.4623639E+03  0.7818608E-02  0.1024119E+00
         21   -1    0    0  501  502  0.00000000000E+00  0.00000000000E+00  0.13679793269E+04  0.13679793269E+04  0.00000000000E+00 0.  1.
         21   -1    0    0  502  503 -0.00000000000E+00 -0.00000000000E+00 -0.19019860498E+03  0.19019860498E+03  0.00000000000E+00 0.  1.
    9000007    2    1    2  501    0  0.53878110736E+02  0.22494623990E+03  0.91856836927E+03  0.10283716414E+04  0.40034575319E+03 0.  0.
    9000005    1    3    3    0    0  0.89814426732E+02 -0.97929131159E+02  0.20457264570E+03  0.24394202865E+03  0.99999687468E+00 0.  0.
          4    1    3    3  501    0 -0.35936315996E+02  0.32287537106E+03  0.71399572357E+03  0.78442961273E+03  0.00000000000E+00 0.  1.
   -9000007    1    1    2    0  503 -0.53878110736E+02 -0.22494623990E+03  0.25921235261E+03  0.52980629046E+03  0.40000000000E+03 0.  1.
<mgrwt>
<rscale>  2 0.46228905E+03</rscale>
<asrwt>0</asrwt>
<pdfrwt beam="1">  1       21 0.21045835E+00 0.46236391E+03</pdfrwt>
<pdfrwt beam="2">  1       21 0.29261325E-01 0.46236391E+03</pdfrwt>
<totfact> 0.10681760E+03</totfact>
</mgrwt>
</event>
<event>
 6    1  0.8947013E-004  0.4671915E+03  0.7818608E-02  0.1022921E+00
         21   -1    0    0  501  502  0.00000000000E+00  0.00000000000E+00  0.16726006505E+04  0.16726006505E+04  0.00000000000E+00 0.  1.
         21   -1    0    0  502  503 -0.00000000000E+00 -0.00000000000E+00 -0.17997594198E+03  0.17997594198E+03  0.00000000000E+00 0.  1.
    9000007    2    1    2  501    0  0.14349805611E+03  0.18707527967E+03  0.12375750250E+04  0.13228226935E+04  0.40333495221E+03 0.  0.
    9000005    1    3    3    0    0  0.67691042047E+02  0.30800029747E+03  0.72214686827E+03  0.78799959376E+03  0.99999687468E+00 0.  0.
          4    1    3    3  501    0  0.75807014059E+02 -0.12092501780E+03  0.51542815672E+03  0.53482309977E+03  0.00000000000E+00 0.  1.
   -9000007    1    1    2    0  503 -0.14349805611E+03 -0.18707527967E+03  0.25504968351E+03  0.52975389893E+03  0.40000000000E+03 0.  1.
<mgrwt>
<rscale>  2 0.46647086E+03</rscale>
<asrwt>0</asrwt>
<pdfrwt beam="1">  1       21 0.25732317E+00 0.46719154E+03</pdfrwt>
<pdfrwt beam="2">  1       21 0.27688608E-01 0.46719154E+03</pdfrwt>
<totfact> 0.60331647E+02</totfact>
</mgrwt>
</event>
<event>
 6    1  0.8947013E-004  0.5249457E+03  0.7818608E-02  0.1007665E+00
         21   -1    0    0  501  502  0.00000000000E+00  0.00000000000E+00  0.14220036093E+04  0.14220036093E+04  0.00000000000E+00 0.  1.
         21   -1    0    0  502  503 -0.00000000000E+00 -0.00000000000E+00 -0.23420543395E+03  0.23420543395E+03  0.00000000000E+00 0.  1.
    9000007    2    1    2  501    0  0.83480655088E+02 -0.32435891794E+03  0.94446086229E+03  0.10805435368E+04  0.40421564420E+03 0.  0.
    9000005    1    3    3    0    0 -0.86208650634E+02 -0.22976812651E+03  0.21700529310E+03  0.32759368222E+03  0.99999687468E+00 0.  0.
          4    1    3    3  501    0  0.16968930572E+03 -0.94590791423E+02  0.72745556919E+03  0.75294985453E+03  0.00000000000E+00 0.  1.
   -9000007    1    1    2    0  503 -0.83480655088E+02  0.32435891794E+03  0.24333731303E+03  0.57566550647E+03  0.40000000000E+03 0.  1.
<mgrwt>
<rscale>  2 0.52413405E+03</rscale>
<asrwt>0</asrwt>
<pdfrwt beam="1">  1       21 0.21876978E+00 0.52494573E+03</pdfrwt>
<pdfrwt beam="2">  1       21 0.36031606E-01 0.52494573E+03</pdfrwt>
<totfact> 0.60428842E+02</totfact>
</mgrwt>
</event>
<event>
 6    1  0.8947013E-004  0.4571078E+03  0.7818608E-02  0.1025683E+00
         21   -1    0    0  501  502  0.00000000000E+00  0.00000000000E+00  0.11971418711E+03  0.11971418711E+03  0.00000000000E+00 0.  1.
         21   -1    0    0  502  503 -0.00000000000E+00 -0.00000000000E+00 -0.21725205353E+04  0.21725205353E+04  0.00000000000E+00 0. -1.
    9000007    2    1    2  501    0 -0.91721472889E+02  0.19947465176E+03 -0.51709681091E+03  0.69017144395E+03  0.40092960093E+03 0.  0.
    9000005    1    3    3    0    0  0.12031462140E+03  0.74013275023E+02 -0.38611588751E+03  0.41114480610E+03  0.99999687468E+00 0.  0.
          4    1    3    3  501    0 -0.21203609429E+03  0.12546137674E+03 -0.13098092340E+03  0.27902663785E+03  0.00000000000E+00 0.  1.
   -9000007    1    1    2    0  503  0.91721472889E+02 -0.19947465176E+03 -0.15357095373E+04  0.16020632784E+04  0.40000000000E+03 0. -1.
<mgrwt>
<rscale>  2 0.45690385E+03</rscale>
<asrwt>0</asrwt>
<pdfrwt beam="1">  1       21 0.18417569E-01 0.45710777E+03</pdfrwt>
<pdfrwt beam="2">  1       21 0.33423390E+00 0.45710777E+03</pdfrwt>
<totfact> 0.45643756E+02</totfact>
</mgrwt>
</event>
<event>
 6    1  0.8947013E-004  0.4408529E+03  0.7818608E-02  0.1030498E+00
         21   -1    0    0  501  502  0.00000000000E+00  0.00000000000E+00  0.41893271799E+03  0.41893271799E+03  0.00000000000E+00 0. -1.
         21   -1    0    0  502  503 -0.00000000000E+00 -0.00000000000E+00 -0.86786195421E+03  0.86786195421E+03  0.00000000000E+00 0.  1.
    9000007    2    1    2  501    0  0.91424324841E+02 -0.16077573316E+03  0.21455487021E+03  0.49029080967E+03  0.40018001221E+03 0.  0.
    9000005    1    3    3    0    0  0.15652590175E+03 -0.21168716591E+03  0.31351464301E+01  0.26329193544E+03  0.99999687468E+00 0.  0.
          4    1    3    3  501    0 -0.65101576909E+02  0.50911432756E+02  0.21141972378E+03  0.22699887423E+03  0.00000000000E+00 0.  1.
   -9000007    1    1    2    0  503 -0.91424324841E+02  0.16077573316E+03 -0.66348410643E+03  0.79650386253E+03  0.40000000000E+03 0.  1.
<mgrwt>
<rscale>  2 0.44081205E+03</rscale>
<asrwt>0</asrwt>
<pdfrwt beam="1">  1       21 0.64451188E-01 0.44085291E+03</pdfrwt>
<pdfrwt beam="2">  1       21 0.13351722E+00 0.44085291E+03</pdfrwt>
<totfact> 0.75855580E+02</totfact>
</mgrwt>
</event>
<event>
 6    1  0.8947013E-004  0.4244939E+03  0.7818608E-02  0.1035687E+00
         21   -1    0    0  501  502  0.00000000000E+00  0.00000000000E+00  0.22858025526E+03  0.22858025526E+03  0.00000000000E+00 0. -1.
         21   -1    0    0  502  503 -0.00000000000E+00 -0.00000000000E+00 -0.86287932715E+03  0.86287932715E+03  0.00000000000E+00 0. -1.
    9000007    2    1    2  501    0  0.59245728449E+02  0.12917059062E+03 -0.15460539763E+03  0.45091206742E+03  0.39902852749E+03 0.  0.
    9000005    1    3    3    0    0  0.80489773082E+02 -0.94838777136E+02  0.61643202600E+02  0.13883040604E+03  0.99999687468E+00 0.  0.
          4    1    3    3  501    0 -0.21244044633E+02  0.22400936775E+03 -0.21624860023E+03  0.31208166139E+03  0.00000000000E+00 0.  1.
   -9000007    1    1    2    0  503 -0.59245728449E+02 -0.12917059062E+03 -0.47969367427E+03  0.64054751498E+03  0.40000000000E+03 0. -1.
<mgrwt>
<rscale>  2 0.42426492E+03</rscale>
<asrwt>0</asrwt>
<pdfrwt beam="1">  1       21 0.35166192E-01 0.42449393E+03</pdfrwt>
<pdfrwt beam="2">  1       21 0.13275067E+00 0.42449393E+03</pdfrwt>
<totfact> 0.27893538E+03</totfact>
</mgrwt>
</event>
<event>
 6    1  0.8947013E-004  0.4184090E+03  0.7818608E-02  0.1037623E+00
         21   -1    0    0  501  502  0.00000000000E+00  0.00000000000E+00  0.37482867656E+03  0.37482867656E+03  0.00000000000E+00 0. -1.
         21   -1    0    0  502  503 -0.00000000000E+00 -0.00000000000E+00 -0.60477560839E+03  0.60477560839E+03  0.00000000000E+00 0.  1.
    9000007    2    1    2  501    0 -0.70313047409E+02  0.10060913290E+03  0.11924146634E+03  0.43462845092E+03  0.39952126450E+03 0.  0.
    9000005    1    3    3    0    0  0.69321430104E+02  0.15552622281E+03  0.20125991899E+03  0.26362932621E+03  0.99999687468E+00 0.  0.
          4    1    3    3  501    0 -0.13963447751E+03 -0.54917089916E+02 -0.82018452644E+02  0.17099912470E+03  0.00000000000E+00 0.  1.
   -9000007    1    1    2    0  503  0.70313047409E+02 -0.10060913290E+03 -0.34918839817E+03  0.54497583403E+03  0.40000000000E+03 0.  1.
<mgrwt>
<rscale>  2 0.41829458E+03</rscale>
<asrwt>0</asrwt>
<pdfrwt beam="1">  1       21 0.57665950E-01 0.41840904E+03</pdfrwt>
<pdfrwt beam="2">  1       21 0.93042401E-01 0.41840904E+03</pdfrwt>
<totfact> 0.24043772E+03</totfact>
</mgrwt>
</event>
<event>
 6    1  0.8947013E-004  0.4976930E+03  0.7818608E-02  0.1014428E+00
         21   -1    0    0  501  502  0.00000000000E+00  0.00000000000E+00  0.16308304500E+04  0.16308304500E+04  0.00000000000E+00 0.  1.
         21   -1    0    0  502  503 -0.00000000000E+00 -0.00000000000E+00 -0.30484535405E+03  0.30484535405E+03  0.00000000000E+00 0.  1.
    9000007    2    1    2  501    0  0.29035385033E+03 -0.58249528240E+02  0.13488063779E+04  0.14374598099E+04  0.39914119550E+03 0.  0.
    9000005    1    3    3    0    0  0.22125285395E+03  0.62467887045E+02  0.29251665769E+03  0.37205114878E+03  0.99999687468E+00 0.  0.
          4    1    3    3  501    0  0.69100996380E+02 -0.12071741528E+03  0.10562897202E+04  0.10654086611E+04  0.00000000000E+00 0.  1.
   -9000007    1    1    2    0  503 -0.29035385033E+03  0.58249528240E+02 -0.22821281967E+02  0.49821599418E+03  0.40000000000E+03 0.  1.
<mgrwt>
<rscale>  2 0.49752046E+03</rscale>
<asrwt>0</asrwt>
<pdfrwt beam="1">  1       21 0.25089699E+00 0.49769304E+03</pdfrwt>
<pdfrwt beam="2">  1       21 0.46899287E-01 0.49769304E+03</pdfrwt>
<totfact> 0.22234840E+02</totfact>
</mgrwt>
</event>
<event>
 6    1  0.8947013E-004  0.4305236E+03  0.7818608E-02  0.1033799E+00
         21   -1    0    0  501  502  0.00000000000E+00  0.00000000000E+00  0.30455682514E+04  0.30455682514E+04  0.00000000000E+00 0.  1.
         21   -1    0    0  502  503 -0.00000000000E+00 -0.00000000000E+00 -0.11398637803E+03  0.11398637803E+03  0.00000000000E+00 0.  1.
    9000007    2    1    2  501    0 -0.14161065914E+03 -0.72780476527E+02  0.25450055339E+04  0.25809426327E+04  0.39857386901E+03 0.  0.
    9000005    1    3    3    0    0  0.98261477576E+02 -0.10435443028E+02  0.16291727028E+04  0.16321669375E+04  0.99999687468E+00 0.  0.
          4    1    3    3  501    0 -0.23987213672E+03 -0.62345033500E+02  0.91583283115E+03  0.94877569519E+03  0.00000000000E+00 0.  1.
   -9000007    1    1    2    0  503  0.14161065914E+03  0.72780476527E+02  0.38657633947E+03  0.57861199675E+03  0.40000000000E+03 0.  1.
<mgrwt>
<rscale>  2 0.43019205E+03</rscale>
<asrwt>0</asrwt>
<pdfrwt beam="1">  1       21 0.46854890E+00 0.43052361E+03</pdfrwt>
<pdfrwt beam="2">  1       21 0.17536368E-01 0.43052361E+03</pdfrwt>
<totfact> 0.69464052E+01</totfact>
</mgrwt>
</event>
<event>
 6    1  0.8947013E-004  0.4397992E+03  0.7818608E-02  0.1030818E+00
         21   -1    0    0  501  502  0.00000000000E+00  0.00000000000E+00  0.33545620428E+03  0.33545620428E+03  0.00000000000E+00 0.  1.
         21   -1    0    0  502  503 -0.00000000000E+00 -0.00000000000E+00 -0.62758793202E+03  0.62758793202E+03  0.00000000000E+00 0.  1.
    9000007    2    1    2  501    0  0.50334130205E+02 -0.17575506030E+03 -0.85809671521E+01  0.43976180360E+03  0.39986678410E+03 0.  0.
    9000005    1    3    3    0    0  0.96135425103E+02 -0.43642638902E+01  0.16534952772E+03  0.19131788487E+03  0.99999687468E+00 0.  0.
          4    1    3    3  501    0 -0.45801294897E+02 -0.17139079641E+03 -0.17393049487E+03  0.24844391873E+03  0.00000000000E+00 0.  1.
   -9000007    1    1    2    0  503 -0.50334130205E+02  0.17575506030E+03 -0.28355076058E+03  0.52328233270E+03  0.40000000000E+03 0. -1.
<mgrwt>
<rscale>  2 0.43976894E+03</rscale>
<asrwt>0</asrwt>
<pdfrwt beam="1">  1       21 0.51608647E-01 0.43979923E+03</pdfrwt>
<pdfrwt beam="2">  1       21 0.96551990E-01 0.43979923E+03</pdfrwt>
<totfact> 0.27720567E+03</totfact>
</mgrwt>
</event>
<event>
 6    1  0.8947013E-004  0.4402852E+03  0.7818608E-02  0.1030722E+00
         21   -1    0    0  501  502  0.00000000000E+00  0.00000000000E+00  0.29744631708E+03  0.29744631708E+03  0.00000000000E+00 0. -1.
         21   -1    0    0  502  503 -0.00000000000E+00 -0.00000000000E+00 -0.87089848815E+03  0.87089848815E+03  0.00000000000E+00 0.  1.
    9000007    2    1    2  501    0 -0.12796434921E+02 -0.18156829373E+03 -0.58079526544E+03  0.72881697328E+03  0.40089929676E+03 0.  0.
    9000005    1    3    3    0    0  0.17659043998E+03 -0.14365419334E+03 -0.20523471786E+03  0.30650122376E+03  0.99999687468E+00 0.  0.
          4    1    3    3  501    0 -0.18938687490E+03 -0.37914100383E+02 -0.37556054758E+03  0.42231574952E+03  0.00000000000E+00 0.  1.
   -9000007    1    1    2    0  503  0.12796434921E+02  0.18156829373E+03  0.73430943726E+01  0.43952783196E+03  0.40000000000E+03 0. -1.
<mgrwt>
<rscale>  2 0.44008036E+03</rscale>
<asrwt>0</asrwt>
<pdfrwt beam="1">  1       21 0.45760972E-01 0.44028518E+03</pdfrwt>
<pdfrwt beam="2">  1       21 0.13398438E+00 0.44028518E+03</pdfrwt>
<totfact> 0.15729895E+03</totfact>
</mgrwt>
</event>
<event>
 6    1  0.8947013E-004  0.4828417E+03  0.7818608E-02  0.1018424E+00
         21   -1    0    0  501  502  0.00000000000E+00  0.00000000000E+00  0.48174703860E+03  0.48174703860E+03  0.00000000000E+00 0. -1.
         21   -1    0    0  502  503 -0.00000000000E+00 -0.00000000000E+00 -0.78334236711E+03  0.78334236711E+03  0.00000000000E+00 0.  1.
    9000007    2    1    2  501    0  0.23668357287E+03  0.13083186263E+03  0.24099720174E+03  0.53876802792E+03  0.39881730995E+03 0.  0.
    9000005    1    3    3    0    0  0.14942777818E+02  0.99931475070E+02  0.29213614352E+03  0.30911828264E+03  0.99999687468E+00 0.  0.
          4    1    3    3  501    0  0.22174079505E+03  0.30900387564E+02 -0.51138941776E+02  0.22964974528E+03  0.00000000000E+00 0.  1.
   -9000007    1    1    2    0  503 -0.23668357287E+03 -0.13083186263E+03 -0.54259253025E+03  0.72632137779E+03  0.40000000000E+03 0.  1.
<mgrwt>
<rscale>  2 0.48259667E+03</rscale>
<asrwt>0</asrwt>
<pdfrwt beam="1">  1       21 0.74114929E-01 0.48284168E+03</pdfrwt>
<pdfrwt beam="2">  1       21 0.12051421E+00 0.48284168E+03</pdfrwt>
<totfact> 0.70911295E+02</totfact>
</mgrwt>
</event>
<event>
 6    1  0.8947013E-004  0.4612463E+03  0.7818608E-02  0.1024515E+00
         21   -1    0    0  501  502  0.00000000000E+00  0.00000000000E+00  0.84605674238E+03  0.84605674238E+03  0.00000000000E+00 0.  1.
         21   -1    0    0  502  503 -0.00000000000E+00 -0.00000000000E+00 -0.31152499371E+03  0.31152499371E+03  0.00000000000E+00 0.  1.
    9000007    2    1    2  501    0 -0.22862467105E+03  0.21883073227E+02  0.52261021599E+03  0.69618144128E+03  0.39849598772E+03 0.  0.
    9000005    1    3    3    0    0  0.10299459632E+03  0.42512852517E+02  0.22073527771E+03  0.24726563109E+03  0.99999687468E+00 0.  0.
          4    1    3    3  501    0 -0.33161926736E+03 -0.20629779290E+02  0.30187493828E+03  0.44891581019E+03  0.00000000000E+00 0.  1.
   -9000007    1    1    2    0  503  0.22862467105E+03 -0.21883073227E+02  0.11921532679E+02  0.46140029480E+03  0.40000000000E+03 0.  1.
<mgrwt>
<rscale>  2 0.46091999E+03</rscale>
<asrwt>0</asrwt>
<pdfrwt beam="1">  1       21 0.13016257E+00 0.46124626E+03</pdfrwt>
<pdfrwt beam="2">  1       21 0.47926922E-01 0.46124626E+03</pdfrwt>
<totfact> 0.15257942E+03</totfact>
</mgrwt>
</event>
<event>
 6    1  0.8947013E-004  0.5367857E+03  0.7818608E-02  0.1004618E+00
         21   -1    0    0  501  502  0.00000000000E+00  0.00000000000E+00  0.70716172538E+03  0.70716172538E+03  0.00000000000E+00 0.  1.
         21   -1    0    0  502  503 -0.00000000000E+00 -0.00000000000E+00 -0.42617396713E+03  0.42617396713E+03  0.00000000000E+00 0. -1.
    9000007    2    1    2  501    0  0.12245555137E+03  0.33587376928E+03  0.26002709589E+03  0.59645032270E+03  0.40041521687E+03 0.  0.
    9000005    1    3    3    0    0 -0.13450998912E+03  0.30955807938E+02  0.67040918966E+02  0.15344928813E+03  0.99999687468E+00 0.  0.
          4    1    3    3  501    0  0.25696554049E+03  0.30491796134E+03  0.19298617693E+03  0.44300103457E+03  0.00000000000E+00 0.  1.
   -9000007    1    1    2    0  503 -0.12245555137E+03 -0.33587376928E+03  0.20960662362E+02  0.53688536981E+03  0.40000000000E+03 0. -1.
<mgrwt>
<rscale>  2 0.53670828E+03</rscale>
<asrwt>0</asrwt>
<pdfrwt beam="1">  1       21 0.10879411E+00 0.53678571E+03</pdfrwt>
<pdfrwt beam="2">  1       21 0.65565226E-01 0.53678571E+03</pdfrwt>
<totfact> 0.11855215E+03</totfact>
</mgrwt>
</event>
<event>
 6    1  0.8947013E-004  0.5507665E+03  0.7818608E-02  0.1001677E+00
         21   -1    0    0  501  502  0.00000000000E+00  0.00000000000E+00  0.46715785655E+03  0.46715785655E+03  0.00000000000E+00 0.  1.
         21   -1    0    0  502  503 -0.00000000000E+00 -0.00000000000E+00 -0.73053406484E+03  0.73053406484E+03  0.00000000000E+00 0.  1.
    9000007    2    1    2  501    0  0.36685592970E+03  0.44274947652E+02  0.76079004291E+02  0.55599621040E+03  0.40841183497E+03 0.  0.
    9000005    1    3    3    0    0  0.15764845279E+03 -0.36727602773E+02  0.23192928077E+03  0.28283235802E+03  0.99999687468E+00 0.  0.
          4    1    3    3  501    0  0.20920747691E+03  0.81002550426E+02 -0.15585027648E+03  0.27316385238E+03  0.00000000000E+00 0.  1.
   -9000007    1    1    2    0  503 -0.36685592970E+03 -0.44274947652E+02 -0.33945521258E+03  0.64169571098E+03  0.40000000000E+03 0.  1.
<mgrwt>
<rscale>  2 0.54920782E+03</rscale>
<asrwt>0</asrwt>
<pdfrwt beam="1">  1       21 0.71870440E-01 0.55076653E+03</pdfrwt>
<pdfrwt beam="2">  1       21 0.11238986E+00 0.55076653E+03</pdfrwt>
<totfact> 0.88457952E+02</totfact>
</mgrwt>
</event>
<event>
 6    1  0.8947013E-004  0.4956705E+03  0.7818608E-02  0.1015022E+00
         21   -1    0    0  501  502  0.00000000000E+00  0.00000000000E+00  0.17149370040E+04  0.17149370040E+04  0.00000000000E+00 0. -1.
         21   -1    0    0  502  503 -0.00000000000E+00 -0.00000000000E+00 -0.14708602843E+03  0.14708602843E+03  0.00000000000E+00 0. -1.
    9000007    2    1    2  501    0 -0.26958382753E+03  0.10681240156E+03  0.94417339957E+03  0.10663735820E+04  0.40200109291E+03 0.  0.
    9000005    1    3    3    0    0 -0.58630550121E+02 -0.10038077825E+03  0.60648503694E+03  0.61752647075E+03  0.99999687468E+00 0.  0.
          4    1    3    3  501    0 -0.21095327741E+03  0.20719317981E+03  0.33768836263E+03  0.44884711123E+03  0.00000000000E+00 0.  1.
   -9000007    1    1    2    0  503  0.26958382753E+03 -0.10681240156E+03  0.62367757605E+03  0.79564945048E+03  0.40000000000E+03 0. -1.
<mgrwt>
<rscale>  2 0.49526458E+03</rscale>
<asrwt>0</asrwt>
<pdfrwt beam="1">  1       21 0.26383645E+00 0.49567046E+03</pdfrwt>
<pdfrwt beam="2">  1       21 0.22628621E-01 0.49567046E+03</pdfrwt>
<totfact> 0.80446541E+02</totfact>
</mgrwt>
</event>
<event>
 6    1  0.8947013E-004  0.7307262E+03  0.7818608E-02  0.9666142E-01
         21   -1    0    0  501  502  0.00000000000E+00  0.00000000000E+00  0.52308832194E+03  0.52308832194E+03  0.00000000000E+00 0.  1.
         21   -1    0    0  502  503 -0.00000000000E+00 -0.00000000000E+00 -0.10299236870E+04  0.10299236870E+04  0.00000000000E+00 0.  1.
    9000007    2    1    2  501    0  0.50386409232E+03 -0.34652820198E+03 -0.17943700126E+03  0.75229326502E+03  0.39973328718E+03 0.  0.
    9000005    1    3    3    0    0  0.25016473428E+03 -0.11620482085E+03 -0.28214246929E+03  0.39457740386E+03  0.99999687468E+00 0.  0.
          4    1    3    3  501    0  0.25369935804E+03 -0.23032338113E+03  0.10270546803E+03  0.35771586116E+03  0.00000000000E+00 0.  1.
   -9000007    1    1    2    0  503 -0.50386409232E+03  0.34652820198E+03 -0.32739836385E+03  0.80071874397E+03  0.40000000000E+03 0.  1.
<mgrwt>
<rscale>  2 0.73068973E+03</rscale>
<asrwt>0</asrwt>
<pdfrwt beam="1">  1       21 0.80475127E-01 0.73072623E+03</pdfrwt>
<pdfrwt beam="2">  1       21 0.15844980E+00 0.73072623E+03</pdfrwt>
<totfact> 0.25913779E+02</totfact>
</mgrwt>
</event>
<event>
 6    1  0.8947013E-004  0.4531321E+03  0.7818608E-02  0.1026843E+00
         21   -1    0    0  501  502  0.00000000000E+00  0.00000000000E+00  0.18440720792E+03  0.18440720792E+03  0.00000000000E+00 0.  1.
         21   -1    0    0  502  503 -0.00000000000E+00 -0.00000000000E+00 -0.14911970447E+04  0.14911970447E+04  0.00000000000E+00 0.  1.
    9000007    2    1    2  501    0 -0.85263718934E+02 -0.19349469183E+03 -0.23115675710E+03  0.50868668070E+03  0.40077249811E+03 0.  0.
    9000005    1    3    3    0    0 -0.10102884730E+03 -0.14411813486E+03  0.79934870465E+02  0.19330661730E+03  0.99999687468E+00 0.  0.
          4    1    3    3  501    0  0.15765128370E+02 -0.49376556968E+02 -0.31109162756E+03  0.31538006340E+03  0.00000000000E+00 0.  1.
   -9000007    1    1    2    0  503  0.85263718934E+02  0.19349469183E+03 -0.10756330797E+04  0.11669175719E+04  0.40000000000E+03 0.  1.
<mgrwt>
<rscale>  2 0.45296122E+03</rscale>
<asrwt>0</asrwt>
<pdfrwt beam="1">  1       21 0.28370339E-01 0.45313209E+03</pdfrwt>
<pdfrwt beam="2">  1       21 0.22941493E+00 0.45313209E+03</pdfrwt>
<totfact> 0.86236208E+02</totfact>
</mgrwt>
</event>
<event>
 6    1  0.8947013E-004  0.4732421E+03  0.7818608E-02  0.1021031E+00
         21   -1    0    0  501  502  0.00000000000E+00  0.00000000000E+00  0.40903573042E+03  0.40903573042E+03  0.00000000000E+00 0.  1.
         21   -1    0    0  502  503 -0.00000000000E+00 -0.00000000000E+00 -0.59508872552E+03  0.59508872552E+03  0.00000000000E+00 0. -1.
    9000007    2    1    2  501    0  0.65001847960E+02  0.24440297516E+03  0.49467828196E+02  0.47551485263E+03  0.39963640293E+03 0.  0.
    9000005    1    3    3    0    0 -0.10821729232E+03  0.51485622631E+02 -0.11693174525E+03  0.16743889851E+03  0.99999687468E+00 0.  0.
          4    1    3    3  501    0  0.17321914028E+03  0.19291735253E+03  0.16639957345E+03  0.30807595412E+03  0.00000000000E+00 0.  1.
   -9000007    1    1    2    0  503 -0.65001847960E+02 -0.24440297516E+03 -0.23552082329E+03  0.52860960331E+03  0.40000000000E+03 0. -1.
<mgrwt>
<rscale>  2 0.47316523E+03</rscale>
<asrwt>0</asrwt>
<pdfrwt beam="1">  1       21 0.62928574E-01 0.47324207E+03</pdfrwt>
<pdfrwt beam="2">  1       21 0.91552111E-01 0.47324207E+03</pdfrwt>
<totfact> 0.20211266E+03</totfact>
</mgrwt>
</event>
<event>
 6    1  0.8947013E-004  0.4280541E+03  0.7818608E-02  0.1034544E+00
         21   -1    0    0  501  502  0.00000000000E+00  0.00000000000E+00  0.24602746780E+03  0.24602746780E+03  0.00000000000E+00 0.  1.
         21   -1    0    0  502  503 -0.00000000000E+00 -0.00000000000E+00 -0.19367970336E+04  0.19367970336E+04  0.00000000000E+00 0.  1.
    9000007    2    1    2  501    0 -0.24278015931E+02  0.15046894519E+03  0.11707671622E+02  0.42735901627E+03  0.39908436914E+03 0.  0.
    9000005    1    3    3    0    0  0.18258194839E+03  0.46541237368E+02  0.44342830977E+02  0.19357050732E+03  0.99999687468E+00 0.  0.
          4    1    3    3  501    0 -0.20685996432E+03  0.10392770783E+03 -0.32635159355E+02  0.23378850895E+03  0.00000000000E+00 0.  1.
   -9000007    1    1    2    0  503  0.24278015931E+02 -0.15046894519E+03 -0.17024772374E+04  0.17554654851E+04  0.40000000000E+03 0.  1.
<mgrwt>
<rscale>  2 0.42784008E+03</rscale>
<asrwt>0</asrwt>
<pdfrwt beam="1">  1       21 0.37850380E-01 0.42805412E+03</pdfrwt>
<pdfrwt beam="2">  1       21 0.29796877E+00 0.42805412E+03</pdfrwt>
<totfact> 0.18733128E+02</totfact>
</mgrwt>
</event>
<event>
 6    1  0.8947013E-004  0.4239133E+03  0.7818608E-02  0.1035830E+00
         21   -1    0    0  501  502  0.00000000000E+00  0.00000000000E+00  0.11871825851E+04  0.11871825851E+04  0.00000000000E+00 0. -1.
         21   -1    0    0  502  503 -0.00000000000E+00 -0.00000000000E+00 -0.15253554990E+03  0.15253554990E+03  0.00000000000E+00 0.  1.
    9000007    2    1    2  501    0  0.13312370268E+03 -0.40812478796E+02  0.45572388949E+03  0.62240398675E+03  0.40039340733E+03 0.  0.
    9000005    1    3    3    0    0  0.24671304281E+03  0.77347316623E+02  0.25345729305E+03  0.36206564636E+03  0.99999687468E+00 0.  0.
          4    1    3    3  501    0 -0.11358934012E+03 -0.11815979542E+03  0.20226659644E+03  0.26033834039E+03  0.00000000000E+00 0.  1.
   -9000007    1    1    2    0  503 -0.13312370268E+03  0.40812478796E+02  0.57892314575E+03  0.71731414829E+03  0.40000000000E+03 0. -1.
<mgrwt>
<rscale>  2 0.42382035E+03</rscale>
<asrwt>0</asrwt>
<pdfrwt beam="1">  1       21 0.18264347E+00 0.42391327E+03</pdfrwt>
<pdfrwt beam="2">  1       21 0.23467008E-01 0.42391327E+03</pdfrwt>
<totfact> 0.25738896E+03</totfact>
</mgrwt>
</event>
<event>
 6    1  0.8947013E-004  0.5357560E+03  0.7818608E-02  0.1004892E+00
         21   -1    0    0  501  502  0.00000000000E+00  0.00000000000E+00  0.55770284686E+03  0.55770284686E+03  0.00000000000E+00 0. -1.
         21   -1    0    0  502  503 -0.00000000000E+00 -0.00000000000E+00 -0.11807388170E+04  0.11807388170E+04  0.00000000000E+00 0.  1.
    9000007    2    1    2  501    0 -0.31822441715E+03 -0.15791861193E+03  0.34159594928E+03  0.63539143489E+03  0.40103542899E+03 0.  0.
    9000005    1    3    3    0    0 -0.29921672934E+03  0.69643577343E+02  0.20418774434E+03  0.36888279157E+03  0.99999687468E+00 0.  0.
          4    1    3    3  501    0 -0.19007687811E+02 -0.22756218927E+03  0.13740820494E+03  0.26650864332E+03  0.00000000000E+00 0.  1.
   -9000007    1    1    2    0  503  0.31822441715E+03  0.15791861193E+03 -0.96463191939E+03  0.11030502289E+04  0.40000000000E+03 0.  1.
<mgrwt>
<rscale>  2 0.53556223E+03</rscale>
<asrwt>0</asrwt>
<pdfrwt beam="1">  1       21 0.85800439E-01 0.53575599E+03</pdfrwt>
<pdfrwt beam="2">  1       21 0.18165212E+00 0.53575599E+03</pdfrwt>
<totfact> 0.16129312E+02</totfact>
</mgrwt>
</event>
<event>
 6    1  0.8947013E-004  0.4644389E+03  0.7818608E-02  0.1023522E+00
         21   -1    0    0  501  502  0.00000000000E+00  0.00000000000E+00  0.29654804606E+04  0.29654804606E+04  0.00000000000E+00 0.  1.
         21   -1    0    0  502  503 -0.00000000000E+00 -0.00000000000E+00 -0.76048131812E+02  0.76048131812E+02  0.00000000000E+00 0. -1.
    9000007    2    1    2  501    0  0.38397788728E+02  0.23287138377E+03  0.17636528155E+04  0.18237096469E+04  0.39967755872E+03 0.  0.
    9000005    1    3    3    0    0  0.76631718051E+01  0.22362888994E+03  0.38962847100E+03  0.44931052740E+03  0.99999687468E+00 0.  0.
          4    1    3    3  501    0  0.30734616923E+02  0.92424938288E+01  0.13740243445E+04  0.13743991195E+04  0.00000000000E+00 0.  1.
   -9000007    1    1    2    0  503 -0.38397788728E+02 -0.23287138377E+03  0.11257795133E+04  0.12178189455E+04  0.40000000000E+03 0. -1.
<mgrwt>
<rscale>  2 0.46436944E+03</rscale>
<asrwt>0</asrwt>
<pdfrwt beam="1">  1       21 0.45622767E+00 0.46443888E+03</pdfrwt>
<pdfrwt beam="2">  1       21 0.11699715E-01 0.46443888E+03</pdfrwt>
<totfact> 0.17403316E+02</totfact>
</mgrwt>
</event>
<event>
 6    1  0.8947013E-004  0.4571536E+03  0.7818608E-02  0.1025616E+00
         21   -1    0    0  501  502  0.00000000000E+00  0.00000000000E+00  0.82978957254E+03  0.82978957254E+03  0.00000000000E+00 0. -1.
         21   -1    0    0  502  503 -0.00000000000E+00 -0.00000000000E+00 -0.29688185219E+03  0.29688185219E+03  0.00000000000E+00 0.  1.
    9000007    2    1    2  501    0  0.15435700327E+03 -0.15837912733E+03  0.46979765193E+02  0.45956123141E+03  0.40009923100E+03 0.  0.
    9000005    1    3    3    0    0 -0.80199389748E+02 -0.20217139797E+03  0.69020963036E+01  0.21760940973E+03  0.99999687468E+00 0.  0.
          4    1    3    3  501    0  0.23455639302E+03  0.43792270641E+02  0.40077668890E+02  0.24195182169E+03  0.00000000000E+00 0.  1.
   -9000007    1    1    2    0  503 -0.15435700327E+03  0.15837912733E+03  0.48592795515E+03  0.66711019332E+03  0.40000000000E+03 0. -1.
<mgrwt>
<rscale>  2 0.45713190E+03</rscale>
<asrwt>0</asrwt>
<pdfrwt beam="1">  1       21 0.12765993E+00 0.45715361E+03</pdfrwt>
<pdfrwt beam="2">  1       21 0.45674132E-01 0.45715361E+03</pdfrwt>
<totfact> 0.17786891E+03</totfact>
</mgrwt>
</event>
<event>
 6    1  0.8947013E-004  0.4658261E+03  0.7818608E-02  0.1023212E+00
         21   -1    0    0  501  502  0.00000000000E+00  0.00000000000E+00  0.17439564288E+04  0.17439564288E+04  0.00000000000E+00 0. -1.
         21   -1    0    0  502  503 -0.00000000000E+00 -0.00000000000E+00 -0.14546328231E+03  0.14546328231E+03  0.00000000000E+00 0. -1.
    9000007    2    1    2  501    0  0.23535139594E+03 -0.40046057748E+02  0.11608109791E+04  0.12502330045E+04  0.39825427791E+03 0.  0.
    9000005    1    3    3    0    0  0.17364916620E+03 -0.21051785113E+03  0.56505875392E+03  0.62750632980E+03  0.99999687468E+00 0.  0.
          4    1    3    3  501    0  0.61702229735E+02  0.17047179338E+03  0.59575222522E+03  0.62272667467E+03  0.00000000000E+00 0.  1.
   -9000007    1    1    2    0  503 -0.23535139594E+03  0.40046057748E+02  0.43768216730E+03  0.63918670659E+03  0.40000000000E+03 0. -1.
<mgrwt>
<rscale>  2 0.46545112E+03</rscale>
<asrwt>0</asrwt>
<pdfrwt beam="1">  1       21 0.26830097E+00 0.46582611E+03</pdfrwt>
<pdfrwt beam="2">  1       21 0.22378968E-01 0.46582611E+03</pdfrwt>
<totfact> 0.78345109E+02</totfact>
</mgrwt>
</event>
<event>
 6    1  0.8947013E-004  0.5505233E+03  0.7818608E-02  0.1001380E+00
         21   -1    0    0  501  502  0.00000000000E+00  0.00000000000E+00  0.66922596600E+03  0.66922596600E+03  0.00000000000E+00 0. -1.
         21   -1    0    0  502  503 -0.00000000000E+00 -0.00000000000E+00 -0.55540675035E+03  0.55540675035E+03  0.00000000000E+00 0.  1.
    9000007    2    1    2  501    0 -0.26232972650E+03 -0.27250501842E+03  0.32012198913E+03  0.63672396082E+03  0.39982926842E+03 0.  0.
    9000005    1    3    3    0    0 -0.16175249706E+02  0.53892030393E+02  0.20417377135E+03  0.21178743718E+03  0.99999687468E+00 0.  0.
          4    1    3    3  501    0 -0.24615447680E+03 -0.32639704882E+03  0.11594821778E+03  0.42493652365E+03  0.00000000000E+00 0.  1.
   -9000007    1    1    2    0  503  0.26232972650E+03  0.27250501842E+03 -0.20630277349E+03  0.58790875552E+03  0.40000000000E+03 0.  1.
<mgrwt>
<rscale>  2 0.55049226E+03</rscale>
<asrwt>0</asrwt>
<pdfrwt beam="1">  1       21 0.10295784E+00 0.55052327E+03</pdfrwt>
<pdfrwt beam="2">  1       21 0.85447193E-01 0.55052327E+03</pdfrwt>
<totfact> 0.73723851E+02</totfact>
</mgrwt>
</event>
<event>
 6    1  0.8947013E-004  0.4023373E+03  0.7818608E-02  0.1043002E+00
         21   -1    0    0  501  502  0.00000000000E+00  0.00000000000E+00  0.27965292676E+03  0.27965292676E+03  0.00000000000E+00 0. -1.
         21   -1    0    0  502  503 -0.00000000000E+00 -0.00000000000E+00 -0.58644371540E+03  0.58644371540E+03  0.00000000000E+00 0. -1.
    9000007    2    1    2  501    0 -0.13216125267E+02 -0.37787930954E+02 -0.10260344773E+03  0.41521410327E+03  0.40034071786E+03 0.  0.
    9000005    1    3    3    0    0 -0.44322005421E+01  0.17016643322E+03  0.23518687508E+02  0.17184408065E+03  0.99999687468E+00 0.  0.
          4    1    3    3  501    0 -0.87839247247E+01 -0.20795436418E+03 -0.12612213524E+03  0.24337002262E+03  0.00000000000E+00 0.  1.
   -9000007    1    1    2    0  503  0.13216125267E+02  0.37787930954E+02 -0.20418734091E+03  0.45088253890E+03  0.40000000000E+03 0. -1.
<mgrwt>
<rscale>  2 0.40225249E+03</rscale>
<asrwt>0</asrwt>
<pdfrwt beam="1">  1       21 0.43023528E-01 0.40233728E+03</pdfrwt>
<pdfrwt beam="2">  1       21 0.90222109E-01 0.40233728E+03</pdfrwt>
<totfact> 0.48464858E+03</totfact>
</mgrwt>
</event>
<event>
 6    1  0.8947013E-004  0.4358199E+03  0.7818608E-02  0.1032053E+00
         21   -1    0    0  501  502  0.00000000000E+00  0.00000000000E+00  0.18904361132E+03  0.18904361132E+03  0.00000000000E+00 0. -1.
         21   -1    0    0  502  503 -0.00000000000E+00 -0.00000000000E+00 -0.10281418941E+04  0.10281418941E+04  0.00000000000E+00 0.  1.
    9000007    2    1    2  501    0  0.16942620583E+03  0.35125315841E+02 -0.32670798930E+03  0.54451705818E+03  0.39977704955E+03 0.  0.
    9000005    1    3    3    0    0  0.70364097752E+02 -0.74759116351E+02  0.67897133642E+02  0.12308961159E+03  0.99999687468E+00 0.  0.
          4    1    3    3  501    0  0.99062108077E+02  0.10988443219E+03 -0.39460512294E+03  0.42142744660E+03  0.00000000000E+00 0.  1.
   -9000007    1    1    2    0  503 -0.16942620583E+03 -0.35125315841E+02 -0.51239029345E+03  0.67266844720E+03  0.40000000000E+03 0. -1.
<mgrwt>
<rscale>  2 0.43576878E+03</rscale>
<asrwt>0</asrwt>
<pdfrwt beam="1">  1       21 0.29083632E-01 0.43581995E+03</pdfrwt>
<pdfrwt beam="2">  1       21 0.15817568E+00 0.43581995E+03</pdfrwt>
<totfact> 0.25366258E+03</totfact>
</mgrwt>
</event>
<event>
 6    1  0.8947013E-004  0.4259220E+03  0.7818608E-02  0.1035234E+00
         21   -1    0    0  501  502  0.00000000000E+00  0.00000000000E+00  0.78805351293E+03  0.78805351293E+03  0.00000000000E+00 0. -1.
         21   -1    0    0  502  503 -0.00000000000E+00 -0.00000000000E+00 -0.67382442418E+03  0.67382442418E+03  0.00000000000E+00 0. -1.
    9000007    2    1    2  501    0 -0.95881061736E+02  0.10672495218E+03  0.65057042488E+03  0.77759333092E+03  0.40103131690E+03 0.  0.
    9000005    1    3    3    0    0 -0.11510876081E+03  0.25281767528E+03  0.40235516073E+03  0.48893504590E+03  0.99999687468E+00 0.  0.
          4    1    3    3  501    0  0.19227699072E+02 -0.14609272309E+03  0.24821526415E+03  0.28865828502E+03  0.00000000000E+00 0.  1.
   -9000007    1    1    2    0  503  0.95881061736E+02 -0.10672495218E+03 -0.53634133613E+03  0.68428460618E+03  0.40000000000E+03 0. -1.
<mgrwt>
<rscale>  2 0.42567902E+03</rscale>
<asrwt>0</asrwt>
<pdfrwt beam="1">  1       21 0.12123900E+00 0.42592195E+03</pdfrwt>
<pdfrwt beam="2">  1       21 0.10366530E+00 0.42592195E+03</pdfrwt>
<totfact> 0.32478302E+02</totfact>
</mgrwt>
</event>
<event>
 6    1  0.8947013E-004  0.4211918E+03  0.7818608E-02  0.1036708E+00
         21   -1    0    0  501  502  0.00000000000E+00  0.00000000000E+00  0.41070062991E+03  0.41070062991E+03  0.00000000000E+00 0.  1.
         21   -1    0    0  502  503 -0.00000000000E+00 -0.00000000000E+00 -0.47705907715E+03  0.47705907715E+03  0.00000000000E+00 0.  1.
    9000007    2    1    2  501    0 -0.85645272120E+02 -0.98823643328E+02  0.10385380597E+03  0.43380658584E+03  0.40037646758E+03 0.  0.
    9000005    1    3    3    0    0  0.43689156901E+02 -0.32413235190E+01 -0.13720122717E+03  0.14402925168E+03  0.99999687468E+00 0.  0.
          4    1    3    3  501    0 -0.12933442902E+03 -0.95582319809E+02  0.24105503315E+03  0.28977733416E+03  0.00000000000E+00 0.  1.
   -9000007    1    1    2    0  503  0.85645272120E+02  0.98823643328E+02 -0.17021225322E+03  0.45395312122E+03  0.40000000000E+03 0.  1.
<mgrwt>
<rscale>  2 0.42110232E+03</rscale>
<asrwt>0</asrwt>
<pdfrwt beam="1">  1       21 0.63184712E-01 0.42119181E+03</pdfrwt>
<pdfrwt beam="2">  1       21 0.73393705E-01 0.42119181E+03</pdfrwt>
<totfact> 0.34110939E+03</totfact>
</mgrwt>
</event>
<event>
 6    1  0.8947013E-004  0.5112222E+03  0.7818608E-02  0.1011258E+00
         21   -1    0    0  501  502  0.00000000000E+00  0.00000000000E+00  0.34244642656E+03  0.34244642656E+03  0.00000000000E+00 0. -1.
         21   -1    0    0  502  503 -0.00000000000E+00 -0.00000000000E+00 -0.16763806852E+04  0.16763806852E+04  0.00000000000E+00 0. -1.
    9000007    2    1    2  501    0 -0.18200884093E+03  0.26119138918E+03  0.83235214254E+02  0.51226895661E+03  0.39261077807E+03 0.  0.
    9000005    1    3    3    0    0 -0.23950028147E+03  0.32285355847E+03  0.12112243756E+03  0.41984098170E+03  0.99999687468E+00 0.  0.
          4    1    3    3  501    0  0.57491440541E+02 -0.61662169288E+02 -0.37887223306E+02  0.92427974914E+02  0.00000000000E+00 0.  1.
   -9000007    1    1    2    0  503  0.18200884093E+03 -0.26119138918E+03 -0.14171694729E+04  0.15065581552E+04  0.40000000000E+03 0. -1.
<mgrwt>
<rscale>  2 0.50977593E+03</rscale>
<asrwt>0</asrwt>
<pdfrwt beam="1">  1       21 0.52684066E-01 0.51122222E+03</pdfrwt>
<pdfrwt beam="2">  1       21 0.25790472E+00 0.51122222E+03</pdfrwt>
<totfact> 0.15607844E+02</totfact>
</mgrwt>
</event>
<event>
 6    1  0.8947013E-004  0.4150319E+03  0.7818608E-02  0.1038879E+00
         21   -1    0    0  501  502  0.00000000000E+00  0.00000000000E+00  0.25164462352E+03  0.25164462352E+03  0.00000000000E+00 0.  1.
         21   -1    0    0  502  503 -0.00000000000E+00 -0.00000000000E+00 -0.91027176694E+03  0.91027176694E+03  0.00000000000E+00 0.  1.
    9000007    2    1    2  501    0  0.76598920244E+02 -0.67489062631E+02 -0.38320466415E+02  0.41679724449E+03  0.40228014705E+03 0.  0.
    9000005    1    3    3    0    0  0.10849307743E+03  0.14027919642E+03  0.56603683568E+02  0.18615578902E+03  0.99999687468E+00 0.  0.
          4    1    3    3  501    0 -0.31894157189E+02 -0.20776825905E+03 -0.94924149983E+02  0.23064145547E+03  0.00000000000E+00 0.  1.
   -9000007    1    1    2    0  503 -0.76598920244E+02  0.67489062631E+02 -0.62030667700E+03  0.74511914597E+03  0.40000000000E+03 0.  1.
<mgrwt>
<rscale>  2 0.41447837E+03</rscale>
<asrwt>0</asrwt>
<pdfrwt beam="1">  1       21 0.38714557E-01 0.41503191E+03</pdfrwt>
<pdfrwt beam="2">  1       21 0.14004181E+00 0.41503191E+03</pdfrwt>
<totfact> 0.20009918E+03</totfact>
</mgrwt>
</event>
<event>
 6    1  0.8947013E-004  0.4110941E+03  0.7818608E-02  0.1040047E+00
         21   -1    0    0  501  502  0.00000000000E+00  0.00000000000E+00  0.26035623440E+03  0.26035623440E+03  0.00000000000E+00 0.  1.
         21   -1    0    0  502  503 -0.00000000000E+00 -0.00000000000E+00 -0.72716062922E+03  0.72716062922E+03  0.00000000000E+00 0.  1.
    9000007    2    1    2  501    0  0.91609073660E+02  0.13667306555E+02 -0.70926770077E+02  0.41716775000E+03  0.40052379115E+03 0.  0.
    9000005    1    3    3    0    0 -0.14238790403E+03 -0.35579454406E+02 -0.98055275589E+02  0.17651076413E+03  0.99999687468E+00 0.  0.
          4    1    3    3  501    0  0.23399697769E+03  0.49246760961E+02  0.27128505512E+02  0.24065698586E+03  0.00000000000E+00 0.  1.
   -9000007    1    1    2    0  503 -0.91609073660E+02 -0.13667306555E+02 -0.39587762473E+03  0.57034911362E+03  0.40000000000E+03 0.  1.
<mgrwt>
<rscale>  2 0.41096642E+03</rscale>
<asrwt>0</asrwt>
<pdfrwt beam="1">  1       21 0.40054805E-01 0.41109406E+03</pdfrwt>
<pdfrwt beam="2">  1       21 0.11187087E+00 0.41109406E+03</pdfrwt>
<totfact> 0.33235063E+03</totfact>
</mgrwt>
</event>
<event>
 6    1  0.8947013E-004  0.4199094E+03  0.7818608E-02  0.1037098E+00
         21   -1    0    0  501  502  0.00000000000E+00  0.00000000000E+00  0.56617754887E+03  0.56617754887E+03  0.00000000000E+00 0.  1.
         21   -1    0    0  502  503 -0.00000000000E+00 -0.00000000000E+00 -0.38844267063E+03  0.38844267063E+03  0.00000000000E+00 0.  1.
    9000007    2    1    2  501    0 -0.12710396189E+03  0.12128824572E+02  0.30142656597E+03  0.51689638062E+03  0.40002670925E+03 0.  0.
    9000005    1    3    3    0    0 -0.12970804741E+03  0.16257337703E+03  0.34981008441E+02  0.21090033530E+03  0.99999687468E+00 0.  0.
          4    1    3    3  501    0  0.26040855161E+01 -0.15044455246E+03  0.26644555752E+03  0.30599604532E+03  0.00000000000E+00 0.  1.
   -9000007    1    1    2    0  503  0.12710396189E+03 -0.12128824572E+02 -0.12369168773E+03  0.43772383888E+03  0.40000000000E+03 0.  1.
<mgrwt>
<rscale>  2 0.41990303E+03</rscale>
<asrwt>0</asrwt>
<pdfrwt beam="1">  1       21 0.87104238E-01 0.41990939E+03</pdfrwt>
<pdfrwt beam="2">  1       21 0.59760411E-01 0.41990939E+03</pdfrwt>
<totfact> 0.25982892E+03</totfact>
</mgrwt>
</event>
<event>
 6    1  0.8947013E-004  0.4436810E+03  0.7818608E-02  0.1029626E+00
         21   -1    0    0  501  502  0.00000000000E+00  0.00000000000E+00  0.14202147594E+04  0.14202147594E+04  0.00000000000E+00 0.  1.
         21   -1    0    0  502  503 -0.00000000000E+00 -0.00000000000E+00 -0.49819501016E+03  0.49819501016E+03  0.00000000000E+00 0.  1.
    9000007    2    1    2  501    0 -0.18306088172E+03  0.57498809164E+02  0.12759476085E+04  0.13508867929E+04  0.40004428249E+03 0.  0.
    9000005    1    3    3    0    0 -0.79834735529E+02  0.19926877522E+03  0.36696865039E+03  0.42514541058E+03  0.99999687468E+00 0.  0.
          4    1    3    3  501    0 -0.10322614619E+03 -0.14176996606E+03  0.90897895815E+03  0.92574138230E+03  0.00000000000E+00 0.  1.
   -9000007    1    1    2    0  503  0.18306088172E+03 -0.57498809164E+02 -0.35392785931E+03  0.56752297668E+03  0.40000000000E+03 0.  1.
<mgrwt>
<rscale>  2 0.44367102E+03</rscale>
<asrwt>0</asrwt>
<pdfrwt beam="1">  1       21 0.21849458E+00 0.44368100E+03</pdfrwt>
<pdfrwt beam="2">  1       21 0.76645387E-01 0.44368100E+03</pdfrwt>
<totfact> 0.12437198E+02</totfact>
</mgrwt>
</event>
<event>
 6    1  0.8947013E-004  0.4164778E+03  0.7818608E-02  0.1038297E+00
         21   -1    0    0  501  502  0.00000000000E+00  0.00000000000E+00  0.17549299378E+04  0.17549299378E+04  0.00000000000E+00 0. -1.
         21   -1    0    0  502  503 -0.00000000000E+00 -0.00000000000E+00 -0.10150277732E+03  0.10150277732E+03  0.00000000000E+00 0.  1.
    9000007    2    1    2  501    0  0.83359364552E+02 -0.80653314739E+02  0.98242875485E+03  0.10666906046E+04  0.39900983277E+03 0.  0.
    9000005    1    3    3    0    0 -0.63925066364E+02 -0.19317227363E+03  0.69920316940E+03  0.72820877055E+03  0.99999687468E+00 0.  0.
          4    1    3    3  501    0  0.14728443092E+03  0.11251895889E+03  0.28322558545E+03  0.33848183401E+03  0.00000000000E+00 0.  1.
   -9000007    1    1    2    0  503 -0.83359364552E+02  0.80653314739E+02  0.67099840560E+03  0.78974211054E+03  0.40000000000E+03 0.  1.
<mgrwt>
<rscale>  2 0.41623985E+03</rscale>
<asrwt>0</asrwt>
<pdfrwt beam="1">  1       21 0.26998920E+00 0.41647778E+03</pdfrwt>
<pdfrwt beam="2">  1       21 0.15615813E-01 0.41647778E+03</pdfrwt>
<totfact> 0.15501680E+03</totfact>
</mgrwt>
</event>
<event>
 6    1  0.8947013E-004  0.5461754E+03  0.7818608E-02  0.1002455E+00
         21   -1    0    0  501  502  0.00000000000E+00  0.00000000000E+00  0.14692470953E+04  0.14692470953E+04  0.00000000000E+00 0.  1.
         21   -1    0    0  502  503 -0.00000000000E+00 -0.00000000000E+00 -0.23362642074E+03  0.23362642074E+03  0.00000000000E+00 0.  1.
    9000007    2    1    2  501    0  0.18341778587E+03 -0.32142977924E+03  0.92882342793E+03  0.10775066336E+04  0.40168196124E+03 0.  0.
    9000005    1    3    3    0    0 -0.98469247469E+02 -0.71623142933E+02  0.71773827016E+02  0.14134549706E+03  0.99999687468E+00 0.  0.
          4    1    3    3  501    0  0.28188703334E+03 -0.24980663631E+03  0.85704960091E+03  0.93616113652E+03  0.00000000000E+00 0.  1.
   -9000007    1    1    2    0  503 -0.18341778587E+03  0.32142977924E+03  0.30679724668E+03  0.62536688250E+03  0.40000000000E+03 0.  1.
<mgrwt>
<rscale>  2 0.54586620E+03</rscale>
<asrwt>0</asrwt>
<pdfrwt beam="1">  1       21 0.22603801E+00 0.54617542E+03</pdfrwt>
<pdfrwt beam="2">  1       21 0.35942527E-01 0.54617542E+03</pdfrwt>
<totfact> 0.54074956E+02</totfact>
</mgrwt>
</event>
<event>
 6    1  0.8947013E-004  0.4253537E+03  0.7818608E-02  0.1035358E+00
         21   -1    0    0  501  502  0.00000000000E+00  0.00000000000E+00  0.54009424392E+03  0.54009424392E+03  0.00000000000E+00 0.  1.
         21   -1    0    0  502  503 -0.00000000000E+00 -0.00000000000E+00 -0.33624353506E+03  0.33624353506E+03  0.00000000000E+00 0.  1.
    9000007    2    1    2  501    0 -0.62893209936E+02 -0.13026988953E+03  0.73109760281E+02  0.43134452554E+03  0.39973398991E+03 0.  0.
    9000005    1    3    3    0    0 -0.72716709788E+02  0.12509788253E+03  0.97718799153E+02  0.17460573815E+03  0.99999687468E+00 0.  0.
          4    1    3    3  501    0  0.98234998519E+01 -0.25536777206E+03 -0.24609038872E+02  0.25673878739E+03  0.00000000000E+00 0.  1.
   -9000007    1    1    2    0  503  0.62893209936E+02  0.13026988953E+03  0.13074094858E+03  0.44499325344E+03  0.40000000000E+03 0.  1.
<mgrwt>
<rscale>  2 0.42529119E+03</rscale>
<asrwt>0</asrwt>
<pdfrwt beam="1">  1       21 0.83091422E-01 0.42535374E+03</pdfrwt>
<pdfrwt beam="2">  1       21 0.51729774E-01 0.42535374E+03</pdfrwt>
<totfact> 0.39542531E+03</totfact>
</mgrwt>
</event>
<event>
 6    1  0.8947013E-004  0.4907313E+03  0.7818608E-02  0.1016234E+00
         21   -1    0    0  501  502  0.00000000000E+00  0.00000000000E+00  0.52458094968E+03  0.52458094968E+03  0.00000000000E+00 0. -1.
         21   -1    0    0  502  503 -0.00000000000E+00 -0.00000000000E+00 -0.14363531072E+04  0.14363531072E+04  0.00000000000E+00 0. -1.
    9000007    2    1    2  501    0 -0.15411703695E+03 -0.23888302509E+03  0.35292151968E+03  0.60436955126E+03  0.39986472048E+03 0.  0.
    9000005    1    3    3    0    0 -0.14561290970E+03 -0.30789355011E+03  0.39619719223E+03  0.52246987740E+03  0.99999687468E+00 0.  0.
          4    1    3    3  501    0 -0.85041272507E+01  0.69010525019E+02 -0.43275672550E+02  0.81899673860E+02  0.00000000000E+00 0.  1.
   -9000007    1    1    2    0  503  0.15411703695E+03  0.23888302509E+03 -0.12646936772E+04  0.13565645056E+04  0.40000000000E+03 0. -1.
<mgrwt>
<rscale>  2 0.49070368E+03</rscale>
<asrwt>0</asrwt>
<pdfrwt beam="1">  1       21 0.80704762E-01 0.49073125E+03</pdfrwt>
<pdfrwt beam="2">  1       21 0.22097740E+00 0.49073125E+03</pdfrwt>
<totfact> 0.10367476E+02</totfact>
</mgrwt>
</event>
<event>
 6    1  0.8947013E-004  0.4052935E+03  0.7818608E-02  0.1041972E+00
         21   -1    0    0  501  502  0.00000000000E+00  0.00000000000E+00  0.93125739278E+03  0.93125739278E+03  0.00000000000E+00 0. -1.
         21   -1    0    0  502  503 -0.00000000000E+00 -0.00000000000E+00 -0.17864629260E+03  0.17864629260E+03  0.00000000000E+00 0. -1.
    9000007    2    1    2  501    0  0.55064910407E+02  0.35080515389E+02  0.43937328073E+03  0.59767256718E+03  0.39987601932E+03 0.  0.
    9000005    1    3    3    0    0  0.13135705950E+02  0.20477047423E+03  0.33856643618E+03  0.39589357861E+03  0.99999687468E+00 0.  0.
          4    1    3    3  501    0  0.41929204457E+02 -0.16968995885E+03  0.10080684456E+03  0.20177898857E+03  0.00000000000E+00 0.  1.
   -9000007    1    1    2    0  503 -0.55064910407E+02 -0.35080515389E+02  0.31323781944E+03  0.51223111819E+03  0.40000000000E+03 0. -1.
<mgrwt>
<rscale>  2 0.40526286E+03</rscale>
<asrwt>0</asrwt>
<pdfrwt beam="1">  1       21 0.14327037E+00 0.40529346E+03</pdfrwt>
<pdfrwt beam="2">  1       21 0.27484045E-01 0.40529346E+03</pdfrwt>
<totfact> 0.37559882E+03</totfact>
</mgrwt>
</event>
<event>
 6    1  0.8947013E-004  0.4422742E+03  0.7818608E-02  0.1030056E+00
         21   -1    0    0  501  502  0.00000000000E+00  0.00000000000E+00  0.51057474828E+03  0.51057474828E+03  0.00000000000E+00 0. -1.
         21   -1    0    0  502  503 -0.00000000000E+00 -0.00000000000E+00 -0.39603986680E+03  0.39603986680E+03  0.00000000000E+00 0. -1.
    9000007    2    1    2  501    0 -0.14089369718E+03  0.12529436203E+03 -0.24810232639E+02  0.44296952248E+03  0.40007091764E+03 0.  0.
    9000005    1    3    3    0    0  0.13569622485E+03  0.80133238370E+02 -0.39034914943E+02  0.16235616991E+03  0.99999687468E+00 0.  0.
          4    1    3    3  501    0 -0.27658992202E+03  0.45161123663E+02  0.14224682305E+02  0.28061335257E+03  0.00000000000E+00 0.  1.
   -9000007    1    1    2    0  503  0.14089369718E+03 -0.12529436203E+03  0.13934511411E+03  0.46364509260E+03  0.40000000000E+03 0.  1.
<mgrwt>
<rscale>  2 0.44225814E+03</rscale>
<asrwt>0</asrwt>
<pdfrwt beam="1">  1       21 0.78549961E-01 0.44227418E+03</pdfrwt>
<pdfrwt beam="2">  1       21 0.60929210E-01 0.44227418E+03</pdfrwt>
<totfact> 0.31403057E+03</totfact>
</mgrwt>
</event>
<event>
 6    1  0.8947013E-004  0.4956611E+03  0.7818608E-02  0.1015028E+00
         21   -1    0    0  501  502  0.00000000000E+00  0.00000000000E+00  0.20565974511E+04  0.20565974511E+04  0.00000000000E+00 0.  1.
         21   -1    0    0  502  503 -0.00000000000E+00 -0.00000000000E+00 -0.32033133780E+03  0.32033133780E+03  0.00000000000E+00 0.  1.
    9000007    2    1    2  501    0 -0.18725181088E+03 -0.22498143111E+03  0.18096512872E+04  0.18758646526E+04  0.39793281912E+03 0.  0.
    9000005    1    3    3    0    0 -0.32491991541E+02  0.11230765183E+03  0.32015265272E+03  0.34083347725E+03  0.99999687468E+00 0.  0.
          4    1    3    3  501    0 -0.15475981934E+03 -0.33728908294E+03  0.14894986344E+04  0.15350311753E+04  0.00000000000E+00 0.  1.
   -9000007    1    1    2    0  503  0.18725181088E+03  0.22498143111E+03 -0.73385173828E+02  0.50106413638E+03  0.40000000000E+03 0.  1.
<mgrwt>
<rscale>  2 0.49524385E+03</rscale>
<asrwt>0</asrwt>
<pdfrwt beam="1">  1       21 0.31639960E+00 0.49566106E+03</pdfrwt>
<pdfrwt beam="2">  1       21 0.49281745E-01 0.49566106E+03</pdfrwt>
<totfact> 0.80219436E+01</totfact>
</mgrwt>
</event>
<event>
 6    1  0.8947013E-004  0.5127883E+03  0.7818608E-02  0.1010598E+00
         21   -1    0    0  501  502  0.00000000000E+00  0.00000000000E+00  0.19327537574E+03  0.19327537574E+03  0.00000000000E+00 0.  1.
         21   -1    0    0  502  503 -0.00000000000E+00 -0.00000000000E+00 -0.14371986891E+04  0.14371986891E+04  0.00000000000E+00 0.  1.
    9000007    2    1    2  501    0  0.29070256469E+02  0.31954151103E+03 -0.42743165131E+03  0.66631096075E+03  0.39789524099E+03 0.  0.
    9000005    1    3    3    0    0 -0.15402676416E+03  0.76194032246E+02 -0.45381123149E+02  0.17773638051E+03  0.99999687468E+00 0.  0.
          4    1    3    3  501    0  0.18309702063E+03  0.24334747878E+03 -0.38205052816E+03  0.48857458024E+03  0.00000000000E+00 0.  1.
   -9000007    1    1    2    0  503 -0.29070256469E+02 -0.31954151103E+03 -0.81649166211E+03  0.96416310413E+03  0.40000000000E+03 0.  1.
<mgrwt>
<rscale>  2 0.51237779E+03</rscale>
<asrwt>0</asrwt>
<pdfrwt beam="1">  1       21 0.29734673E-01 0.51278832E+03</pdfrwt>
<pdfrwt beam="2">  1       21 0.22110749E+00 0.51278832E+03</pdfrwt>
<totfact> 0.86368751E+02</totfact>
</mgrwt>
</event>
<event>
 6    1  0.8947013E-004  0.4496811E+03  0.7818608E-02  0.1027837E+00
         21   -1    0    0  501  502  0.00000000000E+00  0.00000000000E+00  0.65778095074E+03  0.65778095074E+03  0.00000000000E+00 0. -1.
         21   -1    0    0  502  503 -0.00000000000E+00 -0.00000000000E+00 -0.85159023575E+03  0.85159023575E+03  0.00000000000E+00 0. -1.
    9000007    2    1    2  501    0 -0.13171420942E+03  0.15768454880E+03  0.50648718079E+03  0.67712831935E+03  0.39970044618E+03 0.  0.
    9000005    1    3    3    0    0 -0.25476647568E+03  0.30210218188E+02  0.38368103687E+03  0.46155254572E+03  0.99999687468E+00 0.  0.
          4    1    3    3  501    0  0.12305226625E+03  0.12747433061E+03  0.12280614392E+03  0.21557577364E+03  0.00000000000E+00 0.  1.
   -9000007    1    1    2    0  503  0.13171420942E+03 -0.15768454880E+03 -0.70029646580E+03  0.83224286714E+03  0.40000000000E+03 0. -1.
<mgrwt>
<rscale>  2 0.44961443E+03</rscale>
<asrwt>0</asrwt>
<pdfrwt beam="1">  1       21 0.10119707E+00 0.44968105E+03</pdfrwt>
<pdfrwt beam="2">  1       21 0.13101388E+00 0.44968105E+03</pdfrwt>
<totfact> 0.27885906E+02</totfact>
</mgrwt>
</event>
<event>
 6    1  0.8947013E-004  0.4713608E+03  0.7818608E-02  0.1021547E+00
         21   -1    0    0  501  502  0.00000000000E+00  0.00000000000E+00  0.18878643604E+04  0.18878643604E+04  0.00000000000E+00 0.  1.
         21   -1    0    0  502  503 -0.00000000000E+00 -0.00000000000E+00 -0.12296874718E+03  0.12296874718E+03  0.00000000000E+00 0.  1.
    9000007    2    1    2  501    0 -0.87117805382E+02 -0.23364822090E+03  0.10913601146E+04  0.11887436532E+04  0.39982942628E+03 0.  0.
    9000005    1    3    3    0    0  0.99584648226E+02 -0.16395427261E+03  0.86997645430E+03  0.89087492764E+03  0.99999687468E+00 0.  0.
          4    1    3    3  501    0 -0.18670245361E+03 -0.69693948291E+02  0.22138366028E+03  0.29786872553E+03  0.00000000000E+00 0.  1.
   -9000007    1    1    2    0  503  0.87117805382E+02  0.23364822090E+03  0.67353549868E+03  0.82208945446E+03  0.40000000000E+03 0.  1.
<mgrwt>
<rscale>  2 0.47132461E+03</rscale>
<asrwt>0</asrwt>
<pdfrwt beam="1">  1       21 0.29044065E+00 0.47136080E+03</pdfrwt>
<pdfrwt beam="2">  1       21 0.18918270E-01 0.47136080E+03</pdfrwt>
<totfact> 0.79132037E+02</totfact>
</mgrwt>
</event>
<event>
 6    1  0.8947013E-004  0.4898792E+03  0.7818608E-02  0.1016504E+00
         21   -1    0    0  501  502  0.00000000000E+00  0.00000000000E+00  0.26118291087E+03  0.26118291087E+03  0.00000000000E+00 0. -1.
         21   -1    0    0  502  503 -0.00000000000E+00 -0.00000000000E+00 -0.96803251449E+03  0.96803251449E+03  0.00000000000E+00 0. -1.
    9000007    2    1    2  501    0 -0.16651010892E+03  0.22859569568E+03 -0.21269413841E+03  0.53339128647E+03  0.39910632607E+03 0.  0.
    9000005    1    3    3    0    0  0.31082335745E+01  0.63370088542E+02  0.11366592059E+03  0.13017822681E+03  0.99999687468E+00 0.  0.
          4    1    3    3  501    0 -0.16961834249E+03  0.16522560714E+03 -0.32636005900E+03  0.40321305966E+03  0.00000000000E+00 0.  1.
   -9000007    1    1    2    0  503  0.16651010892E+03 -0.22859569568E+03 -0.49415546521E+03  0.69582413889E+03  0.40000000000E+03 0. -1.
<mgrwt>
<rscale>  2 0.48969672E+03</rscale>
<asrwt>0</asrwt>
<pdfrwt beam="1">  1       21 0.40181986E-01 0.48987918E+03</pdfrwt>
<pdfrwt beam="2">  1       21 0.14892808E+00 0.48987918E+03</pdfrwt>
<totfact> 0.15250556E+03</totfact>
</mgrwt>
</event>
<event>
 6    1  0.8947013E-004  0.4062230E+03  0.7818608E-02  0.1041741E+00
         21   -1    0    0  501  502  0.00000000000E+00  0.00000000000E+00  0.13468992504E+04  0.13468992504E+04  0.00000000000E+00 0.  1.
         21   -1    0    0  502  503 -0.00000000000E+00 -0.00000000000E+00 -0.12531496710E+03  0.12531496710E+03  0.00000000000E+00 0.  1.
    9000007    2    1    2  501    0 -0.63706233936E+02  0.73327564112E+01  0.72803494230E+03  0.83369780773E+03  0.40112953498E+03 0.  0.
    9000005    1    3    3    0    0  0.92932753435E+02  0.14289587002E+03  0.18041607917E+03  0.24820694581E+03  0.99999687468E+00 0.  0.
          4    1    3    3  501    0 -0.15663898737E+03 -0.13556311360E+03  0.54761886313E+03  0.58549086192E+03  0.00000000000E+00 0.  1.
   -9000007    1    1    2    0  503  0.63706233936E+02 -0.73327564112E+01  0.49354934105E+03  0.63851640982E+03  0.40000000000E+03 0.  1.
<mgrwt>
<rscale>  2 0.40594392E+03</rscale>
<asrwt>0</asrwt>
<pdfrwt beam="1">  1       21 0.20721526E+00 0.40622304E+03</pdfrwt>
<pdfrwt beam="2">  1       21 0.19279227E-01 0.40622304E+03</pdfrwt>
<totfact> 0.25801814E+03</totfact>
</mgrwt>
</event>
<event>
 6    1  0.8947013E-004  0.4993153E+03  0.7818608E-02  0.1014536E+00
         21   -1    0    0  501  502  0.00000000000E+00  0.00000000000E+00  0.18049929680E+03  0.18049929680E+03  0.00000000000E+00 0. -1.
         21   -1    0    0  502  503 -0.00000000000E+00 -0.00000000000E+00 -0.13815994745E+04  0.13815994745E+04  0.00000000000E+00 0.  1.
    9000007    2    1    2  501    0 -0.28369238306E+03  0.12855481882E+02 -0.50184148752E+03  0.70792703948E+03  0.41069353905E+03 0.  0.
    9000005    1    3    3    0    0  0.97186857716E+02 -0.54849314948E+02 -0.13021081272E+03  0.17149224008E+03  0.99999687468E+00 0.  0.
          4    1    3    3  501    0 -0.38087924077E+03  0.67704796830E+02 -0.37163067480E+03  0.53643479941E+03  0.00000000000E+00 0.  1.
   -9000007    1    1    2    0  503  0.28369238306E+03 -0.12855481882E+02 -0.69925869017E+03  0.85417173180E+03  0.40000000000E+03 0. -1.
<mgrwt>
<rscale>  2 0.49711133E+03</rscale>
<asrwt>0</asrwt>
<pdfrwt beam="1">  1       21 0.27769124E-01 0.49931535E+03</pdfrwt>
<pdfrwt beam="2">  1       21 0.21255376E+00 0.49931535E+03</pdfrwt>
<totfact> 0.11296725E+03</totfact>
</mgrwt>
</event>
<event>
 6    1  0.8947013E-004  0.4563207E+03  0.7818608E-02  0.1025926E+00
         21   -1    0    0  501  502  0.00000000000E+00  0.00000000000E+00  0.89256016488E+03  0.89256016488E+03  0.00000000000E+00 0.  1.
         21   -1    0    0  502  503 -0.00000000000E+00 -0.00000000000E+00 -0.28140838273E+03  0.28140838273E+03  0.00000000000E+00 0.  1.
    9000007    2    1    2  501    0  0.94683309623E+02 -0.19815052726E+03  0.54928287805E+03  0.71347281270E+03  0.39887744203E+03 0.  0.
    9000005    1    3    3    0    0 -0.10011548911E+03  0.64219394354E+02  0.87058675377E+02  0.14740235657E+03  0.99999687468E+00 0.  0.
          4    1    3    3  501    0  0.19479879874E+03 -0.26236992162E+03  0.46222420267E+03  0.56607045612E+03  0.00000000000E+00 0.  1.
   -9000007    1    1    2    0  503 -0.94683309623E+02  0.19815052726E+03  0.61868904100E+02  0.46049573491E+03  0.40000000000E+03 0.  1.
<mgrwt>
<rscale>  2 0.45607456E+03</rscale>
<asrwt>0</asrwt>
<pdfrwt beam="1">  1       21 0.13731695E+00 0.45632068E+03</pdfrwt>
<pdfrwt beam="2">  1       21 0.43293598E-01 0.45632068E+03</pdfrwt>
<totfact> 0.16454230E+03</totfact>
</mgrwt>
</event>
<event>
 6    1  0.8947013E-004  0.4022374E+03  0.7818608E-02  0.1043205E+00
         21   -1    0    0  501  502  0.00000000000E+00  0.00000000000E+00  0.70349379637E+03  0.70349379637E+03  0.00000000000E+00 0.  1.
         21   -1    0    0  502  503 -0.00000000000E+00 -0.00000000000E+00 -0.70767922263E+03  0.70767922263E+03  0.00000000000E+00 0.  1.
    9000007    2    1    2  501    0  0.12593487031E+01 -0.42347465843E+02  0.57840326519E+03  0.70321505611E+03  0.39770112413E+03 0.  0.
    9000005    1    3    3    0    0 -0.61693174385E+02  0.12171951901E+03  0.48575098002E+03  0.50455594701E+03  0.99999687468E+00 0.  0.
          4    1    3    3  501    0  0.62952523088E+02 -0.16406698486E+03  0.92652285165E+02  0.19865910910E+03  0.00000000000E+00 0.  1.
   -9000007    1    1    2    0  503 -0.12593487031E+01  0.42347465843E+02 -0.58258869145E+03  0.70795796289E+03  0.40000000000E+03 0.  1.
<mgrwt>
<rscale>  2 0.40166463E+03</rscale>
<asrwt>0</asrwt>
<pdfrwt beam="1">  1       21 0.10822981E+00 0.40223736E+03</pdfrwt>
<pdfrwt beam="2">  1       21 0.10887373E+00 0.40223736E+03</pdfrwt>
<totfact> 0.38701587E+02</totfact>
</mgrwt>
</event>
<event>
 6    1  0.8947013E-004  0.5555992E+03  0.7818608E-02  0.1000238E+00
         21   -1    0    0  501  502  0.00000000000E+00  0.00000000000E+00  0.18212031261E+04  0.18212031261E+04  0.00000000000E+00 0. -1.
         21   -1    0    0  502  503 -0.00000000000E+00 -0.00000000000E+00 -0.17380115234E+03  0.17380115234E+03  0.00000000000E+00 0.  1.
    9000007    2    1    2  501    0 -0.54830496615E+02  0.38086689910E+03  0.98415958114E+03  0.11301595238E+04  0.40077985227E+03 0.  0.
    9000005    1    3    3    0    0 -0.14165050004E+03  0.35847357071E+03  0.96408007233E+03  0.10382772033E+04  0.99999687468E+00 0.  0.
          4    1    3    3  501    0  0.86820003429E+02  0.22393328397E+02  0.20079508812E+02  0.91882320531E+02  0.00000000000E+00 0.  1.
   -9000007    1    1    2    0  503  0.54830496615E+02 -0.38086689910E+03  0.66324239259E+03  0.86484475458E+03  0.40000000000E+03 0.  1.
<mgrwt>
<rscale>  2 0.55545857E+03</rscale>
<asrwt>0</asrwt>
<pdfrwt beam="1">  1       21 0.28018508E+00 0.55559920E+03</pdfrwt>
<pdfrwt beam="2">  1       21 0.26738640E-01 0.55559920E+03</pdfrwt>
<totfact> 0.44972154E+02</totfact>
</mgrwt>
</event>
<event>
 6    1  0.8947013E-004  0.4614641E+03  0.7818608E-02  0.1024375E+00
         21   -1    0    0  501  502  0.00000000000E+00  0.00000000000E+00  0.87428170785E+03  0.87428170785E+03  0.00000000000E+00 0. -1.
         21   -1    0    0  502  503 -0.00000000000E+00 -0.00000000000E+00 -0.43655289032E+03  0.43655289032E+03  0.00000000000E+00 0.  1.
    9000007    2    1    2  501    0 -0.11201350473E+03 -0.20100265656E+03  0.65474703936E+03  0.80088754034E+03  0.39972249566E+03 0.  0.
    9000005    1    3    3    0    0 -0.13182812799E+03 -0.45084488778E+02  0.62573653818E+03  0.64106043526E+03  0.99999687468E+00 0.  0.
          4    1    3    3  501    0  0.19814623256E+02 -0.15591816778E+03  0.29010501185E+02  0.15982710508E+03  0.00000000000E+00 0.  1.
   -9000007    1    1    2    0  503  0.11201350473E+03  0.20100265656E+03 -0.21701822183E+03  0.50994705783E+03  0.40000000000E+03 0.  1.
<mgrwt>
<rscale>  2 0.46140393E+03</rscale>
<asrwt>0</asrwt>
<pdfrwt beam="1">  1       21 0.13450488E+00 0.46146408E+03</pdfrwt>
<pdfrwt beam="2">  1       21 0.67161984E-01 0.46146408E+03</pdfrwt>
<totfact> 0.67274355E+02</totfact>
</mgrwt>
</event>
<event>
 6    1  0.8947013E-004  0.5310069E+03  0.7818608E-02  0.1005994E+00
         21   -1    0    0  501  502  0.00000000000E+00  0.00000000000E+00  0.12618395675E+04  0.12618395675E+04  0.00000000000E+00 0.  1.
         21   -1    0    0  502  503 -0.00000000000E+00 -0.00000000000E+00 -0.22500335531E+03  0.22500335531E+03  0.00000000000E+00 0.  1.
    9000007    2    1    2  501    0 -0.26867372344E+03 -0.22290937813E+03  0.58080851766E+03  0.78696049075E+03  0.40011763182E+03 0.  0.
    9000005    1    3    3    0    0 -0.30753484036E+02  0.11101032908E+03  0.82692175359E+02  0.14180291183E+03  0.99999687468E+00 0.  0.
          4    1    3    3  501    0 -0.23792023940E+03 -0.33391970721E+03  0.49811634230E+03  0.64515757892E+03  0.00000000000E+00 0.  1.
   -9000007    1    1    2    0  503  0.26867372344E+03  0.22290937813E+03  0.45602769454E+03  0.69988243206E+03  0.40000000000E+03 0.  1.
<mgrwt>
<rscale>  2 0.53098470E+03</rscale>
<asrwt>0</asrwt>
<pdfrwt beam="1">  1       21 0.19412916E+00 0.53100685E+03</pdfrwt>
<pdfrwt beam="2">  1       21 0.34615902E-01 0.53100685E+03</pdfrwt>
<totfact> 0.95224006E+02</totfact>
</mgrwt>
</event>
<event>
 6    1  0.8947013E-004  0.5652006E+03  0.7818608E-02  0.9980712E-01
         21   -1    0    0  501  502  0.00000000000E+00  0.00000000000E+00  0.46598457413E+03  0.46598457413E+03  0.00000000000E+00 0. -1.
         21   -1    0    0  502  503 -0.00000000000E+00 -0.00000000000E+00 -0.74370444252E+03  0.74370444252E+03  0.00000000000E+00 0. -1.
    9000007    2    1    2  501    0 -0.27680143096E+03 -0.28655298368E+03  0.31336093730E+02  0.56606860650E+03  0.40089907938E+03 0.  0.
    9000005    1    3    3    0    0 -0.24296042851E+03 -0.38136466949E+03  0.71273440139E+02  0.45776597102E+03  0.99999687468E+00 0.  0.
          4    1    3    3  501    0 -0.33841002446E+02  0.94811685811E+02 -0.39937346409E+02  0.10830263548E+03  0.00000000000E+00 0.  1.
   -9000007    1    1    2    0  503  0.27680143096E+03  0.28655298368E+03 -0.30905596212E+03  0.64362041015E+03  0.40000000000E+03 0. -1.
<mgrwt>
<rscale>  2 0.56504119E+03</rscale>
<asrwt>0</asrwt>
<pdfrwt beam="1">  1       21 0.71689935E-01 0.56520060E+03</pdfrwt>
<pdfrwt beam="2">  1       21 0.11441607E+00 0.56520060E+03</pdfrwt>
<totfact> 0.84652616E+02</totfact>
</mgrwt>
</event>
<event>
 6    1  0.8947013E-004  0.4393807E+03  0.7818608E-02  0.1030937E+00
         21   -1    0    0  501  502  0.00000000000E+00  0.00000000000E+00  0.47847957256E+03  0.47847957256E+03  0.00000000000E+00 0. -1.
         21   -1    0    0  502  503 -0.00000000000E+00 -0.00000000000E+00 -0.46020591737E+03  0.46020591737E+03  0.00000000000E+00 0. -1.
    9000007    2    1    2  501    0 -0.28729850318E+02 -0.17952192331E+03  0.17392453193E+03  0.47255168866E+03  0.40000228800E+03 0.  0.
    9000005    1    3    3    0    0  0.65271458793E+02 -0.23678407105E+03  0.24063013197E+03  0.34384723359E+03  0.99999687468E+00 0.  0.
          4    1    3    3  501    0 -0.94001309110E+02  0.57262147745E+02 -0.66705600048E+02  0.12870445508E+03  0.00000000000E+00 0.  1.
   -9000007    1    1    2    0  503  0.28729850318E+02  0.17952192331E+03 -0.15565087674E+03  0.46613380126E+03  0.40000000000E+03 0. -1.
<mgrwt>
<rscale>  2 0.43938013E+03</rscale>
<asrwt>0</asrwt>
<pdfrwt beam="1">  1       21 0.73612242E-01 0.43938065E+03</pdfrwt>
<pdfrwt beam="2">  1       21 0.70800910E-01 0.43938065E+03</pdfrwt>
<totfact> 0.26106945E+03</totfact>
</mgrwt>
</event>
<event>
 6    1  0.8947013E-004  0.4083343E+03  0.7818608E-02  0.1040948E+00
         21   -1    0    0  501  502  0.00000000000E+00  0.00000000000E+00  0.39422127906E+03  0.39422127906E+03  0.00000000000E+00 0.  1.
         21   -1    0    0  502  503 -0.00000000000E+00 -0.00000000000E+00 -0.91792690572E+03  0.91792690572E+03  0.00000000000E+00 0.  1.
    9000007    2    1    2  501    0 -0.58843903857E+02 -0.55782966924E+02  0.21998857622E+03  0.46382312220E+03  0.40020316165E+03 0.  0.
    9000005    1    3    3    0    0 -0.13571091756E+03 -0.50240038232E+02 -0.72140444985E+02  0.16169959302E+03  0.99999687468E+00 0.  0.
          4    1    3    3  501    0  0.76867013701E+02 -0.55429286923E+01  0.29212902120E+03  0.30212352918E+03  0.00000000000E+00 0.  1.
   -9000007    1    1    2    0  503  0.58843903857E+02  0.55782966924E+02 -0.74369420288E+03  0.84832506259E+03  0.40000000000E+03 0.  1.
<mgrwt>
<rscale>  2 0.40828453E+03</rscale>
<asrwt>0</asrwt>
<pdfrwt beam="1">  1       21 0.60649428E-01 0.40833432E+03</pdfrwt>
<pdfrwt beam="2">  1       21 0.14121952E+00 0.40833432E+03</pdfrwt>
<totfact> 0.75950981E+02</totfact>
</mgrwt>
</event>
<event>
 6    1  0.8947013E-004  0.4980677E+03  0.7818608E-02  0.1014304E+00
         21   -1    0    0  501  502  0.00000000000E+00  0.00000000000E+00  0.19203518304E+04  0.19203518304E+04  0.00000000000E+00 0. -1.
         21   -1    0    0  502  503 -0.00000000000E+00 -0.00000000000E+00 -0.13385878514E+03  0.13385878514E+03  0.00000000000E+00 0. -1.
    9000007    2    1    2  501    0 -0.11237059250E+03  0.27467119650E+03  0.10865825142E+04  0.11951726840E+04  0.39963078994E+03 0.  0.
    9000005    1    3    3    0    0 -0.23166711570E+03  0.17874250698E+03  0.42419374700E+03  0.51532501519E+03  0.99999687468E+00 0.  0.
          4    1    3    3  501    0  0.11929652321E+03  0.95928689525E+02  0.66238876716E+03  0.67984766881E+03  0.00000000000E+00 0.  1.
   -9000007    1    1    2    0  503  0.11237059250E+03 -0.27467119650E+03  0.69991053106E+03  0.85903793149E+03  0.40000000000E+03 0. -1.
<mgrwt>
<rscale>  2 0.49799355E+03</rscale>
<asrwt>0</asrwt>
<pdfrwt beam="1">  1       21 0.29543872E+00 0.49806768E+03</pdfrwt>
<pdfrwt beam="2">  1       21 0.20593661E-01 0.49806768E+03</pdfrwt>
<totfact> 0.61954168E+02</totfact>
</mgrwt>
</event>
<event>
 6    1  0.8947013E-004  0.4374311E+03  0.7818608E-02  0.1031549E+00
         21   -1    0    0  501  502  0.00000000000E+00  0.00000000000E+00  0.19542873698E+03  0.19542873698E+03  0.00000000000E+00 0. -1.
         21   -1    0    0  502  503 -0.00000000000E+00 -0.00000000000E+00 -0.13749302757E+04  0.13749302757E+04  0.00000000000E+00 0. -1.
    9000007    2    1    2  501    0 -0.14474655152E+03 -0.10195301455E+03 -0.16823340631E+03  0.46853814839E+03  0.39984939182E+03 0.  0.
    9000005    1    3    3    0    0  0.82805612907E+02 -0.10961842698E+03 -0.19580498549E+03  0.23919356471E+03  0.99999687468E+00 0.  0.
          4    1    3    3  501    0 -0.22755216442E+03  0.76654124240E+01  0.27571579187E+02  0.22934458367E+03  0.00000000000E+00 0.  1.
   -9000007    1    1    2    0  503  0.14474655152E+03  0.10195301455E+03 -0.10112681324E+04  0.11018208642E+04  0.40000000000E+03 0. -1.
<mgrwt>
<rscale>  2 0.43739668E+03</rscale>
<asrwt>0</asrwt>
<pdfrwt beam="1">  1       21 0.30065960E-01 0.43743112E+03</pdfrwt>
<pdfrwt beam="2">  1       21 0.21152773E+00 0.43743112E+03</pdfrwt>
<totfact> 0.10077374E+03</totfact>
</mgrwt>
</event>
<event>
 6    1  0.8947013E-004  0.4264911E+03  0.7818608E-02  0.1035008E+00
         21   -1    0    0  501  502  0.00000000000E+00  0.00000000000E+00  0.53551688072E+03  0.53551688072E+03  0.00000000000E+00 0. -1.
         21   -1    0    0  502  503 -0.00000000000E+00 -0.00000000000E+00 -0.81125450260E+03  0.81125450260E+03  0.00000000000E+00 0. -1.
    9000007    2    1    2  501    0  0.14598695723E+02 -0.14724648745E+03  0.37575739881E+03  0.56809275129E+03  0.39955112479E+03 0.  0.
    9000005    1    3    3    0    0 -0.46701998333E+02 -0.17156545873E+03  0.44089449326E+03  0.47539955559E+03  0.99999687468E+00 0.  0.
          4    1    3    3  501    0  0.61300694056E+02  0.24318971286E+02 -0.65137094442E+02  0.92693195697E+02  0.00000000000E+00 0.  1.
   -9000007    1    1    2    0  503 -0.14598695723E+02  0.14724648745E+03 -0.65149502070E+03  0.77867863203E+03  0.40000000000E+03 0. -1.
<mgrwt>
<rscale>  2 0.42638581E+03</rscale>
<asrwt>0</asrwt>
<pdfrwt beam="1">  1       21 0.82387212E-01 0.42649109E+03</pdfrwt>
<pdfrwt beam="2">  1       21 0.12480839E+00 0.42649109E+03</pdfrwt>
<totfact> 0.52102158E+02</totfact>
</mgrwt>
</event>
<event>
 6    1  0.8947013E-004  0.4110911E+03  0.7818608E-02  0.1040024E+00
         21   -1    0    0  501  502  0.00000000000E+00  0.00000000000E+00  0.35628490522E+03  0.35628490522E+03  0.00000000000E+00 0. -1.
         21   -1    0    0  502  503 -0.00000000000E+00 -0.00000000000E+00 -0.47409287364E+03  0.47409287364E+03  0.00000000000E+00 0. -1.
    9000007    2    1    2  501    0  0.71679878611E+02  0.60668638980E+02 -0.56692530499E+02  0.41498184063E+03  0.40022143406E+03 0.  0.
    9000005    1    3    3    0    0 -0.39103019090E+02  0.12284206468E+03 -0.19079093745E+03  0.23026376346E+03  0.99999687468E+00 0.  0.
          4    1    3    3  501    0  0.11078289770E+03 -0.62173425697E+02  0.13409840695E+03  0.18471807717E+03  0.00000000000E+00 0.  1.
   -9000007    1    1    2    0  503 -0.71679878611E+02 -0.60668638980E+02 -0.61115437919E+02  0.41539593824E+03  0.40000000000E+03 0. -1.
<mgrwt>
<rscale>  2 0.41103719E+03</rscale>
<asrwt>0</asrwt>
<pdfrwt beam="1">  1       21 0.54813063E-01 0.41109109E+03</pdfrwt>
<pdfrwt beam="2">  1       21 0.72937365E-01 0.41109109E+03</pdfrwt>
<totfact> 0.47340561E+03</totfact>
</mgrwt>
</event>
<event>
 6    1  0.8947013E-004  0.4134982E+03  0.7818608E-02  0.1039206E+00
         21   -1    0    0  501  502  0.00000000000E+00  0.00000000000E+00  0.97026288338E+03  0.97026288338E+03  0.00000000000E+00 0.  1.
         21   -1    0    0  502  503 -0.00000000000E+00 -0.00000000000E+00 -0.23076163493E+03  0.23076163493E+03  0.00000000000E+00 0.  1.
    9000007    2    1    2  501    0  0.51741909330E+02  0.91123656654E+02  0.66172344142E+03  0.78027502841E+03  0.39996307462E+03 0.  0.
    9000005    1    3    3    0    0  0.95975249168E+02 -0.13430986332E+03  0.39588653389E+03  0.42892602573E+03  0.99999687468E+00 0.  0.
          4    1    3    3  501    0 -0.44233339838E+02  0.22543351998E+03  0.26583690753E+03  0.35134900269E+03  0.00000000000E+00 0.  1.
   -9000007    1    1    2    0  503 -0.51741909330E+02 -0.91123656654E+02  0.77777807025E+02  0.42074948990E+03  0.40000000000E+03 0.  1.
<mgrwt>
<rscale>  2 0.41348925E+03</rscale>
<asrwt>0</asrwt>
<pdfrwt beam="1">  1       21 0.14927121E+00 0.41349818E+03</pdfrwt>
<pdfrwt beam="2">  1       21 0.35501790E-01 0.41349818E+03</pdfrwt>
<totfact> 0.20129001E+03</totfact>
</mgrwt>
</event>
<event>
 6    1  0.8947013E-004  0.5124021E+03  0.7818608E-02  0.1010632E+00
         21   -1    0    0  501  502  0.00000000000E+00  0.00000000000E+00  0.41389570290E+03  0.41389570290E+03  0.00000000000E+00 0. -1.
         21   -1    0    0  502  503 -0.00000000000E+00 -0.00000000000E+00 -0.15348176924E+04  0.15348176924E+04  0.00000000000E+00 0.  1.
    9000007    2    1    2  501    0  0.84425678412E+02  0.30786331425E+03  0.18603690815E+03  0.54512902818E+03  0.40080969392E+03 0.  0.
    9000005    1    3    3    0    0  0.27725765000E+02  0.37314696702E+03  0.23875145581E+03  0.44385880040E+03  0.99999687468E+00 0.  0.
          4    1    3    3  501    0  0.56699913411E+02 -0.65283652774E+02 -0.52714547664E+02  0.10127022779E+03  0.00000000000E+00 0.  1.
   -9000007    1    1    2    0  503 -0.84425678412E+02 -0.30786331425E+03 -0.13069588977E+04  0.14035843671E+04  0.40000000000E+03 0.  1.
<mgrwt>
<rscale>  2 0.51224376E+03</rscale>
<asrwt>0</asrwt>
<pdfrwt beam="1">  1       21 0.63676263E-01 0.51240211E+03</pdfrwt>
<pdfrwt beam="2">  1       21 0.23612579E+00 0.51240211E+03</pdfrwt>
<totfact> 0.14070476E+02</totfact>
</mgrwt>
</event>
<event>
 6    1  0.8947013E-004  0.4919752E+03  0.7818608E-02  0.1016217E+00
         21   -1    0    0  501  502  0.00000000000E+00  0.00000000000E+00  0.16684455313E+04  0.16684455313E+04  0.00000000000E+00 0. -1.
         21   -1    0    0  502  503 -0.00000000000E+00 -0.00000000000E+00 -0.17674302919E+03  0.17674302919E+03  0.00000000000E+00 0. -1.
    9000007    2    1    2  501    0  0.21755314629E+03  0.17318730901E+03  0.11480332063E+04  0.12490075474E+04  0.40585267671E+03 0.  0.
    9000005    1    3    3    0    0  0.21060419370E+03  0.29722677541E+03  0.78755755499E+03  0.86772448671E+03  0.99999687468E+00 0.  0.
          4    1    3    3  501    0  0.69489525905E+01 -0.12403946640E+03  0.36047565135E+03  0.38128306071E+03  0.00000000000E+00 0.  1.
   -9000007    1    1    2    0  503 -0.21755314629E+03 -0.17318730901E+03  0.34366929573E+03  0.59618101302E+03  0.40000000000E+03 0. -1.
<mgrwt>
<rscale>  2 0.49076654E+03</rscale>
<asrwt>0</asrwt>
<pdfrwt beam="1">  1       21 0.25668392E+00 0.49197521E+03</pdfrwt>
<pdfrwt beam="2">  1       21 0.27191236E-01 0.49197521E+03</pdfrwt>
<totfact> 0.62315244E+02</totfact>
</mgrwt>
</event>
<event>
 6    1  0.8947013E-004  0.4844507E+03  0.7818608E-02  0.1017920E+00
         21   -1    0    0  501  502  0.00000000000E+00  0.00000000000E+00  0.15867718441E+04  0.15867718441E+04  0.00000000000E+00 0.  1.
         21   -1    0    0  502  503 -0.00000000000E+00 -0.00000000000E+00 -0.33943090438E+03  0.33943090438E+03  0.00000000000E+00 0. -1.
    9000007    2    1    2  501    0  0.77821968690E+02 -0.26198514052E+03  0.13471276205E+04  0.14315818286E+04  0.39997654135E+03 0.  0.
    9000005    1    3    3    0    0 -0.15397968469E+03 -0.16290909186E+03  0.76615106322E+03  0.79827161241E+03  0.99999687468E+00 0.  0.
          4    1    3    3  501    0  0.23180165338E+03 -0.99076048656E+02  0.58097655723E+03  0.63331021623E+03  0.00000000000E+00 0.  1.
   -9000007    1    1    2    0  503 -0.77821968690E+02  0.26198514052E+03 -0.99786680762E+02  0.49462091982E+03  0.40000000000E+03 0. -1.
<mgrwt>
<rscale>  2 0.48444585E+03</rscale>
<asrwt>0</asrwt>
<pdfrwt beam="1">  1       21 0.24411874E+00 0.48445069E+03</pdfrwt>
<pdfrwt beam="2">  1       21 0.52220140E-01 0.48445069E+03</pdfrwt>
<totfact> 0.19616503E+02</totfact>
</mgrwt>
</event>
<event>
 6    1  0.8947013E-004  0.4943876E+03  0.7818608E-02  0.1015287E+00
         21   -1    0    0  501  502  0.00000000000E+00  0.00000000000E+00  0.95793553976E+03  0.95793553976E+03  0.00000000000E+00 0.  1.
         21   -1    0    0  502  503 -0.00000000000E+00 -0.00000000000E+00 -0.30267773409E+03  0.30267773409E+03  0.00000000000E+00 0.  1.
    9000007    2    1    2  501    0  0.94342239582E+02 -0.27390636076E+03  0.57820710973E+03  0.76075133053E+03  0.40061698981E+03 0.  0.
    9000005    1    3    3    0    0 -0.45396533317E+02 -0.16957523338E+03  0.20891125020E+02  0.17678813340E+03  0.99999687468E+00 0.  0.
          4    1    3    3  501    0  0.13973877290E+03 -0.10433112739E+03  0.55731598471E+03  0.58396319713E+03  0.00000000000E+00 0.  1.
   -9000007    1    1    2    0  503 -0.94342239582E+02  0.27390636076E+03  0.77050695934E+02  0.49986194332E+03  0.40000000000E+03 0.  1.
<mgrwt>
<rscale>  2 0.49426262E+03</rscale>
<asrwt>0</asrwt>
<pdfrwt beam="1">  1       21 0.14737470E+00 0.49438763E+03</pdfrwt>
<pdfrwt beam="2">  1       21 0.46565806E-01 0.49438763E+03</pdfrwt>
<totfact> 0.11514056E+03</totfact>
</mgrwt>
</event>
<event>
 6    1  0.8947013E-004  0.4847171E+03  0.7818608E-02  0.1017865E+00
         21   -1    0    0  501  502  0.00000000000E+00  0.00000000000E+00  0.32312576761E+03  0.32312576761E+03  0.00000000000E+00 0. -1.
         21   -1    0    0  502  503 -0.00000000000E+00 -0.00000000000E+00 -0.72861860111E+03  0.72861860111E+03  0.00000000000E+00 0.  1.
    9000007    2    1    2  501    0 -0.24661275988E+03 -0.11888166732E+03 -0.22954675125E+03  0.53608195199E+03  0.39967667443E+03 0.  0.
    9000005    1    3    3    0    0 -0.35008872309E+03 -0.82195902646E+02 -0.22892544519E+03  0.42629349033E+03  0.99999687468E+00 0.  0.
          4    1    3    3  501    0  0.10347596321E+03 -0.36685764677E+02 -0.62130605401E+00  0.10978846166E+03  0.00000000000E+00 0.  1.
   -9000007    1    1    2    0  503  0.24661275988E+03  0.11888166732E+03 -0.17594608226E+03  0.51566241672E+03  0.40000000000E+03 0.  1.
<mgrwt>
<rscale>  2 0.48465043E+03</rscale>
<asrwt>0</asrwt>
<pdfrwt beam="1">  1       21 0.49711657E-01 0.48471714E+03</pdfrwt>
<pdfrwt beam="2">  1       21 0.11209517E+00 0.48471714E+03</pdfrwt>
<totfact> 0.20479498E+03</totfact>
</mgrwt>
</event>
<event>
 6    1  0.8947013E-004  0.4432438E+03  0.7818608E-02  0.1029761E+00
         21   -1    0    0  501  502  0.00000000000E+00  0.00000000000E+00  0.36693331963E+03  0.36693331963E+03  0.00000000000E+00 0. -1.
         21   -1    0    0  502  503 -0.00000000000E+00 -0.00000000000E+00 -0.87299510797E+03  0.87299510797E+03  0.00000000000E+00 0. -1.
    9000007    2    1    2  501    0 -0.81020407359E+02 -0.17277066375E+03  0.13251535494E+03  0.46262875787E+03  0.40006379447E+03 0.  0.
    9000005    1    3    3    0    0  0.11413922326E+03  0.13423473829E+02  0.15386763341E+03  0.19205259837E+03  0.99999687468E+00 0.  0.
          4    1    3    3  501    0 -0.19515963062E+03 -0.18619413758E+03 -0.21352278466E+02  0.27057615950E+03  0.00000000000E+00 0.  1.
   -9000007    1    1    2    0  503  0.81020407359E+02  0.17277066375E+03 -0.63857714328E+03  0.77729966974E+03  0.40000000000E+03 0. -1.
<mgrwt>
<rscale>  2 0.44322938E+03</rscale>
<asrwt>0</asrwt>
<pdfrwt beam="1">  1       21 0.56451280E-01 0.44324378E+03</pdfrwt>
<pdfrwt beam="2">  1       21 0.13430694E+00 0.44324378E+03</pdfrwt>
<totfact> 0.99784668E+02</totfact>
</mgrwt>
</event>
<event>
 6    1  0.8947013E-004  0.4781019E+03  0.7818608E-02  0.1019662E+00
         21   -1    0    0  501  502  0.00000000000E+00  0.00000000000E+00  0.63518707307E+03  0.63518707307E+03  0.00000000000E+00 0. -1.
         21   -1    0    0  502  503 -0.00000000000E+00 -0.00000000000E+00 -0.46019557144E+03  0.46019557144E+03  0.00000000000E+00 0. -1.
    9000007    2    1    2  501    0 -0.15143675215E+03  0.21365468118E+03  0.34327373645E+03  0.58852928974E+03  0.39993556237E+03 0.  0.
    9000005    1    3    3    0    0  0.95096192022E+02  0.19155418834E+03  0.83147959626E+02  0.22945778695E+03  0.99999687468E+00 0.  0.
          4    1    3    3  501    0 -0.24653294418E+03  0.22100492848E+02  0.26012577682E+03  0.35907150279E+03  0.00000000000E+00 0.  1.
   -9000007    1    1    2    0  503  0.15143675215E+03 -0.21365468118E+03 -0.16828223482E+03  0.50685335478E+03  0.40000000000E+03 0. -1.
<mgrwt>
<rscale>  2 0.47808841E+03</rscale>
<asrwt>0</asrwt>
<pdfrwt beam="1">  1       21 0.97721088E-01 0.47810189E+03</pdfrwt>
<pdfrwt beam="2">  1       21 0.70799319E-01 0.47810189E+03</pdfrwt>
<totfact> 0.13258015E+03</totfact>
</mgrwt>
</event>
<event>
 6    1  0.8947013E-004  0.4836307E+03  0.7818608E-02  0.1018164E+00
         21   -1    0    0  501  502  0.00000000000E+00  0.00000000000E+00  0.26853621968E+03  0.26853621968E+03  0.00000000000E+00 0.  1.
         21   -1    0    0  502  503 -0.00000000000E+00 -0.00000000000E+00 -0.90557307300E+03  0.90557307300E+03  0.00000000000E+00 0. -1.
    9000007    2    1    2  501    0 -0.26148686481E+02 -0.27000805247E+03 -0.20298091738E+03  0.52449967320E+03  0.40038800201E+03 0.  0.
    9000005    1    3    3    0    0  0.86785263630E+02 -0.22041180469E+02 -0.23373064359E+03  0.25029684250E+03  0.99999687468E+00 0.  0.
          4    1    3    3  501    0 -0.11293395011E+03 -0.24796687200E+03  0.30749726209E+02  0.27420283069E+03  0.00000000000E+00 0.  1.
   -9000007    1    1    2    0  503  0.26148686481E+02  0.27000805247E+03 -0.43405593594E+03  0.64960961949E+03  0.40000000000E+03 0. -1.
<mgrwt>
<rscale>  2 0.48355039E+03</rscale>
<asrwt>0</asrwt>
<pdfrwt beam="1">  1       21 0.41313265E-01 0.48363070E+03</pdfrwt>
<pdfrwt beam="2">  1       21 0.13931893E+00 0.48363070E+03</pdfrwt>
<totfact> 0.17270107E+03</totfact>
</mgrwt>
</event>
<event>
 6    1  0.8947013E-004  0.4095189E+03  0.7818608E-02  0.1041147E+00
         21   -1    0    0  501  502  0.00000000000E+00  0.00000000000E+00  0.20870029867E+03  0.20870029867E+03  0.00000000000E+00 0.  1.
         21   -1    0    0  502  503 -0.00000000000E+00 -0.00000000000E+00 -0.16104976076E+04  0.16104976076E+04  0.00000000000E+00 0.  1.
    9000007    2    1    2  501    0  0.36904088321E+02 -0.21529453565E+02 -0.54503101569E+02  0.41312994551E+03  0.40728409580E+03 0.  0.
    9000005    1    3    3    0    0 -0.81245084583E+02  0.99600987721E+02 -0.16640319128E+03  0.21026683663E+03  0.99999687468E+00 0.  0.
          4    1    3    3  501    0  0.11814917290E+03 -0.12113044129E+03  0.11190008971E+03  0.20286310887E+03  0.00000000000E+00 0.  1.
   -9000007    1    1    2    0  503 -0.36904088321E+02  0.21529453565E+02 -0.13472942073E+04  0.14060679607E+04  0.40000000000E+03 0.  1.
<mgrwt>
<rscale>  2 0.40769590E+03</rscale>
<asrwt>0</asrwt>
<pdfrwt beam="1">  1       21 0.32107737E-01 0.40951894E+03</pdfrwt>
<pdfrwt beam="2">  1       21 0.24776887E+00 0.40951894E+03</pdfrwt>
<totfact> 0.53078996E+02</totfact>
</mgrwt>
</event>
<event>
 6    1  0.8947013E-004  0.4286590E+03  0.7818608E-02  0.1034317E+00
         21   -1    0    0  501  502  0.00000000000E+00  0.00000000000E+00  0.35926712328E+03  0.35926712328E+03  0.00000000000E+00 0. -1.
         21   -1    0    0  502  503 -0.00000000000E+00 -0.00000000000E+00 -0.60401195395E+03  0.60401195395E+03  0.00000000000E+00 0. -1.
    9000007    2    1    2  501    0 -0.13861309313E+03  0.64702425917E+02  0.66613272235E+02  0.43380399590E+03  0.40043549457E+03 0.  0.
    9000005    1    3    3    0    0 -0.50465560605E+02 -0.35094438851E+02  0.22131289298E+03  0.22969281451E+03  0.99999687468E+00 0.  0.
          4    1    3    3  501    0 -0.88147532522E+02  0.99796864767E+02 -0.15469962074E+03  0.20411118138E+03  0.00000000000E+00 0.  1.
   -9000007    1    1    2    0  503  0.13861309313E+03 -0.64702425917E+02 -0.31135810291E+03  0.52947508133E+03  0.40000000000E+03 0. -1.
<mgrwt>
<rscale>  2 0.42855731E+03</rscale>
<asrwt>0</asrwt>
<pdfrwt beam="1">  1       21 0.55271866E-01 0.42865905E+03</pdfrwt>
<pdfrwt beam="2">  1       21 0.92924915E-01 0.42865905E+03</pdfrwt>
<totfact> 0.26330742E+03</totfact>
</mgrwt>
</event>
<event>
 6    1  0.8947013E-004  0.5078121E+03  0.7818608E-02  0.1011849E+00
         21   -1    0    0  501  502  0.00000000000E+00  0.00000000000E+00  0.18701827881E+04  0.18701827881E+04  0.00000000000E+00 0. -1.
         21   -1    0    0  502  503 -0.00000000000E+00 -0.00000000000E+00 -0.15740363219E+03  0.15740363219E+03  0.00000000000E+00 0.  1.
    9000007    2    1    2  501    0  0.17456595570E+03  0.25688617140E+03  0.12178303422E+04  0.13194634746E+04  0.40175781333E+03 0.  0.
    9000005    1    3    3    0    0 -0.84307433561E+02  0.20920882246E+03  0.74383961828E+03  0.77728659609E+03  0.99999687468E+00 0.  0.
          4    1    3    3  501    0  0.25887338926E+03  0.47677348949E+02  0.47399072392E+03  0.54217687855E+03  0.00000000000E+00 0.  1.
   -9000007    1    1    2    0  503 -0.17456595570E+03 -0.25688617140E+03  0.49494881369E+03  0.70812294563E+03  0.40000000000E+03 0.  1.
<mgrwt>
<rscale>  2 0.50746434E+03</rscale>
<asrwt>0</asrwt>
<pdfrwt beam="1">  1       21 0.28772041E+00 0.50781209E+03</pdfrwt>
<pdfrwt beam="2">  1       21 0.24215945E-01 0.50781209E+03</pdfrwt>
<totfact> 0.50234415E+02</totfact>
</mgrwt>
</event>
<event>
 6    1  0.8947013E-004  0.4689317E+03  0.7818608E-02  0.1022231E+00
         21   -1    0    0  501  502  0.00000000000E+00  0.00000000000E+00  0.36742019962E+03  0.36742019962E+03  0.00000000000E+00 0.  1.
         21   -1    0    0  502  503 -0.00000000000E+00 -0.00000000000E+00 -0.60009323696E+03  0.60009323696E+03  0.00000000000E+00 0.  1.
    9000007    2    1    2  501    0  0.21073767173E+03 -0.12400044681E+03 -0.14250959826E+03  0.49010802936E+03  0.40013799838E+03 0.  0.
    9000005    1    3    3    0    0  0.84395508188E+02  0.10601327766E+03  0.69913629141E+02  0.15248059672E+03  0.99999687468E+00 0.  0.
          4    1    3    3  501    0  0.12634216354E+03 -0.23001372447E+03 -0.21242322740E+03  0.33762743264E+03  0.00000000000E+00 0.  1.
   -9000007    1    1    2    0  503 -0.21073767173E+03  0.12400044681E+03 -0.90163439087E+02  0.47740540722E+03  0.40000000000E+03 0.  1.
<mgrwt>
<rscale>  2 0.46890221E+03</rscale>
<asrwt>0</asrwt>
<pdfrwt beam="1">  1       21 0.56526184E-01 0.46893165E+03</pdfrwt>
<pdfrwt beam="2">  1       21 0.92322037E-01 0.46893165E+03</pdfrwt>
<totfact> 0.25103038E+03</totfact>
</mgrwt>
</event>
<event>
 6    1  0.8947013E-004  0.6278701E+03  0.7818608E-02  0.9849236E-01
         21   -1    0    0  501  502  0.00000000000E+00  0.00000000000E+00  0.35984448862E+03  0.35984448862E+03  0.00000000000E+00 0.  1.
         21   -1    0    0  502  503 -0.00000000000E+00 -0.00000000000E+00 -0.11008887199E+04  0.11008887199E+04  0.00000000000E+00 0.  1.
    9000007    2    1    2  501    0 -0.13970349424E+03 -0.46330098476E+03 -0.42185431115E+03  0.75642711460E+03  0.40007005773E+03 0.  0.
    9000005    1    3    3    0    0  0.15717561223E+01  0.24595946823E+02  0.54654360216E+02  0.59962739278E+02  0.99999687468E+00 0.  0.
          4    1    3    3  501    0 -0.14127525036E+03 -0.48789693158E+03 -0.47650867136E+03  0.69646437532E+03  0.00000000000E+00 0.  1.
   -9000007    1    1    2    0  503  0.13970349424E+03  0.46330098476E+03 -0.31918992010E+03  0.70430609388E+03  0.40000000000E+03 0.  1.
<mgrwt>
<rscale>  2 0.62785899E+03</rscale>
<asrwt>0</asrwt>
<pdfrwt beam="1">  1       21 0.55360691E-01 0.62787015E+03</pdfrwt>
<pdfrwt beam="2">  1       21 0.16936749E+00 0.62787015E+03</pdfrwt>
<totfact> 0.51434225E+02</totfact>
</mgrwt>
</event>
<event>
 6    1  0.8947013E-004  0.4163996E+03  0.7818608E-02  0.1038272E+00
         21   -1    0    0  501  502  0.00000000000E+00  0.00000000000E+00  0.91234714234E+03  0.91234714234E+03  0.00000000000E+00 0.  1.
         21   -1    0    0  502  503 -0.00000000000E+00 -0.00000000000E+00 -0.19282555492E+03  0.19282555492E+03  0.00000000000E+00 0.  1.
    9000007    2    1    2  501    0 -0.11445432205E+03  0.37957239272E+01  0.42800832364E+03  0.59714299112E+03  0.40034288726E+03 0.  0.
    9000005    1    3    3    0    0  0.28691653074E+02 -0.15384195489E+03  0.51787480233E+02  0.16484386899E+03  0.99999687468E+00 0.  0.
          4    1    3    3  501    0 -0.14314597512E+03  0.15763767882E+03  0.37622084341E+03  0.43229912213E+03  0.00000000000E+00 0.  1.
   -9000007    1    1    2    0  503  0.11445432205E+03 -0.37957239272E+01  0.29151326378E+03  0.50802970614E+03  0.40000000000E+03 0.  1.
<mgrwt>
<rscale>  2 0.41631716E+03</rscale>
<asrwt>0</asrwt>
<pdfrwt beam="1">  1       21 0.14036110E+00 0.41639960E+03</pdfrwt>
<pdfrwt beam="2">  1       21 0.29665471E-01 0.41639960E+03</pdfrwt>
<totfact> 0.33970917E+03</totfact>
</mgrwt>
</event>
<event>
 6    1  0.8947013E-004  0.4089503E+03  0.7818608E-02  0.1040785E+00
         21   -1    0    0  501  502  0.00000000000E+00  0.00000000000E+00  0.19026993149E+04  0.19026993149E+04  0.00000000000E+00 0.  1.
         21   -1    0    0  502  503 -0.00000000000E+00 -0.00000000000E+00 -0.19711753323E+03  0.19711753323E+03  0.00000000000E+00 0.  1.
    9000007    2    1    2  501    0 -0.74825651167E+02  0.32369095531E+02  0.16352102703E+04  0.16855720099E+04  0.40074148247E+03 0.  0.
    9000005    1    3    3    0    0  0.57224457228E+02  0.12883193728E+03  0.22230943592E+03  0.26323903939E+03  0.99999687468E+00 0.  0.
          4    1    3    3  501    0 -0.13205010840E+03 -0.96462841747E+02  0.14129008344E+04  0.14223329705E+04  0.00000000000E+00 0.  1.
   -9000007    1    1    2    0  503  0.74825651167E+02 -0.32369095531E+02  0.70371511306E+02  0.41424483826E+03  0.40000000000E+03 0.  1.
<mgrwt>
<rscale>  2 0.40876857E+03</rscale>
<asrwt>0</asrwt>
<pdfrwt beam="1">  1       21 0.29272296E+00 0.40895033E+03</pdfrwt>
<pdfrwt beam="2">  1       21 0.30325776E-01 0.40895033E+03</pdfrwt>
<totfact> 0.31849046E+02</totfact>
</mgrwt>
</event>
<event>
 6    1  0.8947013E-004  0.5316603E+03  0.7818608E-02  0.1005833E+00
         21   -1    0    0  501  502  0.00000000000E+00  0.00000000000E+00  0.56149409746E+03  0.56149409746E+03  0.00000000000E+00 0. -1.
         21   -1    0    0  502  503 -0.00000000000E+00 -0.00000000000E+00 -0.51391032399E+03  0.51391032399E+03  0.00000000000E+00 0. -1.
    9000007    2    1    2  501    0 -0.34981963029E+03 -0.16997581980E+02  0.10082149464E+03  0.54108527854E+03  0.39993201090E+03 0.  0.
    9000005    1    3    3    0    0 -0.27387955186E+03  0.16854276914E+03  0.11137912992E+03  0.34032776045E+03  0.99999687468E+00 0.  0.
          4    1    3    3  501    0 -0.75940078424E+02 -0.18554035112E+03 -0.10557635279E+02  0.20075751809E+03  0.00000000000E+00 0.  1.
   -9000007    1    1    2    0  503  0.34981963029E+03  0.16997581980E+02 -0.53237721174E+02  0.53431914291E+03  0.40000000000E+03 0. -1.
<mgrwt>
<rscale>  2 0.53164753E+03</rscale>
<asrwt>0</asrwt>
<pdfrwt beam="1">  1       21 0.86383707E-01 0.53166032E+03</pdfrwt>
<pdfrwt beam="2">  1       21 0.79063127E-01 0.53166032E+03</pdfrwt>
<totfact> 0.13568449E+03</totfact>
</mgrwt>
</event>
<event>
 6    1  0.8947013E-004  0.4561965E+03  0.7818608E-02  0.1025901E+00
         21   -1    0    0  501  502  0.00000000000E+00  0.00000000000E+00  0.26094440266E+03  0.26094440266E+03  0.00000000000E+00 0. -1.
         21   -1    0    0  502  503 -0.00000000000E+00 -0.00000000000E+00 -0.79946319010E+03  0.79946319010E+03  0.00000000000E+00 0. -1.
    9000007    2    1    2  501    0 -0.33624173981E+02 -0.21675955367E+03 -0.24155750630E+03  0.51607195027E+03  0.39983113914E+03 0.  0.
    9000005    1    3    3    0    0 -0.15344567694E+03 -0.10563930375E+03 -0.29083667094E+03  0.34538704004E+03  0.99999687468E+00 0.  0.
          4    1    3    3  501    0  0.11982150296E+03 -0.11112024992E+03  0.49279164643E+02  0.17068491023E+03  0.00000000000E+00 0.  1.
   -9000007    1    1    2    0  503  0.33624173981E+02  0.21675955367E+03 -0.29696128114E+03  0.54433564249E+03  0.40000000000E+03 0. -1.
<mgrwt>
<rscale>  2 0.45615953E+03</rscale>
<asrwt>0</asrwt>
<pdfrwt beam="1">  1       21 0.40145293E-01 0.45619655E+03</pdfrwt>
<pdfrwt beam="2">  1       21 0.12299434E+00 0.45619655E+03</pdfrwt>
<totfact> 0.25614862E+03</totfact>
</mgrwt>
</event>
<event>
 6    1  0.8947013E-004  0.4908918E+03  0.7818608E-02  0.1016276E+00
         21   -1    0    0  501  502  0.00000000000E+00  0.00000000000E+00  0.23465924635E+03  0.23465924635E+03  0.00000000000E+00 0.  1.
         21   -1    0    0  502  503 -0.00000000000E+00 -0.00000000000E+00 -0.11752128285E+04  0.11752128285E+04  0.00000000000E+00 0.  1.
    9000007    2    1    2  501    0  0.20649174529E+03  0.19232005364E+03 -0.21801996388E+03  0.53712888615E+03  0.40168257590E+03 0.  0.
    9000005    1    3    3    0    0  0.10445092237E+03  0.74115634199E+01 -0.29445967662E+03  0.31252588309E+03  0.99999687468E+00 0.  0.
          4    1    3    3  501    0  0.10204082292E+03  0.18490849022E+03  0.76439712735E+02  0.22460300306E+03  0.00000000000E+00 0.  1.
   -9000007    1    1    2    0  503 -0.20649174529E+03 -0.19232005364E+03 -0.72253361828E+03  0.87274318872E+03  0.40000000000E+03 0.  1.
<mgrwt>
<rscale>  2 0.49054745E+03</rscale>
<asrwt>0</asrwt>
<pdfrwt beam="1">  1       21 0.36101423E-01 0.49089178E+03</pdfrwt>
<pdfrwt beam="2">  1       21 0.18080197E+00 0.49089178E+03</pdfrwt>
<totfact> 0.10983904E+03</totfact>
</mgrwt>
</event>
<event>
 6    1  0.8947013E-004  0.4378925E+03  0.7818608E-02  0.1031409E+00
         21   -1    0    0  501  502  0.00000000000E+00  0.00000000000E+00  0.17898523441E+03  0.17898523441E+03  0.00000000000E+00 0. -1.
         21   -1    0    0  502  503 -0.00000000000E+00 -0.00000000000E+00 -0.10947575705E+04  0.10947575705E+04  0.00000000000E+00 0. -1.
    9000007    2    1    2  501    0  0.16218664246E+03 -0.72758881806E+02 -0.55200464622E+03  0.70459845236E+03  0.40018931488E+03 0.  0.
    9000005    1    3    3    0    0  0.74295758518E+02 -0.23846856958E+03 -0.29782902556E+03  0.38870328899E+03  0.99999687468E+00 0.  0.
          4    1    3    3  501    0  0.87890883941E+02  0.16570968777E+03 -0.25417562065E+03  0.31589516336E+03  0.00000000000E+00 0.  1.
   -9000007    1    1    2    0  503 -0.16218664246E+03  0.72758881806E+02 -0.36376768992E+03  0.56914435260E+03  0.40000000000E+03 0. -1.
<mgrwt>
<rscale>  2 0.43784925E+03</rscale>
<asrwt>0</asrwt>
<pdfrwt beam="1">  1       21 0.27536190E-01 0.43789251E+03</pdfrwt>
<pdfrwt beam="2">  1       21 0.16842424E+00 0.43789251E+03</pdfrwt>
<totfact> 0.23675867E+03</totfact>
</mgrwt>
</event>
<event>
 6    1  0.8947013E-004  0.6760942E+03  0.7818608E-02  0.9759136E-01
         21   -1    0    0  501  502  0.00000000000E+00  0.00000000000E+00  0.72564357623E+03  0.72564357623E+03  0.00000000000E+00 0.  1.
         21   -1    0    0  502  503 -0.00000000000E+00 -0.00000000000E+00 -0.68094014388E+03  0.68094014388E+03  0.00000000000E+00 0. -1.
    9000007    2    1    2  501    0  0.35688962505E+03 -0.41152569581E+03  0.21534300403E+03  0.70956043054E+03  0.40047445914E+03 0.  0.
    9000005    1    3    3    0    0 -0.16714076137E+02 -0.10179094416E+03 -0.89404985091E+02  0.13651010222E+03  0.99999687468E+00 0.  0.
          4    1    3    3  501    0  0.37360370119E+03 -0.30973475165E+03  0.30474798912E+03  0.57305032833E+03  0.00000000000E+00 0.  1.
   -9000007    1    1    2    0  503 -0.35688962505E+03  0.41152569581E+03 -0.17063957168E+03  0.69702328957E+03  0.40000000000E+03 0.  1.
<mgrwt>
<rscale>  2 0.67602398E+03</rscale>
<asrwt>0</asrwt>
<pdfrwt beam="1">  1       21 0.11163747E+00 0.67609422E+03</pdfrwt>
<pdfrwt beam="2">  1       21 0.10476002E+00 0.67609422E+03</pdfrwt>
<totfact> 0.35368105E+02</totfact>
</mgrwt>
</event>
<event>
 6    1  0.8947013E-004  0.5792170E+03  0.7818608E-02  0.9950485E-01
         21   -1    0    0  501  502  0.00000000000E+00  0.00000000000E+00  0.52770282771E+03  0.52770282771E+03  0.00000000000E+00 0.  1.
         21   -1    0    0  502  503 -0.00000000000E+00 -0.00000000000E+00 -0.11509550914E+04  0.11509550914E+04  0.00000000000E+00 0. -1.
    9000007    2    1    2  501    0  0.39457336463E+03 -0.14072731681E+03  0.25129263303E+03  0.62969600648E+03  0.39733708031E+03 0.  0.
    9000005    1    3    3    0    0  0.19007735740E+03 -0.13355824605E+03 -0.75375255941E+02  0.24423274983E+03  0.99999687468E+00 0.  0.
          4    1    3    3  501    0  0.20449600722E+03 -0.71690707635E+01  0.32666788897E+03  0.38546325665E+03  0.00000000000E+00 0.  1.
   -9000007    1    1    2    0  503 -0.39457336463E+03  0.14072731681E+03 -0.87454489671E+03  0.10489619126E+04  0.40000000000E+03 0. -1.
<mgrwt>
<rscale>  2 0.57875750E+03</rscale>
<asrwt>0</asrwt>
<pdfrwt beam="1">  1       21 0.81185051E-01 0.57921699E+03</pdfrwt>
<pdfrwt beam="2">  1       21 0.17707001E+00 0.57921699E+03</pdfrwt>
<totfact> 0.19432919E+02</totfact>
</mgrwt>
</event>
<event>
 6    1  0.8947013E-004  0.4002358E+03  0.7818608E-02  0.1043847E+00
         21   -1    0    0  501  502  0.00000000000E+00  0.00000000000E+00  0.12040293108E+04  0.12040293108E+04  0.00000000000E+00 0. -1.
         21   -1    0    0  502  503 -0.00000000000E+00 -0.00000000000E+00 -0.63855006735E+03  0.63855006735E+03  0.00000000000E+00 0. -1.
    9000007    2    1    2  501    0  0.13736355367E+02 -0.19079133598E+00  0.11027890338E+04  0.11725864418E+04  0.39827953321E+03 0.  0.
    9000005    1    3    3    0    0  0.18839553374E+03  0.50081316539E+02  0.37738857328E+03  0.42476364091E+03  0.99999687468E+00 0.  0.
          4    1    3    3  501    0 -0.17465917837E+03 -0.50272107875E+02  0.72540046051E+03  0.74782280089E+03  0.00000000000E+00 0.  1.
   -9000007    1    1    2    0  503 -0.13736355367E+02  0.19079133598E+00 -0.53730979039E+03  0.66999293631E+03  0.40000000000E+03 0. -1.
<mgrwt>
<rscale>  2 0.39980528E+03</rscale>
<asrwt>0</asrwt>
<pdfrwt beam="1">  1       21 0.18523528E+00 0.40023584E+03</pdfrwt>
<pdfrwt beam="2">  1       21 0.98238472E-01 0.40023584E+03</pdfrwt>
<totfact> 0.11851339E+02</totfact>
</mgrwt>
</event>
<event>
 6    1  0.8947013E-004  0.4678648E+03  0.7818608E-02  0.1022588E+00
         21   -1    0    0  501  502  0.00000000000E+00  0.00000000000E+00  0.40610047199E+03  0.40610047199E+03  0.00000000000E+00 0.  1.
         21   -1    0    0  502  503 -0.00000000000E+00 -0.00000000000E+00 -0.66601880159E+03  0.66601880159E+03  0.00000000000E+00 0.  1.
    9000007    2    1    2  501    0 -0.89264062630E+01  0.24078368067E+03 -0.36509310520E+03  0.59345634935E+03  0.40104987410E+03 0.  0.
    9000005    1    3    3    0    0  0.12480314822E+03 -0.16088293136E+02 -0.25366079481E+03  0.28315977433E+03  0.99999687468E+00 0.  0.
          4    1    3    3  501    0 -0.13372955448E+03  0.25687197381E+03 -0.11143231039E+03  0.31029657502E+03  0.00000000000E+00 0.  1.
   -9000007    1    1    2    0  503  0.89264062630E+01 -0.24078368067E+03  0.10517477560E+03  0.47866292423E+03  0.40000000000E+03 0.  1.
<mgrwt>
<rscale>  2 0.46763972E+03</rscale>
<asrwt>0</asrwt>
<pdfrwt beam="1">  1       21 0.62476996E-01 0.46786479E+03</pdfrwt>
<pdfrwt beam="2">  1       21 0.10246443E+00 0.46786479E+03</pdfrwt>
<totfact> 0.15680655E+03</totfact>
</mgrwt>
</event>
<event>
 6    1  0.8947013E-004  0.5480038E+03  0.7818608E-02  0.1002069E+00
         21   -1    0    0  501  502  0.00000000000E+00  0.00000000000E+00  0.10610309918E+04  0.10610309918E+04  0.00000000000E+00 0.  1.
         21   -1    0    0  502  503 -0.00000000000E+00 -0.00000000000E+00 -0.28224428441E+03  0.28224428441E+03  0.00000000000E+00 0.  1.
    9000007    2    1    2  501    0 -0.14603152202E+03  0.34493903121E+03  0.40686757314E+03  0.68098230243E+03  0.39735064298E+03 0.  0.
    9000005    1    3    3    0    0  0.73786644583E+02 -0.51589042097E+02  0.93758689273E+02  0.12999073040E+03  0.99999687468E+00 0.  0.
          4    1    3    3  501    0 -0.21981816661E+03  0.39652807331E+03  0.31310888386E+03  0.55099157203E+03  0.00000000000E+00 0.  1.
   -9000007    1    1    2    0  503  0.14603152202E+03 -0.34493903121E+03  0.37191913420E+03  0.66229297373E+03  0.40000000000E+03 0.  1.
<mgrwt>
<rscale>  2 0.54752043E+03</rscale>
<asrwt>0</asrwt>
<pdfrwt beam="1">  1       21 0.16323554E+00 0.54800378E+03</pdfrwt>
<pdfrwt beam="2">  1       21 0.43422198E-01 0.54800378E+03</pdfrwt>
<totfact> 0.98579719E+02</totfact>
</mgrwt>
</event>
<event>
 6    1  0.8947013E-004  0.4185447E+03  0.7818608E-02  0.1037614E+00
         21   -1    0    0  501  502  0.00000000000E+00  0.00000000000E+00  0.12090371272E+04  0.12090371272E+04  0.00000000000E+00 0. -1.
         21   -1    0    0  502  503 -0.00000000000E+00 -0.00000000000E+00 -0.15512845710E+03  0.15512845710E+03  0.00000000000E+00 0. -1.
    9000007    2    1    2  501    0  0.56918761801E+02  0.10582232811E+03  0.70529564636E+03  0.82013511558E+03  0.40092586404E+03 0.  0.
    9000005    1    3    3    0    0  0.22509757437E+03  0.47744761084E+02  0.48612776883E+03  0.53783797544E+03  0.99999687468E+00 0.  0.
          4    1    3    3  501    0 -0.16817881257E+03  0.58077567030E+02  0.21916787753E+03  0.28229714014E+03  0.00000000000E+00 0.  1.
   -9000007    1    1    2    0  503 -0.56918761801E+02 -0.10582232811E+03  0.34861302371E+03  0.54403046870E+03  0.40000000000E+03 0. -1.
<mgrwt>
<rscale>  2 0.41832281E+03</rscale>
<asrwt>0</asrwt>
<pdfrwt beam="1">  1       21 0.18600571E+00 0.41854469E+03</pdfrwt>
<pdfrwt beam="2">  1       21 0.23865917E-01 0.41854469E+03</pdfrwt>
<totfact> 0.23666332E+03</totfact>
</mgrwt>
</event>
<event>
 6    1  0.8947013E-004  0.1295356E+04  0.7818608E-02  0.9033261E-01
         21   -1    0    0  501  502  0.00000000000E+00  0.00000000000E+00  0.11569127615E+04  0.11569127615E+04  0.00000000000E+00 0.  1.
         21   -1    0    0  502  503 -0.00000000000E+00 -0.00000000000E+00 -0.14886253192E+04  0.14886253192E+04  0.00000000000E+00 0.  1.
    9000007    2    1    2  501    0 -0.63546075629E+03  0.10554964058E+04  0.46278290863E+02  0.12961826357E+04  0.40008087853E+03 0.  0.
    9000005    1    3    3    0    0 -0.41761457524E+03  0.32148256993E+03 -0.22022065084E+02  0.52748359933E+03  0.99999687468E+00 0.  0.
          4    1    3    3  501    0 -0.21784618106E+03  0.73401383588E+03  0.68300355947E+02  0.76869903635E+03  0.00000000000E+00 0.  1.
   -9000007    1    1    2    0  503  0.63546075629E+03 -0.10554964058E+04 -0.37799084861E+03  0.13493554451E+04  0.40000000000E+03 0.  1.
<mgrwt>
<rscale>  2 0.12953500E+04</rscale>
<asrwt>0</asrwt>
<pdfrwt beam="1">  1       21 0.17798658E+00 0.12953562E+04</pdfrwt>
<pdfrwt beam="2">  1       21 0.22901928E+00 0.12953562E+04</pdfrwt>
<totfact> 0.89301084E+00</totfact>
</mgrwt>
</event>
<event>
 6    1  0.8947013E-004  0.5175655E+03  0.7818608E-02  0.1009303E+00
         21   -1    0    0  501  502  0.00000000000E+00  0.00000000000E+00  0.98188736025E+03  0.98188736025E+03  0.00000000000E+00 0.  1.
         21   -1    0    0  502  503 -0.00000000000E+00 -0.00000000000E+00 -0.29763913862E+03  0.29763913862E+03  0.00000000000E+00 0.  1.
    9000007    2    1    2  501    0 -0.12414025641E+03  0.30407776305E+03  0.52714576019E+03  0.73864271040E+03  0.39979533751E+03 0.  0.
    9000005    1    3    3    0    0  0.32573162287E+02 -0.55452334730E+02  0.25066601624E+03  0.25878644481E+03  0.99999687468E+00 0.  0.
          4    1    3    3  501    0 -0.15671341869E+03  0.35953009778E+03  0.27647974395E+03  0.47985626559E+03  0.00000000000E+00 0.  1.
   -9000007    1    1    2    0  503  0.12414025641E+03 -0.30407776305E+03  0.15710246144E+03  0.54088378847E+03  0.40000000000E+03 0.  1.
<mgrwt>
<rscale>  2 0.51752600E+03</rscale>
<asrwt>0</asrwt>
<pdfrwt beam="1">  1       21 0.15105959E+00 0.51756554E+03</pdfrwt>
<pdfrwt beam="2">  1       21 0.45790637E-01 0.51756554E+03</pdfrwt>
<totfact> 0.11058627E+03</totfact>
</mgrwt>
</event>
<event>
 6    1  0.8947013E-004  0.5095536E+03  0.7818608E-02  0.1011317E+00
         21   -1    0    0  501  502  0.00000000000E+00  0.00000000000E+00  0.41669935903E+03  0.41669935903E+03  0.00000000000E+00 0. -1.
         21   -1    0    0  502  503 -0.00000000000E+00 -0.00000000000E+00 -0.64315630133E+03  0.64315630133E+03  0.00000000000E+00 0. -1.
    9000007    2    1    2  501    0  0.20635961772E+02 -0.31499045726E+03 -0.20689361949E+03  0.54992669013E+03  0.39996195275E+03 0.  0.
    9000005    1    3    3    0    0  0.13505302610E+03 -0.36005815866E+03 -0.13548048065E+03  0.40772191272E+03  0.99999687468E+00 0.  0.
          4    1    3    3  501    0 -0.11441706433E+03  0.45067701406E+02 -0.71413138840E+02  0.14220477741E+03  0.00000000000E+00 0.  1.
   -9000007    1    1    2    0  503 -0.20635961772E+02  0.31499045726E+03 -0.19563322818E+02  0.50992897023E+03  0.40000000000E+03 0. -1.
<mgrwt>
<rscale>  2 0.50954609E+03</rscale>
<asrwt>0</asrwt>
<pdfrwt beam="1">  1       21 0.64107594E-01 0.50955356E+03</pdfrwt>
<pdfrwt beam="2">  1       21 0.98947123E-01 0.50955356E+03</pdfrwt>
<totfact> 0.15890731E+03</totfact>
</mgrwt>
</event>
<event>
 6    1  0.8947013E-004  0.4555570E+03  0.7818608E-02  0.1026089E+00
         21   -1    0    0  501  502  0.00000000000E+00  0.00000000000E+00  0.67358171699E+03  0.67358171699E+03  0.00000000000E+00 0.  1.
         21   -1    0    0  502  503 -0.00000000000E+00 -0.00000000000E+00 -0.59040660512E+03  0.59040660512E+03  0.00000000000E+00 0.  1.
    9000007    2    1    2  501    0  0.10659734295E+03 -0.18982928654E+03  0.47868280357E+03  0.66080967051E+03  0.40016751824E+03 0.  0.
    9000005    1    3    3    0    0  0.19612687835E+03  0.20046796781E+02  0.34220583596E+03  0.39493475490E+03  0.99999687468E+00 0.  0.
          4    1    3    3  501    0 -0.89529535396E+02 -0.20987608332E+03  0.13647696760E+03  0.26587491560E+03  0.00000000000E+00 0.  1.
   -9000007    1    1    2    0  503 -0.10659734295E+03  0.18982928654E+03 -0.39550769169E+03  0.60317865160E+03  0.40000000000E+03 0.  1.
<mgrwt>
<rscale>  2 0.45552023E+03</rscale>
<asrwt>0</asrwt>
<pdfrwt beam="1">  1       21 0.10362796E+00 0.45555702E+03</pdfrwt>
<pdfrwt beam="2">  1       21 0.90831785E-01 0.45555702E+03</pdfrwt>
<totfact> 0.65136349E+02</totfact>
</mgrwt>
</event>
<event>
 6    1  0.8947013E-004  0.4020241E+03  0.7818608E-02  0.1043085E+00
         21   -1    0    0  501  502  0.00000000000E+00  0.00000000000E+00  0.11993336652E+04  0.11993336652E+04  0.00000000000E+00 0.  1.
         21   -1    0    0  502  503 -0.00000000000E+00 -0.00000000000E+00 -0.29844768180E+03  0.29844768180E+03  0.00000000000E+00 0.  1.
    9000007    2    1    2  501    0 -0.37940248382E+02  0.12185327956E+02  0.10050934118E+04  0.10825138033E+04  0.40004427666E+03 0.  0.
    9000005    1    3    3    0    0 -0.16956980469E+03 -0.10867521886E+03  0.35339873054E+03  0.40676268831E+03  0.99999687468E+00 0.  0.
          4    1    3    3  501    0  0.13162955631E+03  0.12086054681E+03  0.65169468126E+03  0.67575111503E+03  0.00000000000E+00 0.  1.
   -9000007    1    1    2    0  503  0.37940248382E+02 -0.12185327956E+02 -0.10420742843E+03  0.41526754365E+03  0.40000000000E+03 0.  1.
<mgrwt>
<rscale>  2 0.40201307E+03</rscale>
<asrwt>0</asrwt>
<pdfrwt beam="1">  1       21 0.18451287E+00 0.40202409E+03</pdfrwt>
<pdfrwt beam="2">  1       21 0.45915029E-01 0.40202409E+03</pdfrwt>
<totfact> 0.65618002E+02</totfact>
</mgrwt>
</event>
<event>
 6    1  0.8947013E-004  0.4988399E+03  0.7818608E-02  0.1014188E+00
         21   -1    0    0  501  502  0.00000000000E+00  0.00000000000E+00  0.21464130117E+04  0.21464130117E+04  0.00000000000E+00 0. -1.
         21   -1    0    0  502  503 -0.00000000000E+00 -0.00000000000E+00 -0.11701980775E+03  0.11701980775E+03  0.00000000000E+00 0.  1.
    9000007    2    1    2  501    0  0.25411098420E+03  0.15578477986E+03  0.88654470969E+03  0.10164588940E+04  0.39797722419E+03 0.  0.
    9000005    1    3    3    0    0 -0.26797433555E+02 -0.10720718405E+03  0.23674717027E+03  0.26126941149E+03  0.99999687468E+00 0.  0.
          4    1    3    3  501    0  0.28090841776E+03  0.26299196391E+03  0.64979753942E+03  0.75518948250E+03  0.00000000000E+00 0.  1.
   -9000007    1    1    2    0  503 -0.25411098420E+03 -0.15578477986E+03  0.11428484942E+04  0.12469739254E+04  0.40000000000E+03 0. -1.
<mgrwt>
<rscale>  2 0.49843432E+03</rscale>
<asrwt>0</asrwt>
<pdfrwt beam="1">  1       21 0.33021736E+00 0.49883994E+03</pdfrwt>
<pdfrwt beam="2">  1       21 0.18003049E-01 0.49883994E+03</pdfrwt>
<totfact> 0.49230909E+02</totfact>
</mgrwt>
</event>
<event>
 6    1  0.8947013E-004  0.4997137E+03  0.7818608E-02  0.1013871E+00
         21   -1    0    0  501  502  0.00000000000E+00  0.00000000000E+00  0.18371098501E+03  0.18371098501E+03  0.00000000000E+00 0.  1.
         21   -1    0    0  502  503 -0.00000000000E+00 -0.00000000000E+00 -0.14098994640E+04  0.14098994640E+04  0.00000000000E+00 0. -1.
    9000007    2    1    2  501    0  0.15560472237E+03 -0.25542046161E+03 -0.46120544278E+03  0.68001782233E+03  0.40032653722E+03 0.  0.
    9000005    1    3    3    0    0 -0.13012897185E+03 -0.12946310521E+03 -0.13077613006E+03  0.22538332040E+03  0.99999687468E+00 0.  0.
          4    1    3    3  501    0  0.28573369422E+03 -0.12595735640E+03 -0.33042931272E+03  0.45463450193E+03  0.00000000000E+00 0.  1.
   -9000007    1    1    2    0  503 -0.15560472237E+03  0.25542046161E+03 -0.76498303624E+03  0.91359262671E+03  0.40000000000E+03 0. -1.
<mgrwt>
<rscale>  2 0.49964829E+03</rscale>
<asrwt>0</asrwt>
<pdfrwt beam="1">  1       21 0.28263230E-01 0.49971370E+03</pdfrwt>
<pdfrwt beam="2">  1       21 0.21690760E+00 0.49971370E+03</pdfrwt>
<totfact> 0.10220690E+03</totfact>
</mgrwt>
</event>
<event>
 6    1  0.8947013E-004  0.6495551E+03  0.7818608E-02  0.9807727E-01
         21   -1    0    0  501  502  0.00000000000E+00  0.00000000000E+00  0.43348675877E+03  0.43348675877E+03  0.00000000000E+00 0. -1.
         21   -1    0    0  502  503 -0.00000000000E+00 -0.00000000000E+00 -0.14190634900E+04  0.14190634900E+04  0.00000000000E+00 0.  1.
    9000007    2    1    2  501    0 -0.41571804968E+03 -0.29797686597E+03  0.26493678101E+02  0.65009516731E+03  0.40038743999E+03 0.  0.
    9000005    1    3    3    0    0 -0.31317091598E+03 -0.39573611964E+03 -0.61704364207E+01  0.50470008251E+03  0.99999687468E+00 0.  0.
          4    1    3    3  501    0 -0.10254713370E+03  0.97759253669E+02  0.32664114522E+02  0.14539508480E+03  0.00000000000E+00 0.  1.
   -9000007    1    1    2    0  503  0.41571804968E+03  0.29797686597E+03 -0.10120704093E+04  0.12024550815E+04  0.40000000000E+03 0.  1.
<mgrwt>
<rscale>  2 0.64949539E+03</rscale>
<asrwt>0</asrwt>
<pdfrwt beam="1">  1       21 0.66690271E-01 0.64955509E+03</pdfrwt>
<pdfrwt beam="2">  1       21 0.21831746E+00 0.64955509E+03</pdfrwt>
<totfact> 0.15540156E+02</totfact>
</mgrwt>
</event>
<event>
 6    1  0.8947013E-004  0.4200335E+03  0.7818608E-02  0.1037126E+00
         21   -1    0    0  501  502  0.00000000000E+00  0.00000000000E+00  0.14638840623E+03  0.14638840623E+03  0.00000000000E+00 0.  1.
         21   -1    0    0  502  503 -0.00000000000E+00 -0.00000000000E+00 -0.12159036370E+04  0.12159036370E+04  0.00000000000E+00 0.  1.
    9000007    2    1    2  501    0  0.12794286120E+03  0.76663481562E+01 -0.46326906853E+03  0.62475386939E+03  0.39908773326E+03 0.  0.
    9000005    1    3    3    0    0 -0.85124705680E+02  0.24176823023E+02  0.24835362911E+02  0.91915882922E+02  0.99999687468E+00 0.  0.
          4    1    3    3  501    0  0.21306756688E+03 -0.16510474867E+02 -0.48810443144E+03  0.53283798647E+03  0.00000000000E+00 0.  1.
   -9000007    1    1    2    0  503 -0.12794286120E+03 -0.76663481562E+01 -0.60624616219E+03  0.73753817379E+03  0.40000000000E+03 0.  1.
<mgrwt>
<rscale>  2 0.41981617E+03</rscale>
<asrwt>0</asrwt>
<pdfrwt beam="1">  1       21 0.22521293E-01 0.42003351E+03</pdfrwt>
<pdfrwt beam="2">  1       21 0.18706210E+00 0.42003351E+03</pdfrwt>
<totfact> 0.26009641E+03</totfact>
</mgrwt>
</event>
<event>
 6    1  0.8947013E-004  0.5461612E+03  0.7818608E-02  0.1002404E+00
         21   -1    0    0  501  502  0.00000000000E+00  0.00000000000E+00  0.13827129483E+04  0.13827129483E+04  0.00000000000E+00 0.  1.
         21   -1    0    0  502  503 -0.00000000000E+00 -0.00000000000E+00 -0.41909458276E+03  0.41909458276E+03  0.00000000000E+00 0. -1.
    9000007    2    1    2  501    0  0.99671026550E+02 -0.35780144497E+03  0.11096339788E+04  0.12367617392E+04  0.40041958605E+03 0.  0.
    9000005    1    3    3    0    0  0.88785321394E+02 -0.31281139878E+02  0.72940672314E+03  0.73545666818E+03  0.99999687468E+00 0.  0.
          4    1    3    3  501    0  0.10885705156E+02 -0.32652030510E+03  0.38022725570E+03  0.50130507099E+03  0.00000000000E+00 0.  1.
   -9000007    1    1    2    0  503 -0.99671026550E+02  0.35780144497E+03 -0.14601561334E+03  0.56504579186E+03  0.40000000000E+03 0. -1.
<mgrwt>
<rscale>  2 0.54608428E+03</rscale>
<asrwt>0</asrwt>
<pdfrwt beam="1">  1       21 0.21272507E+00 0.54616118E+03</pdfrwt>
<pdfrwt beam="2">  1       21 0.64476090E-01 0.54616118E+03</pdfrwt>
<totfact> 0.19014586E+02</totfact>
</mgrwt>
</event>
<event>
 6    1  0.8947013E-004  0.4886799E+03  0.7818608E-02  0.1016791E+00
         21   -1    0    0  501  502  0.00000000000E+00  0.00000000000E+00  0.54967313488E+03  0.54967313488E+03  0.00000000000E+00 0.  1.
         21   -1    0    0  502  503 -0.00000000000E+00 -0.00000000000E+00 -0.63730853638E+03  0.63730853638E+03  0.00000000000E+00 0.  1.
    9000007    2    1    2  501    0 -0.16998983682E+03  0.22295217517E+03  0.29116393756E+03  0.56884482855E+03  0.40025464819E+03 0.  0.
    9000005    1    3    3    0    0 -0.14532199007E+03 -0.49582019830E+00  0.31088579618E+03  0.34317590955E+03  0.99999687468E+00 0.  0.
          4    1    3    3  501    0 -0.24667846759E+02  0.22344799537E+03 -0.19721858618E+02  0.22566891900E+03  0.00000000000E+00 0.  1.
   -9000007    1    1    2    0  503  0.16998983682E+03 -0.22295217517E+03 -0.37879933906E+03  0.61813684270E+03  0.40000000000E+03 0.  1.
<mgrwt>
<rscale>  2 0.48862771E+03</rscale>
<asrwt>0</asrwt>
<pdfrwt beam="1">  1       21 0.84565098E-01 0.48867985E+03</pdfrwt>
<pdfrwt beam="2">  1       21 0.98047467E-01 0.48867985E+03</pdfrwt>
<totfact> 0.87052083E+02</totfact>
</mgrwt>
</event>
<event>
 6    1  0.8947013E-004  0.4605197E+03  0.7818608E-02  0.1024633E+00
         21   -1    0    0  501  502  0.00000000000E+00  0.00000000000E+00  0.74624710908E+03  0.74624710908E+03  0.00000000000E+00 0. -1.
         21   -1    0    0  502  503 -0.00000000000E+00 -0.00000000000E+00 -0.38683408596E+03  0.38683408596E+03  0.00000000000E+00 0. -1.
    9000007    2    1    2  501    0  0.16046447863E+03 -0.16226391538E+03  0.47155832265E+03  0.65910335237E+03  0.39996443629E+03 0.  0.
    9000005    1    3    3    0    0  0.14975914900E+03 -0.25743405852E+03  0.47791776588E+03  0.56312208990E+03  0.99999687468E+00 0.  0.
          4    1    3    3  501    0  0.10705329637E+02  0.95170143137E+02 -0.63594432258E+01  0.95981262471E+02  0.00000000000E+00 0.  1.
   -9000007    1    1    2    0  503 -0.16046447863E+03  0.16226391538E+03 -0.11214529953E+03  0.47397784267E+03  0.40000000000E+03 0. -1.
<mgrwt>
<rscale>  2 0.46051201E+03</rscale>
<asrwt>0</asrwt>
<pdfrwt beam="1">  1       21 0.11480725E+00 0.46051974E+03</pdfrwt>
<pdfrwt beam="2">  1       21 0.59512937E-01 0.46051974E+03</pdfrwt>
<totfact> 0.13202327E+03</totfact>
</mgrwt>
</event>
<event>
 6    1  0.8947013E-004  0.6084723E+03  0.7818608E-02  0.9888108E-01
         21   -1    0    0  501  502  0.00000000000E+00  0.00000000000E+00  0.58306968806E+03  0.58306968806E+03  0.00000000000E+00 0.  1.
         21   -1    0    0  502  503 -0.00000000000E+00 -0.00000000000E+00 -0.67093799321E+03  0.67093799321E+03  0.00000000000E+00 0. -1.
    9000007    2    1    2  501    0  0.12297715353E+03 -0.44138041592E+03  0.10172325971E+03  0.61691662553E+03  0.40037288799E+03 0.  0.
    9000005    1    3    3    0    0 -0.72238432569E+02 -0.40118154562E+03  0.88744847904E+02  0.41718301944E+03  0.99999687468E+00 0.  0.
          4    1    3    3  501    0  0.19521558609E+03 -0.40198870305E+02  0.12978411803E+02  0.19973360609E+03  0.00000000000E+00 0.  1.
   -9000007    1    1    2    0  503 -0.12297715353E+03  0.44138041592E+03 -0.18959156486E+03  0.63709105575E+03  0.40000000000E+03 0. -1.
<mgrwt>
<rscale>  2 0.60841094E+03</rscale>
<asrwt>0</asrwt>
<pdfrwt beam="1">  1       21 0.89703029E-01 0.60847227E+03</pdfrwt>
<pdfrwt beam="2">  1       21 0.10322123E+00 0.60847227E+03</pdfrwt>
<totfact> 0.64051529E+02</totfact>
</mgrwt>
</event>
<event>
 6    1  0.8947013E-004  0.4288131E+03  0.7818608E-02  0.1034373E+00
         21   -1    0    0  501  502  0.00000000000E+00  0.00000000000E+00  0.32567180523E+03  0.32567180523E+03  0.00000000000E+00 0. -1.
         21   -1    0    0  502  503 -0.00000000000E+00 -0.00000000000E+00 -0.58143255671E+03  0.58143255671E+03  0.00000000000E+00 0. -1.
    9000007    2    1    2  501    0  0.12049726949E+03  0.96752637253E+02 -0.45457372854E+02  0.42949764524E+03  0.39814719609E+03 0.  0.
    9000005    1    3    3    0    0 -0.36958043426E+02  0.20203614088E+03  0.58332053465E+02  0.21351376455E+03  0.99999687468E+00 0.  0.
          4    1    3    3  501    0  0.15745531292E+03 -0.10528350363E+03 -0.10378942632E+03  0.21598388069E+03  0.00000000000E+00 0.  1.
   -9000007    1    1    2    0  503 -0.12049726949E+03 -0.96752637253E+02 -0.21030337863E+03  0.47760671670E+03  0.40000000000E+03 0. -1.
<mgrwt>
<rscale>  2 0.42838049E+03</rscale>
<asrwt>0</asrwt>
<pdfrwt beam="1">  1       21 0.50103355E-01 0.42881309E+03</pdfrwt>
<pdfrwt beam="2">  1       21 0.89451162E-01 0.42881309E+03</pdfrwt>
<totfact> 0.35563507E+03</totfact>
</mgrwt>
</event>
<event>
 6    1  0.8947013E-004  0.4074752E+03  0.7818608E-02  0.1041284E+00
         21   -1    0    0  501  502  0.00000000000E+00  0.00000000000E+00  0.28453415335E+03  0.28453415335E+03  0.00000000000E+00 0. -1.
         21   -1    0    0  502  503 -0.00000000000E+00 -0.00000000000E+00 -0.14042222073E+04  0.14042222073E+04  0.00000000000E+00 0. -1.
    9000007    2    1    2  501    0 -0.68858862600E+02 -0.26387928256E+02  0.85876524163E+02  0.41642628646E+03  0.40074706354E+03 0.  0.
    9000005    1    3    3    0    0 -0.93480383683E+02 -0.20507381992E+03  0.28645306372E+02  0.22719024478E+03  0.99999687468E+00 0.  0.
          4    1    3    3  501    0  0.24621521083E+02  0.17868589167E+03  0.57231217791E+02  0.18923604168E+03  0.00000000000E+00 0.  1.
   -9000007    1    1    2    0  503  0.68858862600E+02  0.26387928256E+02 -0.12055645781E+04  0.12723300742E+04  0.40000000000E+03 0. -1.
<mgrwt>
<rscale>  2 0.40729144E+03</rscale>
<asrwt>0</asrwt>
<pdfrwt beam="1">  1       21 0.43774486E-01 0.40747524E+03</pdfrwt>
<pdfrwt beam="2">  1       21 0.21603418E+00 0.40747524E+03</pdfrwt>
<totfact> 0.44619355E+02</totfact>
</mgrwt>
</event>
<event>
 6    1  0.8947013E-004  0.4839449E+03  0.7818608E-02  0.1018079E+00
         21   -1    0    0  501  502  0.00000000000E+00  0.00000000000E+00  0.22762122107E+03  0.22762122107E+03  0.00000000000E+00 0. -1.
         21   -1    0    0  502  503 -0.00000000000E+00 -0.00000000000E+00 -0.11995362911E+04  0.11995362911E+04  0.00000000000E+00 0. -1.
    9000007    2    1    2  501    0 -0.25577394737E+03 -0.93714162249E+02 -0.21612928525E+03  0.52970845578E+03  0.39959545021E+03 0.  0.
    9000005    1    3    3    0    0 -0.17296054231E+03 -0.23999604075E+03 -0.20758577472E+03  0.36139493997E+03  0.99999687468E+00 0.  0.
          4    1    3    3  501    0 -0.82813405055E+02  0.14628187850E+03 -0.85435105249E+01  0.16831351581E+03  0.00000000000E+00 0.  1.
   -9000007    1    1    2    0  503  0.25577394737E+03  0.93714162249E+02 -0.75578578482E+03  0.89744905643E+03  0.40000000000E+03 0. -1.
<mgrwt>
<rscale>  2 0.48386129E+03</rscale>
<asrwt>0</asrwt>
<pdfrwt beam="1">  1       21 0.35018649E-01 0.48394489E+03</pdfrwt>
<pdfrwt beam="2">  1       21 0.18454405E+00 0.48394489E+03</pdfrwt>
<totfact> 0.11031200E+03</totfact>
</mgrwt>
</event>
<event>
 6    1  0.8947013E-004  0.4543575E+03  0.7818608E-02  0.1026431E+00
         21   -1    0    0  501  502  0.00000000000E+00  0.00000000000E+00  0.10609717677E+04  0.10609717677E+04  0.00000000000E+00 0. -1.
         21   -1    0    0  502  503 -0.00000000000E+00 -0.00000000000E+00 -0.26049313983E+03  0.26049313983E+03  0.00000000000E+00 0. -1.
    9000007    2    1    2  501    0 -0.20796809344E+03  0.56480403746E+02  0.73261401028E+03  0.86206707313E+03  0.39999448325E+03 0.  0.
    9000005    1    3    3    0    0 -0.45701783943E+02  0.95544249711E+02  0.67834424698E+03  0.68656337953E+03  0.99999687468E+00 0.  0.
          4    1    3    3  501    0 -0.16226630950E+03 -0.39063845965E+02  0.54269763295E+02  0.17550369360E+03  0.00000000000E+00 0.  1.
   -9000007    1    1    2    0  503  0.20796809344E+03 -0.56480403746E+02  0.67864617559E+02  0.45939783436E+03  0.40000000000E+03 0. -1.
<mgrwt>
<rscale>  2 0.45435631E+03</rscale>
<asrwt>0</asrwt>
<pdfrwt beam="1">  1       21 0.16322642E+00 0.45435753E+03</pdfrwt>
<pdfrwt beam="2">  1       21 0.40075868E-01 0.45435753E+03</pdfrwt>
<totfact> 0.12075206E+03</totfact>
</mgrwt>
</event>
<event>
 6    1  0.8947013E-004  0.4357022E+03  0.7818608E-02  0.1032243E+00
         21   -1    0    0  501  502  0.00000000000E+00  0.00000000000E+00  0.22954929591E+03  0.22954929591E+03  0.00000000000E+00 0. -1.
         21   -1    0    0  502  503 -0.00000000000E+00 -0.00000000000E+00 -0.94901569064E+03  0.94901569064E+03  0.00000000000E+00 0. -1.
    9000007    2    1    2  501    0 -0.14063082124E+03 -0.90366537546E+02 -0.14566907474E+03  0.45940818626E+03  0.40235961934E+03 0.  0.
    9000005    1    3    3    0    0 -0.22176451637E+03 -0.56113724881E+02 -0.23917466692E+03  0.33095886773E+03  0.99999687468E+00 0.  0.
          4    1    3    3  501    0  0.81133695124E+02 -0.34252812665E+02  0.93505592182E+02  0.12844931852E+03  0.00000000000E+00 0.  1.
   -9000007    1    1    2    0  503  0.14063082124E+03  0.90366537546E+02 -0.57379731999E+03  0.71915680030E+03  0.40000000000E+03 0. -1.
<mgrwt>
<rscale>  2 0.43515665E+03</rscale>
<asrwt>0</asrwt>
<pdfrwt beam="1">  1       21 0.35315276E-01 0.43570219E+03</pdfrwt>
<pdfrwt beam="2">  1       21 0.14600242E+00 0.43570219E+03</pdfrwt>
<totfact> 0.21398584E+03</totfact>
</mgrwt>
</event>
<event>
 6    1  0.8947013E-004  0.5380309E+03  0.7818608E-02  0.1004412E+00
         21   -1    0    0  501  502  0.00000000000E+00  0.00000000000E+00  0.80213860585E+03  0.80213860585E+03  0.00000000000E+00 0.  1.
         21   -1    0    0  502  503 -0.00000000000E+00 -0.00000000000E+00 -0.38880001878E+03  0.38880001878E+03  0.00000000000E+00 0. -1.
    9000007    2    1    2  501    0 -0.21291754712E+03 -0.28667361218E+03  0.43968862863E+02  0.53982447569E+03  0.40244448296E+03 0.  0.
    9000005    1    3    3    0    0 -0.15176544589E+03  0.75549552143E+02  0.30313121371E+02  0.17222186480E+03  0.99999687468E+00 0.  0.
          4    1    3    3  501    0 -0.61152101226E+02 -0.36222316432E+03  0.13655741492E+02  0.36760261089E+03  0.00000000000E+00 0.  1.
   -9000007    1    1    2    0  503  0.21291754712E+03  0.28667361218E+03  0.36936972421E+03  0.65111414894E+03  0.40000000000E+03 0. -1.
<mgrwt>
<rscale>  2 0.53757377E+03</rscale>
<asrwt>0</asrwt>
<pdfrwt beam="1">  1       21 0.12340594E+00 0.53803086E+03</pdfrwt>
<pdfrwt beam="2">  1       21 0.59815388E-01 0.53803086E+03</pdfrwt>
<totfact> 0.10563642E+03</totfact>
</mgrwt>
</event>
<event>
 6    1  0.8947013E-004  0.4112598E+03  0.7818608E-02  0.1039957E+00
         21   -1    0    0  501  502  0.00000000000E+00  0.00000000000E+00  0.79201609974E+03  0.79201609974E+03  0.00000000000E+00 0. -1.
         21   -1    0    0  502  503 -0.00000000000E+00 -0.00000000000E+00 -0.22869217475E+03  0.22869217475E+03  0.00000000000E+00 0. -1.
    9000007    2    1    2  501    0 -0.42588947008E+02 -0.85081040788E+02  0.15014442911E+03  0.43781042947E+03  0.40010251268E+03 0.  0.
    9000005    1    3    3    0    0 -0.37315677031E+01 -0.21933648616E+03  0.19240766837E+03  0.29179467028E+03  0.99999687468E+00 0.  0.
          4    1    3    3  501    0 -0.38857379305E+02  0.13425544538E+03 -0.42263239261E+02  0.14601575919E+03  0.00000000000E+00 0.  1.
   -9000007    1    1    2    0  503  0.42588947008E+02  0.85081040788E+02  0.41317949588E+03  0.58289784501E+03  0.40000000000E+03 0. -1.
<mgrwt>
<rscale>  2 0.41123486E+03</rscale>
<asrwt>0</asrwt>
<pdfrwt beam="1">  1       21 0.12184863E+00 0.41125980E+03</pdfrwt>
<pdfrwt beam="2">  1       21 0.35183412E-01 0.41125980E+03</pdfrwt>
<totfact> 0.34929466E+03</totfact>
</mgrwt>
</event>
<event>
 6    1  0.8947013E-004  0.4136037E+03  0.7818608E-02  0.1039327E+00
         21   -1    0    0  501  502  0.00000000000E+00  0.00000000000E+00  0.37767604071E+03  0.37767604071E+03  0.00000000000E+00 0.  1.
         21   -1    0    0  502  503 -0.00000000000E+00 -0.00000000000E+00 -0.57087980640E+03  0.57087980640E+03  0.00000000000E+00 0.  1.
    9000007    2    1    2  501    0 -0.10518261972E+03 -0.21569156439E+01  0.12104094473E+03  0.42911598167E+03  0.39802208437E+03 0.  0.
    9000005    1    3    3    0    0  0.71130386311E+02  0.14707789606E+03  0.11174342546E+03  0.19793694070E+03  0.99999687468E+00 0.  0.
          4    1    3    3  501    0 -0.17631300603E+03 -0.14923481170E+03  0.92975192707E+01  0.23117904097E+03  0.00000000000E+00 0.  1.
   -9000007    1    1    2    0  503  0.10518261972E+03  0.21569156439E+01 -0.31424471043E+03  0.51943986544E+03  0.40000000000E+03 0.  1.
<mgrwt>
<rscale>  2 0.41312475E+03</rscale>
<asrwt>0</asrwt>
<pdfrwt beam="1">  1       21 0.58104006E-01 0.41360372E+03</pdfrwt>
<pdfrwt beam="2">  1       21 0.87827663E-01 0.41360372E+03</pdfrwt>
<totfact> 0.27160740E+03</totfact>
</mgrwt>
</event>
<event>
 6    1  0.8947013E-004  0.5025187E+03  0.7818608E-02  0.1013133E+00
         21   -1    0    0  501  502  0.00000000000E+00  0.00000000000E+00  0.41177549483E+03  0.41177549483E+03  0.00000000000E+00 0. -1.
         21   -1    0    0  502  503 -0.00000000000E+00 -0.00000000000E+00 -0.88596910143E+03  0.88596910143E+03  0.00000000000E+00 0. -1.
    9000007    2    1    2  501    0  0.98185592799E+02  0.28765642967E+03  0.12298997058E+03  0.51735055667E+03  0.40017300442E+03 0.  0.
    9000005    1    3    3    0    0  0.24109938785E+03  0.16998205454E+03  0.14885508422E+03  0.33042646652E+03  0.99999687468E+00 0.  0.
          4    1    3    3  501    0 -0.14291379505E+03  0.11767437512E+03 -0.25865113641E+02  0.18692409015E+03  0.00000000000E+00 0.  1.
   -9000007    1    1    2    0  503 -0.98185592799E+02 -0.28765642967E+03 -0.59718357718E+03  0.78039403958E+03  0.40000000000E+03 0. -1.
<mgrwt>
<rscale>  2 0.50248428E+03</rscale>
<asrwt>0</asrwt>
<pdfrwt beam="1">  1       21 0.63350077E-01 0.50251872E+03</pdfrwt>
<pdfrwt beam="2">  1       21 0.13630294E+00 0.50251872E+03</pdfrwt>
<totfact> 0.72758693E+02</totfact>
</mgrwt>
</event>
<event>
 6    1  0.8947013E-004  0.4138018E+03  0.7818608E-02  0.1039118E+00
         21   -1    0    0  501  502  0.00000000000E+00  0.00000000000E+00  0.22159749729E+03  0.22159749729E+03  0.00000000000E+00 0.  1.
         21   -1    0    0  502  503 -0.00000000000E+00 -0.00000000000E+00 -0.82008223999E+03  0.82008223999E+03  0.00000000000E+00 0.  1.
    9000007    2    1    2  501    0  0.32572433955E+02 -0.10010364943E+03 -0.17368436392E+03  0.44877412432E+03  0.40018777131E+03 0.  0.
    9000005    1    3    3    0    0 -0.17640378802E+03 -0.10227181142E+03 -0.70943504347E+02  0.21589766243E+03  0.99999687468E+00 0.  0.
          4    1    3    3  501    0  0.20897622197E+03  0.21681619920E+01 -0.10274085958E+03  0.23287646189E+03  0.00000000000E+00 0.  1.
   -9000007    1    1    2    0  503 -0.32572433955E+02  0.10010364943E+03 -0.42480037877E+03  0.59290561297E+03  0.40000000000E+03 0. -1.
<mgrwt>
<rscale>  2 0.41375643E+03</rscale>
<asrwt>0</asrwt>
<pdfrwt beam="1">  1       21 0.34091922E-01 0.41380183E+03</pdfrwt>
<pdfrwt beam="2">  1       21 0.12616650E+00 0.41380183E+03</pdfrwt>
<totfact> 0.34013459E+03</totfact>
</mgrwt>
</event>
<event>
 6    1  0.8947013E-004  0.4225643E+03  0.7818608E-02  0.1036238E+00
         21   -1    0    0  501  502  0.00000000000E+00  0.00000000000E+00  0.45206474455E+03  0.45206474455E+03  0.00000000000E+00 0. -1.
         21   -1    0    0  502  503 -0.00000000000E+00 -0.00000000000E+00 -0.89597899968E+03  0.89597899968E+03  0.00000000000E+00 0. -1.
    9000007    2    1    2  501    0 -0.13532055012E+03  0.15778862352E+02  0.28207921959E+03  0.50802758419E+03  0.39995339278E+03 0.  0.
    9000005    1    3    3    0    0  0.35795397984E+02  0.69787130924E+02  0.31584703830E+03  0.32544109414E+03  0.99999687468E+00 0.  0.
          4    1    3    3  501    0 -0.17111594810E+03 -0.54008268572E+02 -0.33767818707E+02  0.18258649005E+03  0.00000000000E+00 0.  1.
   -9000007    1    1    2    0  503  0.13532055012E+03 -0.15778862352E+02 -0.72599347473E+03  0.84001616004E+03  0.40000000000E+03 0. -1.
<mgrwt>
<rscale>  2 0.42255331E+03</rscale>
<asrwt>0</asrwt>
<pdfrwt beam="1">  1       21 0.69548423E-01 0.42256434E+03</pdfrwt>
<pdfrwt beam="2">  1       21 0.13784292E+00 0.42256434E+03</pdfrwt>
<totfact> 0.59369026E+02</totfact>
</mgrwt>
</event>
<event>
 6    1  0.8947013E-004  0.4205978E+03  0.7818608E-02  0.1036897E+00
         21   -1    0    0  501  502  0.00000000000E+00  0.00000000000E+00  0.11933626911E+04  0.11933626911E+04  0.00000000000E+00 0. -1.
         21   -1    0    0  502  503 -0.00000000000E+00 -0.00000000000E+00 -0.24195454354E+03  0.24195454354E+03  0.00000000000E+00 0. -1.
    9000007    2    1    2  501    0 -0.11102576816E+03 -0.65709915630E+02  0.92270783928E+03  0.10140474613E+04  0.40032234878E+03 0.  0.
    9000005    1    3    3    0    0 -0.79890672402E+01  0.10959652837E+03  0.71491852928E+03  0.72331509574E+03  0.99999687468E+00 0.  0.
          4    1    3    3  501    0 -0.10303670092E+03 -0.17530644400E+03  0.20778931000E+03  0.29073236558E+03  0.00000000000E+00 0.  1.
   -9000007    1    1    2    0  503  0.11102576816E+03  0.65709915630E+02  0.28700308271E+02  0.42126977331E+03  0.40000000000E+03 0. -1.
<mgrwt>
<rscale>  2 0.42052106E+03</rscale>
<asrwt>0</asrwt>
<pdfrwt beam="1">  1       21 0.18359426E+00 0.42059779E+03</pdfrwt>
<pdfrwt beam="2">  1       21 0.37223777E-01 0.42059779E+03</pdfrwt>
<totfact> 0.10176352E+03</totfact>
</mgrwt>
</event>
<event>
 6    1  0.8947013E-004  0.4927452E+03  0.7818608E-02  0.1015722E+00
         21   -1    0    0  501  502  0.00000000000E+00  0.00000000000E+00  0.15377704422E+04  0.15377704422E+04  0.00000000000E+00 0. -1.
         21   -1    0    0  502  503 -0.00000000000E+00 -0.00000000000E+00 -0.23806412496E+03  0.23806412496E+03  0.00000000000E+00 0. -1.
    9000007    2    1    2  501    0 -0.28738730615E+03 -0.14366191090E+02  0.11654183141E+04  0.12651182869E+04  0.39940778887E+03 0.  0.
    9000005    1    3    3    0    0 -0.29113461656E+03  0.44157102918E+01  0.11949539804E+04  0.12299166145E+04  0.99999687468E+00 0.  0.
          4    1    3    3  501    0  0.37473104095E+01 -0.18781901382E+02 -0.29535666284E+02  0.35201672370E+02  0.00000000000E+00 0.  1.
   -9000007    1    1    2    0  503  0.28738730615E+03  0.14366191090E+02  0.13428800319E+03  0.51071628032E+03  0.40000000000E+03 0. -1.
<mgrwt>
<rscale>  2 0.49262502E+03</rscale>
<asrwt>0</asrwt>
<pdfrwt beam="1">  1       21 0.23658006E+00 0.49274522E+03</pdfrwt>
<pdfrwt beam="2">  1       21 0.36625251E-01 0.49274522E+03</pdfrwt>
<totfact> 0.45688843E+02</totfact>
</mgrwt>
</event>
<event>
 6    1  0.8947013E-004  0.4259853E+03  0.7818608E-02  0.1035288E+00
         21   -1    0    0  501  502  0.00000000000E+00  0.00000000000E+00  0.86588328211E+03  0.86588328211E+03  0.00000000000E+00 0.  1.
         21   -1    0    0  502  503 -0.00000000000E+00 -0.00000000000E+00 -0.22977108424E+03  0.22977108424E+03  0.00000000000E+00 0.  1.
    9000007    2    1    2  501    0  0.14649021460E+03  0.20260719267E+01  0.48356323487E+03  0.64317820780E+03  0.39797150266E+03 0.  0.
    9000005    1    3    3    0    0  0.24571331642E+03  0.52596595841E+02  0.15261924682E+03  0.29399841880E+03  0.99999687468E+00 0.  0.
          4    1    3    3  501    0 -0.99223101822E+02 -0.50570523914E+02  0.33094398804E+03  0.34917978900E+03  0.00000000000E+00 0.  1.
   -9000007    1    1    2    0  503 -0.14649021460E+03 -0.20260719267E+01  0.15254896300E+03  0.45247615855E+03  0.40000000000E+03 0.  1.
<mgrwt>
<rscale>  2 0.42550847E+03</rscale>
<asrwt>0</asrwt>
<pdfrwt beam="1">  1       21 0.13321281E+00 0.42598531E+03</pdfrwt>
<pdfrwt beam="2">  1       21 0.35349398E-01 0.42598531E+03</pdfrwt>
<totfact> 0.27337192E+03</totfact>
</mgrwt>
</event>
<event>
 6    1  0.8947013E-004  0.4075367E+03  0.7818608E-02  0.1041208E+00
         21   -1    0    0  501  502  0.00000000000E+00  0.00000000000E+00  0.17845840713E+04  0.17845840713E+04  0.00000000000E+00 0. -1.
         21   -1    0    0  502  503 -0.00000000000E+00 -0.00000000000E+00 -0.96145639657E+02  0.96145639657E+02  0.00000000000E+00 0. -1.
    9000007    2    1    2  501    0 -0.20313592383E+02 -0.75322502433E+02  0.67533016979E+03  0.78872491626E+03  0.39991253280E+03 0.  0.
    9000005    1    3    3    0    0  0.57719468771E+02  0.14007232724E+03  0.13937530320E+03  0.20585982870E+03  0.99999687468E+00 0.  0.
          4    1    3    3  501    0 -0.78033061154E+02 -0.21539482967E+03  0.53595486659E+03  0.58286508757E+03  0.00000000000E+00 0.  1.
   -9000007    1    1    2    0  503  0.20313592383E+02  0.75322502433E+02  0.10131082619E+04  0.10920047947E+04  0.40000000000E+03 0.  1.
<mgrwt>
<rscale>  2 0.40751519E+03</rscale>
<asrwt>0</asrwt>
<pdfrwt beam="1">  1       21 0.27455137E+00 0.40753665E+03</pdfrwt>
<pdfrwt beam="2">  1       21 0.14791638E-01 0.40753665E+03</pdfrwt>
<totfact> 0.16167752E+03</totfact>
</mgrwt>
</event>
<event>
 6    1  0.8947013E-004  0.5062176E+03  0.7818608E-02  0.1012190E+00
         21   -1    0    0  501  502  0.00000000000E+00  0.00000000000E+00  0.76457569879E+03  0.76457569879E+03  0.00000000000E+00 0.  1.
         21   -1    0    0  502  503 -0.00000000000E+00 -0.00000000000E+00 -0.33617694068E+03  0.33617694068E+03  0.00000000000E+00 0. -1.
    9000007    2    1    2  501    0  0.17797233700E+03  0.25347165018E+03  0.18092178260E+03  0.53757692657E+03  0.40041757002E+03 0.  0.
    9000005    1    3    3    0    0  0.12471583836E+03 -0.13039421974E+01 -0.96104969387E+02  0.15745763157E+03  0.99999687468E+00 0.  0.
          4    1    3    3  501    0  0.53256498635E+02  0.25477559238E+03  0.27702675199E+03  0.38011929501E+03  0.00000000000E+00 0.  1.
   -9000007    1    1    2    0  503 -0.17797233700E+03 -0.25347165018E+03  0.24747697551E+03  0.56317571289E+03  0.40000000000E+03 0.  1.
<mgrwt>
<rscale>  2 0.50613502E+03</rscale>
<asrwt>0</asrwt>
<pdfrwt beam="1">  1       21 0.11762703E+00 0.50621760E+03</pdfrwt>
<pdfrwt beam="2">  1       21 0.51719529E-01 0.50621760E+03</pdfrwt>
<totfact> 0.16553617E+03</totfact>
</mgrwt>
</event>
<event>
 6    1  0.8947013E-004  0.5220052E+03  0.7818608E-02  0.1008192E+00
         21   -1    0    0  501  502  0.00000000000E+00  0.00000000000E+00  0.10949761044E+03  0.10949761044E+03  0.00000000000E+00 0. -1.
         21   -1    0    0  502  503 -0.00000000000E+00 -0.00000000000E+00 -0.28392189597E+04  0.28392189597E+04  0.00000000000E+00 0. -1.
    9000007    2    1    2  501    0 -0.74721644142E+02  0.32691414149E+03 -0.84663297446E+03  0.99462393997E+03  0.40004150849E+03 0.  0.
    9000005    1    3    3    0    0 -0.23110485291E+03  0.11936579533E+03 -0.37977101341E+03  0.46030931856E+03  0.99999687468E+00 0.  0.
          4    1    3    3  501    0  0.15638320877E+03  0.20754834616E+03 -0.46686196105E+03  0.53431462141E+03  0.00000000000E+00 0.  1.
   -9000007    1    1    2    0  503  0.74721644142E+02 -0.32691414149E+03 -0.18830883748E+04  0.19540926302E+04  0.40000000000E+03 0. -1.
<mgrwt>
<rscale>  2 0.52199721E+03</rscale>
<asrwt>0</asrwt>
<pdfrwt beam="1">  1       21 0.16845784E-01 0.52200516E+03</pdfrwt>
<pdfrwt beam="2">  1       21 0.43680298E+00 0.52200516E+03</pdfrwt>
<totfact> 0.11573227E+02</totfact>
</mgrwt>
</event>
<event>
 6    1  0.8947013E-004  0.4375961E+03  0.7818608E-02  0.1031556E+00
         21   -1    0    0  501  502  0.00000000000E+00  0.00000000000E+00  0.79065776939E+03  0.79065776939E+03  0.00000000000E+00 0. -1.
         21   -1    0    0  502  503 -0.00000000000E+00 -0.00000000000E+00 -0.24343345857E+03  0.24343345857E+03  0.00000000000E+00 0. -1.
    9000007    2    1    2  501    0  0.16880532292E+03 -0.47010615784E+02  0.23019007923E+03  0.49444695712E+03  0.40098015635E+03 0.  0.
    9000005    1    3    3    0    0  0.11717858245E+03 -0.14778128972E+03 -0.47558080524E+02  0.19450681426E+03  0.99999687468E+00 0.  0.
          4    1    3    3  501    0  0.51626740464E+02  0.10077067393E+03  0.27774815975E+03  0.29994014286E+03  0.00000000000E+00 0.  1.
   -9000007    1    1    2    0  503 -0.16880532292E+03  0.47010615784E+02  0.31703423159E+03  0.53964427083E+03  0.40000000000E+03 0. -1.
<mgrwt>
<rscale>  2 0.43737141E+03</rscale>
<asrwt>0</asrwt>
<pdfrwt beam="1">  1       21 0.12163966E+00 0.43759607E+03</pdfrwt>
<pdfrwt beam="2">  1       21 0.37451302E-01 0.43759607E+03</pdfrwt>
<totfact> 0.30595165E+03</totfact>
</mgrwt>
</event>
<event>
 6    1  0.8947013E-004  0.4977186E+03  0.7818608E-02  0.1014813E+00
         21   -1    0    0  501  502  0.00000000000E+00  0.00000000000E+00  0.83902419257E+03  0.83902419257E+03  0.00000000000E+00 0.  1.
         21   -1    0    0  502  503 -0.00000000000E+00 -0.00000000000E+00 -0.29971499056E+03  0.29971499056E+03  0.00000000000E+00 0.  1.
    9000007    2    1    2  501    0 -0.24633783466E+03  0.14319659969E+03  0.36655832531E+03  0.61813332420E+03  0.40808847777E+03 0.  0.
    9000005    1    3    3    0    0 -0.11877642065E+02  0.22258942123E+03  0.27548691805E+03  0.35437433716E+03  0.99999687468E+00 0.  0.
          4    1    3    3  501    0 -0.23446019259E+03 -0.79392821546E+02  0.91071407261E+02  0.26375898704E+03  0.00000000000E+00 0.  1.
   -9000007    1    1    2    0  503  0.24633783466E+03 -0.14319659969E+03  0.17275087670E+03  0.52060585893E+03  0.40000000000E+03 0.  1.
<mgrwt>
<rscale>  2 0.49605779E+03</rscale>
<asrwt>0</asrwt>
<pdfrwt beam="1">  1       21 0.12908064E+00 0.49771860E+03</pdfrwt>
<pdfrwt beam="2">  1       21 0.46109999E-01 0.49771860E+03</pdfrwt>
<totfact> 0.16688214E+03</totfact>
</mgrwt>
</event>
<event>
 6    1  0.8947013E-004  0.4116050E+03  0.7818608E-02  0.1039854E+00
         21   -1    0    0  501  502  0.00000000000E+00  0.00000000000E+00  0.26480395998E+03  0.26480395998E+03  0.00000000000E+00 0. -1.
         21   -1    0    0  502  503 -0.00000000000E+00 -0.00000000000E+00 -0.69209010985E+03  0.69209010985E+03  0.00000000000E+00 0. -1.
    9000007    2    1    2  501    0 -0.95578330586E+02  0.16837432599E+02 -0.81584499324E+02  0.41937351432E+03  0.39974916831E+03 0.  0.
    9000005    1    3    3    0    0 -0.40237195034E+02 -0.12970839004E+03  0.10794835039E+03  0.17348528658E+03  0.99999687468E+00 0.  0.
          4    1    3    3  501    0 -0.55341135552E+02  0.14654582264E+03 -0.18953284972E+03  0.24588822774E+03  0.00000000000E+00 0.  1.
   -9000007    1    1    2    0  503  0.95578330586E+02 -0.16837432599E+02 -0.34570165054E+03  0.53752055551E+03  0.40000000000E+03 0. -1.
<mgrwt>
<rscale>  2 0.41154410E+03</rscale>
<asrwt>0</asrwt>
<pdfrwt beam="1">  1       21 0.40739071E-01 0.41160505E+03</pdfrwt>
<pdfrwt beam="2">  1       21 0.10647540E+00 0.41160505E+03</pdfrwt>
<totfact> 0.36260026E+03</totfact>
</mgrwt>
</event>
<event>
 6    1  0.8947013E-004  0.4567491E+03  0.7818608E-02  0.1025753E+00
         21   -1    0    0  501  502  0.00000000000E+00  0.00000000000E+00  0.12855316717E+03  0.12855316717E+03  0.00000000000E+00 0. -1.
         21   -1    0    0  502  503 -0.00000000000E+00 -0.00000000000E+00 -0.16361002248E+04  0.16361002248E+04  0.00000000000E+00 0. -1.
    9000007    2    1    2  501    0  0.21873433945E+03  0.27839587632E+02 -0.67056731115E+03  0.81115727246E+03  0.39961962914E+03 0.  0.
    9000005    1    3    3    0    0  0.30086382668E+03  0.37718279728E+01 -0.65945531179E+03  0.72485555604E+03  0.99999687468E+00 0.  0.
          4    1    3    3  501    0 -0.82129487228E+02  0.24067759659E+02 -0.11111999367E+02  0.86301716422E+02  0.00000000000E+00 0.  1.
   -9000007    1    1    2    0  503 -0.21873433945E+03 -0.27839587632E+02 -0.83697974649E+03  0.95349611951E+03  0.40000000000E+03 0. -1.
<mgrwt>
<rscale>  2 0.45666582E+03</rscale>
<asrwt>0</asrwt>
<pdfrwt beam="1">  1       21 0.19777411E-01 0.45674911E+03</pdfrwt>
<pdfrwt beam="2">  1       21 0.25170771E+00 0.45674911E+03</pdfrwt>
<totfact> 0.12585802E+03</totfact>
</mgrwt>
</event>
<event>
 6    1  0.8947013E-004  0.4152053E+03  0.7818608E-02  0.1038801E+00
         21   -1    0    0  501  502  0.00000000000E+00  0.00000000000E+00  0.15937413774E+04  0.15937413774E+04  0.00000000000E+00 0. -1.
         21   -1    0    0  502  503 -0.00000000000E+00 -0.00000000000E+00 -0.16934467117E+03  0.16934467117E+03  0.00000000000E+00 0. -1.
    9000007    2    1    2  501    0  0.25380980309E+02 -0.10840334291E+03  0.12431707270E+04  0.13100536717E+04  0.39795940426E+03 0.  0.
    9000005    1    3    3    0    0 -0.10757203115E+03 -0.17245353759E+03  0.10356636491E+04  0.10554203706E+04  0.99999687468E+00 0.  0.
          4    1    3    3  501    0  0.13295301146E+03  0.64050194674E+02  0.20750707788E+03  0.25463330117E+03  0.00000000000E+00 0.  1.
   -9000007    1    1    2    0  503 -0.25380980309E+02  0.10840334291E+03  0.18122597924E+03  0.45303237684E+03  0.40000000000E+03 0. -1.
<mgrwt>
<rscale>  2 0.41471309E+03</rscale>
<asrwt>0</asrwt>
<pdfrwt beam="1">  1       21 0.24519097E+00 0.41520535E+03</pdfrwt>
<pdfrwt beam="2">  1       21 0.26053027E-01 0.41520535E+03</pdfrwt>
<totfact> 0.82908939E+02</totfact>
</mgrwt>
</event>
<event>
 6    1  0.8947013E-004  0.4550997E+03  0.7818608E-02  0.1026282E+00
         21   -1    0    0  501  502  0.00000000000E+00  0.00000000000E+00  0.78896326060E+03  0.78896326060E+03  0.00000000000E+00 0. -1.
         21   -1    0    0  502  503 -0.00000000000E+00 -0.00000000000E+00 -0.42725689681E+03  0.42725689681E+03  0.00000000000E+00 0. -1.
    9000007    2    1    2  501    0 -0.94878952363E+02 -0.19298694534E+03  0.55920642649E+03  0.72099066370E+03  0.40108569289E+03 0.  0.
    9000005    1    3    3    0    0 -0.16945974168E+03 -0.23352221493E+03  0.56654876915E+03  0.63578906623E+03  0.99999687468E+00 0.  0.
          4    1    3    3  501    0  0.74580789320E+02  0.40535269591E+02 -0.73423426583E+01  0.85201597474E+02  0.00000000000E+00 0.  1.
   -9000007    1    1    2    0  503  0.94878952363E+02  0.19298694534E+03 -0.19750006271E+03  0.49522949371E+03  0.40000000000E+03 0. -1.
<mgrwt>
<rscale>  2 0.45486034E+03</rscale>
<asrwt>0</asrwt>
<pdfrwt beam="1">  1       21 0.12137896E+00 0.45509967E+03</pdfrwt>
<pdfrwt beam="2">  1       21 0.65731830E-01 0.45509967E+03</pdfrwt>
<totfact> 0.92301433E+02</totfact>
</mgrwt>
</event>
<event>
 6    1  0.8947013E-004  0.4021405E+03  0.7818608E-02  0.1043130E+00
         21   -1    0    0  501  502  0.00000000000E+00  0.00000000000E+00  0.12698818652E+03  0.12698818652E+03  0.00000000000E+00 0.  1.
         21   -1    0    0  502  503 -0.00000000000E+00 -0.00000000000E+00 -0.20937358243E+04  0.20937358243E+04  0.00000000000E+00 0.  1.
    9000007    2    1    2  501    0 -0.13968795838E+02 -0.26237610206E+02 -0.28776561501E+03  0.49449570255E+03  0.40104041095E+03 0.  0.
    9000005    1    3    3    0    0 -0.20674934431E+02  0.61188467815E+02 -0.36921321579E+03  0.37482113096E+03  0.99999687468E+00 0.  0.
          4    1    3    3  501    0  0.67061385931E+01 -0.87426078021E+02  0.81447600779E+02  0.11967457159E+03  0.00000000000E+00 0.  1.
   -9000007    1    1    2    0  503  0.13968795838E+02  0.26237610206E+02 -0.16789820227E+04  0.17262283082E+04  0.40000000000E+03 0.  1.
<mgrwt>
<rscale>  2 0.40188082E+03</rscale>
<asrwt>0</asrwt>
<pdfrwt beam="1">  1       21 0.19536644E-01 0.40214046E+03</pdfrwt>
<pdfrwt beam="2">  1       21 0.32211320E+00 0.40214046E+03</pdfrwt>
<totfact> 0.50006229E+02</totfact>
</mgrwt>
</event>
<event>
 6    1  0.8947013E-004  0.5388087E+03  0.7818608E-02  0.1004165E+00
         21   -1    0    0  501  502  0.00000000000E+00  0.00000000000E+00  0.57160617619E+03  0.57160617619E+03  0.00000000000E+00 0. -1.
         21   -1    0    0  502  503 -0.00000000000E+00 -0.00000000000E+00 -0.75183490298E+03  0.75183490298E+03  0.00000000000E+00 0.  1.
    9000007    2    1    2  501    0  0.12159360545E+03  0.33863206572E+03  0.28734660239E+03  0.61064140936E+03  0.40107129054E+03 0.  0.
    9000005    1    3    3    0    0  0.13164721751E+03  0.31100598824E+03  0.38296455430E+03  0.51060607560E+03  0.99999687468E+00 0.  0.
          4    1    3    3  501    0 -0.10053612052E+02  0.27626077479E+02 -0.95617951907E+02  0.10003533375E+03  0.00000000000E+00 0.  1.
   -9000007    1    1    2    0  503 -0.12159360545E+03 -0.33863206572E+03 -0.46757532919E+03  0.71279966981E+03  0.40000000000E+03 0.  1.
<mgrwt>
<rscale>  2 0.53860939E+03</rscale>
<asrwt>0</asrwt>
<pdfrwt beam="1">  1       21 0.87939411E-01 0.53880874E+03</pdfrwt>
<pdfrwt beam="2">  1       21 0.11566691E+00 0.53880874E+03</pdfrwt>
<totfact> 0.51765924E+02</totfact>
</mgrwt>
</event>
<event>
 6    1  0.8947013E-004  0.4758846E+03  0.7818608E-02  0.1020282E+00
         21   -1    0    0  501  502  0.00000000000E+00  0.00000000000E+00  0.18291995970E+04  0.18291995970E+04  0.00000000000E+00 0. -1.
         21   -1    0    0  502  503 -0.00000000000E+00 -0.00000000000E+00 -0.23394728072E+03  0.23394728072E+03  0.00000000000E+00 0.  1.
    9000007    2    1    2  501    0  0.42853790682E+02  0.25395317868E+03  0.15056197176E+04  0.15790366970E+04  0.40017182827E+03 0.  0.
    9000005    1    3    3    0    0 -0.28811595180E+00  0.33900112067E+03  0.82755477012E+03  0.89429846269E+03  0.99999687468E+00 0.  0.
          4    1    3    3  501    0  0.43141906634E+02 -0.85047941986E+02  0.67806494745E+03  0.68473823430E+03  0.00000000000E+00 0.  1.
   -9000007    1    1    2    0  503 -0.42853790682E+02 -0.25395317868E+03  0.89632598695E+02  0.48411018073E+03  0.40000000000E+03 0.  1.
<mgrwt>
<rscale>  2 0.47584848E+03</rscale>
<asrwt>0</asrwt>
<pdfrwt beam="1">  1       21 0.28141531E+00 0.47588460E+03</pdfrwt>
<pdfrwt beam="2">  1       21 0.35991891E-01 0.47588460E+03</pdfrwt>
<totfact> 0.25370536E+02</totfact>
</mgrwt>
</event>
<event>
 6    1  0.8947013E-004  0.4274324E+03  0.7818608E-02  0.1034700E+00
         21   -1    0    0  501  502  0.00000000000E+00  0.00000000000E+00  0.38036790539E+03  0.38036790539E+03  0.00000000000E+00 0. -1.
         21   -1    0    0  502  503 -0.00000000000E+00 -0.00000000000E+00 -0.48306609422E+03  0.48306609422E+03  0.00000000000E+00 0. -1.
    9000007    2    1    2  501    0  0.11547783020E+03  0.95318364977E+02 -0.16723810791E+02  0.42775944946E+03  0.40034702545E+03 0.  0.
    9000005    1    3    3    0    0  0.60844481314E+01  0.15129955129E+03  0.15493867165E+03  0.21664617858E+03  0.99999687468E+00 0.  0.
          4    1    3    3  501    0  0.10939338207E+03 -0.55981186309E+02 -0.17166248244E+03  0.21111327087E+03  0.00000000000E+00 0.  1.
   -9000007    1    1    2    0  503 -0.11547783020E+03 -0.95318364977E+02 -0.85974378044E+02  0.43567455015E+03  0.40000000000E+03 0. -1.
<mgrwt>
<rscale>  2 0.42735113E+03</rscale>
<asrwt>0</asrwt>
<pdfrwt beam="1">  1       21 0.58518139E-01 0.42743240E+03</pdfrwt>
<pdfrwt beam="2">  1       21 0.74317861E-01 0.42743240E+03</pdfrwt>
<totfact> 0.39144541E+03</totfact>
</mgrwt>
</event>
<event>
 6    1  0.8947013E-004  0.4028113E+03  0.7818608E-02  0.1042846E+00
         21   -1    0    0  501  502  0.00000000000E+00  0.00000000000E+00  0.10323997366E+03  0.10323997366E+03  0.00000000000E+00 0. -1.
         21   -1    0    0  502  503 -0.00000000000E+00 -0.00000000000E+00 -0.26223027119E+04  0.26223027119E+04  0.00000000000E+00 0. -1.
    9000007    2    1    2  501    0  0.39942082293E+02  0.18162958404E+02 -0.39665371647E+03  0.56532387287E+03  0.40041434471E+03 0.  0.
    9000005    1    3    3    0    0 -0.70183771084E+01 -0.36812471853E+02  0.77287276358E+02  0.85899585457E+02  0.99999687468E+00 0.  0.
          4    1    3    3  501    0  0.46960459401E+02  0.54975430257E+02 -0.47394099283E+03  0.47942428742E+03  0.00000000000E+00 0.  1.
   -9000007    1    1    2    0  503 -0.39942082293E+02 -0.18162958404E+02 -0.21224090218E+04  0.21602188127E+04  0.40000000000E+03 0. -1.
<mgrwt>
<rscale>  2 0.40270825E+03</rscale>
<asrwt>0</asrwt>
<pdfrwt beam="1">  1       21 0.15883073E-01 0.40281126E+03</pdfrwt>
<pdfrwt beam="2">  1       21 0.40343118E+00 0.40281126E+03</pdfrwt>
<totfact> 0.23152561E+02</totfact>
</mgrwt>
</event>
<event>
 6    1  0.8947013E-004  0.4264864E+03  0.7818608E-02  0.1035005E+00
         21   -1    0    0  501  502  0.00000000000E+00  0.00000000000E+00  0.53233587649E+03  0.53233587649E+03  0.00000000000E+00 0. -1.
         21   -1    0    0  502  503 -0.00000000000E+00 -0.00000000000E+00 -0.39746693610E+03  0.39746693610E+03  0.00000000000E+00 0. -1.
    9000007    2    1    2  501    0  0.14349847687E+03  0.36038934578E+02  0.24203234835E+03  0.49005900800E+03  0.39960925415E+03 0.  0.
    9000005    1    3    3    0    0  0.27876030332E+03 -0.10790128610E+02  0.19101662387E+03  0.33810070123E+03  0.99999687468E+00 0.  0.
          4    1    3    3  501    0 -0.13526182645E+03  0.46829063188E+02  0.51015724473E+02  0.15195830677E+03  0.00000000000E+00 0.  1.
   -9000007    1    1    2    0  503 -0.14349847687E+03 -0.36038934578E+02 -0.10716340796E+03  0.43974380459E+03  0.40000000000E+03 0. -1.
<mgrwt>
<rscale>  2 0.42639472E+03</rscale>
<asrwt>0</asrwt>
<pdfrwt beam="1">  1       21 0.81897827E-01 0.42648636E+03</pdfrwt>
<pdfrwt beam="2">  1       21 0.61148760E-01 0.42648636E+03</pdfrwt>
<totfact> 0.28457185E+03</totfact>
</mgrwt>
</event>
<event>
 6    1  0.8947013E-004  0.4182167E+03  0.7818608E-02  0.1037710E+00
         21   -1    0    0  501  502  0.00000000000E+00  0.00000000000E+00  0.24090471340E+03  0.24090471340E+03  0.00000000000E+00 0. -1.
         21   -1    0    0  502  503 -0.00000000000E+00 -0.00000000000E+00 -0.83698194485E+03  0.83698194485E+03  0.00000000000E+00 0.  1.
    9000007    2    1    2  501    0 -0.11314989537E+03  0.38356691380E+02 -0.10089656503E+03  0.43021542452E+03  0.40078804881E+03 0.  0.
    9000005    1    3    3    0    0  0.90199984544E+02  0.27550011298E+02  0.10464600015E+03  0.14087876233E+03  0.99999687468E+00 0.  0.
          4    1    3    3  501    0 -0.20334987991E+03  0.10806680082E+02 -0.20554256517E+03  0.28933666220E+03  0.00000000000E+00 0.  1.
   -9000007    1    1    2    0  503  0.11314989537E+03 -0.38356691380E+02 -0.49518066643E+03  0.64767123373E+03  0.40000000000E+03 0.  1.
<mgrwt>
<rscale>  2 0.41802777E+03</rscale>
<asrwt>0</asrwt>
<pdfrwt beam="1">  1       21 0.37062264E-01 0.41821668E+03</pdfrwt>
<pdfrwt beam="2">  1       21 0.12876645E+00 0.41821668E+03</pdfrwt>
<totfact> 0.27203460E+03</totfact>
</mgrwt>
</event>
<event>
 6    1  0.8947013E-004  0.6383519E+03  0.7818608E-02  0.9830442E-01
         21   -1    0    0  501  502  0.00000000000E+00  0.00000000000E+00  0.42706101064E+03  0.42706101064E+03  0.00000000000E+00 0. -1.
         21   -1    0    0  502  503 -0.00000000000E+00 -0.00000000000E+00 -0.95161767417E+03  0.95161767417E+03  0.00000000000E+00 0.  1.
    9000007    2    1    2  501    0  0.51730995685E+01 -0.49745999485E+03 -0.29526404398E+03  0.70039532749E+03  0.39481584527E+03 0.  0.
    9000005    1    3    3    0    0 -0.10193951677E+03 -0.20714080808E+03  0.50554752618E+02  0.23633823740E+03  0.99999687468E+00 0.  0.
          4    1    3    3  501    0  0.10711261634E+03 -0.29031918676E+03 -0.34581879660E+03  0.46405709009E+03  0.00000000000E+00 0.  1.
   -9000007    1    1    2    0  503 -0.51730995685E+01  0.49745999485E+03 -0.22929261955E+03  0.67828335732E+03  0.40000000000E+03 0. -1.
<mgrwt>
<rscale>  2 0.63754150E+03</rscale>
<asrwt>0</asrwt>
<pdfrwt beam="1">  1       21 0.65701695E-01 0.63835195E+03</pdfrwt>
<pdfrwt beam="2">  1       21 0.14640272E+00 0.63835195E+03</pdfrwt>
<totfact> 0.52797040E+02</totfact>
</mgrwt>
</event>
<event>
 6    1  0.8947013E-004  0.4797664E+03  0.7818608E-02  0.1019205E+00
         21   -1    0    0  501  502  0.00000000000E+00  0.00000000000E+00  0.10494328686E+04  0.10494328686E+04  0.00000000000E+00 0.  1.
         21   -1    0    0  502  503 -0.00000000000E+00 -0.00000000000E+00 -0.75233992128E+03  0.75233992128E+03  0.00000000000E+00 0.  1.
    9000007    2    1    2  501    0  0.13287703841E+03  0.22917121464E+03  0.90684869633E+03  0.10259004896E+04  0.39990186742E+03 0.  0.
    9000005    1    3    3    0    0 -0.10697633123E+03 -0.64274959101E+01  0.81317265934E+02  0.13453157949E+03  0.99999687468E+00 0.  0.
          4    1    3    3  501    0  0.23985336964E+03  0.23559871055E+03  0.82553143039E+03  0.89136891011E+03  0.00000000000E+00 0.  1.
   -9000007    1    1    2    0  503 -0.13287703841E+03 -0.22917121464E+03 -0.60975574899E+03  0.77587230030E+03  0.40000000000E+03 0.  1.
<mgrwt>
<rscale>  2 0.47974590E+03</rscale>
<asrwt>0</asrwt>
<pdfrwt beam="1">  1       21 0.16145121E+00 0.47976635E+03</pdfrwt>
<pdfrwt beam="2">  1       21 0.11574460E+00 0.47976635E+03</pdfrwt>
<totfact> 0.11215382E+02</totfact>
</mgrwt>
</event>
<event>
 6    1  0.8947013E-004  0.4749299E+03  0.7818608E-02  0.1020645E+00
         21   -1    0    0  501  502  0.00000000000E+00  0.00000000000E+00  0.52741378850E+03  0.52741378850E+03  0.00000000000E+00 0. -1.
         21   -1    0    0  502  503 -0.00000000000E+00 -0.00000000000E+00 -0.60626791283E+03  0.60626791283E+03  0.00000000000E+00 0. -1.
    9000007    2    1    2  501    0  0.25428943294E+03 -0.29921760956E+02  0.26946401878E+03  0.54471314843E+03  0.39817474702E+03 0.  0.
    9000005    1    3    3    0    0  0.11187932884E+03  0.18334633133E+03  0.97037382014E+02  0.23569071882E+03  0.99999687468E+00 0.  0.
          4    1    3    3  501    0  0.14241010410E+03 -0.21326809228E+03  0.17242663677E+03  0.30902242961E+03  0.00000000000E+00 0.  1.
   -9000007    1    1    2    0  503 -0.25428943294E+03  0.29921760956E+02 -0.34831814311E+03  0.58896855290E+03  0.40000000000E+03 0. -1.
<mgrwt>
<rscale>  2 0.47454539E+03</rscale>
<asrwt>0</asrwt>
<pdfrwt beam="1">  1       21 0.81140583E-01 0.47492992E+03</pdfrwt>
<pdfrwt beam="2">  1       21 0.93271987E-01 0.47492992E+03</pdfrwt>
<totfact> 0.10866682E+03</totfact>
</mgrwt>
</event>
<event>
 6    1  0.8947013E-004  0.4676860E+03  0.7818608E-02  0.1022696E+00
         21   -1    0    0  501  502  0.00000000000E+00  0.00000000000E+00  0.14118326817E+04  0.14118326817E+04  0.00000000000E+00 0. -1.
         21   -1    0    0  502  503 -0.00000000000E+00 -0.00000000000E+00 -0.35777066381E+03  0.35777066381E+03  0.00000000000E+00 0. -1.
    9000007    2    1    2  501    0  0.18563472102E+03 -0.15063524276E+03  0.11945920373E+04  0.12828796946E+04  0.40196884105E+03 0.  0.
    9000005    1    3    3    0    0  0.18405871896E+03 -0.69362280545E+02  0.11847852788E+04  0.12010020378E+04  0.99999687468E+00 0.  0.
          4    1    3    3  501    0  0.15760020607E+01 -0.81272962220E+02  0.98067585429E+01  0.81877656803E+02  0.00000000000E+00 0.  1.
   -9000007    1    1    2    0  503 -0.18563472102E+03  0.15063524276E+03 -0.14053001942E+03  0.48672365093E+03  0.40000000000E+03 0. -1.
<mgrwt>
<rscale>  2 0.46726263E+03</rscale>
<asrwt>0</asrwt>
<pdfrwt beam="1">  1       21 0.21720502E+00 0.46768598E+03</pdfrwt>
<pdfrwt beam="2">  1       21 0.55041641E-01 0.46768598E+03</pdfrwt>
<totfact> 0.26122760E+02</totfact>
</mgrwt>
</event>
<event>
 6    1  0.8947013E-004  0.4034249E+03  0.7818608E-02  0.1042653E+00
         21   -1    0    0  501  502  0.00000000000E+00  0.00000000000E+00  0.29383559784E+03  0.29383559784E+03  0.00000000000E+00 0.  1.
         21   -1    0    0  502  503 -0.00000000000E+00 -0.00000000000E+00 -0.56502494986E+03  0.56502494986E+03  0.00000000000E+00 0.  1.
    9000007    2    1    2  501    0 -0.15578135502E+02  0.44871498245E+02 -0.73161481952E+02  0.41000515117E+03  0.40061888609E+03 0.  0.
    9000005    1    3    3    0    0  0.51409559608E+02 -0.16115642916E+03 -0.91970106995E+02  0.19254567784E+03  0.99999687468E+00 0.  0.
          4    1    3    3  501    0 -0.66987695110E+02  0.20602792741E+03  0.18808625043E+02  0.21745947334E+03  0.00000000000E+00 0.  1.
   -9000007    1    1    2    0  503  0.15578135502E+02 -0.44871498245E+02 -0.19802787007E+03  0.44885539652E+03  0.40000000000E+03 0.  1.
<mgrwt>
<rscale>  2 0.40327113E+03</rscale>
<asrwt>0</asrwt>
<pdfrwt beam="1">  1       21 0.45205477E-01 0.40342486E+03</pdfrwt>
<pdfrwt beam="2">  1       21 0.86926915E-01 0.40342486E+03</pdfrwt>
<totfact> 0.47699137E+03</totfact>
</mgrwt>
</event>
<event>
 6    1  0.8947013E-004  0.4264749E+03  0.7818608E-02  0.1035252E+00
         21   -1    0    0  501  502  0.00000000000E+00  0.00000000000E+00  0.14305297223E+03  0.14305297223E+03  0.00000000000E+00 0. -1.
         21   -1    0    0  502  503 -0.00000000000E+00 -0.00000000000E+00 -0.16257699476E+04  0.16257699476E+04  0.00000000000E+00 0. -1.
    9000007    2    1    2  501    0  0.14766718407E+03  0.86726867540E+01 -0.32031905228E+03  0.53065905977E+03  0.39637599538E+03 0.  0.
    9000005    1    3    3    0    0  0.15583284999E+02  0.21495149466E+02  0.92915327002E+02  0.96639216716E+02  0.99999687468E+00 0.  0.
          4    1    3    3  501    0  0.13208389907E+03 -0.12822462712E+02 -0.41323437928E+03  0.43401984306E+03  0.00000000000E+00 0.  1.
   -9000007    1    1    2    0  503 -0.14766718407E+03 -0.86726867540E+01 -0.11623979230E+04  0.12381638600E+04  0.40000000000E+03 0. -1.
<mgrwt>
<rscale>  2 0.42562303E+03</rscale>
<asrwt>0</asrwt>
<pdfrwt beam="1">  1       21 0.22008148E-01 0.42647487E+03</pdfrwt>
<pdfrwt beam="2">  1       21 0.25011847E+00 0.42647487E+03</pdfrwt>
<totfact> 0.10654516E+03</totfact>
</mgrwt>
</event>
<event>
 6    1  0.8947013E-004  0.4061644E+03  0.7818608E-02  0.1041677E+00
         21   -1    0    0  501  502  0.00000000000E+00  0.00000000000E+00  0.17769729856E+03  0.17769729856E+03  0.00000000000E+00 0. -1.
         21   -1    0    0  502  503 -0.00000000000E+00 -0.00000000000E+00 -0.10994869281E+04  0.10994869281E+04  0.00000000000E+00 0. -1.
    9000007    2    1    2  501    0 -0.51092042735E+02 -0.47434028398E+02 -0.20880887481E+03  0.45669538427E+03  0.40013640666E+03 0.  0.
    9000005    1    3    3    0    0  0.63675013721E+02 -0.18497644227E+03 -0.19627812152E+03  0.27712252263E+03  0.99999687468E+00 0.  0.
          4    1    3    3  501    0 -0.11476705646E+03  0.13754241387E+03 -0.12530753284E+02  0.17957286164E+03  0.00000000000E+00 0.  1.
   -9000007    1    1    2    0  503  0.51092042735E+02  0.47434028398E+02 -0.71298075474E+03  0.82048884241E+03  0.40000000000E+03 0. -1.
<mgrwt>
<rscale>  2 0.40613081E+03</rscale>
<asrwt>0</asrwt>
<pdfrwt beam="1">  1       21 0.27338045E-01 0.40616441E+03</pdfrwt>
<pdfrwt beam="2">  1       21 0.16915184E+00 0.40616441E+03</pdfrwt>
<totfact> 0.24044280E+03</totfact>
</mgrwt>
</event>
<event>
 6    1  0.8947013E-004  0.5817320E+03  0.7818608E-02  0.9944112E-01
         21   -1    0    0  501  502  0.00000000000E+00  0.00000000000E+00  0.23493297461E+03  0.23493297461E+03  0.00000000000E+00 0. -1.
         21   -1    0    0  502  503 -0.00000000000E+00 -0.00000000000E+00 -0.14690644361E+04  0.14690644361E+04  0.00000000000E+00 0.  1.
    9000007    2    1    2  501    0 -0.29697925635E+03 -0.30035882847E+03 -0.49751820811E+03  0.76537544762E+03  0.39982884322E+03 0.  0.
    9000005    1    3    3    0    0 -0.13665625987E+03 -0.34854845538E+03 -0.20116107686E+03  0.42500322110E+03  0.99999687468E+00 0.  0.
          4    1    3    3  501    0 -0.16032299647E+03  0.48189626904E+02 -0.29635713126E+03  0.34037222652E+03  0.00000000000E+00 0.  1.
   -9000007    1    1    2    0  503  0.29697925635E+03  0.30035882847E+03 -0.73661325338E+03  0.93862196309E+03  0.40000000000E+03 0.  1.
<mgrwt>
<rscale>  2 0.58170257E+03</rscale>
<asrwt>0</asrwt>
<pdfrwt beam="1">  1       21 0.36143535E-01 0.58173199E+03</pdfrwt>
<pdfrwt beam="2">  1       21 0.22600991E+00 0.58173199E+03</pdfrwt>
<totfact> 0.52730092E+02</totfact>
</mgrwt>
</event>
<event>
 6    1  0.8947013E-004  0.4675600E+03  0.7818608E-02  0.1022634E+00
         21   -1    0    0  501  502  0.00000000000E+00  0.00000000000E+00  0.40343609041E+03  0.40343609041E+03  0.00000000000E+00 0. -1.
         21   -1    0    0  502  503 -0.00000000000E+00 -0.00000000000E+00 -0.79849194611E+03  0.79849194611E+03  0.00000000000E+00 0.  1.
    9000007    2    1    2  501    0 -0.19748370297E+03  0.13897803462E+03  0.14335782442E+03  0.48904375560E+03  0.40037185468E+03 0.  0.
    9000005    1    3    3    0    0 -0.29436561099E+03  0.19642021300E+03  0.94575877494E+02  0.36630262026E+03  0.99999687468E+00 0.  0.
          4    1    3    3  501    0  0.96881908023E+02 -0.57442178380E+02  0.48781946928E+02  0.12274113534E+03  0.00000000000E+00 0.  1.
   -9000007    1    1    2    0  503  0.19748370297E+03 -0.13897803462E+03 -0.53841368012E+03  0.71288428093E+03  0.40000000000E+03 0.  1.
<mgrwt>
<rscale>  2 0.46748036E+03</rscale>
<asrwt>0</asrwt>
<pdfrwt beam="1">  1       21 0.62067091E-01 0.46755997E+03</pdfrwt>
<pdfrwt beam="2">  1       21 0.12284492E+00 0.46755997E+03</pdfrwt>
<totfact> 0.10112722E+03</totfact>
</mgrwt>
</event>
<event>
 6    1  0.8947013E-004  0.4706379E+03  0.7818608E-02  0.1021829E+00
         21   -1    0    0  501  502  0.00000000000E+00  0.00000000000E+00  0.33013405439E+03  0.33013405439E+03  0.00000000000E+00 0.  1.
         21   -1    0    0  502  503 -0.00000000000E+00 -0.00000000000E+00 -0.67163862289E+03  0.67163862289E+03  0.00000000000E+00 0.  1.
    9000007    2    1    2  501    0  0.86297612232E+02 -0.23249244745E+03 -0.13998712418E+03  0.48980656867E+03  0.39851482254E+03 0.  0.
    9000005    1    3    3    0    0 -0.24125822291E+01  0.78426604344E-01  0.12570433849E+03  0.12573148934E+03  0.99999687468E+00 0.  0.
          4    1    3    3  501    0  0.88710194461E+02 -0.23257087405E+03 -0.26569146266E+03  0.36407507933E+03  0.00000000000E+00 0.  1.
   -9000007    1    1    2    0  503 -0.86297612232E+02  0.23249244745E+03 -0.20151744433E+03  0.51196610861E+03  0.40000000000E+03 0.  1.
<mgrwt>
<rscale>  2 0.47032216E+03</rscale>
<asrwt>0</asrwt>
<pdfrwt beam="1">  1       21 0.50789855E-01 0.47063788E+03</pdfrwt>
<pdfrwt beam="2">  1       21 0.10332902E+00 0.47063788E+03</pdfrwt>
<totfact> 0.24053866E+03</totfact>
</mgrwt>
</event>
<event>
 6    1  0.8947013E-004  0.4077162E+03  0.7818608E-02  0.1041517E+00
         21   -1    0    0  501  502  0.00000000000E+00  0.00000000000E+00  0.14373526432E+03  0.14373526432E+03  0.00000000000E+00 0. -1.
         21   -1    0    0  502  503 -0.00000000000E+00 -0.00000000000E+00 -0.17252770476E+04  0.17252770476E+04  0.00000000000E+00 0. -1.
    9000007    2    1    2  501    0  0.73768691357E+02  0.28118926354E+02 -0.24547014289E+03  0.47211577957E+03  0.39548100388E+03 0.  0.
    9000005    1    3    3    0    0 -0.74496052057E+02 -0.14506728997E+02  0.81015992110E+02  0.11101665609E+03  0.99999687468E+00 0.  0.
          4    1    3    3  501    0  0.14826474341E+03  0.42625655351E+02 -0.32648613500E+03  0.36109912348E+03  0.00000000000E+00 0.  1.
   -9000007    1    1    2    0  503 -0.73768691357E+02 -0.28118926354E+02 -0.13360716404E+04  0.13968965324E+04  0.40000000000E+03 0. -1.
<mgrwt>
<rscale>  2 0.40660352E+03</rscale>
<asrwt>0</asrwt>
<pdfrwt beam="1">  1       21 0.22113119E-01 0.40771619E+03</pdfrwt>
<pdfrwt beam="2">  1       21 0.26542722E+00 0.40771619E+03</pdfrwt>
<totfact> 0.86081800E+02</totfact>
</mgrwt>
</event>
<event>
 6    1  0.8947013E-004  0.5063490E+03  0.7818608E-02  0.1012135E+00
         21   -1    0    0  501  502  0.00000000000E+00  0.00000000000E+00  0.28478292506E+03  0.28478292506E+03  0.00000000000E+00 0. -1.
         21   -1    0    0  502  503 -0.00000000000E+00 -0.00000000000E+00 -0.10170478670E+04  0.10170478670E+04  0.00000000000E+00 0.  1.
    9000007    2    1    2  501    0  0.25486921911E+03 -0.17728777848E+03 -0.14559400650E+03  0.52686494652E+03  0.39999972737E+03 0.  0.
    9000005    1    3    3    0    0  0.27541666580E+03 -0.18472258541E+03 -0.25308919857E+03  0.41717132666E+03  0.99999687468E+00 0.  0.
          4    1    3    3  501    0 -0.20547446688E+02  0.74348069313E+01  0.10749519207E+03  0.10969361986E+03  0.00000000000E+00 0.  1.
   -9000007    1    1    2    0  503 -0.25486921911E+03  0.17728777848E+03 -0.58667093543E+03  0.77496584552E+03  0.40000000000E+03 0.  1.
<mgrwt>
<rscale>  2 0.50634891E+03</rscale>
<asrwt>0</asrwt>
<pdfrwt beam="1">  1       21 0.43812757E-01 0.50634897E+03</pdfrwt>
<pdfrwt beam="2">  1       21 0.15646891E+00 0.50634897E+03</pdfrwt>
<totfact> 0.11058753E+03</totfact>
</mgrwt>
</event>
<event>
 6    1  0.8947013E-004  0.6850450E+03  0.7818608E-02  0.9743176E-01
         21   -1    0    0  501  502  0.00000000000E+00  0.00000000000E+00  0.62258433939E+03  0.62258433939E+03  0.00000000000E+00 0. -1.
         21   -1    0    0  502  503 -0.00000000000E+00 -0.00000000000E+00 -0.10317514553E+04  0.10317514553E+04  0.00000000000E+00 0.  1.
    9000007    2    1    2  501    0 -0.37099393571E+03 -0.41430678731E+03  0.22481302403E+03  0.72094550539E+03  0.39991863125E+03 0.  0.
    9000005    1    3    3    0    0 -0.12179284104E+03 -0.31923569087E+03  0.28797258867E+03  0.44684911802E+03  0.99999687468E+00 0.  0.
          4    1    3    3  501    0 -0.24920109466E+03 -0.95071096445E+02 -0.63159564646E+02  0.27409638737E+03  0.00000000000E+00 0.  1.
   -9000007    1    1    2    0  503  0.37099393571E+03  0.41430678731E+03 -0.63398013995E+03  0.93339028932E+03  0.40000000000E+03 0.  1.
<mgrwt>
<rscale>  2 0.68503310E+03</rscale>
<asrwt>0</asrwt>
<pdfrwt beam="1">  1       21 0.95782207E-01 0.68504497E+03</pdfrwt>
<pdfrwt beam="2">  1       21 0.15873099E+00 0.68504497E+03</pdfrwt>
<totfact> 0.17274854E+02</totfact>
</mgrwt>
</event>
<event>
 6    1  0.8947013E-004  0.4397913E+03  0.7818608E-02  0.1031725E+00
         21   -1    0    0  501  502  0.00000000000E+00  0.00000000000E+00  0.68947221535E+03  0.68947221535E+03  0.00000000000E+00 0. -1.
         21   -1    0    0  502  503 -0.00000000000E+00 -0.00000000000E+00 -0.45103431121E+03  0.45103431121E+03  0.00000000000E+00 0. -1.
    9000007    2    1    2  501    0  0.16172138526E+03 -0.85220979723E+02  0.47640813323E+03  0.64046027694E+03  0.38705068802E+03 0.  0.
    9000005    1    3    3    0    0  0.17053752516E+03 -0.13270602408E+03  0.52756620197E+03  0.57010616009E+03  0.99999687468E+00 0.  0.
          4    1    3    3  501    0 -0.88161399026E+01  0.47485044353E+02 -0.51158068745E+02  0.70354116850E+02  0.00000000000E+00 0.  1.
   -9000007    1    1    2    0  503 -0.16172138526E+03  0.85220979723E+02 -0.23797022909E+03  0.50004624963E+03  0.40000000000E+03 0. -1.
<mgrwt>
<rscale>  2 0.43682551E+03</rscale>
<asrwt>0</asrwt>
<pdfrwt beam="1">  1       21 0.10607265E+00 0.43979134E+03</pdfrwt>
<pdfrwt beam="2">  1       21 0.69389894E-01 0.43979134E+03</pdfrwt>
<totfact> 0.11526756E+03</totfact>
</mgrwt>
</event>
<event>
 6    1  0.8947013E-004  0.4245096E+03  0.7818608E-02  0.1035657E+00
         21   -1    0    0  501  502  0.00000000000E+00  0.00000000000E+00  0.87812902541E+02  0.87812902541E+02  0.00000000000E+00 0.  1.
         21   -1    0    0  502  503 -0.00000000000E+00 -0.00000000000E+00 -0.20674242298E+04  0.20674242298E+04  0.00000000000E+00 0.  1.
    9000007    2    1    2  501    0 -0.11716595497E+03  0.80501869527E+02 -0.10901171587E+04  0.11696366616E+04  0.39935709397E+03 0.  0.
    9000005    1    3    3    0    0 -0.13453333586E+03 -0.11537914001E+03 -0.24774122589E+03  0.30461168626E+03  0.99999687468E+00 0.  0.
          4    1    3    3  501    0  0.17367380888E+02  0.19588100954E+03 -0.84237593276E+03  0.86502497531E+03  0.00000000000E+00 0.  1.
   -9000007    1    1    2    0  503  0.11716595497E+03 -0.80501869527E+02 -0.88949416863E+03  0.98560047079E+03  0.40000000000E+03 0.  1.
<mgrwt>
<rscale>  2 0.42435810E+03</rscale>
<asrwt>0</asrwt>
<pdfrwt beam="1">  1       21 0.13509678E-01 0.42450961E+03</pdfrwt>
<pdfrwt beam="2">  1       21 0.31806524E+00 0.42450961E+03</pdfrwt>
<totfact> 0.10376900E+03</totfact>
</mgrwt>
</event>
<event>
 6    1  0.8947013E-004  0.4968538E+03  0.7818608E-02  0.1014788E+00
         21   -1    0    0  501  502  0.00000000000E+00  0.00000000000E+00  0.30820058074E+03  0.30820058074E+03  0.00000000000E+00 0. -1.
         21   -1    0    0  502  503 -0.00000000000E+00 -0.00000000000E+00 -0.99508112672E+03  0.99508112672E+03  0.00000000000E+00 0. -1.
    9000007    2    1    2  501    0 -0.24340016339E+03  0.16619279163E+03 -0.51554536562E+02  0.49674415610E+03  0.39652642137E+03 0.  0.
    9000005    1    3    3    0    0 -0.34670228300E+03  0.94328359556E+02 -0.79132015028E+02  0.36791736606E+03  0.99999687468E+00 0.  0.
          4    1    3    3  501    0  0.10330211960E+03  0.71864432076E+02  0.27577478466E+02  0.12882679004E+03  0.00000000000E+00 0.  1.
   -9000007    1    1    2    0  503  0.24340016339E+03 -0.16619279163E+03 -0.63532600941E+03  0.80653755137E+03  0.40000000000E+03 0. -1.
<mgrwt>
<rscale>  2 0.49615427E+03</rscale>
<asrwt>0</asrwt>
<pdfrwt beam="1">  1       21 0.47415473E-01 0.49685378E+03</pdfrwt>
<pdfrwt beam="2">  1       21 0.15308941E+00 0.49685378E+03</pdfrwt>
<totfact> 0.99818397E+02</totfact>
</mgrwt>
</event>
<event>
 6    1  0.8947013E-004  0.7143468E+03  0.7818608E-02  0.9693160E-01
         21   -1    0    0  501  502  0.00000000000E+00  0.00000000000E+00  0.42143073581E+03  0.42143073581E+03  0.00000000000E+00 0.  1.
         21   -1    0    0  502  503 -0.00000000000E+00 -0.00000000000E+00 -0.21854349796E+04  0.21854349796E+04  0.00000000000E+00 0. -1.
    9000007    2    1    2  501    0 -0.38335529675E+03  0.45034048576E+03 -0.11430698344E+02  0.71443820852E+03  0.40065378604E+03 0.  0.
    9000005    1    3    3    0    0 -0.65843029920E+02  0.40930804814E+02 -0.15800312194E+03  0.17600176677E+03  0.99999687468E+00 0.  0.
          4    1    3    3  501    0 -0.31751226683E+03  0.40940968095E+03  0.14657242359E+03  0.53843644175E+03  0.00000000000E+00 0.  1.
   -9000007    1    1    2    0  503  0.38335529675E+03 -0.45034048576E+03 -0.17525735454E+04  0.18924275069E+04  0.40000000000E+03 0. -1.
<mgrwt>
<rscale>  2 0.71425512E+03</rscale>
<asrwt>0</asrwt>
<pdfrwt beam="1">  1       21 0.64835498E-01 0.71434676E+03</pdfrwt>
<pdfrwt beam="2">  1       21 0.33622076E+00 0.71434676E+03</pdfrwt>
<totfact> 0.29831385E+01</totfact>
</mgrwt>
</event>
<event>
 6    1  0.8947013E-004  0.5230017E+03  0.7818608E-02  0.1007981E+00
         21   -1    0    0  501  502  0.00000000000E+00  0.00000000000E+00  0.33634601919E+03  0.33634601919E+03  0.00000000000E+00 0. -1.
         21   -1    0    0  502  503 -0.00000000000E+00 -0.00000000000E+00 -0.15896344132E+04  0.15896344132E+04  0.00000000000E+00 0.  1.
    9000007    2    1    2  501    0 -0.33321166541E+03 -0.43157039469E+02  0.46578060973E+02  0.52507167561E+03  0.40079696199E+03 0.  0.
    9000005    1    3    3    0    0 -0.93938321338E+02  0.17446835173E+03 -0.97917152530E+00  0.19815542572E+03  0.99999687468E+00 0.  0.
          4    1    3    3  501    0 -0.23927334408E+03 -0.21762539120E+03  0.47557232498E+02  0.32691624989E+03  0.00000000000E+00 0.  1.
   -9000007    1    1    2    0  503  0.33321166541E+03  0.43157039469E+02 -0.12998664550E+04  0.14009087568E+04  0.40000000000E+03 0.  1.
<mgrwt>
<rscale>  2 0.52284898E+03</rscale>
<asrwt>0</asrwt>
<pdfrwt beam="1">  1       21 0.51745541E-01 0.52300167E+03</pdfrwt>
<pdfrwt beam="2">  1       21 0.24455914E+00 0.52300167E+03</pdfrwt>
<totfact> 0.19499125E+02</totfact>
</mgrwt>
</event>
<event>
 6    1  0.8947013E-004  0.5979583E+03  0.7818608E-02  0.9909689E-01
         21   -1    0    0  501  502  0.00000000000E+00  0.00000000000E+00  0.25921847053E+03  0.25921847053E+03  0.00000000000E+00 0. -1.
         21   -1    0    0  502  503 -0.00000000000E+00 -0.00000000000E+00 -0.20789486198E+04  0.20789486198E+04  0.00000000000E+00 0. -1.
    9000007    2    1    2  501    0  0.29316852698E+03 -0.33407529331E+03 -0.23156463180E+03  0.64116273038E+03  0.39989171200E+03 0.  0.
    9000005    1    3    3    0    0  0.20113391079E+03 -0.31767483857E+03  0.16203372477E+02  0.37634519049E+03  0.99999687468E+00 0.  0.
          4    1    3    3  501    0  0.92034616194E+02 -0.16400454733E+02 -0.24776800428E+03  0.26481753990E+03  0.00000000000E+00 0.  1.
   -9000007    1    1    2    0  503 -0.29316852698E+03  0.33407529331E+03 -0.15881655175E+04  0.16970043600E+04  0.40000000000E+03 0. -1.
<mgrwt>
<rscale>  2 0.59794016E+03</rscale>
<asrwt>0</asrwt>
<pdfrwt beam="1">  1       21 0.39879764E-01 0.59795827E+03</pdfrwt>
<pdfrwt beam="2">  1       21 0.31983825E+00 0.59795827E+03</pdfrwt>
<totfact> 0.11289845E+02</totfact>
</mgrwt>
</event>
<event>
 6    1  0.8947013E-004  0.6427727E+03  0.7818608E-02  0.9820860E-01
         21   -1    0    0  501  502  0.00000000000E+00  0.00000000000E+00  0.33619913588E+03  0.33619913588E+03  0.00000000000E+00 0.  1.
         21   -1    0    0  502  503 -0.00000000000E+00 -0.00000000000E+00 -0.19819397686E+04  0.19819397686E+04  0.00000000000E+00 0. -1.
    9000007    2    1    2  501    0 -0.85598334359E+02 -0.49581207772E+03 -0.10726170641E+03  0.65078348407E+03  0.39856916365E+03 0.  0.
    9000005    1    3    3    0    0 -0.20615639770E+03 -0.28345849802E+03 -0.18263196558E+03  0.39522729569E+03  0.99999687468E+00 0.  0.
          4    1    3    3  501    0  0.12055806334E+03 -0.21235357970E+03  0.75370259172E+02  0.25555618837E+03  0.00000000000E+00 0.  1.
   -9000007    1    1    2    0  503  0.85598334359E+02  0.49581207772E+03 -0.15384789263E+04  0.16673554204E+04  0.40000000000E+03 0. -1.
<mgrwt>
<rscale>  2 0.64255018E+03</rscale>
<asrwt>0</asrwt>
<pdfrwt beam="1">  1       21 0.51722943E-01 0.64277266E+03</pdfrwt>
<pdfrwt beam="2">  1       21 0.30491382E+00 0.64277266E+03</pdfrwt>
<totfact> 0.78799026E+01</totfact>
</mgrwt>
</event>
<event>
 6    1  0.8947013E-004  0.4714961E+03  0.7818608E-02  0.1021505E+00
         21   -1    0    0  501  502  0.00000000000E+00  0.00000000000E+00  0.94539450856E+03  0.94539450856E+03  0.00000000000E+00 0.  1.
         21   -1    0    0  502  503 -0.00000000000E+00 -0.00000000000E+00 -0.25546512124E+03  0.25546512124E+03  0.00000000000E+00 0. -1.
    9000007    2    1    2  501    0  0.21929183436E+03 -0.11924617855E+03  0.17542213661E+03  0.50298695463E+03  0.39989297418E+03 0.  0.
    9000005    1    3    3    0    0  0.13315793526E+03  0.13174758666E+03  0.45641060720E+01  0.18737740891E+03  0.99999687468E+00 0.  0.
          4    1    3    3  501    0  0.86133899100E+02 -0.25099376520E+03  0.17085803054E+03  0.31560954571E+03  0.00000000000E+00 0.  1.
   -9000007    1    1    2    0  503 -0.21929183436E+03  0.11924617855E+03  0.51450725071E+03  0.69787267517E+03  0.40000000000E+03 0. -1.
<mgrwt>
<rscale>  2 0.47147339E+03</rscale>
<asrwt>0</asrwt>
<pdfrwt beam="1">  1       21 0.14544531E+00 0.47149609E+03</pdfrwt>
<pdfrwt beam="2">  1       21 0.39302327E-01 0.47149609E+03</pdfrwt>
<totfact> 0.17138050E+03</totfact>
</mgrwt>
</event>
<event>
 6    1  0.8947013E-004  0.4209037E+03  0.7818608E-02  0.1036781E+00
         21   -1    0    0  501  502  0.00000000000E+00  0.00000000000E+00  0.13502261686E+03  0.13502261686E+03  0.00000000000E+00 0. -1.
         21   -1    0    0  502  503 -0.00000000000E+00 -0.00000000000E+00 -0.16975407129E+04  0.16975407129E+04  0.00000000000E+00 0. -1.
    9000007    2    1    2  501    0  0.27382213395E+02 -0.12810202774E+03 -0.34435926236E+03  0.54373795013E+03  0.39988466051E+03 0.  0.
    9000005    1    3    3    0    0  0.27827432444E+02 -0.97737765210E+02 -0.43574481158E+03  0.44743890930E+03  0.99999687468E+00 0.  0.
          4    1    3    3  501    0 -0.44521904912E+00 -0.30364262527E+02  0.91385549215E+02  0.96299040826E+02  0.00000000000E+00 0.  1.
   -9000007    1    1    2    0  503 -0.27382213395E+02  0.12810202774E+03 -0.12181588337E+04  0.12888253797E+04  0.40000000000E+03 0.  1.
<mgrwt>
<rscale>  2 0.42087628E+03</rscale>
<asrwt>0</asrwt>
<pdfrwt beam="1">  1       21 0.20772711E-01 0.42090369E+03</pdfrwt>
<pdfrwt beam="2">  1       21 0.26116010E+00 0.42090369E+03</pdfrwt>
<totfact> 0.10221424E+03</totfact>
</mgrwt>
</event>
<event>
 6    1  0.8947013E-004  0.5170307E+03  0.7818608E-02  0.1009455E+00
         21   -1    0    0  501  502  0.00000000000E+00  0.00000000000E+00  0.69285202864E+03  0.69285202864E+03  0.00000000000E+00 0. -1.
         21   -1    0    0  502  503 -0.00000000000E+00 -0.00000000000E+00 -0.41377637028E+03  0.41377637028E+03  0.00000000000E+00 0. -1.
    9000007    2    1    2  501    0 -0.32588705702E+03  0.33441591057E+02  0.28414254519E+03  0.58957290162E+03  0.39942271642E+03 0.  0.
    9000005    1    3    3    0    0 -0.40903221609E+02  0.62355392488E+02  0.29364541000E+03  0.30296847249E+03  0.99999687468E+00 0.  0.
          4    1    3    3  501    0 -0.28498383541E+03 -0.28913801431E+02 -0.95028648168E+01  0.28660442913E+03  0.00000000000E+00 0.  1.
   -9000007    1    1    2    0  503  0.32588705702E+03 -0.33441591057E+02 -0.50668868239E+01  0.51705549730E+03  0.40000000000E+03 0. -1.
<mgrwt>
<rscale>  2 0.51691901E+03</rscale>
<asrwt>0</asrwt>
<pdfrwt beam="1">  1       21 0.10659262E+00 0.51703067E+03</pdfrwt>
<pdfrwt beam="2">  1       21 0.63657903E-01 0.51703067E+03</pdfrwt>
<totfact> 0.13409505E+03</totfact>
</mgrwt>
</event>
<event>
 6    1  0.8947013E-004  0.6113681E+03  0.7818608E-02  0.9884544E-01
         21   -1    0    0  501  502  0.00000000000E+00  0.00000000000E+00  0.35183096684E+03  0.35183096684E+03  0.00000000000E+00 0. -1.
         21   -1    0    0  502  503 -0.00000000000E+00 -0.00000000000E+00 -0.12459923691E+04  0.12459923691E+04  0.00000000000E+00 0. -1.
    9000007    2    1    2  501    0  0.44134304855E+03  0.13779431932E+03 -0.75917460042E+03  0.97173037353E+03  0.39261034625E+03 0.  0.
    9000005    1    3    3    0    0  0.33316888701E+03 -0.93406616870E+02 -0.37260149382E+03  0.50848714491E+03  0.99999687468E+00 0.  0.
          4    1    3    3  501    0  0.10817416155E+03  0.23120093619E+03 -0.38657310659E+03  0.46324322862E+03  0.00000000000E+00 0.  1.
   -9000007    1    1    2    0  503 -0.44134304855E+03 -0.13779431932E+03 -0.13498680187E+03  0.62609296245E+03  0.40000000000E+03 0. -1.
<mgrwt>
<rscale>  2 0.61016227E+03</rscale>
<asrwt>0</asrwt>
<pdfrwt beam="1">  1       21 0.54127840E-01 0.61136811E+03</pdfrwt>
<pdfrwt beam="2">  1       21 0.19169114E+00 0.61136811E+03</pdfrwt>
<totfact> 0.37657640E+02</totfact>
</mgrwt>
</event>
<event>
 6    1  0.8947013E-004  0.4695557E+03  0.7818608E-02  0.1022053E+00
         21   -1    0    0  501  502  0.00000000000E+00  0.00000000000E+00  0.84441520079E+03  0.84441520079E+03  0.00000000000E+00 0. -1.
         21   -1    0    0  502  503 -0.00000000000E+00 -0.00000000000E+00 -0.42337844860E+03  0.42337844860E+03  0.00000000000E+00 0. -1.
    9000007    2    1    2  501    0 -0.23928469180E+03 -0.55902573242E+02  0.60304696265E+03  0.76429590547E+03  0.40012539350E+03 0.  0.
    9000005    1    3    3    0    0 -0.18915467159E+03 -0.56079400973E+02  0.65974529299E+03  0.68861399972E+03  0.99999687468E+00 0.  0.
          4    1    3    3  501    0 -0.50130020215E+02  0.17682773166E+00 -0.56698330336E+02  0.75681905748E+02  0.00000000000E+00 0.  1.
   -9000007    1    1    2    0  503  0.23928469180E+03  0.55902573242E+02 -0.18201021046E+03  0.50349774392E+03  0.40000000000E+03 0. -1.
<mgrwt>
<rscale>  2 0.46952902E+03</rscale>
<asrwt>0</asrwt>
<pdfrwt beam="1">  1       21 0.12991003E+00 0.46955574E+03</pdfrwt>
<pdfrwt beam="2">  1       21 0.65135146E-01 0.46955574E+03</pdfrwt>
<totfact> 0.78596237E+02</totfact>
</mgrwt>
</event>
<event>
 6    1  0.8947013E-004  0.4156112E+03  0.7818608E-02  0.1038528E+00
         21   -1    0    0  501  502  0.00000000000E+00  0.00000000000E+00  0.74536660445E+03  0.74536660445E+03  0.00000000000E+00 0. -1.
         21   -1    0    0  502  503 -0.00000000000E+00 -0.00000000000E+00 -0.23295549614E+03  0.23295549614E+03  0.00000000000E+00 0.  1.
    9000007    2    1    2  501    0 -0.46235058328E+02  0.10293195350E+03  0.29366176297E+03  0.50865845100E+03  0.39970429203E+03 0.  0.
    9000005    1    3    3    0    0 -0.89982437327E+02 -0.10755647820E+03  0.25385910939E+03  0.29001841742E+03  0.99999687468E+00 0.  0.
          4    1    3    3  501    0  0.43747378999E+02  0.21048843170E+03  0.39802653587E+02  0.21864003358E+03  0.00000000000E+00 0.  1.
   -9000007    1    1    2    0  503  0.46235058328E+02 -0.10293195350E+03  0.21874934534E+03  0.46966364960E+03  0.40000000000E+03 0.  1.
<mgrwt>
<rscale>  2 0.41554003E+03</rscale>
<asrwt>0</asrwt>
<pdfrwt beam="1">  1       21 0.11467178E+00 0.41561120E+03</pdfrwt>
<pdfrwt beam="2">  1       21 0.35839308E-01 0.41561120E+03</pdfrwt>
<totfact> 0.39145871E+03</totfact>
</mgrwt>
</event>
<event>
 6    1  0.8947013E-004  0.4114509E+03  0.7818608E-02  0.1040327E+00
         21   -1    0    0  501  502  0.00000000000E+00  0.00000000000E+00  0.97591081992E+03  0.97591081992E+03  0.00000000000E+00 0.  1.
         21   -1    0    0  502  503 -0.00000000000E+00 -0.00000000000E+00 -0.28935827130E+03  0.28935827130E+03  0.00000000000E+00 0.  1.
    9000007    2    1    2  501    0  0.47367875497E+02 -0.52435583280E+02  0.74873889198E+03  0.85434288456E+03  0.40533767405E+03 0.  0.
    9000005    1    3    3    0    0  0.17493942577E+03 -0.94997070992E+02  0.17500620882E+03  0.26505927508E+03  0.99999687468E+00 0.  0.
          4    1    3    3  501    0 -0.12757155027E+03  0.42561487712E+02  0.57373268317E+03  0.58928360948E+03  0.00000000000E+00 0.  1.
   -9000007    1    1    2    0  503 -0.47367875497E+02  0.52435583280E+02 -0.62186343363E+02  0.41092620666E+03  0.40000000000E+03 0.  1.
<mgrwt>
<rscale>  2 0.41013021E+03</rscale>
<asrwt>0</asrwt>
<pdfrwt beam="1">  1       21 0.15014012E+00 0.41145089E+03</pdfrwt>
<pdfrwt beam="2">  1       21 0.44516658E-01 0.41145089E+03</pdfrwt>
<totfact> 0.12458397E+03</totfact>
</mgrwt>
</event>
<event>
 6    1  0.8947013E-004  0.4336218E+03  0.7818608E-02  0.1032752E+00
         21   -1    0    0  501  502  0.00000000000E+00  0.00000000000E+00  0.10437542505E+04  0.10437542505E+04  0.00000000000E+00 0. -1.
         21   -1    0    0  502  503 -0.00000000000E+00 -0.00000000000E+00 -0.30622744577E+03  0.30622744577E+03  0.00000000000E+00 0. -1.
    9000007    2    1    2  501    0 -0.15685433963E+03 -0.58519820569E+02  0.80205398460E+03  0.91158506055E+03  0.39958587957E+03 0.  0.
    9000005    1    3    3    0    0  0.77490193048E+02 -0.15822579810E+03  0.37570648757E+03  0.41496565882E+03  0.99999687468E+00 0.  0.
          4    1    3    3  501    0 -0.23434453268E+03  0.99705977535E+02  0.42634749703E+03  0.49661940173E+03  0.00000000000E+00 0.  1.
   -9000007    1    1    2    0  503  0.15685433963E+03  0.58519820569E+02 -0.64527179873E+02  0.43839663571E+03  0.40000000000E+03 0. -1.
<mgrwt>
<rscale>  2 0.43352626E+03</rscale>
<asrwt>0</asrwt>
<pdfrwt beam="1">  1       21 0.16057758E+00 0.43362179E+03</pdfrwt>
<pdfrwt beam="2">  1       21 0.47111915E-01 0.43362179E+03</pdfrwt>
<totfact> 0.91058832E+02</totfact>
</mgrwt>
</event>
<event>
 6    1  0.8947013E-004  0.4799511E+03  0.7818608E-02  0.1019164E+00
         21   -1    0    0  501  502  0.00000000000E+00  0.00000000000E+00  0.66444484273E+03  0.66444484273E+03  0.00000000000E+00 0. -1.
         21   -1    0    0  502  503 -0.00000000000E+00 -0.00000000000E+00 -0.34657257544E+03  0.34657257544E+03  0.00000000000E+00 0.  1.
    9000007    2    1    2  501    0 -0.84236285900E+02 -0.25107214937E+03  0.16523928996E+03  0.50759929988E+03  0.40027496829E+03 0.  0.
    9000005    1    3    3    0    0  0.20762395400E+02 -0.21557288387E+03  0.27605259517E+03  0.35086860876E+03  0.99999687468E+00 0.  0.
          4    1    3    3  501    0 -0.10499868130E+03 -0.35499265507E+02 -0.11081330521E+03  0.15673069112E+03  0.00000000000E+00 0.  1.
   -9000007    1    1    2    0  503  0.84236285900E+02  0.25107214937E+03  0.15263297734E+03  0.50341811829E+03  0.40000000000E+03 0. -1.
<mgrwt>
<rscale>  2 0.47989373E+03</rscale>
<asrwt>0</asrwt>
<pdfrwt beam="1">  1       21 0.10222228E+00 0.47995107E+03</pdfrwt>
<pdfrwt beam="2">  1       21 0.53318858E-01 0.47995107E+03</pdfrwt>
<totfact> 0.22182779E+03</totfact>
</mgrwt>
</event>
<event>
 6    1  0.8947013E-004  0.4212852E+03  0.7818608E-02  0.1036654E+00
         21   -1    0    0  501  502  0.00000000000E+00  0.00000000000E+00  0.46712920969E+03  0.46712920969E+03  0.00000000000E+00 0.  1.
         21   -1    0    0  502  503 -0.00000000000E+00 -0.00000000000E+00 -0.47288732931E+03  0.47288732931E+03  0.00000000000E+00 0.  1.
    9000007    2    1    2  501    0  0.11531591721E+03 -0.64223040435E+02  0.20556575565E+03  0.46876274332E+03  0.40007358066E+03 0.  0.
    9000005    1    3    3    0    0 -0.11946247639E+03  0.52073428444E+02 -0.82551511874E+01  0.13058358522E+03  0.99999687468E+00 0.  0.
          4    1    3    3  501    0  0.23477839359E+03 -0.11629646888E+03  0.21382090684E+03  0.33817915810E+03  0.00000000000E+00 0.  1.
   -9000007    1    1    2    0  503 -0.11531591721E+03  0.64223040435E+02 -0.21132387528E+03  0.47125379568E+03  0.40000000000E+03 0.  1.
<mgrwt>
<rscale>  2 0.42126774E+03</rscale>
<asrwt>0</asrwt>
<pdfrwt beam="1">  1       21 0.71866033E-01 0.42128521E+03</pdfrwt>
<pdfrwt beam="2">  1       21 0.72751896E-01 0.42128521E+03</pdfrwt>
<totfact> 0.26100975E+03</totfact>
</mgrwt>
</event>
<event>
 6    1  0.8947013E-004  0.4476749E+03  0.7818608E-02  0.1028605E+00
         21   -1    0    0  501  502  0.00000000000E+00  0.00000000000E+00  0.12067508801E+04  0.12067508801E+04  0.00000000000E+00 0. -1.
         21   -1    0    0  502  503 -0.00000000000E+00 -0.00000000000E+00 -0.18056293220E+03  0.18056293220E+03  0.00000000000E+00 0.  1.
    9000007    2    1    2  501    0  0.98509739672E+02 -0.16877565102E+03  0.71703915745E+03  0.84531532170E+03  0.40276972402E+03 0.  0.
    9000005    1    3    3    0    0 -0.36571378988E+02  0.10309623785E+03  0.36206651952E+03  0.37823202478E+03  0.99999687468E+00 0.  0.
          4    1    3    3  501    0  0.13508111866E+03 -0.27187188887E+03  0.35497263793E+03  0.46708329691E+03  0.00000000000E+00 0.  1.
   -9000007    1    1    2    0  503 -0.98509739672E+02  0.16877565102E+03  0.30914879046E+03  0.54199849062E+03  0.40000000000E+03 0. -1.
<mgrwt>
<rscale>  2 0.44705106E+03</rscale>
<asrwt>0</asrwt>
<pdfrwt beam="1">  1       21 0.18565398E+00 0.44767493E+03</pdfrwt>
<pdfrwt beam="2">  1       21 0.27778913E-01 0.44767493E+03</pdfrwt>
<totfact> 0.17477587E+03</totfact>
</mgrwt>
</event>
<event>
 6    1  0.8947013E-004  0.4260668E+03  0.7818608E-02  0.1035121E+00
         21   -1    0    0  501  502  0.00000000000E+00  0.00000000000E+00  0.20584284169E+03  0.20584284169E+03  0.00000000000E+00 0.  1.
         21   -1    0    0  502  503 -0.00000000000E+00 -0.00000000000E+00 -0.89516199791E+03  0.89516199791E+03  0.00000000000E+00 0.  1.
    9000007    2    1    2  501    0 -0.14333362260E+03 -0.31438111680E+02 -0.27689008560E+03  0.50802033684E+03  0.39985454968E+03 0.  0.
    9000005    1    3    3    0    0 -0.24678756025E+02 -0.10310314901E+03 -0.33968271198E+03  0.35584356836E+03  0.99999687468E+00 0.  0.
          4    1    3    3  501    0 -0.11865486657E+03  0.71665037329E+02  0.62792626376E+02  0.15217676848E+03  0.00000000000E+00 0.  1.
   -9000007    1    1    2    0  503  0.14333362260E+03  0.31438111680E+02 -0.41242907061E+03  0.59298450277E+03  0.40000000000E+03 0. -1.
<mgrwt>
<rscale>  2 0.42603262E+03</rscale>
<asrwt>0</asrwt>
<pdfrwt beam="1">  1       21 0.31668129E-01 0.42606676E+03</pdfrwt>
<pdfrwt beam="2">  1       21 0.13771723E+00 0.42606676E+03</pdfrwt>
<totfact> 0.31255441E+03</totfact>
</mgrwt>
</event>
<event>
 6    1  0.8947013E-004  0.4374294E+03  0.7818608E-02  0.1031920E+00
         21   -1    0    0  501  502  0.00000000000E+00  0.00000000000E+00  0.14024798862E+04  0.14024798862E+04  0.00000000000E+00 0.  1.
         21   -1    0    0  502  503 -0.00000000000E+00 -0.00000000000E+00 -0.14680175768E+03  0.14680175768E+03  0.00000000000E+00 0.  1.
    9000007    2    1    2  501    0  0.17699138426E+03 -0.42995746425E+01  0.84507618614E+03  0.94933298647E+03  0.39463264232E+03 0.  0.
    9000005    1    3    3    0    0  0.99789151434E+02 -0.14848081084E+03  0.14464223197E+03  0.23005825609E+03  0.99999687468E+00 0.  0.
          4    1    3    3  501    0  0.77202232822E+02  0.14418123619E+03  0.70043395416E+03  0.71927473038E+03  0.00000000000E+00 0.  1.
   -9000007    1    1    2    0  503 -0.17699138426E+03  0.42995746425E+01  0.41060194243E+03  0.59994865745E+03  0.40000000000E+03 0.  1.
<mgrwt>
<rscale>  2 0.43619851E+03</rscale>
<asrwt>0</asrwt>
<pdfrwt beam="1">  1       21 0.21576613E+00 0.43742935E+03</pdfrwt>
<pdfrwt beam="2">  1       21 0.22584887E-01 0.43742935E+03</pdfrwt>
<totfact> 0.16548687E+03</totfact>
</mgrwt>
</event>
<event>
 6    1  0.8947013E-004  0.4054270E+03  0.7818608E-02  0.1041920E+00
         21   -1    0    0  501  502  0.00000000000E+00  0.00000000000E+00  0.88293339854E+03  0.88293339854E+03  0.00000000000E+00 0. -1.
         21   -1    0    0  502  503 -0.00000000000E+00 -0.00000000000E+00 -0.31933426208E+03  0.31933426208E+03  0.00000000000E+00 0. -1.
    9000007    2    1    2  501    0  0.64112406345E+02 -0.14976751076E+02  0.67003446990E+03  0.78314574050E+03  0.40004544278E+03 0.  0.
    9000005    1    3    3    0    0  0.17900764302E+03  0.51207270202E+02  0.60965181484E+03  0.63744980674E+03  0.99999687468E+00 0.  0.
          4    1    3    3  501    0 -0.11489523667E+03 -0.66184021278E+02  0.60382655062E+02  0.14569593376E+03  0.00000000000E+00 0.  1.
   -9000007    1    1    2    0  503 -0.64112406345E+02  0.14976751076E+02 -0.10643533344E+03  0.41912192012E+03  0.40000000000E+03 0. -1.
<mgrwt>
<rscale>  2 0.40541580E+03</rscale>
<asrwt>0</asrwt>
<pdfrwt beam="1">  1       21 0.13583591E+00 0.40542701E+03</pdfrwt>
<pdfrwt beam="2">  1       21 0.49128348E-01 0.40542701E+03</pdfrwt>
<totfact> 0.13264217E+03</totfact>
</mgrwt>
</event>
<event>
 6    1  0.8947013E-004  0.4225709E+03  0.7818608E-02  0.1036305E+00
         21   -1    0    0  501  502  0.00000000000E+00  0.00000000000E+00  0.34012191931E+03  0.34012191931E+03  0.00000000000E+00 0.  1.
         21   -1    0    0  502  503 -0.00000000000E+00 -0.00000000000E+00 -0.55412148952E+03  0.55412148952E+03  0.00000000000E+00 0.  1.
    9000007    2    1    2  501    0 -0.82864476966E+02  0.10462778003E+03 -0.26859769418E+01  0.42257940915E+03  0.40093970702E+03 0.  0.
    9000005    1    3    3    0    0 -0.13160873251E+03  0.31318143921E+02  0.17682529202E+03  0.22264291703E+03  0.99999687468E+00 0.  0.
          4    1    3    3  501    0  0.48744255547E+02  0.73309636110E+02 -0.17951126896E+03  0.19993649212E+03  0.00000000000E+00 0.  1.
   -9000007    1    1    2    0  503  0.82864476966E+02 -0.10462778003E+03 -0.21131359326E+03  0.47166399968E+03  0.40000000000E+03 0.  1.
<mgrwt>
<rscale>  2 0.42234782E+03</rscale>
<asrwt>0</asrwt>
<pdfrwt beam="1">  1       21 0.52326449E-01 0.42257087E+03</pdfrwt>
<pdfrwt beam="2">  1       21 0.85249459E-01 0.42257087E+03</pdfrwt>
<totfact> 0.36382538E+03</totfact>
</mgrwt>
</event>
<event>
 6    1  0.8947013E-004  0.4408397E+03  0.7818608E-02  0.1030535E+00
         21   -1    0    0  501  502  0.00000000000E+00  0.00000000000E+00  0.22271605284E+04  0.22271605284E+04  0.00000000000E+00 0.  1.
         21   -1    0    0  502  503 -0.00000000000E+00 -0.00000000000E+00 -0.96782392399E+02  0.96782392399E+02  0.00000000000E+00 0.  1.
    9000007    2    1    2  501    0  0.17843909514E+03 -0.49991086796E+02  0.14312697418E+04  0.14974490211E+04  0.39935056970E+03 0.  0.
    9000005    1    3    3    0    0 -0.98523567993E+02  0.61133373959E+02  0.66660392557E+03  0.67661360941E+03  0.99999687468E+00 0.  0.
          4    1    3    3  501    0  0.27696266313E+03 -0.11112446075E+03  0.76466581624E+03  0.82083541168E+03  0.00000000000E+00 0.  1.
   -9000007    1    1    2    0  503 -0.17843909514E+03  0.49991086796E+02  0.69910839424E+03  0.82649389975E+03  0.40000000000E+03 0.  1.
<mgrwt>
<rscale>  2 0.44069231E+03</rscale>
<asrwt>0</asrwt>
<pdfrwt beam="1">  1       21 0.34264004E+00 0.44083968E+03</pdfrwt>
<pdfrwt beam="2">  1       21 0.14889601E-01 0.44083968E+03</pdfrwt>
<totfact> 0.60973759E+02</totfact>
</mgrwt>
</event>
<event>
 6    1  0.8947013E-004  0.5998831E+03  0.7818608E-02  0.9905680E-01
         21   -1    0    0  501  502  0.00000000000E+00  0.00000000000E+00  0.42392081298E+03  0.42392081298E+03  0.00000000000E+00 0. -1.
         21   -1    0    0  502  503 -0.00000000000E+00 -0.00000000000E+00 -0.22463386376E+04  0.22463386376E+04  0.00000000000E+00 0.  1.
    9000007    2    1    2  501    0 -0.28110375617E+03  0.34762106204E+03  0.14190425664E+03  0.61637995961E+03  0.39990962985E+03 0.  0.
    9000005    1    3    3    0    0 -0.27061740977E+02  0.32498374696E+03  0.33516655719E+01  0.32612728691E+03  0.99999687468E+00 0.  0.
          4    1    3    3  501    0 -0.25404201519E+03  0.22637315085E+02  0.13855259107E+03  0.29025267270E+03  0.00000000000E+00 0.  1.
   -9000007    1    1    2    0  503  0.28110375617E+03 -0.34762106204E+03 -0.19643220812E+04  0.20538794909E+04  0.40000000000E+03 0.  1.
<mgrwt>
<rscale>  2 0.59986803E+03</rscale>
<asrwt>0</asrwt>
<pdfrwt beam="1">  1       21 0.65218587E-01 0.59988309E+03</pdfrwt>
<pdfrwt beam="2">  1       21 0.34559056E+00 0.59988309E+03</pdfrwt>
<totfact> 0.27213296E+01</totfact>
</mgrwt>
</event>
<event>
 6    1  0.8947013E-004  0.6174675E+03  0.7818608E-02  0.9869847E-01
         21   -1    0    0  501  502  0.00000000000E+00  0.00000000000E+00  0.87881821419E+03  0.87881821419E+03  0.00000000000E+00 0.  1.
         21   -1    0    0  502  503 -0.00000000000E+00 -0.00000000000E+00 -0.50781869793E+03  0.50781869793E+03  0.00000000000E+00 0. -1.
    9000007    2    1    2  501    0  0.24204865306E+03 -0.40323492594E+03 -0.79199760433E+02  0.62252609249E+03  0.40010020974E+03 0.  0.
    9000005    1    3    3    0    0  0.17942542766E+03 -0.16975144330E+03 -0.23008658721E+03  0.33756462226E+03  0.99999687468E+00 0.  0.
          4    1    3    3  501    0  0.62623225393E+02 -0.23348348264E+03  0.15088682677E+03  0.28496147024E+03  0.00000000000E+00 0.  1.
   -9000007    1    1    2    0  503 -0.24204865306E+03  0.40323492594E+03  0.45019927669E+03  0.76411081963E+03  0.40000000000E+03 0.  1.
<mgrwt>
<rscale>  2 0.61745128E+03</rscale>
<asrwt>0</asrwt>
<pdfrwt beam="1">  1       21 0.13520280E+00 0.61746752E+03</pdfrwt>
<pdfrwt beam="2">  1       21 0.78125954E-01 0.61746752E+03</pdfrwt>
<totfact> 0.44369960E+02</totfact>
</mgrwt>
</event>
<event>
 6    1  0.8947013E-004  0.4248117E+03  0.7818608E-02  0.1035521E+00
         21   -1    0    0  501  502  0.00000000000E+00  0.00000000000E+00  0.43060097393E+03  0.43060097393E+03  0.00000000000E+00 0.  1.
         21   -1    0    0  502  503 -0.00000000000E+00 -0.00000000000E+00 -0.83582468561E+03  0.83582468561E+03  0.00000000000E+00 0. -1.
    9000007    2    1    2  501    0 -0.10671062387E+03  0.94741907717E+02  0.24454952479E+03  0.49017283657E+03  0.40012717141E+03 0.  0.
    9000005    1    3    3    0    0  0.13720880341E+03 -0.21182848369E+02  0.22724755019E+02  0.14068540537E+03  0.99999687468E+00 0.  0.
          4    1    3    3  501    0 -0.24391942728E+03  0.11592475609E+03  0.22182476978E+03  0.34948743120E+03  0.00000000000E+00 0.  1.
   -9000007    1    1    2    0  503  0.10671062387E+03 -0.94741907717E+02 -0.64977323648E+03  0.77625282297E+03  0.40000000000E+03 0. -1.
<mgrwt>
<rscale>  2 0.42478170E+03</rscale>
<asrwt>0</asrwt>
<pdfrwt beam="1">  1       21 0.66246304E-01 0.42481165E+03</pdfrwt>
<pdfrwt beam="2">  1       21 0.12858841E+00 0.42481165E+03</pdfrwt>
<totfact> 0.79253323E+02</totfact>
</mgrwt>
</event>
<event>
 6    1  0.8947013E-004  0.4649764E+03  0.7818608E-02  0.1023435E+00
         21   -1    0    0  501  502  0.00000000000E+00  0.00000000000E+00  0.48679730813E+03  0.48679730813E+03  0.00000000000E+00 0.  1.
         21   -1    0    0  502  503 -0.00000000000E+00 -0.00000000000E+00 -0.50260208308E+03  0.50260208308E+03  0.00000000000E+00 0.  1.
    9000007    2    1    2  501    0  0.16263351597E+03  0.17249175286E+03  0.16250107253E+03  0.49140738267E+03  0.39858694390E+03 0.  0.
    9000005    1    3    3    0    0  0.26649477061E+02 -0.11843163035E+03  0.11418078706E+03  0.16665682651E+03  0.99999687468E+00 0.  0.
          4    1    3    3  501    0  0.13598403891E+03  0.29092338321E+03  0.48320285470E+02  0.32475055616E+03  0.00000000000E+00 0.  1.
   -9000007    1    1    2    0  503 -0.16263351597E+03 -0.17249175286E+03 -0.17830584749E+03  0.49799200854E+03  0.40000000000E+03 0.  1.
<mgrwt>
<rscale>  2 0.46467236E+03</rscale>
<asrwt>0</asrwt>
<pdfrwt beam="1">  1       21 0.74891893E-01 0.46497641E+03</pdfrwt>
<pdfrwt beam="2">  1       21 0.77323398E-01 0.46497641E+03</pdfrwt>
<totfact> 0.20349421E+03</totfact>
</mgrwt>
</event>
<event>
 6    1  0.8947013E-004  0.4790367E+03  0.7818608E-02  0.1019440E+00
         21   -1    0    0  501  502  0.00000000000E+00  0.00000000000E+00  0.54533394799E+03  0.54533394799E+03  0.00000000000E+00 0.  1.
         21   -1    0    0  502  503 -0.00000000000E+00 -0.00000000000E+00 -0.50877856635E+03  0.50877856635E+03  0.00000000000E+00 0.  1.
    9000007    2    1    2  501    0  0.25684264870E+03 -0.54383553841E+02  0.23808540178E+03  0.53494003227E+03  0.40068748728E+03 0.  0.
    9000005    1    3    3    0    0 -0.83480868618E+02 -0.10559751651E+03  0.75035549127E+02  0.15411432297E+03  0.99999687468E+00 0.  0.
          4    1    3    3  501    0  0.34032351732E+03  0.51213962665E+02  0.16304985265E+03  0.38082570930E+03  0.00000000000E+00 0.  1.
   -9000007    1    1    2    0  503 -0.25684264870E+03  0.54383553841E+02 -0.20153002014E+03  0.51917248207E+03  0.40000000000E+03 0.  1.
<mgrwt>
<rscale>  2 0.47889293E+03</rscale>
<asrwt>0</asrwt>
<pdfrwt beam="1">  1       21 0.83897531E-01 0.47903672E+03</pdfrwt>
<pdfrwt beam="2">  1       21 0.78273625E-01 0.47903672E+03</pdfrwt>
<totfact> 0.15144684E+03</totfact>
</mgrwt>
</event>
<event>
 6    1  0.8947013E-004  0.5297134E+03  0.7818608E-02  0.1006330E+00
         21   -1    0    0  501  502  0.00000000000E+00  0.00000000000E+00  0.26235415366E+03  0.26235415366E+03  0.00000000000E+00 0.  1.
         21   -1    0    0  502  503 -0.00000000000E+00 -0.00000000000E+00 -0.14091945019E+04  0.14091945019E+04  0.00000000000E+00 0.  1.
    9000007    2    1    2  501    0  0.19333934078E+03  0.28847209615E+03 -0.16232646986E+03  0.55357556658E+03  0.39937422819E+03 0.  0.
    9000005    1    3    3    0    0  0.22891521704E+02  0.30425176431E+03 -0.21639798256E+03  0.37406181936E+03  0.99999687468E+00 0.  0.
          4    1    3    3  501    0  0.17044781907E+03 -0.15779668158E+02  0.54071512699E+02  0.17951374722E+03  0.00000000000E+00 0.  1.
   -9000007    1    1    2    0  503 -0.19333934078E+03 -0.28847209615E+03 -0.98451387833E+03  0.11179730889E+04  0.40000000000E+03 0.  1.
<mgrwt>
<rscale>  2 0.52959523E+03</rscale>
<asrwt>0</asrwt>
<pdfrwt beam="1">  1       21 0.40362178E-01 0.52971337E+03</pdfrwt>
<pdfrwt beam="2">  1       21 0.21679915E+00 0.52971337E+03</pdfrwt>
<totfact> 0.49194867E+02</totfact>
</mgrwt>
</event>
<event>
 6    1  0.8947013E-004  0.5049460E+03  0.7818608E-02  0.1012646E+00
         21   -1    0    0  501  502  0.00000000000E+00  0.00000000000E+00  0.58633435405E+03  0.58633435405E+03  0.00000000000E+00 0.  1.
         21   -1    0    0  502  503 -0.00000000000E+00 -0.00000000000E+00 -0.70643651987E+03  0.70643651987E+03  0.00000000000E+00 0.  1.
    9000007    2    1    2  501    0  0.16882630601E+03 -0.25322696964E+03  0.34211640573E+03  0.60992958369E+03  0.40291964737E+03 0.  0.
    9000005    1    3    3    0    0  0.96854711082E+02  0.12156556742E+02 -0.65990888102E+02  0.11783214433E+03  0.99999687468E+00 0.  0.
          4    1    3    3  501    0  0.71971594928E+02 -0.26538352638E+03  0.40810729383E+03  0.49209743936E+03  0.00000000000E+00 0.  1.
   -9000007    1    1    2    0  503 -0.16882630601E+03  0.25322696964E+03 -0.46221857155E+03  0.68284129022E+03  0.40000000000E+03 0.  1.
<mgrwt>
<rscale>  2 0.50436333E+03</rscale>
<asrwt>0</asrwt>
<pdfrwt beam="1">  1       21 0.90205285E-01 0.50494600E+03</pdfrwt>
<pdfrwt beam="2">  1       21 0.10868254E+00 0.50494600E+03</pdfrwt>
<totfact> 0.57679305E+02</totfact>
</mgrwt>
</event>
<event>
 6    1  0.8947013E-004  0.4179348E+03  0.7818608E-02  0.1037848E+00
         21   -1    0    0  501  502  0.00000000000E+00  0.00000000000E+00  0.91480340963E+03  0.91480340963E+03  0.00000000000E+00 0. -1.
         21   -1    0    0  502  503 -0.00000000000E+00 -0.00000000000E+00 -0.23346341793E+03  0.23346341793E+03  0.00000000000E+00 0.  1.
    9000007    2    1    2  501    0  0.10484973171E+03  0.60630192273E+02  0.58698975545E+03  0.71981443402E+03  0.39863060591E+03 0.  0.
    9000005    1    3    3    0    0  0.81216204887E+02  0.90051944352E+02  0.64186195880E+03  0.65321757384E+03  0.99999687468E+00 0.  0.
          4    1    3    3  501    0  0.23633526823E+02 -0.29421752078E+02 -0.54872203356E+02  0.66596860185E+02  0.00000000000E+00 0.  1.
   -9000007    1    1    2    0  503 -0.10484973171E+03 -0.60630192273E+02  0.94350236252E+02  0.42845239355E+03  0.40000000000E+03 0.  1.
<mgrwt>
<rscale>  2 0.41760679E+03</rscale>
<asrwt>0</asrwt>
<pdfrwt beam="1">  1       21 0.14073898E+00 0.41793479E+03</pdfrwt>
<pdfrwt beam="2">  1       21 0.35917449E-01 0.41793479E+03</pdfrwt>
<totfact> 0.22978306E+03</totfact>
</mgrwt>
</event>
<event>
 6    1  0.8947013E-004  0.5533035E+03  0.7818608E-02  0.1000738E+00
         21   -1    0    0  501  502  0.00000000000E+00  0.00000000000E+00  0.14176299742E+04  0.14176299742E+04  0.00000000000E+00 0.  1.
         21   -1    0    0  502  503 -0.00000000000E+00 -0.00000000000E+00 -0.30612712440E+03  0.30612712440E+03  0.00000000000E+00 0.  1.
    9000007    2    1    2  501    0  0.15676761723E+03 -0.34850404160E+03  0.87915940026E+02  0.56024460848E+03  0.40014204477E+03 0.  0.
    9000005    1    3    3    0    0 -0.11388215895E+03 -0.16479714268E+03  0.11676513880E+03  0.23186707829E+03  0.99999687468E+00 0.  0.
          4    1    3    3  501    0  0.27064977619E+03 -0.18370689892E+03 -0.28849198770E+02  0.32837753018E+03  0.00000000000E+00 0.  1.
   -9000007    1    1    2    0  503 -0.15676761723E+03  0.34850404160E+03  0.10235869098E+04  0.11635124901E+04  0.40000000000E+03 0.  1.
<mgrwt>
<rscale>  2 0.55327786E+03</rscale>
<asrwt>0</asrwt>
<pdfrwt beam="1">  1       21 0.21809692E+00 0.55330354E+03</pdfrwt>
<pdfrwt beam="2">  1       21 0.47096482E-01 0.55330354E+03</pdfrwt>
<totfact> 0.34586131E+02</totfact>
</mgrwt>
</event>
<event>
 6    1  0.8947013E-004  0.4227500E+03  0.7818608E-02  0.1036179E+00
         21   -1    0    0  501  502  0.00000000000E+00  0.00000000000E+00  0.41338468292E+03  0.41338468292E+03  0.00000000000E+00 0. -1.
         21   -1    0    0  502  503 -0.00000000000E+00 -0.00000000000E+00 -0.44207742795E+03  0.44207742795E+03  0.00000000000E+00 0. -1.
    9000007    2    1    2  501    0 -0.12121138709E+03 -0.63128101254E+02 -0.78027198803E+02  0.42989044139E+03  0.40005023475E+03 0.  0.
    9000005    1    3    3    0    0  0.70670551721E+02 -0.77308510178E+02 -0.18289209769E+03  0.21076397230E+03  0.99999687468E+00 0.  0.
          4    1    3    3  501    0 -0.19188193881E+03  0.14180408925E+02  0.10486489889E+03  0.21912646909E+03  0.00000000000E+00 0.  1.
   -9000007    1    1    2    0  503  0.12121138709E+03  0.63128101254E+02  0.49334453777E+02  0.42557166947E+03  0.40000000000E+03 0. -1.
<mgrwt>
<rscale>  2 0.42273810E+03</rscale>
<asrwt>0</asrwt>
<pdfrwt beam="1">  1       21 0.63597644E-01 0.42274998E+03</pdfrwt>
<pdfrwt beam="2">  1       21 0.68011912E-01 0.42274998E+03</pdfrwt>
<totfact> 0.39892839E+03</totfact>
</mgrwt>
</event>
<event>
 6    1  0.8947013E-004  0.4202148E+03  0.7818608E-02  0.1037025E+00
         21   -1    0    0  501  502  0.00000000000E+00  0.00000000000E+00  0.48691445936E+03  0.48691445936E+03  0.00000000000E+00 0. -1.
         21   -1    0    0  502  503 -0.00000000000E+00 -0.00000000000E+00 -0.37502308179E+03  0.37502308179E+03  0.00000000000E+00 0. -1.
    9000007    2    1    2  501    0  0.11235149240E+03 -0.60531961061E+02 -0.23254525090E+02  0.42085773979E+03  0.40036669198E+03 0.  0.
    9000005    1    3    3    0    0 -0.11564493205E+03  0.90265721217E+02 -0.13572773808E+02  0.14733251819E+03  0.99999687468E+00 0.  0.
          4    1    3    3  501    0  0.22799642445E+03 -0.15079768228E+03 -0.96817512820E+01  0.27352522160E+03  0.00000000000E+00 0.  1.
   -9000007    1    1    2    0  503 -0.11235149240E+03  0.60531961061E+02  0.13514590266E+03  0.44107980135E+03  0.40000000000E+03 0.  1.
<mgrwt>
<rscale>  2 0.42012742E+03</rscale>
<asrwt>0</asrwt>
<pdfrwt beam="1">  1       21 0.74909916E-01 0.42021478E+03</pdfrwt>
<pdfrwt beam="2">  1       21 0.57695859E-01 0.42021478E+03</pdfrwt>
<totfact> 0.39750051E+03</totfact>
</mgrwt>
</event>
<event>
 6    1  0.8947013E-004  0.6456219E+03  0.7818608E-02  0.9815525E-01
         21   -1    0    0  501  502  0.00000000000E+00  0.00000000000E+00  0.46117996999E+03  0.46117996999E+03  0.00000000000E+00 0. -1.
         21   -1    0    0  502  503 -0.00000000000E+00 -0.00000000000E+00 -0.91115124898E+03  0.91115124898E+03  0.00000000000E+00 0.  1.
    9000007    2    1    2  501    0  0.12694721206E+03 -0.48924611058E+03 -0.15778187496E+03  0.66462223980E+03  0.40168426681E+03 0.  0.
    9000005    1    3    3    0    0 -0.81610356162E+02  0.26260210863E+02 -0.46377557647E+02  0.97476801109E+02  0.99999687468E+00 0.  0.
          4    1    3    3  501    0  0.20855756823E+03 -0.51550632144E+03 -0.11140431731E+03  0.56714543869E+03  0.00000000000E+00 0.  1.
   -9000007    1    1    2    0  503 -0.12694721206E+03  0.48924611058E+03 -0.29218940404E+03  0.70770897917E+03  0.40000000000E+03 0.  1.
<mgrwt>
<rscale>  2 0.64536008E+03</rscale>
<asrwt>0</asrwt>
<pdfrwt beam="1">  1       21 0.70950765E-01 0.64562187E+03</pdfrwt>
<pdfrwt beam="2">  1       21 0.14017711E+00 0.64562187E+03</pdfrwt>
<totfact> 0.49813518E+02</totfact>
</mgrwt>
</event>
<event>
 6    1  0.8947013E-004  0.6149301E+03  0.7818608E-02  0.9875383E-01
         21   -1    0    0  501  502  0.00000000000E+00  0.00000000000E+00  0.10075743301E+04  0.10075743301E+04  0.00000000000E+00 0.  1.
         21   -1    0    0  502  503 -0.00000000000E+00 -0.00000000000E+00 -0.70181650593E+03  0.70181650593E+03  0.00000000000E+00 0. -1.
    9000007    2    1    2  501    0 -0.46520131388E+03 -0.41554917895E+02  0.73631306633E+03  0.95871321535E+03  0.39854111959E+03 0.  0.
    9000005    1    3    3    0    0  0.17001199345E+02  0.91647674847E+02  0.22420166182E+03  0.24280799460E+03  0.99999687468E+00 0.  0.
          4    1    3    3  501    0 -0.48220251322E+03 -0.13320259274E+03  0.51211140451E+03  0.71590522075E+03  0.00000000000E+00 0.  1.
   -9000007    1    1    2    0  503  0.46520131388E+03  0.41554917895E+02 -0.43055524216E+03  0.75067762068E+03  0.40000000000E+03 0. -1.
<mgrwt>
<rscale>  2 0.61469301E+03</rscale>
<asrwt>0</asrwt>
<pdfrwt beam="1">  1       21 0.15501143E+00 0.61493014E+03</pdfrwt>
<pdfrwt beam="2">  1       21 0.10797177E+00 0.61493014E+03</pdfrwt>
<totfact> 0.14087512E+02</totfact>
</mgrwt>
</event>
<event>
 6    1  0.8947013E-004  0.4391198E+03  0.7818608E-02  0.1031057E+00
         21   -1    0    0  501  502  0.00000000000E+00  0.00000000000E+00  0.77241129712E+03  0.77241129712E+03  0.00000000000E+00 0. -1.
         21   -1    0    0  502  503 -0.00000000000E+00 -0.00000000000E+00 -0.29891492876E+03  0.29891492876E+03  0.00000000000E+00 0.  1.
    9000007    2    1    2  501    0  0.24422402285E+02  0.17826534067E+03  0.18738301587E+02  0.43951938458E+03  0.40056357805E+03 0.  0.
    9000005    1    3    3    0    0  0.36954812727E+02  0.24426156318E+03  0.15215847367E+03  0.29014232806E+03  0.99999687468E+00 0.  0.
          4    1    3    3  501    0 -0.12532410442E+02 -0.65996222515E+02 -0.13342017208E+03  0.14937705652E+03  0.00000000000E+00 0.  1.
   -9000007    1    1    2    0  503 -0.24422402285E+02 -0.17826534067E+03  0.45475806677E+03  0.63180684130E+03  0.40000000000E+03 0. -1.
<mgrwt>
<rscale>  2 0.43899120E+03</rscale>
<asrwt>0</asrwt>
<pdfrwt beam="1">  1       21 0.11883251E+00 0.43911976E+03</pdfrwt>
<pdfrwt beam="2">  1       21 0.45986913E-01 0.43911976E+03</pdfrwt>
<totfact> 0.21215865E+03</totfact>
</mgrwt>
</event>
<event>
 6    1  0.8947013E-004  0.5326865E+03  0.7818608E-02  0.1005622E+00
         21   -1    0    0  501  502  0.00000000000E+00  0.00000000000E+00  0.17155569556E+04  0.17155569556E+04  0.00000000000E+00 0.  1.
         21   -1    0    0  502  503 -0.00000000000E+00 -0.00000000000E+00 -0.23501068427E+03  0.23501068427E+03  0.00000000000E+00 0. -1.
    9000007    2    1    2  501    0  0.34722679700E+03  0.56466470409E+02  0.12715199414E+04  0.13783378630E+04  0.39912077440E+03 0.  0.
    9000005    1    3    3    0    0  0.35041131909E+03 -0.76879919538E+02  0.64768175506E+03  0.74039939925E+03  0.99999687468E+00 0.  0.
          4    1    3    3  501    0 -0.31845220866E+01  0.13334638995E+03  0.62383818631E+03  0.63793846379E+03  0.00000000000E+00 0.  1.
   -9000007    1    1    2    0  503 -0.34722679700E+03 -0.56466470409E+02  0.20902632992E+03  0.57222977678E+03  0.40000000000E+03 0.  1.
<mgrwt>
<rscale>  2 0.53252145E+03</rscale>
<asrwt>0</asrwt>
<pdfrwt beam="1">  1       21 0.26393183E+00 0.53268650E+03</pdfrwt>
<pdfrwt beam="2">  1       21 0.36155491E-01 0.53268650E+03</pdfrwt>
<totfact> 0.31196882E+02</totfact>
</mgrwt>
</event>
<event>
 6    1  0.8947013E-004  0.4198258E+03  0.7818608E-02  0.1037216E+00
         21   -1    0    0  501  502  0.00000000000E+00  0.00000000000E+00  0.14699930398E+04  0.14699930398E+04  0.00000000000E+00 0. -1.
         21   -1    0    0  502  503 -0.00000000000E+00 -0.00000000000E+00 -0.11981960282E+03  0.11981960282E+03  0.00000000000E+00 0.  1.
    9000007    2    1    2  501    0  0.10649411327E+03 -0.70090611541E+02  0.71011692274E+03  0.82435458929E+03  0.39879914108E+03 0.  0.
    9000005    1    3    3    0    0  0.13895940729E+03  0.46021105584E+02  0.68594426917E+03  0.70139019058E+03  0.99999687468E+00 0.  0.
          4    1    3    3  501    0 -0.32465294021E+02 -0.11611171712E+03  0.24172653571E+02  0.12296439871E+03  0.00000000000E+00 0.  1.
   -9000007    1    1    2    0  503 -0.10649411327E+03  0.70090611541E+02  0.64005651422E+03  0.76545805332E+03  0.40000000000E+03 0.  1.
<mgrwt>
<rscale>  2 0.41953949E+03</rscale>
<asrwt>0</asrwt>
<pdfrwt beam="1">  1       21 0.22615276E+00 0.41982579E+03</pdfrwt>
<pdfrwt beam="2">  1       21 0.18433786E-01 0.41982579E+03</pdfrwt>
<totfact> 0.21096242E+03</totfact>
</mgrwt>
</event>
<event>
 6    1  0.8947013E-004  0.5871813E+03  0.7818608E-02  0.9932397E-01
         21   -1    0    0  501  502  0.00000000000E+00  0.00000000000E+00  0.73107391736E+03  0.73107391736E+03  0.00000000000E+00 0. -1.
         21   -1    0    0  502  503 -0.00000000000E+00 -0.00000000000E+00 -0.63263117108E+03  0.63263117108E+03  0.00000000000E+00 0. -1.
    9000007    2    1    2  501    0  0.32318355992E+03  0.28330466904E+03 -0.29482824226E+03  0.65704306220E+03  0.40009091998E+03 0.  0.
    9000005    1    3    3    0    0  0.21415801783E+03  0.15303616551E+03 -0.38371650823E+03  0.46532040922E+03  0.99999687468E+00 0.  0.
          4    1    3    3  501    0  0.10902554210E+03  0.13026850352E+03  0.88888265971E+02  0.19172265298E+03  0.00000000000E+00 0.  1.
   -9000007    1    1    2    0  503 -0.32318355992E+03 -0.28330466904E+03  0.39327098854E+03  0.70666202624E+03  0.40000000000E+03 0. -1.
<mgrwt>
<rscale>  2 0.58716582E+03</rscale>
<asrwt>0</asrwt>
<pdfrwt beam="1">  1       21 0.11247291E+00 0.58718131E+03</pdfrwt>
<pdfrwt beam="2">  1       21 0.97327873E-01 0.58718131E+03</pdfrwt>
<totfact> 0.42802783E+02</totfact>
</mgrwt>
</event>
<event>
 6    1  0.8947013E-004  0.4632230E+03  0.7818608E-02  0.1023855E+00
         21   -1    0    0  501  502  0.00000000000E+00  0.00000000000E+00  0.24751530148E+03  0.24751530148E+03  0.00000000000E+00 0.  1.
         21   -1    0    0  502  503 -0.00000000000E+00 -0.00000000000E+00 -0.10402741208E+04  0.10402741208E+04  0.00000000000E+00 0.  1.
    9000007    2    1    2  501    0 -0.17520339433E+03  0.15452930866E+03 -0.13342977486E+03  0.48200388910E+03  0.39993587944E+03 0.  0.
    9000005    1    3    3    0    0 -0.18586340655E+03 -0.95257875340E+02 -0.93469109292E+02  0.22881595900E+03  0.99999687468E+00 0.  0.
          4    1    3    3  501    0  0.10660012215E+02  0.24978718400E+03 -0.39960665573E+02  0.25318793010E+03  0.00000000000E+00 0.  1.
   -9000007    1    1    2    0  503  0.17520339433E+03 -0.15452930866E+03 -0.65932904447E+03  0.80578553319E+03  0.40000000000E+03 0.  1.
<mgrwt>
<rscale>  2 0.46320915E+03</rscale>
<asrwt>0</asrwt>
<pdfrwt beam="1">  1       21 0.38079277E-01 0.46322299E+03</pdfrwt>
<pdfrwt beam="2">  1       21 0.16004217E+00 0.46322299E+03</pdfrwt>
<totfact> 0.14119516E+03</totfact>
</mgrwt>
</event>
<event>
 6    1  0.8947013E-004  0.5892339E+03  0.7818608E-02  0.9928317E-01
         21   -1    0    0  501  502  0.00000000000E+00  0.00000000000E+00  0.44942532410E+03  0.44942532410E+03  0.00000000000E+00 0. -1.
         21   -1    0    0  502  503 -0.00000000000E+00 -0.00000000000E+00 -0.80380114868E+03  0.80380114868E+03  0.00000000000E+00 0.  1.
    9000007    2    1    2  501    0 -0.21394697335E+03  0.37606281038E+03 -0.51968656263E+02  0.59092243368E+03  0.39911406469E+03 0.  0.
    9000005    1    3    3    0    0  0.93458377045E+02  0.80586292816E+02  0.76999207070E+02  0.14545960509E+03  0.99999687468E+00 0.  0.
          4    1    3    3  501    0 -0.30740535040E+03  0.29547651756E+03 -0.12896786333E+03  0.44546282859E+03  0.00000000000E+00 0.  1.
   -9000007    1    1    2    0  503  0.21394697335E+03 -0.37606281038E+03 -0.30240716832E+03  0.66230403910E+03  0.40000000000E+03 0.  1.
<mgrwt>
<rscale>  2 0.58908354E+03</rscale>
<asrwt>0</asrwt>
<pdfrwt beam="1">  1       21 0.69142358E-01 0.58923386E+03</pdfrwt>
<pdfrwt beam="2">  1       21 0.12366171E+00 0.58923386E+03</pdfrwt>
<totfact> 0.74773731E+02</totfact>
</mgrwt>
</event>
<event>
 6    1  0.8947013E-004  0.4929135E+03  0.7818608E-02  0.1015723E+00
         21   -1    0    0  501  502  0.00000000000E+00  0.00000000000E+00  0.30950004693E+03  0.30950004693E+03  0.00000000000E+00 0.  1.
         21   -1    0    0  502  503 -0.00000000000E+00 -0.00000000000E+00 -0.86171057836E+03  0.86171057836E+03  0.00000000000E+00 0. -1.
    9000007    2    1    2  501    0  0.27048965651E+03  0.98990221963E+02 -0.98993960429E+02  0.50160702722E+03  0.39855499901E+03 0.  0.
    9000005    1    3    3    0    0  0.15060420357E+03  0.24981352793E+03 -0.10170233976E+03  0.30892198170E+03  0.99999687468E+00 0.  0.
          4    1    3    3  501    0  0.11988545294E+03 -0.15082330597E+03  0.27083793340E+01  0.19268504553E+03  0.00000000000E+00 0.  1.
   -9000007    1    1    2    0  503 -0.27048965651E+03 -0.98990221963E+02 -0.45321657100E+03  0.66960359807E+03  0.40000000000E+03 0. -1.
<mgrwt>
<rscale>  2 0.49262026E+03</rscale>
<asrwt>0</asrwt>
<pdfrwt beam="1">  1       21 0.47615392E-01 0.49291350E+03</pdfrwt>
<pdfrwt beam="2">  1       21 0.13257086E+00 0.49291350E+03</pdfrwt>
<totfact> 0.14571469E+03</totfact>
</mgrwt>
</event>
<event>
 6    1  0.8947013E-004  0.4740166E+03  0.7818608E-02  0.1020793E+00
         21   -1    0    0  501  502  0.00000000000E+00  0.00000000000E+00  0.23413424491E+03  0.23413424491E+03  0.00000000000E+00 0.  1.
         21   -1    0    0  502  503 -0.00000000000E+00 -0.00000000000E+00 -0.24032426237E+04  0.24032426237E+04  0.00000000000E+00 0. -1.
    9000007    2    1    2  501    0 -0.17899127829E+02 -0.25369342506E+03 -0.62523518139E+02  0.47812225003E+03  0.40001370346E+03 0.  0.
    9000005    1    3    3    0    0 -0.13974879444E+03  0.48506464020E+02 -0.26655794344E+02  0.15031345237E+03  0.99999687468E+00 0.  0.
          4    1    3    3  501    0  0.12184966661E+03 -0.30219988908E+03 -0.35867723795E+02  0.32780879766E+03  0.00000000000E+00 0.  1.
   -9000007    1    1    2    0  503  0.17899127829E+02  0.25369342506E+03 -0.21065848606E+04  0.21592546185E+04  0.40000000000E+03 0. -1.
<mgrwt>
<rscale>  2 0.47401367E+03</rscale>
<asrwt>0</asrwt>
<pdfrwt beam="1">  1       21 0.36020655E-01 0.47401656E+03</pdfrwt>
<pdfrwt beam="2">  1       21 0.36972962E+00 0.47401656E+03</pdfrwt>
<totfact> 0.73486911E+01</totfact>
</mgrwt>
</event>
<event>
 6    1  0.8947013E-004  0.4040001E+03  0.7818608E-02  0.1042488E+00
         21   -1    0    0  501  502  0.00000000000E+00  0.00000000000E+00  0.10333576356E+03  0.10333576356E+03  0.00000000000E+00 0. -1.
         21   -1    0    0  502  503 -0.00000000000E+00 -0.00000000000E+00 -0.15971248223E+04  0.15971248223E+04  0.00000000000E+00 0. -1.
    9000007    2    1    2  501    0 -0.52170724468E+02  0.22233399383E+02 -0.64735375905E+03  0.76255396731E+03  0.39900570819E+03 0.  0.
    9000005    1    3    3    0    0  0.93984663644E+02 -0.67281797325E+02 -0.26649107803E+02  0.11862180319E+03  0.99999687468E+00 0.  0.
          4    1    3    3  501    0 -0.14615538811E+03  0.89515196708E+02 -0.62070465124E+03  0.64393216412E+03  0.00000000000E+00 0.  1.
   -9000007    1    1    2    0  503  0.52170724468E+02 -0.22233399383E+02 -0.84643529969E+03  0.93790661854E+03  0.40000000000E+03 0. -1.
<mgrwt>
<rscale>  2 0.40375380E+03</rscale>
<asrwt>0</asrwt>
<pdfrwt beam="1">  1       21 0.15897811E-01 0.40400013E+03</pdfrwt>
<pdfrwt beam="2">  1       21 0.24571149E+00 0.40400013E+03</pdfrwt>
<totfact> 0.21200744E+03</totfact>
</mgrwt>
</event>
<event>
 6    1  0.8947013E-004  0.4134474E+03  0.7818608E-02  0.1039280E+00
         21   -1    0    0  501  502  0.00000000000E+00  0.00000000000E+00  0.43187922067E+03  0.43187922067E+03  0.00000000000E+00 0.  1.
         21   -1    0    0  502  503 -0.00000000000E+00 -0.00000000000E+00 -0.59046939395E+03  0.59046939395E+03  0.00000000000E+00 0.  1.
    9000007    2    1    2  501    0  0.39896871225E+02 -0.96679900664E+02  0.21477707542E+03  0.46526525827E+03  0.39925406059E+03 0.  0.
    9000005    1    3    3    0    0  0.39459684534E+02  0.15296702457E+03  0.11938137442E+03  0.19801234775E+03  0.99999687468E+00 0.  0.
          4    1    3    3  501    0  0.43718669041E+00 -0.24964692524E+03  0.95395701003E+02  0.26725291052E+03  0.00000000000E+00 0.  1.
   -9000007    1    1    2    0  503 -0.39896871225E+02  0.96679900664E+02 -0.37336724870E+03  0.55708335635E+03  0.40000000000E+03 0.  1.
<mgrwt>
<rscale>  2 0.41326689E+03</rscale>
<asrwt>0</asrwt>
<pdfrwt beam="1">  1       21 0.66442957E-01 0.41344741E+03</pdfrwt>
<pdfrwt beam="2">  1       21 0.90841445E-01 0.41344741E+03</pdfrwt>
<totfact> 0.18672693E+03</totfact>
</mgrwt>
</event>
<event>
 6    1  0.8947013E-004  0.4653516E+03  0.7818608E-02  0.1023283E+00
         21   -1    0    0  501  502  0.00000000000E+00  0.00000000000E+00  0.15634786398E+04  0.15634786398E+04  0.00000000000E+00 0. -1.
         21   -1    0    0  502  503 -0.00000000000E+00 -0.00000000000E+00 -0.14313333593E+03  0.14313333593E+03  0.00000000000E+00 0.  1.
    9000007    2    1    2  501    0  0.88529080490E+02  0.21946788338E+03  0.55430895179E+03  0.72374753285E+03  0.40068507253E+03 0.  0.
    9000005    1    3    3    0    0 -0.60730665554E+02  0.64587349092E+00  0.42440156674E+03  0.42872639380E+03  0.99999687468E+00 0.  0.
          4    1    3    3  501    0  0.14925974604E+03  0.21882200988E+03  0.12990738505E+03  0.29502113905E+03  0.00000000000E+00 0.  1.
   -9000007    1    1    2    0  503 -0.88529080490E+02 -0.21946788338E+03  0.86603635205E+03  0.98286444284E+03  0.40000000000E+03 0. -1.
<mgrwt>
<rscale>  2 0.46520406E+03</rscale>
<asrwt>0</asrwt>
<pdfrwt beam="1">  1       21 0.24053516E+00 0.46535156E+03</pdfrwt>
<pdfrwt beam="2">  1       21 0.22020514E-01 0.46535156E+03</pdfrwt>
<totfact> 0.11963206E+03</totfact>
</mgrwt>
</event>
<event>
 6    1  0.8947013E-004  0.5539834E+03  0.7818608E-02  0.1000581E+00
         21   -1    0    0  501  502  0.00000000000E+00  0.00000000000E+00  0.15759169996E+03  0.15759169996E+03  0.00000000000E+00 0. -1.
         21   -1    0    0  502  503 -0.00000000000E+00 -0.00000000000E+00 -0.19938467800E+04  0.19938467800E+04  0.00000000000E+00 0. -1.
    9000007    2    1    2  501    0  0.32078251657E+03  0.20975255334E+03 -0.75336766582E+03  0.93507393408E+03  0.39987856372E+03 0.  0.
    9000005    1    3    3    0    0  0.17614888089E+03 -0.60226742062E+02 -0.51300476368E+03  0.54573856035E+03  0.99999687468E+00 0.  0.
          4    1    3    3  501    0  0.14463363568E+03  0.26997929540E+03 -0.24036290215E+03  0.38933537374E+03  0.00000000000E+00 0.  1.
   -9000007    1    1    2    0  503 -0.32078251657E+03 -0.20975255334E+03 -0.10828874142E+04  0.12163645458E+04  0.40000000000E+03 0. -1.
<mgrwt>
<rscale>  2 0.55396143E+03</rscale>
<asrwt>0</asrwt>
<pdfrwt beam="1">  1       21 0.24244876E-01 0.55398335E+03</pdfrwt>
<pdfrwt beam="2">  1       21 0.30674567E+00 0.55398335E+03</pdfrwt>
<totfact> 0.37602003E+02</totfact>
</mgrwt>
</event>
<event>
 6    1  0.8947013E-004  0.5497786E+03  0.7818608E-02  0.1001558E+00
         21   -1    0    0  501  502  0.00000000000E+00  0.00000000000E+00  0.10215157718E+04  0.10215157718E+04  0.00000000000E+00 0.  1.
         21   -1    0    0  502  503 -0.00000000000E+00 -0.00000000000E+00 -0.34825063949E+03  0.34825063949E+03  0.00000000000E+00 0.  1.
    9000007    2    1    2  501    0  0.36006977285E+03 -0.11119873133E+03  0.60255459649E+03  0.81567672629E+03  0.40030123769E+03 0.  0.
    9000005    1    3    3    0    0  0.39883279216E+03 -0.18747643196E+03  0.39748457488E+03  0.59347282659E+03  0.99999687468E+00 0.  0.
          4    1    3    3  501    0 -0.38763019319E+02  0.76277700622E+02  0.20507002161E+03  0.22220389970E+03  0.00000000000E+00 0.  1.
   -9000007    1    1    2    0  503 -0.36006977285E+03  0.11119873133E+03  0.70710535849E+02  0.55408968502E+03  0.40000000000E+03 0.  1.
<mgrwt>
<rscale>  2 0.54972374E+03</rscale>
<asrwt>0</asrwt>
<pdfrwt beam="1">  1       21 0.15715627E+00 0.54977857E+03</pdfrwt>
<pdfrwt beam="2">  1       21 0.53577022E-01 0.54977857E+03</pdfrwt>
<totfact> 0.70115220E+02</totfact>
</mgrwt>
</event>
<event>
 6    1  0.8947013E-004  0.4555286E+03  0.7818608E-02  0.1026551E+00
         21   -1    0    0  501  502  0.00000000000E+00  0.00000000000E+00  0.19075692211E+04  0.19075692211E+04  0.00000000000E+00 0.  1.
         21   -1    0    0  502  503 -0.00000000000E+00 -0.00000000000E+00 -0.63021716291E+03  0.63021716291E+03  0.00000000000E+00 0.  1.
    9000007    2    1    2  501    0  0.21122357801E+03 -0.53767471087E+02  0.17937694071E+04  0.18491694956E+04  0.39282667501E+03 0.  0.
    9000005    1    3    3    0    0  0.94757995605E+01 -0.53792060737E+02  0.11893932533E+02  0.55909231800E+02  0.99999687468E+00 0.  0.
          4    1    3    3  501    0  0.20174777845E+03  0.24589649131E-01  0.17818754746E+04  0.17932602638E+04  0.00000000000E+00 0.  1.
   -9000007    1    1    2    0  503 -0.21122357801E+03  0.53767471087E+02 -0.51641734889E+03  0.68861688847E+03  0.40000000000E+03 0.  1.
<mgrwt>
<rscale>  2 0.45394899E+03</rscale>
<asrwt>0</asrwt>
<pdfrwt beam="1">  1       21 0.29347219E+00 0.45552864E+03</pdfrwt>
<pdfrwt beam="2">  1       21 0.96956487E-01 0.45552864E+03</pdfrwt>
<totfact> 0.24612517E+01</totfact>
</mgrwt>
</event>
<event>
 6    1  0.8947013E-004  0.4429581E+03  0.7818608E-02  0.1029849E+00
         21   -1    0    0  501  502  0.00000000000E+00  0.00000000000E+00  0.83771159840E+03  0.83771159840E+03  0.00000000000E+00 0.  1.
         21   -1    0    0  502  503 -0.00000000000E+00 -0.00000000000E+00 -0.34664632328E+03  0.34664632328E+03  0.00000000000E+00 0.  1.
    9000007    2    1    2  501    0 -0.12548984732E+03 -0.14280044140E+03  0.58285064540E+03  0.73207015704E+03  0.40009020500E+03 0.  0.
    9000005    1    3    3    0    0 -0.14851225890E+03  0.40050967573E+02  0.40213337943E+02  0.15899082864E+03  0.99999687468E+00 0.  0.
          4    1    3    3  501    0  0.23022411586E+02 -0.18285140898E+03  0.54263730745E+03  0.57307932840E+03  0.00000000000E+00 0.  1.
   -9000007    1    1    2    0  503  0.12548984732E+03  0.14280044140E+03 -0.91785370281E+02  0.45228776464E+03  0.40000000000E+03 0.  1.
<mgrwt>
<rscale>  2 0.44293769E+03</rscale>
<asrwt>0</asrwt>
<pdfrwt beam="1">  1       21 0.12887871E+00 0.44295806E+03</pdfrwt>
<pdfrwt beam="2">  1       21 0.53330204E-01 0.44295806E+03</pdfrwt>
<totfact> 0.12560041E+03</totfact>
</mgrwt>
</event>
<event>
 6    1  0.8947013E-004  0.4575750E+03  0.7818608E-02  0.1025491E+00
         21   -1    0    0  501  502  0.00000000000E+00  0.00000000000E+00  0.15560457795E+04  0.15560457795E+04  0.00000000000E+00 0. -1.
         21   -1    0    0  502  503 -0.00000000000E+00 -0.00000000000E+00 -0.21273714486E+03  0.21273714486E+03  0.00000000000E+00 0. -1.
    9000007    2    1    2  501    0 -0.21043454439E+03  0.71359562694E+02  0.12078186749E+04  0.12915697500E+04  0.39993947399E+03 0.  0.
    9000005    1    3    3    0    0 -0.10668347722E+03  0.14713047501E+03  0.18013719622E+03  0.25588894162E+03  0.99999687468E+00 0.  0.
          4    1    3    3  501    0 -0.10375106717E+03 -0.75770912316E+02  0.10276814787E+04  0.10356808083E+04  0.00000000000E+00 0.  1.
   -9000007    1    1    2    0  503  0.21043454439E+03 -0.71359562694E+02  0.13548995976E+03  0.47721317444E+03  0.40000000000E+03 0. -1.
<mgrwt>
<rscale>  2 0.45756178E+03</rscale>
<asrwt>0</asrwt>
<pdfrwt beam="1">  1       21 0.23939165E+00 0.45757500E+03</pdfrwt>
<pdfrwt beam="2">  1       21 0.32728793E-01 0.45757500E+03</pdfrwt>
<totfact> 0.56065814E+02</totfact>
</mgrwt>
</event>
<event>
 6    1  0.8947013E-004  0.6417634E+03  0.7818608E-02  0.9822559E-01
         21   -1    0    0  501  502  0.00000000000E+00  0.00000000000E+00  0.26769458432E+03  0.26769458432E+03  0.00000000000E+00 0. -1.
         21   -1    0    0  502  503 -0.00000000000E+00 -0.00000000000E+00 -0.19714356179E+04  0.19714356179E+04  0.00000000000E+00 0.  1.
    9000007    2    1    2  501    0 -0.35674860341E+02  0.50058723137E+03 -0.13768847452E+04  0.15189251585E+04  0.39932663753E+03 0.  0.
    9000005    1    3    3    0    0  0.17910920062E+03  0.28099669273E+03 -0.67511054507E+03  0.75287083563E+03  0.99999687468E+00 0.  0.
          4    1    3    3  501    0 -0.21478406096E+03  0.21959053864E+03 -0.70177420017E+03  0.76605432283E+03  0.00000000000E+00 0.  1.
   -9000007    1    1    2    0  503  0.35674860341E+02 -0.50058723137E+03 -0.32685628837E+03  0.72020504380E+03  0.40000000000E+03 0. -1.
<mgrwt>
<rscale>  2 0.64165851E+03</rscale>
<asrwt>0</asrwt>
<pdfrwt beam="1">  1       21 0.41183782E-01 0.64176341E+03</pdfrwt>
<pdfrwt beam="2">  1       21 0.30329779E+00 0.64176341E+03</pdfrwt>
<totfact> 0.13068925E+02</totfact>
</mgrwt>
</event>
<event>
 6    1  0.8947013E-004  0.4235950E+03  0.7818608E-02  0.1036041E+00
         21   -1    0    0  501  502  0.00000000000E+00  0.00000000000E+00  0.80256465245E+03  0.80256465245E+03  0.00000000000E+00 0.  1.
         21   -1    0    0  502  503 -0.00000000000E+00 -0.00000000000E+00 -0.45698112490E+03  0.45698112490E+03  0.00000000000E+00 0.  1.
    9000007    2    1    2  501    0 -0.11230746639E+03 -0.73238451214E+02  0.62391941423E+03  0.75412743225E+03  0.40181576733E+03 0.  0.
    9000005    1    3    3    0    0  0.13912819488E+03  0.13306550754E+02  0.32656224774E+03  0.35521489347E+03  0.99999687468E+00 0.  0.
          4    1    3    3  501    0 -0.25143566128E+03 -0.86545001968E+02  0.29735716650E+03  0.39891253878E+03  0.00000000000E+00 0.  1.
   -9000007    1    1    2    0  503  0.11230746639E+03  0.73238451214E+02 -0.27833588668E+03  0.50541834510E+03  0.40000000000E+03 0.  1.
<mgrwt>
<rscale>  2 0.42316387E+03</rscale>
<asrwt>0</asrwt>
<pdfrwt beam="1">  1       21 0.12347149E+00 0.42359503E+03</pdfrwt>
<pdfrwt beam="2">  1       21 0.70304788E-01 0.42359503E+03</pdfrwt>
<totfact> 0.77055988E+02</totfact>
</mgrwt>
</event>
<event>
 6    1  0.8947013E-004  0.5379278E+03  0.7818608E-02  0.1004354E+00
         21   -1    0    0  501  502  0.00000000000E+00  0.00000000000E+00  0.12661140530E+04  0.12661140530E+04  0.00000000000E+00 0. -1.
         21   -1    0    0  502  503 -0.00000000000E+00 -0.00000000000E+00 -0.68455021973E+03  0.68455021973E+03  0.00000000000E+00 0. -1.
    9000007    2    1    2  501    0  0.21117334513E+03  0.29033837534E+03  0.10870240331E+04  0.12128427716E+04  0.40059429124E+03 0.  0.
    9000005    1    3    3    0    0  0.72867507136E+02  0.46567810878E+02  0.82385398175E+03  0.82838072035E+03  0.99999687468E+00 0.  0.
          4    1    3    3  501    0  0.13830583799E+03  0.24377056447E+03  0.26317005138E+03  0.38446205127E+03  0.00000000000E+00 0.  1.
   -9000007    1    1    2    0  503 -0.21117334513E+03 -0.29033837534E+03 -0.50546019985E+03  0.73782150112E+03  0.40000000000E+03 0. -1.
<mgrwt>
<rscale>  2 0.53781718E+03</rscale>
<asrwt>0</asrwt>
<pdfrwt beam="1">  1       21 0.19478678E+00 0.53792782E+03</pdfrwt>
<pdfrwt beam="2">  1       21 0.10531542E+00 0.53792782E+03</pdfrwt>
<totfact> 0.79723142E+01</totfact>
</mgrwt>
</event>
<event>
 6    1  0.8947013E-004  0.5105572E+03  0.7818608E-02  0.1011080E+00
         21   -1    0    0  501  502  0.00000000000E+00  0.00000000000E+00  0.18060783506E+03  0.18060783506E+03  0.00000000000E+00 0.  1.
         21   -1    0    0  502  503 -0.00000000000E+00 -0.00000000000E+00 -0.16309805312E+04  0.16309805312E+04  0.00000000000E+00 0. -1.
    9000007    2    1    2  501    0  0.15737854911E+03 -0.27550077560E+03 -0.41696047643E+03  0.65893512224E+03  0.39958825226E+03 0.  0.
    9000005    1    3    3    0    0 -0.36296288710E+02  0.85760683700E+02 -0.12411795976E+03  0.15517275331E+03  0.99999687468E+00 0.  0.
          4    1    3    3  501    0  0.19367483782E+03 -0.36126145930E+03 -0.29284251667E+03  0.50376236893E+03  0.00000000000E+00 0.  1.
   -9000007    1    1    2    0  503 -0.15737854911E+03  0.27550077560E+03 -0.10334122197E+04  0.11526532440E+04  0.40000000000E+03 0. -1.
<mgrwt>
<rscale>  2 0.51047658E+03</rscale>
<asrwt>0</asrwt>
<pdfrwt beam="1">  1       21 0.27785821E-01 0.51055723E+03</pdfrwt>
<pdfrwt beam="2">  1       21 0.25092008E+00 0.51055723E+03</pdfrwt>
<totfact> 0.64246548E+02</totfact>
</mgrwt>
</event>
<event>
 6    1  0.8947013E-004  0.1002909E+04  0.7818608E-02  0.9305385E-01
         21   -1    0    0  501  502  0.00000000000E+00  0.00000000000E+00  0.17336621028E+04  0.17336621028E+04  0.00000000000E+00 0.  1.
         21   -1    0    0  502  503 -0.00000000000E+00 -0.00000000000E+00 -0.83644932440E+03  0.83644932440E+03  0.00000000000E+00 0. -1.
    9000007    2    1    2  501    0  0.26906771061E+03  0.87934452380E+03  0.11599973535E+04  0.15334340631E+04  0.40022736180E+03 0.  0.
    9000005    1    3    3    0    0 -0.83115933448E+02  0.85111522091E+02  0.64793712071E+02  0.13546754114E+03  0.99999687468E+00 0.  0.
          4    1    3    3  501    0  0.35218364405E+03  0.79423300171E+03  0.10952036415E+04  0.13979665219E+04  0.00000000000E+00 0.  1.
   -9000007    1    1    2    0  503 -0.26906771061E+03 -0.87934452380E+03 -0.26278457512E+03  0.10366773642E+04  0.40000000000E+03 0. -1.
<mgrwt>
<rscale>  2 0.10028862E+04</rscale>
<asrwt>0</asrwt>
<pdfrwt beam="1">  1       21 0.26671725E+00 0.10029089E+04</pdfrwt>
<pdfrwt beam="2">  1       21 0.12868451E+00 0.10029089E+04</pdfrwt>
<totfact> 0.13772809E+01</totfact>
</mgrwt>
</event>
<event>
 6    1  0.8947013E-004  0.4897322E+03  0.7818608E-02  0.1016706E+00
         21   -1    0    0  501  502  0.00000000000E+00  0.00000000000E+00  0.29872166048E+03  0.29872166048E+03  0.00000000000E+00 0. -1.
         21   -1    0    0  502  503 -0.00000000000E+00 -0.00000000000E+00 -0.84767707378E+03  0.84767707378E+03  0.00000000000E+00 0.  1.
    9000007    2    1    2  501    0  0.20401417025E+02  0.27631180618E+03 -0.41445086091E+03  0.64156618116E+03  0.40382324926E+03 0.  0.
    9000005    1    3    3    0    0 -0.15067967714E+03  0.13562769732E+03 -0.40196115591E+02  0.20667840982E+03  0.99999687468E+00 0.  0.
          4    1    3    3  501    0  0.17108109416E+03  0.14068410886E+03 -0.37425474532E+03  0.43488777134E+03  0.00000000000E+00 0.  1.
   -9000007    1    1    2    0  503 -0.20401417025E+02 -0.27631180618E+03 -0.13450455240E+03  0.50483255310E+03  0.40000000000E+03 0.  1.
<mgrwt>
<rscale>  2 0.48894338E+03</rscale>
<asrwt>0</asrwt>
<pdfrwt beam="1">  1       21 0.45957178E-01 0.48973222E+03</pdfrwt>
<pdfrwt beam="2">  1       21 0.13041186E+00 0.48973222E+03</pdfrwt>
<totfact> 0.16409774E+03</totfact>
</mgrwt>
</event>
<event>
 6    1  0.8947013E-004  0.4079213E+03  0.7818608E-02  0.1041090E+00
         21   -1    0    0  501  502  0.00000000000E+00  0.00000000000E+00  0.39694322314E+03  0.39694322314E+03  0.00000000000E+00 0. -1.
         21   -1    0    0  502  503 -0.00000000000E+00 -0.00000000000E+00 -0.54605279619E+03  0.54605279619E+03  0.00000000000E+00 0.  1.
    9000007    2    1    2  501    0 -0.11965403554E+02 -0.77942910469E+02  0.15288621904E+03  0.43563054297E+03  0.40022681797E+03 0.  0.
    9000005    1    3    3    0    0  0.18239373808E+03 -0.72833641370E+02  0.13919091606E+03  0.24072250853E+03  0.99999687468E+00 0.  0.
          4    1    3    3  501    0 -0.19435914163E+03 -0.51092690988E+01  0.13695302981E+02  0.19490803444E+03  0.00000000000E+00 0.  1.
   -9000007    1    1    2    0  503  0.11965403554E+02  0.77942910469E+02 -0.30199579208E+03  0.50736547637E+03  0.40000000000E+03 0.  1.
<mgrwt>
<rscale>  2 0.40786564E+03</rscale>
<asrwt>0</asrwt>
<pdfrwt beam="1">  1       21 0.61068188E-01 0.40792128E+03</pdfrwt>
<pdfrwt beam="2">  1       21 0.84008122E-01 0.40792128E+03</pdfrwt>
<totfact> 0.27094994E+03</totfact>
</mgrwt>
</event>
<event>
 6    1  0.8947013E-004  0.4074337E+03  0.7818608E-02  0.1041249E+00
         21   -1    0    0  501  502  0.00000000000E+00  0.00000000000E+00  0.21527619891E+03  0.21527619891E+03  0.00000000000E+00 0. -1.
         21   -1    0    0  502  503 -0.00000000000E+00 -0.00000000000E+00 -0.85471304395E+03  0.85471304395E+03  0.00000000000E+00 0. -1.
    9000007    2    1    2  501    0  0.29813025954E+02  0.71507870552E+02 -0.48727967494E+03  0.63507086375E+03  0.39983912804E+03 0.  0.
    9000005    1    3    3    0    0  0.26994216040E+02 -0.10806634082E+03 -0.43351844811E+03  0.44760056587E+03  0.99999687468E+00 0.  0.
          4    1    3    3  501    0  0.28188099135E+01  0.17957421137E+03 -0.53761226827E+02  0.18747029788E+03  0.00000000000E+00 0.  1.
   -9000007    1    1    2    0  503 -0.29813025954E+02 -0.71507870552E+02 -0.15215717010E+03  0.43491837910E+03  0.40000000000E+03 0. -1.
<mgrwt>
<rscale>  2 0.40739418E+03</rscale>
<asrwt>0</asrwt>
<pdfrwt beam="1">  1       21 0.33119415E-01 0.40743367E+03</pdfrwt>
<pdfrwt beam="2">  1       21 0.13149431E+00 0.40743367E+03</pdfrwt>
<totfact> 0.32481450E+03</totfact>
</mgrwt>
</event>
<event>
 6    1  0.8947013E-004  0.4190542E+03  0.7818608E-02  0.1037416E+00
         21   -1    0    0  501  502  0.00000000000E+00  0.00000000000E+00  0.18082719112E+03  0.18082719112E+03  0.00000000000E+00 0. -1.
         21   -1    0    0  502  503 -0.00000000000E+00 -0.00000000000E+00 -0.17394861363E+04  0.17394861363E+04  0.00000000000E+00 0. -1.
    9000007    2    1    2  501    0  0.71054429658E+02  0.10275079569E+03 -0.14044610558E+03  0.44148469759E+03  0.39947111491E+03 0.  0.
    9000005    1    3    3    0    0  0.23380130265E+03  0.10075218947E+03 -0.10189755606E+03  0.27422283772E+03  0.99999687468E+00 0.  0.
          4    1    3    3  501    0 -0.16274687299E+03  0.19986062227E+01 -0.38548549516E+02  0.16726185987E+03  0.00000000000E+00 0.  1.
   -9000007    1    1    2    0  503 -0.71054429658E+02 -0.10275079569E+03 -0.14182128396E+04  0.14788286298E+04  0.40000000000E+03 0. -1.
<mgrwt>
<rscale>  2 0.41892798E+03</rscale>
<asrwt>0</asrwt>
<pdfrwt beam="1">  1       21 0.27819568E-01 0.41905424E+03</pdfrwt>
<pdfrwt beam="2">  1       21 0.26761325E+00 0.41905424E+03</pdfrwt>
<totfact> 0.53128921E+02</totfact>
</mgrwt>
</event>
<event>
 6    1  0.8947013E-004  0.4761523E+03  0.7818608E-02  0.1020240E+00
         21   -1    0    0  501  502  0.00000000000E+00  0.00000000000E+00  0.66971221152E+03  0.66971221152E+03  0.00000000000E+00 0.  1.
         21   -1    0    0  502  503 -0.00000000000E+00 -0.00000000000E+00 -0.34006714978E+03  0.34006714978E+03  0.00000000000E+00 0. -1.
    9000007    2    1    2  501    0  0.18389901669E+03  0.17978895846E+03  0.20329530792E+03  0.51773548295E+03  0.40072201108E+03 0.  0.
    9000005    1    3    3    0    0 -0.24224459548E+00  0.18123639878E+03 -0.64811930857E+02  0.19247929058E+03  0.99999687468E+00 0.  0.
          4    1    3    3  501    0  0.18414126129E+03 -0.14474403267E+01  0.26810723878E+03  0.32525619237E+03  0.00000000000E+00 0.  1.
   -9000007    1    1    2    0  503 -0.18389901669E+03 -0.17978895846E+03  0.12634975382E+03  0.49204387834E+03  0.40000000000E+03 0. -1.
<mgrwt>
<rscale>  2 0.47600040E+03</rscale>
<asrwt>0</asrwt>
<pdfrwt beam="1">  1       21 0.10303265E+00 0.47615234E+03</pdfrwt>
<pdfrwt beam="2">  1       21 0.52318023E-01 0.47615234E+03</pdfrwt>
<totfact> 0.22691196E+03</totfact>
</mgrwt>
</event>
<event>
 6    1  0.8947013E-004  0.6237828E+03  0.7818608E-02  0.9858146E-01
         21   -1    0    0  501  502  0.00000000000E+00  0.00000000000E+00  0.12749019412E+04  0.12749019412E+04  0.00000000000E+00 0.  1.
         21   -1    0    0  502  503 -0.00000000000E+00 -0.00000000000E+00 -0.32937678785E+03  0.32937678785E+03  0.00000000000E+00 0. -1.
    9000007    2    1    2  501    0 -0.47398673949E+03 -0.66644579346E+02  0.69334887037E+03  0.93145051411E+03  0.39719324643E+03 0.  0.
    9000005    1    3    3    0    0 -0.10320506450E+01 -0.13747356094E+03  0.21388129037E+03  0.25425627121E+03  0.99999687468E+00 0.  0.
          4    1    3    3  501    0 -0.47295468885E+03  0.70828981594E+02  0.47946758000E+03  0.67719424290E+03  0.00000000000E+00 0.  1.
   -9000007    1    1    2    0  503  0.47398673949E+03  0.66644579346E+02  0.25217628302E+03  0.67282821499E+03  0.40000000000E+03 0. -1.
<mgrwt>
<rscale>  2 0.62333325E+03</rscale>
<asrwt>0</asrwt>
<pdfrwt beam="1">  1       21 0.19613876E+00 0.62378276E+03</pdfrwt>
<pdfrwt beam="2">  1       21 0.50673353E-01 0.62378276E+03</pdfrwt>
<totfact> 0.40291713E+02</totfact>
</mgrwt>
</event>
<event>
 6    1  0.8947013E-004  0.5732207E+03  0.7818608E-02  0.9962811E-01
         21   -1    0    0  501  502  0.00000000000E+00  0.00000000000E+00  0.17026465141E+03  0.17026465141E+03  0.00000000000E+00 0.  1.
         21   -1    0    0  502  503 -0.00000000000E+00 -0.00000000000E+00 -0.21112457925E+04  0.21112457925E+04  0.00000000000E+00 0. -1.
    9000007    2    1    2  501    0  0.35841989512E+03 -0.20029272804E+03 -0.63444890726E+03  0.85476292730E+03  0.39938984444E+03 0.  0.
    9000005    1    3    3    0    0 -0.55468140223E+02 -0.12660958533E+03 -0.24703461987E+03  0.28307914985E+03  0.99999687468E+00 0.  0.
          4    1    3    3  501    0  0.41388803534E+03 -0.73683142713E+02 -0.38741428739E+03  0.57168377745E+03  0.00000000000E+00 0.  1.
   -9000007    1    1    2    0  503 -0.35841989512E+03  0.20029272804E+03 -0.13065322339E+04  0.14267475166E+04  0.40000000000E+03 0.  1.
<mgrwt>
<rscale>  2 0.57311429E+03</rscale>
<asrwt>0</asrwt>
<pdfrwt beam="1">  1       21 0.26194562E-01 0.57322072E+03</pdfrwt>
<pdfrwt beam="2">  1       21 0.32480705E+00 0.57322072E+03</pdfrwt>
<totfact> 0.24862942E+02</totfact>
</mgrwt>
</event>
<event>
 6    1  0.8947013E-004  0.4061842E+03  0.7818608E-02  0.1042045E+00
         21   -1    0    0  501  502  0.00000000000E+00  0.00000000000E+00  0.11829837414E+04  0.11829837414E+04  0.00000000000E+00 0. -1.
         21   -1    0    0  502  503 -0.00000000000E+00 -0.00000000000E+00 -0.18085760592E+03  0.18085760592E+03  0.00000000000E+00 0. -1.
    9000007    2    1    2  501    0 -0.92749641342E+00 -0.36559713359E+02  0.83546205943E+03  0.92896850711E+03  0.40453449985E+03 0.  0.
    9000005    1    3    3    0    0 -0.40878868704E+01 -0.11816409675E+03  0.83893774889E+03  0.84722901927E+03  0.99999687468E+00 0.  0.
          4    1    3    3  501    0  0.31603904570E+01  0.81604383389E+02 -0.34756894597E+01  0.81739487846E+02  0.00000000000E+00 0.  1.
   -9000007    1    1    2    0  503  0.92749641342E+00  0.36559713359E+02  0.16666407601E+03  0.43487284018E+03  0.40000000000E+03 0. -1.
<mgrwt>
<rscale>  2 0.40505053E+03</rscale>
<asrwt>0</asrwt>
<pdfrwt beam="1">  1       21 0.18199749E+00 0.40618424E+03</pdfrwt>
<pdfrwt beam="2">  1       21 0.27824248E-01 0.40618424E+03</pdfrwt>
<totfact> 0.18814100E+03</totfact>
</mgrwt>
</event>
<event>
 6    1  0.8947013E-004  0.6179683E+03  0.7818608E-02  0.9870245E-01
         21   -1    0    0  501  502  0.00000000000E+00  0.00000000000E+00  0.29028430050E+03  0.29028430050E+03  0.00000000000E+00 0. -1.
         21   -1    0    0  502  503 -0.00000000000E+00 -0.00000000000E+00 -0.13964417817E+04  0.13964417817E+04  0.00000000000E+00 0.  1.
    9000007    2    1    2  501    0  0.10514788205E+02  0.46717266635E+03 -0.34381947204E+03  0.70717511305E+03  0.40438094689E+03 0.  0.
    9000005    1    3    3    0    0  0.12622789925E+03 -0.61122094960E+01 -0.10628851652E+03  0.16513355320E+03  0.99999687468E+00 0.  0.
          4    1    3    3  501    0 -0.11571311105E+03  0.47328487585E+03 -0.23753095553E+03  0.54204155985E+03  0.00000000000E+00 0.  1.
   -9000007    1    1    2    0  503 -0.10514788205E+02 -0.46717266635E+03 -0.76233800913E+03  0.97955096913E+03  0.40000000000E+03 0. -1.
<mgrwt>
<rscale>  2 0.61725259E+03</rscale>
<asrwt>0</asrwt>
<pdfrwt beam="1">  1       21 0.44659123E-01 0.61796829E+03</pdfrwt>
<pdfrwt beam="2">  1       21 0.21483720E+00 0.61796829E+03</pdfrwt>
<totfact> 0.39622259E+02</totfact>
</mgrwt>
</event>
<event>
 6    1  0.8947013E-004  0.4408943E+03  0.7818608E-02  0.1030680E+00
         21   -1    0    0  501  502  0.00000000000E+00  0.00000000000E+00  0.75166301484E+03  0.75166301484E+03  0.00000000000E+00 0.  1.
         21   -1    0    0  502  503 -0.00000000000E+00 -0.00000000000E+00 -0.28353520872E+03  0.28353520872E+03  0.00000000000E+00 0.  1.
    9000007    2    1    2  501    0 -0.46878744234E+02  0.17941619982E+03  0.39167520594E+03  0.58772443718E+03  0.39701732669E+03 0.  0.
    9000005    1    3    3    0    0 -0.50418558657E+02 -0.11826782107E+03  0.59516046001E+02  0.14167733864E+03  0.99999687468E+00 0.  0.
          4    1    3    3  501    0  0.35398144231E+01  0.29768402089E+03  0.33215915994E+03  0.44604709854E+03  0.00000000000E+00 0.  1.
   -9000007    1    1    2    0  503  0.46878744234E+02 -0.17941619982E+03  0.76452600174E+02  0.44747378637E+03  0.40000000000E+03 0.  1.
<mgrwt>
<rscale>  2 0.44021669E+03</rscale>
<asrwt>0</asrwt>
<pdfrwt beam="1">  1       21 0.11564046E+00 0.44089431E+03</pdfrwt>
<pdfrwt beam="2">  1       21 0.43620802E-01 0.44089431E+03</pdfrwt>
<totfact> 0.25355486E+03</totfact>
</mgrwt>
</event>
<event>
 6    1  0.8947013E-004  0.4872653E+03  0.7818608E-02  0.1017179E+00
         21   -1    0    0  501  502  0.00000000000E+00  0.00000000000E+00  0.93368911048E+03  0.93368911048E+03  0.00000000000E+00 0.  1.
         21   -1    0    0  502  503 -0.00000000000E+00 -0.00000000000E+00 -0.35605485629E+03  0.35605485629E+03  0.00000000000E+00 0.  1.
    9000007    2    1    2  501    0  0.54578015400E+02 -0.27226712133E+03  0.63393431614E+03  0.79956252882E+03  0.40039901998E+03 0.  0.
    9000005    1    3    3    0    0  0.11550190280E+03 -0.14894537667E+03  0.63461177723E+03  0.66201096862E+03  0.99999687468E+00 0.  0.
          4    1    3    3  501    0 -0.60923887400E+02 -0.12332174466E+03 -0.67746108797E+00  0.13755156021E+03  0.00000000000E+00 0.  1.
   -9000007    1    1    2    0  503 -0.54578015400E+02  0.27226712133E+03 -0.56300061950E+02  0.49018143794E+03  0.40000000000E+03 0.  1.
<mgrwt>
<rscale>  2 0.48718337E+03</rscale>
<asrwt>0</asrwt>
<pdfrwt beam="1">  1       21 0.14364448E+00 0.48726535E+03</pdfrwt>
<pdfrwt beam="2">  1       21 0.54777670E-01 0.48726535E+03</pdfrwt>
<totfact> 0.87482893E+02</totfact>
</mgrwt>
</event>
<event>
 6    1  0.8947013E-004  0.5278568E+03  0.7818608E-02  0.1006851E+00
         21   -1    0    0  501  502  0.00000000000E+00  0.00000000000E+00  0.53211471767E+03  0.53211471767E+03  0.00000000000E+00 0.  1.
         21   -1    0    0  502  503 -0.00000000000E+00 -0.00000000000E+00 -0.11043192141E+04  0.11043192141E+04  0.00000000000E+00 0.  1.
    9000007    2    1    2  501    0 -0.34354251718E+03  0.24726167862E+02  0.30823364778E+03  0.60988428841E+03  0.39789196919E+03 0.  0.
    9000005    1    3    3    0    0  0.76204119294E+02 -0.27354241436E+02  0.12500253950E+03  0.14893608427E+03  0.99999687468E+00 0.  0.
          4    1    3    3  501    0 -0.41974663648E+03  0.52080409298E+02  0.18323110828E+03  0.46094820415E+03  0.00000000000E+00 0.  1.
   -9000007    1    1    2    0  503  0.34354251718E+03 -0.24726167862E+02 -0.88043814421E+03  0.10265496434E+04  0.40000000000E+03 0.  1.
<mgrwt>
<rscale>  2 0.52745748E+03</rscale>
<asrwt>0</asrwt>
<pdfrwt beam="1">  1       21 0.81863803E-01 0.52785684E+03</pdfrwt>
<pdfrwt beam="2">  1       21 0.16989526E+00 0.52785684E+03</pdfrwt>
<totfact> 0.21949636E+02</totfact>
</mgrwt>
</event>
<event>
 6    1  0.8947013E-004  0.5266828E+03  0.7818608E-02  0.1007139E+00
         21   -1    0    0  501  502  0.00000000000E+00  0.00000000000E+00  0.28315507052E+03  0.28315507052E+03  0.00000000000E+00 0. -1.
         21   -1    0    0  502  503 -0.00000000000E+00 -0.00000000000E+00 -0.12487453957E+04  0.12487453957E+04  0.00000000000E+00 0. -1.
    9000007    2    1    2  501    0  0.19552230579E+03 -0.27832227491E+03 -0.12583583833E+03  0.54150667637E+03  0.40212257034E+03 0.  0.
    9000005    1    3    3    0    0  0.18255553500E+03  0.56660659891E+02 -0.54503999872E+02  0.19876780357E+03  0.99999687468E+00 0.  0.
          4    1    3    3  501    0  0.12966770783E+02 -0.33498293481E+03 -0.71331838458E+02  0.34273887281E+03  0.00000000000E+00 0.  1.
   -9000007    1    1    2    0  503 -0.19552230579E+03  0.27832227491E+03 -0.83975448681E+03  0.99039378981E+03  0.40000000000E+03 0. -1.
<mgrwt>
<rscale>  2 0.52627768E+03</rscale>
<asrwt>0</asrwt>
<pdfrwt beam="1">  1       21 0.43562318E-01 0.52668285E+03</pdfrwt>
<pdfrwt beam="2">  1       21 0.19211468E+00 0.52668285E+03</pdfrwt>
<totfact> 0.61332071E+02</totfact>
</mgrwt>
</event>
<event>
 6    1  0.8947013E-004  0.4144118E+03  0.7818608E-02  0.1039164E+00
         21   -1    0    0  501  502  0.00000000000E+00  0.00000000000E+00  0.19949401278E+03  0.19949401278E+03  0.00000000000E+00 0. -1.
         21   -1    0    0  502  503 -0.00000000000E+00 -0.00000000000E+00 -0.97178784652E+03  0.97178784652E+03  0.00000000000E+00 0. -1.
    9000007    2    1    2  501    0 -0.91758149766E+02 -0.57598353107E+02 -0.18121979115E+03  0.44940537946E+03  0.39672087675E+03 0.  0.
    9000005    1    3    3    0    0 -0.24849989253E+03 -0.16769922396E+02 -0.11678117523E+03  0.27508593160E+03  0.99999687468E+00 0.  0.
          4    1    3    3  501    0  0.15674174276E+03 -0.40828430711E+02 -0.64438615916E+02  0.17431944785E+03  0.00000000000E+00 0.  1.
   -9000007    1    1    2    0  503  0.91758149766E+02  0.57598353107E+02 -0.59107404258E+03  0.72187647984E+03  0.40000000000E+03 0. -1.
<mgrwt>
<rscale>  2 0.41361846E+03</rscale>
<asrwt>0</asrwt>
<pdfrwt beam="1">  1       21 0.30691386E-01 0.41441179E+03</pdfrwt>
<pdfrwt beam="2">  1       21 0.14950583E+00 0.41441179E+03</pdfrwt>
<totfact> 0.26832183E+03</totfact>
</mgrwt>
</event>
<event>
 6    1  0.8947013E-004  0.4141504E+03  0.7818608E-02  0.1038996E+00
         21   -1    0    0  501  502  0.00000000000E+00  0.00000000000E+00  0.82638900591E+03  0.82638900591E+03  0.00000000000E+00 0. -1.
         21   -1    0    0  502  503 -0.00000000000E+00 -0.00000000000E+00 -0.23537463818E+03  0.23537463818E+03  0.00000000000E+00 0. -1.
    9000007    2    1    2  501    0 -0.36443153572E+02 -0.10095748731E+03  0.47816390682E+03  0.63251343243E+03  0.39988998828E+03 0.  0.
    9000005    1    3    3    0    0  0.99696735097E+02 -0.25426392522E+02  0.46502385948E+03  0.47627106810E+03  0.99999687468E+00 0.  0.
          4    1    3    3  501    0 -0.13613988867E+03 -0.75531094790E+02  0.13140047335E+02  0.15624236433E+03  0.00000000000E+00 0.  1.
   -9000007    1    1    2    0  503  0.36443153572E+02  0.10095748731E+03  0.11285046091E+03  0.42925021167E+03  0.40000000000E+03 0. -1.
<mgrwt>
<rscale>  2 0.41412379E+03</rscale>
<asrwt>0</asrwt>
<pdfrwt beam="1">  1       21 0.12713677E+00 0.41415036E+03</pdfrwt>
<pdfrwt beam="2">  1       21 0.36211483E-01 0.41415036E+03</pdfrwt>
<totfact> 0.29517987E+03</totfact>
</mgrwt>
</event>
<event>
 6    1  0.8947013E-004  0.5432408E+03  0.7818608E-02  0.1003084E+00
         21   -1    0    0  501  502  0.00000000000E+00  0.00000000000E+00  0.32440352920E+03  0.32440352920E+03  0.00000000000E+00 0. -1.
         21   -1    0    0  502  503 -0.00000000000E+00 -0.00000000000E+00 -0.10515220247E+04  0.10515220247E+04  0.00000000000E+00 0. -1.
    9000007    2    1    2  501    0  0.28759947455E+03  0.22890412371E+03 -0.11048956398E+03  0.55413373428E+03  0.39968199372E+03 0.  0.
    9000005    1    3    3    0    0  0.27169733530E+03  0.32631657046E+03 -0.28074646073E+02  0.42554803714E+03  0.99999687468E+00 0.  0.
          4    1    3    3  501    0  0.15902139254E+02 -0.97412446753E+02 -0.82414917906E+02  0.12858569714E+03  0.00000000000E+00 0.  1.
   -9000007    1    1    2    0  503 -0.28759947455E+03 -0.22890412371E+03 -0.61662893153E+03  0.82179181963E+03  0.40000000000E+03 0. -1.
<mgrwt>
<rscale>  2 0.54318225E+03</rscale>
<asrwt>0</asrwt>
<pdfrwt beam="1">  1       21 0.49908236E-01 0.54324079E+03</pdfrwt>
<pdfrwt beam="2">  1       21 0.16177262E+00 0.54324079E+03</pdfrwt>
<totfact> 0.75466708E+02</totfact>
</mgrwt>
</event>
<event>
 6    1  0.8947013E-004  0.4385251E+03  0.7818608E-02  0.1031234E+00
         21   -1    0    0  501  502  0.00000000000E+00  0.00000000000E+00  0.27582384114E+04  0.27582384114E+04  0.00000000000E+00 0. -1.
         21   -1    0    0  502  503 -0.00000000000E+00 -0.00000000000E+00 -0.69798250325E+02  0.69798250325E+02  0.00000000000E+00 0.  1.
    9000007    2    1    2  501    0  0.17835996343E+03 -0.10674892922E+02  0.12800226739E+04  0.13530566455E+04  0.40047223438E+03 0.  0.
    9000005    1    3    3    0    0  0.25909880752E+03  0.54749193773E+02  0.11781019162E+04  0.12074993959E+04  0.99999687468E+00 0.  0.
          4    1    3    3  501    0 -0.80738844086E+02 -0.65424086694E+02  0.10192075769E+03  0.14555724961E+03  0.00000000000E+00 0.  1.
   -9000007    1    1    2    0  503 -0.17835996343E+03  0.10674892922E+02  0.14084174872E+04  0.14749800162E+04  0.40000000000E+03 0.  1.
<mgrwt>
<rscale>  2 0.43841723E+03</rscale>
<asrwt>0</asrwt>
<pdfrwt beam="1">  1       21 0.42434429E+00 0.43852507E+03</pdfrwt>
<pdfrwt beam="2">  1       21 0.10738195E-01 0.43852507E+03</pdfrwt>
<totfact> 0.33829698E+02</totfact>
</mgrwt>
</event>
<event>
 6    1  0.8947013E-004  0.5178298E+03  0.7818608E-02  0.1009239E+00
         21   -1    0    0  501  502  0.00000000000E+00  0.00000000000E+00  0.32574196891E+03  0.32574196891E+03  0.00000000000E+00 0.  1.
         21   -1    0    0  502  503 -0.00000000000E+00 -0.00000000000E+00 -0.13653963689E+04  0.13653963689E+04  0.00000000000E+00 0.  1.
    9000007    2    1    2  501    0  0.24861454171E+03  0.21478511005E+03  0.13114065676E+02  0.51799585876E+03  0.40025728866E+03 0.  0.
    9000005    1    3    3    0    0  0.14308483948E+03 -0.92251339492E+02  0.77416034287E+02  0.18702359018E+03  0.99999687468E+00 0.  0.
          4    1    3    3  501    0  0.10552970223E+03  0.30703644954E+03 -0.64301968611E+02  0.33097226858E+03  0.00000000000E+00 0.  1.
   -9000007    1    1    2    0  503 -0.24861454171E+03 -0.21478511005E+03 -0.10527684657E+04  0.11731424791E+04  0.40000000000E+03 0.  1.
<mgrwt>
<rscale>  2 0.51778011E+03</rscale>
<asrwt>0</asrwt>
<pdfrwt beam="1">  1       21 0.50114149E-01 0.51782983E+03</pdfrwt>
<pdfrwt beam="2">  1       21 0.21006098E+00 0.51782983E+03</pdfrwt>
<totfact> 0.34717051E+02</totfact>
</mgrwt>
</event>
<event>
 6    1  0.8947013E-004  0.4319039E+03  0.7818608E-02  0.1033679E+00
         21   -1    0    0  501  502  0.00000000000E+00  0.00000000000E+00  0.40770034118E+03  0.40770034118E+03  0.00000000000E+00 0.  1.
         21   -1    0    0  502  503 -0.00000000000E+00 -0.00000000000E+00 -0.64359035096E+03  0.64359035096E+03  0.00000000000E+00 0.  1.
    9000007    2    1    2  501    0  0.55891066936E+02  0.13736278837E+03  0.16837552802E+03  0.46356373849E+03  0.40564599618E+03 0.  0.
    9000005    1    3    3    0    0  0.14098788202E+03  0.25014968068E+03  0.84796614479E+02  0.29940593087E+03  0.99999687468E+00 0.  0.
          4    1    3    3  501    0 -0.85096815081E+02 -0.11278689231E+03  0.83578913539E+02  0.16415780762E+03  0.00000000000E+00 0.  1.
   -9000007    1    1    2    0  503 -0.55891066936E+02 -0.13736278837E+03 -0.40426553780E+03  0.58772695365E+03  0.40000000000E+03 0.  1.
<mgrwt>
<rscale>  2 0.43057323E+03</rscale>
<asrwt>0</asrwt>
<pdfrwt beam="1">  1       21 0.62723130E-01 0.43190395E+03</pdfrwt>
<pdfrwt beam="2">  1       21 0.99013900E-01 0.43190395E+03</pdfrwt>
<totfact> 0.17136200E+03</totfact>
</mgrwt>
</event>
<event>
 6    1  0.8947013E-004  0.4459626E+03  0.7818608E-02  0.1028960E+00
         21   -1    0    0  501  502  0.00000000000E+00  0.00000000000E+00  0.96275129304E+02  0.96275129304E+02  0.00000000000E+00 0. -1.
         21   -1    0    0  502  503 -0.00000000000E+00 -0.00000000000E+00 -0.24756207206E+04  0.24756207206E+04  0.00000000000E+00 0.  1.
    9000007    2    1    2  501    0  0.15315334142E+03 -0.12420439795E+03 -0.66496572305E+03  0.80046111752E+03  0.39959468136E+03 0.  0.
    9000005    1    3    3    0    0  0.72549158655E+02  0.14157707028E+03 -0.16950240626E+03  0.23246400361E+03  0.99999687468E+00 0.  0.
          4    1    3    3  501    0  0.80604182768E+02 -0.26578146822E+03 -0.49546331679E+03  0.56799711391E+03  0.00000000000E+00 0.  1.
   -9000007    1    1    2    0  503 -0.15315334142E+03  0.12420439795E+03 -0.17143798683E+04  0.17714347324E+04  0.40000000000E+03 0.  1.
<mgrwt>
<rscale>  2 0.44587174E+03</rscale>
<asrwt>0</asrwt>
<pdfrwt beam="1">  1       21 0.14811559E-01 0.44596264E+03</pdfrwt>
<pdfrwt beam="2">  1       21 0.38086471E+00 0.44596264E+03</pdfrwt>
<totfact> 0.35589423E+02</totfact>
</mgrwt>
</event>
<event>
 6    1  0.8947013E-004  0.5228524E+03  0.7818608E-02  0.1007986E+00
         21   -1    0    0  501  502  0.00000000000E+00  0.00000000000E+00  0.12840974118E+04  0.12840974118E+04  0.00000000000E+00 0.  1.
         21   -1    0    0  502  503 -0.00000000000E+00 -0.00000000000E+00 -0.21655393206E+03  0.21655393206E+03  0.00000000000E+00 0. -1.
    9000007    2    1    2  501    0 -0.16401983236E+03  0.29406136700E+03  0.63178102763E+03  0.82001670794E+03  0.39988190938E+03 0.  0.
    9000005    1    3    3    0    0 -0.19430813955E+03  0.19092947526E+03  0.12105513585E+03  0.29810243798E+03  0.99999687468E+00 0.  0.
          4    1    3    3  501    0  0.30288307189E+02  0.10313189173E+03  0.51072589178E+03  0.52191426996E+03  0.00000000000E+00 0.  1.
   -9000007    1    1    2    0  503  0.16401983236E+03 -0.29406136700E+03  0.43576245212E+03  0.68063463594E+03  0.40000000000E+03 0. -1.
<mgrwt>
<rscale>  2 0.52282978E+03</rscale>
<asrwt>0</asrwt>
<pdfrwt beam="1">  1       21 0.19755344E+00 0.52285236E+03</pdfrwt>
<pdfrwt beam="2">  1       21 0.33315990E-01 0.52285236E+03</pdfrwt>
<totfact> 0.97833640E+02</totfact>
</mgrwt>
</event>
<event>
 6    1  0.8947013E-004  0.5140350E+03  0.7818608E-02  0.1010218E+00
         21   -1    0    0  501  502  0.00000000000E+00  0.00000000000E+00  0.37359667659E+03  0.37359667659E+03  0.00000000000E+00 0. -1.
         21   -1    0    0  502  503 -0.00000000000E+00 -0.00000000000E+00 -0.70847720079E+03  0.70847720079E+03  0.00000000000E+00 0.  1.
    9000007    2    1    2  501    0  0.29893179566E+03 -0.11934078261E+03 -0.19667568534E+03  0.55037563747E+03  0.40078619770E+03 0.  0.
    9000005    1    3    3    0    0  0.26750564175E+03 -0.14030488028E+03  0.45319313066E+02  0.30544977972E+03  0.99999687468E+00 0.  0.
          4    1    3    3  501    0  0.31426153901E+02  0.20964097664E+02 -0.24199499841E+03  0.24492585775E+03  0.00000000000E+00 0.  1.
   -9000007    1    1    2    0  503 -0.29893179566E+03  0.11934078261E+03 -0.13820483886E+03  0.53169823992E+03  0.40000000000E+03 0.  1.
<mgrwt>
<rscale>  2 0.51388178E+03</rscale>
<asrwt>0</asrwt>
<pdfrwt beam="1">  1       21 0.57476413E-01 0.51403503E+03</pdfrwt>
<pdfrwt beam="2">  1       21 0.10899649E+00 0.51403503E+03</pdfrwt>
<totfact> 0.15903246E+03</totfact>
</mgrwt>
</event>
<event>
 6    1  0.8947013E-004  0.4030441E+03  0.7818608E-02  0.1042756E+00
         21   -1    0    0  501  502  0.00000000000E+00  0.00000000000E+00  0.63102262756E+03  0.63102262756E+03  0.00000000000E+00 0.  1.
         21   -1    0    0  502  503 -0.00000000000E+00 -0.00000000000E+00 -0.40923772853E+03  0.40923772853E+03  0.00000000000E+00 0.  1.
    9000007    2    1    2  501    0  0.44511443476E+02  0.14901254691E+02  0.42790689630E+03  0.58783401540E+03  0.40030138866E+03 0.  0.
    9000005    1    3    3    0    0  0.14652895570E+03 -0.13722075295E+03  0.13345820632E+03  0.24106505912E+03  0.99999687468E+00 0.  0.
          4    1    3    3  501    0 -0.10201751222E+03  0.15212200764E+03  0.29444868998E+03  0.34676895628E+03  0.00000000000E+00 0.  1.
   -9000007    1    1    2    0  503 -0.44511443476E+02 -0.14901254691E+02 -0.20612199728E+03  0.45242634069E+03  0.40000000000E+03 0.  1.
<mgrwt>
<rscale>  2 0.40296921E+03</rscale>
<asrwt>0</asrwt>
<pdfrwt beam="1">  1       21 0.97080404E-01 0.40304406E+03</pdfrwt>
<pdfrwt beam="2">  1       21 0.62959651E-01 0.40304406E+03</pdfrwt>
<totfact> 0.18036077E+03</totfact>
</mgrwt>
</event>
<event>
 6    1  0.8947013E-004  0.5031298E+03  0.7818608E-02  0.1012971E+00
         21   -1    0    0  501  502  0.00000000000E+00  0.00000000000E+00  0.30094661000E+03  0.30094661000E+03  0.00000000000E+00 0. -1.
         21   -1    0    0  502  503 -0.00000000000E+00 -0.00000000000E+00 -0.20511955313E+04  0.20511955313E+04  0.00000000000E+00 0. -1.
    9000007    2    1    2  501    0  0.19592122931E+03 -0.23399663534E+03  0.28260268870E+02  0.50383629730E+03  0.39989100794E+03 0.  0.
    9000005    1    3    3    0    0  0.22664772529E+03  0.15654005929E+02  0.90768904027E+02  0.24465124813E+03  0.99999687468E+00 0.  0.
          4    1    3    3  501    0 -0.30726495981E+02 -0.24965064127E+03 -0.62508635158E+02  0.25918504916E+03  0.00000000000E+00 0.  1.
   -9000007    1    1    2    0  503 -0.19592122931E+03  0.23399663534E+03 -0.17785091901E+04  0.18483058440E+04  0.40000000000E+03 0. -1.
<mgrwt>
<rscale>  2 0.50310809E+03</rscale>
<asrwt>0</asrwt>
<pdfrwt beam="1">  1       21 0.46299477E-01 0.50312976E+03</pdfrwt>
<pdfrwt beam="2">  1       21 0.31556855E+00 0.50312976E+03</pdfrwt>
<totfact> 0.92226228E+01</totfact>
</mgrwt>
</event>
<event>
 6    1  0.8947013E-004  0.6497322E+03  0.7818608E-02  0.9807935E-01
         21   -1    0    0  501  502  0.00000000000E+00  0.00000000000E+00  0.25713969690E+03  0.25713969690E+03  0.00000000000E+00 0.  1.
         21   -1    0    0  502  503 -0.00000000000E+00 -0.00000000000E+00 -0.16537783609E+04  0.16537783609E+04  0.00000000000E+00 0. -1.
    9000007    2    1    2  501    0  0.50881032982E+03 -0.57131161324E+02 -0.79027010369E+03  0.10221915801E+04  0.39773969910E+03 0.  0.
    9000005    1    3    3    0    0  0.38154759844E+02  0.12840064444E+02 -0.41297028484E+03  0.41492904105E+03  0.99999687468E+00 0.  0.
          4    1    3    3  501    0  0.47065556997E+03 -0.69971225768E+02 -0.37729981885E+03  0.60726253901E+03  0.00000000000E+00 0.  1.
   -9000007    1    1    2    0  503 -0.50881032982E+03  0.57131161324E+02 -0.60636856033E+03  0.88872647777E+03  0.40000000000E+03 0.  1.
<mgrwt>
<rscale>  2 0.64938464E+03</rscale>
<asrwt>0</asrwt>
<pdfrwt beam="1">  1       21 0.39559955E-01 0.64973219E+03</pdfrwt>
<pdfrwt beam="2">  1       21 0.25442743E+00 0.64973219E+03</pdfrwt>
<totfact> 0.28264439E+02</totfact>
</mgrwt>
</event>
<event>
 6    1  0.8947013E-004  0.4084984E+03  0.7818608E-02  0.1040891E+00
         21   -1    0    0  501  502  0.00000000000E+00  0.00000000000E+00  0.10476634855E+04  0.10476634855E+04  0.00000000000E+00 0.  1.
         21   -1    0    0  502  503 -0.00000000000E+00 -0.00000000000E+00 -0.17946801094E+03  0.17946801094E+03  0.00000000000E+00 0. -1.
    9000007    2    1    2  501    0  0.71029010946E+02  0.42729720682E+02  0.64015935885E+03  0.75929453820E+03  0.39981650989E+03 0.  0.
    9000005    1    3    3    0    0  0.12704169190E+03  0.13029142625E+03  0.62894954656E+03  0.65474726372E+03  0.99999687468E+00 0.  0.
          4    1    3    3  501    0 -0.56012680954E+02 -0.87561705566E+02  0.11209812294E+02  0.10454727448E+03  0.00000000000E+00 0.  1.
   -9000007    1    1    2    0  503 -0.71029010946E+02 -0.42729720682E+02  0.22803611570E+03  0.46783695823E+03  0.40000000000E+03 0. -1.
<mgrwt>
<rscale>  2 0.40845348E+03</rscale>
<asrwt>0</asrwt>
<pdfrwt beam="1">  1       21 0.16117899E+00 0.40849841E+03</pdfrwt>
<pdfrwt beam="2">  1       21 0.27610464E-01 0.40849841E+03</pdfrwt>
<totfact> 0.26975392E+03</totfact>
</mgrwt>
</event>
<event>
 6    1  0.8947013E-004  0.4492553E+03  0.7818608E-02  0.1027959E+00
         21   -1    0    0  501  502  0.00000000000E+00  0.00000000000E+00  0.19737773930E+03  0.19737773930E+03  0.00000000000E+00 0.  1.
         21   -1    0    0  502  503 -0.00000000000E+00 -0.00000000000E+00 -0.11013527132E+04  0.11013527132E+04  0.00000000000E+00 0.  1.
    9000007    2    1    2  501    0  0.15452158729E+03  0.13399043421E+03 -0.27771540877E+03  0.52799612712E+03  0.39977956999E+03 0.  0.
    9000005    1    3    3    0    0 -0.30442286399E+02 -0.12378270964E+03 -0.11382902198E+03  0.17090037520E+03  0.99999687468E+00 0.  0.
          4    1    3    3  501    0  0.18496387369E+03  0.25777314385E+03 -0.16388638679E+03  0.35709575192E+03  0.00000000000E+00 0.  1.
   -9000007    1    1    2    0  503 -0.15452158729E+03 -0.13399043421E+03 -0.62625956513E+03  0.77073432538E+03  0.40000000000E+03 0.  1.
<mgrwt>
<rscale>  2 0.44920627E+03</rscale>
<asrwt>0</asrwt>
<pdfrwt beam="1">  1       21 0.30365806E-01 0.44925534E+03</pdfrwt>
<pdfrwt beam="2">  1       21 0.16943888E+00 0.44925534E+03</pdfrwt>
<totfact> 0.19091925E+03</totfact>
</mgrwt>
</event>
<event>
 6    1  0.8947013E-004  0.4096200E+03  0.7818608E-02  0.1040499E+00
         21   -1    0    0  501  502  0.00000000000E+00  0.00000000000E+00  0.36673052856E+03  0.36673052856E+03  0.00000000000E+00 0.  1.
         21   -1    0    0  502  503 -0.00000000000E+00 -0.00000000000E+00 -0.51747725208E+03  0.51747725208E+03  0.00000000000E+00 0.  1.
    9000007    2    1    2  501    0  0.66762315659E+02 -0.57717719774E+02 -0.22585527549E+03  0.46775870026E+03  0.39999881779E+03 0.  0.
    9000005    1    3    3    0    0 -0.74843653345E+01 -0.22528738848E+03 -0.10890577078E+03  0.25034354402E+03  0.99999687468E+00 0.  0.
          4    1    3    3  501    0  0.74246680994E+02  0.16756966871E+03 -0.11694950471E+03  0.21741515624E+03  0.00000000000E+00 0.  1.
   -9000007    1    1    2    0  503 -0.66762315659E+02  0.57717719774E+02  0.75108551970E+02  0.41644908038E+03  0.40000000000E+03 0.  1.
<mgrwt>
<rscale>  2 0.40961971E+03</rscale>
<asrwt>0</asrwt>
<pdfrwt beam="1">  1       21 0.56420082E-01 0.40962000E+03</pdfrwt>
<pdfrwt beam="2">  1       21 0.79611885E-01 0.40962000E+03</pdfrwt>
<totfact> 0.36438110E+03</totfact>
</mgrwt>
</event>
<event>
 6    1  0.8947013E-004  0.4625541E+03  0.7818608E-02  0.1024388E+00
         21   -1    0    0  501  502  0.00000000000E+00  0.00000000000E+00  0.10170232651E+04  0.10170232651E+04  0.00000000000E+00 0.  1.
         21   -1    0    0  502  503 -0.00000000000E+00 -0.00000000000E+00 -0.37974847547E+03  0.37974847547E+03  0.00000000000E+00 0. -1.
    9000007    2    1    2  501    0 -0.60864572237E+02  0.21415060760E+03  0.78892286330E+03  0.91452479440E+03  0.40545201498E+03 0.  0.
    9000005    1    3    3    0    0 -0.23060304939E+03  0.14026276115E+03  0.38487135687E+03  0.47008336482E+03  0.99999687468E+00 0.  0.
          4    1    3    3  501    0  0.16973847715E+03  0.73887846456E+02  0.40405150643E+03  0.44444142958E+03  0.00000000000E+00 0.  1.
   -9000007    1    1    2    0  503  0.60864572237E+02 -0.21415060760E+03 -0.15164807362E+03  0.48224694620E+03  0.40000000000E+03 0. -1.
<mgrwt>
<rscale>  2 0.46135662E+03</rscale>
<asrwt>0</asrwt>
<pdfrwt beam="1">  1       21 0.15646512E+00 0.46255412E+03</pdfrwt>
<pdfrwt beam="2">  1       21 0.58422843E-01 0.46255412E+03</pdfrwt>
<totfact> 0.60906262E+02</totfact>
</mgrwt>
</event>
<event>
 6    1  0.8947013E-004  0.4758193E+03  0.7818608E-02  0.1020300E+00
         21   -1    0    0  501  502  0.00000000000E+00  0.00000000000E+00  0.31512249810E+03  0.31512249810E+03  0.00000000000E+00 0.  1.
         21   -1    0    0  502  503 -0.00000000000E+00 -0.00000000000E+00 -0.86080135610E+03  0.86080135610E+03  0.00000000000E+00 0.  1.
    9000007    2    1    2  501    0 -0.17387456844E+03 -0.18985683233E+03 -0.33615108982E+02  0.47700521415E+03  0.40015748955E+03 0.  0.
    9000005    1    3    3    0    0  0.91266848001E+02  0.39008034965E+02  0.58005201703E+02  0.11496463697E+03  0.99999687468E+00 0.  0.
          4    1    3    3  501    0 -0.26514141644E+03 -0.22886486730E+03 -0.91620310685E+02  0.36204057718E+03  0.00000000000E+00 0.  1.
   -9000007    1    1    2    0  503  0.17387456844E+03  0.18985683233E+03 -0.51206374902E+03  0.69891864004E+03  0.40000000000E+03 0.  1.
<mgrwt>
<rscale>  2 0.47578618E+03</rscale>
<asrwt>0</asrwt>
<pdfrwt beam="1">  1       21 0.48480385E-01 0.47581929E+03</pdfrwt>
<pdfrwt beam="2">  1       21 0.13243098E+00 0.47581929E+03</pdfrwt>
<totfact> 0.14156154E+03</totfact>
</mgrwt>
</event>
<event>
 6    1  0.8947013E-004  0.5138599E+03  0.7818608E-02  0.1010233E+00
         21   -1    0    0  501  502  0.00000000000E+00  0.00000000000E+00  0.14623261145E+03  0.14623261145E+03  0.00000000000E+00 0.  1.
         21   -1    0    0  502  503 -0.00000000000E+00 -0.00000000000E+00 -0.19120035964E+04  0.19120035964E+04  0.00000000000E+00 0.  1.
    9000007    2    1    2  501    0 -0.63839923540E+02  0.31619046774E+03 -0.11260429218E+04  0.12376852086E+04  0.39980003241E+03 0.  0.
    9000005    1    3    3    0    0 -0.92071989549E+01 -0.26463100642E+02  0.23708330753E+02  0.36717205082E+02  0.99999687468E+00 0.  0.
          4    1    3    3  501    0 -0.54632724585E+02  0.34265356838E+03 -0.11497512526E+04  0.12009680035E+04  0.00000000000E+00 0.  1.
   -9000007    1    1    2    0  503  0.63839923540E+02 -0.31619046774E+03 -0.63972806309E+03  0.82055099929E+03  0.40000000000E+03 0.  1.
<mgrwt>
<rscale>  2 0.51382094E+03</rscale>
<asrwt>0</asrwt>
<pdfrwt beam="1">  1       21 0.22497326E-01 0.51385985E+03</pdfrwt>
<pdfrwt beam="2">  1       21 0.29415438E+00 0.51385985E+03</pdfrwt>
<totfact> 0.52814110E+02</totfact>
</mgrwt>
</event>
<event>
 6    1  0.8947013E-004  0.4766703E+03  0.7818608E-02  0.1020089E+00
         21   -1    0    0  501  502  0.00000000000E+00  0.00000000000E+00  0.11450143866E+04  0.11450143866E+04  0.00000000000E+00 0. -1.
         21   -1    0    0  502  503 -0.00000000000E+00 -0.00000000000E+00 -0.22959957168E+03  0.22959957168E+03  0.00000000000E+00 0. -1.
    9000007    2    1    2  501    0  0.14960323667E+02 -0.25790003040E+03  0.71196885286E+03  0.85680463384E+03  0.40059742407E+03 0.  0.
    9000005    1    3    3    0    0 -0.57223521757E+02 -0.10508294828E+03  0.67274703035E+03  0.68330558633E+03  0.99999687468E+00 0.  0.
          4    1    3    3  501    0  0.72183845423E+02 -0.15281708213E+03  0.39221822508E+02  0.17349904752E+03  0.00000000000E+00 0.  1.
   -9000007    1    1    2    0  503 -0.14960323667E+02  0.25790003040E+03  0.20344596202E+03  0.51780932439E+03  0.40000000000E+03 0. -1.
<mgrwt>
<rscale>  2 0.47654471E+03</rscale>
<asrwt>0</asrwt>
<pdfrwt beam="1">  1       21 0.17615606E+00 0.47667026E+03</pdfrwt>
<pdfrwt beam="2">  1       21 0.35323012E-01 0.47667026E+03</pdfrwt>
<totfact> 0.12460846E+03</totfact>
</mgrwt>
</event>
<event>
 6    1  0.8947013E-004  0.5131636E+03  0.7818608E-02  0.1010400E+00
         21   -1    0    0  501  502  0.00000000000E+00  0.00000000000E+00  0.18964536849E+04  0.18964536849E+04  0.00000000000E+00 0. -1.
         21   -1    0    0  502  503 -0.00000000000E+00 -0.00000000000E+00 -0.15285751185E+03  0.15285751185E+03  0.00000000000E+00 0.  1.
    9000007    2    1    2  501    0  0.22679751394E+03  0.22781512472E+03  0.56166633103E+03  0.76078684897E+03  0.39998839830E+03 0.  0.
    9000005    1    3    3    0    0 -0.10368629876E+03 -0.12600917201E+02  0.11708147634E+03  0.15690348550E+03  0.99999687468E+00 0.  0.
          4    1    3    3  501    0  0.33048381269E+03  0.24041604192E+03  0.44458485469E+03  0.60388336348E+03  0.00000000000E+00 0.  1.
   -9000007    1    1    2    0  503 -0.22679751394E+03 -0.22781512472E+03  0.11819298421E+04  0.12885243478E+04  0.40000000000E+03 0. -1.
<mgrwt>
<rscale>  2 0.51316130E+03</rscale>
<asrwt>0</asrwt>
<pdfrwt beam="1">  1       21 0.29176209E+00 0.51316356E+03</pdfrwt>
<pdfrwt beam="2">  1       21 0.23516542E-01 0.51316356E+03</pdfrwt>
<totfact> 0.50134870E+02</totfact>
</mgrwt>
</event>
<event>
 6    1  0.8947013E-004  0.4002292E+03  0.7818608E-02  0.1043742E+00
         21   -1    0    0  501  502  0.00000000000E+00  0.00000000000E+00  0.22673931420E+03  0.22673931420E+03  0.00000000000E+00 0.  1.
         21   -1    0    0  502  503 -0.00000000000E+00 -0.00000000000E+00 -0.10000666958E+04  0.10000666958E+04  0.00000000000E+00 0.  1.
    9000007    2    1    2  501    0  0.86420484533E+01  0.10426382236E+02 -0.53653842331E+02  0.40332960016E+03  0.39951550298E+03 0.  0.
    9000005    1    3    3    0    0  0.11773772682E+03  0.53406955288E+02 -0.18599424187E+03  0.22651563564E+03  0.99999687468E+00 0.  0.
          4    1    3    3  501    0 -0.10909567837E+03 -0.42980573052E+02  0.13234039954E+03  0.17681396451E+03  0.00000000000E+00 0.  1.
   -9000007    1    1    2    0  503 -0.86420484533E+01 -0.10426382236E+02 -0.71967353929E+03  0.82347640987E+03  0.40000000000E+03 0.  1.
<mgrwt>
<rscale>  2 0.40010807E+03</rscale>
<asrwt>0</asrwt>
<pdfrwt beam="1">  1       21 0.34882971E-01 0.40022918E+03</pdfrwt>
<pdfrwt beam="2">  1       21 0.15385642E+00 0.40022918E+03</pdfrwt>
<totfact> 0.19327150E+03</totfact>
</mgrwt>
</event>
<event>
 6    1  0.8947013E-004  0.4421047E+03  0.7818608E-02  0.1030205E+00
         21   -1    0    0  501  502  0.00000000000E+00  0.00000000000E+00  0.52737415550E+03  0.52737415550E+03  0.00000000000E+00 0. -1.
         21   -1    0    0  502  503 -0.00000000000E+00 -0.00000000000E+00 -0.49495304794E+03  0.49495304794E+03  0.00000000000E+00 0. -1.
    9000007    2    1    2  501    0 -0.62163497576E+02  0.17774212295E+03  0.27353826059E+03  0.51874598439E+03  0.39851932652E+03 0.  0.
    9000005    1    3    3    0    0 -0.57587643402E+02  0.10162904645E+03  0.37445989527E+03  0.39225758491E+03  0.99999687468E+00 0.  0.
          4    1    3    3  501    0 -0.45758541735E+01  0.76113076501E+02 -0.10092163469E+03  0.12648839948E+03  0.00000000000E+00 0.  1.
   -9000007    1    1    2    0  503  0.62163497576E+02 -0.17774212295E+03 -0.24111715303E+03  0.50358121906E+03  0.40000000000E+03 0. -1.
<mgrwt>
<rscale>  2 0.44176951E+03</rscale>
<asrwt>0</asrwt>
<pdfrwt beam="1">  1       21 0.81134485E-01 0.44210470E+03</pdfrwt>
<pdfrwt beam="2">  1       21 0.76146623E-01 0.44210470E+03</pdfrwt>
<totfact> 0.17685125E+03</totfact>
</mgrwt>
</event>
<event>
 6    1  0.8947013E-004  0.6937133E+03  0.7818608E-02  0.9728359E-01
         21   -1    0    0  501  502  0.00000000000E+00  0.00000000000E+00  0.51894477900E+03  0.51894477900E+03  0.00000000000E+00 0.  1.
         21   -1    0    0  502  503 -0.00000000000E+00 -0.00000000000E+00 -0.92756618173E+03  0.92756618173E+03  0.00000000000E+00 0. -1.
    9000007    2    1    2  501    0 -0.39663833079E+03 -0.40361858066E+03 -0.23041030255E+03  0.73097681036E+03  0.40125835276E+03 0.  0.
    9000005    1    3    3    0    0 -0.34580823375E+03 -0.48568365285E+03 -0.21144743767E+03  0.63260016129E+03  0.99999687468E+00 0.  0.
          4    1    3    3  501    0 -0.50830097048E+02  0.82065072188E+02 -0.18962864882E+02  0.98376649077E+02  0.00000000000E+00 0.  1.
   -9000007    1    1    2    0  503  0.39663833079E+03  0.40361858066E+03 -0.17821110017E+03  0.71553415036E+03  0.40000000000E+03 0. -1.
<mgrwt>
<rscale>  2 0.69353149E+03</rscale>
<asrwt>0</asrwt>
<pdfrwt beam="1">  1       21 0.79837659E-01 0.69371333E+03</pdfrwt>
<pdfrwt beam="2">  1       21 0.14270249E+00 0.69371333E+03</pdfrwt>
<totfact> 0.35640777E+02</totfact>
</mgrwt>
</event>
<event>
 6    1  0.8947013E-004  0.4531401E+03  0.7818608E-02  0.1026792E+00
         21   -1    0    0  501  502  0.00000000000E+00  0.00000000000E+00  0.47670500310E+03  0.47670500310E+03  0.00000000000E+00 0.  1.
         21   -1    0    0  502  503 -0.00000000000E+00 -0.00000000000E+00 -0.73174585554E+03  0.73174585554E+03  0.00000000000E+00 0.  1.
    9000007    2    1    2  501    0  0.13001016996E+03 -0.16853579996E+03  0.26002734188E+03  0.52244633608E+03  0.40003624260E+03 0.  0.
    9000005    1    3    3    0    0  0.10077140312E+03 -0.16449073617E+03 -0.59255015958E+02  0.20180246501E+03  0.99999687468E+00 0.  0.
          4    1    3    3  501    0  0.29238766840E+02 -0.40450637855E+01  0.31928235784E+03  0.32064387107E+03  0.00000000000E+00 0.  1.
   -9000007    1    1    2    0  503 -0.13001016996E+03  0.16853579996E+03 -0.51506819433E+03  0.68600452256E+03  0.40000000000E+03 0.  1.
<mgrwt>
<rscale>  2 0.45313211E+03</rscale>
<asrwt>0</asrwt>
<pdfrwt beam="1">  1       21 0.73339231E-01 0.45314011E+03</pdfrwt>
<pdfrwt beam="2">  1       21 0.11257629E+00 0.45314011E+03</pdfrwt>
<totfact> 0.87282075E+02</totfact>
</mgrwt>
</event>
<event>
 6    1  0.8947013E-004  0.4523734E+03  0.7818608E-02  0.1027314E+00
         21   -1    0    0  501  502  0.00000000000E+00  0.00000000000E+00  0.16674183754E+03  0.16674183754E+03  0.00000000000E+00 0. -1.
         21   -1    0    0  502  503 -0.00000000000E+00 -0.00000000000E+00 -0.24380552735E+04  0.24380552735E+04  0.00000000000E+00 0. -1.
    9000007    2    1    2  501    0  0.18736840078E+03 -0.97646223266E+02 -0.21124121903E+03  0.49564106146E+03  0.39546871767E+03 0.  0.
    9000005    1    3    3    0    0  0.23298568695E+03  0.93290415375E+02 -0.10132113675E+03  0.27065181446E+03  0.99999687468E+00 0.  0.
          4    1    3    3  501    0 -0.45617286174E+02 -0.19093663864E+03 -0.10992008228E+03  0.22498924699E+03  0.00000000000E+00 0.  1.
   -9000007    1    1    2    0  503 -0.18736840078E+03  0.97646223266E+02 -0.20600722169E+04  0.21091560495E+04  0.40000000000E+03 0. -1.
<mgrwt>
<rscale>  2 0.45136965E+03</rscale>
<asrwt>0</asrwt>
<pdfrwt beam="1">  1       21 0.25652592E-01 0.45237341E+03</pdfrwt>
<pdfrwt beam="2">  1       21 0.37508540E+00 0.45237341E+03</pdfrwt>
<totfact> 0.13572781E+02</totfact>
</mgrwt>
</event>
<event>
 6    1  0.8947013E-004  0.6018713E+03  0.7818608E-02  0.9901541E-01
         21   -1    0    0  501  502  0.00000000000E+00  0.00000000000E+00  0.36196600220E+03  0.36196600220E+03  0.00000000000E+00 0. -1.
         21   -1    0    0  502  503 -0.00000000000E+00 -0.00000000000E+00 -0.13883261307E+04  0.13883261307E+04  0.00000000000E+00 0.  1.
    9000007    2    1    2  501    0 -0.38046239840E+03 -0.23973705255E+03 -0.50790550536E+02  0.60401053905E+03  0.40002944928E+03 0.  0.
    9000005    1    3    3    0    0 -0.39602064531E+03 -0.26120373186E+03  0.70714233951E+02  0.47964699929E+03  0.99999687468E+00 0.  0.
          4    1    3    3  501    0  0.15558246916E+02  0.21466679302E+02 -0.12150478449E+03  0.12436353976E+03  0.00000000000E+00 0.  1.
   -9000007    1    1    2    0  503  0.38046239840E+03  0.23973705255E+03 -0.97556957798E+03  0.11462815939E+04  0.40000000000E+03 0.  1.
<mgrwt>
<rscale>  2 0.60186640E+03</rscale>
<asrwt>0</asrwt>
<pdfrwt beam="1">  1       21 0.55687078E-01 0.60187129E+03</pdfrwt>
<pdfrwt beam="2">  1       21 0.21358863E+00 0.60187129E+03</pdfrwt>
<totfact> 0.25323681E+02</totfact>
</mgrwt>
</event>
<event>
 6    1  0.8947013E-004  0.4400404E+03  0.7818608E-02  0.1030743E+00
         21   -1    0    0  501  502  0.00000000000E+00  0.00000000000E+00  0.24084233654E+04  0.24084233654E+04  0.00000000000E+00 0.  1.
         21   -1    0    0  502  503 -0.00000000000E+00 -0.00000000000E+00 -0.97372573958E+02  0.97372573958E+02  0.00000000000E+00 0.  1.
    9000007    2    1    2  501    0 -0.14955046570E+03  0.10616109220E+03  0.63199267623E+03  0.77003337681E+03  0.39987640504E+03 0.  0.
    9000005    1    3    3    0    0 -0.85509993114E+02  0.18530723142E+03  0.63620306749E+03  0.66813626755E+03  0.99999687468E+00 0.  0.
          4    1    3    3  501    0 -0.64040472581E+02 -0.79146139221E+02 -0.42103912532E+01  0.10189710926E+03  0.00000000000E+00 0.  1.
   -9000007    1    1    2    0  503  0.14955046570E+03 -0.10616109220E+03  0.16790581152E+04  0.17357625625E+04  0.40000000000E+03 0.  1.
<mgrwt>
<rscale>  2 0.44001227E+03</rscale>
<asrwt>0</asrwt>
<pdfrwt beam="1">  1       21 0.37052663E+00 0.44004036E+03</pdfrwt>
<pdfrwt beam="2">  1       21 0.14980398E-01 0.44004036E+03</pdfrwt>
<totfact> 0.40606357E+02</totfact>
</mgrwt>
</event>
<event>
 6    1  0.8947013E-004  0.6588682E+03  0.7818608E-02  0.9790843E-01
         21   -1    0    0  501  502  0.00000000000E+00  0.00000000000E+00  0.61098019773E+03  0.61098019773E+03  0.00000000000E+00 0. -1.
         21   -1    0    0  502  503 -0.00000000000E+00 -0.00000000000E+00 -0.88170811176E+03  0.88170811176E+03  0.00000000000E+00 0. -1.
    9000007    2    1    2  501    0 -0.12067510996E+03 -0.50945547777E+03  0.19486961293E+03  0.68591174618E+03  0.39798667252E+03 0.  0.
    9000005    1    3    3    0    0 -0.10051063678E+03 -0.56506203614E+03  0.11306598518E+03  0.58496359698E+03  0.99999687468E+00 0.  0.
          4    1    3    3  501    0 -0.20164473184E+02  0.55606558373E+02  0.81803627752E+02  0.10094814920E+03  0.00000000000E+00 0.  1.
   -9000007    1    1    2    0  503  0.12067510996E+03  0.50945547777E+03 -0.46559752696E+03  0.80677656331E+03  0.40000000000E+03 0. -1.
<mgrwt>
<rscale>  2 0.65856295E+03</rscale>
<asrwt>0</asrwt>
<pdfrwt beam="1">  1       21 0.93996953E-01 0.65886825E+03</pdfrwt>
<pdfrwt beam="2">  1       21 0.13564740E+00 0.65886825E+03</pdfrwt>
<totfact> 0.28029413E+02</totfact>
</mgrwt>
</event>
<event>
 6    1  0.8947013E-004  0.4507278E+03  0.7818608E-02  0.1027506E+00
         21   -1    0    0  501  502  0.00000000000E+00  0.00000000000E+00  0.31308531607E+03  0.31308531607E+03  0.00000000000E+00 0.  1.
         21   -1    0    0  502  503 -0.00000000000E+00 -0.00000000000E+00 -0.64908447063E+03  0.64908447063E+03  0.00000000000E+00 0.  1.
    9000007    2    1    2  501    0  0.20636360714E+03 -0.23865762939E+02 -0.15918317772E+03  0.47800101173E+03  0.39998771250E+03 0.  0.
    9000005    1    3    3    0    0  0.31696742203E+03 -0.92161595486E+01 -0.17981788075E+03  0.36453909866E+03  0.99999687468E+00 0.  0.
          4    1    3    3  501    0 -0.11060381489E+03 -0.14649603390E+02  0.20634703021E+02  0.11346191307E+03  0.00000000000E+00 0.  1.
   -9000007    1    1    2    0  503 -0.20636360714E+03  0.23865762939E+02 -0.17681597683E+03  0.48416877497E+03  0.40000000000E+03 0. -1.
<mgrwt>
<rscale>  2 0.45072503E+03</rscale>
<asrwt>0</asrwt>
<pdfrwt beam="1">  1       21 0.48166972E-01 0.45072776E+03</pdfrwt>
<pdfrwt beam="2">  1       21 0.99859148E-01 0.45072776E+03</pdfrwt>
<totfact> 0.29476936E+03</totfact>
</mgrwt>
</event>
<event>
 6    1  0.8947013E-004  0.5068330E+03  0.7818608E-02  0.1012097E+00
         21   -1    0    0  501  502  0.00000000000E+00  0.00000000000E+00  0.25290871018E+03  0.25290871018E+03  0.00000000000E+00 0. -1.
         21   -1    0    0  502  503 -0.00000000000E+00 -0.00000000000E+00 -0.10220892063E+04  0.10220892063E+04  0.00000000000E+00 0.  1.
    9000007    2    1    2  501    0  0.21061730878E+03  0.22619144623E+03 -0.32503040694E+03  0.60210006183E+03  0.40169328836E+03 0.  0.
    9000005    1    3    3    0    0  0.33069802471E+03  0.18768020725E+03 -0.25529821699E+03  0.45799915211E+03  0.99999687468E+00 0.  0.
          4    1    3    3  501    0 -0.12008071593E+03  0.38511238985E+02 -0.69732189943E+02  0.14410090972E+03  0.00000000000E+00 0.  1.
   -9000007    1    1    2    0  503 -0.21061730878E+03 -0.22619144623E+03 -0.44415008922E+03  0.67289785470E+03  0.40000000000E+03 0.  1.
<mgrwt>
<rscale>  2 0.50649745E+03</rscale>
<asrwt>0</asrwt>
<pdfrwt beam="1">  1       21 0.38909032E-01 0.50683303E+03</pdfrwt>
<pdfrwt beam="2">  1       21 0.15724450E+00 0.50683303E+03</pdfrwt>
<totfact> 0.13951523E+03</totfact>
</mgrwt>
</event>
<event>
 6    1  0.8947013E-004  0.5479613E+03  0.7818608E-02  0.1002008E+00
         21   -1    0    0  501  502  0.00000000000E+00  0.00000000000E+00  0.15375949377E+03  0.15375949377E+03  0.00000000000E+00 0.  1.
         21   -1    0    0  502  503 -0.00000000000E+00 -0.00000000000E+00 -0.19541407432E+04  0.19541407432E+04  0.00000000000E+00 0. -1.
    9000007    2    1    2  501    0 -0.37353042360E+03 -0.27140371563E+02 -0.94632808509E+03  0.10931744688E+04  0.39903884199E+03 0.  0.
    9000005    1    3    3    0    0 -0.81637481573E+01  0.98645668969E+02 -0.46755925081E+03  0.47792286805E+03  0.99999687468E+00 0.  0.
          4    1    3    3  501    0 -0.36536667544E+03 -0.12578604053E+03 -0.47876883428E+03  0.61525160073E+03  0.00000000000E+00 0.  1.
   -9000007    1    1    2    0  503  0.37353042360E+03  0.27140371563E+02 -0.85405316433E+03  0.10147257682E+04  0.40000000000E+03 0.  1.
<mgrwt>
<rscale>  2 0.54778590E+03</rscale>
<asrwt>0</asrwt>
<pdfrwt beam="1">  1       21 0.23655310E-01 0.54796129E+03</pdfrwt>
<pdfrwt beam="2">  1       21 0.30063700E+00 0.54796129E+03</pdfrwt>
<totfact> 0.43083018E+02</totfact>
</mgrwt>
</event>
<event>
 6    1  0.8947013E-004  0.4832481E+03  0.7818608E-02  0.1018249E+00
         21   -1    0    0  501  502  0.00000000000E+00  0.00000000000E+00  0.49567577713E+03  0.49567577713E+03  0.00000000000E+00 0. -1.
         21   -1    0    0  502  503 -0.00000000000E+00 -0.00000000000E+00 -0.47145768064E+03  0.47145768064E+03  0.00000000000E+00 0.  1.
    9000007    2    1    2  501    0  0.25439869601E+03 -0.93861752616E+02  0.25507378421E+02  0.48388363896E+03  0.39995502817E+03 0.  0.
    9000005    1    3    3    0    0  0.24663111957E+03 -0.23546430223E+03  0.89318253823E+01  0.34110280600E+03  0.99999687468E+00 0.  0.
          4    1    3    3  501    0  0.77675764341E+01  0.14160254961E+03  0.16575553039E+02  0.14278083295E+03  0.00000000000E+00 0.  1.
   -9000007    1    1    2    0  503 -0.25439869601E+03  0.93861752616E+02 -0.12892819326E+01  0.48324981881E+03  0.40000000000E+03 0.  1.
<mgrwt>
<rscale>  2 0.48323879E+03</rscale>
<asrwt>0</asrwt>
<pdfrwt beam="1">  1       21 0.76257812E-01 0.48324810E+03</pdfrwt>
<pdfrwt beam="2">  1       21 0.72531951E-01 0.48324810E+03</pdfrwt>
<totfact> 0.22450606E+03</totfact>
</mgrwt>
</event>
<event>
 6    1  0.8947013E-004  0.5032690E+03  0.7818608E-02  0.1012960E+00
         21   -1    0    0  501  502  0.00000000000E+00  0.00000000000E+00  0.47535649189E+03  0.47535649189E+03  0.00000000000E+00 0. -1.
         21   -1    0    0  502  503 -0.00000000000E+00 -0.00000000000E+00 -0.93883961523E+03  0.93883961523E+03  0.00000000000E+00 0. -1.
    9000007    2    1    2  501    0 -0.79401269779E+02 -0.29491540341E+03  0.23361570717E+03  0.55441332275E+03  0.39939726713E+03 0.  0.
    9000005    1    3    3    0    0 -0.24298293118E+02  0.30192782168E+02  0.22105546055E+03  0.22442933804E+03  0.99999687468E+00 0.  0.
          4    1    3    3  501    0 -0.55102976661E+02 -0.32510818558E+03  0.12560246624E+02  0.32998398471E+03  0.00000000000E+00 0.  1.
   -9000007    1    1    2    0  503  0.79401269779E+02  0.29491540341E+03 -0.69709883051E+03  0.85978278438E+03  0.40000000000E+03 0. -1.
<mgrwt>
<rscale>  2 0.50314920E+03</rscale>
<asrwt>0</asrwt>
<pdfrwt beam="1">  1       21 0.73131768E-01 0.50326897E+03</pdfrwt>
<pdfrwt beam="2">  1       21 0.14443686E+00 0.50326897E+03</pdfrwt>
<totfact> 0.45122186E+02</totfact>
</mgrwt>
</event>
<event>
 6    1  0.8947013E-004  0.4164912E+03  0.7818608E-02  0.1038223E+00
         21   -1    0    0  501  502  0.00000000000E+00  0.00000000000E+00  0.71011946326E+03  0.71011946326E+03  0.00000000000E+00 0.  1.
         21   -1    0    0  502  503 -0.00000000000E+00 -0.00000000000E+00 -0.29900072657E+03  0.29900072657E+03  0.00000000000E+00 0.  1.
    9000007    2    1    2  501    0  0.27493491063E+02 -0.11273438959E+03  0.42151359244E+03  0.59249927380E+03  0.39989591919E+03 0.  0.
    9000005    1    3    3    0    0  0.12770250532E+03  0.75702540775E+02  0.32692237370E+03  0.35905158817E+03  0.99999687468E+00 0.  0.
          4    1    3    3  501    0 -0.10020901425E+03 -0.18843693037E+03  0.94591218741E+02  0.23344768563E+03  0.00000000000E+00 0.  1.
   -9000007    1    1    2    0  503 -0.27493491063E+02  0.11273438959E+03 -0.10394855749E+02  0.41662091603E+03  0.40000000000E+03 0.  1.
<mgrwt>
<rscale>  2 0.41646623E+03</rscale>
<asrwt>0</asrwt>
<pdfrwt beam="1">  1       21 0.10924915E+00 0.41649122E+03</pdfrwt>
<pdfrwt beam="2">  1       21 0.46000112E-01 0.41649122E+03</pdfrwt>
<totfact> 0.26384304E+03</totfact>
</mgrwt>
</event>
<event>
 6    1  0.8947013E-004  0.4084425E+03  0.7818608E-02  0.1040960E+00
         21   -1    0    0  501  502  0.00000000000E+00  0.00000000000E+00  0.17704408234E+03  0.17704408234E+03  0.00000000000E+00 0. -1.
         21   -1    0    0  502  503 -0.00000000000E+00 -0.00000000000E+00 -0.96454795624E+03  0.96454795624E+03  0.00000000000E+00 0. -1.
    9000007    2    1    2  501    0  0.52352088353E+02 -0.58798951016E+02 -0.48422474183E+03  0.63348152920E+03  0.40078322001E+03 0.  0.
    9000005    1    3    3    0    0  0.11988338377E+03 -0.12849268829E+03 -0.41935532916E+02  0.18067093171E+03  0.99999687468E+00 0.  0.
          4    1    3    3  501    0 -0.67531295419E+02  0.69693737278E+02 -0.44228920891E+03  0.45281059749E+03  0.00000000000E+00 0.  1.
   -9000007    1    1    2    0  503 -0.52352088353E+02  0.58798951016E+02 -0.30327913207E+03  0.50811050938E+03  0.40000000000E+03 0. -1.
<mgrwt>
<rscale>  2 0.40825020E+03</rscale>
<asrwt>0</asrwt>
<pdfrwt beam="1">  1       21 0.27237551E-01 0.40844247E+03</pdfrwt>
<pdfrwt beam="2">  1       21 0.14839200E+00 0.40844247E+03</pdfrwt>
<totfact> 0.34744951E+03</totfact>
</mgrwt>
</event>
<event>
 6    1  0.8947013E-004  0.4342819E+03  0.7818608E-02  0.1032610E+00
         21   -1    0    0  501  502  0.00000000000E+00  0.00000000000E+00  0.60760238542E+03  0.60760238542E+03  0.00000000000E+00 0. -1.
         21   -1    0    0  502  503 -0.00000000000E+00 -0.00000000000E+00 -0.40612173620E+03  0.40612173620E+03  0.00000000000E+00 0. -1.
    9000007    2    1    2  501    0 -0.13710180923E+03 -0.93613306190E+02  0.34801772834E+03  0.55652233603E+03  0.40129841026E+03 0.  0.
    9000005    1    3    3    0    0 -0.27991283511E+03 -0.65976196112E+02  0.21096654281E+03  0.35666782290E+03  0.99999687468E+00 0.  0.
          4    1    3    3  501    0  0.14281102588E+03 -0.27637110077E+02  0.13705118553E+03  0.19985451314E+03  0.00000000000E+00 0.  1.
   -9000007    1    1    2    0  503  0.13710180923E+03  0.93613306190E+02 -0.14653707911E+03  0.45720178559E+03  0.40000000000E+03 0. -1.
<mgrwt>
<rscale>  2 0.43398171E+03</rscale>
<asrwt>0</asrwt>
<pdfrwt beam="1">  1       21 0.93477291E-01 0.43428190E+03</pdfrwt>
<pdfrwt beam="2">  1       21 0.62480267E-01 0.43428190E+03</pdfrwt>
<totfact> 0.19825954E+03</totfact>
</mgrwt>
</event>
<event>
 6    1  0.8947013E-004  0.4075853E+03  0.7818608E-02  0.1041201E+00
         21   -1    0    0  501  502  0.00000000000E+00  0.00000000000E+00  0.12940284892E+04  0.12940284892E+04  0.00000000000E+00 0.  1.
         21   -1    0    0  502  503 -0.00000000000E+00 -0.00000000000E+00 -0.18559189867E+03  0.18559189867E+03  0.00000000000E+00 0.  1.
    9000007    2    1    2  501    0 -0.65822882837E+02 -0.40388995763E+02  0.14332666093E+03  0.43205124976E+03  0.40020223363E+03 0.  0.
    9000005    1    3    3    0    0  0.88309095623E+02 -0.16493586529E+03  0.14031995874E+03  0.23386540327E+03  0.99999687468E+00 0.  0.
          4    1    3    3  501    0 -0.15413197846E+03  0.12454686953E+03  0.30067021886E+01  0.19818584650E+03  0.00000000000E+00 0.  1.
   -9000007    1    1    2    0  503  0.65822882837E+02  0.40388995763E+02  0.96510992957E+03  0.10475691381E+04  0.40000000000E+03 0.  1.
<mgrwt>
<rscale>  2 0.40753562E+03</rscale>
<asrwt>0</asrwt>
<pdfrwt beam="1">  1       21 0.19908130E+00 0.40758527E+03</pdfrwt>
<pdfrwt beam="2">  1       21 0.28552601E-01 0.40758527E+03</pdfrwt>
<totfact> 0.13669831E+03</totfact>
</mgrwt>
</event>
<event>
 6    1  0.8947013E-004  0.4043429E+03  0.7818608E-02  0.1042436E+00
         21   -1    0    0  501  502  0.00000000000E+00  0.00000000000E+00  0.10325264726E+03  0.10325264726E+03  0.00000000000E+00 0.  1.
         21   -1    0    0  502  503 -0.00000000000E+00 -0.00000000000E+00 -0.35571029988E+04  0.35571029988E+04  0.00000000000E+00 0.  1.
    9000007    2    1    2  501    0  0.17535087475E+02 -0.42140012677E+02 -0.36295249788E+03  0.54334861980E+03  0.40175856801E+03 0.  0.
    9000005    1    3    3    0    0  0.17682843624E+03 -0.13208085436E+03 -0.18251773236E+03  0.28640420837E+03  0.99999687468E+00 0.  0.
          4    1    3    3  501    0 -0.15929334876E+03  0.89940841682E+02 -0.18043476551E+03  0.25694441144E+03  0.00000000000E+00 0.  1.
   -9000007    1    1    2    0  503 -0.17535087475E+02  0.42140012677E+02 -0.30908978537E+04  0.31170070263E+04  0.40000000000E+03 0.  1.
<mgrwt>
<rscale>  2 0.40390540E+03</rscale>
<asrwt>0</asrwt>
<pdfrwt beam="1">  1       21 0.15885025E-01 0.40434293E+03</pdfrwt>
<pdfrwt beam="2">  1       21 0.54724653E+00 0.40434293E+03</pdfrwt>
<totfact> 0.23199264E+01</totfact>
</mgrwt>
</event>
<event>
 6    1  0.8947013E-004  0.4519467E+03  0.7818608E-02  0.1027454E+00
         21   -1    0    0  501  502  0.00000000000E+00  0.00000000000E+00  0.91528144886E+02  0.91528144886E+02  0.00000000000E+00 0. -1.
         21   -1    0    0  502  503 -0.00000000000E+00 -0.00000000000E+00 -0.25722074271E+04  0.25722074271E+04  0.00000000000E+00 0. -1.
    9000007    2    1    2  501    0  0.15913902836E+03  0.13758853163E+03 -0.73633331365E+03  0.86179253947E+03  0.39527686236E+03 0.  0.
    9000005    1    3    3    0    0  0.13803934381E+03 -0.80618950635E+02 -0.99534338932E+02  0.18831452483E+03  0.99999687468E+00 0.  0.
          4    1    3    3  501    0  0.21099684547E+02  0.21820748226E+03 -0.63679897472E+03  0.67347801464E+03  0.00000000000E+00 0.  1.
   -9000007    1    1    2    0  503 -0.15913902836E+03 -0.13758853163E+03 -0.17443459686E+04  0.18019430325E+04  0.40000000000E+03 0. -1.
<mgrwt>
<rscale>  2 0.45089937E+03</rscale>
<asrwt>0</asrwt>
<pdfrwt beam="1">  1       21 0.14081254E-01 0.45194672E+03</pdfrwt>
<pdfrwt beam="2">  1       21 0.39572419E+00 0.45194672E+03</pdfrwt>
<totfact> 0.31335560E+02</totfact>
</mgrwt>
</event>
<event>
 6    1  0.8947013E-004  0.4258590E+03  0.7818608E-02  0.1035181E+00
         21   -1    0    0  501  502  0.00000000000E+00  0.00000000000E+00  0.13495919459E+04  0.13495919459E+04  0.00000000000E+00 0.  1.
         21   -1    0    0  502  503 -0.00000000000E+00 -0.00000000000E+00 -0.16784645275E+03  0.16784645275E+03  0.00000000000E+00 0. -1.
    9000007    2    1    2  501    0 -0.40362749999E+02 -0.14025226188E+03  0.92981231890E+03  0.10226958668E+04  0.40007004267E+03 0.  0.
    9000005    1    3    3    0    0  0.41466286978E+02  0.10214551224E+03  0.82764643636E+02  0.13785552168E+03  0.99999687468E+00 0.  0.
          4    1    3    3  501    0 -0.81829036977E+02 -0.24239777412E+03  0.84704767526E+03  0.88484034512E+03  0.00000000000E+00 0.  1.
   -9000007    1    1    2    0  503  0.40362749999E+02  0.14025226188E+03  0.25193317428E+03  0.49474253188E+03  0.40000000000E+03 0.  1.
<mgrwt>
<rscale>  2 0.42584255E+03</rscale>
<asrwt>0</asrwt>
<pdfrwt beam="1">  1       21 0.20762952E+00 0.42585900E+03</pdfrwt>
<pdfrwt beam="2">  1       21 0.25822532E-01 0.42585900E+03</pdfrwt>
<totfact> 0.14493429E+03</totfact>
</mgrwt>
</event>
<event>
 6    1  0.8947013E-004  0.4426399E+03  0.7818608E-02  0.1029970E+00
         21   -1    0    0  501  502  0.00000000000E+00  0.00000000000E+00  0.10143094452E+04  0.10143094452E+04  0.00000000000E+00 0.  1.
         21   -1    0    0  502  503 -0.00000000000E+00 -0.00000000000E+00 -0.22507342507E+03  0.22507342507E+03  0.00000000000E+00 0.  1.
    9000007    2    1    2  501    0 -0.57727086828E+02  0.18054817777E+03  0.16050463837E+03  0.47046596224E+03  0.39955778261E+03 0.  0.
    9000005    1    3    3    0    0 -0.24910990178E+01 -0.12129709543E+03 -0.57524606244E+01  0.12146308794E+03  0.99999687468E+00 0.  0.
          4    1    3    3  501    0 -0.55235987810E+02  0.30184527320E+03  0.16625709900E+03  0.34900287430E+03  0.00000000000E+00 0.  1.
   -9000007    1    1    2    0  503  0.57727086828E+02 -0.18054817777E+03  0.62873138176E+03  0.76891690803E+03  0.40000000000E+03 0.  1.
<mgrwt>
<rscale>  2 0.44253995E+03</rscale>
<asrwt>0</asrwt>
<pdfrwt beam="1">  1       21 0.15604760E+00 0.44263988E+03</pdfrwt>
<pdfrwt beam="2">  1       21 0.34626681E-01 0.44263988E+03</pdfrwt>
<totfact> 0.18529885E+03</totfact>
</mgrwt>
</event>
<event>
 6    1  0.8947013E-004  0.6057875E+03  0.7818608E-02  0.9893577E-01
         21   -1    0    0  501  502  0.00000000000E+00  0.00000000000E+00  0.72097231627E+03  0.72097231627E+03  0.00000000000E+00 0. -1.
         21   -1    0    0  502  503 -0.00000000000E+00 -0.00000000000E+00 -0.62007744502E+03  0.62007744502E+03  0.00000000000E+00 0. -1.
    9000007    2    1    2  501    0  0.35890633840E+03 -0.27957950133E+03  0.33445011030E+03  0.69179903392E+03  0.39968809057E+03 0.  0.
    9000005    1    3    3    0    0  0.44446489767E+03 -0.21651812716E+03  0.30722523692E+03  0.58208031306E+03  0.99999687468E+00 0.  0.
          4    1    3    3  501    0 -0.85558559273E+02 -0.63061374170E+02  0.27224873379E+02  0.10971872086E+03  0.00000000000E+00 0.  1.
   -9000007    1    1    2    0  503 -0.35890633840E+03  0.27957950133E+03 -0.23355523906E+03  0.64925072738E+03  0.40000000000E+03 0. -1.
<mgrwt>
<rscale>  2 0.60573599E+03</rscale>
<asrwt>0</asrwt>
<pdfrwt beam="1">  1       21 0.11091882E+00 0.60578747E+03</pdfrwt>
<pdfrwt beam="2">  1       21 0.95396530E-01 0.60578747E+03</pdfrwt>
<totfact> 0.46235904E+02</totfact>
</mgrwt>
</event>
<event>
 6    1  0.8947013E-004  0.4006113E+03  0.7818608E-02  0.1043587E+00
         21   -1    0    0  501  502  0.00000000000E+00  0.00000000000E+00  0.25220685888E+04  0.25220685888E+04  0.00000000000E+00 0.  1.
         21   -1    0    0  502  503 -0.00000000000E+00 -0.00000000000E+00 -0.10962736864E+03  0.10962736864E+03  0.00000000000E+00 0.  1.
    9000007    2    1    2  501    0 -0.11912344884E+02 -0.13187237717E+02  0.20590310684E+04  0.20976411451E+04  0.40021697334E+03 0.  0.
    9000005    1    3    3    0    0 -0.10784268043E+03 -0.10860069643E+03  0.33497818400E+03  0.36828730461E+03  0.99999687468E+00 0.  0.
          4    1    3    3  501    0  0.95930335549E+02  0.95413458708E+02  0.17240528844E+04  0.17293538405E+04  0.00000000000E+00 0.  1.
   -9000007    1    1    2    0  503  0.11912344884E+02  0.13187237717E+02  0.35341015169E+03  0.53405481228E+03  0.40000000000E+03 0.  1.
<mgrwt>
<rscale>  2 0.40055712E+03</rscale>
<asrwt>0</asrwt>
<pdfrwt beam="1">  1       21 0.38801051E+00 0.40061132E+03</pdfrwt>
<pdfrwt beam="2">  1       21 0.16865751E-01 0.40061132E+03</pdfrwt>
<totfact> 0.25994675E+02</totfact>
</mgrwt>
</event>
<event>
 6    1  0.8947013E-004  0.4414148E+03  0.7818608E-02  0.1030379E+00
         21   -1    0    0  501  502  0.00000000000E+00  0.00000000000E+00  0.31820488859E+03  0.31820488859E+03  0.00000000000E+00 0.  1.
         21   -1    0    0  502  503 -0.00000000000E+00 -0.00000000000E+00 -0.63056162089E+03  0.63056162089E+03  0.00000000000E+00 0.  1.
    9000007    2    1    2  501    0 -0.17510809175E+03 -0.58554621467E+02 -0.23957084885E+03  0.50223625035E+03  0.40094335268E+03 0.  0.
    9000005    1    3    3    0    0 -0.95403341727E+02 -0.11334888942E+03 -0.33503789061E+03  0.36633476014E+03  0.99999687468E+00 0.  0.
          4    1    3    3  501    0 -0.79704750024E+02  0.54794267952E+02  0.95467041768E+02  0.13590149021E+03  0.00000000000E+00 0.  1.
   -9000007    1    1    2    0  503  0.17510809175E+03  0.58554621467E+02 -0.72785883453E+02  0.44653025913E+03  0.40000000000E+03 0. -1.
<mgrwt>
<rscale>  2 0.44120051E+03</rscale>
<asrwt>0</asrwt>
<pdfrwt beam="1">  1       21 0.48954599E-01 0.44141484E+03</pdfrwt>
<pdfrwt beam="2">  1       21 0.97009480E-01 0.44141484E+03</pdfrwt>
<totfact> 0.30647756E+03</totfact>
</mgrwt>
</event>
<event>
 6    1  0.8947013E-004  0.4066271E+03  0.7818608E-02  0.1041598E+00
         21   -1    0    0  501  502  0.00000000000E+00  0.00000000000E+00  0.92108318773E+03  0.92108318773E+03  0.00000000000E+00 0. -1.
         21   -1    0    0  502  503 -0.00000000000E+00 -0.00000000000E+00 -0.34738776587E+03  0.34738776587E+03  0.00000000000E+00 0. -1.
    9000007    2    1    2  501    0  0.69144860094E+02  0.23760885358E+02  0.72816109068E+03  0.83349367351E+03  0.39893299996E+03 0.  0.
    9000005    1    3    3    0    0 -0.29887405491E+02  0.39555552638E+02  0.73147614162E+03  0.73315499351E+03  0.99999687468E+00 0.  0.
          4    1    3    3  501    0  0.99032265585E+02 -0.15794667280E+02 -0.33150509482E+01  0.10033868000E+03  0.00000000000E+00 0.  1.
   -9000007    1    1    2    0  503 -0.69144860094E+02 -0.23760885358E+02 -0.15446566882E+03  0.43497728009E+03  0.40000000000E+03 0. -1.
<mgrwt>
<rscale>  2 0.40636445E+03</rscale>
<asrwt>0</asrwt>
<pdfrwt beam="1">  1       21 0.14170510E+00 0.40662709E+03</pdfrwt>
<pdfrwt beam="2">  1       21 0.53444272E-01 0.40662709E+03</pdfrwt>
<totfact> 0.99073900E+02</totfact>
</mgrwt>
</event>
<event>
 6    1  0.8947013E-004  0.4645533E+03  0.7818608E-02  0.1023476E+00
         21   -1    0    0  501  502  0.00000000000E+00  0.00000000000E+00  0.12154033724E+04  0.12154033724E+04  0.00000000000E+00 0.  1.
         21   -1    0    0  502  503 -0.00000000000E+00 -0.00000000000E+00 -0.18245028666E+03  0.18245028666E+03  0.00000000000E+00 0.  1.
    9000007    2    1    2  501    0 -0.20867085232E+03 -0.11075296212E+03  0.63126961336E+03  0.78372064805E+03  0.39988371585E+03 0.  0.
    9000005    1    3    3    0    0 -0.14609254430E+03 -0.25468944828E+03  0.31484434600E+03  0.43050866282E+03  0.99999687468E+00 0.  0.
          4    1    3    3  501    0 -0.62578308018E+02  0.14393648616E+03  0.31642526736E+03  0.35321198523E+03  0.00000000000E+00 0.  1.
   -9000007    1    1    2    0  503  0.20867085232E+03  0.11075296212E+03  0.40168347235E+03  0.61413301099E+03  0.40000000000E+03 0.  1.
<mgrwt>
<rscale>  2 0.46452824E+03</rscale>
<asrwt>0</asrwt>
<pdfrwt beam="1">  1       21 0.18698513E+00 0.46455327E+03</pdfrwt>
<pdfrwt beam="2">  1       21 0.28069276E-01 0.46455327E+03</pdfrwt>
<totfact> 0.16645337E+03</totfact>
</mgrwt>
</event>
<event>
 6    1  0.8947013E-004  0.5202114E+03  0.7818608E-02  0.1008636E+00
         21   -1    0    0  501  502  0.00000000000E+00  0.00000000000E+00  0.38325663285E+03  0.38325663285E+03  0.00000000000E+00 0.  1.
         21   -1    0    0  502  503 -0.00000000000E+00 -0.00000000000E+00 -0.11099531496E+04  0.11099531496E+04  0.00000000000E+00 0. -1.
    9000007    2    1    2  501    0  0.30859982518E+03 -0.12390187801E+03 -0.81372718993E+03  0.96580115006E+03  0.40004299063E+03 0.  0.
    9000005    1    3    3    0    0  0.27965403265E+03 -0.16054326986E+02 -0.80666158944E+03  0.85391336754E+03  0.99999687468E+00 0.  0.
          4    1    3    3  501    0  0.28945792524E+02 -0.10784755102E+03 -0.70656004852E+01  0.11188778252E+03  0.00000000000E+00 0.  1.
   -9000007    1    1    2    0  503 -0.30859982518E+03  0.12390187801E+03  0.87030673159E+02  0.52740863241E+03  0.40000000000E+03 0.  1.
<mgrwt>
<rscale>  2 0.52020316E+03</rscale>
<asrwt>0</asrwt>
<pdfrwt beam="1">  1       21 0.58962560E-01 0.52021142E+03</pdfrwt>
<pdfrwt beam="2">  1       21 0.17076202E+00 0.52021142E+03</pdfrwt>
<totfact> 0.45531224E+02</totfact>
</mgrwt>
</event>
<event>
 6    1  0.8947013E-004  0.4896875E+03  0.7818608E-02  0.1016549E+00
         21   -1    0    0  501  502  0.00000000000E+00  0.00000000000E+00  0.33366172391E+03  0.33366172391E+03  0.00000000000E+00 0.  1.
         21   -1    0    0  502  503 -0.00000000000E+00 -0.00000000000E+00 -0.88924975581E+03  0.88924975581E+03  0.00000000000E+00 0.  1.
    9000007    2    1    2  501    0 -0.49863842250E+02 -0.27804222425E+03 -0.91121741590E+01  0.48913375839E+03  0.39921788618E+03 0.  0.
    9000005    1    3    3    0    0 -0.15757243812E+03 -0.28643659537E+03  0.93611388160E+02  0.34005747810E+03  0.99999687468E+00 0.  0.
          4    1    3    3  501    0  0.10770859587E+03  0.83943711216E+01 -0.10272356232E+03  0.14907628029E+03  0.00000000000E+00 0.  1.
   -9000007    1    1    2    0  503  0.49863842250E+02  0.27804222425E+03 -0.54647585773E+03  0.73377772133E+03  0.40000000000E+03 0.  1.
<mgrwt>
<rscale>  2 0.48952779E+03</rscale>
<asrwt>0</asrwt>
<pdfrwt beam="1">  1       21 0.51332573E-01 0.48968753E+03</pdfrwt>
<pdfrwt beam="2">  1       21 0.13680765E+00 0.48968753E+03</pdfrwt>
<totfact> 0.11447846E+03</totfact>
</mgrwt>
</event>
<event>
 6    1  0.8947013E-004  0.4580799E+03  0.7818608E-02  0.1025388E+00
         21   -1    0    0  501  502  0.00000000000E+00  0.00000000000E+00  0.44776742734E+03  0.44776742734E+03  0.00000000000E+00 0. -1.
         21   -1    0    0  502  503 -0.00000000000E+00 -0.00000000000E+00 -0.49389740640E+03  0.49389740640E+03  0.00000000000E+00 0.  1.
    9000007    2    1    2  501    0  0.20845032451E+03  0.79910241543E+02  0.84864472792E+02  0.46522309449E+03  0.39924098538E+03 0.  0.
    9000005    1    3    3    0    0  0.32406358157E+03  0.27221322548E+02  0.29212259946E+02  0.32651579047E+03  0.99999687468E+00 0.  0.
          4    1    3    3  501    0 -0.11561325706E+03  0.52688918994E+02  0.55652212846E+02  0.13870730402E+03  0.00000000000E+00 0.  1.
   -9000007    1    1    2    0  503 -0.20845032451E+03 -0.79910241543E+02 -0.13099445185E+03  0.47644173926E+03  0.40000000000E+03 0.  1.
<mgrwt>
<rscale>  2 0.45791414E+03</rscale>
<asrwt>0</asrwt>
<pdfrwt beam="1">  1       21 0.68887296E-01 0.45807989E+03</pdfrwt>
<pdfrwt beam="2">  1       21 0.75984217E-01 0.45807989E+03</pdfrwt>
<totfact> 0.25656453E+03</totfact>
</mgrwt>
</event>
<event>
 6    1  0.8947013E-004  0.4578123E+03  0.7818608E-02  0.1025425E+00
         21   -1    0    0  501  502  0.00000000000E+00  0.00000000000E+00  0.17954102354E+04  0.17954102354E+04  0.00000000000E+00 0.  1.
         21   -1    0    0  502  503 -0.00000000000E+00 -0.00000000000E+00 -0.15180918264E+03  0.15180918264E+03  0.00000000000E+00 0.  1.
    9000007    2    1    2  501    0 -0.22180035433E+03 -0.17495374606E+02  0.12900015905E+04  0.13688302195E+04  0.40011321020E+03 0.  0.
    9000005    1    3    3    0    0 -0.13834618891E+02  0.16821489924E+03  0.63297099955E+03  0.65508849423E+03  0.99999687468E+00 0.  0.
          4    1    3    3  501    0 -0.20796573544E+03 -0.18571027385E+03  0.65703059092E+03  0.71374172523E+03  0.00000000000E+00 0.  1.
   -9000007    1    1    2    0  503  0.22180035433E+03  0.17495374606E+02  0.35359946233E+03  0.57838919862E+03  0.40000000000E+03 0.  1.
<mgrwt>
<rscale>  2 0.45778752E+03</rscale>
<asrwt>0</asrwt>
<pdfrwt beam="1">  1       21 0.27621694E+00 0.45781226E+03</pdfrwt>
<pdfrwt beam="2">  1       21 0.23355260E-01 0.45781226E+03</pdfrwt>
<totfact> 0.64880446E+02</totfact>
</mgrwt>
</event>
<event>
 6    1  0.8947013E-004  0.4101333E+03  0.7818608E-02  0.1040377E+00
         21   -1    0    0  501  502  0.00000000000E+00  0.00000000000E+00  0.14925238863E+04  0.14925238863E+04  0.00000000000E+00 0. -1.
         21   -1    0    0  502  503 -0.00000000000E+00 -0.00000000000E+00 -0.11552391320E+03  0.11552391320E+03  0.00000000000E+00 0. -1.
    9000007    2    1    2  501    0 -0.30264552658E+02  0.85401192259E+02  0.55871356115E+03  0.69273257577E+03  0.39938486618E+03 0.  0.
    9000005    1    3    3    0    0  0.16773609734E+03  0.43476723915E+02  0.39870113698E+03  0.43472890461E+03  0.99999687468E+00 0.  0.
          4    1    3    3  501    0 -0.19800065000E+03  0.41924468344E+02  0.16001242416E+03  0.25800367116E+03  0.00000000000E+00 0.  1.
   -9000007    1    1    2    0  503  0.30264552658E+02 -0.85401192259E+02  0.81828641194E+03  0.91531522371E+03  0.40000000000E+03 0.  1.
<mgrwt>
<rscale>  2 0.40998322E+03</rscale>
<asrwt>0</asrwt>
<pdfrwt beam="1">  1       21 0.22961905E+00 0.41013328E+03</pdfrwt>
<pdfrwt beam="2">  1       21 0.17772911E-01 0.41013328E+03</pdfrwt>
<totfact> 0.21590362E+03</totfact>
</mgrwt>
</event>
<event>
 6    1  0.8947013E-004  0.5990012E+03  0.7818608E-02  0.9907491E-01
         21   -1    0    0  501  502  0.00000000000E+00  0.00000000000E+00  0.62619670190E+03  0.62619670190E+03  0.00000000000E+00 0. -1.
         21   -1    0    0  502  503 -0.00000000000E+00 -0.00000000000E+00 -0.89150810948E+03  0.89150810948E+03  0.00000000000E+00 0. -1.
    9000007    2    1    2  501    0  0.35281488935E+03  0.27257838526E+03  0.32094752773E+03  0.67956588407E+03  0.40003143998E+03 0.  0.
    9000005    1    3    3    0    0  0.42458685613E+03  0.20029658466E+03  0.17379652856E+03  0.50059859524E+03  0.99999687468E+00 0.  0.
          4    1    3    3  501    0 -0.71771966777E+02  0.72281800598E+02  0.14715099917E+03  0.17896728883E+03  0.00000000000E+00 0.  1.
   -9000007    1    1    2    0  503 -0.35281488935E+03 -0.27257838526E+03 -0.58625893531E+03  0.83813892732E+03  0.40000000000E+03 0. -1.
<mgrwt>
<rscale>  2 0.59899598E+03</rscale>
<asrwt>0</asrwt>
<pdfrwt beam="1">  1       21 0.96337955E-01 0.59900123E+03</pdfrwt>
<pdfrwt beam="2">  1       21 0.13715509E+00 0.59900123E+03</pdfrwt>
<totfact> 0.26170617E+02</totfact>
</mgrwt>
</event>
<event>
 6    1  0.8947013E-004  0.4465219E+03  0.7818608E-02  0.1028775E+00
         21   -1    0    0  501  502  0.00000000000E+00  0.00000000000E+00  0.69587852285E+03  0.69587852285E+03  0.00000000000E+00 0. -1.
         21   -1    0    0  502  503 -0.00000000000E+00 -0.00000000000E+00 -0.42262750786E+03  0.42262750786E+03  0.00000000000E+00 0. -1.
    9000007    2    1    2  501    0  0.19844181772E+03 -0.16154294669E+01  0.45409427097E+03  0.63675293226E+03  0.39983862392E+03 0.  0.
    9000005    1    3    3    0    0  0.10077288222E+03 -0.18681578088E+03  0.33294601522E+03  0.39485359163E+03  0.99999687468E+00 0.  0.
          4    1    3    3  501    0  0.97668935492E+02  0.18520035142E+03  0.12114825576E+03  0.24189934063E+03  0.00000000000E+00 0.  1.
   -9000007    1    1    2    0  503 -0.19844181772E+03  0.16154294669E+01 -0.18084325599E+03  0.48175309845E+03  0.40000000000E+03 0. -1.
<mgrwt>
<rscale>  2 0.44648571E+03</rscale>
<asrwt>0</asrwt>
<pdfrwt beam="1">  1       21 0.10705823E+00 0.44652185E+03</pdfrwt>
<pdfrwt beam="2">  1       21 0.65019616E-01 0.44652185E+03</pdfrwt>
<totfact> 0.12993557E+03</totfact>
</mgrwt>
</event>
<event>
 6    1  0.8947013E-004  0.5184909E+03  0.7818608E-02  0.1009083E+00
         21   -1    0    0  501  502  0.00000000000E+00  0.00000000000E+00  0.47502407765E+03  0.47502407765E+03  0.00000000000E+00 0.  1.
         21   -1    0    0  502  503 -0.00000000000E+00 -0.00000000000E+00 -0.61931711030E+03  0.61931711030E+03  0.00000000000E+00 0.  1.
    9000007    2    1    2  501    0 -0.27515886331E+02 -0.32874865602E+03  0.89057667656E+02  0.52575930979E+03  0.39957324839E+03 0.  0.
    9000005    1    3    3    0    0 -0.61263891245E+02  0.27959690653E+02  0.14803584739E+03  0.16263646817E+03  0.99999687468E+00 0.  0.
          4    1    3    3  501    0  0.33748004915E+02 -0.35670834667E+03 -0.58978179739E+02  0.36312284162E+03  0.00000000000E+00 0.  1.
   -9000007    1    1    2    0  503  0.27515886331E+02  0.32874865602E+03 -0.23335070031E+03  0.56858187816E+03  0.40000000000E+03 0.  1.
<mgrwt>
<rscale>  2 0.51840858E+03</rscale>
<asrwt>0</asrwt>
<pdfrwt beam="1">  1       21 0.73080627E-01 0.51849089E+03</pdfrwt>
<pdfrwt beam="2">  1       21 0.95279556E-01 0.51849089E+03</pdfrwt>
<totfact> 0.12926522E+03</totfact>
</mgrwt>
</event>
<event>
 6    1  0.8947013E-004  0.4769381E+03  0.7818608E-02  0.1020028E+00
         21   -1    0    0  501  502  0.00000000000E+00  0.00000000000E+00  0.12925205851E+04  0.12925205851E+04  0.00000000000E+00 0. -1.
         21   -1    0    0  502  503 -0.00000000000E+00 -0.00000000000E+00 -0.17576417909E+03  0.17576417909E+03  0.00000000000E+00 0. -1.
    9000007    2    1    2  501    0 -0.20291612975E+03  0.16010879824E+03  0.56841421772E+03  0.74200042700E+03  0.40082431035E+03 0.  0.
    9000005    1    3    3    0    0 -0.27807851795E+03  0.22960865030E+03  0.50847248393E+03  0.62337232963E+03  0.99999687468E+00 0.  0.
          4    1    3    3  501    0  0.75162388199E+02 -0.69499852056E+02  0.59941733792E+02  0.11862809737E+03  0.00000000000E+00 0.  1.
   -9000007    1    1    2    0  503  0.20291612975E+03 -0.16010879824E+03  0.54834218828E+03  0.72628433718E+03  0.40000000000E+03 0. -1.
<mgrwt>
<rscale>  2 0.47676483E+03</rscale>
<asrwt>0</asrwt>
<pdfrwt beam="1">  1       21 0.19884931E+00 0.47693806E+03</pdfrwt>
<pdfrwt beam="2">  1       21 0.27040644E-01 0.47693806E+03</pdfrwt>
<totfact> 0.14799859E+03</totfact>
</mgrwt>
</event>
<event>
 6    1  0.8947013E-004  0.4255558E+03  0.7818608E-02  0.1035291E+00
         21   -1    0    0  501  502  0.00000000000E+00  0.00000000000E+00  0.15025336303E+04  0.15025336303E+04  0.00000000000E+00 0. -1.
         21   -1    0    0  502  503 -0.00000000000E+00 -0.00000000000E+00 -0.30704316550E+03  0.30704316550E+03  0.00000000000E+00 0. -1.
    9000007    2    1    2  501    0  0.10336760474E+03 -0.10110599571E+03  0.13031134189E+04  0.13708399905E+04  0.40023794525E+03 0.  0.
    9000005    1    3    3    0    0  0.18940694486E+03  0.41058181845E+02  0.32256752145E+03  0.37631312885E+03  0.99999687468E+00 0.  0.
          4    1    3    3  501    0 -0.86039340123E+02 -0.14216417755E+03  0.98054589748E+03  0.99452686162E+03  0.00000000000E+00 0.  1.
   -9000007    1    1    2    0  503 -0.10336760474E+03  0.10110599571E+03 -0.10762295414E+03  0.43873680531E+03  0.40000000000E+03 0. -1.
<mgrwt>
<rscale>  2 0.42549979E+03</rscale>
<asrwt>0</asrwt>
<pdfrwt beam="1">  1       21 0.23115902E+00 0.42555575E+03</pdfrwt>
<pdfrwt beam="2">  1       21 0.47237411E-01 0.42555575E+03</pdfrwt>
<totfact> 0.30201143E+02</totfact>
</mgrwt>
</event>
<event>
 6    1  0.8947013E-004  0.4365597E+03  0.7818608E-02  0.1031817E+00
         21   -1    0    0  501  502  0.00000000000E+00  0.00000000000E+00  0.27545566246E+03  0.27545566246E+03  0.00000000000E+00 0. -1.
         21   -1    0    0  502  503 -0.00000000000E+00 -0.00000000000E+00 -0.90345772874E+03  0.90345772874E+03  0.00000000000E+00 0.  1.
    9000007    2    1    2  501    0 -0.72527220445E+02  0.15881145315E+03 -0.28657789824E+02  0.43749931184E+03  0.40012885872E+03 0.  0.
    9000005    1    3    3    0    0 -0.16334997564E+03  0.24008437881E+03  0.46828479442E+02  0.29413879372E+03  0.99999687468E+00 0.  0.
          4    1    3    3  501    0  0.90822755195E+02 -0.81272925660E+02 -0.75486269266E+02  0.14336051812E+03  0.00000000000E+00 0.  1.
   -9000007    1    1    2    0  503  0.72527220445E+02 -0.15881145315E+03 -0.59934427645E+03  0.74141407936E+03  0.40000000000E+03 0.  1.
<mgrwt>
<rscale>  2 0.43653018E+03</rscale>
<asrwt>0</asrwt>
<pdfrwt beam="1">  1       21 0.42377793E-01 0.43655971E+03</pdfrwt>
<pdfrwt beam="2">  1       21 0.13899350E+00 0.43655971E+03</pdfrwt>
<totfact> 0.16790839E+03</totfact>
</mgrwt>
</event>
<event>
 6    1  0.8947013E-004  0.4694905E+03  0.7818608E-02  0.1022068E+00
         21   -1    0    0  501  502  0.00000000000E+00  0.00000000000E+00  0.32378391956E+04  0.32378391956E+04  0.00000000000E+00 0.  1.
         21   -1    0    0  502  503 -0.00000000000E+00 -0.00000000000E+00 -0.82319986673E+02  0.82319986673E+02  0.00000000000E+00 0.  1.
    9000007    2    1    2  501    0 -0.23473003929E+03  0.72643882274E+02  0.22685285513E+04  0.23166016345E+04  0.40005752079E+03 0.  0.
    9000005    1    3    3    0    0 -0.80213377172E+02 -0.12455754645E+03  0.15212247824E+04  0.15284222606E+04  0.99999687468E+00 0.  0.
          4    1    3    3  501    0 -0.15451666212E+03  0.19720142872E+03  0.74730376893E+03  0.78817937389E+03  0.00000000000E+00 0.  1.
   -9000007    1    1    2    0  503  0.23473003929E+03 -0.72643882274E+02  0.88699065763E+03  0.10035575478E+04  0.40000000000E+03 0.  1.
<mgrwt>
<rscale>  2 0.46947826E+03</rscale>
<asrwt>0</asrwt>
<pdfrwt beam="1">  1       21 0.49812901E+00 0.46949052E+03</pdfrwt>
<pdfrwt beam="2">  1       21 0.12664616E-01 0.46949052E+03</pdfrwt>
<totfact> 0.76578005E+01</totfact>
</mgrwt>
</event>
<event>
 6    1  0.8947013E-004  0.4110755E+03  0.7818608E-02  0.1040107E+00
         21   -1    0    0  501  502  0.00000000000E+00  0.00000000000E+00  0.24236359079E+04  0.24236359079E+04  0.00000000000E+00 0.  1.
         21   -1    0    0  502  503 -0.00000000000E+00 -0.00000000000E+00 -0.22848168412E+03  0.22848168412E+03  0.00000000000E+00 0.  1.
    9000007    2    1    2  501    0  0.93929583493E+02  0.12662451703E+02  0.22031532684E+04  0.22409642276E+04  0.39881479546E+03 0.  0.
    9000005    1    3    3    0    0 -0.39890250001E+02  0.14109115535E+03  0.16708736615E+04  0.16772947681E+04  0.99999687468E+00 0.  0.
          4    1    3    3  501    0  0.13381983349E+03 -0.12842870365E+03  0.53227960687E+03  0.56366945957E+03  0.00000000000E+00 0.  1.
   -9000007    1    1    2    0  503 -0.93929583493E+02 -0.12662451703E+02 -0.79990446279E+01  0.41115336439E+03  0.40000000000E+03 0.  1.
<mgrwt>
<rscale>  2 0.41078695E+03</rscale>
<asrwt>0</asrwt>
<pdfrwt beam="1">  1       21 0.37286704E+00 0.41107555E+03</pdfrwt>
<pdfrwt beam="2">  1       21 0.35151030E-01 0.41107555E+03</pdfrwt>
<totfact> 0.77217134E+01</totfact>
</mgrwt>
</event>
<event>
 6    1  0.8947013E-004  0.5068252E+03  0.7818608E-02  0.1012019E+00
         21   -1    0    0  501  502  0.00000000000E+00  0.00000000000E+00  0.40836823412E+03  0.40836823412E+03  0.00000000000E+00 0.  1.
         21   -1    0    0  502  503 -0.00000000000E+00 -0.00000000000E+00 -0.98017378070E+03  0.98017378070E+03  0.00000000000E+00 0.  1.
    9000007    2    1    2  501    0 -0.12707882994E+03 -0.28411742804E+03  0.12973569295E+03  0.52307575165E+03  0.39988141993E+03 0.  0.
    9000005    1    3    3    0    0 -0.52600676148E+02  0.10080460280E+03  0.15836545826E+02  0.11480503149E+03  0.99999687468E+00 0.  0.
          4    1    3    3  501    0 -0.74478153791E+02 -0.38492203085E+03  0.11389914712E+03  0.40827072016E+03  0.00000000000E+00 0.  1.
   -9000007    1    1    2    0  503  0.12707882994E+03  0.28411742804E+03 -0.70154123953E+03  0.86546626317E+03  0.40000000000E+03 0.  1.
<mgrwt>
<rscale>  2 0.50680176E+03</rscale>
<asrwt>0</asrwt>
<pdfrwt beam="1">  1       21 0.62825883E-01 0.50682516E+03</pdfrwt>
<pdfrwt beam="2">  1       21 0.15079596E+00 0.50682516E+03</pdfrwt>
<totfact> 0.56377979E+02</totfact>
</mgrwt>
</event>
<event>
 6    1  0.8947013E-004  0.4082079E+03  0.7818608E-02  0.1040992E+00
         21   -1    0    0  501  502  0.00000000000E+00  0.00000000000E+00  0.51065153753E+03  0.51065153753E+03  0.00000000000E+00 0. -1.
         21   -1    0    0  502  503 -0.00000000000E+00 -0.00000000000E+00 -0.33216926261E+03  0.33216926261E+03  0.00000000000E+00 0. -1.
    9000007    2    1    2  501    0 -0.79596970580E+02  0.11062844875E+02  0.32507409714E+02  0.40950021958E+03  0.40021948215E+03 0.  0.
    9000005    1    3    3    0    0  0.30185850376E+02 -0.30639896052E+02  0.20020271272E+03  0.20477332582E+03  0.99999687468E+00 0.  0.
          4    1    3    3  501    0 -0.10978282096E+03  0.41702740927E+02 -0.16769530301E+03  0.20472689376E+03  0.00000000000E+00 0.  1.
   -9000007    1    1    2    0  503  0.79596970580E+02 -0.11062844875E+02  0.14597486520E+03  0.43332058056E+03  0.40000000000E+03 0.  1.
<mgrwt>
<rscale>  2 0.40815410E+03</rscale>
<asrwt>0</asrwt>
<pdfrwt beam="1">  1       21 0.78561775E-01 0.40820791E+03</pdfrwt>
<pdfrwt beam="2">  1       21 0.51102963E-01 0.40820791E+03</pdfrwt>
<totfact> 0.46484370E+03</totfact>
</mgrwt>
</event>
<event>
 6    1  0.8947013E-004  0.4916138E+03  0.7818608E-02  0.1016089E+00
         21   -1    0    0  501  502  0.00000000000E+00  0.00000000000E+00  0.78315836165E+03  0.78315836165E+03  0.00000000000E+00 0.  1.
         21   -1    0    0  502  503 -0.00000000000E+00 -0.00000000000E+00 -0.65291627801E+03  0.65291627801E+03  0.00000000000E+00 0.  1.
    9000007    2    1    2  501    0 -0.25665874562E+03  0.12573952805E+03  0.58719968976E+03  0.76488584774E+03  0.39819937696E+03 0.  0.
    9000005    1    3    3    0    0  0.78165355653E+02  0.95550085655E+02  0.29377755163E+03  0.31866266102E+03  0.99999687468E+00 0.  0.
          4    1    3    3  501    0 -0.33482410128E+03  0.30189442396E+02  0.29342213813E+03  0.44622318672E+03  0.00000000000E+00 0.  1.
   -9000007    1    1    2    0  503  0.25665874562E+03 -0.12573952805E+03 -0.45695760611E+03  0.67118879192E+03  0.40000000000E+03 0.  1.
<mgrwt>
<rscale>  2 0.49124741E+03</rscale>
<asrwt>0</asrwt>
<pdfrwt beam="1">  1       21 0.12048590E+00 0.49161381E+03</pdfrwt>
<pdfrwt beam="2">  1       21 0.10044866E+00 0.49161381E+03</pdfrwt>
<totfact> 0.34563288E+02</totfact>
</mgrwt>
</event>
<event>
 6    1  0.8947013E-004  0.5113305E+03  0.7818608E-02  0.1011013E+00
         21   -1    0    0  501  502  0.00000000000E+00  0.00000000000E+00  0.39272443100E+03  0.39272443100E+03  0.00000000000E+00 0. -1.
         21   -1    0    0  502  503 -0.00000000000E+00 -0.00000000000E+00 -0.13733775730E+04  0.13733775730E+04  0.00000000000E+00 0.  1.
    9000007    2    1    2  501    0 -0.28377024128E+03 -0.13609849853E+03  0.14435620995E+03  0.53131684329E+03  0.40300188768E+03 0.  0.
    9000005    1    3    3    0    0 -0.35100137924E+03 -0.11527588076E+03 -0.14079495768E+01  0.36945023918E+03  0.99999687468E+00 0.  0.
          4    1    3    3  501    0  0.67231137962E+02 -0.20822617768E+02  0.14576415953E+03  0.16186660411E+03  0.00000000000E+00 0.  1.
   -9000007    1    1    2    0  503  0.28377024128E+03  0.13609849853E+03 -0.11250093519E+04  0.12347851607E+04  0.40000000000E+03 0.  1.
<mgrwt>
<rscale>  2 0.51073883E+03</rscale>
<asrwt>0</asrwt>
<pdfrwt beam="1">  1       21 0.60419142E-01 0.51133049E+03</pdfrwt>
<pdfrwt beam="2">  1       21 0.21128886E+00 0.51133049E+03</pdfrwt>
<totfact> 0.22794712E+02</totfact>
</mgrwt>
</event>
<event>
 6    1  0.8947013E-004  0.4364025E+03  0.7818608E-02  0.1031962E+00
         21   -1    0    0  501  502  0.00000000000E+00  0.00000000000E+00  0.20576045481E+03  0.20576045481E+03  0.00000000000E+00 0. -1.
         21   -1    0    0  502  503 -0.00000000000E+00 -0.00000000000E+00 -0.92297582947E+03  0.92297582947E+03  0.00000000000E+00 0. -1.
    9000007    2    1    2  501    0 -0.12131052945E+03 -0.12542270673E+03 -0.34796299560E+03  0.55707692824E+03  0.39850891802E+03 0.  0.
    9000005    1    3    3    0    0 -0.10985626939E+03 -0.26818019682E+03 -0.20715959035E+03  0.35623744014E+03  0.99999687468E+00 0.  0.
          4    1    3    3  501    0 -0.11454260055E+02  0.14275749008E+03 -0.14080340525E+03  0.20083948810E+03  0.00000000000E+00 0.  1.
   -9000007    1    1    2    0  503  0.12131052945E+03  0.12542270673E+03 -0.36925237905E+03  0.57165935605E+03  0.40000000000E+03 0. -1.
<mgrwt>
<rscale>  2 0.43606048E+03</rscale>
<asrwt>0</asrwt>
<pdfrwt beam="1">  1       21 0.31655454E-01 0.43640245E+03</pdfrwt>
<pdfrwt beam="2">  1       21 0.14199628E+00 0.43640245E+03</pdfrwt>
<totfact> 0.28722130E+03</totfact>
</mgrwt>
</event>
<event>
 6    1  0.8947013E-004  0.4610862E+03  0.7818608E-02  0.1024483E+00
         21   -1    0    0  501  502  0.00000000000E+00  0.00000000000E+00  0.11410425421E+04  0.11410425421E+04  0.00000000000E+00 0. -1.
         21   -1    0    0  502  503 -0.00000000000E+00 -0.00000000000E+00 -0.23045589469E+03  0.23045589469E+03  0.00000000000E+00 0. -1.
    9000007    2    1    2  501    0 -0.42563075562E+02 -0.22491028110E+03  0.75578250071E+03  0.88532915172E+03  0.40025525425E+03 0.  0.
    9000005    1    3    3    0    0 -0.10149206888E+03 -0.69026748074E+02  0.69835760465E+03  0.70906253318E+03  0.99999687468E+00 0.  0.
          4    1    3    3  501    0  0.58928993320E+02 -0.15588353303E+03  0.57424896060E+02  0.17626661854E+03  0.00000000000E+00 0.  1.
   -9000007    1    1    2    0  503  0.42563075562E+02  0.22491028110E+03  0.15480414674E+03  0.48616928512E+03  0.40000000000E+03 0. -1.
<mgrwt>
<rscale>  2 0.46103084E+03</rscale>
<asrwt>0</asrwt>
<pdfrwt beam="1">  1       21 0.17554500E+00 0.46108624E+03</pdfrwt>
<pdfrwt beam="2">  1       21 0.35454754E-01 0.46108624E+03</pdfrwt>
<totfact> 0.12573922E+03</totfact>
</mgrwt>
</event>
<event>
 6    1  0.8947013E-004  0.6430664E+03  0.7818608E-02  0.9819925E-01
         21   -1    0    0  501  502  0.00000000000E+00  0.00000000000E+00  0.13661820441E+04  0.13661820441E+04  0.00000000000E+00 0. -1.
         21   -1    0    0  502  503 -0.00000000000E+00 -0.00000000000E+00 -0.32098258400E+03  0.32098258400E+03  0.00000000000E+00 0.  1.
    9000007    2    1    2  501    0  0.52925393443E+02  0.50073278415E+03  0.72418440641E+03  0.96842609213E+03  0.39983949660E+03 0.  0.
    9000005    1    3    3    0    0  0.79422991685E+02  0.12704794903E+03  0.52127303630E+03  0.54237972983E+03  0.99999687468E+00 0.  0.
          4    1    3    3  501    0 -0.26497598242E+02  0.37368483512E+03  0.20291137011E+03  0.42604636230E+03  0.00000000000E+00 0.  1.
   -9000007    1    1    2    0  503 -0.52925393443E+02 -0.50073278415E+03  0.32101505371E+03  0.71873853598E+03  0.40000000000E+03 0.  1.
<mgrwt>
<rscale>  2 0.64304146E+03</rscale>
<asrwt>0</asrwt>
<pdfrwt beam="1">  1       21 0.21018185E+00 0.64306642E+03</pdfrwt>
<pdfrwt beam="2">  1       21 0.49381937E-01 0.64306642E+03</pdfrwt>
<totfact> 0.34046385E+02</totfact>
</mgrwt>
</event>
<event>
 6    1  0.8947013E-004  0.4074715E+03  0.7818608E-02  0.1041282E+00
         21   -1    0    0  501  502  0.00000000000E+00  0.00000000000E+00  0.83796320902E+03  0.83796320902E+03  0.00000000000E+00 0.  1.
         21   -1    0    0  502  503 -0.00000000000E+00 -0.00000000000E+00 -0.23543633817E+03  0.23543633817E+03  0.00000000000E+00 0.  1.
    9000007    2    1    2  501    0  0.44725667264E+01 -0.77543440201E+02  0.51562793989E+03  0.65676491928E+03  0.39929312269E+03 0.  0.
    9000005    1    3    3    0    0 -0.14046265614E+03  0.98045881630E+02  0.28613988389E+03  0.33349630556E+03  0.99999687468E+00 0.  0.
          4    1    3    3  501    0  0.14493522286E+03 -0.17558932183E+03  0.22948805600E+03  0.32326861372E+03  0.00000000000E+00 0.  1.
   -9000007    1    1    2    0  503 -0.44725667264E+01  0.77543440201E+02  0.86898930964E+02  0.41663462791E+03  0.40000000000E+03 0.  1.
<mgrwt>
<rscale>  2 0.40729787E+03</rscale>
<asrwt>0</asrwt>
<pdfrwt beam="1">  1       21 0.12891741E+00 0.40747146E+03</pdfrwt>
<pdfrwt beam="2">  1       21 0.36220976E-01 0.40747146E+03</pdfrwt>
<totfact> 0.28540098E+03</totfact>
</mgrwt>
</event>
<event>
 6    1  0.8947013E-004  0.4290071E+03  0.7818608E-02  0.1034729E+00
         21   -1    0    0  501  502  0.00000000000E+00  0.00000000000E+00  0.29187246698E+03  0.29187246698E+03  0.00000000000E+00 0. -1.
         21   -1    0    0  502  503 -0.00000000000E+00 -0.00000000000E+00 -0.10927552996E+04  0.10927552996E+04  0.00000000000E+00 0. -1.
    9000007    2    1    2  501    0 -0.12131245842E+03  0.96593860213E+02  0.56575387893E+02  0.42583598192E+03  0.39254098204E+03 0.  0.
    9000005    1    3    3    0    0 -0.28253030782E+02  0.24425791796E+03  0.14619896435E+02  0.24632276712E+03  0.99999687468E+00 0.  0.
          4    1    3    3  501    0 -0.93059427639E+02 -0.14766405775E+03  0.41955491458E+02  0.17951321480E+03  0.00000000000E+00 0.  1.
   -9000007    1    1    2    0  503  0.12131245842E+03 -0.96593860213E+02 -0.85745822050E+03  0.95879178464E+03  0.40000000000E+03 0. -1.
<mgrwt>
<rscale>  2 0.42725993E+03</rscale>
<asrwt>0</asrwt>
<pdfrwt beam="1">  1       21 0.44903457E-01 0.42900709E+03</pdfrwt>
<pdfrwt beam="2">  1       21 0.16811620E+00 0.42900709E+03</pdfrwt>
<totfact> 0.88729400E+02</totfact>
</mgrwt>
</event>
<event>
 6    1  0.8947013E-004  0.5217968E+03  0.7818608E-02  0.1008266E+00
         21   -1    0    0  501  502  0.00000000000E+00  0.00000000000E+00  0.66286105481E+03  0.66286105481E+03  0.00000000000E+00 0.  1.
         21   -1    0    0  502  503 -0.00000000000E+00 -0.00000000000E+00 -0.83356486920E+03  0.83356486920E+03  0.00000000000E+00 0.  1.
    9000007    2    1    2  501    0  0.20049163562E+03  0.26846784171E+03  0.44774323189E+03  0.68726053484E+03  0.39947611074E+03 0.  0.
    9000005    1    3    3    0    0  0.92830514885E+02 -0.92272126782E+02  0.19114346030E+03  0.23166456847E+03  0.99999687468E+00 0.  0.
          4    1    3    3  501    0  0.10766112074E+03  0.36073996850E+03  0.25659977159E+03  0.45559596636E+03  0.00000000000E+00 0.  1.
   -9000007    1    1    2    0  503 -0.20049163562E+03 -0.26846784171E+03 -0.61844704627E+03  0.80916538917E+03  0.40000000000E+03 0.  1.
<mgrwt>
<rscale>  2 0.52169638E+03</rscale>
<asrwt>0</asrwt>
<pdfrwt beam="1">  1       21 0.10197862E+00 0.52179678E+03</pdfrwt>
<pdfrwt beam="2">  1       21 0.12824075E+00 0.52179678E+03</pdfrwt>
<totfact> 0.28003091E+02</totfact>
</mgrwt>
</event>
<event>
 6    1  0.8947013E-004  0.4644615E+03  0.7818608E-02  0.1023652E+00
         21   -1    0    0  501  502  0.00000000000E+00  0.00000000000E+00  0.13190646720E+04  0.13190646720E+04  0.00000000000E+00 0. -1.
         21   -1    0    0  502  503 -0.00000000000E+00 -0.00000000000E+00 -0.27519545227E+03  0.27519545227E+03  0.00000000000E+00 0. -1.
    9000007    2    1    2  501    0  0.14493520852E+03  0.18082325163E+03  0.10321417815E+04  0.11318308910E+04  0.40251862761E+03 0.  0.
    9000005    1    3    3    0    0  0.27838389199E+03  0.17852195451E+03  0.75299768659E+03  0.82241971983E+03  0.99999687468E+00 0.  0.
          4    1    3    3  501    0 -0.13344868346E+03  0.23012971246E+01  0.27914409495E+03  0.30941117115E+03  0.00000000000E+00 0.  1.
   -9000007    1    1    2    0  503 -0.14493520852E+03 -0.18082325163E+03  0.11727438205E+02  0.46242923330E+03  0.40000000000E+03 0. -1.
<mgrwt>
<rscale>  2 0.46391531E+03</rscale>
<asrwt>0</asrwt>
<pdfrwt beam="1">  1       21 0.20293302E+00 0.46446153E+03</pdfrwt>
<pdfrwt beam="2">  1       21 0.42337763E-01 0.46446153E+03</pdfrwt>
<totfact> 0.56538340E+02</totfact>
</mgrwt>
</event>
<event>
 6    1  0.8947013E-004  0.5295215E+03  0.7818608E-02  0.1006753E+00
         21   -1    0    0  501  502  0.00000000000E+00  0.00000000000E+00  0.89168320622E+03  0.89168320622E+03  0.00000000000E+00 0. -1.
         21   -1    0    0  502  503 -0.00000000000E+00 -0.00000000000E+00 -0.45244859301E+03  0.45244859301E+03  0.00000000000E+00 0. -1.
    9000007    2    1    2  501    0  0.71353075582E+02  0.32913045963E+03  0.59695871429E+03  0.79796789260E+03  0.40862566024E+03 0.  0.
    9000005    1    3    3    0    0 -0.95864179228E+01  0.38251790878E+03  0.30193498930E+03  0.48741931405E+03  0.99999687468E+00 0.  0.
          4    1    3    3  501    0  0.80939493505E+02 -0.53387449156E+02  0.29502372499E+03  0.31054857855E+03  0.00000000000E+00 0.  1.
   -9000007    1    1    2    0  503 -0.71353075582E+02 -0.32913045963E+03 -0.15772410108E+03  0.54616390664E+03  0.40000000000E+03 0. -1.
<mgrwt>
<rscale>  2 0.52785681E+03</rscale>
<asrwt>0</asrwt>
<pdfrwt beam="1">  1       21 0.13718203E+00 0.52952153E+03</pdfrwt>
<pdfrwt beam="2">  1       21 0.69607476E-01 0.52952153E+03</pdfrwt>
<totfact> 0.57345060E+02</totfact>
</mgrwt>
</event>
<event>
 6    1  0.8947013E-004  0.7646889E+03  0.7818608E-02  0.9612970E-01
         21   -1    0    0  501  502  0.00000000000E+00  0.00000000000E+00  0.14337284341E+04  0.14337284341E+04  0.00000000000E+00 0. -1.
         21   -1    0    0  502  503 -0.00000000000E+00 -0.00000000000E+00 -0.45561813936E+03  0.45561813936E+03  0.00000000000E+00 0.  1.
    9000007    2    1    2  501    0 -0.58931433513E+03 -0.27831219181E+03  0.79635604657E+03  0.11033544180E+04  0.39806903556E+03 0.  0.
    9000005    1    3    3    0    0 -0.58388980218E+03 -0.35725536750E+03  0.71711852443E+03  0.99137211821E+03  0.99999687468E+00 0.  0.
          4    1    3    3  501    0 -0.54245329551E+01  0.78943175694E+02  0.79237522137E+02  0.11198229977E+03  0.00000000000E+00 0.  1.
   -9000007    1    1    2    0  503  0.58931433513E+03  0.27831219181E+03  0.18175424814E+03  0.78599215544E+03  0.40000000000E+03 0.  1.
<mgrwt>
<rscale>  2 0.76443667E+03</rscale>
<asrwt>0</asrwt>
<pdfrwt beam="1">  1       21 0.22057360E+00 0.76468887E+03</pdfrwt>
<pdfrwt beam="2">  1       21 0.70095099E-01 0.76468887E+03</pdfrwt>
<totfact> 0.12896927E+02</totfact>
</mgrwt>
</event>
<event>
 6    1  0.8947013E-004  0.4163460E+03  0.7818608E-02  0.1038276E+00
         21   -1    0    0  501  502  0.00000000000E+00  0.00000000000E+00  0.15270119325E+04  0.15270119325E+04  0.00000000000E+00 0.  1.
         21   -1    0    0  502  503 -0.00000000000E+00 -0.00000000000E+00 -0.14388971877E+03  0.14388971877E+03  0.00000000000E+00 0.  1.
    9000007    2    1    2  501    0  0.69270125959E+02 -0.91686143677E+02  0.10757877421E+04  0.11535437705E+04  0.40017404358E+03 0.  0.
    9000005    1    3    3    0    0  0.13489804472E+03 -0.92738698028E+02  0.13984811773E+03  0.21530546813E+03  0.99999687468E+00 0.  0.
          4    1    3    3  501    0 -0.65627918760E+02  0.10525543512E+01  0.93593962440E+03  0.93823830241E+03  0.00000000000E+00 0.  1.
   -9000007    1    1    2    0  503 -0.69270125959E+02  0.91686143677E+02  0.30733447155E+03  0.51735788068E+03  0.40000000000E+03 0.  1.
<mgrwt>
<rscale>  2 0.41630414E+03</rscale>
<asrwt>0</asrwt>
<pdfrwt beam="1">  1       21 0.23492490E+00 0.41634597E+03</pdfrwt>
<pdfrwt beam="2">  1       21 0.22136881E-01 0.41634597E+03</pdfrwt>
<totfact> 0.13143411E+03</totfact>
</mgrwt>
</event>
<event>
 6    1  0.8947013E-004  0.4565829E+03  0.7818608E-02  0.1025904E+00
         21   -1    0    0  501  502  0.00000000000E+00  0.00000000000E+00  0.58916175040E+03  0.58916175040E+03  0.00000000000E+00 0. -1.
         21   -1    0    0  502  503 -0.00000000000E+00 -0.00000000000E+00 -0.78339068583E+03  0.78339068583E+03  0.00000000000E+00 0. -1.
    9000007    2    1    2  501    0 -0.19755639157E+03 -0.88663103792E+02  0.41177485168E+03  0.61483859590E+03  0.40196802946E+03 0.  0.
    9000005    1    3    3    0    0 -0.90016264450E+02 -0.16158025878E+03  0.44398750379E+03  0.48097506319E+03  0.99999687468E+00 0.  0.
          4    1    3    3  501    0 -0.10754012712E+03  0.72917154988E+02 -0.32212652112E+02  0.13386353271E+03  0.00000000000E+00 0.  1.
   -9000007    1    1    2    0  503  0.19755639157E+03  0.88663103792E+02 -0.60600378711E+03  0.75771384033E+03  0.40000000000E+03 0. -1.
<mgrwt>
<rscale>  2 0.45614940E+03</rscale>
<asrwt>0</asrwt>
<pdfrwt beam="1">  1       21 0.90640269E-01 0.45658293E+03</pdfrwt>
<pdfrwt beam="2">  1       21 0.12052164E+00 0.45658293E+03</pdfrwt>
<totfact> 0.44906989E+02</totfact>
</mgrwt>
</event>
<event>
 6    1  0.8947013E-004  0.4027473E+03  0.7818608E-02  0.1042956E+00
         21   -1    0    0  501  502  0.00000000000E+00  0.00000000000E+00  0.51950592067E+03  0.51950592067E+03  0.00000000000E+00 0. -1.
         21   -1    0    0  502  503 -0.00000000000E+00 -0.00000000000E+00 -0.50608335544E+03  0.50608335544E+03  0.00000000000E+00 0. -1.
    9000007    2    1    2  501    0 -0.27087734588E+02 -0.38362190970E+02  0.32498704798E+03  0.51639596315E+03  0.39855088300E+03 0.  0.
    9000005    1    3    3    0    0  0.68292686717E+02 -0.14965401259E+03  0.33108160596E+03  0.36969750384E+03  0.99999687468E+00 0.  0.
          4    1    3    3  501    0 -0.95380421304E+02  0.11129182162E+03 -0.60945579802E+01  0.14669845931E+03  0.00000000000E+00 0.  1.
   -9000007    1    1    2    0  503  0.27087734588E+02  0.38362190970E+02 -0.31156448274E+03  0.50919331296E+03  0.40000000000E+03 0. -1.
<mgrwt>
<rscale>  2 0.40238704E+03</rscale>
<asrwt>0</asrwt>
<pdfrwt beam="1">  1       21 0.79923988E-01 0.40274732E+03</pdfrwt>
<pdfrwt beam="2">  1       21 0.77858978E-01 0.40274732E+03</pdfrwt>
<totfact> 0.17682092E+03</totfact>
</mgrwt>
</event>
<event>
 6    1  0.8947013E-004  0.5465781E+03  0.7818608E-02  0.1002427E+00
         21   -1    0    0  501  502  0.00000000000E+00  0.00000000000E+00  0.14994664415E+04  0.14994664415E+04  0.00000000000E+00 0.  1.
         21   -1    0    0  502  503 -0.00000000000E+00 -0.00000000000E+00 -0.19860948019E+03  0.19860948019E+03  0.00000000000E+00 0.  1.
    9000007    2    1    2  501    0  0.36772781390E+03 -0.30956526348E+02  0.62293928366E+03  0.82873454494E+03  0.40319417557E+03 0.  0.
    9000005    1    3    3    0    0  0.36724585494E+03  0.40166145458E+01  0.67357330639E+03  0.76719466254E+03  0.99999687468E+00 0.  0.
          4    1    3    3  501    0  0.48195896366E+00 -0.34973140894E+02 -0.50634022727E+02  0.61539882401E+02  0.00000000000E+00 0.  1.
   -9000007    1    1    2    0  503 -0.36772781390E+03  0.30956526348E+02  0.67791767765E+03  0.86934137674E+03  0.40000000000E+03 0.  1.
<mgrwt>
<rscale>  2 0.54598913E+03</rscale>
<asrwt>0</asrwt>
<pdfrwt beam="1">  1       21 0.23068714E+00 0.54657808E+03</pdfrwt>
<pdfrwt beam="2">  1       21 0.30555306E-01 0.54657808E+03</pdfrwt>
<totfact> 0.70098318E+02</totfact>
</mgrwt>
</event>
<event>
 6    1  0.8947013E-004  0.5244696E+03  0.7818608E-02  0.1007739E+00
         21   -1    0    0  501  502  0.00000000000E+00  0.00000000000E+00  0.45660677395E+03  0.45660677395E+03  0.00000000000E+00 0. -1.
         21   -1    0    0  502  503 -0.00000000000E+00 -0.00000000000E+00 -0.59952522547E+03  0.59952522547E+03  0.00000000000E+00 0. -1.
    9000007    2    1    2  501    0 -0.25157218704E+03  0.22755183782E+03 -0.67215801295E+02  0.52622701225E+03  0.39664656848E+03 0.  0.
    9000005    1    3    3    0    0 -0.23789936179E+03 -0.31494368937E+02 -0.10883379564E+03  0.26350293486E+03  0.99999687468E+00 0.  0.
          4    1    3    3  501    0 -0.13672825249E+02  0.25904620675E+03  0.41617994347E+02  0.26272407738E+03  0.00000000000E+00 0.  1.
   -9000007    1    1    2    0  503  0.25157218704E+03 -0.22755183782E+03 -0.75702650218E+02  0.52990498718E+03  0.40000000000E+03 0. -1.
<mgrwt>
<rscale>  2 0.52383020E+03</rscale>
<asrwt>0</asrwt>
<pdfrwt beam="1">  1       21 0.70247196E-01 0.52446964E+03</pdfrwt>
<pdfrwt beam="2">  1       21 0.92234650E-01 0.52446964E+03</pdfrwt>
<totfact> 0.15255396E+03</totfact>
</mgrwt>
</event>
<event>
 6    1  0.8947013E-004  0.7018097E+03  0.7818608E-02  0.9714210E-01
         21   -1    0    0  501  502  0.00000000000E+00  0.00000000000E+00  0.11163098067E+04  0.11163098067E+04  0.00000000000E+00 0. -1.
         21   -1    0    0  502  503 -0.00000000000E+00 -0.00000000000E+00 -0.44126039989E+03  0.44126039989E+03  0.00000000000E+00 0. -1.
    9000007    2    1    2  501    0  0.26080186510E+03  0.51431432155E+03  0.35141256698E+03  0.78473281212E+03  0.39972235364E+03 0.  0.
    9000005    1    3    3    0    0  0.81350552637E+01  0.43586848331E+03  0.24024927886E+03  0.49776322670E+03  0.99999687468E+00 0.  0.
          4    1    3    3  501    0  0.25266680984E+03  0.78445838236E+02  0.11116328812E+03  0.28696958542E+03  0.00000000000E+00 0.  1.
   -9000007    1    1    2    0  503 -0.26080186510E+03 -0.51431432155E+03  0.32363683982E+03  0.77283739446E+03  0.40000000000E+03 0. -1.
<mgrwt>
<rscale>  2 0.70177013E+03</rscale>
<asrwt>0</asrwt>
<pdfrwt beam="1">  1       21 0.17173997E+00 0.70180969E+03</pdfrwt>
<pdfrwt beam="2">  1       21 0.67886216E-01 0.70180969E+03</pdfrwt>
<totfact> 0.30694310E+02</totfact>
</mgrwt>
</event>
<event>
 6    1  0.8947013E-004  0.5379128E+03  0.7818608E-02  0.1004353E+00
         21   -1    0    0  501  502  0.00000000000E+00  0.00000000000E+00  0.23947575316E+04  0.23947575316E+04  0.00000000000E+00 0. -1.
         21   -1    0    0  502  503 -0.00000000000E+00 -0.00000000000E+00 -0.12934996000E+03  0.12934996000E+03  0.00000000000E+00 0. -1.
    9000007    2    1    2  501    0  0.79038745057E+02 -0.35086042539E+03  0.14579031435E+04  0.15538428046E+04  0.39949433591E+03 0.  0.
    9000005    1    3    3    0    0  0.12025030483E+03 -0.38815079037E+03  0.83666948152E+03  0.93012794452E+03  0.99999687468E+00 0.  0.
          4    1    3    3  501    0 -0.41211559771E+02  0.37290364979E+02  0.62123366194E+03  0.62371486010E+03  0.00000000000E+00 0.  1.
   -9000007    1    1    2    0  503 -0.79038745057E+02  0.35086042539E+03  0.80750442811E+03  0.97026468695E+03  0.40000000000E+03 0. -1.
<mgrwt>
<rscale>  2 0.53781878E+03</rscale>
<asrwt>0</asrwt>
<pdfrwt beam="1">  1       21 0.36842420E+00 0.53791278E+03</pdfrwt>
<pdfrwt beam="2">  1       21 0.19899996E-01 0.53791278E+03</pdfrwt>
<totfact> 0.23172008E+02</totfact>
</mgrwt>
</event>
<event>
 6    1  0.8947013E-004  0.5329633E+03  0.7818608E-02  0.1005584E+00
         21   -1    0    0  501  502  0.00000000000E+00  0.00000000000E+00  0.10367672881E+04  0.10367672881E+04  0.00000000000E+00 0. -1.
         21   -1    0    0  502  503 -0.00000000000E+00 -0.00000000000E+00 -0.33750252951E+03  0.33750252951E+03  0.00000000000E+00 0. -1.
    9000007    2    1    2  501    0 -0.28102181654E+03 -0.20947348214E+03  0.64939598864E+03  0.84009822037E+03  0.40149404567E+03 0.  0.
    9000005    1    3    3    0    0 -0.21884657853E+03 -0.88729740402E+02  0.66281290086E+03  0.70362542116E+03  0.99999687468E+00 0.  0.
          4    1    3    3  501    0 -0.62175238014E+02 -0.12074374174E+03 -0.13416912212E+02  0.13647279921E+03  0.00000000000E+00 0.  1.
   -9000007    1    1    2    0  503  0.28102181654E+03  0.20947348214E+03  0.49868769956E+02  0.53417159725E+03  0.40000000000E+03 0. -1.
<mgrwt>
<rscale>  2 0.53268192E+03</rscale>
<asrwt>0</asrwt>
<pdfrwt beam="1">  1       21 0.15950266E+00 0.53296329E+03</pdfrwt>
<pdfrwt beam="2">  1       21 0.51923466E-01 0.53296329E+03</pdfrwt>
<totfact> 0.72414590E+02</totfact>
</mgrwt>
</event>
<event>
 6    1  0.8947013E-004  0.4106805E+03  0.7818608E-02  0.1040282E+00
         21   -1    0    0  501  502  0.00000000000E+00  0.00000000000E+00  0.28696404720E+03  0.28696404720E+03  0.00000000000E+00 0. -1.
         21   -1    0    0  502  503 -0.00000000000E+00 -0.00000000000E+00 -0.10307778042E+04  0.10307778042E+04  0.00000000000E+00 0. -1.
    9000007    2    1    2  501    0  0.26185589841E+02 -0.81334189356E+02  0.60776323215E+02  0.41515327810E+03  0.40169334993E+03 0.  0.
    9000005    1    3    3    0    0  0.10371419441E+02 -0.21877158219E+03  0.13587176802E+03  0.25774155438E+03  0.99999687468E+00 0.  0.
          4    1    3    3  501    0  0.15814170400E+02  0.13743739284E+03 -0.75095444801E+02  0.15741172372E+03  0.00000000000E+00 0.  1.
   -9000007    1    1    2    0  503 -0.26185589841E+02  0.81334189356E+02 -0.80459008022E+03  0.90258857331E+03  0.40000000000E+03 0. -1.
<mgrwt>
<rscale>  2 0.41026585E+03</rscale>
<asrwt>0</asrwt>
<pdfrwt beam="1">  1       21 0.44148315E-01 0.41068051E+03</pdfrwt>
<pdfrwt beam="2">  1       21 0.15858120E+00 0.41068051E+03</pdfrwt>
<totfact> 0.10918079E+03</totfact>
</mgrwt>
</event>
<event>
 6    1  0.8947013E-004  0.5025941E+03  0.7818608E-02  0.1013126E+00
         21   -1    0    0  501  502  0.00000000000E+00  0.00000000000E+00  0.29336076278E+03  0.29336076278E+03  0.00000000000E+00 0. -1.
         21   -1    0    0  502  503 -0.00000000000E+00 -0.00000000000E+00 -0.87008432683E+03  0.87008432683E+03  0.00000000000E+00 0.  1.
    9000007    2    1    2  501    0  0.29638491728E+03 -0.68969856590E+02 -0.22715489462E+03  0.55123669784E+03  0.39957688946E+03 0.  0.
    9000005    1    3    3    0    0  0.79748328807E+02  0.14859423681E+03  0.11173972376E+01  0.16864842641E+03  0.99999687468E+00 0.  0.
          4    1    3    3  501    0  0.21663658847E+03 -0.21756409340E+03 -0.22827229186E+03  0.38258827143E+03  0.00000000000E+00 0.  1.
   -9000007    1    1    2    0  503 -0.29638491728E+03  0.68969856590E+02 -0.34956866943E+03  0.61220839177E+03  0.40000000000E+03 0.  1.
<mgrwt>
<rscale>  2 0.50250994E+03</rscale>
<asrwt>0</asrwt>
<pdfrwt beam="1">  1       21 0.45132426E-01 0.50259413E+03</pdfrwt>
<pdfrwt beam="2">  1       21 0.13385912E+00 0.50259413E+03</pdfrwt>
<totfact> 0.15850755E+03</totfact>
</mgrwt>
</event>
<event>
 6    1  0.8947013E-004  0.5096826E+03  0.7818608E-02  0.1011286E+00
         21   -1    0    0  501  502  0.00000000000E+00  0.00000000000E+00  0.20298364129E+04  0.20298364129E+04  0.00000000000E+00 0. -1.
         21   -1    0    0  502  503 -0.00000000000E+00 -0.00000000000E+00 -0.26759779398E+03  0.26759779398E+03  0.00000000000E+00 0. -1.
    9000007    2    1    2  501    0 -0.29110272666E+03 -0.12261938632E+03  0.17108857756E+04  0.17851711633E+04  0.39991203242E+03 0.  0.
    9000005    1    3    3    0    0 -0.38819398915E+03 -0.76570182986E+02  0.12160724030E+04  0.12788239345E+04  0.99999687468E+00 0.  0.
          4    1    3    3  501    0  0.97091262494E+02 -0.46049203331E+02  0.49481337258E+03  0.50634722875E+03  0.00000000000E+00 0.  1.
   -9000007    1    1    2    0  503  0.29110272666E+03  0.12261938632E+03  0.51352843362E+02  0.51226304365E+03  0.40000000000E+03 0. -1.
<mgrwt>
<rscale>  2 0.50966530E+03</rscale>
<asrwt>0</asrwt>
<pdfrwt beam="1">  1       21 0.31228252E+00 0.50968256E+03</pdfrwt>
<pdfrwt beam="2">  1       21 0.41168893E-01 0.50968256E+03</pdfrwt>
<totfact> 0.12297941E+02</totfact>
</mgrwt>
</event>
<event>
 6    1  0.8947013E-004  0.4436174E+03  0.7818608E-02  0.1029669E+00
         21   -1    0    0  501  502  0.00000000000E+00  0.00000000000E+00  0.53891218156E+03  0.53891218156E+03  0.00000000000E+00 0. -1.
         21   -1    0    0  502  503 -0.00000000000E+00 -0.00000000000E+00 -0.42835214257E+03  0.42835214257E+03  0.00000000000E+00 0. -1.
    9000007    2    1    2  501    0  0.15187505073E+03  0.11587099843E+03  0.24145053880E+03  0.50506908156E+03  0.40038018825E+03 0.  0.
    9000005    1    3    3    0    0  0.98598183491E+02  0.25369933933E+03  0.23088871079E+03  0.35692513687E+03  0.99999687468E+00 0.  0.
          4    1    3    3  501    0  0.53276867240E+02 -0.13782834090E+03  0.10561828011E+02  0.14814394469E+03  0.00000000000E+00 0.  1.
   -9000007    1    1    2    0  503 -0.15187505073E+03 -0.11587099843E+03 -0.13089049982E+03  0.46219524257E+03  0.40000000000E+03 0. -1.
<mgrwt>
<rscale>  2 0.44353162E+03</rscale>
<asrwt>0</asrwt>
<pdfrwt beam="1">  1       21 0.82909566E-01 0.44361742E+03</pdfrwt>
<pdfrwt beam="2">  1       21 0.65900330E-01 0.44361742E+03</pdfrwt>
<totfact> 0.23289304E+03</totfact>
</mgrwt>
</event>
<event>
 6    1  0.8947013E-004  0.4044764E+03  0.7818608E-02  0.1042591E+00
         21   -1    0    0  501  502  0.00000000000E+00  0.00000000000E+00  0.16391612581E+03  0.16391612581E+03  0.00000000000E+00 0.  1.
         21   -1    0    0  502  503 -0.00000000000E+00 -0.00000000000E+00 -0.12510432976E+04  0.12510432976E+04  0.00000000000E+00 0.  1.
    9000007    2    1    2  501    0  0.31980334821E+00 -0.17676349469E+02 -0.87013407946E+03  0.95954910544E+03  0.40408985870E+03 0.  0.
    9000005    1    3    3    0    0  0.16135798384E+03  0.45932376559E+02 -0.17203451073E+03  0.24029784652E+03  0.99999687468E+00 0.  0.
          4    1    3    3  501    0 -0.16103818049E+03 -0.63608726027E+02 -0.69809956873E+03  0.71925125892E+03  0.00000000000E+00 0.  1.
   -9000007    1    1    2    0  503 -0.31980334821E+00  0.17676349469E+02 -0.21699309233E+03  0.45541031798E+03  0.40000000000E+03 0.  1.
<mgrwt>
<rscale>  2 0.40345104E+03</rscale>
<asrwt>0</asrwt>
<pdfrwt beam="1">  1       21 0.25217865E-01 0.40447641E+03</pdfrwt>
<pdfrwt beam="2">  1       21 0.19246820E+00 0.40447641E+03</pdfrwt>
<totfact> 0.19338082E+03</totfact>
</mgrwt>
</event>
<event>
 6    1  0.8947013E-004  0.4480484E+03  0.7818608E-02  0.1028344E+00
         21   -1    0    0  501  502  0.00000000000E+00  0.00000000000E+00  0.46095558141E+03  0.46095558141E+03  0.00000000000E+00 0. -1.
         21   -1    0    0  502  503 -0.00000000000E+00 -0.00000000000E+00 -0.60025869042E+03  0.60025869042E+03  0.00000000000E+00 0. -1.
    9000007    2    1    2  501    0 -0.64552945414E+01  0.20175657664E+03  0.20878912955E+03  0.49383821171E+03  0.39941944329E+03 0.  0.
    9000005    1    3    3    0    0 -0.82089353464E+02  0.13005204777E+03  0.31157078206E+03  0.34746157961E+03  0.99999687468E+00 0.  0.
          4    1    3    3  501    0  0.75634058923E+02  0.71704528876E+02 -0.10278165251E+03  0.14637663209E+03  0.00000000000E+00 0.  1.
   -9000007    1    1    2    0  503  0.64552945414E+01 -0.20175657664E+03 -0.34809223857E+03  0.56737606012E+03  0.40000000000E+03 0. -1.
<mgrwt>
<rscale>  2 0.44791881E+03</rscale>
<asrwt>0</asrwt>
<pdfrwt beam="1">  1       21 0.70916244E-01 0.44804842E+03</pdfrwt>
<pdfrwt beam="2">  1       21 0.92347490E-01 0.44804842E+03</pdfrwt>
<totfact> 0.15303443E+03</totfact>
</mgrwt>
</event>
<event>
 6    1  0.8947013E-004  0.4189274E+03  0.7818608E-02  0.1037466E+00
         21   -1    0    0  501  502  0.00000000000E+00  0.00000000000E+00  0.27422655915E+03  0.27422655915E+03  0.00000000000E+00 0. -1.
         21   -1    0    0  502  503 -0.00000000000E+00 -0.00000000000E+00 -0.78610795515E+03  0.78610795515E+03  0.00000000000E+00 0. -1.
    9000007    2    1    2  501    0 -0.12118947395E+03  0.28518683439E+02 -0.26473782471E+02  0.41914752506E+03  0.39935395667E+03 0.  0.
    9000005    1    3    3    0    0  0.11275764428E+02  0.19580195256E+03  0.30027892031E+02  0.19841426810E+03  0.99999687468E+00 0.  0.
          4    1    3    3  501    0 -0.13246523838E+03 -0.16728326913E+03 -0.56501674502E+02  0.22073325696E+03  0.00000000000E+00 0.  1.
   -9000007    1    1    2    0  503  0.12118947395E+03 -0.28518683439E+02 -0.48540761353E+03  0.64118698924E+03  0.40000000000E+03 0. -1.
<mgrwt>
<rscale>  2 0.41877316E+03</rscale>
<asrwt>0</asrwt>
<pdfrwt beam="1">  1       21 0.42188701E-01 0.41892744E+03</pdfrwt>
<pdfrwt beam="2">  1       21 0.12093969E+00 0.41892744E+03</pdfrwt>
<totfact> 0.24480115E+03</totfact>
</mgrwt>
</event>
<event>
 6    1  0.8947013E-004  0.4250532E+03  0.7818608E-02  0.1035443E+00
         21   -1    0    0  501  502  0.00000000000E+00  0.00000000000E+00  0.58238621785E+03  0.58238621785E+03  0.00000000000E+00 0. -1.
         21   -1    0    0  502  503 -0.00000000000E+00 -0.00000000000E+00 -0.32089583214E+03  0.32089583214E+03  0.00000000000E+00 0. -1.
    9000007    2    1    2  501    0 -0.13429035086E+03 -0.51345532051E+02  0.48065583747E+02  0.42765571758E+03  0.39988604682E+03 0.  0.
    9000005    1    3    3    0    0  0.13933226244E+03 -0.28871322526E+02 -0.22806321454E+02  0.14411162657E+03  0.99999687468E+00 0.  0.
          4    1    3    3  501    0 -0.27362261329E+03 -0.22474209525E+02  0.70871905201E+02  0.28354409101E+03  0.00000000000E+00 0.  1.
   -9000007    1    1    2    0  503  0.13429035086E+03  0.51345532051E+02  0.21342480196E+03  0.47562633242E+03  0.40000000000E+03 0. -1.
<mgrwt>
<rscale>  2 0.42502643E+03</rscale>
<asrwt>0</asrwt>
<pdfrwt beam="1">  1       21 0.89597880E-01 0.42505325E+03</pdfrwt>
<pdfrwt beam="2">  1       21 0.49368590E-01 0.42505325E+03</pdfrwt>
<totfact> 0.36604945E+03</totfact>
</mgrwt>
</event>
<event>
 6    1  0.8947013E-004  0.4105526E+03  0.7818608E-02  0.1040216E+00
         21   -1    0    0  501  502  0.00000000000E+00  0.00000000000E+00  0.36223561747E+03  0.36223561747E+03  0.00000000000E+00 0. -1.
         21   -1    0    0  502  503 -0.00000000000E+00 -0.00000000000E+00 -0.20262019889E+04  0.20262019889E+04  0.00000000000E+00 0. -1.
    9000007    2    1    2  501    0 -0.17579878475E+02 -0.90798428639E+02  0.21640008283E+03  0.46377363335E+03  0.39962930369E+03 0.  0.
    9000005    1    3    3    0    0 -0.23128999788E+01  0.10553680092E+03  0.24311133303E+03  0.26504242320E+03  0.99999687468E+00 0.  0.
          4    1    3    3  501    0 -0.15266978497E+02 -0.19633522956E+03 -0.26711250201E+02  0.19873121015E+03  0.00000000000E+00 0.  1.
   -9000007    1    1    2    0  503  0.17579878475E+02  0.90798428639E+02 -0.18803664542E+04  0.19246639730E+04  0.40000000000E+03 0. -1.
<mgrwt>
<rscale>  2 0.41046224E+03</rscale>
<asrwt>0</asrwt>
<pdfrwt beam="1">  1       21 0.55728556E-01 0.41055256E+03</pdfrwt>
<pdfrwt beam="2">  1       21 0.31172339E+00 0.41055256E+03</pdfrwt>
<totfact> 0.69618384E+01</totfact>
</mgrwt>
</event>
<event>
 6    1  0.8947013E-004  0.5355649E+03  0.7818608E-02  0.1004934E+00
         21   -1    0    0  501  502  0.00000000000E+00  0.00000000000E+00  0.24475658292E+04  0.24475658292E+04  0.00000000000E+00 0. -1.
         21   -1    0    0  502  503 -0.00000000000E+00 -0.00000000000E+00 -0.55812030734E+03  0.55812030734E+03  0.00000000000E+00 0.  1.
    9000007    2    1    2  501    0  0.34269289525E+03 -0.92874747423E+02  0.22808716002E+04  0.23429052422E+04  0.40095583042E+03 0.  0.
    9000005    1    3    3    0    0  0.38017569205E+03 -0.18641034725E+03  0.20046156574E+04  0.20488453598E+04  0.99999687468E+00 0.  0.
          4    1    3    3  501    0 -0.37482796807E+02  0.93535599831E+02  0.27625594287E+03  0.29405988245E+03  0.00000000000E+00 0.  1.
   -9000007    1    1    2    0  503 -0.34269289525E+03  0.92874747423E+02 -0.39142607834E+03  0.66278089439E+03  0.40000000000E+03 0.  1.
<mgrwt>
<rscale>  2 0.53538596E+03</rscale>
<asrwt>0</asrwt>
<pdfrwt beam="1">  1       21 0.37654858E+00 0.53556486E+03</pdfrwt>
<pdfrwt beam="2">  1       21 0.85864665E-01 0.53556486E+03</pdfrwt>
<totfact> 0.96454233E+00</totfact>
</mgrwt>
</event>
<event>
 6    1  0.8947013E-004  0.4079099E+03  0.7818608E-02  0.1041193E+00
         21   -1    0    0  501  502  0.00000000000E+00  0.00000000000E+00  0.59187346975E+03  0.59187346975E+03  0.00000000000E+00 0. -1.
         21   -1    0    0  502  503 -0.00000000000E+00 -0.00000000000E+00 -0.11749816487E+04  0.11749816487E+04  0.00000000000E+00 0. -1.
    9000007    2    1    2  501    0 -0.78901235159E+02 -0.12849590696E+02  0.47950992972E+03  0.62863380352E+03  0.39857266507E+03 0.  0.
    9000005    1    3    3    0    0 -0.84756729552E+02 -0.10452767150E+03  0.51337867411E+03  0.53072441091E+03  0.99999687468E+00 0.  0.
          4    1    3    3  501    0  0.58554943929E+01  0.91678080808E+02 -0.33868744387E+02  0.97909392612E+02  0.00000000000E+00 0.  1.
   -9000007    1    1    2    0  503  0.78901235159E+02  0.12849590696E+02 -0.10626181087E+04  0.11382213149E+04  0.40000000000E+03 0. -1.
<mgrwt>
<rscale>  2 0.40755960E+03</rscale>
<asrwt>0</asrwt>
<pdfrwt beam="1">  1       21 0.91057457E-01 0.40790994E+03</pdfrwt>
<pdfrwt beam="2">  1       21 0.18076641E+00 0.40790994E+03</pdfrwt>
<totfact> 0.15186625E+02</totfact>
</mgrwt>
</event>
<event>
 6    1  0.8947013E-004  0.4156431E+03  0.7818608E-02  0.1038523E+00
         21   -1    0    0  501  502  0.00000000000E+00  0.00000000000E+00  0.32403752610E+03  0.32403752610E+03  0.00000000000E+00 0. -1.
         21   -1    0    0  502  503 -0.00000000000E+00 -0.00000000000E+00 -0.54571232443E+03  0.54571232443E+03  0.00000000000E+00 0. -1.
    9000007    2    1    2  501    0  0.42819897057E+02  0.10452590926E+03 -0.17798222000E+03  0.45181654163E+03  0.39962645979E+03 0.  0.
    9000005    1    3    3    0    0  0.12741513527E+03 -0.81761594722E+02 -0.19459007909E+03  0.24654791409E+03  0.99999687468E+00 0.  0.
          4    1    3    3  501    0 -0.84595238213E+02  0.18628750398E+03  0.16607859091E+02  0.20526862754E+03  0.00000000000E+00 0.  1.
   -9000007    1    1    2    0  503 -0.42819897057E+02 -0.10452590926E+03 -0.43692578331E+02  0.41793330890E+03  0.40000000000E+03 0. -1.
<mgrwt>
<rscale>  2 0.41555323E+03</rscale>
<asrwt>0</asrwt>
<pdfrwt beam="1">  1       21 0.49851927E-01 0.41564313E+03</pdfrwt>
<pdfrwt beam="2">  1       21 0.83955742E-01 0.41564313E+03</pdfrwt>
<totfact> 0.41910276E+03</totfact>
</mgrwt>
</event>
<event>
 6    1  0.8947013E-004  0.4511751E+03  0.7818608E-02  0.1027471E+00
         21   -1    0    0  501  502  0.00000000000E+00  0.00000000000E+00  0.33595403197E+03  0.33595403197E+03  0.00000000000E+00 0.  1.
         21   -1    0    0  502  503 -0.00000000000E+00 -0.00000000000E+00 -0.74241174550E+03  0.74241174550E+03  0.00000000000E+00 0.  1.
    9000007    2    1    2  501    0 -0.18435874604E+03  0.91510163433E+02  0.29226400371E+02  0.45212069417E+03  0.40149306640E+03 0.  0.
    9000005    1    3    3    0    0  0.41431270630E+02  0.64363123372E+02  0.16875972674E+03  0.18531056959E+03  0.99999687468E+00 0.  0.
          4    1    3    3  501    0 -0.22579001667E+03  0.27147040061E+02 -0.13953332637E+03  0.26681012458E+03  0.00000000000E+00 0.  1.
   -9000007    1    1    2    0  503  0.18435874604E+03 -0.91510163433E+02 -0.43568411390E+03  0.62624508330E+03  0.40000000000E+03 0.  1.
<mgrwt>
<rscale>  2 0.45084266E+03</rscale>
<asrwt>0</asrwt>
<pdfrwt beam="1">  1       21 0.51685236E-01 0.45117507E+03</pdfrwt>
<pdfrwt beam="2">  1       21 0.11421719E+00 0.45117507E+03</pdfrwt>
<totfact> 0.18209556E+03</totfact>
</mgrwt>
</event>
<event>
 6    1  0.8947013E-004  0.4125911E+03  0.7818608E-02  0.1039626E+00
         21   -1    0    0  501  502  0.00000000000E+00  0.00000000000E+00  0.13766115129E+04  0.13766115129E+04  0.00000000000E+00 0.  1.
         21   -1    0    0  502  503 -0.00000000000E+00 -0.00000000000E+00 -0.13125271560E+03  0.13125271560E+03  0.00000000000E+00 0.  1.
    9000007    2    1    2  501    0 -0.69046153861E+02  0.73918953142E+02  0.80809011626E+03  0.90666934960E+03  0.39850757898E+03 0.  0.
    9000005    1    3    3    0    0 -0.21685737702E+03  0.11520786745E+03  0.59833200004E+03  0.64676282898E+03  0.99999687468E+00 0.  0.
          4    1    3    3  501    0  0.14781122316E+03 -0.41288914310E+02  0.20975811622E+03  0.25990652062E+03  0.00000000000E+00 0.  1.
   -9000007    1    1    2    0  503  0.69046153861E+02 -0.73918953142E+02  0.43726868104E+03  0.60119487890E+03  0.40000000000E+03 0.  1.
<mgrwt>
<rscale>  2 0.41222891E+03</rscale>
<asrwt>0</asrwt>
<pdfrwt beam="1">  1       21 0.21178638E+00 0.41259106E+03</pdfrwt>
<pdfrwt beam="2">  1       21 0.20192726E-01 0.41259106E+03</pdfrwt>
<totfact> 0.22003201E+03</totfact>
</mgrwt>
</event>
<event>
 6    1  0.8947013E-004  0.5747249E+03  0.7818608E-02  0.9959363E-01
         21   -1    0    0  501  502  0.00000000000E+00  0.00000000000E+00  0.57744234204E+03  0.57744234204E+03  0.00000000000E+00 0. -1.
         21   -1    0    0  502  503 -0.00000000000E+00 -0.00000000000E+00 -0.11520673261E+04  0.11520673261E+04  0.00000000000E+00 0. -1.
    9000007    2    1    2  501    0  0.38420715206E+03  0.15064391286E+03  0.32638931347E+03  0.66080227668E+03  0.39977611327E+03 0.  0.
    9000005    1    3    3    0    0  0.41997949478E+03  0.98330832921E+02  0.38223722542E+03  0.57633152372E+03  0.99999687468E+00 0.  0.
          4    1    3    3  501    0 -0.35772342723E+02  0.52313079938E+02 -0.55847911952E+02  0.84470752961E+02  0.00000000000E+00 0.  1.
   -9000007    1    1    2    0  503 -0.38420715206E+03 -0.15064391286E+03 -0.90101429750E+03  0.10687073914E+04  0.40000000000E+03 0. -1.
<mgrwt>
<rscale>  2 0.57468596E+03</rscale>
<asrwt>0</asrwt>
<pdfrwt beam="1">  1       21 0.88837285E-01 0.57472491E+03</pdfrwt>
<pdfrwt beam="2">  1       21 0.17724112E+00 0.57472491E+03</pdfrwt>
<totfact> 0.15704858E+02</totfact>
</mgrwt>
</event>
<event>
 6    1  0.8947013E-004  0.4352774E+03  0.7818608E-02  0.1032223E+00
         21   -1    0    0  501  502  0.00000000000E+00  0.00000000000E+00  0.29546764814E+03  0.29546764814E+03  0.00000000000E+00 0. -1.
         21   -1    0    0  502  503 -0.00000000000E+00 -0.00000000000E+00 -0.68184228421E+03  0.68184228421E+03  0.00000000000E+00 0.  1.
    9000007    2    1    2  501    0  0.49978631210E+02  0.16422103205E+03 -0.73428601246E+02  0.44121140442E+03  0.39976159516E+03 0.  0.
    9000005    1    3    3    0    0  0.19670397264E+03  0.42561392959E+02  0.58283065982E+02  0.20952766117E+03  0.99999687468E+00 0.  0.
          4    1    3    3  501    0 -0.14672534143E+03  0.12165963909E+03 -0.13171166723E+03  0.23168374325E+03  0.00000000000E+00 0.  1.
   -9000007    1    1    2    0  503 -0.49978631210E+02 -0.16422103205E+03 -0.31294603482E+03  0.53609852794E+03  0.40000000000E+03 0.  1.
<mgrwt>
<rscale>  2 0.43522262E+03</rscale>
<asrwt>0</asrwt>
<pdfrwt beam="1">  1       21 0.45456562E-01 0.43527740E+03</pdfrwt>
<pdfrwt beam="2">  1       21 0.10489881E+00 0.43527740E+03</pdfrwt>
<totfact> 0.29687152E+03</totfact>
</mgrwt>
</event>
<event>
 6    1  0.8947013E-004  0.4046284E+03  0.7818608E-02  0.1042197E+00
         21   -1    0    0  501  502  0.00000000000E+00  0.00000000000E+00  0.62477469109E+03  0.62477469109E+03  0.00000000000E+00 0. -1.
         21   -1    0    0  502  503 -0.00000000000E+00 -0.00000000000E+00 -0.45933789934E+03  0.45933789934E+03  0.00000000000E+00 0. -1.
    9000007    2    1    2  501    0 -0.62396508898E+00 -0.60399374141E+02  0.43802097778E+03  0.59631077391E+03  0.40009459928E+03 0.  0.
    9000005    1    3    3    0    0 -0.13819562097E+03 -0.19736793270E+02  0.43059939863E+03  0.45266368615E+03  0.99999687468E+00 0.  0.
          4    1    3    3  501    0  0.13757165588E+03 -0.40662580871E+02  0.74215791503E+01  0.14364708776E+03  0.00000000000E+00 0.  1.
   -9000007    1    1    2    0  503  0.62396508898E+00  0.60399374141E+02 -0.27258418603E+03  0.48780181652E+03  0.40000000000E+03 0. -1.
<mgrwt>
<rscale>  2 0.40460504E+03</rscale>
<asrwt>0</asrwt>
<pdfrwt beam="1">  1       21 0.96119183E-01 0.40462842E+03</pdfrwt>
<pdfrwt beam="2">  1       21 0.70667369E-01 0.40462842E+03</pdfrwt>
<totfact> 0.14272695E+03</totfact>
</mgrwt>
</event>
<event>
 6    1  0.8947013E-004  0.4116624E+03  0.7818608E-02  0.1039835E+00
         21   -1    0    0  501  502  0.00000000000E+00  0.00000000000E+00  0.30857582643E+03  0.30857582643E+03  0.00000000000E+00 0. -1.
         21   -1    0    0  502  503 -0.00000000000E+00 -0.00000000000E+00 -0.57775607169E+03  0.57775607169E+03  0.00000000000E+00 0. -1.
    9000007    2    1    2  501    0  0.23774322588E+02 -0.93246422123E+02 -0.35509308911E+02  0.41319109440E+03  0.40025723706E+03 0.  0.
    9000005    1    3    3    0    0 -0.27281579450E+02 -0.20686317437E+03  0.98063416774E+02  0.23055171045E+03  0.99999687468E+00 0.  0.
          4    1    3    3  501    0  0.51055902039E+02  0.11361675225E+03 -0.13357272569E+03  0.18263938395E+03  0.00000000000E+00 0.  1.
   -9000007    1    1    2    0  503 -0.23774322588E+02  0.93246422123E+02 -0.23367093635E+03  0.47314080372E+03  0.40000000000E+03 0. -1.
<mgrwt>
<rscale>  2 0.41159991E+03</rscale>
<asrwt>0</asrwt>
<pdfrwt beam="1">  1       21 0.47473204E-01 0.41166245E+03</pdfrwt>
<pdfrwt beam="2">  1       21 0.88885550E-01 0.41166245E+03</pdfrwt>
<totfact> 0.40718941E+03</totfact>
</mgrwt>
</event>
<event>
 6    1  0.8947013E-004  0.4047484E+03  0.7818608E-02  0.1042184E+00
         21   -1    0    0  501  502  0.00000000000E+00  0.00000000000E+00  0.64940092679E+03  0.64940092679E+03  0.00000000000E+00 0. -1.
         21   -1    0    0  502  503 -0.00000000000E+00 -0.00000000000E+00 -0.47577872297E+03  0.47577872297E+03  0.00000000000E+00 0. -1.
    9000007    2    1    2  501    0 -0.35679792959E+02  0.50480023866E+02  0.47261994822E+03  0.62196902628E+03  0.39956798391E+03 0.  0.
    9000005    1    3    3    0    0 -0.20110500433E+03  0.42234010511E+02  0.38049993784E+03  0.43244437457E+03  0.99999687468E+00 0.  0.
          4    1    3    3  501    0  0.16542521137E+03  0.82460133551E+01  0.92120010375E+02  0.18952465171E+03  0.00000000000E+00 0.  1.
   -9000007    1    1    2    0  503  0.35679792959E+02 -0.50480023866E+02 -0.29899774440E+03  0.50321062349E+03  0.40000000000E+03 0. -1.
<mgrwt>
<rscale>  2 0.40464164E+03</rscale>
<asrwt>0</asrwt>
<pdfrwt beam="1">  1       21 0.99907835E-01 0.40474842E+03</pdfrwt>
<pdfrwt beam="2">  1       21 0.73196727E-01 0.40474842E+03</pdfrwt>
<totfact> 0.12011208E+03</totfact>
</mgrwt>
</event>
<event>
 6    1  0.8947013E-004  0.4245772E+03  0.7818608E-02  0.1035594E+00
         21   -1    0    0  501  502  0.00000000000E+00  0.00000000000E+00  0.40592961914E+03  0.40592961914E+03  0.00000000000E+00 0. -1.
         21   -1    0    0  502  503 -0.00000000000E+00 -0.00000000000E+00 -0.51063076121E+03  0.51063076121E+03  0.00000000000E+00 0. -1.
    9000007    2    1    2  501    0  0.10219060964E+03  0.98726440586E+02  0.11320434098E+03  0.43940984822E+03  0.40009494015E+03 0.  0.
    9000005    1    3    3    0    0 -0.83753515634E+02  0.19180211368E+03  0.16088311112E+02  0.20991078090E+03  0.99999687468E+00 0.  0.
          4    1    3    3  501    0  0.18594412527E+03 -0.93075673090E+02  0.97116029867E+02  0.22949906732E+03  0.00000000000E+00 0.  1.
   -9000007    1    1    2    0  503 -0.10219060964E+03 -0.98726440586E+02 -0.21790548305E+03  0.47715053213E+03  0.40000000000E+03 0. -1.
<mgrwt>
<rscale>  2 0.42455482E+03</rscale>
<asrwt>0</asrwt>
<pdfrwt beam="1">  1       21 0.62450711E-01 0.42457719E+03</pdfrwt>
<pdfrwt beam="2">  1       21 0.78558579E-01 0.42457719E+03</pdfrwt>
<totfact> 0.29929810E+03</totfact>
</mgrwt>
</event>
<event>
 6    1  0.8947013E-004  0.4148881E+03  0.7818608E-02  0.1038822E+00
         21   -1    0    0  501  502  0.00000000000E+00  0.00000000000E+00  0.65497755071E+03  0.65497755071E+03  0.00000000000E+00 0. -1.
         21   -1    0    0  502  503 -0.00000000000E+00 -0.00000000000E+00 -0.27371537619E+03  0.27371537619E+03  0.00000000000E+00 0. -1.
    9000007    2    1    2  501    0 -0.96742185286E+02 -0.52660060733E+02  0.28565649285E+03  0.50293175115E+03  0.39900950114E+03 0.  0.
    9000005    1    3    3    0    0  0.69313767863E+02 -0.13886925062E+03 -0.72372310219E+01  0.15537839197E+03  0.99999687468E+00 0.  0.
          4    1    3    3  501    0 -0.16605595315E+03  0.86209189890E+02  0.29289372387E+03  0.34755335918E+03  0.00000000000E+00 0.  1.
   -9000007    1    1    2    0  503  0.96742185286E+02  0.52660060733E+02  0.95605681665E+02  0.42576117575E+03  0.40000000000E+03 0. -1.
<mgrwt>
<rscale>  2 0.41464917E+03</rscale>
<asrwt>0</asrwt>
<pdfrwt beam="1">  1       21 0.10076578E+00 0.41488810E+03</pdfrwt>
<pdfrwt beam="2">  1       21 0.42110058E-01 0.41488810E+03</pdfrwt>
<totfact> 0.38707565E+03</totfact>
</mgrwt>
</event>
<event>
 6    1  0.8947013E-004  0.4617441E+03  0.7818608E-02  0.1024326E+00
         21   -1    0    0  501  502  0.00000000000E+00  0.00000000000E+00  0.38179683775E+03  0.38179683775E+03  0.00000000000E+00 0. -1.
         21   -1    0    0  502  503 -0.00000000000E+00 -0.00000000000E+00 -0.89972326774E+03  0.89972326774E+03  0.00000000000E+00 0. -1.
    9000007    2    1    2  501    0  0.19166387808E+03  0.12834545254E+03  0.13628164380E+03  0.48077307854E+03  0.39920229115E+03 0.  0.
    9000005    1    3    3    0    0  0.16764737572E+03  0.26536320776E+03  0.13493413237E+03  0.34165991087E+03  0.99999687468E+00 0.  0.
          4    1    3    3  501    0  0.24016502357E+02 -0.13701775522E+03  0.13475114305E+01  0.13911316767E+03  0.00000000000E+00 0.  1.
   -9000007    1    1    2    0  503 -0.19166387808E+03 -0.12834545254E+03 -0.65420807379E+03  0.80074702695E+03  0.40000000000E+03 0. -1.
<mgrwt>
<rscale>  2 0.46157127E+03</rscale>
<asrwt>0</asrwt>
<pdfrwt beam="1">  1       21 0.58737975E-01 0.46174408E+03</pdfrwt>
<pdfrwt beam="2">  1       21 0.13841896E+00 0.46174408E+03</pdfrwt>
<totfact> 0.83875356E+02</totfact>
</mgrwt>
</event>
<event>
 6    1  0.8947013E-004  0.4107066E+03  0.7818608E-02  0.1040244E+00
         21   -1    0    0  501  502  0.00000000000E+00  0.00000000000E+00  0.12747633317E+04  0.12747633317E+04  0.00000000000E+00 0. -1.
         21   -1    0    0  502  503 -0.00000000000E+00 -0.00000000000E+00 -0.16863867703E+03  0.16863867703E+03  0.00000000000E+00 0.  1.
    9000007    2    1    2  501    0 -0.31596583490E+02  0.81269266611E+02  0.89060851390E+03  0.98074636494E+03  0.40134382958E+03 0.  0.
    9000005    1    3    3    0    0  0.51890251436E+02  0.19287934398E+02  0.87363838906E+03  0.87539114540E+03  0.99999687468E+00 0.  0.
          4    1    3    3  501    0 -0.83486834926E+02  0.61981332213E+02  0.16970124837E+02  0.10535521955E+03  0.00000000000E+00 0.  1.
   -9000007    1    1    2    0  503  0.31596583490E+02 -0.81269266611E+02  0.21551614076E+03  0.46265564377E+03  0.40000000000E+03 0.  1.
<mgrwt>
<rscale>  2 0.41037793E+03</rscale>
<asrwt>0</asrwt>
<pdfrwt beam="1">  1       21 0.19611743E+00 0.41070660E+03</pdfrwt>
<pdfrwt beam="2">  1       21 0.25944413E-01 0.41070660E+03</pdfrwt>
<totfact> 0.17237878E+03</totfact>
</mgrwt>
</event>
<event>
 6    1  0.8947013E-004  0.5366994E+03  0.7818608E-02  0.1004662E+00
         21   -1    0    0  501  502  0.00000000000E+00  0.00000000000E+00  0.20631582337E+04  0.20631582337E+04  0.00000000000E+00 0. -1.
         21   -1    0    0  502  503 -0.00000000000E+00 -0.00000000000E+00 -0.17900730955E+03  0.17900730955E+03  0.00000000000E+00 0.  1.
    9000007    2    1    2  501    0 -0.33539965362E+03  0.12167372753E+03  0.14696743292E+04  0.15646050135E+04  0.40093489618E+03 0.  0.
    9000005    1    3    3    0    0 -0.23000514109E+03  0.12724665098E+03  0.14265953809E+04  0.14506100289E+04  0.99999687468E+00 0.  0.
          4    1    3    3  501    0 -0.10539451253E+03 -0.55729234494E+01  0.43078948302E+02  0.11399498469E+03  0.00000000000E+00 0.  1.
   -9000007    1    1    2    0  503  0.33539965362E+03 -0.12167372753E+03  0.41447659498E+03  0.67756052970E+03  0.40000000000E+03 0.  1.
<mgrwt>
<rscale>  2 0.53652477E+03</rscale>
<asrwt>0</asrwt>
<pdfrwt beam="1">  1       21 0.31740894E+00 0.53669937E+03</pdfrwt>
<pdfrwt beam="2">  1       21 0.27539587E-01 0.53669937E+03</pdfrwt>
<totfact> 0.25444768E+02</totfact>
</mgrwt>
</event>
<event>
 6    1  0.8947013E-004  0.5275137E+03  0.7818608E-02  0.1006838E+00
         21   -1    0    0  501  502  0.00000000000E+00  0.00000000000E+00  0.21228115928E+03  0.21228115928E+03  0.00000000000E+00 0.  1.
         21   -1    0    0  502  503 -0.00000000000E+00 -0.00000000000E+00 -0.13613530718E+04  0.13613530718E+04  0.00000000000E+00 0.  1.
    9000007    2    1    2  501    0  0.20234216445E+03  0.27807969436E+03 -0.72612558027E+03  0.89750238900E+03  0.39997688934E+03 0.  0.
    9000005    1    3    3    0    0  0.32754319047E+02  0.19946993355E+03 -0.67369321308E+03  0.70336665058E+03  0.99999687468E+00 0.  0.
          4    1    3    3  501    0  0.16958784540E+03  0.78609760806E+02 -0.52432367196E+02  0.19413573842E+03  0.00000000000E+00 0.  1.
   -9000007    1    1    2    0  503 -0.20234216445E+03 -0.27807969436E+03 -0.42294633230E+03  0.67613184212E+03  0.40000000000E+03 0.  1.
<mgrwt>
<rscale>  2 0.52750929E+03</rscale>
<asrwt>0</asrwt>
<pdfrwt beam="1">  1       21 0.32658640E-01 0.52751367E+03</pdfrwt>
<pdfrwt beam="2">  1       21 0.20943894E+00 0.52751367E+03</pdfrwt>
<totfact> 0.84728137E+02</totfact>
</mgrwt>
</event>
<event>
 6    1  0.8947013E-004  0.5289312E+03  0.7818608E-02  0.1006531E+00
         21   -1    0    0  501  502  0.00000000000E+00  0.00000000000E+00  0.95389582366E+03  0.95389582366E+03  0.00000000000E+00 0.  1.
         21   -1    0    0  502  503 -0.00000000000E+00 -0.00000000000E+00 -0.31030035820E+03  0.31030035820E+03  0.00000000000E+00 0.  1.
    9000007    2    1    2  501    0 -0.23763928899E+03  0.25158662754E+03  0.47116286600E+03  0.70786780384E+03  0.39914172745E+03 0.  0.
    9000005    1    3    3    0    0 -0.10210922500E+03 -0.88928041470E+02  0.38359855785E+02  0.14073723360E+03  0.99999687468E+00 0.  0.
          4    1    3    3  501    0 -0.13553006399E+03  0.34051466901E+03  0.43280301021E+03  0.56713057025E+03  0.00000000000E+00 0.  1.
   -9000007    1    1    2    0  503  0.23763928899E+03 -0.25158662754E+03  0.17243259946E+03  0.55632837802E+03  0.40000000000E+03 0.  1.
<mgrwt>
<rscale>  2 0.52876898E+03</rscale>
<asrwt>0</asrwt>
<pdfrwt beam="1">  1       21 0.14675320E+00 0.52893125E+03</pdfrwt>
<pdfrwt beam="2">  1       21 0.47738517E-01 0.52893125E+03</pdfrwt>
<totfact> 0.10911969E+03</totfact>
</mgrwt>
</event>
<event>
 6    1  0.8947013E-004  0.4676371E+03  0.7818608E-02  0.1022627E+00
         21   -1    0    0  501  502  0.00000000000E+00  0.00000000000E+00  0.15234161454E+04  0.15234161454E+04  0.00000000000E+00 0.  1.
         21   -1    0    0  502  503 -0.00000000000E+00 -0.00000000000E+00 -0.15933284840E+03  0.15933284840E+03  0.00000000000E+00 0.  1.
    9000007    2    1    2  501    0  0.58298653759E+02  0.23512921658E+03  0.94788024841E+03  0.10567222698E+04  0.39937514774E+03 0.  0.
    9000005    1    3    3    0    0 -0.14459873355E+03 -0.81557859722E+01  0.37655880129E+03  0.40345116361E+03  0.99999687468E+00 0.  0.
          4    1    3    3  501    0  0.20289738731E+03  0.24328500255E+03  0.57132144711E+03  0.65327110618E+03  0.00000000000E+00 0.  1.
   -9000007    1    1    2    0  503 -0.58298653759E+02 -0.23512921658E+03  0.41620304862E+03  0.62602672403E+03  0.40000000000E+03 0.  1.
<mgrwt>
<rscale>  2 0.46750348E+03</rscale>
<asrwt>0</asrwt>
<pdfrwt beam="1">  1       21 0.23437170E+00 0.46763713E+03</pdfrwt>
<pdfrwt beam="2">  1       21 0.24512747E-01 0.46763713E+03</pdfrwt>
<totfact> 0.10612938E+03</totfact>
</mgrwt>
</event>
<event>
 6    1  0.8947013E-004  0.4500491E+03  0.7818608E-02  0.1027723E+00
         21   -1    0    0  501  502  0.00000000000E+00  0.00000000000E+00  0.70158008162E+03  0.70158008162E+03  0.00000000000E+00 0.  1.
         21   -1    0    0  502  503 -0.00000000000E+00 -0.00000000000E+00 -0.52336398700E+03  0.52336398700E+03  0.00000000000E+00 0. -1.
    9000007    2    1    2  501    0  0.86643703382E+02 -0.18669311344E+03  0.49935218457E+03  0.67223271700E+03  0.40022839933E+03 0.  0.
    9000005    1    3    3    0    0  0.21344537525E+03 -0.22021853913E+03  0.27282509319E+03  0.41047492574E+03  0.99999687468E+00 0.  0.
          4    1    3    3  501    0 -0.12680167187E+03  0.33525425690E+02  0.22652709138E+03  0.26175779126E+03  0.00000000000E+00 0.  1.
   -9000007    1    1    2    0  503 -0.86643703382E+02  0.18669311344E+03 -0.32113608994E+03  0.55271135162E+03  0.40000000000E+03 0. -1.
<mgrwt>
<rscale>  2 0.44999835E+03</rscale>
<asrwt>0</asrwt>
<pdfrwt beam="1">  1       21 0.10793540E+00 0.45004913E+03</pdfrwt>
<pdfrwt beam="2">  1       21 0.80517537E-01 0.45004913E+03</pdfrwt>
<totfact> 0.78329336E+02</totfact>
</mgrwt>
</event>
<event>
 6    1  0.8947013E-004  0.4231599E+03  0.7818608E-02  0.1036085E+00
         21   -1    0    0  501  502  0.00000000000E+00  0.00000000000E+00  0.14358941247E+03  0.14358941247E+03  0.00000000000E+00 0. -1.
         21   -1    0    0  502  503 -0.00000000000E+00 -0.00000000000E+00 -0.12610245510E+04  0.12610245510E+04  0.00000000000E+00 0. -1.
    9000007    2    1    2  501    0  0.11182476803E+03  0.80990781286E+02 -0.48053011179E+03  0.63994913593E+03  0.39945140235E+03 0.  0.
    9000005    1    3    3    0    0  0.15369706908E+03  0.71529020256E+02 -0.54035007700E+03  0.56632004687E+03  0.99999687468E+00 0.  0.
          4    1    3    3  501    0 -0.41872301049E+02  0.94617610308E+01  0.59819965211E+02  0.73629089053E+02  0.00000000000E+00 0.  1.
   -9000007    1    1    2    0  503 -0.11182476803E+03 -0.80990781286E+02 -0.63690502670E+03  0.76466482751E+03  0.40000000000E+03 0. -1.
<mgrwt>
<rscale>  2 0.42303019E+03</rscale>
<asrwt>0</asrwt>
<pdfrwt beam="1">  1       21 0.22090680E-01 0.42315988E+03</pdfrwt>
<pdfrwt beam="2">  1       21 0.19400377E+00 0.42315988E+03</pdfrwt>
<totfact> 0.24174329E+03</totfact>
</mgrwt>
</event>
<event>
 6    1  0.8947013E-004  0.4432842E+03  0.7818608E-02  0.1029796E+00
         21   -1    0    0  501  502  0.00000000000E+00  0.00000000000E+00  0.83331856978E+03  0.83331856978E+03  0.00000000000E+00 0. -1.
         21   -1    0    0  502  503 -0.00000000000E+00 -0.00000000000E+00 -0.42266263768E+03  0.42266263768E+03  0.00000000000E+00 0. -1.
    9000007    2    1    2  501    0  0.75393309701E+02 -0.17381993942E+03  0.62337303121E+03  0.76491493215E+03  0.40075353386E+03 0.  0.
    9000005    1    3    3    0    0 -0.10036439162E+03  0.51076180397E+02  0.35758280460E+03  0.37489765197E+03  0.99999687468E+00 0.  0.
          4    1    3    3  501    0  0.17575770132E+03 -0.22489611982E+03  0.26579022661E+03  0.39001728019E+03  0.00000000000E+00 0.  1.
   -9000007    1    1    2    0  503 -0.75393309701E+02  0.17381993942E+03 -0.21271709912E+03  0.49106627531E+03  0.40000000000E+03 0. -1.
<mgrwt>
<rscale>  2 0.44311386E+03</rscale>
<asrwt>0</asrwt>
<pdfrwt beam="1">  1       21 0.12820286E+00 0.44328424E+03</pdfrwt>
<pdfrwt beam="2">  1       21 0.65025021E-01 0.44328424E+03</pdfrwt>
<totfact> 0.82562884E+02</totfact>
</mgrwt>
</event>
<event>
 6    1  0.8947013E-004  0.4615388E+03  0.7818608E-02  0.1024347E+00
         21   -1    0    0  501  502  0.00000000000E+00  0.00000000000E+00  0.98300350936E+03  0.98300350936E+03  0.00000000000E+00 0. -1.
         21   -1    0    0  502  503 -0.00000000000E+00 -0.00000000000E+00 -0.23098907993E+03  0.23098907993E+03  0.00000000000E+00 0. -1.
    9000007    2    1    2  501    0  0.22967907157E+03  0.10890185880E+02  0.52742674035E+03  0.70085449662E+03  0.40018369149E+03 0.  0.
    9000005    1    3    3    0    0  0.20381071173E+03  0.13722332657E+03  0.11987179101E+03  0.27338488226E+03  0.99999687468E+00 0.  0.
          4    1    3    3  501    0  0.25868359837E+02 -0.12633314069E+03  0.40755494934E+03  0.42746961437E+03  0.00000000000E+00 0.  1.
   -9000007    1    1    2    0  503 -0.22967907157E+03 -0.10890185880E+02  0.22458768908E+03  0.51313809267E+03  0.40000000000E+03 0. -1.
<mgrwt>
<rscale>  2 0.46149897E+03</rscale>
<asrwt>0</asrwt>
<pdfrwt beam="1">  1       21 0.15123131E+00 0.46153879E+03</pdfrwt>
<pdfrwt beam="2">  1       21 0.35536782E-01 0.46153879E+03</pdfrwt>
<totfact> 0.19013339E+03</totfact>
</mgrwt>
</event>
<event>
 6    1  0.8947013E-004  0.4294451E+03  0.7818608E-02  0.1034058E+00
         21   -1    0    0  501  502  0.00000000000E+00  0.00000000000E+00  0.40926946637E+03  0.40926946637E+03  0.00000000000E+00 0.  1.
         21   -1    0    0  502  503 -0.00000000000E+00 -0.00000000000E+00 -0.48753275425E+03  0.48753275425E+03  0.00000000000E+00 0. -1.
    9000007    2    1    2  501    0  0.22252048342E+02  0.15389459698E+03  0.84744579756E+02  0.43772677416E+03  0.40030536391E+03 0.  0.
    9000005    1    3    3    0    0  0.19465872230E+03 -0.22921009776E+01  0.16924998558E+02  0.19540912841E+03  0.99999687468E+00 0.  0.
          4    1    3    3  501    0 -0.17240667396E+03  0.15618669796E+03  0.67819581199E+02  0.24231764575E+03  0.00000000000E+00 0.  1.
   -9000007    1    1    2    0  503 -0.22252048342E+02 -0.15389459698E+03 -0.16300786764E+03  0.45907544647E+03  0.40000000000E+03 0.  1.
<mgrwt>
<rscale>  2 0.42937391E+03</rscale>
<asrwt>0</asrwt>
<pdfrwt beam="1">  1       21 0.62964533E-01 0.42944509E+03</pdfrwt>
<pdfrwt beam="2">  1       21 0.75005039E-01 0.42944509E+03</pdfrwt>
<totfact> 0.32619766E+03</totfact>
</mgrwt>
</event>
<event>
 6    1  0.8947013E-004  0.5814448E+03  0.7818608E-02  0.9949093E-01
         21   -1    0    0  501  502  0.00000000000E+00  0.00000000000E+00  0.11432286380E+04  0.11432286380E+04  0.00000000000E+00 0. -1.
         21   -1    0    0  502  503 -0.00000000000E+00 -0.00000000000E+00 -0.29244824299E+03  0.29244824299E+03  0.00000000000E+00 0. -1.
    9000007    2    1    2  501    0 -0.24578591835E+03  0.34302680668E+03  0.46113338654E+03  0.73574624230E+03  0.38807270597E+03 0.  0.
    9000005    1    3    3    0    0 -0.29095678171E+03  0.74370136245E+02  0.22546846346E+03  0.37553134888E+03  0.99999687468E+00 0.  0.
          4    1    3    3  501    0  0.45170863360E+02  0.26865667044E+03  0.23566492308E+03  0.36021489341E+03  0.00000000000E+00 0.  1.
   -9000007    1    1    2    0  503  0.24578591835E+03 -0.34302680668E+03  0.38964700845E+03  0.69993063867E+03  0.40000000000E+03 0. -1.
<mgrwt>
<rscale>  2 0.57939909E+03</rscale>
<asrwt>0</asrwt>
<pdfrwt beam="1">  1       21 0.17588133E+00 0.58144484E+03</pdfrwt>
<pdfrwt beam="2">  1       21 0.44992038E-01 0.58144484E+03</pdfrwt>
<totfact> 0.72997347E+02</totfact>
</mgrwt>
</event>
<event>
 6    1  0.8947013E-004  0.4598409E+03  0.7818608E-02  0.1025024E+00
         21   -1    0    0  501  502  0.00000000000E+00  0.00000000000E+00  0.85495518800E+03  0.85495518800E+03  0.00000000000E+00 0.  1.
         21   -1    0    0  502  503 -0.00000000000E+00 -0.00000000000E+00 -0.24606348789E+03  0.24606348789E+03  0.00000000000E+00 0.  1.
    9000007    2    1    2  501    0  0.21724606617E+03 -0.42143348344E+02  0.32063544588E+03  0.56058960268E+03  0.40309018643E+03 0.  0.
    9000005    1    3    3    0    0  0.64757557839E+02 -0.10267082964E+03 -0.67719136882E+02  0.13900259728E+03  0.99999687468E+00 0.  0.
          4    1    3    3  501    0  0.15248850833E+03  0.60527481298E+02  0.38835458276E+03  0.42158700540E+03  0.00000000000E+00 0.  1.
   -9000007    1    1    2    0  503 -0.21724606617E+03  0.42143348344E+02  0.28825625423E+03  0.54042907322E+03  0.40000000000E+03 0.  1.
<mgrwt>
<rscale>  2 0.45916276E+03</rscale>
<asrwt>0</asrwt>
<pdfrwt beam="1">  1       21 0.13153157E+00 0.45984086E+03</pdfrwt>
<pdfrwt beam="2">  1       21 0.37855922E-01 0.45984086E+03</pdfrwt>
<totfact> 0.24264797E+03</totfact>
</mgrwt>
</event>
<event>
 6    1  0.8947013E-004  0.5232572E+03  0.7818608E-02  0.1007881E+00
         21   -1    0    0  501  502  0.00000000000E+00  0.00000000000E+00  0.11747253435E+04  0.11747253435E+04  0.00000000000E+00 0. -1.
         21   -1    0    0  502  503 -0.00000000000E+00 -0.00000000000E+00 -0.33409003908E+03  0.33409003908E+03  0.00000000000E+00 0.  1.
    9000007    2    1    2  501    0  0.14806608732E+01 -0.33732461024E+03  0.83515591748E+03  0.98553714997E+03  0.40000997791E+03 0.  0.
    9000005    1    3    3    0    0 -0.74213829394E+02  0.96652409179E+01  0.47085696089E+03  0.47676869336E+03  0.99999687468E+00 0.  0.
          4    1    3    3  501    0  0.75694490267E+02 -0.34698985116E+03  0.36429895660E+03  0.50876845661E+03  0.00000000000E+00 0.  1.
   -9000007    1    1    2    0  503 -0.14806608732E+01  0.33732461024E+03  0.54793869270E+01  0.52327823260E+03  0.40000000000E+03 0.  1.
<mgrwt>
<rscale>  2 0.52325526E+03</rscale>
<asrwt>0</asrwt>
<pdfrwt beam="1">  1       21 0.18072697E+00 0.52325717E+03</pdfrwt>
<pdfrwt beam="2">  1       21 0.51398468E-01 0.52325717E+03</pdfrwt>
<totfact> 0.51922737E+02</totfact>
</mgrwt>
</event>
<event>
 6    1  0.8947013E-004  0.4036039E+03  0.7818608E-02  0.1042948E+00
         21   -1    0    0  501  502  0.00000000000E+00  0.00000000000E+00  0.42444940559E+03  0.42444940559E+03  0.00000000000E+00 0. -1.
         21   -1    0    0  502  503 -0.00000000000E+00 -0.00000000000E+00 -0.44051078055E+03  0.44051078055E+03  0.00000000000E+00 0. -1.
    9000007    2    1    2  501    0 -0.48791409122E+02 -0.22704795391E+02 -0.16922564189E+03  0.43327117539E+03  0.39520941817E+03 0.  0.
    9000005    1    3    3    0    0  0.97058153963E+02 -0.41856299700E+01  0.91816135573E+02  0.13367500699E+03  0.99999687468E+00 0.  0.
          4    1    3    3  501    0 -0.14584956308E+03 -0.18519165421E+02 -0.26104177746E+03  0.29959616840E+03  0.00000000000E+00 0.  1.
   -9000007    1    1    2    0  503  0.48791409122E+02  0.22704795391E+02  0.15316426694E+03  0.43168901075E+03  0.40000000000E+03 0.  1.
<mgrwt>
<rscale>  2 0.40241181E+03</rscale>
<asrwt>0</asrwt>
<pdfrwt beam="1">  1       21 0.65299909E-01 0.40360390E+03</pdfrwt>
<pdfrwt beam="2">  1       21 0.67770889E-01 0.40360390E+03</pdfrwt>
<totfact> 0.38196929E+03</totfact>
</mgrwt>
</event>
<event>
 6    1  0.8947013E-004  0.4752973E+03  0.7818608E-02  0.1020439E+00
         21   -1    0    0  501  502  0.00000000000E+00  0.00000000000E+00  0.86503104198E+03  0.86503104198E+03  0.00000000000E+00 0. -1.
         21   -1    0    0  502  503 -0.00000000000E+00 -0.00000000000E+00 -0.31337763881E+03  0.31337763881E+03  0.00000000000E+00 0. -1.
    9000007    2    1    2  501    0 -0.17226658316E+03 -0.19034641460E+03  0.51639539851E+03  0.70180542847E+03  0.39994889499E+03 0.  0.
    9000005    1    3    3    0    0 -0.24683543129E+03 -0.23185321083E+03  0.24684348830E+03  0.41906604398E+03  0.99999687468E+00 0.  0.
          4    1    3    3  501    0  0.74568848124E+02  0.41506796223E+02  0.26955191021E+03  0.28273938449E+03  0.00000000000E+00 0.  1.
   -9000007    1    1    2    0  503  0.17226658316E+03  0.19034641460E+03  0.35258004665E+02  0.47660325232E+03  0.40000000000E+03 0. -1.
<mgrwt>
<rscale>  2 0.47528656E+03</rscale>
<asrwt>0</asrwt>
<pdfrwt beam="1">  1       21 0.13308170E+00 0.47529731E+03</pdfrwt>
<pdfrwt beam="2">  1       21 0.48211945E-01 0.47529731E+03</pdfrwt>
<totfact> 0.14144371E+03</totfact>
</mgrwt>
</event>
<event>
 6    1  0.8947013E-004  0.4008742E+03  0.7818608E-02  0.1043478E+00
         21   -1    0    0  501  502  0.00000000000E+00  0.00000000000E+00  0.22840626151E+04  0.22840626151E+04  0.00000000000E+00 0. -1.
         21   -1    0    0  502  503 -0.00000000000E+00 -0.00000000000E+00 -0.73028005489E+02  0.73028005489E+02  0.00000000000E+00 0. -1.
    9000007    2    1    2  501    0 -0.98154550759E+01 -0.24393643681E+02  0.13309987353E+04  0.13900567364E+04  0.40001088004E+03 0.  0.
    9000005    1    3    3    0    0 -0.12281195160E+03 -0.29646350610E-01  0.12312940691E+04  0.12374040815E+04  0.99999687468E+00 0.  0.
          4    1    3    3  501    0  0.11299649652E+03 -0.24363997330E+02  0.99704666145E+02  0.15265265488E+03  0.00000000000E+00 0.  1.
   -9000007    1    1    2    0  503  0.98154550759E+01  0.24393643681E+02  0.88003587431E+03  0.96703388414E+03  0.40000000000E+03 0. -1.
<mgrwt>
<rscale>  2 0.40087145E+03</rscale>
<asrwt>0</asrwt>
<pdfrwt beam="1">  1       21 0.35139419E+00 0.40087417E+03</pdfrwt>
<pdfrwt beam="2">  1       21 0.11235080E-01 0.40087417E+03</pdfrwt>
<totfact> 0.92571133E+02</totfact>
</mgrwt>
</event>
<event>
 6    1  0.8947013E-004  0.4184446E+03  0.7818608E-02  0.1037596E+00
         21   -1    0    0  501  502  0.00000000000E+00  0.00000000000E+00  0.14174689477E+03  0.14174689477E+03  0.00000000000E+00 0.  1.
         21   -1    0    0  502  503 -0.00000000000E+00 -0.00000000000E+00 -0.12424441965E+04  0.12424441965E+04  0.00000000000E+00 0.  1.
    9000007    2    1    2  501    0  0.20623316265E+02  0.12018257371E+03 -0.60596650226E+03  0.73640429290E+03  0.40028328536E+03 0.  0.
    9000005    1    3    3    0    0  0.20987146899E+03  0.82313008060E+02 -0.32848470153E+03  0.39840264046E+03  0.99999687468E+00 0.  0.
          4    1    3    3  501    0 -0.18924815273E+03  0.37869565647E+02 -0.27748180073E+03  0.33800165244E+03  0.00000000000E+00 0.  1.
   -9000007    1    1    2    0  503 -0.20623316265E+02 -0.12018257371E+03 -0.49473079945E+03  0.64778679836E+03  0.40000000000E+03 0. -1.
<mgrwt>
<rscale>  2 0.41837683E+03</rscale>
<asrwt>0</asrwt>
<pdfrwt beam="1">  1       21 0.21807214E-01 0.41844460E+03</pdfrwt>
<pdfrwt beam="2">  1       21 0.19114526E+00 0.41844460E+03</pdfrwt>
<totfact> 0.25965171E+03</totfact>
</mgrwt>
</event>
<event>
 6    1  0.8947013E-004  0.4012690E+03  0.7818608E-02  0.1044294E+00
         21   -1    0    0  501  502  0.00000000000E+00  0.00000000000E+00  0.33891059732E+03  0.33891059732E+03  0.00000000000E+00 0.  1.
         21   -1    0    0  502  503 -0.00000000000E+00 -0.00000000000E+00 -0.51549045014E+03  0.51549045014E+03  0.00000000000E+00 0.  1.
    9000007    2    1    2  501    0  0.23514486386E+02  0.21537018898E+02  0.50027797790E+02  0.39356723623E+03  0.38907019242E+03 0.  0.
    9000005    1    3    3    0    0  0.63899490775E+02  0.19655930268E+03  0.54990127956E+02  0.21387757843E+03  0.99999687468E+00 0.  0.
          4    1    3    3  501    0 -0.40385004389E+02 -0.17502228378E+03 -0.49623301654E+01  0.17968965780E+03  0.00000000000E+00 0.  1.
   -9000007    1    1    2    0  503 -0.23514486386E+02 -0.21537018898E+02 -0.22660765061E+03  0.46083381123E+03  0.40000000000E+03 0.  1.
<mgrwt>
<rscale>  2 0.39851721E+03</rscale>
<asrwt>0</asrwt>
<pdfrwt beam="1">  1       21 0.52140092E-01 0.40126896E+03</pdfrwt>
<pdfrwt beam="2">  1       21 0.79306223E-01 0.40126896E+03</pdfrwt>
<totfact> 0.43694450E+03</totfact>
</mgrwt>
</event>
<event>
 6    1  0.8947013E-004  0.4042456E+03  0.7818608E-02  0.1042534E+00
         21   -1    0    0  501  502  0.00000000000E+00  0.00000000000E+00  0.22457345738E+03  0.22457345738E+03  0.00000000000E+00 0. -1.
         21   -1    0    0  502  503 -0.00000000000E+00 -0.00000000000E+00 -0.79012755765E+03  0.79012755765E+03  0.00000000000E+00 0. -1.
    9000007    2    1    2  501    0  0.72037715086E+00  0.37307487391E+02 -0.13587624248E+03  0.42647025331E+03  0.40251975868E+03 0.  0.
    9000005    1    3    3    0    0 -0.61931612339E+02 -0.69320714464E+02  0.11433836611E+03  0.14736060538E+03  0.99999687468E+00 0.  0.
          4    1    3    3  501    0  0.62651989489E+02  0.10662820186E+03 -0.25021460858E+03  0.27910964793E+03  0.00000000000E+00 0.  1.
   -9000007    1    1    2    0  503 -0.72037715086E+00 -0.37307487391E+02 -0.42967785779E+03  0.58823076172E+03  0.40000000000E+03 0. -1.
<mgrwt>
<rscale>  2 0.40361692E+03</rscale>
<asrwt>0</asrwt>
<pdfrwt beam="1">  1       21 0.34549762E-01 0.40424562E+03</pdfrwt>
<pdfrwt beam="2">  1       21 0.12155809E+00 0.40424562E+03</pdfrwt>
<totfact> 0.36558000E+03</totfact>
</mgrwt>
</event>
<event>
 6    1  0.8947013E-004  0.4085630E+03  0.7818608E-02  0.1040879E+00
         21   -1    0    0  501  502  0.00000000000E+00  0.00000000000E+00  0.32761178499E+03  0.32761178499E+03  0.00000000000E+00 0. -1.
         21   -1    0    0  502  503 -0.00000000000E+00 -0.00000000000E+00 -0.51579964466E+03  0.51579964466E+03  0.00000000000E+00 0. -1.
    9000007    2    1    2  501    0  0.80330371678E+02  0.15340834302E+02 -0.46272329004E+02  0.41117500401E+03  0.40029419891E+03 0.  0.
    9000005    1    3    3    0    0  0.21594730643E+03 -0.92810346200E+02 -0.23338715126E+02  0.23620477373E+03  0.99999687468E+00 0.  0.
          4    1    3    3  501    0 -0.13561693476E+03  0.10815118050E+03 -0.22933613878E+02  0.17497023027E+03  0.00000000000E+00 0.  1.
   -9000007    1    1    2    0  503 -0.80330371678E+02 -0.15340834302E+02 -0.14191553067E+03  0.43223642565E+03  0.40000000000E+03 0.  1.
<mgrwt>
<rscale>  2 0.40849096E+03</rscale>
<asrwt>0</asrwt>
<pdfrwt beam="1">  1       21 0.50401813E-01 0.40856304E+03</pdfrwt>
<pdfrwt beam="2">  1       21 0.79353792E-01 0.40856304E+03</pdfrwt>
<totfact> 0.46773486E+03</totfact>
</mgrwt>
</event>
<event>
 6    1  0.8947013E-004  0.5348015E+03  0.7818608E-02  0.1005091E+00
         21   -1    0    0  501  502  0.00000000000E+00  0.00000000000E+00  0.12156544927E+04  0.12156544927E+04  0.00000000000E+00 0.  1.
         21   -1    0    0  502  503 -0.00000000000E+00 -0.00000000000E+00 -0.24761183426E+03  0.24761183426E+03  0.00000000000E+00 0.  1.
    9000007    2    1    2  501    0  0.32526702061E+03  0.14217612440E+03  0.64803827098E+03  0.84003643916E+03  0.39961848482E+03 0.  0.
    9000005    1    3    3    0    0  0.35872928476E+03  0.45108532506E+02  0.64246293777E+03  0.73721171033E+03  0.99999687468E+00 0.  0.
          4    1    3    3  501    0 -0.33462264144E+02  0.97067591897E+02  0.55753332126E+01  0.10282472883E+03  0.00000000000E+00 0.  1.
   -9000007    1    1    2    0  503 -0.32526702061E+03 -0.14217612440E+03  0.32000438745E+03  0.62322988779E+03  0.40000000000E+03 0.  1.
<mgrwt>
<rscale>  2 0.53473020E+03</rscale>
<asrwt>0</asrwt>
<pdfrwt beam="1">  1       21 0.18702377E+00 0.53480154E+03</pdfrwt>
<pdfrwt beam="2">  1       21 0.38094129E-01 0.53480154E+03</pdfrwt>
<totfact> 0.87526463E+02</totfact>
</mgrwt>
</event>
<event>
 6    1  0.8947013E-004  0.4746306E+03  0.7818608E-02  0.1020640E+00
         21   -1    0    0  501  502  0.00000000000E+00  0.00000000000E+00  0.59641936054E+03  0.59641936054E+03  0.00000000000E+00 0. -1.
         21   -1    0    0  502  503 -0.00000000000E+00 -0.00000000000E+00 -0.72273194735E+03  0.72273194735E+03  0.00000000000E+00 0.  1.
    9000007    2    1    2  501    0 -0.14811718668E+03  0.20754554150E+03  0.39269890560E+03  0.61602487400E+03  0.40032532038E+03 0.  0.
    9000005    1    3    3    0    0 -0.12260787164E+03  0.27240184435E+03  0.43998024068E+03  0.53180735908E+03  0.99999687468E+00 0.  0.
          4    1    3    3  501    0 -0.25509315042E+02 -0.64856302847E+02 -0.47281335072E+02  0.84217514919E+02  0.00000000000E+00 0.  1.
   -9000007    1    1    2    0  503  0.14811718668E+03 -0.20754554150E+03 -0.51901149241E+03  0.70312643390E+03  0.40000000000E+03 0.  1.
<mgrwt>
<rscale>  2 0.47456200E+03</rscale>
<asrwt>0</asrwt>
<pdfrwt beam="1">  1       21 0.91756824E-01 0.47463061E+03</pdfrwt>
<pdfrwt beam="2">  1       21 0.11118953E+00 0.47463061E+03</pdfrwt>
<totfact> 0.52984988E+02</totfact>
</mgrwt>
</event>
<event>
 6    1  0.8947013E-004  0.4917217E+03  0.7818608E-02  0.1015968E+00
         21   -1    0    0  501  502  0.00000000000E+00  0.00000000000E+00  0.26162461453E+03  0.26162461453E+03  0.00000000000E+00 0. -1.
         21   -1    0    0  502  503 -0.00000000000E+00 -0.00000000000E+00 -0.10194719106E+04  0.10194719106E+04  0.00000000000E+00 0. -1.
    9000007    2    1    2  501    0  0.16849514026E+03  0.23108365872E+03 -0.18289634906E+03  0.52455250057E+03  0.39989246272E+03 0.  0.
    9000005    1    3    3    0    0 -0.12376940722E+03  0.13472598796E+03 -0.83998135252E+02  0.20131230641E+03  0.99999687468E+00 0.  0.
          4    1    3    3  501    0  0.29226454748E+03  0.96357670761E+02 -0.98898213804E+02  0.32324019416E+03  0.00000000000E+00 0.  1.
   -9000007    1    1    2    0  503 -0.16849514026E+03 -0.23108365872E+03 -0.57495094703E+03  0.75654402457E+03  0.40000000000E+03 0. -1.
<mgrwt>
<rscale>  2 0.49169987E+03</rscale>
<asrwt>0</asrwt>
<pdfrwt beam="1">  1       21 0.40249941E-01 0.49172174E+03</pdfrwt>
<pdfrwt beam="2">  1       21 0.15684183E+00 0.49172174E+03</pdfrwt>
<totfact> 0.13176810E+03</totfact>
</mgrwt>
</event>
<event>
 6    1  0.8947013E-004  0.4313021E+03  0.7818608E-02  0.1033549E+00
         21   -1    0    0  501  502  0.00000000000E+00  0.00000000000E+00  0.19472787928E+03  0.19472787928E+03  0.00000000000E+00 0.  1.
         21   -1    0    0  502  503 -0.00000000000E+00 -0.00000000000E+00 -0.11703793312E+04  0.11703793312E+04  0.00000000000E+00 0.  1.
    9000007    2    1    2  501    0  0.13596288878E+03 -0.80309446666E+02 -0.78290471184E+03  0.89384632714E+03  0.40135514744E+03 0.  0.
    9000005    1    3    3    0    0 -0.14223682328E+03 -0.52830853144E+02 -0.27202079815E+03  0.31147829388E+03  0.99999687468E+00 0.  0.
          4    1    3    3  501    0  0.27819971206E+03 -0.27478593522E+02 -0.51088391369E+03  0.58236803326E+03  0.00000000000E+00 0.  1.
   -9000007    1    1    2    0  503 -0.13596288878E+03  0.80309446666E+02 -0.19274674006E+03  0.47126088332E+03  0.40000000000E+03 0.  1.
<mgrwt>
<rscale>  2 0.43098652E+03</rscale>
<asrwt>0</asrwt>
<pdfrwt beam="1">  1       21 0.29958136E-01 0.43130206E+03</pdfrwt>
<pdfrwt beam="2">  1       21 0.18005835E+00 0.43130206E+03</pdfrwt>
<totfact> 0.16586922E+03</totfact>
</mgrwt>
</event>
<event>
 6    1  0.8947013E-004  0.4725125E+03  0.7818608E-02  0.1021217E+00
         21   -1    0    0  501  502  0.00000000000E+00  0.00000000000E+00  0.40511297357E+03  0.40511297357E+03  0.00000000000E+00 0. -1.
         21   -1    0    0  502  503 -0.00000000000E+00 -0.00000000000E+00 -0.55107946559E+03  0.55107946559E+03  0.00000000000E+00 0. -1.
    9000007    2    1    2  501    0 -0.25056378031E+03  0.20790395265E+02 -0.70094627806E+02  0.47768330829E+03  0.40006704143E+03 0.  0.
    9000005    1    3    3    0    0 -0.14882664628E+03 -0.88060622801E+02 -0.21086502088E+03  0.27270698736E+03  0.99999687468E+00 0.  0.
          4    1    3    3  501    0 -0.10173713403E+03  0.10885101807E+03  0.14077039308E+03  0.20497632093E+03  0.00000000000E+00 0.  1.
   -9000007    1    1    2    0  503  0.25056378031E+03 -0.20790395265E+02 -0.75871864214E+02  0.47850913086E+03  0.40000000000E+03 0. -1.
<mgrwt>
<rscale>  2 0.47249833E+03</rscale>
<asrwt>0</asrwt>
<pdfrwt beam="1">  1       21 0.62325072E-01 0.47251252E+03</pdfrwt>
<pdfrwt beam="2">  1       21 0.84781457E-01 0.47251252E+03</pdfrwt>
<totfact> 0.24758756E+03</totfact>
</mgrwt>
</event>
<event>
 6    1  0.8947013E-004  0.4226112E+03  0.7818608E-02  0.1036272E+00
         21   -1    0    0  501  502  0.00000000000E+00  0.00000000000E+00  0.84355948165E+03  0.84355948165E+03  0.00000000000E+00 0.  1.
         21   -1    0    0  502  503 -0.00000000000E+00 -0.00000000000E+00 -0.14221589011E+04  0.14221589011E+04  0.00000000000E+00 0.  1.
    9000007    2    1    2  501    0 -0.24718106308E+01 -0.13432518821E+03  0.75594431334E+03  0.86605544448E+03  0.40068798586E+03 0.  0.
    9000005    1    3    3    0    0 -0.11357755848E+03  0.79421369652E+02  0.48069615834E+03  0.50027733547E+03  0.99999687468E+00 0.  0.
          4    1    3    3  501    0  0.11110574785E+03 -0.21374655786E+03  0.27524815500E+03  0.36577810901E+03  0.00000000000E+00 0.  1.
   -9000007    1    1    2    0  503  0.24718106308E+01  0.13432518821E+03 -0.13345437328E+04  0.13996629382E+04  0.40000000000E+03 0.  1.
<mgrwt>
<rscale>  2 0.42244805E+03</rscale>
<asrwt>0</asrwt>
<pdfrwt beam="1">  1       21 0.12977838E+00 0.42261120E+03</pdfrwt>
<pdfrwt beam="2">  1       21 0.21879368E+00 0.42261120E+03</pdfrwt>
<totfact> 0.34925430E+01</totfact>
</mgrwt>
</event>
<event>
 6    1  0.8947013E-004  0.4352608E+03  0.7818608E-02  0.1032231E+00
         21   -1    0    0  501  502  0.00000000000E+00  0.00000000000E+00  0.66669939931E+03  0.66669939931E+03  0.00000000000E+00 0. -1.
         21   -1    0    0  502  503 -0.00000000000E+00 -0.00000000000E+00 -0.40617421300E+03  0.40617421300E+03  0.00000000000E+00 0. -1.
    9000007    2    1    2  501    0 -0.13644161550E+03  0.10409457303E+03  0.42444687943E+03  0.60776898317E+03  0.39971988801E+03 0.  0.
    9000005    1    3    3    0    0 -0.12581500997E+03  0.90105956896E+02  0.50352127787E+03  0.52676672015E+03  0.99999687468E+00 0.  0.
          4    1    3    3  501    0 -0.10626605531E+02  0.13988616134E+02 -0.79074398436E+02  0.81002263021E+02  0.00000000000E+00 0.  1.
   -9000007    1    1    2    0  503  0.13644161550E+03 -0.10409457303E+03 -0.16392169312E+03  0.46510462914E+03  0.40000000000E+03 0. -1.
<mgrwt>
<rscale>  2 0.43519647E+03</rscale>
<asrwt>0</asrwt>
<pdfrwt beam="1">  1       21 0.10256914E+00 0.43526084E+03</pdfrwt>
<pdfrwt beam="2">  1       21 0.62488341E-01 0.43526084E+03</pdfrwt>
<totfact> 0.15834891E+03</totfact>
</mgrwt>
</event>
<event>
 6    1  0.8947013E-004  0.4399690E+03  0.7818608E-02  0.1030760E+00
         21   -1    0    0  501  502  0.00000000000E+00  0.00000000000E+00  0.81022873147E+03  0.81022873147E+03  0.00000000000E+00 0. -1.
         21   -1    0    0  502  503 -0.00000000000E+00 -0.00000000000E+00 -0.39486202617E+03  0.39486202617E+03  0.00000000000E+00 0. -1.
    9000007    2    1    2  501    0 -0.11791800094E+02 -0.18274056523E+03  0.58638943176E+03  0.73309294653E+03  0.40004942424E+03 0.  0.
    9000005    1    3    3    0    0  0.84029696993E+02 -0.19091522381E+03  0.89499122337E+02  0.22698172955E+03  0.99999687468E+00 0.  0.
          4    1    3    3  501    0 -0.95821497087E+02  0.81746585728E+01  0.49689030942E+03  0.50611121697E+03  0.00000000000E+00 0.  1.
   -9000007    1    1    2    0  503  0.11791800094E+02  0.18274056523E+03 -0.17102272647E+03  0.47199781112E+03  0.40000000000E+03 0. -1.
<mgrwt>
<rscale>  2 0.43995774E+03</rscale>
<asrwt>0</asrwt>
<pdfrwt beam="1">  1       21 0.12465057E+00 0.43996898E+03</pdfrwt>
<pdfrwt beam="2">  1       21 0.60748004E-01 0.43996898E+03</pdfrwt>
<totfact> 0.10330134E+03</totfact>
</mgrwt>
</event>
<event>
 6    1  0.8947013E-004  0.4074741E+03  0.7818608E-02  0.1041238E+00
         21   -1    0    0  501  502  0.00000000000E+00  0.00000000000E+00  0.94594440583E+03  0.94594440583E+03  0.00000000000E+00 0. -1.
         21   -1    0    0  502  503 -0.00000000000E+00 -0.00000000000E+00 -0.31365384322E+03  0.31365384322E+03  0.00000000000E+00 0. -1.
    9000007    2    1    2  501    0 -0.67756121755E+02  0.38003801703E+02  0.73417745057E+03  0.83957906029E+03  0.39980156151E+03 0.  0.
    9000005    1    3    3    0    0  0.35706934847E+02  0.17047160519E+03  0.14418372845E+03  0.22610948878E+03  0.99999687468E+00 0.  0.
          4    1    3    3  501    0 -0.10346305660E+03 -0.13246780349E+03  0.58999372211E+03  0.61346957152E+03  0.00000000000E+00 0.  1.
   -9000007    1    1    2    0  503  0.67756121755E+02 -0.38003801703E+02 -0.10188688796E+03  0.42001918875E+03  0.40000000000E+03 0. -1.
<mgrwt>
<rscale>  2 0.40742544E+03</rscale>
<asrwt>0</asrwt>
<pdfrwt beam="1">  1       21 0.14552991E+00 0.40747415E+03</pdfrwt>
<pdfrwt beam="2">  1       21 0.48254438E-01 0.40747415E+03</pdfrwt>
<totfact> 0.11461963E+03</totfact>
</mgrwt>
</event>
<event>
 6    1  0.8947013E-004  0.4638794E+03  0.7818608E-02  0.1023736E+00
         21   -1    0    0  501  502  0.00000000000E+00  0.00000000000E+00  0.27511619757E+03  0.27511619757E+03  0.00000000000E+00 0. -1.
         21   -1    0    0  502  503 -0.00000000000E+00 -0.00000000000E+00 -0.17738192437E+04  0.17738192437E+04  0.00000000000E+00 0.  1.
    9000007    2    1    2  501    0  0.22966873523E+03  0.38496475053E+02  0.16946051628E+02  0.46418880724E+03  0.40119119328E+03 0.  0.
    9000005    1    3    3    0    0  0.30658220690E+03  0.11593940052E+03 -0.56532307885E+02  0.33261313265E+03  0.99999687468E+00 0.  0.
          4    1    3    3  501    0 -0.76913471668E+02 -0.77442925463E+02  0.73478359513E+02  0.13157567459E+03  0.00000000000E+00 0.  1.
   -9000007    1    1    2    0  503 -0.22966873523E+03 -0.38496475053E+02 -0.15156490978E+04  0.15847466341E+04  0.40000000000E+03 0.  1.
<mgrwt>
<rscale>  2 0.46362171E+03</rscale>
<asrwt>0</asrwt>
<pdfrwt beam="1">  1       21 0.42325571E-01 0.46387938E+03</pdfrwt>
<pdfrwt beam="2">  1       21 0.27289526E+00 0.46387938E+03</pdfrwt>
<totfact> 0.20612078E+02</totfact>
</mgrwt>
</event>
<event>
 6    1  0.8947013E-004  0.6579241E+03  0.7818608E-02  0.9792196E-01
         21   -1    0    0  501  502  0.00000000000E+00  0.00000000000E+00  0.40618998495E+03  0.40618998495E+03  0.00000000000E+00 0.  1.
         21   -1    0    0  502  503 -0.00000000000E+00 -0.00000000000E+00 -0.10720662869E+04  0.10720662869E+04  0.00000000000E+00 0. -1.
    9000007    2    1    2  501    0  0.43713959610E+03  0.28509696897E+03 -0.27329025307E+03  0.71242658194E+03  0.40061548153E+03 0.  0.
    9000005    1    3    3    0    0  0.12417827718E+03  0.24753040568E+03 -0.28448594318E+03  0.39701989638E+03  0.99999687468E+00 0.  0.
          4    1    3    3  501    0  0.31296131893E+03  0.37566563285E+02  0.11195690109E+02  0.31540668556E+03  0.00000000000E+00 0.  1.
   -9000007    1    1    2    0  503 -0.43713959610E+03 -0.28509696897E+03 -0.39258604891E+03  0.76582968994E+03  0.40000000000E+03 0. -1.
<mgrwt>
<rscale>  2 0.65783040E+03</rscale>
<asrwt>0</asrwt>
<pdfrwt beam="1">  1       21 0.62490768E-01 0.65792406E+03</pdfrwt>
<pdfrwt beam="2">  1       21 0.16493327E+00 0.65792406E+03</pdfrwt>
<totfact> 0.42098663E+02</totfact>
</mgrwt>
</event>
<event>
 6    1  0.8947013E-004  0.4975523E+03  0.7818608E-02  0.1014455E+00
         21   -1    0    0  501  502  0.00000000000E+00  0.00000000000E+00  0.69741374487E+03  0.69741374487E+03  0.00000000000E+00 0. -1.
         21   -1    0    0  502  503 -0.00000000000E+00 -0.00000000000E+00 -0.35584136917E+03  0.35584136917E+03  0.00000000000E+00 0. -1.
    9000007    2    1    2  501    0  0.21169953918E+03 -0.20543572801E+03  0.13953068488E+03  0.51674660706E+03  0.40067157455E+03 0.  0.
    9000005    1    3    3    0    0  0.45104262379E+02 -0.29475046612E+03  0.33623280033E+02  0.30007291899E+03  0.99999687468E+00 0.  0.
          4    1    3    3  501    0  0.16659527680E+03  0.89314738108E+02  0.10590740485E+03  0.21667368806E+03  0.00000000000E+00 0.  1.
   -9000007    1    1    2    0  503 -0.21169953918E+03  0.20543572801E+03  0.20204169082E+03  0.53650850698E+03  0.40000000000E+03 0.  1.
<mgrwt>
<rscale>  2 0.49741703E+03</rscale>
<asrwt>0</asrwt>
<pdfrwt beam="1">  1       21 0.10729442E+00 0.49755225E+03</pdfrwt>
<pdfrwt beam="2">  1       21 0.54744826E-01 0.49755225E+03</pdfrwt>
<totfact> 0.18483477E+03</totfact>
</mgrwt>
</event>
<event>
 6    1  0.8947013E-004  0.4042803E+03  0.7818608E-02  0.1042317E+00
         21   -1    0    0  501  502  0.00000000000E+00  0.00000000000E+00  0.51134674603E+03  0.51134674603E+03  0.00000000000E+00 0.  1.
         21   -1    0    0  502  503 -0.00000000000E+00 -0.00000000000E+00 -0.32504166219E+03  0.32504166219E+03  0.00000000000E+00 0.  1.
    9000007    2    1    2  501    0 -0.51920071471E+02  0.25673706132E+02  0.14754347040E+03  0.43036218286E+03  0.40010960970E+03 0.  0.
    9000005    1    3    3    0    0 -0.11421526898E+03  0.47510465128E+01 -0.11354853412E+03  0.16112718487E+03  0.99999687468E+00 0.  0.
          4    1    3    3  501    0  0.62295197511E+02  0.20922659619E+02  0.26109200452E+03  0.26923499799E+03  0.00000000000E+00 0.  1.
   -9000007    1    1    2    0  503  0.51920071471E+02 -0.25673706132E+02  0.38761613436E+02  0.40602622537E+03  0.40000000000E+03 0.  1.
<mgrwt>
<rscale>  2 0.40425314E+03</rscale>
<asrwt>0</asrwt>
<pdfrwt beam="1">  1       21 0.78668730E-01 0.40428027E+03</pdfrwt>
<pdfrwt beam="2">  1       21 0.50006410E-01 0.40428027E+03</pdfrwt>
<totfact> 0.48597703E+03</totfact>
</mgrwt>
</event>
<event>
 6    1  0.8947013E-004  0.4070696E+03  0.7818608E-02  0.1041381E+00
         21   -1    0    0  501  502  0.00000000000E+00  0.00000000000E+00  0.40345736972E+03  0.40345736972E+03  0.00000000000E+00 0.  1.
         21   -1    0    0  502  503 -0.00000000000E+00 -0.00000000000E+00 -0.42361792913E+03  0.42361792913E+03  0.00000000000E+00 0. -1.
    9000007    2    1    2  501    0  0.22390409425E+02 -0.70637968585E+02  0.62831614908E+02  0.41189009435E+03  0.40026814131E+03 0.  0.
    9000005    1    3    3    0    0  0.52019654652E+02  0.90465672794E+02  0.18167383191E+03  0.20951482911E+03  0.99999687468E+00 0.  0.
          4    1    3    3  501    0 -0.29629245227E+02 -0.16110364138E+03 -0.11884221700E+03  0.20237526524E+03  0.00000000000E+00 0.  1.
   -9000007    1    1    2    0  503 -0.22390409425E+02  0.70637968585E+02 -0.82992174318E+02  0.41518520450E+03  0.40000000000E+03 0. -1.
<mgrwt>
<rscale>  2 0.40700364E+03</rscale>
<asrwt>0</asrwt>
<pdfrwt beam="1">  1       21 0.62070364E-01 0.40706957E+03</pdfrwt>
<pdfrwt beam="2">  1       21 0.65171989E-01 0.40706957E+03</pdfrwt>
<totfact> 0.46549103E+03</totfact>
</mgrwt>
</event>
<event>
 6    1  0.8947013E-004  0.4528861E+03  0.7818608E-02  0.1026875E+00
         21   -1    0    0  501  502  0.00000000000E+00  0.00000000000E+00  0.30693244862E+03  0.30693244862E+03  0.00000000000E+00 0. -1.
         21   -1    0    0  502  503 -0.00000000000E+00 -0.00000000000E+00 -0.69178418411E+03  0.69178418411E+03  0.00000000000E+00 0. -1.
    9000007    2    1    2  501    0 -0.17151637463E+03  0.12473552215E+03 -0.28498039837E+03  0.53508843985E+03  0.40016120970E+03 0.  0.
    9000005    1    3    3    0    0 -0.21830555269E+03  0.33359667385E+02  0.11697203236E+02  0.22115154601E+03  0.99999687468E+00 0.  0.
          4    1    3    3  501    0  0.46789178061E+02  0.91375854768E+02 -0.29667760161E+03  0.31393689384E+03  0.00000000000E+00 0.  1.
   -9000007    1    1    2    0  503  0.17151637463E+03 -0.12473552215E+03 -0.99871337120E+02  0.46362819288E+03  0.40000000000E+03 0. -1.
<mgrwt>
<rscale>  2 0.45285048E+03</rscale>
<asrwt>0</asrwt>
<pdfrwt beam="1">  1       21 0.47220377E-01 0.45288609E+03</pdfrwt>
<pdfrwt beam="2">  1       21 0.10642834E+00 0.45288609E+03</pdfrwt>
<totfact> 0.26272731E+03</totfact>
</mgrwt>
</event>
<event>
 6    1  0.8947013E-004  0.6469211E+03  0.7818608E-02  0.9812639E-01
         21   -1    0    0  501  502  0.00000000000E+00  0.00000000000E+00  0.14519924128E+04  0.14519924128E+04  0.00000000000E+00 0.  1.
         21   -1    0    0  502  503 -0.00000000000E+00 -0.00000000000E+00 -0.28982686939E+03  0.28982686939E+03  0.00000000000E+00 0. -1.
    9000007    2    1    2  501    0 -0.15905165767E+03 -0.48273137481E+03  0.64704445417E+03  0.91497180738E+03  0.40022477759E+03 0.  0.
    9000005    1    3    3    0    0 -0.26429432996E+03 -0.38185176146E+03  0.34153704115E+03  0.57646405877E+03  0.99999687468E+00 0.  0.
          4    1    3    3  501    0  0.10524267230E+03 -0.10087961335E+03  0.30550741301E+03  0.33850774861E+03  0.00000000000E+00 0.  1.
   -9000007    1    1    2    0  503  0.15905165767E+03  0.48273137481E+03  0.51512108927E+03  0.82684747484E+03  0.40000000000E+03 0.  1.
<mgrwt>
<rscale>  2 0.64688632E+03</rscale>
<asrwt>0</asrwt>
<pdfrwt beam="1">  1       21 0.22338344E+00 0.64692108E+03</pdfrwt>
<pdfrwt beam="2">  1       21 0.44588750E-01 0.64692108E+03</pdfrwt>
<totfact> 0.34623326E+02</totfact>
</mgrwt>
</event>
<event>
 6    1  0.8947013E-004  0.4253835E+03  0.7818608E-02  0.1035439E+00
         21   -1    0    0  501  502  0.00000000000E+00  0.00000000000E+00  0.14953997864E+03  0.14953997864E+03  0.00000000000E+00 0.  1.
         21   -1    0    0  502  503 -0.00000000000E+00 -0.00000000000E+00 -0.14542736103E+04  0.14542736103E+04  0.00000000000E+00 0.  1.
    9000007    2    1    2  501    0  0.11110539329E+03 -0.92772226659E+02 -0.32024739135E+03  0.53135647940E+03  0.39853509515E+03 0.  0.
    9000005    1    3    3    0    0  0.25986722636E+02  0.45148722362E+02 -0.36059323507E+03  0.36433802719E+03  0.99999687468E+00 0.  0.
          4    1    3    3  501    0  0.85118670654E+02 -0.13792094902E+03  0.40345843714E+02  0.16701845221E+03  0.00000000000E+00 0.  1.
   -9000007    1    1    2    0  503 -0.11110539329E+03  0.92772226659E+02 -0.98448624031E+03  0.10724571095E+04  0.40000000000E+03 0.  1.
<mgrwt>
<rscale>  2 0.42503875E+03</rscale>
<asrwt>0</asrwt>
<pdfrwt beam="1">  1       21 0.23006151E-01 0.42538347E+03</pdfrwt>
<pdfrwt beam="2">  1       21 0.22373440E+00 0.42538347E+03</pdfrwt>
<totfact> 0.14284957E+03</totfact>
</mgrwt>
</event>
<event>
 6    1  0.8947013E-004  0.4292399E+03  0.7818608E-02  0.1034124E+00
         21   -1    0    0  501  502  0.00000000000E+00  0.00000000000E+00  0.99406034178E+02  0.99406034178E+02  0.00000000000E+00 0.  1.
         21   -1    0    0  502  503 -0.00000000000E+00 -0.00000000000E+00 -0.21940901527E+04  0.21940901527E+04  0.00000000000E+00 0.  1.
    9000007    2    1    2  501    0 -0.70393861574E+02 -0.13889414463E+03 -0.59437836742E+03  0.73299491294E+03  0.39968615136E+03 0.  0.
    9000005    1    3    3    0    0  0.98010164114E+02 -0.18787683931E+03 -0.16305862156E+03  0.26738140003E+03  0.99999687468E+00 0.  0.
          4    1    3    3  501    0 -0.16840402569E+03  0.48982694686E+02 -0.43131974586E+03  0.46561351292E+03  0.00000000000E+00 0.  1.
   -9000007    1    1    2    0  503  0.70393861574E+02  0.13889414463E+03 -0.15003057511E+04  0.15605012739E+04  0.40000000000E+03 0.  1.
<mgrwt>
<rscale>  2 0.42916675E+03</rscale>
<asrwt>0</asrwt>
<pdfrwt beam="1">  1       21 0.15293236E-01 0.42923989E+03</pdfrwt>
<pdfrwt beam="2">  1       21 0.33755234E+00 0.42923989E+03</pdfrwt>
<totfact> 0.62751453E+02</totfact>
</mgrwt>
</event>
<event>
 6    1  0.8947013E-004  0.4264132E+03  0.7818608E-02  0.1035017E+00
         21   -1    0    0  501  502  0.00000000000E+00  0.00000000000E+00  0.53035788287E+03  0.53035788287E+03  0.00000000000E+00 0.  1.
         21   -1    0    0  502  503 -0.00000000000E+00 -0.00000000000E+00 -0.71010621689E+03  0.71010621689E+03  0.00000000000E+00 0.  1.
    9000007    2    1    2  501    0 -0.10301646108E+03  0.10498762375E+03  0.35627416177E+03  0.55566127530E+03  0.40024165467E+03 0.  0.
    9000005    1    3    3    0    0  0.13971112234E+02  0.22684874946E+03  0.99048807948E+02  0.24792582249E+03  0.99999687468E+00 0.  0.
          4    1    3    3  501    0 -0.11698757332E+03 -0.12186112571E+03  0.25722535382E+03  0.30773545281E+03  0.00000000000E+00 0.  1.
   -9000007    1    1    2    0  503  0.10301646108E+03 -0.10498762375E+03 -0.53602249579E+03  0.68480282446E+03  0.40000000000E+03 0.  1.
<mgrwt>
<rscale>  2 0.42635644E+03</rscale>
<asrwt>0</asrwt>
<pdfrwt beam="1">  1       21 0.81593520E-01 0.42641315E+03</pdfrwt>
<pdfrwt beam="2">  1       21 0.10924711E+00 0.42641315E+03</pdfrwt>
<totfact> 0.74493035E+02</totfact>
</mgrwt>
</event>
<event>
 6    1  0.8947013E-004  0.4001798E+03  0.7818608E-02  0.1043749E+00
         21   -1    0    0  501  502  0.00000000000E+00  0.00000000000E+00  0.12568228501E+03  0.12568228501E+03  0.00000000000E+00 0.  1.
         21   -1    0    0  502  503 -0.00000000000E+00 -0.00000000000E+00 -0.12911223209E+04  0.12911223209E+04  0.00000000000E+00 0.  1.
    9000007    2    1    2  501    0 -0.71173795983E+00 -0.11973192369E+02 -0.66633581472E+03  0.77707897136E+03  0.39963038655E+03 0.  0.
    9000005    1    3    3    0    0 -0.12020694158E+03 -0.12451661423E+03 -0.13077488276E+03  0.21692663732E+03  0.99999687468E+00 0.  0.
          4    1    3    3  501    0  0.11949520362E+03  0.11254342186E+03 -0.53556093196E+03  0.56015233404E+03  0.00000000000E+00 0.  1.
   -9000007    1    1    2    0  503  0.71173795983E+00  0.11973192369E+02 -0.49910422121E+03  0.63972563458E+03  0.40000000000E+03 0.  1.
<mgrwt>
<rscale>  2 0.40008740E+03</rscale>
<asrwt>0</asrwt>
<pdfrwt beam="1">  1       21 0.19335737E-01 0.40017979E+03</pdfrwt>
<pdfrwt beam="2">  1       21 0.19863420E+00 0.40017979E+03</pdfrwt>
<totfact> 0.29312877E+03</totfact>
</mgrwt>
</event>
<event>
 6    1  0.8947013E-004  0.4141910E+03  0.7818608E-02  0.1038985E+00
         21   -1    0    0  501  502  0.00000000000E+00  0.00000000000E+00  0.61610952233E+03  0.61610952233E+03  0.00000000000E+00 0. -1.
         21   -1    0    0  502  503 -0.00000000000E+00 -0.00000000000E+00 -0.71067380359E+03  0.71067380359E+03  0.00000000000E+00 0. -1.
    9000007    2    1    2  501    0  0.46834785218E+02 -0.96750471624E+02  0.47013199773E+03  0.62647193920E+03  0.39986103142E+03 0.  0.
    9000005    1    3    3    0    0  0.60666979497E+02 -0.93092346573E+02  0.54195917376E+03  0.55323359751E+03  0.99999687468E+00 0.  0.
          4    1    3    3  501    0 -0.13832194279E+02 -0.36581250508E+01 -0.71827176030E+02  0.73238341693E+02  0.00000000000E+00 0.  1.
   -9000007    1    1    2    0  503 -0.46834785218E+02  0.96750471624E+02 -0.56469627899E+03  0.70031138672E+03  0.40000000000E+03 0. -1.
<mgrwt>
<rscale>  2 0.41415740E+03</rscale>
<asrwt>0</asrwt>
<pdfrwt beam="1">  1       21 0.94786080E-01 0.41419096E+03</pdfrwt>
<pdfrwt beam="2">  1       21 0.10933443E+00 0.41419096E+03</pdfrwt>
<totfact> 0.52552108E+02</totfact>
</mgrwt>
</event>
<event>
 6    1  0.8947013E-004  0.4232642E+03  0.7818608E-02  0.1036022E+00
         21   -1    0    0  501  502  0.00000000000E+00  0.00000000000E+00  0.57889787587E+03  0.57889787587E+03  0.00000000000E+00 0. -1.
         21   -1    0    0  502  503 -0.00000000000E+00 -0.00000000000E+00 -0.47901788944E+03  0.47901788944E+03  0.00000000000E+00 0. -1.
    9000007    2    1    2  501    0  0.65187051473E+02  0.12207878016E+03  0.36473983311E+03  0.55861293272E+03  0.39982581520E+03 0.  0.
    9000005    1    3    3    0    0 -0.10044700190E+02  0.11596617180E+02  0.41538961779E+03  0.41567404549E+03  0.99999687468E+00 0.  0.
          4    1    3    3  501    0  0.75231751664E+02  0.11048216298E+03 -0.50649784677E+02  0.14293888723E+03  0.00000000000E+00 0.  1.
   -9000007    1    1    2    0  503 -0.65187051473E+02 -0.12207878016E+03 -0.26485984668E+03  0.49930283259E+03  0.40000000000E+03 0. -1.
<mgrwt>
<rscale>  2 0.42322304E+03</rscale>
<asrwt>0</asrwt>
<pdfrwt beam="1">  1       21 0.89061211E-01 0.42326420E+03</pdfrwt>
<pdfrwt beam="2">  1       21 0.73695060E-01 0.42326420E+03</pdfrwt>
<totfact> 0.15439330E+03</totfact>
</mgrwt>
</event>
<event>
 6    1  0.8947013E-004  0.4974568E+03  0.7818608E-02  0.1014455E+00
         21   -1    0    0  501  502  0.00000000000E+00  0.00000000000E+00  0.13448898045E+04  0.13448898045E+04  0.00000000000E+00 0.  1.
         21   -1    0    0  502  503 -0.00000000000E+00 -0.00000000000E+00 -0.10838536112E+04  0.10838536112E+04  0.00000000000E+00 0.  1.
    9000007    2    1    2  501    0 -0.14783121538E+03  0.25585534194E+03  0.12370555733E+04  0.13333303181E+04  0.40018398459E+03 0.  0.
    9000005    1    3    3    0    0  0.41929896290E+02 -0.72263820255E+02  0.47411270442E+03  0.48141877031E+03  0.99999687468E+00 0.  0.
          4    1    3    3  501    0 -0.18976111167E+03  0.32811916220E+03  0.76294286885E+03  0.85191154778E+03  0.00000000000E+00 0.  1.
   -9000007    1    1    2    0  503  0.14783121538E+03 -0.25585534194E+03 -0.97601938000E+03  0.10954130976E+04  0.40000000000E+03 0.  1.
<mgrwt>
<rscale>  2 0.49741977E+03</rscale>
<asrwt>0</asrwt>
<pdfrwt beam="1">  1       21 0.20690612E+00 0.49745678E+03</pdfrwt>
<pdfrwt beam="2">  1       21 0.16674671E+00 0.49745678E+03</pdfrwt>
<totfact> 0.20158093E+01</totfact>
</mgrwt>
</event>
<event>
 6    1  0.8947013E-004  0.4382783E+03  0.7818608E-02  0.1031282E+00
         21   -1    0    0  501  502  0.00000000000E+00  0.00000000000E+00  0.84777421849E+03  0.84777421849E+03  0.00000000000E+00 0.  1.
         21   -1    0    0  502  503 -0.00000000000E+00 -0.00000000000E+00 -0.50742406431E+03  0.50742406431E+03  0.00000000000E+00 0.  1.
    9000007    2    1    2  501    0 -0.13620156484E+03  0.11634870786E+03  0.67430801792E+03  0.80418490471E+03  0.39991770385E+03 0.  0.
    9000005    1    3    3    0    0  0.34122642165E+02  0.60603256246E+02 -0.31226787919E+02  0.76244486053E+02  0.99999687468E+00 0.  0.
          4    1    3    3  501    0 -0.17032420701E+03  0.55745451614E+02  0.70553480584E+03  0.72794041866E+03  0.00000000000E+00 0.  1.
   -9000007    1    1    2    0  503  0.13620156484E+03 -0.11634870786E+03 -0.33395786373E+03  0.55101337809E+03  0.40000000000E+03 0.  1.
<mgrwt>
<rscale>  2 0.43825954E+03</rscale>
<asrwt>0</asrwt>
<pdfrwt beam="1">  1       21 0.13042680E+00 0.43827832E+03</pdfrwt>
<pdfrwt beam="2">  1       21 0.78065241E-01 0.43827832E+03</pdfrwt>
<totfact> 0.52376637E+02</totfact>
</mgrwt>
</event>
<event>
 6    1  0.8947013E-004  0.5069595E+03  0.7818608E-02  0.1012047E+00
         21   -1    0    0  501  502  0.00000000000E+00  0.00000000000E+00  0.16740081816E+03  0.16740081816E+03  0.00000000000E+00 0.  1.
         21   -1    0    0  502  503 -0.00000000000E+00 -0.00000000000E+00 -0.16687801839E+04  0.16687801839E+04  0.00000000000E+00 0.  1.
    9000007    2    1    2  501    0 -0.29224332706E+03 -0.10771157878E+03 -0.10127667712E+04  0.11320856861E+04  0.39863958834E+03 0.  0.
    9000005    1    3    3    0    0  0.27971177435E+02 -0.16043147382E+03 -0.20672650247E+03  0.26316818078E+03  0.99999687468E+00 0.  0.
          4    1    3    3  501    0 -0.32021450449E+03  0.52719895038E+02 -0.80604026872E+03  0.86891750530E+03  0.00000000000E+00 0.  1.
   -9000007    1    1    2    0  503  0.29224332706E+03  0.10771157878E+03 -0.48861259454E+03  0.70409531596E+03  0.40000000000E+03 0.  1.
<mgrwt>
<rscale>  2 0.50669112E+03</rscale>
<asrwt>0</asrwt>
<pdfrwt beam="1">  1       21 0.25753972E-01 0.50695951E+03</pdfrwt>
<pdfrwt beam="2">  1       21 0.25673541E+00 0.50695951E+03</pdfrwt>
<totfact> 0.68794785E+02</totfact>
</mgrwt>
</event>
<event>
 6    1  0.8947013E-004  0.4163922E+03  0.7818608E-02  0.1038360E+00
         21   -1    0    0  501  502  0.00000000000E+00  0.00000000000E+00  0.26303222378E+03  0.26303222378E+03  0.00000000000E+00 0. -1.
         21   -1    0    0  502  503 -0.00000000000E+00 -0.00000000000E+00 -0.72287381678E+03  0.72287381678E+03  0.00000000000E+00 0. -1.
    9000007    2    1    2  501    0 -0.49958026056E+02  0.10433934112E+03 -0.80764680293E+02  0.42280586455E+03  0.39857165359E+03 0.  0.
    9000005    1    3    3    0    0  0.76038676967E+02  0.71149521680E+02  0.13515313570E+03  0.17062093925E+03  0.99999687468E+00 0.  0.
          4    1    3    3  501    0 -0.12599670302E+03  0.33189819437E+02 -0.21591781599E+03  0.25218492530E+03  0.00000000000E+00 0.  1.
   -9000007    1    1    2    0  503  0.49958026056E+02 -0.10433934112E+03 -0.37907691270E+03  0.56310017600E+03  0.40000000000E+03 0. -1.
<mgrwt>
<rscale>  2 0.41604884E+03</rscale>
<asrwt>0</asrwt>
<pdfrwt beam="1">  1       21 0.40466497E-01 0.41639225E+03</pdfrwt>
<pdfrwt beam="2">  1       21 0.11121135E+00 0.41639225E+03</pdfrwt>
<totfact> 0.32956252E+03</totfact>
</mgrwt>
</event>
<event>
 6    1  0.8947013E-004  0.4704278E+03  0.7818608E-02  0.1021818E+00
         21   -1    0    0  501  502  0.00000000000E+00  0.00000000000E+00  0.23453907244E+04  0.23453907244E+04  0.00000000000E+00 0. -1.
         21   -1    0    0  502  503 -0.00000000000E+00 -0.00000000000E+00 -0.45378965011E+03  0.45378965011E+03  0.00000000000E+00 0. -1.
    9000007    2    1    2  501    0 -0.15724331073E+03 -0.19061295243E+03  0.21915566622E+04  0.22414778452E+04  0.40030434752E+03 0.  0.
    9000005    1    3    3    0    0 -0.28031011005E+03 -0.52873991364E+02  0.13783502804E+04  0.14075581382E+04  0.99999687468E+00 0.  0.
          4    1    3    3  501    0  0.12306679932E+03 -0.13773896107E+03  0.81320638176E+03  0.83391970706E+03  0.00000000000E+00 0.  1.
   -9000007    1    1    2    0  503  0.15724331073E+03  0.19061295243E+03 -0.29995558793E+03  0.55770252925E+03  0.40000000000E+03 0. -1.
<mgrwt>
<rscale>  2 0.47036306E+03</rscale>
<asrwt>0</asrwt>
<pdfrwt beam="1">  1       21 0.36082934E+00 0.47042781E+03</pdfrwt>
<pdfrwt beam="2">  1       21 0.69813794E-01 0.47042781E+03</pdfrwt>
<totfact> 0.20375740E+01</totfact>
</mgrwt>
</event>
<event>
 6    1  0.8947013E-004  0.4853732E+03  0.7818608E-02  0.1017709E+00
         21   -1    0    0  501  502  0.00000000000E+00  0.00000000000E+00  0.19481332955E+03  0.19481332955E+03  0.00000000000E+00 0. -1.
         21   -1    0    0  502  503 -0.00000000000E+00 -0.00000000000E+00 -0.17538171615E+04  0.17538171615E+04  0.00000000000E+00 0. -1.
    9000007    2    1    2  501    0 -0.14284695973E+03  0.23368156348E+03 -0.23620155043E+03  0.53979472950E+03  0.40071791893E+03 0.  0.
    9000005    1    3    3    0    0 -0.25738452271E+03  0.87305282085E+02 -0.49329640220E+02  0.27623073364E+03  0.99999687468E+00 0.  0.
          4    1    3    3  501    0  0.11453756298E+03  0.14637628139E+03 -0.18687191021E+03  0.26356399586E+03  0.00000000000E+00 0.  1.
   -9000007    1    1    2    0  503  0.14284695973E+03 -0.23368156348E+03 -0.13228022815E+04  0.14088357615E+04  0.40000000000E+03 0. -1.
<mgrwt>
<rscale>  2 0.48522503E+03</rscale>
<asrwt>0</asrwt>
<pdfrwt beam="1">  1       21 0.29971280E-01 0.48537324E+03</pdfrwt>
<pdfrwt beam="2">  1       21 0.26981804E+00 0.48537324E+03</pdfrwt>
<totfact> 0.42877614E+02</totfact>
</mgrwt>
</event>
<event>
 6    1  0.8947013E-004  0.5432036E+03  0.7818608E-02  0.1003147E+00
         21   -1    0    0  501  502  0.00000000000E+00  0.00000000000E+00  0.80187118514E+03  0.80187118514E+03  0.00000000000E+00 0.  1.
         21   -1    0    0  502  503 -0.00000000000E+00 -0.00000000000E+00 -0.38709388449E+03  0.38709388449E+03  0.00000000000E+00 0. -1.
    9000007    2    1    2  501    0  0.29848610541E+03  0.21442051447E+03  0.34194333294E+03  0.64090038457E+03  0.39844441000E+03 0.  0.
    9000005    1    3    3    0    0  0.32005431496E+03  0.54267718384E+02  0.81999271307E+02  0.33482029548E+03  0.99999687468E+00 0.  0.
          4    1    3    3  501    0 -0.21568209550E+02  0.16015279609E+03  0.25994406163E+03  0.30608008909E+03  0.00000000000E+00 0.  1.
   -9000007    1    1    2    0  503 -0.29848610541E+03 -0.21442051447E+03  0.72833967715E+02  0.54806468505E+03  0.40000000000E+03 0. -1.
<mgrwt>
<rscale>  2 0.54291722E+03</rscale>
<asrwt>0</asrwt>
<pdfrwt beam="1">  1       21 0.12336480E+00 0.54320356E+03</pdfrwt>
<pdfrwt beam="2">  1       21 0.59552905E-01 0.54320356E+03</pdfrwt>
<totfact> 0.10656701E+03</totfact>
</mgrwt>
</event>
<event>
 6    1  0.8947013E-004  0.5439369E+03  0.7818608E-02  0.1002915E+00
         21   -1    0    0  501  502  0.00000000000E+00  0.00000000000E+00  0.30405718395E+03  0.30405718395E+03  0.00000000000E+00 0.  1.
         21   -1    0    0  502  503 -0.00000000000E+00 -0.00000000000E+00 -0.16736225938E+04  0.16736225938E+04  0.00000000000E+00 0. -1.
    9000007    2    1    2  501    0  0.36827162565E+03  0.15599482238E+02 -0.44866388148E+02  0.54565504605E+03  0.39982383920E+03 0.  0.
    9000005    1    3    3    0    0  0.99012326216E+02  0.11718868295E+03 -0.17248346782E+03  0.23084231592E+03  0.99999687468E+00 0.  0.
          4    1    3    3  501    0  0.26925929943E+03 -0.10158920071E+03  0.12761707967E+03  0.31481273013E+03  0.00000000000E+00 0.  1.
   -9000007    1    1    2    0  503 -0.36827162565E+03 -0.15599482238E+02 -0.13246990217E+04  0.14320247317E+04  0.40000000000E+03 0. -1.
<mgrwt>
<rscale>  2 0.54390450E+03</rscale>
<asrwt>0</asrwt>
<pdfrwt beam="1">  1       21 0.46778029E-01 0.54393688E+03</pdfrwt>
<pdfrwt beam="2">  1       21 0.25748040E+00 0.54393688E+03</pdfrwt>
<totfact> 0.19913029E+02</totfact>
</mgrwt>
</event>
<event>
 6    1  0.8947013E-004  0.4446753E+03  0.7818608E-02  0.1029511E+00
         21   -1    0    0  501  502  0.00000000000E+00  0.00000000000E+00  0.43921658904E+03  0.43921658904E+03  0.00000000000E+00 0. -1.
         21   -1    0    0  502  503 -0.00000000000E+00 -0.00000000000E+00 -0.45138494301E+03  0.45138494301E+03  0.00000000000E+00 0.  1.
    9000007    2    1    2  501    0 -0.19043121452E+03  0.38367861044E+02  0.34227694634E+02  0.44351235353E+03  0.39723485803E+03 0.  0.
    9000005    1    3    3    0    0  0.12002820838E+03 -0.30614008294E+02  0.16743936209E+02  0.12500139081E+03  0.99999687468E+00 0.  0.
          4    1    3    3  501    0 -0.31045942290E+03  0.68981869338E+02  0.17483758425E+02  0.31851096272E+03  0.00000000000E+00 0.  1.
   -9000007    1    1    2    0  503  0.19043121452E+03 -0.38367861044E+02 -0.46396048599E+02  0.44708917852E+03  0.40000000000E+03 0.  1.
<mgrwt>
<rscale>  2 0.44405259E+03</rscale>
<asrwt>0</asrwt>
<pdfrwt beam="1">  1       21 0.67571783E-01 0.44467532E+03</pdfrwt>
<pdfrwt beam="2">  1       21 0.69443838E-01 0.44467532E+03</pdfrwt>
<totfact> 0.33012127E+03</totfact>
</mgrwt>
</event>
<event>
 6    1  0.8947013E-004  0.4184340E+03  0.7818608E-02  0.1037654E+00
         21   -1    0    0  501  502  0.00000000000E+00  0.00000000000E+00  0.42499254463E+03  0.42499254463E+03  0.00000000000E+00 0. -1.
         21   -1    0    0  502  503 -0.00000000000E+00 -0.00000000000E+00 -0.66919574555E+03  0.66919574555E+03  0.00000000000E+00 0. -1.
    9000007    2    1    2  501    0 -0.12245044871E+03 -0.96389169621E+01  0.21777236706E+03  0.47088383286E+03  0.39902350693E+03 0.  0.
    9000005    1    3    3    0    0 -0.10176926067E+03 -0.19366181484E+03  0.17665236281E+03  0.28119199531E+03  0.99999687468E+00 0.  0.
          4    1    3    3  501    0 -0.20681188038E+02  0.18402289788E+03  0.41120004250E+02  0.18969183755E+03  0.00000000000E+00 0.  1.
   -9000007    1    1    2    0  503  0.12245044871E+03  0.96389169621E+01 -0.46197556798E+03  0.62330445732E+03  0.40000000000E+03 0. -1.
<mgrwt>
<rscale>  2 0.41820047E+03</rscale>
<asrwt>0</asrwt>
<pdfrwt beam="1">  1       21 0.65383468E-01 0.41843401E+03</pdfrwt>
<pdfrwt beam="2">  1       21 0.10295319E+00 0.41843401E+03</pdfrwt>
<totfact> 0.14293188E+03</totfact>
</mgrwt>
</event>
<event>
 6    1  0.8947013E-004  0.4492147E+03  0.7818608E-02  0.1028081E+00
         21   -1    0    0  501  502  0.00000000000E+00  0.00000000000E+00  0.23360974995E+03  0.23360974995E+03  0.00000000000E+00 0.  1.
         21   -1    0    0  502  503 -0.00000000000E+00 -0.00000000000E+00 -0.11249056754E+04  0.11249056754E+04  0.00000000000E+00 0.  1.
    9000007    2    1    2  501    0  0.75343144479E+02 -0.18609105271E+03 -0.11703914495E+03  0.46421120895E+03  0.40185496855E+03 0.  0.
    9000005    1    3    3    0    0 -0.14184866409E+03 -0.14398705327E+03 -0.13371079900E+03  0.24234870079E+03  0.99999687468E+00 0.  0.
          4    1    3    3  501    0  0.21719180857E+03 -0.42103999443E+02  0.16671654042E+02  0.22186250816E+03  0.00000000000E+00 0.  1.
   -9000007    1    1    2    0  503 -0.75343144479E+02  0.18609105271E+03 -0.77425678050E+03  0.89430421640E+03  0.40000000000E+03 0.  1.
<mgrwt>
<rscale>  2 0.44879951E+03</rscale>
<asrwt>0</asrwt>
<pdfrwt beam="1">  1       21 0.35939962E-01 0.44921474E+03</pdfrwt>
<pdfrwt beam="2">  1       21 0.17306241E+00 0.44921474E+03</pdfrwt>
<totfact> 0.12809598E+03</totfact>
</mgrwt>
</event>
<event>
 6    1  0.8947013E-004  0.4384804E+03  0.7818608E-02  0.1031218E+00
         21   -1    0    0  501  502  0.00000000000E+00  0.00000000000E+00  0.10826693041E+03  0.10826693041E+03  0.00000000000E+00 0. -1.
         21   -1    0    0  502  503 -0.00000000000E+00 -0.00000000000E+00 -0.17827607272E+04  0.17827607272E+04  0.00000000000E+00 0. -1.
    9000007    2    1    2  501    0  0.13708454928E+03 -0.11586907252E+03 -0.89711772513E+03  0.99854159475E+03  0.40005910573E+03 0.  0.
    9000005    1    3    3    0    0 -0.31299745869E+02 -0.10128105609E+03 -0.79294852413E+03  0.80000368020E+03  0.99999687468E+00 0.  0.
          4    1    3    3  501    0  0.16838429515E+03 -0.14588016430E+02 -0.10416920100E+03  0.19853791455E+03  0.00000000000E+00 0.  1.
   -9000007    1    1    2    0  503 -0.13708454928E+03  0.11586907252E+03 -0.77737607168E+03  0.89248606288E+03  0.40000000000E+03 0. -1.
<mgrwt>
<rscale>  2 0.43846697E+03</rscale>
<asrwt>0</asrwt>
<pdfrwt beam="1">  1       21 0.16656449E-01 0.43848045E+03</pdfrwt>
<pdfrwt beam="2">  1       21 0.27427091E+00 0.43848045E+03</pdfrwt>
<totfact> 0.12803292E+03</totfact>
</mgrwt>
</event>
<event>
 6    1  0.8947013E-004  0.4040830E+03  0.7818608E-02  0.1042393E+00
         21   -1    0    0  501  502  0.00000000000E+00  0.00000000000E+00  0.41686954070E+03  0.41686954070E+03  0.00000000000E+00 0. -1.
         21   -1    0    0  502  503 -0.00000000000E+00 -0.00000000000E+00 -0.42672768404E+03  0.42672768404E+03  0.00000000000E+00 0. -1.
    9000007    2    1    2  501    0 -0.18182879915E+02 -0.54336579308E+02  0.11628161885E+03  0.42028372320E+03  0.39979233626E+03 0.  0.
    9000005    1    3    3    0    0 -0.18314244662E+03  0.65735015270E+02  0.22999484443E+02  0.19593933822E+03  0.99999687468E+00 0.  0.
          4    1    3    3  501    0  0.16495956670E+03 -0.12007159458E+03  0.93282134409E+02  0.22434438498E+03  0.00000000000E+00 0.  1.
   -9000007    1    1    2    0  503  0.18182879915E+02  0.54336579308E+02 -0.12613976219E+03  0.42331350153E+03  0.40000000000E+03 0.  1.
<mgrwt>
<rscale>  2 0.40403161E+03</rscale>
<asrwt>0</asrwt>
<pdfrwt beam="1">  1       21 0.64133776E-01 0.40408301E+03</pdfrwt>
<pdfrwt beam="2">  1       21 0.65650413E-01 0.40408301E+03</pdfrwt>
<totfact> 0.42660539E+03</totfact>
</mgrwt>
</event>
<event>
 6    1  0.8947013E-004  0.6993384E+03  0.7818608E-02  0.9718474E-01
         21   -1    0    0  501  502  0.00000000000E+00  0.00000000000E+00  0.97568952757E+03  0.97568952757E+03  0.00000000000E+00 0. -1.
         21   -1    0    0  502  503 -0.00000000000E+00 -0.00000000000E+00 -0.83820445015E+03  0.83820445015E+03  0.00000000000E+00 0. -1.
    9000007    2    1    2  501    0  0.47807942203E+03 -0.31703985649E+03  0.64391540550E+03  0.95044398984E+03  0.39955290515E+03 0.  0.
    9000005    1    3    3    0    0  0.19494953225E+01 -0.88176916202E+02 -0.30883146583E+02  0.93454469232E+02  0.99999687468E+00 0.  0.
          4    1    3    3  501    0  0.47612992671E+03 -0.22886294029E+03  0.67479855208E+03  0.85698952061E+03  0.00000000000E+00 0.  1.
   -9000007    1    1    2    0  503 -0.47807942203E+03  0.31703985649E+03 -0.50643032808E+03  0.86344998788E+03  0.40000000000E+03 0. -1.
<mgrwt>
<rscale>  2 0.69927449E+03</rscale>
<asrwt>0</asrwt>
<pdfrwt beam="1">  1       21 0.15010608E+00 0.69933840E+03</pdfrwt>
<pdfrwt beam="2">  1       21 0.12895453E+00 0.69933840E+03</pdfrwt>
<totfact> 0.94874840E+01</totfact>
</mgrwt>
</event>
<event>
 6    1  0.8947013E-004  0.4425045E+03  0.7818608E-02  0.1030062E+00
         21   -1    0    0  501  502  0.00000000000E+00  0.00000000000E+00  0.33574766383E+03  0.33574766383E+03  0.00000000000E+00 0.  1.
         21   -1    0    0  502  503 -0.00000000000E+00 -0.00000000000E+00 -0.15317359839E+04  0.15317359839E+04  0.00000000000E+00 0.  1.
    9000007    2    1    2  501    0  0.18640293752E+03  0.11001457945E+02  0.13706056384E+03  0.46324491657E+03  0.40117722689E+03 0.  0.
    9000005    1    3    3    0    0  0.61341436604E+02  0.14343312952E+03 -0.83700745701E+02  0.17703855319E+03  0.99999687468E+00 0.  0.
          4    1    3    3  501    0  0.12506150092E+03 -0.13243167158E+03  0.22076130954E+03  0.28620636338E+03  0.00000000000E+00 0.  1.
   -9000007    1    1    2    0  503 -0.18640293752E+03 -0.11001457945E+02 -0.13330488839E+04  0.14042387311E+04  0.40000000000E+03 0.  1.
<mgrwt>
<rscale>  2 0.44223753E+03</rscale>
<asrwt>0</asrwt>
<pdfrwt beam="1">  1       21 0.51653488E-01 0.44250452E+03</pdfrwt>
<pdfrwt beam="2">  1       21 0.23565168E+00 0.44250452E+03</pdfrwt>
<totfact> 0.23195795E+02</totfact>
</mgrwt>
</event>
<event>
 6    1  0.8947013E-004  0.4431720E+03  0.7818608E-02  0.1029812E+00
         21   -1    0    0  501  502  0.00000000000E+00  0.00000000000E+00  0.10188685414E+04  0.10188685414E+04  0.00000000000E+00 0.  1.
         21   -1    0    0  502  503 -0.00000000000E+00 -0.00000000000E+00 -0.47839361059E+03  0.47839361059E+03  0.00000000000E+00 0.  1.
    9000007    2    1    2  501    0 -0.18518444231E+03 -0.45914240498E+02  0.84884535819E+03  0.95736057245E+03  0.39949897171E+03 0.  0.
    9000005    1    3    3    0    0 -0.15733778315E+03  0.13545405317E+03  0.22088566277E+03  0.30314098129E+03  0.99999687468E+00 0.  0.
          4    1    3    3  501    0 -0.27846659152E+02 -0.18136829367E+03  0.62795969542E+03  0.65421959116E+03  0.00000000000E+00 0.  1.
   -9000007    1    1    2    0  503  0.18518444231E+03  0.45914240498E+02 -0.30837042736E+03  0.53990157957E+03  0.40000000000E+03 0.  1.
<mgrwt>
<rscale>  2 0.44305888E+03</rscale>
<asrwt>0</asrwt>
<pdfrwt beam="1">  1       21 0.15674901E+00 0.44317197E+03</pdfrwt>
<pdfrwt beam="2">  1       21 0.73599017E-01 0.44317197E+03</pdfrwt>
<totfact> 0.36569204E+02</totfact>
</mgrwt>
</event>
<event>
 6    1  0.8947013E-004  0.5468133E+03  0.7818608E-02  0.1002255E+00
         21   -1    0    0  501  502  0.00000000000E+00  0.00000000000E+00  0.41559155535E+03  0.41559155535E+03  0.00000000000E+00 0.  1.
         21   -1    0    0  502  503 -0.00000000000E+00 -0.00000000000E+00 -0.89305530573E+03  0.89305530573E+03  0.00000000000E+00 0.  1.
    9000007    2    1    2  501    0  0.22776780200E+03 -0.29452762398E+03  0.50064636268E+02  0.54910035715E+03  0.40047477012E+03 0.  0.
    9000005    1    3    3    0    0  0.56159466473E+02  0.13162035509E+01 -0.14490621405E+03  0.15541695188E+03  0.99999687468E+00 0.  0.
          4    1    3    3  501    0  0.17160833552E+03 -0.29584382753E+03  0.19497085032E+03  0.39368340527E+03  0.00000000000E+00 0.  1.
   -9000007    1    1    2    0  503 -0.22776780200E+03  0.29452762398E+03 -0.52752838665E+03  0.75954650393E+03  0.40000000000E+03 0.  1.
<mgrwt>
<rscale>  2 0.54672633E+03</rscale>
<asrwt>0</asrwt>
<pdfrwt beam="1">  1       21 0.63937163E-01 0.54681325E+03</pdfrwt>
<pdfrwt beam="2">  1       21 0.13739312E+00 0.54681325E+03</pdfrwt>
<totfact> 0.68656722E+02</totfact>
</mgrwt>
</event>
<event>
 6    1  0.8947013E-004  0.4362350E+03  0.7818608E-02  0.1031918E+00
         21   -1    0    0  501  502  0.00000000000E+00  0.00000000000E+00  0.51321589747E+03  0.51321589747E+03  0.00000000000E+00 0. -1.
         21   -1    0    0  502  503 -0.00000000000E+00 -0.00000000000E+00 -0.59946915331E+03  0.59946915331E+03  0.00000000000E+00 0. -1.
    9000007    2    1    2  501    0  0.14493837850E+02 -0.17346727354E+03  0.30056433663E+03  0.52965090411E+03  0.39986271825E+03 0.  0.
    9000005    1    3    3    0    0 -0.19456646438E+02 -0.17890041707E+03 -0.42466844896E+02  0.18490092814E+03  0.99999687468E+00 0.  0.
          4    1    3    3  501    0  0.33950484288E+02  0.54331435279E+01  0.34303118153E+03  0.34474997597E+03  0.00000000000E+00 0.  1.
   -9000007    1    1    2    0  503 -0.14493837850E+02  0.17346727354E+03 -0.38681759247E+03  0.58303414666E+03  0.40000000000E+03 0. -1.
<mgrwt>
<rscale>  2 0.43620352E+03</rscale>
<asrwt>0</asrwt>
<pdfrwt beam="1">  1       21 0.78956292E-01 0.43623499E+03</pdfrwt>
<pdfrwt beam="2">  1       21 0.92226024E-01 0.43623499E+03</pdfrwt>
<totfact> 0.12075431E+03</totfact>
</mgrwt>
</event>
<event>
 6    1  0.8947013E-004  0.4563057E+03  0.7818608E-02  0.1025905E+00
         21   -1    0    0  501  502  0.00000000000E+00  0.00000000000E+00  0.53821024983E+03  0.53821024983E+03  0.00000000000E+00 0.  1.
         21   -1    0    0  502  503 -0.00000000000E+00 -0.00000000000E+00 -0.40529150795E+03  0.40529150795E+03  0.00000000000E+00 0.  1.
    9000007    2    1    2  501    0  0.25054262997E+02  0.21680323976E+03  0.16856135309E+03  0.48644404086E+03  0.40072872902E+03 0.  0.
    9000005    1    3    3    0    0 -0.10045146722E+03  0.26959870044E+03  0.19523894069E+03  0.34769699524E+03  0.99999687468E+00 0.  0.
          4    1    3    3  501    0  0.12550573022E+03 -0.52795460684E+02 -0.26677587599E+02  0.13874704561E+03  0.00000000000E+00 0.  1.
   -9000007    1    1    2    0  503 -0.25054262997E+02 -0.21680323976E+03 -0.35642611215E+02  0.45705771692E+03  0.40000000000E+03 0.  1.
<mgrwt>
<rscale>  2 0.45614564E+03</rscale>
<asrwt>0</asrwt>
<pdfrwt beam="1">  1       21 0.82801577E-01 0.45630568E+03</pdfrwt>
<pdfrwt beam="2">  1       21 0.62352540E-01 0.45630568E+03</pdfrwt>
<totfact> 0.26287235E+03</totfact>
</mgrwt>
</event>
<event>
 6    1  0.8947013E-004  0.4897146E+03  0.7818608E-02  0.1016548E+00
         21   -1    0    0  501  502  0.00000000000E+00  0.00000000000E+00  0.48430978052E+03  0.48430978052E+03  0.00000000000E+00 0. -1.
         21   -1    0    0  502  503 -0.00000000000E+00 -0.00000000000E+00 -0.59720438396E+03  0.59720438396E+03  0.00000000000E+00 0. -1.
    9000007    2    1    2  501    0 -0.52437021428E+02 -0.27631414011E+03  0.16783999237E+03  0.51767814353E+03  0.40090055127E+03 0.  0.
    9000005    1    3    3    0    0  0.15531323142E+03 -0.22541370282E+03  0.11777315505E+03  0.29800176730E+03  0.99999687468E+00 0.  0.
          4    1    3    3  501    0 -0.20775025285E+03 -0.50900437295E+02  0.50066837322E+02  0.21967637623E+03  0.00000000000E+00 0.  1.
   -9000007    1    1    2    0  503  0.52437021428E+02  0.27631414011E+03 -0.28073459581E+03  0.56383602095E+03  0.40000000000E+03 0. -1.
<mgrwt>
<rscale>  2 0.48953027E+03</rscale>
<asrwt>0</asrwt>
<pdfrwt beam="1">  1       21 0.74509197E-01 0.48971461E+03</pdfrwt>
<pdfrwt beam="2">  1       21 0.91877597E-01 0.48971461E+03</pdfrwt>
<totfact> 0.13630132E+03</totfact>
</mgrwt>
</event>
<event>
 6    1  0.8947013E-004  0.4865035E+03  0.7818608E-02  0.1017731E+00
         21   -1    0    0  501  502  0.00000000000E+00  0.00000000000E+00  0.13580834344E+04  0.13580834344E+04  0.00000000000E+00 0.  1.
         21   -1    0    0  502  503 -0.00000000000E+00 -0.00000000000E+00 -0.17730572404E+03  0.17730572404E+03  0.00000000000E+00 0. -1.
    9000007    2    1    2  501    0  0.24916535050E+03 -0.12083974512E+03  0.71557384904E+03  0.86226194278E+03  0.39340069731E+03 0.  0.
    9000005    1    3    3    0    0  0.23905717772E+03 -0.23231813645E+03  0.36529031054E+03  0.49452812024E+03  0.99999687468E+00 0.  0.
          4    1    3    3  501    0  0.10108172782E+02  0.11147839133E+03  0.35028353850E+03  0.36773382253E+03  0.00000000000E+00 0.  1.
   -9000007    1    1    2    0  503 -0.24916535050E+03  0.12083974512E+03  0.46520386132E+03  0.67312721567E+03  0.40000000000E+03 0. -1.
<mgrwt>
<rscale>  2 0.48514497E+03</rscale>
<asrwt>0</asrwt>
<pdfrwt beam="1">  1       21 0.20893591E+00 0.48650346E+03</pdfrwt>
<pdfrwt beam="2">  1       21 0.27277805E-01 0.48650346E+03</pdfrwt>
<totfact> 0.12422567E+03</totfact>
</mgrwt>
</event>
<event>
 6    1  0.8947013E-004  0.4310934E+03  0.7818608E-02  0.1033574E+00
         21   -1    0    0  501  502  0.00000000000E+00  0.00000000000E+00  0.36600965955E+03  0.36600965955E+03  0.00000000000E+00 0.  1.
         21   -1    0    0  502  503 -0.00000000000E+00 -0.00000000000E+00 -0.50711049370E+03  0.50711049370E+03  0.00000000000E+00 0.  1.
    9000007    2    1    2  501    0  0.12429047787E+03 -0.10194806064E+03 -0.79877423183E+02  0.43770100346E+03  0.39919949366E+03 0.  0.
    9000005    1    3    3    0    0  0.11549731564E+03 -0.48729495473E+02 -0.23889235411E+03  0.26978649057E+03  0.99999687468E+00 0.  0.
          4    1    3    3  501    0  0.87931622277E+01 -0.53218565170E+02  0.15901493093E+03  0.16791451289E+03  0.00000000000E+00 0.  1.
   -9000007    1    1    2    0  503 -0.12429047787E+03  0.10194806064E+03 -0.61223410967E+02  0.43541914979E+03  0.40000000000E+03 0.  1.
<mgrwt>
<rscale>  2 0.43090763E+03</rscale>
<asrwt>0</asrwt>
<pdfrwt beam="1">  1       21 0.56309178E-01 0.43109341E+03</pdfrwt>
<pdfrwt beam="2">  1       21 0.78016999E-01 0.43109341E+03</pdfrwt>
<totfact> 0.38036408E+03</totfact>
</mgrwt>
</event>
<event>
 6    1  0.8947013E-004  0.7313269E+03  0.7818608E-02  0.9665127E-01
         21   -1    0    0  501  502  0.00000000000E+00  0.00000000000E+00  0.41826949325E+03  0.41826949325E+03  0.00000000000E+00 0. -1.
         21   -1    0    0  502  503 -0.00000000000E+00 -0.00000000000E+00 -0.14355720355E+04  0.14355720355E+04  0.00000000000E+00 0. -1.
    9000007    2    1    2  501    0 -0.37258871455E+03  0.48575015699E+03 -0.81515376352E+03  0.10951322999E+04  0.40007940562E+03 0.  0.
    9000005    1    3    3    0    0 -0.11527090937E+03  0.44029051328E+03 -0.40738748093E+03  0.61082622590E+03  0.99999687468E+00 0.  0.
          4    1    3    3  501    0 -0.25731780517E+03  0.45459643711E+02 -0.40776628259E+03  0.48430607397E+03  0.00000000000E+00 0.  1.
   -9000007    1    1    2    0  503  0.37258871455E+03 -0.48575015699E+03 -0.20214877871E+03  0.75870922886E+03  0.40000000000E+03 0. -1.
<mgrwt>
<rscale>  2 0.73131608E+03</rscale>
<asrwt>0</asrwt>
<pdfrwt beam="1">  1       21 0.64349153E-01 0.73132694E+03</pdfrwt>
<pdfrwt beam="2">  1       21 0.22085724E+00 0.73132694E+03</pdfrwt>
<totfact> 0.15748280E+02</totfact>
</mgrwt>
</event>
<event>
 6    1  0.8947013E-004  0.5359385E+03  0.7818608E-02  0.1004828E+00
         21   -1    0    0  501  502  0.00000000000E+00  0.00000000000E+00  0.63810064837E+03  0.63810064837E+03  0.00000000000E+00 0.  1.
         21   -1    0    0  502  503 -0.00000000000E+00 -0.00000000000E+00 -0.62139702098E+03  0.62139702098E+03  0.00000000000E+00 0.  1.
    9000007    2    1    2  501    0  0.59574218985E+02 -0.35168303668E+03  0.33931716893E+03  0.63395027463E+03  0.39940801659E+03 0.  0.
    9000005    1    3    3    0    0 -0.10108873604E+03 -0.14722535049E+03 -0.31195872994E+02  0.18129649436E+03  0.99999687468E+00 0.  0.
          4    1    3    3  501    0  0.16066295502E+03 -0.20445768619E+03  0.37051304193E+03  0.45265378027E+03  0.00000000000E+00 0.  1.
   -9000007    1    1    2    0  503 -0.59574218985E+02  0.35168303668E+03 -0.32261354154E+03  0.62554739472E+03  0.40000000000E+03 0.  1.
<mgrwt>
<rscale>  2 0.53582802E+03</rscale>
<asrwt>0</asrwt>
<pdfrwt beam="1">  1       21 0.98169331E-01 0.53593847E+03</pdfrwt>
<pdfrwt beam="2">  1       21 0.95599541E-01 0.53593847E+03</pdfrwt>
<totfact> 0.63725098E+02</totfact>
</mgrwt>
</event>
<event>
 6    1  0.8947013E-004  0.4154588E+03  0.7818608E-02  0.1038571E+00
         21   -1    0    0  501  502  0.00000000000E+00  0.00000000000E+00  0.18318226227E+03  0.18318226227E+03  0.00000000000E+00 0. -1.
         21   -1    0    0  502  503 -0.00000000000E+00 -0.00000000000E+00 -0.11568833383E+04  0.11568833383E+04  0.00000000000E+00 0. -1.
    9000007    2    1    2  501    0 -0.51751413351E+02  0.99638365005E+02 -0.19784851324E+03  0.45997855275E+03  0.39978772146E+03 0.  0.
    9000005    1    3    3    0    0  0.13180127561E+03  0.16057891032E+03 -0.16162151003E+03  0.26321032501E+03  0.99999687468E+00 0.  0.
          4    1    3    3  501    0 -0.18355268896E+03 -0.60940545319E+02 -0.36227003215E+02  0.19676822774E+03  0.00000000000E+00 0.  1.
   -9000007    1    1    2    0  503  0.51751413351E+02 -0.99638365005E+02 -0.77585256284E+03  0.88008704787E+03  0.40000000000E+03 0. -1.
<mgrwt>
<rscale>  2 0.41540769E+03</rscale>
<asrwt>0</asrwt>
<pdfrwt beam="1">  1       21 0.28181887E-01 0.41545880E+03</pdfrwt>
<pdfrwt beam="2">  1       21 0.17798205E+00 0.41545880E+03</pdfrwt>
<totfact> 0.19495951E+03</totfact>
</mgrwt>
</event>
<event>
 6    1  0.8947013E-004  0.4932208E+03  0.7818608E-02  0.1015570E+00
         21   -1    0    0  501  502  0.00000000000E+00  0.00000000000E+00  0.13359065544E+04  0.13359065544E+04  0.00000000000E+00 0. -1.
         21   -1    0    0  502  503 -0.00000000000E+00 -0.00000000000E+00 -0.22201623907E+03  0.22201623907E+03  0.00000000000E+00 0.  1.
    9000007    2    1    2  501    0 -0.19923423464E+03  0.20874021548E+03  0.88733735052E+03  0.10151585687E+04  0.39989072031E+03 0.  0.
    9000005    1    3    3    0    0 -0.16478881780E+03  0.31368074222E+03  0.79790060500E+03  0.87303913885E+03  0.99999687468E+00 0.  0.
          4    1    3    3  501    0 -0.34445416840E+02 -0.10494052675E+03  0.89436745521E+02  0.14211942986E+03  0.00000000000E+00 0.  1.
   -9000007    1    1    2    0  503  0.19923423464E+03 -0.20874021548E+03  0.22655296481E+03  0.54276422476E+03  0.40000000000E+03 0. -1.
<mgrwt>
<rscale>  2 0.49319864E+03</rscale>
<asrwt>0</asrwt>
<pdfrwt beam="1">  1       21 0.20552408E+00 0.49322080E+03</pdfrwt>
<pdfrwt beam="2">  1       21 0.34156345E-01 0.49322080E+03</pdfrwt>
<totfact> 0.83288066E+02</totfact>
</mgrwt>
</event>
<event>
 6    1  0.8947013E-004  0.4833856E+03  0.7818608E-02  0.1018214E+00
         21   -1    0    0  501  502  0.00000000000E+00  0.00000000000E+00  0.17073811373E+04  0.17073811373E+04  0.00000000000E+00 0.  1.
         21   -1    0    0  502  503 -0.00000000000E+00 -0.00000000000E+00 -0.18744703009E+03  0.18744703009E+03  0.00000000000E+00 0. -1.
    9000007    2    1    2  501    0 -0.32951502128E+01 -0.27138675297E+03  0.12522305349E+04  0.13422642975E+04  0.39991312055E+03 0.  0.
    9000005    1    3    3    0    0 -0.14412976767E+02  0.10534769983E+03  0.26545800525E+03  0.28596297715E+03  0.99999687468E+00 0.  0.
          4    1    3    3  501    0  0.11117826554E+02 -0.37673445280E+03  0.98677252969E+03  0.10563013203E+04  0.00000000000E+00 0.  1.
   -9000007    1    1    2    0  503  0.32951502128E+01  0.27138675297E+03  0.26770357226E+03  0.55256386988E+03  0.40000000000E+03 0. -1.
<mgrwt>
<rscale>  2 0.48336762E+03</rscale>
<asrwt>0</asrwt>
<pdfrwt beam="1">  1       21 0.26267401E+00 0.48338559E+03</pdfrwt>
<pdfrwt beam="2">  1       21 0.28838006E-01 0.48338559E+03</pdfrwt>
<totfact> 0.51215174E+02</totfact>
</mgrwt>
</event>
<event>
 6    1  0.8947013E-004  0.4753054E+03  0.7818608E-02  0.1020554E+00
         21   -1    0    0  501  502  0.00000000000E+00  0.00000000000E+00  0.12352301492E+04  0.12352301492E+04  0.00000000000E+00 0.  1.
         21   -1    0    0  502  503 -0.00000000000E+00 -0.00000000000E+00 -0.22693967365E+03  0.22693967365E+03  0.00000000000E+00 0. -1.
    9000007    2    1    2  501    0 -0.92947988911E+02 -0.23585706910E+03  0.82939970792E+03  0.95593885539E+03  0.40205389449E+03 0.  0.
    9000005    1    3    3    0    0 -0.89439663441E+02 -0.29675464477E+03  0.32962716293E+03  0.45245755505E+03  0.99999687468E+00 0.  0.
          4    1    3    3  501    0 -0.35083254708E+01  0.60897575671E+02  0.49977254498E+03  0.50348130034E+03  0.00000000000E+00 0.  1.
   -9000007    1    1    2    0  503  0.92947988911E+02  0.23585706910E+03  0.17889076765E+03  0.50623096748E+03  0.40000000000E+03 0. -1.
<mgrwt>
<rscale>  2 0.47487078E+03</rscale>
<asrwt>0</asrwt>
<pdfrwt beam="1">  1       21 0.19003541E+00 0.47530540E+03</pdfrwt>
<pdfrwt beam="2">  1       21 0.34913796E-01 0.47530540E+03</pdfrwt>
<totfact> 0.10207423E+03</totfact>
</mgrwt>
</event>
<event>
 6    1  0.8947013E-004  0.4798904E+03  0.7818608E-02  0.1019196E+00
         21   -1    0    0  501  502  0.00000000000E+00  0.00000000000E+00  0.83140708790E+03  0.83140708790E+03  0.00000000000E+00 0.  1.
         21   -1    0    0  502  503 -0.00000000000E+00 -0.00000000000E+00 -0.27815058291E+03  0.27815058291E+03  0.00000000000E+00 0. -1.
    9000007    2    1    2  501    0  0.16787593569E+03 -0.20521314290E+03  0.31606181880E+03  0.57424833690E+03  0.39946378475E+03 0.  0.
    9000005    1    3    3    0    0  0.13685831874E+03 -0.10917125292E+03 -0.59854565570E+02  0.18501927166E+03  0.99999687468E+00 0.  0.
          4    1    3    3  501    0  0.31017616954E+02 -0.96041889984E+02  0.37591638437E+03  0.38922906524E+03  0.00000000000E+00 0.  1.
   -9000007    1    1    2    0  503 -0.16787593569E+03  0.20521314290E+03  0.23719468619E+03  0.53530933390E+03  0.40000000000E+03 0.  1.
<mgrwt>
<rscale>  2 0.47977861E+03</rscale>
<asrwt>0</asrwt>
<pdfrwt beam="1">  1       21 0.12790878E+00 0.47989037E+03</pdfrwt>
<pdfrwt beam="2">  1       21 0.42792398E-01 0.47989037E+03</pdfrwt>
<totfact> 0.20109557E+03</totfact>
</mgrwt>
</event>
<event>
 6    1  0.8947013E-004  0.4372453E+03  0.7818608E-02  0.1031617E+00
         21   -1    0    0  501  502  0.00000000000E+00  0.00000000000E+00  0.48595207258E+03  0.48595207258E+03  0.00000000000E+00 0. -1.
         21   -1    0    0  502  503 -0.00000000000E+00 -0.00000000000E+00 -0.17343769717E+04  0.17343769717E+04  0.00000000000E+00 0. -1.
    9000007    2    1    2  501    0  0.18937587317E+02 -0.17487041922E+03  0.35199835430E+03  0.56132546205E+03  0.40030630420E+03 0.  0.
    9000005    1    3    3    0    0 -0.13713411505E+02 -0.21924811175E+02  0.39758384474E+03  0.39842523589E+03  0.99999687468E+00 0.  0.
          4    1    3    3  501    0  0.32650998822E+02 -0.15294560804E+03 -0.45585490441E+02  0.16290022616E+03  0.00000000000E+00 0.  1.
   -9000007    1    1    2    0  503 -0.18937587317E+02  0.17487041922E+03 -0.16004232534E+04  0.16590035822E+04  0.40000000000E+03 0. -1.
<mgrwt>
<rscale>  2 0.43717516E+03</rscale>
<asrwt>0</asrwt>
<pdfrwt beam="1">  1       21 0.74761856E-01 0.43724528E+03</pdfrwt>
<pdfrwt beam="2">  1       21 0.26682723E+00 0.43724528E+03</pdfrwt>
<totfact> 0.66302797E+01</totfact>
</mgrwt>
</event>
<event>
 6    1  0.8947013E-004  0.4134209E+03  0.7818608E-02  0.1039257E+00
         21   -1    0    0  501  502  0.00000000000E+00  0.00000000000E+00  0.79389618301E+03  0.79389618301E+03  0.00000000000E+00 0.  1.
         21   -1    0    0  502  503 -0.00000000000E+00 -0.00000000000E+00 -0.21540063949E+03  0.21540063949E+03  0.00000000000E+00 0.  1.
    9000007    2    1    2  501    0 -0.97535625076E+02 -0.33505726657E+02  0.27088097866E+03  0.49426036516E+03  0.40035106105E+03 0.  0.
    9000005    1    3    3    0    0 -0.19951314180E+03  0.72943649087E+02  0.27413541310E+03  0.34681045890E+03  0.99999687468E+00 0.  0.
          4    1    3    3  501    0  0.10197751672E+03 -0.10644937574E+03 -0.32544344319E+01  0.14744990626E+03  0.00000000000E+00 0.  1.
   -9000007    1    1    2    0  503  0.97535625076E+02  0.33505726657E+02  0.30761456486E+03  0.51503645734E+03  0.40000000000E+03 0. -1.
<mgrwt>
<rscale>  2 0.41333584E+03</rscale>
<asrwt>0</asrwt>
<pdfrwt beam="1">  1       21 0.12213787E+00 0.41342086E+03</pdfrwt>
<pdfrwt beam="2">  1       21 0.33138560E-01 0.41342086E+03</pdfrwt>
<totfact> 0.39135820E+03</totfact>
</mgrwt>
</event>
<event>
 6    1  0.8947013E-004  0.4474359E+03  0.7818608E-02  0.1028503E+00
         21   -1    0    0  501  502  0.00000000000E+00  0.00000000000E+00  0.98983580987E+03  0.98983580987E+03  0.00000000000E+00 0. -1.
         21   -1    0    0  502  503 -0.00000000000E+00 -0.00000000000E+00 -0.32739677501E+03  0.32739677501E+03  0.00000000000E+00 0. -1.
    9000007    2    1    2  501    0 -0.20009969829E+03  0.49737512255E+00  0.73858049209E+03  0.86353923233E+03  0.40019835810E+03 0.  0.
    9000005    1    3    3    0    0 -0.27182634041E+01  0.46983754747E+02  0.63331746700E+03  0.63506446615E+03  0.99999687468E+00 0.  0.
          4    1    3    3  501    0 -0.19738143488E+03 -0.46486379625E+02  0.10526302509E+03  0.22847476618E+03  0.00000000000E+00 0.  1.
   -9000007    1    1    2    0  503  0.20009969829E+03 -0.49737512255E+00 -0.76141457232E+02  0.45369335255E+03  0.40000000000E+03 0. -1.
<mgrwt>
<rscale>  2 0.44739152E+03</rscale>
<asrwt>0</asrwt>
<pdfrwt beam="1">  1       21 0.15228243E+00 0.44743588E+03</pdfrwt>
<pdfrwt beam="2">  1       21 0.50368735E-01 0.44743588E+03</pdfrwt>
<totfact> 0.90926990E+02</totfact>
</mgrwt>
</event>
<event>
 6    1  0.8947013E-004  0.4100593E+03  0.7818608E-02  0.1040358E+00
         21   -1    0    0  501  502  0.00000000000E+00  0.00000000000E+00  0.89222299160E+03  0.89222299160E+03  0.00000000000E+00 0.  1.
         21   -1    0    0  502  503 -0.00000000000E+00 -0.00000000000E+00 -0.26023178868E+03  0.26023178868E+03  0.00000000000E+00 0.  1.
    9000007    2    1    2  501    0 -0.78630808111E+02  0.44337791238E+02  0.61866568294E+03  0.74217900327E+03  0.39991724387E+03 0.  0.
    9000005    1    3    3    0    0  0.67699849086E+01 -0.16391658321E+03  0.15013712323E+03  0.22238847702E+03  0.99999687468E+00 0.  0.
          4    1    3    3  501    0 -0.85400793020E+02  0.20825437444E+03  0.46852855971E+03  0.51979052626E+03  0.00000000000E+00 0.  1.
   -9000007    1    1    2    0  503  0.78630808111E+02 -0.44337791238E+02  0.13325519983E+02  0.41027577701E+03  0.40000000000E+03 0.  1.
<mgrwt>
<rscale>  2 0.41003913E+03</rscale>
<asrwt>0</asrwt>
<pdfrwt beam="1">  1       21 0.13726507E+00 0.41005932E+03</pdfrwt>
<pdfrwt beam="2">  1       21 0.40035660E-01 0.41005932E+03</pdfrwt>
<totfact> 0.19737434E+03</totfact>
</mgrwt>
</event>
<event>
 6    1  0.8947013E-004  0.4655520E+03  0.7818608E-02  0.1023195E+00
         21   -1    0    0  501  502  0.00000000000E+00  0.00000000000E+00  0.19319418064E+04  0.19319418064E+04  0.00000000000E+00 0.  1.
         21   -1    0    0  502  503 -0.00000000000E+00 -0.00000000000E+00 -0.11573730234E+03  0.11573730234E+03  0.00000000000E+00 0.  1.
    9000007    2    1    2  501    0 -0.14180398098E+03  0.19139053617E+03  0.72759568584E+03  0.86369943599E+03  0.39980311071E+03 0.  0.
    9000005    1    3    3    0    0  0.34015716114E+02 -0.56501807290E+02 -0.92833084852E+01  0.66608580378E+02  0.99999687468E+00 0.  0.
          4    1    3    3  501    0 -0.17581969710E+03  0.24789234346E+03  0.73687899432E+03  0.79709085561E+03  0.00000000000E+00 0.  1.
   -9000007    1    1    2    0  503  0.14180398098E+03 -0.19139053617E+03  0.10886088183E+04  0.11839796728E+04  0.40000000000E+03 0.  1.
<mgrwt>
<rscale>  2 0.46550975E+03</rscale>
<asrwt>0</asrwt>
<pdfrwt beam="1">  1       21 0.29722179E+00 0.46555204E+03</pdfrwt>
<pdfrwt beam="2">  1       21 0.17805740E-01 0.46555204E+03</pdfrwt>
<totfact> 0.81011710E+02</totfact>
</mgrwt>
</event>
<event>
 6    1  0.8947013E-004  0.4350489E+03  0.7818608E-02  0.1032306E+00
         21   -1    0    0  501  502  0.00000000000E+00  0.00000000000E+00  0.84600952834E+03  0.84600952834E+03  0.00000000000E+00 0. -1.
         21   -1    0    0  502  503 -0.00000000000E+00 -0.00000000000E+00 -0.37742009194E+03  0.37742009194E+03  0.00000000000E+00 0. -1.
    9000007    2    1    2  501    0 -0.12795918069E+03  0.11355186580E+03  0.62485166466E+03  0.76116837150E+03  0.39958742322E+03 0.  0.
    9000005    1    3    3    0    0 -0.17277411141E+03  0.23708411185E+03  0.35123717324E+03  0.45763339205E+03  0.99999687468E+00 0.  0.
          4    1    3    3  501    0  0.44814930726E+02 -0.12353224605E+03  0.27361449142E+03  0.30353497944E+03  0.00000000000E+00 0.  1.
   -9000007    1    1    2    0  503  0.12795918069E+03 -0.11355186580E+03 -0.15626222826E+03  0.46226124878E+03  0.40000000000E+03 0. -1.
<mgrwt>
<rscale>  2 0.43495408E+03</rscale>
<asrwt>0</asrwt>
<pdfrwt beam="1">  1       21 0.13015531E+00 0.43504894E+03</pdfrwt>
<pdfrwt beam="2">  1       21 0.58064630E-01 0.43504894E+03</pdfrwt>
<totfact> 0.10221162E+03</totfact>
</mgrwt>
</event>
<event>
 6    1  0.8947013E-004  0.4615223E+03  0.7818608E-02  0.1024353E+00
         21   -1    0    0  501  502  0.00000000000E+00  0.00000000000E+00  0.96845330100E+03  0.96845330100E+03  0.00000000000E+00 0. -1.
         21   -1    0    0  502  503 -0.00000000000E+00 -0.00000000000E+00 -0.55570280877E+03  0.55570280877E+03  0.00000000000E+00 0.  1.
    9000007    2    1    2  501    0 -0.20320574443E+03  0.10821406160E+03  0.79880349593E+03  0.92245869465E+03  0.39980015074E+03 0.  0.
    9000005    1    3    3    0    0 -0.31240611127E+03  0.59384932339E+02  0.43049127869E+03  0.53520826748E+03  0.99999687468E+00 0.  0.
          4    1    3    3  501    0  0.10920036684E+03  0.48829129263E+02  0.36831221724E+03  0.38725042718E+03  0.00000000000E+00 0.  1.
   -9000007    1    1    2    0  503  0.20320574443E+03 -0.10821406160E+03 -0.38605300369E+03  0.60169741512E+03  0.40000000000E+03 0.  1.
<mgrwt>
<rscale>  2 0.46147902E+03</rscale>
<asrwt>0</asrwt>
<pdfrwt beam="1">  1       21 0.14899282E+00 0.46152233E+03</pdfrwt>
<pdfrwt beam="2">  1       21 0.85492740E-01 0.46152233E+03</pdfrwt>
<totfact> 0.29471902E+02</totfact>
</mgrwt>
</event>
<event>
 6    1  0.8947013E-004  0.5184754E+03  0.7818608E-02  0.1009225E+00
         21   -1    0    0  501  502  0.00000000000E+00  0.00000000000E+00  0.13138200928E+04  0.13138200928E+04  0.00000000000E+00 0. -1.
         21   -1    0    0  502  503 -0.00000000000E+00 -0.00000000000E+00 -0.23577824115E+03  0.23577824115E+03  0.00000000000E+00 0.  1.
    9000007    2    1    2  501    0  0.14813532536E+02  0.32552705036E+03  0.82637369160E+03  0.97555638072E+03  0.40327344634E+03 0.  0.
    9000005    1    3    3    0    0  0.10707828369E+03  0.24867486878E+03  0.19701446399E+03  0.33484421484E+03  0.99999687468E+00 0.  0.
          4    1    3    3  501    0 -0.92264751149E+02  0.76852181580E+02  0.62935922761E+03  0.64071216588E+03  0.00000000000E+00 0.  1.
   -9000007    1    1    2    0  503 -0.14813532536E+02 -0.32552705036E+03  0.25166816001E+03  0.57404195319E+03  0.40000000000E+03 0.  1.
<mgrwt>
<rscale>  2 0.51783876E+03</rscale>
<asrwt>0</asrwt>
<pdfrwt beam="1">  1       21 0.20212616E+00 0.51847543E+03</pdfrwt>
<pdfrwt beam="2">  1       21 0.36273576E-01 0.51847543E+03</pdfrwt>
<totfact> 0.76845091E+02</totfact>
</mgrwt>
</event>
<event>
 6    1  0.8947013E-004  0.4365317E+03  0.7818608E-02  0.1031912E+00
         21   -1    0    0  501  502  0.00000000000E+00  0.00000000000E+00  0.17879756946E+04  0.17879756946E+04  0.00000000000E+00 0. -1.
         21   -1    0    0  502  503 -0.00000000000E+00 -0.00000000000E+00 -0.12110603191E+03  0.12110603191E+03  0.00000000000E+00 0. -1.
    9000007    2    1    2  501    0  0.17160676575E+03 -0.62898906604E+01  0.50046933234E+03  0.66410053170E+03  0.40133716351E+03 0.  0.
    9000005    1    3    3    0    0 -0.12106810652E+03  0.57742081832E+02  0.19072660873E+03  0.23317219753E+03  0.99999687468E+00 0.  0.
          4    1    3    3  501    0  0.29267487227E+03 -0.64031972492E+02  0.30974272361E+03  0.43092833417E+03  0.00000000000E+00 0.  1.
   -9000007    1    1    2    0  503 -0.17160676575E+03  0.62898906604E+01  0.11664003303E+04  0.12449811948E+04  0.40000000000E+03 0.  1.
<mgrwt>
<rscale>  2 0.43622416E+03</rscale>
<asrwt>0</asrwt>
<pdfrwt beam="1">  1       21 0.27507316E+00 0.43653174E+03</pdfrwt>
<pdfrwt beam="2">  1       21 0.18631699E-01 0.43653174E+03</pdfrwt>
<totfact> 0.10267463E+03</totfact>
</mgrwt>
</event>
<event>
 6    1  0.8947013E-004  0.4737989E+03  0.7818608E-02  0.1020870E+00
         21   -1    0    0  501  502  0.00000000000E+00  0.00000000000E+00  0.99704305560E+03  0.99704305560E+03  0.00000000000E+00 0. -1.
         21   -1    0    0  502  503 -0.00000000000E+00 -0.00000000000E+00 -0.23579457645E+03  0.23579457645E+03  0.00000000000E+00 0. -1.
    9000007    2    1    2  501    0  0.23788214864E+03 -0.88867772925E+02  0.51220492323E+03  0.69757312692E+03  0.39971112858E+03 0.  0.
    9000005    1    3    3    0    0 -0.21425467641E+02  0.11792238914E+03  0.52839612769E+02  0.13098765283E+03  0.99999687468E+00 0.  0.
          4    1    3    3  501    0  0.25930761628E+03 -0.20679016206E+03  0.45936531047E+03  0.56658547409E+03  0.00000000000E+00 0.  1.
   -9000007    1    1    2    0  503 -0.23788214864E+03  0.88867772925E+02  0.24904355591E+03  0.53526450513E+03  0.40000000000E+03 0.  1.
<mgrwt>
<rscale>  2 0.47373793E+03</rscale>
<asrwt>0</asrwt>
<pdfrwt beam="1">  1       21 0.15339124E+00 0.47379890E+03</pdfrwt>
<pdfrwt beam="2">  1       21 0.36276089E-01 0.47379890E+03</pdfrwt>
<totfact> 0.17458276E+03</totfact>
</mgrwt>
</event>
<event>
 6    1  0.8947013E-004  0.4867704E+03  0.7818608E-02  0.1017376E+00
         21   -1    0    0  501  502  0.00000000000E+00  0.00000000000E+00  0.25198613708E+04  0.25198613708E+04  0.00000000000E+00 0. -1.
         21   -1    0    0  502  503 -0.00000000000E+00 -0.00000000000E+00 -0.14922729460E+03  0.14922729460E+03  0.00000000000E+00 0. -1.
    9000007    2    1    2  501    0  0.26875543467E+03 -0.59078729487E+02  0.19997094498E+04  0.20581018747E+04  0.40152915587E+03 0.  0.
    9000005    1    3    3    0    0  0.23903020811E+03  0.46807237182E+02  0.18793273640E+04  0.18950458303E+04  0.99999687468E+00 0.  0.
          4    1    3    3  501    0  0.29725226559E+02 -0.10588596667E+03  0.12038208582E+03  0.16305604441E+03  0.00000000000E+00 0.  1.
   -9000007    1    1    2    0  503 -0.26875543467E+03  0.59078729487E+02  0.37092462635E+03  0.61098679067E+03  0.40000000000E+03 0. -1.
<mgrwt>
<rscale>  2 0.48645496E+03</rscale>
<asrwt>0</asrwt>
<pdfrwt beam="1">  1       21 0.38767095E+00 0.48677042E+03</pdfrwt>
<pdfrwt beam="2">  1       21 0.22958047E-01 0.48677042E+03</pdfrwt>
<totfact> 0.13707849E+02</totfact>
</mgrwt>
</event>
<event>
 6    1  0.8947013E-004  0.4265079E+03  0.7818608E-02  0.1035016E+00
         21   -1    0    0  501  502  0.00000000000E+00  0.00000000000E+00  0.64759630653E+03  0.64759630653E+03  0.00000000000E+00 0. -1.
         21   -1    0    0  502  503 -0.00000000000E+00 -0.00000000000E+00 -0.53115546913E+03  0.53115546913E+03  0.00000000000E+00 0. -1.
    9000007    2    1    2  501    0 -0.37259592442E+02  0.14325042417E+03  0.46306524956E+03  0.62915424623E+03  0.39937035312E+03 0.  0.
    9000005    1    3    3    0    0  0.76405432706E+01  0.24514559833E+03  0.45576151650E+03  0.51756574674E+03  0.99999687468E+00 0.  0.
          4    1    3    3  501    0 -0.44900135713E+02 -0.10189517416E+03  0.73037330562E+01  0.11158849950E+03  0.00000000000E+00 0.  1.
   -9000007    1    1    2    0  503  0.37259592442E+02 -0.14325042417E+03 -0.34662441215E+03  0.54959752943E+03  0.40000000000E+03 0. -1.
<mgrwt>
<rscale>  2 0.42636018E+03</rscale>
<asrwt>0</asrwt>
<pdfrwt beam="1">  1       21 0.99630201E-01 0.42650787E+03</pdfrwt>
<pdfrwt beam="2">  1       21 0.81716226E-01 0.42650787E+03</pdfrwt>
<totfact> 0.93062467E+02</totfact>
</mgrwt>
</event>
<event>
 6    1  0.8947013E-004  0.4521166E+03  0.7818608E-02  0.1027250E+00
         21   -1    0    0  501  502  0.00000000000E+00  0.00000000000E+00  0.77104868479E+03  0.77104868479E+03  0.00000000000E+00 0. -1.
         21   -1    0    0  502  503 -0.00000000000E+00 -0.00000000000E+00 -0.34405896045E+03  0.34405896045E+03  0.00000000000E+00 0.  1.
    9000007    2    1    2  501    0  0.81481889642E+02  0.18937720896E+03  0.48305174107E+03  0.66162558900E+03  0.40237595586E+03 0.  0.
    9000005    1    3    3    0    0  0.90707512299E+01  0.14660974637E+03  0.54028648865E+03  0.55989926422E+03  0.99999687468E+00 0.  0.
          4    1    3    3  501    0  0.72411138412E+02  0.42767462586E+02 -0.57234747582E+02  0.10172632478E+03  0.00000000000E+00 0.  1.
   -9000007    1    1    2    0  503 -0.81481889642E+02 -0.18937720896E+03 -0.56062016731E+02  0.45348205624E+03  0.40000000000E+03 0.  1.
<mgrwt>
<rscale>  2 0.45158737E+03</rscale>
<asrwt>0</asrwt>
<pdfrwt beam="1">  1       21 0.11862287E+00 0.45211662E+03</pdfrwt>
<pdfrwt beam="2">  1       21 0.52932148E-01 0.45211662E+03</pdfrwt>
<totfact> 0.15730204E+03</totfact>
</mgrwt>
</event>
<event>
 6    1  0.8947013E-004  0.4608398E+03  0.7818608E-02  0.1024634E+00
         21   -1    0    0  501  502  0.00000000000E+00  0.00000000000E+00  0.12876138993E+04  0.12876138993E+04  0.00000000000E+00 0.  1.
         21   -1    0    0  502  503 -0.00000000000E+00 -0.00000000000E+00 -0.16520077983E+03  0.16520077983E+03  0.00000000000E+00 0.  1.
    9000007    2    1    2  501    0  0.86006427926E+01 -0.22599926118E+03  0.61065531478E+03  0.76503150998E+03  0.40152666248E+03 0.  0.
    9000005    1    3    3    0    0  0.52984440170E+02 -0.52229840598E+02  0.57795723708E+03  0.58272710169E+03  0.99999687468E+00 0.  0.
          4    1    3    3  501    0 -0.44383797377E+02 -0.17376942058E+03  0.32698077698E+02  0.18230440830E+03  0.00000000000E+00 0.  1.
   -9000007    1    1    2    0  503 -0.86006427926E+01  0.22599926118E+03  0.51175780472E+03  0.68778316917E+03  0.40000000000E+03 0.  1.
<mgrwt>
<rscale>  2 0.46050702E+03</rscale>
<asrwt>0</asrwt>
<pdfrwt beam="1">  1       21 0.19809444E+00 0.46083977E+03</pdfrwt>
<pdfrwt beam="2">  1       21 0.25415505E-01 0.46083977E+03</pdfrwt>
<totfact> 0.17019823E+03</totfact>
</mgrwt>
</event>
<event>
 6    1  0.8947013E-004  0.4497855E+03  0.7818608E-02  0.1027789E+00
         21   -1    0    0  501  502  0.00000000000E+00  0.00000000000E+00  0.14809818696E+04  0.14809818696E+04  0.00000000000E+00 0.  1.
         21   -1    0    0  502  503 -0.00000000000E+00 -0.00000000000E+00 -0.46580146583E+03  0.46580146583E+03  0.00000000000E+00 0. -1.
    9000007    2    1    2  501    0  0.18087632680E+03  0.97770391469E+02  0.13259156586E+04  0.14001283312E+04  0.40003964192E+03 0.  0.
    9000005    1    3    3    0    0 -0.42958026482E+02 -0.88670672344E+02  0.73215575327E+03  0.73875633819E+03  0.99999687468E+00 0.  0.
          4    1    3    3  501    0  0.22383435328E+03  0.18644106381E+03  0.59375990536E+03  0.66137199306E+03  0.00000000000E+00 0.  1.
   -9000007    1    1    2    0  503 -0.18087632680E+03 -0.97770391469E+02 -0.31073525483E+03  0.54665500422E+03  0.40000000000E+03 0. -1.
<mgrwt>
<rscale>  2 0.44977670E+03</rscale>
<asrwt>0</asrwt>
<pdfrwt beam="1">  1       21 0.22784336E+00 0.44978552E+03</pdfrwt>
<pdfrwt beam="2">  1       21 0.71661765E-01 0.44978552E+03</pdfrwt>
<totfact> 0.12595224E+02</totfact>
</mgrwt>
</event>
<event>
 6    1  0.8947013E-004  0.4218206E+03  0.7818608E-02  0.1036571E+00
         21   -1    0    0  501  502  0.00000000000E+00  0.00000000000E+00  0.11083854390E+03  0.11083854390E+03  0.00000000000E+00 0.  1.
         21   -1    0    0  502  503 -0.00000000000E+00 -0.00000000000E+00 -0.20075202873E+04  0.20075202873E+04  0.00000000000E+00 0.  1.
    9000007    2    1    2  501    0  0.35418514769E+02 -0.12523580146E+03 -0.47267972681E+03  0.63352880039E+03  0.40124075021E+03 0.  0.
    9000005    1    3    3    0    0 -0.15199194833E+03  0.38329896834E+02 -0.27194007174E+03  0.31388395302E+03  0.99999687468E+00 0.  0.
          4    1    3    3  501    0  0.18741046310E+03 -0.16356569829E+03 -0.20073965507E+03  0.31964484737E+03  0.00000000000E+00 0.  1.
   -9000007    1    1    2    0  503 -0.35418514769E+02  0.12523580146E+03 -0.14240020166E+04  0.14848300308E+04  0.40000000000E+03 0.  1.
<mgrwt>
<rscale>  2 0.42152528E+03</rscale>
<asrwt>0</asrwt>
<pdfrwt beam="1">  1       21 0.17052086E-01 0.42182060E+03</pdfrwt>
<pdfrwt beam="2">  1       21 0.30884923E+00 0.42182060E+03</pdfrwt>
<totfact> 0.76654946E+02</totfact>
</mgrwt>
</event>
<event>
 6    1  0.8947013E-004  0.7282688E+03  0.7818608E-02  0.9670864E-01
         21   -1    0    0  501  502  0.00000000000E+00  0.00000000000E+00  0.56873106490E+03  0.56873106490E+03  0.00000000000E+00 0. -1.
         21   -1    0    0  502  503 -0.00000000000E+00 -0.00000000000E+00 -0.93256791218E+03  0.93256791218E+03  0.00000000000E+00 0.  1.
    9000007    2    1    2  501    0  0.26725865659E+03 -0.54676164584E+03 -0.14288720666E+03  0.74025086389E+03  0.39645819550E+03 0.  0.
    9000005    1    3    3    0    0  0.29370720335E+03 -0.54688726055E+03 -0.26967008026E+02  0.62135160462E+03  0.99999687468E+00 0.  0.
          4    1    3    3  501    0 -0.26448546762E+02  0.12561470300E+00 -0.11592019863E+03  0.11889925927E+03  0.00000000000E+00 0.  1.
   -9000007    1    1    2    0  503 -0.26725865659E+03  0.54676164584E+03 -0.22094964063E+03  0.76104811318E+03  0.40000000000E+03 0.  1.
<mgrwt>
<rscale>  2 0.72778352E+03</rscale>
<asrwt>0</asrwt>
<pdfrwt beam="1">  1       21 0.87497088E-01 0.72826883E+03</pdfrwt>
<pdfrwt beam="2">  1       21 0.14347199E+00 0.72826883E+03</pdfrwt>
<totfact> 0.28014774E+02</totfact>
</mgrwt>
</event>
<event>
 6    1  0.8947013E-004  0.4866601E+03  0.7818608E-02  0.1017354E+00
         21   -1    0    0  501  502  0.00000000000E+00  0.00000000000E+00  0.34846367121E+04  0.34846367121E+04  0.00000000000E+00 0. -1.
         21   -1    0    0  502  503 -0.00000000000E+00 -0.00000000000E+00 -0.87179927735E+02  0.87179927735E+02  0.00000000000E+00 0.  1.
    9000007    2    1    2  501    0 -0.27631751337E+03  0.78972695495E+00  0.25393356340E+04  0.25855489781E+04  0.40060711954E+03 0.  0.
    9000005    1    3    3    0    0 -0.18817189819E+03  0.38679707008E+02  0.24396152801E+04  0.24471674437E+04  0.99999687468E+00 0.  0.
          4    1    3    3  501    0 -0.88145615176E+02 -0.37889980053E+02  0.99720353928E+02  0.13838153436E+03  0.00000000000E+00 0.  1.
   -9000007    1    1    2    0  503  0.27631751337E+03 -0.78972695495E+00  0.85812115037E+03  0.98626766173E+03  0.40000000000E+03 0.  1.
<mgrwt>
<rscale>  2 0.48653514E+03</rscale>
<asrwt>0</asrwt>
<pdfrwt beam="1">  1       21 0.53609785E+00 0.48666010E+03</pdfrwt>
<pdfrwt beam="2">  1       21 0.13412299E-01 0.48666010E+03</pdfrwt>
<totfact> 0.36085395E+01</totfact>
</mgrwt>
</event>
<event>
 6    1  0.8947013E-004  0.5667434E+03  0.7818608E-02  0.9979807E-01
         21   -1    0    0  501  502  0.00000000000E+00  0.00000000000E+00  0.50694242445E+03  0.50694242445E+03  0.00000000000E+00 0.  1.
         21   -1    0    0  502  503 -0.00000000000E+00 -0.00000000000E+00 -0.16461137938E+04  0.16461137938E+04  0.00000000000E+00 0.  1.
    9000007    2    1    2  501    0  0.38675442126E+03 -0.76055560778E+02  0.27611556934E+03  0.63042673294E+03  0.40722797950E+03 0.  0.
    9000005    1    3    3    0    0 -0.61348011084E+02 -0.87904651510E+02  0.66438819610E+01  0.10740552771E+03  0.99999687468E+00 0.  0.
          4    1    3    3  501    0  0.44810243234E+03  0.11849090733E+02  0.26947168738E+03  0.52302120523E+03  0.00000000000E+00 0.  1.
   -9000007    1    1    2    0  503 -0.38675442126E+03  0.76055560778E+02 -0.14152869387E+04  0.15226294853E+04  0.40000000000E+03 0.  1.
<mgrwt>
<rscale>  2 0.56544616E+03</rscale>
<asrwt>0</asrwt>
<pdfrwt beam="1">  1       21 0.77991142E-01 0.56674338E+03</pdfrwt>
<pdfrwt beam="2">  1       21 0.25324828E+00 0.56674338E+03</pdfrwt>
<totfact> 0.67696826E+01</totfact>
</mgrwt>
</event>
<event>
 6    1  0.8947013E-004  0.4358331E+03  0.7818608E-02  0.1032049E+00
         21   -1    0    0  501  502  0.00000000000E+00  0.00000000000E+00  0.76172980451E+03  0.76172980451E+03  0.00000000000E+00 0.  1.
         21   -1    0    0  502  503 -0.00000000000E+00 -0.00000000000E+00 -0.60245149160E+03  0.60245149160E+03  0.00000000000E+00 0.  1.
    9000007    2    1    2  501    0 -0.13308065214E+03  0.10981343979E+03  0.60191485696E+03  0.74313656207E+03  0.40022619020E+03 0.  0.
    9000005    1    3    3    0    0 -0.24198641082E+02 -0.98972381716E+02  0.56370917424E+01  0.10204843639E+03  0.99999687468E+00 0.  0.
          4    1    3    3  501    0 -0.10888201106E+03  0.20878582151E+03  0.59627776522E+03  0.64108812568E+03  0.00000000000E+00 0.  1.
   -9000007    1    1    2    0  503  0.13308065214E+03 -0.10981343979E+03 -0.44263654405E+03  0.62104473403E+03  0.40000000000E+03 0.  1.
<mgrwt>
<rscale>  2 0.43578112E+03</rscale>
<asrwt>0</asrwt>
<pdfrwt beam="1">  1       21 0.11718920E+00 0.43583306E+03</pdfrwt>
<pdfrwt beam="2">  1       21 0.92684845E-01 0.43583306E+03</pdfrwt>
<totfact> 0.46163089E+02</totfact>
</mgrwt>
</event>
<event>
 6    1  0.8947013E-004  0.4460911E+03  0.7818608E-02  0.1028933E+00
         21   -1    0    0  501  502  0.00000000000E+00  0.00000000000E+00  0.10347521680E+04  0.10347521680E+04  0.00000000000E+00 0. -1.
         21   -1    0    0  502  503 -0.00000000000E+00 -0.00000000000E+00 -0.31361579070E+03  0.31361579070E+03  0.00000000000E+00 0. -1.
    9000007    2    1    2  501    0  0.48801860864E+02 -0.19135222872E+03  0.78010958751E+03  0.89839558561E+03  0.39943255082E+03 0.  0.
    9000005    1    3    3    0    0 -0.12045456199E+03 -0.61031131509E+02  0.61156246560E+03  0.62629366103E+03  0.99999687468E+00 0.  0.
          4    1    3    3  501    0  0.16925642286E+03 -0.13032109721E+03  0.16854712191E+03  0.27210192458E+03  0.00000000000E+00 0.  1.
   -9000007    1    1    2    0  503 -0.48801860864E+02  0.19135222872E+03 -0.58973210173E+02  0.44997237313E+03  0.40000000000E+03 0. -1.
<mgrwt>
<rscale>  2 0.44596389E+03</rscale>
<asrwt>0</asrwt>
<pdfrwt beam="1">  1       21 0.15919264E+00 0.44609113E+03</pdfrwt>
<pdfrwt beam="2">  1       21 0.48248584E-01 0.44609113E+03</pdfrwt>
<totfact> 0.88206657E+02</totfact>
</mgrwt>
</event>
<event>
 6    1  0.8947013E-004  0.4079237E+03  0.7818608E-02  0.1041103E+00
         21   -1    0    0  501  502  0.00000000000E+00  0.00000000000E+00  0.97180816454E+03  0.97180816454E+03  0.00000000000E+00 0. -1.
         21   -1    0    0  502  503 -0.00000000000E+00 -0.00000000000E+00 -0.20350111269E+03  0.20350111269E+03  0.00000000000E+00 0. -1.
    9000007    2    1    2  501    0  0.14169965094E+02  0.76711345951E+02  0.61891635668E+03  0.74125513508E+03  0.40039518006E+03 0.  0.
    9000005    1    3    3    0    0 -0.71998769436E+01  0.24142980002E+03  0.38027531900E+03  0.45050028280E+03  0.99999687468E+00 0.  0.
          4    1    3    3  501    0  0.21369842037E+02 -0.16471845407E+03  0.23864103769E+03  0.29075485229E+03  0.00000000000E+00 0.  1.
   -9000007    1    1    2    0  503 -0.14169965094E+02 -0.76711345951E+02  0.14939069517E+03  0.43405414214E+03  0.40000000000E+03 0. -1.
<mgrwt>
<rscale>  2 0.40782666E+03</rscale>
<asrwt>0</asrwt>
<pdfrwt beam="1">  1       21 0.14950895E+00 0.40792367E+03</pdfrwt>
<pdfrwt beam="2">  1       21 0.31307864E-01 0.40792367E+03</pdfrwt>
<totfact> 0.25859512E+03</totfact>
</mgrwt>
</event>
<event>
 6    1  0.8947013E-004  0.5084476E+03  0.7818608E-02  0.1011962E+00
         21   -1    0    0  501  502  0.00000000000E+00  0.00000000000E+00  0.49626001443E+03  0.49626001443E+03  0.00000000000E+00 0.  1.
         21   -1    0    0  502  503 -0.00000000000E+00 -0.00000000000E+00 -0.85822652468E+03  0.85822652468E+03  0.00000000000E+00 0.  1.
    9000007    2    1    2  501    0 -0.18195792307E+03  0.25575438922E+03  0.24781873974E+03  0.56053626077E+03  0.39276937062E+03 0.  0.
    9000005    1    3    3    0    0 -0.21227808570E+03  0.33857667717E+03  0.14510097574E+03  0.42514873297E+03  0.99999687468E+00 0.  0.
          4    1    3    3  501    0  0.30320162627E+02 -0.82822287949E+02  0.10271776400E+03  0.13538752780E+03  0.00000000000E+00 0.  1.
   -9000007    1    1    2    0  503  0.18195792307E+03 -0.25575438922E+03 -0.60978524999E+03  0.79395027834E+03  0.40000000000E+03 0.  1.
<mgrwt>
<rscale>  2 0.50702452E+03</rscale>
<asrwt>0</asrwt>
<pdfrwt beam="1">  1       21 0.76347694E-01 0.50844763E+03</pdfrwt>
<pdfrwt beam="2">  1       21 0.13203485E+00 0.50844763E+03</pdfrwt>
<totfact> 0.51796315E+02</totfact>
</mgrwt>
</event>
<event>
 6    1  0.8947013E-004  0.5123709E+03  0.7818608E-02  0.1010654E+00
         21   -1    0    0  501  502  0.00000000000E+00  0.00000000000E+00  0.88723424923E+03  0.88723424923E+03  0.00000000000E+00 0.  1.
         21   -1    0    0  502  503 -0.00000000000E+00 -0.00000000000E+00 -0.60181164820E+03  0.60181164820E+03  0.00000000000E+00 0.  1.
    9000007    2    1    2  501    0 -0.31764999510E+03 -0.27103992239E+02  0.67403128254E+03  0.84666528352E+03  0.40110819824E+03 0.  0.
    9000005    1    3    3    0    0 -0.21678090208E+03  0.18013943829E+03  0.37482583255E+03  0.46897716520E+03  0.99999687468E+00 0.  0.
          4    1    3    3  501    0 -0.10086909301E+03 -0.20724343053E+03  0.29920544998E+03  0.37768811832E+03  0.00000000000E+00 0.  1.
   -9000007    1    1    2    0  503  0.31764999510E+03  0.27103992239E+02 -0.38860868151E+03  0.64238061391E+03  0.40000000000E+03 0.  1.
<mgrwt>
<rscale>  2 0.51215398E+03</rscale>
<asrwt>0</asrwt>
<pdfrwt beam="1">  1       21 0.13649758E+00 0.51237089E+03</pdfrwt>
<pdfrwt beam="2">  1       21 0.92586407E-01 0.51237089E+03</pdfrwt>
<totfact> 0.30169456E+02</totfact>
</mgrwt>
</event>
<event>
 6    1  0.8947013E-004  0.4111263E+03  0.7818608E-02  0.1040227E+00
         21   -1    0    0  501  502  0.00000000000E+00  0.00000000000E+00  0.23289329543E+04  0.23289329543E+04  0.00000000000E+00 0.  1.
         21   -1    0    0  502  503 -0.00000000000E+00 -0.00000000000E+00 -0.13517900796E+03  0.13517900796E+03  0.00000000000E+00 0.  1.
    9000007    2    1    2  501    0 -0.73125760103E+02 -0.37440122592E+02  0.19405696594E+04  0.19836419604E+04  0.40283456210E+03 0.  0.
    9000005    1    3    3    0    0  0.39099850831E+02  0.12669377921E+03  0.26504819298E+03  0.29636406094E+03  0.99999687468E+00 0.  0.
          4    1    3    3  501    0 -0.11222561093E+03 -0.16413390180E+03  0.16755214664E+04  0.16872778994E+04  0.00000000000E+00 0.  1.
   -9000007    1    1    2    0  503  0.73125760103E+02  0.37440122592E+02  0.25318428697E+03  0.48047000191E+03  0.40000000000E+03 0.  1.
<mgrwt>
<rscale>  2 0.41043027E+03</rscale>
<asrwt>0</asrwt>
<pdfrwt beam="1">  1       21 0.35829735E+00 0.41112629E+03</pdfrwt>
<pdfrwt beam="2">  1       21 0.20796772E-01 0.41112629E+03</pdfrwt>
<totfact> 0.26599736E+02</totfact>
</mgrwt>
</event>
<event>
 6    1  0.8947013E-004  0.4724747E+03  0.7818608E-02  0.1021256E+00
         21   -1    0    0  501  502  0.00000000000E+00  0.00000000000E+00  0.10096957435E+04  0.10096957435E+04  0.00000000000E+00 0. -1.
         21   -1    0    0  502  503 -0.00000000000E+00 -0.00000000000E+00 -0.23157537590E+03  0.23157537590E+03  0.00000000000E+00 0. -1.
    9000007    2    1    2  501    0 -0.25059551761E+03  0.13845165016E+00  0.25582187190E+03  0.53728685023E+03  0.40054237813E+03 0.  0.
    9000005    1    3    3    0    0 -0.83576051867E+02  0.96297039040E+02  0.31157888810E+03  0.33666077834E+03  0.99999687468E+00 0.  0.
          4    1    3    3  501    0 -0.16701946574E+03 -0.96158587390E+02 -0.55757016199E+02  0.20062607189E+03  0.00000000000E+00 0.  1.
   -9000007    1    1    2    0  503  0.25059551761E+03 -0.13845165016E+00  0.52229849566E+03  0.70398426913E+03  0.40000000000E+03 0. -1.
<mgrwt>
<rscale>  2 0.47235972E+03</rscale>
<asrwt>0</asrwt>
<pdfrwt beam="1">  1       21 0.15533780E+00 0.47247469E+03</pdfrwt>
<pdfrwt beam="2">  1       21 0.35626981E-01 0.47247469E+03</pdfrwt>
<totfact> 0.17503607E+03</totfact>
</mgrwt>
</event>
<event>
 6    1  0.8947013E-004  0.4619485E+03  0.7818608E-02  0.1024220E+00
         21   -1    0    0  501  502  0.00000000000E+00  0.00000000000E+00  0.41574788846E+03  0.41574788846E+03  0.00000000000E+00 0. -1.
         21   -1    0    0  502  503 -0.00000000000E+00 -0.00000000000E+00 -0.60756078396E+03  0.60756078396E+03  0.00000000000E+00 0. -1.
    9000007    2    1    2  501    0 -0.49620287388E+02  0.22568612062E+03  0.10568384808E+03  0.47385375124E+03  0.39996487828E+03 0.  0.
    9000005    1    3    3    0    0  0.16141254740E+03  0.12983849926E+03 -0.23535734271E+02  0.20848735484E+03  0.99999687468E+00 0.  0.
          4    1    3    3  501    0 -0.21103283478E+03  0.95847621364E+02  0.12921958235E+03  0.26536639640E+03  0.00000000000E+00 0.  1.
   -9000007    1    1    2    0  503  0.49620287388E+02 -0.22568612062E+03 -0.29749674358E+03  0.54945492118E+03  0.40000000000E+03 0. -1.
<mgrwt>
<rscale>  2 0.46194088E+03</rscale>
<asrwt>0</asrwt>
<pdfrwt beam="1">  1       21 0.63961214E-01 0.46194848E+03</pdfrwt>
<pdfrwt beam="2">  1       21 0.93470889E-01 0.46194848E+03</pdfrwt>
<totfact> 0.18631197E+03</totfact>
</mgrwt>
</event>
<event>
 6    1  0.8947013E-004  0.4815226E+03  0.7818608E-02  0.1018750E+00
         21   -1    0    0  501  502  0.00000000000E+00  0.00000000000E+00  0.17114703505E+03  0.17114703505E+03  0.00000000000E+00 0. -1.
         21   -1    0    0  502  503 -0.00000000000E+00 -0.00000000000E+00 -0.14199265407E+04  0.14199265407E+04  0.00000000000E+00 0. -1.
    9000007    2    1    2  501    0 -0.24585253771E+03 -0.10469400023E+03 -0.45251657682E+03  0.66078385968E+03  0.40057427892E+03 0.  0.
    9000005    1    3    3    0    0  0.78554478425E+02 -0.67661717412E+02 -0.11359412710E+01  0.10368801493E+03  0.99999687468E+00 0.  0.
          4    1    3    3  501    0 -0.32440701614E+03 -0.37032282820E+02 -0.45138063555E+03  0.55709584475E+03  0.00000000000E+00 0.  1.
   -9000007    1    1    2    0  503  0.24585253771E+03  0.10469400023E+03 -0.79626292880E+03  0.93028971604E+03  0.40000000000E+03 0.  1.
<mgrwt>
<rscale>  2 0.48140319E+03</rscale>
<asrwt>0</asrwt>
<pdfrwt beam="1">  1       21 0.26330313E-01 0.48152264E+03</pdfrwt>
<pdfrwt beam="2">  1       21 0.21845023E+00 0.48152264E+03</pdfrwt>
<totfact> 0.11574122E+03</totfact>
</mgrwt>
</event>
<event>
 6    1  0.8947013E-004  0.4062846E+03  0.7818608E-02  0.1041877E+00
         21   -1    0    0  501  502  0.00000000000E+00  0.00000000000E+00  0.21315583989E+03  0.21315583989E+03  0.00000000000E+00 0.  1.
         21   -1    0    0  502  503 -0.00000000000E+00 -0.00000000000E+00 -0.86657364176E+03  0.86657364176E+03  0.00000000000E+00 0.  1.
    9000007    2    1    2  501    0  0.51708038143E+02 -0.47738274088E+00 -0.14640313974E+03  0.43185772219E+03  0.40298047569E+03 0.  0.
    9000005    1    3    3    0    0  0.58509174356E+02  0.80807583763E+02 -0.26769852297E+03  0.28568634597E+03  0.99999687468E+00 0.  0.
          4    1    3    3  501    0 -0.68011362127E+01 -0.81284966504E+02  0.12129538323E+03  0.14617137622E+03  0.00000000000E+00 0.  1.
   -9000007    1    1    2    0  503 -0.51708038143E+02  0.47738274088E+00 -0.50701466212E+03  0.64787175946E+03  0.40000000000E+03 0.  1.
<mgrwt>
<rscale>  2 0.40554361E+03</rscale>
<asrwt>0</asrwt>
<pdfrwt beam="1">  1       21 0.32793206E-01 0.40628465E+03</pdfrwt>
<pdfrwt beam="2">  1       21 0.13331902E+00 0.40628465E+03</pdfrwt>
<totfact> 0.31982643E+03</totfact>
</mgrwt>
</event>
<event>
 6    1  0.8947013E-004  0.4896258E+03  0.7818608E-02  0.1016563E+00
         21   -1    0    0  501  502  0.00000000000E+00  0.00000000000E+00  0.71665109840E+03  0.71665109840E+03  0.00000000000E+00 0.  1.
         21   -1    0    0  502  503 -0.00000000000E+00 -0.00000000000E+00 -0.34932002224E+03  0.34932002224E+03  0.00000000000E+00 0. -1.
    9000007    2    1    2  501    0  0.13159659448E+03  0.24865994866E+03  0.29498365120E+03  0.57161944051E+03  0.40072933078E+03 0.  0.
    9000005    1    3    3    0    0  0.17471787425E+03 -0.36117758042E+02  0.31331275102E+02  0.18114490559E+03  0.99999687468E+00 0.  0.
          4    1    3    3  501    0 -0.43121279768E+02  0.28477770670E+03  0.26365237609E+03  0.39047453492E+03  0.00000000000E+00 0.  1.
   -9000007    1    1    2    0  503 -0.13159659448E+03 -0.24865994866E+03  0.72347424969E+02  0.49435168013E+03  0.40000000000E+03 0. -1.
<mgrwt>
<rscale>  2 0.48947655E+03</rscale>
<asrwt>0</asrwt>
<pdfrwt beam="1">  1       21 0.11025401E+00 0.48962581E+03</pdfrwt>
<pdfrwt beam="2">  1       21 0.53741542E-01 0.48962581E+03</pdfrwt>
<totfact> 0.18029330E+03</totfact>
</mgrwt>
</event>
<event>
 6    1  0.8947013E-004  0.6039070E+03  0.7818608E-02  0.9897487E-01
         21   -1    0    0  501  502  0.00000000000E+00  0.00000000000E+00  0.16060084533E+03  0.16060084533E+03  0.00000000000E+00 0. -1.
         21   -1    0    0  502  503 -0.00000000000E+00 -0.00000000000E+00 -0.22766122688E+04  0.22766122688E+04  0.00000000000E+00 0.  1.
    9000007    2    1    2  501    0  0.20591400158E+03 -0.40286853952E+03 -0.11246508905E+04  0.12763947207E+04  0.39955002362E+03 0.  0.
    9000005    1    3    3    0    0 -0.10074733286E+02  0.74275642658E+02 -0.20184947603E+03  0.21531972114E+03  0.99999687468E+00 0.  0.
          4    1    3    3  501    0  0.21598873486E+03 -0.47714418217E+03 -0.92280141451E+03  0.10610749996E+04  0.00000000000E+00 0.  1.
   -9000007    1    1    2    0  503 -0.20591400158E+03  0.40286853952E+03 -0.99136053297E+03  0.11608183934E+04  0.40000000000E+03 0. -1.
<mgrwt>
<rscale>  2 0.60383248E+03</rscale>
<asrwt>0</asrwt>
<pdfrwt beam="1">  1       21 0.24707821E-01 0.60390698E+03</pdfrwt>
<pdfrwt beam="2">  1       21 0.35024806E+00 0.60390698E+03</pdfrwt>
<totfact> 0.19157827E+02</totfact>
</mgrwt>
</event>
<event>
 6    1  0.8947013E-004  0.5588873E+03  0.7818608E-02  0.9994840E-01
         21   -1    0    0  501  502  0.00000000000E+00  0.00000000000E+00  0.55127251727E+03  0.55127251727E+03  0.00000000000E+00 0.  1.
         21   -1    0    0  502  503 -0.00000000000E+00 -0.00000000000E+00 -0.59406837254E+03  0.59406837254E+03  0.00000000000E+00 0.  1.
    9000007    2    1    2  501    0 -0.15209199192E+03 -0.35875104035E+03 -0.14558584492E+03  0.57753804998E+03  0.40065031882E+03 0.  0.
    9000005    1    3    3    0    0 -0.22984790225E+03 -0.15552479211E+03  0.53474645496E+02  0.28262794773E+03  0.99999687468E+00 0.  0.
          4    1    3    3  501    0  0.77755910333E+02 -0.20322624824E+03 -0.19906049042E+03  0.29491010225E+03  0.00000000000E+00 0.  1.
   -9000007    1    1    2    0  503  0.15209199192E+03  0.35875104035E+03  0.10278998965E+03  0.56780283984E+03  0.40000000000E+03 0.  1.
<mgrwt>
<rscale>  2 0.55877071E+03</rscale>
<asrwt>0</asrwt>
<pdfrwt beam="1">  1       21 0.84811157E-01 0.55888725E+03</pdfrwt>
<pdfrwt beam="2">  1       21 0.91395134E-01 0.55888725E+03</pdfrwt>
<totfact> 0.99872050E+02</totfact>
</mgrwt>
</event>
<event>
 6    1  0.8947013E-004  0.5157353E+03  0.7818608E-02  0.1009912E+00
         21   -1    0    0  501  502  0.00000000000E+00  0.00000000000E+00  0.60146327071E+03  0.60146327071E+03  0.00000000000E+00 0. -1.
         21   -1    0    0  502  503 -0.00000000000E+00 -0.00000000000E+00 -0.66624102566E+03  0.66624102566E+03  0.00000000000E+00 0. -1.
    9000007    2    1    2  501    0 -0.29128426428E+03 -0.14538363068E+03  0.33699533002E+03  0.61394246322E+03  0.39670716278E+03 0.  0.
    9000005    1    3    3    0    0 -0.14170539563E+03 -0.10566757116E+03  0.40726646169E+03  0.44397412712E+03  0.99999687468E+00 0.  0.
          4    1    3    3  501    0 -0.14957886864E+03 -0.39716059514E+02 -0.70271131670E+02  0.16996833609E+03  0.00000000000E+00 0.  1.
   -9000007    1    1    2    0  503  0.29128426428E+03  0.14538363068E+03 -0.40177308496E+03  0.65376183315E+03  0.40000000000E+03 0. -1.
<mgrwt>
<rscale>  2 0.51509672E+03</rscale>
<asrwt>0</asrwt>
<pdfrwt beam="1">  1       21 0.92532810E-01 0.51573532E+03</pdfrwt>
<pdfrwt beam="2">  1       21 0.10249862E+00 0.51573532E+03</pdfrwt>
<totfact> 0.62480565E+02</totfact>
</mgrwt>
</event>
<event>
 6    1  0.8947013E-004  0.5556489E+03  0.7818608E-02  0.1000206E+00
         21   -1    0    0  501  502  0.00000000000E+00  0.00000000000E+00  0.46107828372E+03  0.46107828372E+03  0.00000000000E+00 0.  1.
         21   -1    0    0  502  503 -0.00000000000E+00 -0.00000000000E+00 -0.69452643600E+03  0.69452643600E+03  0.00000000000E+00 0.  1.
    9000007    2    1    2  501    0  0.28869131814E+03  0.25532881156E+03 -0.22666869143E+03  0.60010364836E+03  0.40026268115E+03 0.  0.
    9000005    1    3    3    0    0 -0.66287705739E+01 -0.91872791033E+02 -0.77870628583E+02  0.12062083204E+03  0.99999687468E+00 0.  0.
          4    1    3    3  501    0  0.29532008872E+03  0.34720160260E+03 -0.14879806285E+03  0.47948281633E+03  0.00000000000E+00 0.  1.
   -9000007    1    1    2    0  503 -0.28869131814E+03 -0.25532881156E+03 -0.67794608427E+01  0.55550107135E+03  0.40000000000E+03 0.  1.
<mgrwt>
<rscale>  2 0.55560159E+03</rscale>
<asrwt>0</asrwt>
<pdfrwt beam="1">  1       21 0.70935121E-01 0.55564889E+03</pdfrwt>
<pdfrwt beam="2">  1       21 0.10685022E+00 0.55564889E+03</pdfrwt>
<totfact> 0.10320251E+03</totfact>
</mgrwt>
</event>
<event>
 6    1  0.8947013E-004  0.4999949E+03  0.7818608E-02  0.1013787E+00
         21   -1    0    0  501  502  0.00000000000E+00  0.00000000000E+00  0.56569062545E+03  0.56569062545E+03  0.00000000000E+00 0. -1.
         21   -1    0    0  502  503 -0.00000000000E+00 -0.00000000000E+00 -0.45264411655E+03  0.45264411655E+03  0.00000000000E+00 0.  1.
    9000007    2    1    2  501    0  0.39192216797E+02 -0.29724203711E+03  0.13521159105E+03  0.51795473705E+03  0.40013257402E+03 0.  0.
    9000005    1    3    3    0    0 -0.84653175533E+02 -0.23158641522E+03  0.23911222225E+03  0.34347355453E+03  0.99999687468E+00 0.  0.
          4    1    3    3  501    0  0.12384539233E+03 -0.65655621898E+02 -0.10390063120E+03  0.17448118252E+03  0.00000000000E+00 0.  1.
   -9000007    1    1    2    0  503 -0.39192216797E+02  0.29724203711E+03 -0.22165082157E+02  0.50038000495E+03  0.40000000000E+03 0. -1.
<mgrwt>
<rscale>  2 0.49996841E+03</rscale>
<asrwt>0</asrwt>
<pdfrwt beam="1">  1       21 0.87029327E-01 0.49999494E+03</pdfrwt>
<pdfrwt beam="2">  1       21 0.69637557E-01 0.49999494E+03</pdfrwt>
<totfact> 0.18004971E+03</totfact>
</mgrwt>
</event>
<event>
 6    1  0.8947013E-004  0.4642367E+03  0.7818608E-02  0.1023568E+00
         21   -1    0    0  501  502  0.00000000000E+00  0.00000000000E+00  0.96426880457E+03  0.96426880457E+03  0.00000000000E+00 0. -1.
         21   -1    0    0  502  503 -0.00000000000E+00 -0.00000000000E+00 -0.33641439871E+03  0.33641439871E+03  0.00000000000E+00 0.  1.
    9000007    2    1    2  501    0  0.56370515562E+02  0.22854189235E+03  0.69081469793E+03  0.83231045646E+03  0.40013337461E+03 0.  0.
    9000005    1    3    3    0    0  0.21918060578E+03  0.14235745839E+03  0.51569342819E+03  0.57814055020E+03  0.99999687468E+00 0.  0.
          4    1    3    3  501    0 -0.16281009022E+03  0.86184433953E+02  0.17512126974E+03  0.25416990627E+03  0.00000000000E+00 0.  1.
   -9000007    1    1    2    0  503 -0.56370515562E+02 -0.22854189235E+03 -0.62960292069E+02  0.46837274682E+03  0.40000000000E+03 0.  1.
<mgrwt>
<rscale>  2 0.46420800E+03</rscale>
<asrwt>0</asrwt>
<pdfrwt beam="1">  1       21 0.14834905E+00 0.46423674E+03</pdfrwt>
<pdfrwt beam="2">  1       21 0.51756062E-01 0.46423674E+03</pdfrwt>
<totfact> 0.91465955E+02</totfact>
</mgrwt>
</event>
<event>
 6    1  0.8947013E-004  0.4292773E+03  0.7818608E-02  0.1034100E+00
         21   -1    0    0  501  502  0.00000000000E+00  0.00000000000E+00  0.46224083439E+03  0.46224083439E+03  0.00000000000E+00 0. -1.
         21   -1    0    0  502  503 -0.00000000000E+00 -0.00000000000E+00 -0.12844183637E+04  0.12844183637E+04  0.00000000000E+00 0. -1.
    9000007    2    1    2  501    0 -0.13498464689E+03  0.77834332741E+02  0.31422998367E+03  0.53187482472E+03  0.39983910299E+03 0.  0.
    9000005    1    3    3    0    0 -0.10544881970E+03  0.33953776717E+02  0.40878467325E+03  0.42353066194E+03  0.99999687468E+00 0.  0.
          4    1    3    3  501    0 -0.29535827193E+02  0.43880556024E+02 -0.94554689583E+02  0.10834416277E+03  0.00000000000E+00 0.  1.
   -9000007    1    1    2    0  503  0.13498464689E+03 -0.77834332741E+02 -0.11364075130E+04  0.12147843734E+04  0.40000000000E+03 0. -1.
<mgrwt>
<rscale>  2 0.42923986E+03</rscale>
<asrwt>0</asrwt>
<pdfrwt beam="1">  1       21 0.71113976E-01 0.42927734E+03</pdfrwt>
<pdfrwt beam="2">  1       21 0.19760282E+00 0.42927734E+03</pdfrwt>
<totfact> 0.20367375E+02</totfact>
</mgrwt>
</event>
<event>
 6    1  0.8947013E-004  0.4265786E+03  0.7818608E-02  0.1034971E+00
         21   -1    0    0  501  502  0.00000000000E+00  0.00000000000E+00  0.34931510312E+03  0.34931510312E+03  0.00000000000E+00 0.  1.
         21   -1    0    0  502  503 -0.00000000000E+00 -0.00000000000E+00 -0.11598482673E+04  0.11598482673E+04  0.00000000000E+00 0. -1.
    9000007    2    1    2  501    0 -0.22871776476E+02 -0.14644529448E+03  0.15501874921E+03  0.45357830047E+03  0.39966626030E+03 0.  0.
    9000005    1    3    3    0    0 -0.16453670457E+03 -0.66560971084E+01 -0.45718408488E+02  0.17090290708E+03  0.99999687468E+00 0.  0.
          4    1    3    3  501    0  0.14166492809E+03 -0.13978919738E+03  0.20073715769E+03  0.28267539340E+03  0.00000000000E+00 0.  1.
   -9000007    1    1    2    0  503  0.22871776476E+02  0.14644529448E+03 -0.96555191343E+03  0.10555850700E+04  0.40000000000E+03 0. -1.
<mgrwt>
<rscale>  2 0.42650039E+03</rscale>
<asrwt>0</asrwt>
<pdfrwt beam="1">  1       21 0.53740786E-01 0.42657865E+03</pdfrwt>
<pdfrwt beam="2">  1       21 0.17843819E+00 0.42657865E+03</pdfrwt>
<totfact> 0.51168994E+02</totfact>
</mgrwt>
</event>
<event>
 6    1  0.8947013E-004  0.6145590E+03  0.7818608E-02  0.9876182E-01
         21   -1    0    0  501  502  0.00000000000E+00  0.00000000000E+00  0.32110421042E+03  0.32110421042E+03  0.00000000000E+00 0. -1.
         21   -1    0    0  502  503 -0.00000000000E+00 -0.00000000000E+00 -0.16976540734E+04  0.16976540734E+04  0.00000000000E+00 0.  1.
    9000007    2    1    2  501    0 -0.16679175804E+03  0.43573310098E+03 -0.12737143362E+03  0.62659106175E+03  0.39838430031E+03 0.  0.
    9000005    1    3    3    0    0  0.42231734053E+02  0.19868409434E+03  0.11031208111E+03  0.23114636907E+03  0.99999687468E+00 0.  0.
          4    1    3    3  501    0 -0.20902349209E+03  0.23704900664E+03 -0.23768351473E+03  0.39544469268E+03  0.00000000000E+00 0.  1.
   -9000007    1    1    2    0  503  0.16679175804E+03 -0.43573310098E+03 -0.12491784293E+04  0.13921672220E+04  0.40000000000E+03 0. -1.
<mgrwt>
<rscale>  2 0.61429628E+03</rscale>
<asrwt>0</asrwt>
<pdfrwt beam="1">  1       21 0.49400649E-01 0.61455905E+03</pdfrwt>
<pdfrwt beam="2">  1       21 0.26117755E+00 0.61455905E+03</pdfrwt>
<totfact> 0.16305549E+02</totfact>
</mgrwt>
</event>
<event>
 6    1  0.8947013E-004  0.4213948E+03  0.7818608E-02  0.1036681E+00
         21   -1    0    0  501  502  0.00000000000E+00  0.00000000000E+00  0.12360888195E+04  0.12360888195E+04  0.00000000000E+00 0. -1.
         21   -1    0    0  502  503 -0.00000000000E+00 -0.00000000000E+00 -0.17570307549E+03  0.17570307549E+03  0.00000000000E+00 0.  1.
    9000007    2    1    2  501    0 -0.13118626686E+03 -0.19073009472E+02  0.22696116066E+03  0.47789139042E+03  0.39911802300E+03 0.  0.
    9000005    1    3    3    0    0  0.11256986702E+03 -0.18256331234E+02 -0.35746318802E+02  0.11951597338E+03  0.99999687468E+00 0.  0.
          4    1    3    3  501    0 -0.24375613389E+03 -0.81667823889E+00  0.26270747946E+03  0.35837541703E+03  0.00000000000E+00 0.  1.
   -9000007    1    1    2    0  503  0.13118626686E+03  0.19073009472E+02  0.83342458331E+03  0.93390050454E+03  0.40000000000E+03 0. -1.
<mgrwt>
<rscale>  2 0.42118541E+03</rscale>
<asrwt>0</asrwt>
<pdfrwt beam="1">  1       21 0.19016751E+00 0.42139485E+03</pdfrwt>
<pdfrwt beam="2">  1       21 0.27031243E-01 0.42139485E+03</pdfrwt>
<totfact> 0.17369120E+03</totfact>
</mgrwt>
</event>
<event>
 6    1  0.8947013E-004  0.5087178E+03  0.7818608E-02  0.1011537E+00
         21   -1    0    0  501  502  0.00000000000E+00  0.00000000000E+00  0.37313281465E+03  0.37313281465E+03  0.00000000000E+00 0.  1.
         21   -1    0    0  502  503 -0.00000000000E+00 -0.00000000000E+00 -0.82883808327E+03  0.82883808327E+03  0.00000000000E+00 0.  1.
    9000007    2    1    2  501    0  0.26867514295E+03 -0.16311781146E+03  0.15128004263E+02  0.50880589325E+03  0.39982599670E+03 0.  0.
    9000005    1    3    3    0    0  0.86250506416E+02 -0.21538730913E+03 -0.13357288739E+03  0.26771917943E+03  0.99999687468E+00 0.  0.
          4    1    3    3  501    0  0.18242463653E+03  0.52269497678E+02  0.14870089166E+03  0.24108671382E+03  0.00000000000E+00 0.  1.
   -9000007    1    1    2    0  503 -0.26867514295E+03  0.16311781146E+03 -0.47083327288E+03  0.69316500467E+03  0.40000000000E+03 0.  1.
<mgrwt>
<rscale>  2 0.50868355E+03</rscale>
<asrwt>0</asrwt>
<pdfrwt beam="1">  1       21 0.57405050E-01 0.50871775E+03</pdfrwt>
<pdfrwt beam="2">  1       21 0.12751355E+00 0.50871775E+03</pdfrwt>
<totfact> 0.10731129E+03</totfact>
</mgrwt>
</event>
<event>
 6    1  0.8947013E-004  0.4216579E+03  0.7818608E-02  0.1036632E+00
         21   -1    0    0  501  502  0.00000000000E+00  0.00000000000E+00  0.30343925738E+03  0.30343925738E+03  0.00000000000E+00 0. -1.
         21   -1    0    0  502  503 -0.00000000000E+00 -0.00000000000E+00 -0.77274008642E+03  0.77274008642E+03  0.00000000000E+00 0. -1.
    9000007    2    1    2  501    0 -0.12889572186E+03  0.10166899265E+02  0.30900984885E+02  0.42278870443E+03  0.40134516912E+03 0.  0.
    9000005    1    3    3    0    0 -0.92433143845E+02 -0.14907212259E+03 -0.11001160606E+03  0.20705056695E+03  0.99999687468E+00 0.  0.
          4    1    3    3  501    0 -0.36462578014E+02  0.15923902186E+03  0.14091259094E+03  0.21573813748E+03  0.00000000000E+00 0.  1.
   -9000007    1    1    2    0  503  0.12889572186E+03 -0.10166899265E+02 -0.50020181393E+03  0.65339063937E+03  0.40000000000E+03 0. -1.
<mgrwt>
<rscale>  2 0.42133753E+03</rscale>
<asrwt>0</asrwt>
<pdfrwt beam="1">  1       21 0.46682963E-01 0.42165794E+03</pdfrwt>
<pdfrwt beam="2">  1       21 0.11888309E+00 0.42165794E+03</pdfrwt>
<totfact> 0.20677211E+03</totfact>
</mgrwt>
</event>
<event>
 6    1  0.8947013E-004  0.4388664E+03  0.7818608E-02  0.1031118E+00
         21   -1    0    0  501  502  0.00000000000E+00  0.00000000000E+00  0.61223301710E+03  0.61223301710E+03  0.00000000000E+00 0. -1.
         21   -1    0    0  502  503 -0.00000000000E+00 -0.00000000000E+00 -0.64174216338E+03  0.64174216338E+03  0.00000000000E+00 0. -1.
    9000007    2    1    2  501    0 -0.89108373045E+02 -0.15704600649E+03  0.43305999326E+03  0.61634365745E+03  0.39966835754E+03 0.  0.
    9000005    1    3    3    0    0 -0.19983903842E+03  0.21818299916E+02  0.10544776832E+03  0.22700641252E+03  0.99999687468E+00 0.  0.
          4    1    3    3  501    0  0.11073066537E+03 -0.17886430640E+03  0.32761222495E+03  0.38933724494E+03  0.00000000000E+00 0.  1.
   -9000007    1    1    2    0  503  0.89108373045E+02  0.15704600649E+03 -0.46256913955E+03  0.63763152303E+03  0.40000000000E+03 0. -1.
<mgrwt>
<rscale>  2 0.43879086E+03</rscale>
<asrwt>0</asrwt>
<pdfrwt beam="1">  1       21 0.94189695E-01 0.43886644E+03</pdfrwt>
<pdfrwt beam="2">  1       21 0.98729564E-01 0.43886644E+03</pdfrwt>
<totfact> 0.67723502E+02</totfact>
</mgrwt>
</event>
<event>
 6    1  0.8947013E-004  0.4301266E+03  0.7818608E-02  0.1034294E+00
         21   -1    0    0  501  502  0.00000000000E+00  0.00000000000E+00  0.86143595822E+03  0.86143595822E+03  0.00000000000E+00 0. -1.
         21   -1    0    0  502  503 -0.00000000000E+00 -0.00000000000E+00 -0.21214338761E+03  0.21214338761E+03  0.00000000000E+00 0. -1.
    9000007    2    1    2  501    0 -0.79454262172E+01 -0.15794229138E+03  0.34392989188E+03  0.54608028159E+03  0.39358227375E+03 0.  0.
    9000005    1    3    3    0    0  0.35146191552E+02 -0.28334917030E+03  0.19025679842E+03  0.34310443954E+03  0.99999687468E+00 0.  0.
          4    1    3    3  501    0 -0.43091617769E+02  0.12540687893E+03  0.15367309346E+03  0.20297584205E+03  0.00000000000E+00 0.  1.
   -9000007    1    1    2    0  503  0.79454262172E+01  0.15794229138E+03  0.30536267873E+03  0.52749906423E+03  0.40000000000E+03 0. -1.
<mgrwt>
<rscale>  2 0.42862838E+03</rscale>
<asrwt>0</asrwt>
<pdfrwt beam="1">  1       21 0.13252861E+00 0.43012661E+03</pdfrwt>
<pdfrwt beam="2">  1       21 0.32637445E-01 0.43012661E+03</pdfrwt>
<totfact> 0.32486659E+03</totfact>
</mgrwt>
</event>
<event>
 6    1  0.8947013E-004  0.4008157E+03  0.7818608E-02  0.1043534E+00
         21   -1    0    0  501  502  0.00000000000E+00  0.00000000000E+00  0.29530295270E+03  0.29530295270E+03  0.00000000000E+00 0. -1.
         21   -1    0    0  502  503 -0.00000000000E+00 -0.00000000000E+00 -0.54543114561E+03  0.54543114561E+03  0.00000000000E+00 0. -1.
    9000007    2    1    2  501    0 -0.29474391703E+01  0.17518923506E+02 -0.15042194261E+03  0.42811207221E+03  0.40042175949E+03 0.  0.
    9000005    1    3    3    0    0  0.16610115593E+03  0.10330091143E+03 -0.17090967780E+02  0.19635114840E+03  0.99999687468E+00 0.  0.
          4    1    3    3  501    0 -0.16904859510E+03 -0.85781987920E+02 -0.13333097483E+03  0.23176092381E+03  0.00000000000E+00 0.  1.
   -9000007    1    1    2    0  503  0.29474391703E+01 -0.17518923506E+02 -0.99706250300E+02  0.41262202611E+03  0.40000000000E+03 0.  1.
<mgrwt>
<rscale>  2 0.40071027E+03</rscale>
<asrwt>0</asrwt>
<pdfrwt beam="1">  1       21 0.45431224E-01 0.40081565E+03</pdfrwt>
<pdfrwt beam="2">  1       21 0.83912483E-01 0.40081565E+03</pdfrwt>
<totfact> 0.51311383E+03</totfact>
</mgrwt>
</event>
<event>
 6    1  0.8947013E-004  0.4437728E+03  0.7818608E-02  0.1030298E+00
         21   -1    0    0  501  502  0.00000000000E+00  0.00000000000E+00  0.19141313557E+04  0.19141313557E+04  0.00000000000E+00 0.  1.
         21   -1    0    0  502  503 -0.00000000000E+00 -0.00000000000E+00 -0.10145773507E+03  0.10145773507E+03  0.00000000000E+00 0. -1.
    9000007    2    1    2  501    0  0.93383079144E+02 -0.14200876289E+03  0.83283895338E+03  0.94369223783E+03  0.40993588434E+03 0.  0.
    9000005    1    3    3    0    0  0.15424310905E+03  0.28309356208E+01  0.78365569245E+02  0.17303500607E+03  0.99999687468E+00 0.  0.
          4    1    3    3  501    0 -0.60860029910E+02 -0.14483969852E+03  0.75447338414E+03  0.77065723177E+03  0.00000000000E+00 0.  1.
   -9000007    1    1    2    0  503 -0.93383079144E+02  0.14200876289E+03  0.97983466729E+03  0.10718968530E+04  0.40000000000E+03 0. -1.
<mgrwt>
<rscale>  2 0.44146447E+03</rscale>
<asrwt>0</asrwt>
<pdfrwt beam="1">  1       21 0.29448172E+00 0.44377282E+03</pdfrwt>
<pdfrwt beam="2">  1       21 0.15608884E-01 0.44377282E+03</pdfrwt>
<totfact> 0.10892362E+03</totfact>
</mgrwt>
</event>
<event>
 6    1  0.8947013E-004  0.4812402E+03  0.7818608E-02  0.1018826E+00
         21   -1    0    0  501  502  0.00000000000E+00  0.00000000000E+00  0.17926671568E+04  0.17926671568E+04  0.00000000000E+00 0.  1.
         21   -1    0    0  502  503 -0.00000000000E+00 -0.00000000000E+00 -0.33770519336E+03  0.33770519336E+03  0.00000000000E+00 0. -1.
    9000007    2    1    2  501    0  0.23484505914E+03 -0.12821811475E+03  0.15645982467E+04  0.16368014826E+04  0.39944878635E+03 0.  0.
    9000005    1    3    3    0    0  0.13304598697E+03  0.11457342012E+03  0.32340816339E+03  0.36799747742E+03  0.99999687468E+00 0.  0.
          4    1    3    3  501    0  0.10179907217E+03 -0.24279153487E+03  0.12411900833E+04  0.12688040052E+04  0.00000000000E+00 0.  1.
   -9000007    1    1    2    0  503 -0.23484505914E+03  0.12821811475E+03 -0.10963628327E+03  0.49357086762E+03  0.40000000000E+03 0. -1.
<mgrwt>
<rscale>  2 0.48112560E+03</rscale>
<asrwt>0</asrwt>
<pdfrwt beam="1">  1       21 0.27579494E+00 0.48124015E+03</pdfrwt>
<pdfrwt beam="2">  1       21 0.51954646E-01 0.48124015E+03</pdfrwt>
<totfact> 0.12716932E+02</totfact>
</mgrwt>
</event>
<event>
 6    1  0.8947013E-004  0.4233721E+03  0.7818608E-02  0.1036004E+00
         21   -1    0    0  501  502  0.00000000000E+00  0.00000000000E+00  0.30631671374E+03  0.30631671374E+03  0.00000000000E+00 0. -1.
         21   -1    0    0  502  503 -0.00000000000E+00 -0.00000000000E+00 -0.72450910255E+03  0.72450910255E+03  0.00000000000E+00 0. -1.
    9000007    2    1    2  501    0 -0.92953816265E+02 -0.10146567973E+03  0.17280046485E+02  0.42372455783E+03  0.40038507062E+03 0.  0.
    9000005    1    3    3    0    0 -0.13647286427E+03 -0.21355280950E+03  0.10557550942E+03  0.27454841706E+03  0.99999687468E+00 0.  0.
          4    1    3    3  501    0  0.43519048003E+02  0.11208712977E+03 -0.88295462931E+02  0.14917614076E+03  0.00000000000E+00 0.  1.
   -9000007    1    1    2    0  503  0.92953816265E+02  0.10146567973E+03 -0.43547243530E+03  0.60710125846E+03  0.40000000000E+03 0. -1.
<mgrwt>
<rscale>  2 0.42328099E+03</rscale>
<asrwt>0</asrwt>
<pdfrwt beam="1">  1       21 0.47125649E-01 0.42337206E+03</pdfrwt>
<pdfrwt beam="2">  1       21 0.11146294E+00 0.42337206E+03</pdfrwt>
<totfact> 0.23796354E+03</totfact>
</mgrwt>
</event>
<event>
 6    1  0.8947013E-004  0.6810559E+03  0.7818608E-02  0.9750219E-01
         21   -1    0    0  501  502  0.00000000000E+00  0.00000000000E+00  0.15197995174E+04  0.15197995174E+04  0.00000000000E+00 0.  1.
         21   -1    0    0  502  503 -0.00000000000E+00 -0.00000000000E+00 -0.66411786817E+03  0.66411786817E+03  0.00000000000E+00 0. -1.
    9000007    2    1    2  501    0  0.53835247818E+03  0.11837950678E+03  0.12306210827E+04  0.14064749908E+04  0.39988317313E+03 0.  0.
    9000005    1    3    3    0    0  0.87557848420E+02  0.15051790815E+02  0.68708492711E+03  0.69280562230E+03  0.99999687468E+00 0.  0.
          4    1    3    3  501    0  0.45079462976E+03  0.10332771596E+03  0.54353615563E+03  0.71366936853E+03  0.00000000000E+00 0.  1.
   -9000007    1    1    2    0  503 -0.53835247818E+03 -0.11837950678E+03 -0.37493943349E+03  0.77744239476E+03  0.40000000000E+03 0. -1.
<mgrwt>
<rscale>  2 0.68103872E+03</rscale>
<asrwt>0</asrwt>
<pdfrwt beam="1">  1       21 0.23381531E+00 0.68105587E+03</pdfrwt>
<pdfrwt beam="2">  1       21 0.10217198E+00 0.68105587E+03</pdfrwt>
<totfact> 0.44746114E+01</totfact>
</mgrwt>
</event>
<event>
 6    1  0.8947013E-004  0.4403716E+03  0.7818608E-02  0.1030717E+00
         21   -1    0    0  501  502  0.00000000000E+00  0.00000000000E+00  0.95467817160E+03  0.95467817160E+03  0.00000000000E+00 0.  1.
         21   -1    0    0  502  503 -0.00000000000E+00 -0.00000000000E+00 -0.24090652235E+03  0.24090652235E+03  0.00000000000E+00 0. -1.
    9000007    2    1    2  501    0  0.16131120430E+03 -0.88914942924E+02  0.59480561874E+03  0.73942672995E+03  0.39878690195E+03 0.  0.
    9000005    1    3    3    0    0  0.23571030093E+02 -0.23846980889E+02 -0.59129709522E+02  0.67982310192E+02  0.99999687468E+00 0.  0.
          4    1    3    3  501    0  0.13774017421E+03 -0.65067962035E+02  0.65393532826E+03  0.67144441975E+03  0.00000000000E+00 0.  1.
   -9000007    1    1    2    0  503 -0.16131120430E+03  0.88914942924E+02  0.11896603052E+03  0.45615796401E+03  0.40000000000E+03 0. -1.
<mgrwt>
<rscale>  2 0.44009597E+03</rscale>
<asrwt>0</asrwt>
<pdfrwt beam="1">  1       21 0.14687356E+00 0.44037163E+03</pdfrwt>
<pdfrwt beam="2">  1       21 0.37062542E-01 0.44037163E+03</pdfrwt>
<totfact> 0.19055093E+03</totfact>
</mgrwt>
</event>
<event>
 6    1  0.8947013E-004  0.5134113E+03  0.7818608E-02  0.1010740E+00
         21   -1    0    0  501  502  0.00000000000E+00  0.00000000000E+00  0.12596248142E+04  0.12596248142E+04  0.00000000000E+00 0. -1.
         21   -1    0    0  502  503 -0.00000000000E+00 -0.00000000000E+00 -0.51148942670E+03  0.51148942670E+03  0.00000000000E+00 0.  1.
    9000007    2    1    2  501    0  0.17054693206E+03 -0.27295587103E+03  0.10567357492E+04  0.11720939184E+04  0.39181953281E+03 0.  0.
    9000005    1    3    3    0    0 -0.76388798573E+02 -0.77100106112E+02  0.64241130013E+03  0.65151588886E+03  0.99999687468E+00 0.  0.
          4    1    3    3  501    0  0.24693573064E+03 -0.19585576492E+03  0.41432444907E+03  0.52057802951E+03  0.00000000000E+00 0.  1.
   -9000007    1    1    2    0  503 -0.17054693206E+03  0.27295587103E+03 -0.30860036169E+03  0.59902032253E+03  0.40000000000E+03 0.  1.
<mgrwt>
<rscale>  2 0.51181702E+03</rscale>
<asrwt>0</asrwt>
<pdfrwt beam="1">  1       21 0.19378843E+00 0.51341130E+03</pdfrwt>
<pdfrwt beam="2">  1       21 0.78690681E-01 0.51341130E+03</pdfrwt>
<totfact> 0.16426210E+02</totfact>
</mgrwt>
</event>
<event>
 6    1  0.8947013E-004  0.4785159E+03  0.7818608E-02  0.1019585E+00
         21   -1    0    0  501  502  0.00000000000E+00  0.00000000000E+00  0.20311406643E+04  0.20311406643E+04  0.00000000000E+00 0. -1.
         21   -1    0    0  502  503 -0.00000000000E+00 -0.00000000000E+00 -0.17745586408E+03  0.17745586408E+03  0.00000000000E+00 0.  1.
    9000007    2    1    2  501    0  0.15125274294E+03 -0.21338929124E+03  0.15948342501E+04  0.16650746897E+04  0.40070569628E+03 0.  0.
    9000005    1    3    3    0    0  0.27740343324E+03 -0.10854612715E+03  0.12214410418E+04  0.12572406871E+04  0.99999687468E+00 0.  0.
          4    1    3    3  501    0 -0.12615069030E+03 -0.10484316409E+03  0.37339320829E+03  0.40783400265E+03  0.00000000000E+00 0.  1.
   -9000007    1    1    2    0  503 -0.15125274294E+03  0.21338929124E+03  0.25885055012E+03  0.54352183872E+03  0.40000000000E+03 0.  1.
<mgrwt>
<rscale>  2 0.47836810E+03</rscale>
<asrwt>0</asrwt>
<pdfrwt beam="1">  1       21 0.31248316E+00 0.47851587E+03</pdfrwt>
<pdfrwt beam="2">  1       21 0.27300904E-01 0.47851587E+03</pdfrwt>
<totfact> 0.28596038E+02</totfact>
</mgrwt>
</event>
<event>
 6    1  0.8947013E-004  0.4543399E+03  0.7818608E-02  0.1026468E+00
         21   -1    0    0  501  502  0.00000000000E+00  0.00000000000E+00  0.30272483239E+03  0.30272483239E+03  0.00000000000E+00 0.  1.
         21   -1    0    0  502  503 -0.00000000000E+00 -0.00000000000E+00 -0.11069906716E+04  0.11069906716E+04  0.00000000000E+00 0.  1.
    9000007    2    1    2  501    0  0.15075786103E+03  0.15263877374E+03 -0.83938341461E+03  0.95445758583E+03  0.40049748876E+03 0.  0.
    9000005    1    3    3    0    0  0.27213545880E+03  0.16366928506E+03 -0.48513463258E+03  0.57982924602E+03  0.99999687468E+00 0.  0.
          4    1    3    3  501    0 -0.12137759777E+03 -0.11030511312E+02 -0.35424878203E+03  0.37462833981E+03  0.00000000000E+00 0.  1.
   -9000007    1    1    2    0  503 -0.15075786103E+03 -0.15263877374E+03  0.35117575444E+02  0.45525791813E+03  0.40000000000E+03 0.  1.
<mgrwt>
<rscale>  2 0.45423027E+03</rscale>
<asrwt>0</asrwt>
<pdfrwt beam="1">  1       21 0.46573052E-01 0.45433992E+03</pdfrwt>
<pdfrwt beam="2">  1       21 0.17030625E+00 0.45433992E+03</pdfrwt>
<totfact> 0.78308172E+02</totfact>
</mgrwt>
</event>
<event>
 6    1  0.8947013E-004  0.4432785E+03  0.7818608E-02  0.1029769E+00
         21   -1    0    0  501  502  0.00000000000E+00  0.00000000000E+00  0.11078287334E+04  0.11078287334E+04  0.00000000000E+00 0.  1.
         21   -1    0    0  502  503 -0.00000000000E+00 -0.00000000000E+00 -0.19962853074E+03  0.19962853074E+03  0.00000000000E+00 0.  1.
    9000007    2    1    2  501    0  0.69954394948E+02  0.17777011521E+03  0.67286109264E+03  0.80558045859E+03  0.39965234146E+03 0.  0.
    9000005    1    3    3    0    0  0.72864080558E+02  0.20014912303E+03  0.10536818482E+03  0.23763901206E+03  0.99999687468E+00 0.  0.
          4    1    3    3  501    0 -0.29096856099E+01 -0.22379007820E+02  0.56749290782E+03  0.56794144653E+03  0.00000000000E+00 0.  1.
   -9000007    1    1    2    0  503 -0.69954394948E+02 -0.17777011521E+03  0.23533911000E+03  0.50187680553E+03  0.40000000000E+03 0.  1.
<mgrwt>
<rscale>  2 0.44320006E+03</rscale>
<asrwt>0</asrwt>
<pdfrwt beam="1">  1       21 0.17043519E+00 0.44327850E+03</pdfrwt>
<pdfrwt beam="2">  1       21 0.30712082E-01 0.44327850E+03</pdfrwt>
<totfact> 0.18402479E+03</totfact>
</mgrwt>
</event>
<event>
 6    1  0.8947013E-004  0.5789325E+03  0.7818608E-02  0.9950331E-01
         21   -1    0    0  501  502  0.00000000000E+00  0.00000000000E+00  0.11620882813E+04  0.11620882813E+04  0.00000000000E+00 0. -1.
         21   -1    0    0  502  503 -0.00000000000E+00 -0.00000000000E+00 -0.40008148519E+03  0.40008148519E+03  0.00000000000E+00 0.  1.
    9000007    2    1    2  501    0 -0.25974312981E+03 -0.32743481304E+03  0.79414077166E+03  0.98276261889E+03  0.40060298250E+03 0.  0.
    9000005    1    3    3    0    0 -0.38428850045E+02 -0.74068059466E+02  0.57555071525E+03  0.58156898109E+03  0.99999687468E+00 0.  0.
          4    1    3    3  501    0 -0.22131427977E+03 -0.25336675358E+03  0.21859005641E+03  0.40119363780E+03  0.00000000000E+00 0.  1.
   -9000007    1    1    2    0  503  0.25974312981E+03  0.32743481304E+03 -0.32133975569E+02  0.57940714758E+03  0.40000000000E+03 0.  1.
<mgrwt>
<rscale>  2 0.57882817E+03</rscale>
<asrwt>0</asrwt>
<pdfrwt beam="1">  1       21 0.17878281E+00 0.57893247E+03</pdfrwt>
<pdfrwt beam="2">  1       21 0.61550998E-01 0.57893247E+03</pdfrwt>
<totfact> 0.35421859E+02</totfact>
</mgrwt>
</event>
<event>
 6    1  0.8947013E-004  0.4544006E+03  0.7818608E-02  0.1026446E+00
         21   -1    0    0  501  502  0.00000000000E+00  0.00000000000E+00  0.12394830920E+04  0.12394830920E+04  0.00000000000E+00 0. -1.
         21   -1    0    0  502  503 -0.00000000000E+00 -0.00000000000E+00 -0.17747435980E+03  0.17747435980E+03  0.00000000000E+00 0. -1.
    9000007    2    1    2  501    0 -0.11132955403E+03 -0.18369301301E+03  0.35461165984E+03  0.57639334919E+03  0.40042786000E+03 0.  0.
    9000005    1    3    3    0    0 -0.25127461611E+03 -0.13040324378E+03  0.31071629214E+03  0.42034456448E+03  0.99999687468E+00 0.  0.
          4    1    3    3  501    0  0.13994506208E+03 -0.53289769228E+02  0.43895367696E+02  0.15604878471E+03  0.00000000000E+00 0.  1.
   -9000007    1    1    2    0  503  0.11132955403E+03  0.18369301301E+03  0.70739707238E+03  0.84056410263E+03  0.40000000000E+03 0. -1.
<mgrwt>
<rscale>  2 0.45430628E+03</rscale>
<asrwt>0</asrwt>
<pdfrwt beam="1">  1       21 0.19068970E+00 0.45440055E+03</pdfrwt>
<pdfrwt beam="2">  1       21 0.27303748E-01 0.45440055E+03</pdfrwt>
<totfact> 0.16648451E+03</totfact>
</mgrwt>
</event>
<event>
 6    1  0.8947013E-004  0.5682115E+03  0.7818608E-02  0.9973797E-01
         21   -1    0    0  501  502  0.00000000000E+00  0.00000000000E+00  0.86940377891E+03  0.86940377891E+03  0.00000000000E+00 0. -1.
         21   -1    0    0  502  503 -0.00000000000E+00 -0.00000000000E+00 -0.39164784189E+03  0.39164784189E+03  0.00000000000E+00 0. -1.
    9000007    2    1    2  501    0 -0.49751938472E+02  0.40048598643E+03  0.94693637796E+02  0.57577721897E+03  0.39961011015E+03 0.  0.
    9000005    1    3    3    0    0 -0.12441792991E+03  0.28848231477E+03 -0.10820913373E+03  0.33228313806E+03  0.99999687468E+00 0.  0.
          4    1    3    3  501    0  0.74665991442E+02  0.11200367167E+03  0.20290277153E+03  0.24349408091E+03  0.00000000000E+00 0.  1.
   -9000007    1    1    2    0  503  0.49751938472E+02 -0.40048598643E+03  0.38306229922E+03  0.68527440183E+03  0.40000000000E+03 0. -1.
<mgrwt>
<rscale>  2 0.56814286E+03</rscale>
<asrwt>0</asrwt>
<pdfrwt beam="1">  1       21 0.13375443E+00 0.56821148E+03</pdfrwt>
<pdfrwt beam="2">  1       21 0.60253514E-01 0.56821148E+03</pdfrwt>
<totfact> 0.83431049E+02</totfact>
</mgrwt>
</event>
<event>
 6    1  0.8947013E-004  0.4224525E+03  0.7818608E-02  0.1036315E+00
         21   -1    0    0  501  502  0.00000000000E+00  0.00000000000E+00  0.87406514801E+03  0.87406514801E+03  0.00000000000E+00 0.  1.
         21   -1    0    0  502  503 -0.00000000000E+00 -0.00000000000E+00 -0.51066456763E+03  0.51066456763E+03  0.00000000000E+00 0.  1.
    9000007    2    1    2  501    0  0.13346697753E+03  0.13804129653E+02  0.71835776553E+03  0.83336904296E+03  0.40057720152E+03 0.  0.
    9000005    1    3    3    0    0 -0.32618715428E+02  0.14121283772E+03  0.53761637194E+03  0.55681003000E+03  0.99999687468E+00 0.  0.
          4    1    3    3  501    0  0.16608569295E+03 -0.12740870806E+03  0.18074139359E+03  0.27655901296E+03  0.00000000000E+00 0.  1.
   -9000007    1    1    2    0  503 -0.13346697753E+03 -0.13804129653E+02 -0.35495718516E+03  0.55136067268E+03  0.40000000000E+03 0.  1.
<mgrwt>
<rscale>  2 0.42231558E+03</rscale>
<asrwt>0</asrwt>
<pdfrwt beam="1">  1       21 0.13447156E+00 0.42245246E+03</pdfrwt>
<pdfrwt beam="2">  1       21 0.78563780E-01 0.42245246E+03</pdfrwt>
<totfact> 0.48033911E+02</totfact>
</mgrwt>
</event>
<event>
 6    1  0.8947013E-004  0.4395057E+03  0.7818608E-02  0.1030923E+00
         21   -1    0    0  501  502  0.00000000000E+00  0.00000000000E+00  0.13831693219E+04  0.13831693219E+04  0.00000000000E+00 0.  1.
         21   -1    0    0  502  503 -0.00000000000E+00 -0.00000000000E+00 -0.14989010168E+03  0.14989010168E+03  0.00000000000E+00 0. -1.
    9000007    2    1    2  501    0 -0.13695942845E+02 -0.18159756397E+03  0.81772347378E+03  0.92820255416E+03  0.39965365993E+03 0.  0.
    9000005    1    3    3    0    0 -0.62401726156E+02 -0.28083136020E+03  0.37929116409E+03  0.47604938341E+03  0.99999687468E+00 0.  0.
          4    1    3    3  501    0  0.48705783311E+02  0.99233796222E+02  0.43843230969E+03  0.45215317075E+03  0.00000000000E+00 0.  1.
   -9000007    1    1    2    0  503  0.13695942845E+02  0.18159756397E+03  0.41555574646E+03  0.60485686944E+03  0.40000000000E+03 0.  1.
<mgrwt>
<rscale>  2 0.43942688E+03</rscale>
<asrwt>0</asrwt>
<pdfrwt beam="1">  1       21 0.21279527E+00 0.43950569E+03</pdfrwt>
<pdfrwt beam="2">  1       21 0.23060017E-01 0.43950569E+03</pdfrwt>
<totfact> 0.16600637E+03</totfact>
</mgrwt>
</event>
<event>
 6    1  0.8947013E-004  0.4496231E+03  0.7818608E-02  0.1028105E+00
         21   -1    0    0  501  502  0.00000000000E+00  0.00000000000E+00  0.84803077007E+02  0.84803077007E+02  0.00000000000E+00 0.  1.
         21   -1    0    0  502  503 -0.00000000000E+00 -0.00000000000E+00 -0.23996313355E+04  0.23996313355E+04  0.00000000000E+00 0.  1.
    9000007    2    1    2  501    0  0.21613074159E+02 -0.19611985710E+03 -0.10123463075E+04  0.11077030095E+04  0.40401830113E+03 0.  0.
    9000005    1    3    3    0    0  0.83294369950E+02  0.95287511313E+02 -0.49314493763E+03  0.50912728407E+03  0.99999687468E+00 0.  0.
          4    1    3    3  501    0 -0.61681295791E+02 -0.29140736841E+03 -0.51920136987E+03  0.59857572544E+03  0.00000000000E+00 0.  1.
   -9000007    1    1    2    0  503 -0.21613074159E+02  0.19611985710E+03 -0.13024819510E+04  0.13767314030E+04  0.40000000000E+03 0.  1.
<mgrwt>
<rscale>  2 0.44871854E+03</rscale>
<asrwt>0</asrwt>
<pdfrwt beam="1">  1       21 0.13046628E-01 0.44962308E+03</pdfrwt>
<pdfrwt beam="2">  1       21 0.36917402E+00 0.44962308E+03</pdfrwt>
<totfact> 0.53103414E+02</totfact>
</mgrwt>
</event>
<event>
 6    1  0.8947013E-004  0.4047645E+03  0.7818608E-02  0.1042183E+00
         21   -1    0    0  501  502  0.00000000000E+00  0.00000000000E+00  0.41463367915E+03  0.41463367915E+03  0.00000000000E+00 0. -1.
         21   -1    0    0  502  503 -0.00000000000E+00 -0.00000000000E+00 -0.10080407445E+04  0.10080407445E+04  0.00000000000E+00 0. -1.
    9000007    2    1    2  501    0 -0.29234960838E+02  0.50908604270E+02  0.25810970390E+03  0.48005722816E+03  0.40048464906E+03 0.  0.
    9000005    1    3    3    0    0 -0.15882725155E+03  0.10158780008E+03  0.28165020828E+03  0.33893069612E+03  0.99999687468E+00 0.  0.
          4    1    3    3  501    0  0.12959229071E+03 -0.50679195810E+02 -0.23540504372E+02  0.14112653204E+03  0.00000000000E+00 0.  1.
   -9000007    1    1    2    0  503  0.29234960838E+02 -0.50908604270E+02 -0.85151676925E+03  0.94261719549E+03  0.40000000000E+03 0. -1.
<mgrwt>
<rscale>  2 0.40464460E+03</rscale>
<asrwt>0</asrwt>
<pdfrwt beam="1">  1       21 0.63789797E-01 0.40476453E+03</pdfrwt>
<pdfrwt beam="2">  1       21 0.15508319E+00 0.40476453E+03</pdfrwt>
<totfact> 0.52899895E+02</totfact>
</mgrwt>
</event>
<event>
 6    1  0.8947013E-004  0.4042722E+03  0.7818608E-02  0.1042498E+00
         21   -1    0    0  501  502  0.00000000000E+00  0.00000000000E+00  0.31626225653E+03  0.31626225653E+03  0.00000000000E+00 0. -1.
         21   -1    0    0  502  503 -0.00000000000E+00 -0.00000000000E+00 -0.55003494131E+03  0.55003494131E+03  0.00000000000E+00 0.  1.
    9000007    2    1    2  501    0  0.88938867032E+01  0.57938527041E+02 -0.22748750377E+03  0.46197618969E+03  0.39778821166E+03 0.  0.
    9000005    1    3    3    0    0 -0.36454474727E+02 -0.16087457465E+03 -0.15682718984E+03  0.22760783150E+03  0.99999687468E+00 0.  0.
          4    1    3    3  501    0  0.45348361431E+02  0.21881310169E+03 -0.70660313928E+02  0.23436835819E+03  0.00000000000E+00 0.  1.
   -9000007    1    1    2    0  503 -0.88938867032E+01 -0.57938527041E+02 -0.62851810114E+01  0.40432100816E+03  0.40000000000E+03 0. -1.
<mgrwt>
<rscale>  2 0.40372397E+03</rscale>
<asrwt>0</asrwt>
<pdfrwt beam="1">  1       21 0.48655732E-01 0.40427215E+03</pdfrwt>
<pdfrwt beam="2">  1       21 0.84620760E-01 0.40427215E+03</pdfrwt>
<totfact> 0.43502880E+03</totfact>
</mgrwt>
</event>
<event>
 6    1  0.8947013E-004  0.4365714E+03  0.7818608E-02  0.1031832E+00
         21   -1    0    0  501  502  0.00000000000E+00  0.00000000000E+00  0.16076262106E+04  0.16076262106E+04  0.00000000000E+00 0.  1.
         21   -1    0    0  502  503 -0.00000000000E+00 -0.00000000000E+00 -0.11948746985E+03  0.11948746985E+03  0.00000000000E+00 0.  1.
    9000007    2    1    2  501    0  0.17310991971E+03  0.25051215773E+02  0.66364741060E+03  0.79417179522E+03  0.39960774144E+03 0.  0.
    9000005    1    3    3    0    0  0.21353330035E+02 -0.45187380658E+02 -0.44269047634E+02  0.66772843631E+02  0.99999687468E+00 0.  0.
          4    1    3    3  501    0  0.15175658968E+03  0.70238596431E+02  0.70791645824E+03  0.72739895159E+03  0.00000000000E+00 0.  1.
   -9000007    1    1    2    0  503 -0.17310991971E+03 -0.25051215773E+02  0.82449133012E+03  0.93294188520E+03  0.40000000000E+03 0.  1.
<mgrwt>
<rscale>  2 0.43648155E+03</rscale>
<asrwt>0</asrwt>
<pdfrwt beam="1">  1       21 0.24732709E+00 0.43657142E+03</pdfrwt>
<pdfrwt beam="2">  1       21 0.18382689E-01 0.43657142E+03</pdfrwt>
<totfact> 0.15532055E+03</totfact>
</mgrwt>
</event>
<event>
 6    1  0.8947013E-004  0.4557379E+03  0.7818608E-02  0.1026025E+00
         21   -1    0    0  501  502  0.00000000000E+00  0.00000000000E+00  0.13965337585E+04  0.13965337585E+04  0.00000000000E+00 0. -1.
         21   -1    0    0  502  503 -0.00000000000E+00 -0.00000000000E+00 -0.21846383986E+03  0.21846383986E+03  0.00000000000E+00 0. -1.
    9000007    2    1    2  501    0  0.18237786832E+02 -0.21762225771E+03  0.10452848451E+04  0.11403146098E+04  0.40000617225E+03 0.  0.
    9000005    1    3    3    0    0 -0.45204119981E+02 -0.32654356705E+03  0.75044441110E+03  0.81965964144E+03  0.99999687468E+00 0.  0.
          4    1    3    3  501    0  0.63441906813E+02  0.10892130934E+03  0.29484043403E+03  0.32065496832E+03  0.00000000000E+00 0.  1.
   -9000007    1    1    2    0  503 -0.18237786832E+02  0.21762225771E+03  0.13278507349E+03  0.47468298859E+03  0.40000000000E+03 0. -1.
<mgrwt>
<rscale>  2 0.45573651E+03</rscale>
<asrwt>0</asrwt>
<pdfrwt beam="1">  1       21 0.21485134E+00 0.45573787E+03</pdfrwt>
<pdfrwt beam="2">  1       21 0.33609822E-01 0.45573787E+03</pdfrwt>
<totfact> 0.76069733E+02</totfact>
</mgrwt>
</event>
<event>
 6    1  0.8947013E-004  0.4378113E+03  0.7818608E-02  0.1031424E+00
         21   -1    0    0  501  502  0.00000000000E+00  0.00000000000E+00  0.12382347082E+04  0.12382347082E+04  0.00000000000E+00 0. -1.
         21   -1    0    0  502  503 -0.00000000000E+00 -0.00000000000E+00 -0.15650034718E+03  0.15650034718E+03  0.00000000000E+00 0.  1.
    9000007    2    1    2  501    0  0.13534341013E+03  0.11558949980E+03  0.46779954842E+03  0.64068285211E+03  0.39994915722E+03 0.  0.
    9000005    1    3    3    0    0  0.23567730027E+03 -0.52740544111E+02  0.24657561911E+03  0.34514618756E+03  0.99999687468E+00 0.  0.
          4    1    3    3  501    0 -0.10033389014E+03  0.16833004391E+03  0.22122392931E+03  0.29553666455E+03  0.00000000000E+00 0.  1.
   -9000007    1    1    2    0  503 -0.13534341013E+03 -0.11558949980E+03  0.61393481262E+03  0.75405220328E+03  0.40000000000E+03 0. -1.
<mgrwt>
<rscale>  2 0.43779973E+03</rscale>
<asrwt>0</asrwt>
<pdfrwt beam="1">  1       21 0.19049764E+00 0.43781134E+03</pdfrwt>
<pdfrwt beam="2">  1       21 0.24076977E-01 0.43781134E+03</pdfrwt>
<totfact> 0.21493623E+03</totfact>
</mgrwt>
</event>
<event>
 6    1  0.8947013E-004  0.4722261E+03  0.7818608E-02  0.1021317E+00
         21   -1    0    0  501  502  0.00000000000E+00  0.00000000000E+00  0.35132226396E+03  0.35132226396E+03  0.00000000000E+00 0.  1.
         21   -1    0    0  502  503 -0.00000000000E+00 -0.00000000000E+00 -0.77701612080E+03  0.77701612080E+03  0.00000000000E+00 0. -1.
    9000007    2    1    2  501    0  0.38136486234E+02  0.24743857747E+03  0.28888842932E+02  0.47310890425E+03  0.40039633969E+03 0.  0.
    9000005    1    3    3    0    0  0.12117733668E+03  0.48577318841E+02 -0.14579011915E+03  0.19570248252E+03  0.99999687468E+00 0.  0.
          4    1    3    3  501    0 -0.83040850447E+02  0.19886125863E+03  0.17467896208E+03  0.27740642173E+03  0.00000000000E+00 0.  1.
   -9000007    1    1    2    0  503 -0.38136486234E+02 -0.24743857747E+03 -0.45458269977E+03  0.65522948051E+03  0.40000000000E+03 0. -1.
<mgrwt>
<rscale>  2 0.47214206E+03</rscale>
<asrwt>0</asrwt>
<pdfrwt beam="1">  1       21 0.54049579E-01 0.47222608E+03</pdfrwt>
<pdfrwt beam="2">  1       21 0.11954094E+00 0.47222608E+03</pdfrwt>
<totfact> 0.14632657E+03</totfact>
</mgrwt>
</event>
<event>
 6    1  0.8947013E-004  0.4471118E+03  0.7818608E-02  0.1028833E+00
         21   -1    0    0  501  502  0.00000000000E+00  0.00000000000E+00  0.20132359290E+03  0.20132359290E+03  0.00000000000E+00 0. -1.
         21   -1    0    0  502  503 -0.00000000000E+00 -0.00000000000E+00 -0.98773740386E+03  0.98773740386E+03  0.00000000000E+00 0. -1.
    9000007    2    1    2  501    0 -0.26935671759E+02  0.19794812137E+03 -0.36496327033E+03  0.57462666555E+03  0.39634407641E+03 0.  0.
    9000005    1    3    3    0    0  0.33753779300E+02  0.31174617451E+03 -0.23813638418E+03  0.39374475540E+03  0.99999687468E+00 0.  0.
          4    1    3    3  501    0 -0.60689451059E+02 -0.11379805314E+03 -0.12682688615E+03  0.18088191015E+03  0.00000000000E+00 0.  1.
   -9000007    1    1    2    0  503  0.26935671759E+02 -0.19794812137E+03 -0.42145054064E+03  0.61443433121E+03  0.40000000000E+03 0. -1.
<mgrwt>
<rscale>  2 0.44629266E+03</rscale>
<asrwt>0</asrwt>
<pdfrwt beam="1">  1       21 0.30972861E-01 0.44711183E+03</pdfrwt>
<pdfrwt beam="2">  1       21 0.15195960E+00 0.44711183E+03</pdfrwt>
<totfact> 0.24881415E+03</totfact>
</mgrwt>
</event>
<event>
 6    1  0.8947013E-004  0.5449621E+03  0.7818608E-02  0.1002861E+00
         21   -1    0    0  501  502  0.00000000000E+00  0.00000000000E+00  0.74054960191E+03  0.74054960191E+03  0.00000000000E+00 0.  1.
         21   -1    0    0  502  503 -0.00000000000E+00 -0.00000000000E+00 -0.42087673585E+03  0.42087673585E+03  0.00000000000E+00 0.  1.
    9000007    2    1    2  501    0  0.58408750665E+02 -0.36052443340E+03  0.29389471916E+03  0.61915891103E+03  0.40446780086E+03 0.  0.
    9000005    1    3    3    0    0 -0.13237945651E+03 -0.22991478571E+03  0.27969913646E+02  0.26677414653E+03  0.99999687468E+00 0.  0.
          4    1    3    3  501    0  0.19078820717E+03 -0.13060964769E+03  0.26592480551E+03  0.35238476450E+03  0.00000000000E+00 0.  1.
   -9000007    1    1    2    0  503 -0.58408750665E+02  0.36052443340E+03  0.25778146908E+02  0.54226742673E+03  0.40000000000E+03 0.  1.
<mgrwt>
<rscale>  2 0.54413325E+03</rscale>
<asrwt>0</asrwt>
<pdfrwt beam="1">  1       21 0.11393071E+00 0.54496206E+03</pdfrwt>
<pdfrwt beam="2">  1       21 0.64750267E-01 0.54496206E+03</pdfrwt>
<totfact> 0.10833693E+03</totfact>
</mgrwt>
</event>
<event>
 6    1  0.8947013E-004  0.4569499E+03  0.7818608E-02  0.1025735E+00
         21   -1    0    0  501  502  0.00000000000E+00  0.00000000000E+00  0.45410128791E+03  0.45410128791E+03  0.00000000000E+00 0. -1.
         21   -1    0    0  502  503 -0.00000000000E+00 -0.00000000000E+00 -0.10852912836E+04  0.10852912836E+04  0.00000000000E+00 0. -1.
    9000007    2    1    2  501    0 -0.20864552628E+03  0.72596477014E+02  0.26927407697E+03  0.52962093877E+03  0.39898196217E+03 0.  0.
    9000005    1    3    3    0    0  0.11590952607E+03 -0.21792598303E+02  0.64537096762E+02  0.13444691304E+03  0.99999687468E+00 0.  0.
          4    1    3    3  501    0 -0.32455505235E+03  0.94389075318E+02  0.20473698021E+03  0.39517402573E+03  0.00000000000E+00 0.  1.
   -9000007    1    1    2    0  503  0.20864552628E+03 -0.72596477014E+02 -0.90046407262E+03  0.10097716327E+04  0.40000000000E+03 0. -1.
<mgrwt>
<rscale>  2 0.45672701E+03</rscale>
<asrwt>0</asrwt>
<pdfrwt beam="1">  1       21 0.69861737E-01 0.45694989E+03</pdfrwt>
<pdfrwt beam="2">  1       21 0.16696789E+00 0.45694989E+03</pdfrwt>
<totfact> 0.34250328E+02</totfact>
</mgrwt>
</event>
<event>
 6    1  0.8947013E-004  0.4193798E+03  0.7818608E-02  0.1038215E+00
         21   -1    0    0  501  502  0.00000000000E+00  0.00000000000E+00  0.28322094163E+04  0.28322094163E+04  0.00000000000E+00 0. -1.
         21   -1    0    0  502  503 -0.00000000000E+00 -0.00000000000E+00 -0.10375857127E+03  0.10375857127E+03  0.00000000000E+00 0. -1.
    9000007    2    1    2  501    0  0.99845828122E+01  0.12561724330E+03  0.23019581517E+04  0.23378246927E+04  0.38798656935E+03 0.  0.
    9000005    1    3    3    0    0 -0.97063520784E+02 -0.66949386860E+02  0.15439599784E+04  0.15484563160E+04  0.99999687468E+00 0.  0.
          4    1    3    3  501    0  0.10704810360E+03  0.19256663016E+03  0.75799817327E+03  0.78936837675E+03  0.00000000000E+00 0.  1.
   -9000007    1    1    2    0  503 -0.99845828122E+01 -0.12561724330E+03  0.42649269332E+03  0.59814329484E+03  0.40000000000E+03 0. -1.
<mgrwt>
<rscale>  2 0.41648944E+03</rscale>
<asrwt>0</asrwt>
<pdfrwt beam="1">  1       21 0.43572447E+00 0.41937976E+03</pdfrwt>
<pdfrwt beam="2">  1       21 0.15962859E-01 0.41937976E+03</pdfrwt>
<totfact> 0.13936675E+02</totfact>
</mgrwt>
</event>
<event>
 6    1  0.8947013E-004  0.4465751E+03  0.7818608E-02  0.1028768E+00
         21   -1    0    0  501  502  0.00000000000E+00  0.00000000000E+00  0.20030060422E+03  0.20030060422E+03  0.00000000000E+00 0. -1.
         21   -1    0    0  502  503 -0.00000000000E+00 -0.00000000000E+00 -0.14388912815E+04  0.14388912815E+04  0.00000000000E+00 0. -1.
    9000007    2    1    2  501    0 -0.21201929434E+02  0.19685593828E+03 -0.16423681815E+03  0.47581834429E+03  0.40028437651E+03 0.  0.
    9000005    1    3    3    0    0  0.10811882967E+03  0.26750510139E+03 -0.15653320865E+03  0.32825646377E+03  0.99999687468E+00 0.  0.
          4    1    3    3  501    0 -0.12932075911E+03 -0.70649163116E+02 -0.77036095018E+01  0.14756188052E+03  0.00000000000E+00 0.  1.
   -9000007    1    1    2    0  503  0.21201929434E+02 -0.19685593828E+03 -0.10743538591E+04  0.11633735414E+04  0.40000000000E+03 0. -1.
<mgrwt>
<rscale>  2 0.44651142E+03</rscale>
<asrwt>0</asrwt>
<pdfrwt beam="1">  1       21 0.30815477E-01 0.44657515E+03</pdfrwt>
<pdfrwt beam="2">  1       21 0.22136790E+00 0.44657515E+03</pdfrwt>
<totfact> 0.82570189E+02</totfact>
</mgrwt>
</event>
<event>
 6    1  0.8947013E-004  0.4127739E+03  0.7818608E-02  0.1039483E+00
         21   -1    0    0  501  502  0.00000000000E+00  0.00000000000E+00  0.12648838617E+03  0.12648838617E+03  0.00000000000E+00 0.  1.
         21   -1    0    0  502  503 -0.00000000000E+00 -0.00000000000E+00 -0.15909390805E+04  0.15909390805E+04  0.00000000000E+00 0.  1.
    9000007    2    1    2  501    0  0.94558140561E+02  0.32524670636E+02 -0.39529443142E+03  0.57152423749E+03  0.40047867656E+03 0.  0.
    9000005    1    3    3    0    0  0.69481974176E+02 -0.15814252170E+03 -0.56119649855E+02  0.18162383379E+03  0.99999687468E+00 0.  0.
          4    1    3    3  501    0  0.25076166384E+02  0.19066719234E+03 -0.33917478157E+03  0.38990040370E+03  0.00000000000E+00 0.  1.
   -9000007    1    1    2    0  503 -0.94558140561E+02 -0.32524670636E+02 -0.10691562630E+04  0.11459032292E+04  0.40000000000E+03 0.  1.
<mgrwt>
<rscale>  2 0.41265772E+03</rscale>
<asrwt>0</asrwt>
<pdfrwt beam="1">  1       21 0.19459751E-01 0.41277387E+03</pdfrwt>
<pdfrwt beam="2">  1       21 0.24475987E+00 0.41277387E+03</pdfrwt>
<totfact> 0.14635808E+03</totfact>
</mgrwt>
</event>
<event>
 6    1  0.8947013E-004  0.6313437E+03  0.7818608E-02  0.9842575E-01
         21   -1    0    0  501  502  0.00000000000E+00  0.00000000000E+00  0.74099230607E+03  0.74099230607E+03  0.00000000000E+00 0.  1.
         21   -1    0    0  502  503 -0.00000000000E+00 -0.00000000000E+00 -0.95184341535E+03  0.95184341535E+03  0.00000000000E+00 0.  1.
    9000007    2    1    2  501    0  0.40669299457E+03  0.27054690423E+03  0.45292277282E+03  0.77676226051E+03  0.39953191611E+03 0.  0.
    9000005    1    3    3    0    0  0.46830035626E+03  0.24867948183E+03  0.29713298326E+03  0.60781223917E+03  0.99999687468E+00 0.  0.
          4    1    3    3  501    0 -0.61607361693E+02  0.21867422399E+02  0.15578978956E+03  0.16895002133E+03  0.00000000000E+00 0.  1.
   -9000007    1    1    2    0  503 -0.40669299457E+03 -0.27054690423E+03 -0.66377388210E+03  0.91607346091E+03  0.40000000000E+03 0.  1.
<mgrwt>
<rscale>  2 0.63126953E+03</rscale>
<asrwt>0</asrwt>
<pdfrwt beam="1">  1       21 0.11399882E+00 0.63134366E+03</pdfrwt>
<pdfrwt beam="2">  1       21 0.14643745E+00 0.63134366E+03</pdfrwt>
<totfact> 0.14288088E+02</totfact>
</mgrwt>
</event>
<event>
 6    1  0.8947013E-004  0.5498118E+03  0.7818608E-02  0.1001538E+00
         21   -1    0    0  501  502  0.00000000000E+00  0.00000000000E+00  0.61333582843E+03  0.61333582843E+03  0.00000000000E+00 0. -1.
         21   -1    0    0  502  503 -0.00000000000E+00 -0.00000000000E+00 -0.54489092661E+03  0.54489092661E+03  0.00000000000E+00 0.  1.
    9000007    2    1    2  501    0  0.26500987340E+03 -0.26844517267E+03 -0.14472733673E+03  0.56853577917E+03  0.39999235802E+03 0.  0.
    9000005    1    3    3    0    0 -0.27248921517E+02  0.82627818691E+02  0.67549789642E+01  0.87272503574E+02  0.99999687468E+00 0.  0.
          4    1    3    3  501    0  0.29225879491E+03 -0.35107299136E+03 -0.15148231570E+03  0.48126327560E+03  0.00000000000E+00 0.  1.
   -9000007    1    1    2    0  503 -0.26500987340E+03  0.26844517267E+03  0.21317223856E+03  0.58969097587E+03  0.40000000000E+03 0. -1.
<mgrwt>
<rscale>  2 0.54981044E+03</rscale>
<asrwt>0</asrwt>
<pdfrwt beam="1">  1       21 0.94359358E-01 0.54981183E+03</pdfrwt>
<pdfrwt beam="2">  1       21 0.83829374E-01 0.54981183E+03</pdfrwt>
<totfact> 0.95364675E+02</totfact>
</mgrwt>
</event>
<event>
 6    1  0.8947013E-004  0.6283324E+03  0.7818608E-02  0.9848542E-01
         21   -1    0    0  501  502  0.00000000000E+00  0.00000000000E+00  0.23012379492E+04  0.23012379492E+04  0.00000000000E+00 0.  1.
         21   -1    0    0  502  503 -0.00000000000E+00 -0.00000000000E+00 -0.17810172558E+03  0.17810172558E+03  0.00000000000E+00 0.  1.
    9000007    2    1    2  501    0 -0.27240770953E+02 -0.48379705380E+03  0.13011058759E+04  0.14446728002E+04  0.39925098662E+03 0.  0.
    9000005    1    3    3    0    0 -0.12215985188E+03 -0.32993836382E+03  0.11689177041E+04  0.12207178020E+04  0.99999687468E+00 0.  0.
          4    1    3    3  501    0  0.94919080932E+02 -0.15385868998E+03  0.13218817184E+03  0.22395499811E+03  0.00000000000E+00 0.  1.
   -9000007    1    1    2    0  503  0.27240770953E+02  0.48379705380E+03  0.82203034767E+03  0.10346668746E+04  0.40000000000E+03 0.  1.
<mgrwt>
<rscale>  2 0.62821326E+03</rscale>
<asrwt>0</asrwt>
<pdfrwt beam="1">  1       21 0.35403659E+00 0.62833243E+03</pdfrwt>
<pdfrwt beam="2">  1       21 0.27400267E-01 0.62833243E+03</pdfrwt>
<totfact> 0.14643833E+02</totfact>
</mgrwt>
</event>
<event>
 6    1  0.8947013E-004  0.4860781E+03  0.7818608E-02  0.1017502E+00
         21   -1    0    0  501  502  0.00000000000E+00  0.00000000000E+00  0.12523543210E+04  0.12523543210E+04  0.00000000000E+00 0.  1.
         21   -1    0    0  502  503 -0.00000000000E+00 -0.00000000000E+00 -0.41342286758E+03  0.41342286758E+03  0.00000000000E+00 0.  1.
    9000007    2    1    2  501    0 -0.22408353991E+03 -0.16142646762E+03  0.10337004866E+04  0.11421294886E+04  0.39956368131E+03 0.  0.
    9000005    1    3    3    0    0 -0.25554228786E+03  0.43478324764E+02  0.41185494399E+03  0.48663920978E+03  0.99999687468E+00 0.  0.
          4    1    3    3  501    0  0.31458747951E+02 -0.20490479238E+03  0.62184554264E+03  0.65549027885E+03  0.00000000000E+00 0.  1.
   -9000007    1    1    2    0  503  0.22408353991E+03  0.16142646762E+03 -0.19476903325E+03  0.52364769991E+03  0.40000000000E+03 0.  1.
<mgrwt>
<rscale>  2 0.48598835E+03</rscale>
<asrwt>0</asrwt>
<pdfrwt beam="1">  1       21 0.19266989E+00 0.48607812E+03</pdfrwt>
<pdfrwt beam="2">  1       21 0.63603519E-01 0.48607812E+03</pdfrwt>
<totfact> 0.27409120E+02</totfact>
</mgrwt>
</event>
<event>
 6    1  0.8947013E-004  0.4312093E+03  0.7818608E-02  0.1033681E+00
         21   -1    0    0  501  502  0.00000000000E+00  0.00000000000E+00  0.22357608262E+04  0.22357608262E+04  0.00000000000E+00 0. -1.
         21   -1    0    0  502  503 -0.00000000000E+00 -0.00000000000E+00 -0.12620716677E+03  0.12620716677E+03  0.00000000000E+00 0. -1.
    9000007    2    1    2  501    0 -0.10249949593E+03  0.12423883456E+03  0.35909950658E+03  0.55918370861E+03  0.39723107843E+03 0.  0.
    9000005    1    3    3    0    0 -0.11831163753E+02  0.23186304579E+03  0.34758016933E+03  0.41798734735E+03  0.99999687468E+00 0.  0.
          4    1    3    3  501    0 -0.90668332175E+02 -0.10762421123E+03  0.11519337254E+02  0.14119636126E+03  0.00000000000E+00 0.  1.
   -9000007    1    1    2    0  503  0.10249949593E+03 -0.12423883456E+03  0.17504541528E+04  0.18027842843E+04  0.40000000000E+03 0. -1.
<mgrwt>
<rscale>  2 0.43056601E+03</rscale>
<asrwt>0</asrwt>
<pdfrwt beam="1">  1       21 0.34396317E+00 0.43120927E+03</pdfrwt>
<pdfrwt beam="2">  1       21 0.19416489E-01 0.43120927E+03</pdfrwt>
<totfact> 0.36612747E+02</totfact>
</mgrwt>
</event>
<event>
 6    1  0.8947013E-004  0.4165202E+03  0.7818608E-02  0.1038226E+00
         21   -1    0    0  501  502  0.00000000000E+00  0.00000000000E+00  0.49687554620E+03  0.49687554620E+03  0.00000000000E+00 0.  1.
         21   -1    0    0  502  503 -0.00000000000E+00 -0.00000000000E+00 -0.34912489452E+03  0.34912489452E+03  0.00000000000E+00 0.  1.
    9000007    2    1    2  501    0  0.85141069747E+02  0.77655836682E+02  0.83390616512E+02  0.42478595278E+03  0.40026201422E+03 0.  0.
    9000005    1    3    3    0    0 -0.13025225188E+03  0.33617953983E+02 -0.74816584493E+02  0.15392965035E+03  0.99999687468E+00 0.  0.
          4    1    3    3  501    0  0.21539332162E+03  0.44037882699E+02  0.15820720101E+03  0.27085630242E+03  0.00000000000E+00 0.  1.
   -9000007    1    1    2    0  503 -0.85141069747E+02 -0.77655836682E+02  0.64360035169E+02  0.42121448795E+03  0.40000000000E+03 0.  1.
<mgrwt>
<rscale>  2 0.41645728E+03</rscale>
<asrwt>0</asrwt>
<pdfrwt beam="1">  1       21 0.76442392E-01 0.41652024E+03</pdfrwt>
<pdfrwt beam="2">  1       21 0.53711522E-01 0.41652024E+03</pdfrwt>
<totfact> 0.44357879E+03</totfact>
</mgrwt>
</event>
<event>
 6    1  0.8947013E-004  0.4390918E+03  0.7818608E-02  0.1031036E+00
         21   -1    0    0  501  502  0.00000000000E+00  0.00000000000E+00  0.19920695157E+04  0.19920695157E+04  0.00000000000E+00 0.  1.
         21   -1    0    0  502  503 -0.00000000000E+00 -0.00000000000E+00 -0.10714962342E+03  0.10714962342E+03  0.00000000000E+00 0.  1.
    9000007    2    1    2  501    0 -0.15024430742E+03  0.10056826007E+03  0.12694885405E+04  0.13432805995E+04  0.40014283430E+03 0.  0.
    9000005    1    3    3    0    0 -0.90834425467E+02 -0.32952538748E+02  0.11512473087E+04  0.11552956887E+04  0.99999687468E+00 0.  0.
          4    1    3    3  501    0 -0.59409881950E+02  0.13352079882E+03  0.11824123178E+03  0.18798491079E+03  0.00000000000E+00 0.  1.
   -9000007    1    1    2    0  503  0.15024430742E+03 -0.10056826007E+03  0.61543135182E+03  0.75593853960E+03  0.40000000000E+03 0.  1.
<mgrwt>
<rscale>  2 0.43905926E+03</rscale>
<asrwt>0</asrwt>
<pdfrwt beam="1">  1       21 0.30647221E+00 0.43909181E+03</pdfrwt>
<pdfrwt beam="2">  1       21 0.16484559E-01 0.43909181E+03</pdfrwt>
<totfact> 0.83561108E+02</totfact>
</mgrwt>
</event>
<event>
 6    1  0.8947013E-004  0.4506421E+03  0.7818608E-02  0.1027570E+00
         21   -1    0    0  501  502  0.00000000000E+00  0.00000000000E+00  0.39192011584E+03  0.39192011584E+03  0.00000000000E+00 0.  1.
         21   -1    0    0  502  503 -0.00000000000E+00 -0.00000000000E+00 -0.20354524502E+04  0.20354524502E+04  0.00000000000E+00 0.  1.
    9000007    2    1    2  501    0  0.86836442766E+02  0.18726049466E+03  0.22619692057E+03  0.50422552345E+03  0.40058865557E+03 0.  0.
    9000005    1    3    3    0    0  0.10780285060E+03  0.21673953684E+03 -0.31401551327E+02  0.24409944458E+03  0.99999687468E+00 0.  0.
          4    1    3    3  501    0 -0.20966407835E+02 -0.29479042174E+02  0.25759847190E+03  0.26012607887E+03  0.00000000000E+00 0.  1.
   -9000007    1    1    2    0  503 -0.86836442766E+02 -0.18726049466E+03 -0.18697292549E+04  0.19231470426E+04  0.40000000000E+03 0.  1.
<mgrwt>
<rscale>  2 0.45051128E+03</rscale>
<asrwt>0</asrwt>
<pdfrwt beam="1">  1       21 0.60295402E-01 0.45064213E+03</pdfrwt>
<pdfrwt beam="2">  1       21 0.31314653E+00 0.45064213E+03</pdfrwt>
<totfact> 0.55907698E+01</totfact>
</mgrwt>
</event>
<event>
 6    1  0.8947013E-004  0.4699077E+03  0.7818608E-02  0.1021960E+00
         21   -1    0    0  501  502  0.00000000000E+00  0.00000000000E+00  0.83312488598E+03  0.83312488598E+03  0.00000000000E+00 0. -1.
         21   -1    0    0  502  503 -0.00000000000E+00 -0.00000000000E+00 -0.26515537321E+03  0.26515537321E+03  0.00000000000E+00 0. -1.
    9000007    2    1    2  501    0 -0.22688842034E+03  0.96617205107E+02  0.29972812600E+03  0.55720107721E+03  0.39977850282E+03 0.  0.
    9000005    1    3    3    0    0 -0.23158426646E+03  0.18540127924E+03  0.34698552760E+03  0.45651381487E+03  0.99999687468E+00 0.  0.
          4    1    3    3  501    0  0.46958461261E+01 -0.88784074131E+02 -0.47257401598E+02  0.10068726233E+03  0.00000000000E+00 0.  1.
   -9000007    1    1    2    0  503  0.22688842034E+03 -0.96617205107E+02  0.26824138676E+03  0.54107918199E+03  0.40000000000E+03 0. -1.
<mgrwt>
<rscale>  2 0.46986055E+03</rscale>
<asrwt>0</asrwt>
<pdfrwt beam="1">  1       21 0.12817306E+00 0.46990769E+03</pdfrwt>
<pdfrwt beam="2">  1       21 0.40793135E-01 0.46990769E+03</pdfrwt>
<totfact> 0.22171465E+03</totfact>
</mgrwt>
</event>
<event>
 6    1  0.8947013E-004  0.4721481E+03  0.7818608E-02  0.1021321E+00
         21   -1    0    0  501  502  0.00000000000E+00  0.00000000000E+00  0.92796587208E+03  0.92796587208E+03  0.00000000000E+00 0. -1.
         21   -1    0    0  502  503 -0.00000000000E+00 -0.00000000000E+00 -0.37558186708E+03  0.37558186708E+03  0.00000000000E+00 0. -1.
    9000007    2    1    2  501    0 -0.19803230515E+03  0.15397099143E+03  0.66750326976E+03  0.81756800173E+03  0.39991619400E+03 0.  0.
    9000005    1    3    3    0    0 -0.22972430092E+03  0.16678239654E+03  0.19634075694E+03  0.34516708282E+03  0.99999687468E+00 0.  0.
          4    1    3    3  501    0  0.31691995776E+02 -0.12811405117E+02  0.47116251282E+03  0.47240091891E+03  0.00000000000E+00 0.  1.
   -9000007    1    1    2    0  503  0.19803230515E+03 -0.15397099143E+03 -0.11511926476E+03  0.48597973744E+03  0.40000000000E+03 0. -1.
<mgrwt>
<rscale>  2 0.47213038E+03</rscale>
<asrwt>0</asrwt>
<pdfrwt beam="1">  1       21 0.14276398E+00 0.47214813E+03</pdfrwt>
<pdfrwt beam="2">  1       21 0.57781826E-01 0.47214813E+03</pdfrwt>
<totfact> 0.79702464E+02</totfact>
</mgrwt>
</event>
<event>
 6    1  0.8947013E-004  0.4775065E+03  0.7818608E-02  0.1019836E+00
         21   -1    0    0  501  502  0.00000000000E+00  0.00000000000E+00  0.18805055450E+04  0.18805055450E+04  0.00000000000E+00 0. -1.
         21   -1    0    0  502  503 -0.00000000000E+00 -0.00000000000E+00 -0.12338910988E+03  0.12338910988E+03  0.00000000000E+00 0.  1.
    9000007    2    1    2  501    0 -0.22911864807E+03  0.12380856306E+03  0.10121789184E+04  0.11191597686E+04  0.40023556769E+03 0.  0.
    9000005    1    3    3    0    0  0.49167637441E+02 -0.10469054020E+03  0.28929052089E+03  0.31155669027E+03  0.99999687468E+00 0.  0.
          4    1    3    3  501    0 -0.27828628551E+03  0.22849910326E+03  0.72288839748E+03  0.80760307832E+03  0.00000000000E+00 0.  1.
   -9000007    1    1    2    0  503  0.22911864807E+03 -0.12380856306E+03  0.74493751675E+03  0.88473488631E+03  0.40000000000E+03 0. -1.
<mgrwt>
<rscale>  2 0.47745710E+03</rscale>
<asrwt>0</asrwt>
<pdfrwt beam="1">  1       21 0.28930852E+00 0.47750647E+03</pdfrwt>
<pdfrwt beam="2">  1       21 0.18982941E-01 0.47750647E+03</pdfrwt>
<totfact> 0.79613631E+02</totfact>
</mgrwt>
</event>
<event>
 6    1  0.8947013E-004  0.4188217E+03  0.7818608E-02  0.1037512E+00
         21   -1    0    0  501  502  0.00000000000E+00  0.00000000000E+00  0.23020514279E+03  0.23020514279E+03  0.00000000000E+00 0. -1.
         21   -1    0    0  502  503 -0.00000000000E+00 -0.00000000000E+00 -0.11553570553E+04  0.11553570553E+04  0.00000000000E+00 0. -1.
    9000007    2    1    2  501    0  0.80642521183E+02 -0.94384514591E+02 -0.57355638645E+02  0.42198447640E+03  0.39921119251E+03 0.  0.
    9000005    1    3    3    0    0 -0.14752287232E+03 -0.11768868109E+02  0.50581091403E+02  0.15639997096E+03  0.99999687468E+00 0.  0.
          4    1    3    3  501    0  0.22816539351E+03 -0.82615646482E+02 -0.10793673005E+03  0.26558450544E+03  0.00000000000E+00 0.  1.
   -9000007    1    1    2    0  503 -0.80642521183E+02  0.94384514591E+02 -0.86779627386E+03  0.96357772169E+03  0.40000000000E+03 0.  1.
<mgrwt>
<rscale>  2 0.41863329E+03</rscale>
<asrwt>0</asrwt>
<pdfrwt beam="1">  1       21 0.35416176E-01 0.41882174E+03</pdfrwt>
<pdfrwt beam="2">  1       21 0.17774724E+00 0.41882174E+03</pdfrwt>
<totfact> 0.12384357E+03</totfact>
</mgrwt>
</event>
<event>
 6    1  0.8947013E-004  0.5214005E+03  0.7818608E-02  0.1008469E+00
         21   -1    0    0  501  502  0.00000000000E+00  0.00000000000E+00  0.10461696877E+03  0.10461696877E+03  0.00000000000E+00 0. -1.
         21   -1    0    0  502  503 -0.00000000000E+00 -0.00000000000E+00 -0.26216159595E+04  0.26216159595E+04  0.00000000000E+00 0. -1.
    9000007    2    1    2  501    0  0.15397605709E+03  0.29690047042E+03 -0.11021131816E+04  0.12183336053E+04  0.39727168679E+03 0.  0.
    9000005    1    3    3    0    0  0.22278340270E+03  0.29832250943E+03 -0.10854363152E+04  0.11475198292E+04  0.99999687468E+00 0.  0.
          4    1    3    3  501    0 -0.68807345612E+02 -0.14220390074E+01 -0.16676866459E+02  0.70813776061E+02  0.00000000000E+00 0.  1.
   -9000007    1    1    2    0  503 -0.15397605709E+03 -0.29690047042E+03 -0.14148858091E+04  0.15078993230E+04  0.40000000000E+03 0. -1.
<mgrwt>
<rscale>  2 0.52087722E+03</rscale>
<asrwt>0</asrwt>
<pdfrwt beam="1">  1       21 0.16094919E-01 0.52140053E+03</pdfrwt>
<pdfrwt beam="2">  1       21 0.40332551E+00 0.52140053E+03</pdfrwt>
<totfact> 0.20939560E+02</totfact>
</mgrwt>
</event>
<event>
 6    1  0.8947013E-004  0.4937774E+03  0.7818608E-02  0.1015469E+00
         21   -1    0    0  501  502  0.00000000000E+00  0.00000000000E+00  0.76470164366E+03  0.76470164366E+03  0.00000000000E+00 0.  1.
         21   -1    0    0  502  503 -0.00000000000E+00 -0.00000000000E+00 -0.32662878573E+03  0.32662878573E+03  0.00000000000E+00 0. -1.
    9000007    2    1    2  501    0  0.21229113171E+03  0.19481806949E+03  0.13217313496E+03  0.51116127707E+03  0.40099190610E+03 0.  0.
    9000005    1    3    3    0    0 -0.52410818949E+02  0.11995461048E+02  0.17824340153E+03  0.18617866475E+03  0.99999687468E+00 0.  0.
          4    1    3    3  501    0  0.26470195066E+03  0.18282260844E+03 -0.46070266562E+02  0.32498261231E+03  0.00000000000E+00 0.  1.
   -9000007    1    1    2    0  503 -0.21229113171E+03 -0.19481806949E+03  0.30589972296E+03  0.58016915233E+03  0.40000000000E+03 0.  1.
<mgrwt>
<rscale>  2 0.49357598E+03</rscale>
<asrwt>0</asrwt>
<pdfrwt beam="1">  1       21 0.11764641E+00 0.49377739E+03</pdfrwt>
<pdfrwt beam="2">  1       21 0.50250582E-01 0.49377739E+03</pdfrwt>
<totfact> 0.17673788E+03</totfact>
</mgrwt>
</event>
<event>
 6    1  0.8947013E-004  0.4380262E+03  0.7818608E-02  0.1031367E+00
         21   -1    0    0  501  502  0.00000000000E+00  0.00000000000E+00  0.29742505940E+03  0.29742505940E+03  0.00000000000E+00 0. -1.
         21   -1    0    0  502  503 -0.00000000000E+00 -0.00000000000E+00 -0.88131885289E+03  0.88131885289E+03  0.00000000000E+00 0. -1.
    9000007    2    1    2  501    0  0.11083876332E+03 -0.13993465602E+03  0.13390885422E+02  0.43805779316E+03  0.39981042374E+03 0.  0.
    9000005    1    3    3    0    0 -0.92646793341E+02 -0.73077856536E+02  0.14478336209E+03  0.18678068253E+03  0.99999687468E+00 0.  0.
          4    1    3    3  501    0  0.20348555666E+03 -0.66856799487E+02 -0.13139247667E+03  0.25127711064E+03  0.00000000000E+00 0.  1.
   -9000007    1    1    2    0  503 -0.11083876332E+03  0.13993465602E+03 -0.59728467891E+03  0.74068611913E+03  0.40000000000E+03 0. -1.
<mgrwt>
<rscale>  2 0.43798290E+03</rscale>
<asrwt>0</asrwt>
<pdfrwt beam="1">  1       21 0.45757702E-01 0.43802619E+03</pdfrwt>
<pdfrwt beam="2">  1       21 0.13558752E+00 0.43802619E+03</pdfrwt>
<totfact> 0.15264687E+03</totfact>
</mgrwt>
</event>
<event>
 6    1  0.8947013E-004  0.4061863E+03  0.7818608E-02  0.1041669E+00
         21   -1    0    0  501  502  0.00000000000E+00  0.00000000000E+00  0.79554780948E+03  0.79554780948E+03  0.00000000000E+00 0.  1.
         21   -1    0    0  502  503 -0.00000000000E+00 -0.00000000000E+00 -0.25552019851E+03  0.25552019851E+03  0.00000000000E+00 0.  1.
    9000007    2    1    2  501    0 -0.15855481430E+02  0.68817742037E+02  0.49821717683E+03  0.64273555727E+03  0.39987668521E+03 0.  0.
    9000005    1    3    3    0    0 -0.13796143725E+03 -0.35101268387E+01  0.14664323321E+02  0.13878660429E+03  0.99999687468E+00 0.  0.
          4    1    3    3  501    0  0.12210595582E+03  0.72327868875E+02  0.48355285351E+03  0.50394895297E+03  0.00000000000E+00 0.  1.
   -9000007    1    1    2    0  503  0.15855481430E+02 -0.68817742037E+02  0.41810434140E+02  0.40833245072E+03  0.40000000000E+03 0.  1.
<mgrwt>
<rscale>  2 0.40615590E+03</rscale>
<asrwt>0</asrwt>
<pdfrwt beam="1">  1       21 0.12239197E+00 0.40618626E+03</pdfrwt>
<pdfrwt beam="2">  1       21 0.39310800E-01 0.40618626E+03</pdfrwt>
<totfact> 0.27612958E+03</totfact>
</mgrwt>
</event>
<event>
 6    1  0.8947013E-004  0.6228290E+03  0.7818608E-02  0.9859303E-01
         21   -1    0    0  501  502  0.00000000000E+00  0.00000000000E+00  0.23162281746E+04  0.23162281746E+04  0.00000000000E+00 0. -1.
         21   -1    0    0  502  503 -0.00000000000E+00 -0.00000000000E+00 -0.38160138315E+03  0.38160138315E+03  0.00000000000E+00 0. -1.
    9000007    2    1    2  501    0  0.38129266101E+03 -0.28728366773E+03  0.19778518500E+04  0.20735023961E+04  0.39949749292E+03 0.  0.
    9000005    1    3    3    0    0  0.36362428440E+03 -0.27202425443E+03  0.10335715781E+04  0.11289335774E+04  0.99999687468E+00 0.  0.
          4    1    3    3  501    0  0.17668376606E+02 -0.15259413300E+02  0.94428027193E+03  0.94456881865E+03  0.00000000000E+00 0.  1.
   -9000007    1    1    2    0  503 -0.38129266101E+03  0.28728366773E+03 -0.43225058589E+02  0.62432716165E+03  0.40000000000E+03 0. -1.
<mgrwt>
<rscale>  2 0.62274836E+03</rscale>
<asrwt>0</asrwt>
<pdfrwt beam="1">  1       21 0.35634279E+00 0.62282903E+03</pdfrwt>
<pdfrwt beam="2">  1       21 0.58707907E-01 0.62282903E+03</pdfrwt>
<totfact> 0.29120234E+01</totfact>
</mgrwt>
</event>
<event>
 6    1  0.8947013E-004  0.4398556E+03  0.7818608E-02  0.1030802E+00
         21   -1    0    0  501  502  0.00000000000E+00  0.00000000000E+00  0.29703911865E+03  0.29703911865E+03  0.00000000000E+00 0.  1.
         21   -1    0    0  502  503 -0.00000000000E+00 -0.00000000000E+00 -0.75028880045E+03  0.75028880045E+03  0.00000000000E+00 0.  1.
    9000007    2    1    2  501    0  0.11961019288E+03  0.13844272458E+03 -0.41696107634E+03  0.60597788895E+03  0.39984956731E+03 0.  0.
    9000005    1    3    3    0    0 -0.14499158974E+03  0.21331457628E+02 -0.10375119252E+03  0.17956308675E+03  0.99999687468E+00 0.  0.
          4    1    3    3  501    0  0.26460178262E+03  0.11711126695E+03 -0.31320988382E+03  0.42641480220E+03  0.00000000000E+00 0.  1.
   -9000007    1    1    2    0  503 -0.11961019288E+03 -0.13844272458E+03 -0.36288605453E+02  0.44135003015E+03  0.40000000000E+03 0.  1.
<mgrwt>
<rscale>  2 0.43982144E+03</rscale>
<asrwt>0</asrwt>
<pdfrwt beam="1">  1       21 0.45698327E-01 0.43985564E+03</pdfrwt>
<pdfrwt beam="2">  1       21 0.11542904E+00 0.43985564E+03</pdfrwt>
<totfact> 0.23119029E+03</totfact>
</mgrwt>
</event>
<event>
 6    1  0.8947013E-004  0.4692739E+03  0.7818608E-02  0.1022155E+00
         21   -1    0    0  501  502  0.00000000000E+00  0.00000000000E+00  0.29570091447E+03  0.29570091447E+03  0.00000000000E+00 0.  1.
         21   -1    0    0  502  503 -0.00000000000E+00 -0.00000000000E+00 -0.78751359691E+03  0.78751359691E+03  0.00000000000E+00 0.  1.
    9000007    2    1    2  501    0  0.17851712801E+03  0.16720898435E+03 -0.11880233366E+03  0.48407852537E+03  0.40048822056E+03 0.  0.
    9000005    1    3    3    0    0 -0.11761040626E+03 -0.14740543745E+02 -0.60541287876E+01  0.11868927399E+03  0.99999687468E+00 0.  0.
          4    1    3    3  501    0  0.29612753427E+03  0.18194952810E+03 -0.11274820487E+03  0.36538925138E+03  0.00000000000E+00 0.  1.
   -9000007    1    1    2    0  503 -0.17851712801E+03 -0.16720898435E+03 -0.37301034878E+03  0.59913598601E+03  0.40000000000E+03 0.  1.
<mgrwt>
<rscale>  2 0.46916975E+03</rscale>
<asrwt>0</asrwt>
<pdfrwt beam="1">  1       21 0.45492448E-01 0.46927393E+03</pdfrwt>
<pdfrwt beam="2">  1       21 0.12115594E+00 0.46927393E+03</pdfrwt>
<totfact> 0.20423794E+03</totfact>
</mgrwt>
</event>
<event>
 6    1  0.8947013E-004  0.5567120E+03  0.7818608E-02  0.1000185E+00
         21   -1    0    0  501  502  0.00000000000E+00  0.00000000000E+00  0.16618921576E+04  0.16618921576E+04  0.00000000000E+00 0. -1.
         21   -1    0    0  502  503 -0.00000000000E+00 -0.00000000000E+00 -0.29898958402E+03  0.29898958402E+03  0.00000000000E+00 0. -1.
    9000007    2    1    2  501    0  0.33969321060E+03 -0.18584061476E+03  0.74876821150E+02  0.55769303359E+03  0.39431810757E+03 0.  0.
    9000005    1    3    3    0    0  0.24541175776E+03 -0.16458586488E+03 -0.13632795165E+03  0.32542548788E+03  0.99999687468E+00 0.  0.
          4    1    3    3  501    0  0.94281452838E+02 -0.21254749873E+02  0.21120477280E+03  0.23226754572E+03  0.00000000000E+00 0.  1.
   -9000007    1    1    2    0  503 -0.33969321060E+03  0.18584061476E+03  0.12880257524E+04  0.14031887080E+04  0.40000000000E+03 0. -1.
<mgrwt>
<rscale>  2 0.55569208E+03</rscale>
<asrwt>0</asrwt>
<pdfrwt beam="1">  1       21 0.25567571E+00 0.55671196E+03</pdfrwt>
<pdfrwt beam="2">  1       21 0.45998399E-01 0.55671196E+03</pdfrwt>
<totfact> 0.21043178E+02</totfact>
</mgrwt>
</event>
<event>
 6    1  0.8947013E-004  0.4472695E+03  0.7818608E-02  0.1028562E+00
         21   -1    0    0  501  502  0.00000000000E+00  0.00000000000E+00  0.21054483643E+03  0.21054483643E+03  0.00000000000E+00 0. -1.
         21   -1    0    0  502  503 -0.00000000000E+00 -0.00000000000E+00 -0.97673098108E+03  0.97673098108E+03  0.00000000000E+00 0. -1.
    9000007    2    1    2  501    0 -0.81631497573E+02 -0.18271911528E+03 -0.28389048486E+03  0.52950756050E+03  0.39966795311E+03 0.  0.
    9000005    1    3    3    0    0  0.14413485402E+03  0.11026452621E+02 -0.13068276490E+03  0.19487284017E+03  0.99999687468E+00 0.  0.
          4    1    3    3  501    0 -0.22576635159E+03 -0.19374556790E+03 -0.15320771997E+03  0.33463472033E+03  0.00000000000E+00 0.  1.
   -9000007    1    1    2    0  503  0.81631497573E+02  0.18271911528E+03 -0.48229565979E+03  0.65776825701E+03  0.40000000000E+03 0.  1.
<mgrwt>
<rscale>  2 0.44719522E+03</rscale>
<asrwt>0</asrwt>
<pdfrwt beam="1">  1       21 0.32391514E-01 0.44726947E+03</pdfrwt>
<pdfrwt beam="2">  1       21 0.15026630E+00 0.44726947E+03</pdfrwt>
<totfact> 0.23453123E+03</totfact>
</mgrwt>
</event>
<event>
 6    1  0.8947013E-004  0.4195554E+03  0.7818608E-02  0.1037364E+00
         21   -1    0    0  501  502  0.00000000000E+00  0.00000000000E+00  0.26528546517E+04  0.26528546517E+04  0.00000000000E+00 0.  1.
         21   -1    0    0  502  503 -0.00000000000E+00 -0.00000000000E+00 -0.13252970709E+03  0.13252970709E+03  0.00000000000E+00 0.  1.
    9000007    2    1    2  501    0 -0.10069232273E+03  0.65718204844E+02  0.22478874562E+04  0.22867060944E+04  0.40195636571E+03 0.  0.
    9000005    1    3    3    0    0  0.72021940871E+02 -0.94341067425E+02  0.27113004647E+03  0.29597280122E+03  0.99999687468E+00 0.  0.
          4    1    3    3  501    0 -0.17271426360E+03  0.16005927227E+03  0.19767574098E+04  0.19907332932E+04  0.00000000000E+00 0.  1.
   -9000007    1    1    2    0  503  0.10069232273E+03 -0.65718204844E+02  0.27243748837E+03  0.49867826439E+03  0.40000000000E+03 0.  1.
<mgrwt>
<rscale>  2 0.41908615E+03</rscale>
<asrwt>0</asrwt>
<pdfrwt beam="1">  1       21 0.40813144E+00 0.41955541E+03</pdfrwt>
<pdfrwt beam="2">  1       21 0.20389188E-01 0.41955541E+03</pdfrwt>
<totfact> 0.13330701E+02</totfact>
</mgrwt>
</event>
<event>
 6    1  0.8947013E-004  0.5163449E+03  0.7818608E-02  0.1009603E+00
         21   -1    0    0  501  502  0.00000000000E+00  0.00000000000E+00  0.40803747908E+03  0.40803747908E+03  0.00000000000E+00 0. -1.
         21   -1    0    0  502  503 -0.00000000000E+00 -0.00000000000E+00 -0.72337186586E+03  0.72337186586E+03  0.00000000000E+00 0.  1.
    9000007    2    1    2  501    0 -0.32597347478E+03  0.16725031968E+02  0.18377788174E+02  0.51667180040E+03  0.40009195603E+03 0.  0.
    9000005    1    3    3    0    0 -0.18130952139E+03  0.17969210321E+03 -0.93327101963E+02  0.27179650928E+03  0.99999687468E+00 0.  0.
          4    1    3    3  501    0 -0.14466395339E+03 -0.16296707124E+03  0.11170489014E+03  0.24487529112E+03  0.00000000000E+00 0.  1.
   -9000007    1    1    2    0  503  0.32597347478E+03 -0.16725031968E+02 -0.33371217496E+03  0.61473754454E+03  0.40000000000E+03 0. -1.
<mgrwt>
<rscale>  2 0.51632704E+03</rscale>
<asrwt>0</asrwt>
<pdfrwt beam="1">  1       21 0.62774996E-01 0.51634485E+03</pdfrwt>
<pdfrwt beam="2">  1       21 0.11128798E+00 0.51634485E+03</pdfrwt>
<totfact> 0.12428508E+03</totfact>
</mgrwt>
</event>
<event>
 6    1  0.8947013E-004  0.4529529E+03  0.7818608E-02  0.1026878E+00
         21   -1    0    0  501  502  0.00000000000E+00  0.00000000000E+00  0.59652306162E+03  0.59652306162E+03  0.00000000000E+00 0.  1.
         21   -1    0    0  502  503 -0.00000000000E+00 -0.00000000000E+00 -0.45612239484E+03  0.45612239484E+03  0.00000000000E+00 0.  1.
    9000007    2    1    2  501    0  0.16394173506E+03 -0.13523859213E+03  0.33159057908E+03  0.56099522320E+03  0.39949588112E+03 0.  0.
    9000005    1    3    3    0    0  0.51432811115E+02 -0.14589434939E+03 -0.50350113143E+02  0.16268567586E+03  0.99999687468E+00 0.  0.
          4    1    3    3  501    0  0.11250892394E+03  0.10655757265E+02  0.38194069222E+03  0.39830954734E+03  0.00000000000E+00 0.  1.
   -9000007    1    1    2    0  503 -0.16394173506E+03  0.13523859213E+03 -0.19118991230E+03  0.49165023325E+03  0.40000000000E+03 0.  1.
<mgrwt>
<rscale>  2 0.45284162E+03</rscale>
<asrwt>0</asrwt>
<pdfrwt beam="1">  1       21 0.91772779E-01 0.45295294E+03</pdfrwt>
<pdfrwt beam="2">  1       21 0.70172676E-01 0.45295294E+03</pdfrwt>
<totfact> 0.15875900E+03</totfact>
</mgrwt>
</event>
<event>
 6    1  0.8947013E-004  0.4406736E+03  0.7818608E-02  0.1030551E+00
         21   -1    0    0  501  502  0.00000000000E+00  0.00000000000E+00  0.18690130717E+04  0.18690130717E+04  0.00000000000E+00 0.  1.
         21   -1    0    0  502  503 -0.00000000000E+00 -0.00000000000E+00 -0.13608239734E+03  0.13608239734E+03  0.00000000000E+00 0.  1.
    9000007    2    1    2  501    0  0.15967032460E+03  0.93266524997E+02  0.13541468017E+04  0.14240012603E+04  0.39984093290E+03 0.  0.
    9000005    1    3    3    0    0  0.48581576356E+02  0.17133206251E+03  0.22610775578E+03  0.28782036485E+03  0.99999687468E+00 0.  0.
          4    1    3    3  501    0  0.11108874825E+03 -0.78065537512E+02  0.11280390459E+04  0.11361808954E+04  0.00000000000E+00 0.  1.
   -9000007    1    1    2    0  503 -0.15967032460E+03 -0.93266524997E+02  0.37878387274E+03  0.58109420879E+03  0.40000000000E+03 0.  1.
<mgrwt>
<rscale>  2 0.44063754E+03</rscale>
<asrwt>0</asrwt>
<pdfrwt beam="1">  1       21 0.28754046E+00 0.44067364E+03</pdfrwt>
<pdfrwt beam="2">  1       21 0.20935755E-01 0.44067364E+03</pdfrwt>
<totfact> 0.69060029E+02</totfact>
</mgrwt>
</event>
<event>
 6    1  0.8947013E-004  0.5578701E+03  0.7818608E-02  0.9996925E-01
         21   -1    0    0  501  502  0.00000000000E+00  0.00000000000E+00  0.10436148879E+04  0.10436148879E+04  0.00000000000E+00 0.  1.
         21   -1    0    0  502  503 -0.00000000000E+00 -0.00000000000E+00 -0.33740465436E+03  0.33740465436E+03  0.00000000000E+00 0. -1.
    9000007    2    1    2  501    0 -0.55111819657E+02 -0.38494383055E+03  0.58853525386E+03  0.81087353802E+03  0.39990384380E+03 0.  0.
    9000005    1    3    3    0    0 -0.16779786586E+03 -0.10105960034E+03  0.68007920348E+02  0.20735294508E+03  0.99999687468E+00 0.  0.
          4    1    3    3  501    0  0.11268604621E+03 -0.28388423021E+03  0.52052733351E+03  0.60352059294E+03  0.00000000000E+00 0.  1.
   -9000007    1    1    2    0  503  0.55111819657E+02  0.38494383055E+03  0.11767497973E+03  0.57014600428E+03  0.40000000000E+03 0. -1.
<mgrwt>
<rscale>  2 0.55785288E+03</rscale>
<asrwt>0</asrwt>
<pdfrwt beam="1">  1       21 0.16055614E+00 0.55787012E+03</pdfrwt>
<pdfrwt beam="2">  1       21 0.51908409E-01 0.55787012E+03</pdfrwt>
<totfact> 0.70488448E+02</totfact>
</mgrwt>
</event>
<event>
 6    1  0.8947013E-004  0.4069893E+03  0.7818608E-02  0.1041432E+00
         21   -1    0    0  501  502  0.00000000000E+00  0.00000000000E+00  0.43593249811E+03  0.43593249811E+03  0.00000000000E+00 0.  1.
         21   -1    0    0  502  503 -0.00000000000E+00 -0.00000000000E+00 -0.46258164725E+03  0.46258164725E+03  0.00000000000E+00 0.  1.
    9000007    2    1    2  501    0 -0.73223829177E+02 -0.16690618316E+02 -0.20375314753E+03  0.45466041703E+03  0.39945017685E+03 0.  0.
    9000005    1    3    3    0    0  0.14537823779E+03 -0.93317464917E+02 -0.10976265711E+03  0.20467491827E+03  0.99999687468E+00 0.  0.
          4    1    3    3  501    0 -0.21860206696E+03  0.76626846600E+02 -0.93990490424E+02  0.24998549876E+03  0.00000000000E+00 0.  1.
   -9000007    1    1    2    0  503  0.73223829177E+02  0.16690618316E+02  0.17710399839E+03  0.44385372832E+03  0.40000000000E+03 0.  1.
<mgrwt>
<rscale>  2 0.40685416E+03</rscale>
<asrwt>0</asrwt>
<pdfrwt beam="1">  1       21 0.67066538E-01 0.40698932E+03</pdfrwt>
<pdfrwt beam="2">  1       21 0.71166407E-01 0.40698932E+03</pdfrwt>
<totfact> 0.32213740E+03</totfact>
</mgrwt>
</event>
<event>
 6    1  0.8947013E-004  0.4929083E+03  0.7818608E-02  0.1015701E+00
         21   -1    0    0  501  502  0.00000000000E+00  0.00000000000E+00  0.17566890422E+03  0.17566890422E+03  0.00000000000E+00 0. -1.
         21   -1    0    0  502  503 -0.00000000000E+00 -0.00000000000E+00 -0.18395070672E+04  0.18395070672E+04  0.00000000000E+00 0.  1.
    9000007    2    1    2  501    0 -0.26934727751E+03  0.10203233050E+03 -0.32823142203E+03  0.59151733297E+03  0.39899666217E+03 0.  0.
    9000005    1    3    3    0    0 -0.29633784349E+03 -0.34746299747E+02 -0.83453979092E+02  0.30982089899E+03  0.99999687468E+00 0.  0.
          4    1    3    3  501    0  0.26990565975E+02  0.13677863025E+03 -0.24477744294E+03  0.28169643398E+03  0.00000000000E+00 0.  1.
   -9000007    1    1    2    0  503  0.26934727751E+03 -0.10203233050E+03 -0.13356067409E+04  0.14236586384E+04  0.40000000000E+03 0.  1.
<mgrwt>
<rscale>  2 0.49270467E+03</rscale>
<asrwt>0</asrwt>
<pdfrwt beam="1">  1       21 0.27025985E-01 0.49290826E+03</pdfrwt>
<pdfrwt beam="2">  1       21 0.28300109E+00 0.49290826E+03</pdfrwt>
<totfact> 0.43603775E+02</totfact>
</mgrwt>
</event>
<event>
 6    1  0.8947013E-004  0.7117588E+03  0.7818608E-02  0.9697481E-01
         21   -1    0    0  501  502  0.00000000000E+00  0.00000000000E+00  0.30217185449E+03  0.30217185449E+03  0.00000000000E+00 0. -1.
         21   -1    0    0  502  503 -0.00000000000E+00 -0.00000000000E+00 -0.17769961567E+04  0.17769961567E+04  0.00000000000E+00 0. -1.
    9000007    2    1    2  501    0 -0.50907903751E+03  0.29484409160E+03 -0.48937198410E+03  0.86376240974E+03  0.40063207169E+03 0.  0.
    9000005    1    3    3    0    0 -0.11299098277E+03  0.26220076779E+03 -0.87638994487E+02  0.29866000429E+03  0.99999687468E+00 0.  0.
          4    1    3    3  501    0 -0.39608805474E+03  0.32643323809E+02 -0.40173298962E+03  0.56510240544E+03  0.00000000000E+00 0.  1.
   -9000007    1    1    2    0  503  0.50907903751E+03 -0.29484409160E+03 -0.98545231809E+03  0.12154056014E+04  0.40000000000E+03 0. -1.
<mgrwt>
<rscale>  2 0.71166987E+03</rscale>
<asrwt>0</asrwt>
<pdfrwt beam="1">  1       21 0.46487978E-01 0.71175878E+03</pdfrwt>
<pdfrwt beam="2">  1       21 0.27338402E+00 0.71175878E+03</pdfrwt>
<totfact> 0.15024746E+02</totfact>
</mgrwt>
</event>
<event>
 6    1  0.8947013E-004  0.4068321E+03  0.7818608E-02  0.1041443E+00
         21   -1    0    0  501  502  0.00000000000E+00  0.00000000000E+00  0.72935872245E+03  0.72935872245E+03  0.00000000000E+00 0. -1.
         21   -1    0    0  502  503 -0.00000000000E+00 -0.00000000000E+00 -0.35044453365E+03  0.35044453365E+03  0.00000000000E+00 0. -1.
    9000007    2    1    2  501    0  0.39218457303E+02 -0.63041515425E+02  0.51001098369E+03  0.65237058341E+03  0.39995481563E+03 0.  0.
    9000005    1    3    3    0    0 -0.18991385585E+02  0.34706480942E+02  0.53452820399E+03  0.53599124377E+03  0.99999687468E+00 0.  0.
          4    1    3    3  501    0  0.58209842889E+02 -0.97747996367E+02 -0.24517220296E+02  0.11637933964E+03  0.00000000000E+00 0.  1.
   -9000007    1    1    2    0  503 -0.39218457303E+02  0.63041515425E+02 -0.13109679489E+03  0.42743267270E+03  0.40000000000E+03 0. -1.
<mgrwt>
<rscale>  2 0.40682095E+03</rscale>
<asrwt>0</asrwt>
<pdfrwt beam="1">  1       21 0.11220903E+00 0.40683205E+03</pdfrwt>
<pdfrwt beam="2">  1       21 0.53914544E-01 0.40683205E+03</pdfrwt>
<totfact> 0.17700976E+03</totfact>
</mgrwt>
</event>
<event>
 6    1  0.8947013E-004  0.5420086E+03  0.7818608E-02  0.1003368E+00
         21   -1    0    0  501  502  0.00000000000E+00  0.00000000000E+00  0.10462259381E+04  0.10462259381E+04  0.00000000000E+00 0.  1.
         21   -1    0    0  502  503 -0.00000000000E+00 -0.00000000000E+00 -0.45426794818E+03  0.45426794818E+03  0.00000000000E+00 0.  1.
    9000007    2    1    2  501    0 -0.28348579085E+03  0.23080023812E+03  0.75971466655E+03  0.93324152082E+03  0.40017548410E+03 0.  0.
    9000005    1    3    3    0    0  0.10799182467E+02  0.90353787800E+02  0.52158980433E+03  0.52946893515E+03  0.99999687468E+00 0.  0.
          4    1    3    3  501    0 -0.29428497332E+03  0.14044645032E+03  0.23812486222E+03  0.40377258567E+03  0.00000000000E+00 0.  1.
   -9000007    1    1    2    0  503  0.28348579085E+03 -0.23080023812E+03 -0.16775667666E+03  0.56725236544E+03  0.40000000000E+03 0.  1.
<mgrwt>
<rscale>  2 0.54197625E+03</rscale>
<asrwt>0</asrwt>
<pdfrwt beam="1">  1       21 0.16095784E+00 0.54200864E+03</pdfrwt>
<pdfrwt beam="2">  1       21 0.69887377E-01 0.54200864E+03</pdfrwt>
<totfact> 0.36565943E+02</totfact>
</mgrwt>
</event>
<event>
 6    1  0.8947013E-004  0.5236237E+03  0.7818608E-02  0.1007797E+00
         21   -1    0    0  501  502  0.00000000000E+00  0.00000000000E+00  0.45202397758E+03  0.45202397758E+03  0.00000000000E+00 0. -1.
         21   -1    0    0  502  503 -0.00000000000E+00 -0.00000000000E+00 -0.82170801222E+03  0.82170801222E+03  0.00000000000E+00 0.  1.
    9000007    2    1    2  501    0  0.33682754867E+03 -0.26999132754E+02  0.14113822509E+03  0.54221224861E+03  0.39986544392E+03 0.  0.
    9000005    1    3    3    0    0  0.12492457373E+03 -0.57817833702E+02  0.26226334692E+03  0.29619607382E+03  0.99999687468E+00 0.  0.
          4    1    3    3  501    0  0.21190297494E+03  0.30818700949E+02 -0.12112512183E+03  0.24601617478E+03  0.00000000000E+00 0.  1.
   -9000007    1    1    2    0  503 -0.33682754867E+03  0.26999132754E+02 -0.51082225973E+03  0.73151974119E+03  0.40000000000E+03 0.  1.
<mgrwt>
<rscale>  2 0.52359798E+03</rscale>
<asrwt>0</asrwt>
<pdfrwt beam="1">  1       21 0.69542150E-01 0.52362367E+03</pdfrwt>
<pdfrwt beam="2">  1       21 0.12641662E+00 0.52362367E+03</pdfrwt>
<totfact> 0.71319985E+02</totfact>
</mgrwt>
</event>
<event>
 6    1  0.8947013E-004  0.4180725E+03  0.7818608E-02  0.1037708E+00
         21   -1    0    0  501  502  0.00000000000E+00  0.00000000000E+00  0.13926761321E+04  0.13926761321E+04  0.00000000000E+00 0. -1.
         21   -1    0    0  502  503 -0.00000000000E+00 -0.00000000000E+00 -0.22218503703E+03  0.22218503703E+03  0.00000000000E+00 0.  1.
    9000007    2    1    2  501    0 -0.59920364590E+02 -0.10580256764E+03  0.11179381796E+04  0.11934985672E+04  0.39983549487E+03 0.  0.
    9000005    1    3    3    0    0 -0.18777667595E+02 -0.14674187412E+02  0.10892053163E+04  0.10894664537E+04  0.99999687468E+00 0.  0.
          4    1    3    3  501    0 -0.41142696995E+02 -0.91128380228E+02  0.28732863261E+02  0.10403211346E+03  0.00000000000E+00 0.  1.
   -9000007    1    1    2    0  503  0.59920364590E+02  0.10580256764E+03  0.52552915456E+02  0.42136260197E+03  0.40000000000E+03 0.  1.
<mgrwt>
<rscale>  2 0.41803317E+03</rscale>
<asrwt>0</asrwt>
<pdfrwt beam="1">  1       21 0.21425786E+00 0.41807252E+03</pdfrwt>
<pdfrwt beam="2">  1       21 0.34182314E-01 0.41807252E+03</pdfrwt>
<totfact> 0.75575915E+02</totfact>
</mgrwt>
</event>
<event>
 6    1  0.8947013E-004  0.6111558E+03  0.7818608E-02  0.9883385E-01
         21   -1    0    0  501  502  0.00000000000E+00  0.00000000000E+00  0.22427466546E+03  0.22427466546E+03  0.00000000000E+00 0. -1.
         21   -1    0    0  502  503 -0.00000000000E+00 -0.00000000000E+00 -0.16857230934E+04  0.16857230934E+04  0.00000000000E+00 0. -1.
    9000007    2    1    2  501    0  0.93149297099E+02  0.45030320429E+03 -0.61564659566E+03  0.86748612495E+03  0.40256884987E+03 0.  0.
    9000005    1    3    3    0    0 -0.94087483229E+02  0.51869268448E+02  0.38332670577E+01  0.10751078755E+03  0.99999687468E+00 0.  0.
          4    1    3    3  501    0  0.18723678033E+03  0.39843393584E+03 -0.61947986272E+03  0.75997533740E+03  0.00000000000E+00 0.  1.
   -9000007    1    1    2    0  503 -0.93149297099E+02 -0.45030320429E+03 -0.84580183225E+03  0.10425116339E+04  0.40000000000E+03 0. -1.
<mgrwt>
<rscale>  2 0.61073313E+03</rscale>
<asrwt>0</asrwt>
<pdfrwt beam="1">  1       21 0.34503796E-01 0.61115583E+03</pdfrwt>
<pdfrwt beam="2">  1       21 0.25934201E+00 0.61115583E+03</pdfrwt>
<totfact> 0.35399372E+02</totfact>
</mgrwt>
</event>
<event>
 6    1  0.8947013E-004  0.4112891E+03  0.7818608E-02  0.1039990E+00
         21   -1    0    0  501  502  0.00000000000E+00  0.00000000000E+00  0.14053986478E+03  0.14053986478E+03  0.00000000000E+00 0.  1.
         21   -1    0    0  502  503 -0.00000000000E+00 -0.00000000000E+00 -0.12851100378E+04  0.12851100378E+04  0.00000000000E+00 0.  1.
    9000007    2    1    2  501    0  0.95042323266E+02  0.11209679926E+02 -0.75331035109E+03  0.85798543442E+03  0.39937929401E+03 0.  0.
    9000005    1    3    3    0    0 -0.64995600061E+02 -0.22504985319E+02 -0.67168325778E+03  0.67519649078E+03  0.99999687468E+00 0.  0.
          4    1    3    3  501    0  0.16003792333E+03  0.33714665245E+02 -0.81627093315E+02  0.18278894364E+03  0.00000000000E+00 0.  1.
   -9000007    1    1    2    0  503 -0.95042323266E+02 -0.11209679926E+02 -0.39125982189E+03  0.56766446812E+03  0.40000000000E+03 0.  1.
<mgrwt>
<rscale>  2 0.41113808E+03</rscale>
<asrwt>0</asrwt>
<pdfrwt beam="1">  1       21 0.21621517E-01 0.41128907E+03</pdfrwt>
<pdfrwt beam="2">  1       21 0.19770925E+00 0.41128907E+03</pdfrwt>
<totfact> 0.23911386E+03</totfact>
</mgrwt>
</event>
<event>
 6    1  0.8947013E-004  0.6367763E+03  0.7818608E-02  0.9831920E-01
         21   -1    0    0  501  502  0.00000000000E+00  0.00000000000E+00  0.10822519729E+04  0.10822519729E+04  0.00000000000E+00 0.  1.
         21   -1    0    0  502  503 -0.00000000000E+00 -0.00000000000E+00 -0.62111635794E+03  0.62111635794E+03  0.00000000000E+00 0.  1.
    9000007    2    1    2  501    0 -0.40692962377E+02  0.49377454916E+03  0.76705956289E+03  0.99692747373E+03  0.40001848990E+03 0.  0.
    9000005    1    3    3    0    0  0.10458634202E+03  0.11275382865E+03  0.46411535843E+03  0.48893332341E+03  0.99999687468E+00 0.  0.
          4    1    3    3  501    0 -0.14527930440E+03  0.38102072050E+03  0.30294420447E+03  0.50799415032E+03  0.00000000000E+00 0.  1.
   -9000007    1    1    2    0  503  0.40692962377E+02 -0.49377454916E+03 -0.30592394798E+03  0.70644085706E+03  0.40000000000E+03 0.  1.
<mgrwt>
<rscale>  2 0.63677336E+03</rscale>
<asrwt>0</asrwt>
<pdfrwt beam="1">  1       21 0.16650030E+00 0.63677627E+03</pdfrwt>
<pdfrwt beam="2">  1       21 0.95556363E-01 0.63677627E+03</pdfrwt>
<totfact> 0.15425518E+02</totfact>
</mgrwt>
</event>
<event>
 6    1  0.8947013E-004  0.4756527E+03  0.7818608E-02  0.1020349E+00
         21   -1    0    0  501  502  0.00000000000E+00  0.00000000000E+00  0.40733471465E+03  0.40733471465E+03  0.00000000000E+00 0.  1.
         21   -1    0    0  502  503 -0.00000000000E+00 -0.00000000000E+00 -0.61999079265E+03  0.61999079265E+03  0.00000000000E+00 0.  1.
    9000007    2    1    2  501    0  0.10556860107E+02  0.25682800895E+03 -0.27237696549E+03  0.54811922825E+03  0.40021669577E+03 0.  0.
    9000005    1    3    3    0    0  0.50027284355E+02 -0.76127748913E+02 -0.17774903765E+03  0.19973453310E+03  0.99999687468E+00 0.  0.
          4    1    3    3  501    0 -0.39470424248E+02  0.33295575787E+03 -0.94627927846E+02  0.34838469515E+03  0.00000000000E+00 0.  1.
   -9000007    1    1    2    0  503 -0.10556860107E+02 -0.25682800895E+03  0.59720887488E+02  0.47920627905E+03  0.40000000000E+03 0.  1.
<mgrwt>
<rscale>  2 0.47560710E+03</rscale>
<asrwt>0</asrwt>
<pdfrwt beam="1">  1       21 0.62666880E-01 0.47565269E+03</pdfrwt>
<pdfrwt beam="2">  1       21 0.95383198E-01 0.47565269E+03</pdfrwt>
<totfact> 0.18477543E+03</totfact>
</mgrwt>
</event>
<event>
 6    1  0.8947013E-004  0.4262929E+03  0.7818608E-02  0.1035078E+00
         21   -1    0    0  501  502  0.00000000000E+00  0.00000000000E+00  0.30431544985E+03  0.30431544985E+03  0.00000000000E+00 0.  1.
         21   -1    0    0  502  503 -0.00000000000E+00 -0.00000000000E+00 -0.15993740710E+04  0.15993740710E+04  0.00000000000E+00 0.  1.
    9000007    2    1    2  501    0  0.42720130646E+02 -0.13951840348E+03  0.10607327776E+03  0.43929169492E+03  0.40054370361E+03 0.  0.
    9000005    1    3    3    0    0  0.15663364222E+03  0.72501151839E+02  0.97977678488E+02  0.19847201407E+03  0.99999687468E+00 0.  0.
          4    1    3    3  501    0 -0.11391351158E+03 -0.21201955532E+03  0.80955992740E+01  0.24081968085E+03  0.00000000000E+00 0.  1.
   -9000007    1    1    2    0  503 -0.42720130646E+02  0.13951840348E+03 -0.14011318990E+04  0.14643978260E+04  0.40000000000E+03 0.  1.
<mgrwt>
<rscale>  2 0.42616516E+03</rscale>
<asrwt>0</asrwt>
<pdfrwt beam="1">  1       21 0.46817761E-01 0.42629292E+03</pdfrwt>
<pdfrwt beam="2">  1       21 0.24605755E+00 0.42629292E+03</pdfrwt>
<totfact> 0.24863246E+02</totfact>
</mgrwt>
</event>
<event>
 6    1  0.8947013E-004  0.4683857E+03  0.7818608E-02  0.1022491E+00
         21   -1    0    0  501  502  0.00000000000E+00  0.00000000000E+00  0.69104878602E+03  0.69104878602E+03  0.00000000000E+00 0. -1.
         21   -1    0    0  502  503 -0.00000000000E+00 -0.00000000000E+00 -0.37099003061E+03  0.37099003061E+03  0.00000000000E+00 0. -1.
    9000007    2    1    2  501    0 -0.12450605954E+03  0.20585095651E+03  0.36400998236E+03  0.59320186682E+03  0.40188158999E+03 0.  0.
    9000005    1    3    3    0    0 -0.15827499223E+03  0.20547882594E+03  0.34141031636E+02  0.26160873669E+03  0.99999687468E+00 0.  0.
          4    1    3    3  501    0  0.33768932689E+02  0.37213057117E+00  0.32986895073E+03  0.33159313013E+03  0.00000000000E+00 0.  1.
   -9000007    1    1    2    0  503  0.12450605954E+03 -0.20585095651E+03 -0.43951226959E+02  0.46883694981E+03  0.40000000000E+03 0. -1.
<mgrwt>
<rscale>  2 0.46798185E+03</rscale>
<asrwt>0</asrwt>
<pdfrwt beam="1">  1       21 0.10631520E+00 0.46838573E+03</pdfrwt>
<pdfrwt beam="2">  1       21 0.57075390E-01 0.46838573E+03</pdfrwt>
<totfact> 0.17455674E+03</totfact>
</mgrwt>
</event>
<event>
 6    1  0.8947013E-004  0.4636571E+03  0.7818608E-02  0.1023910E+00
         21   -1    0    0  501  502  0.00000000000E+00  0.00000000000E+00  0.40646298783E+03  0.40646298783E+03  0.00000000000E+00 0.  1.
         21   -1    0    0  502  503 -0.00000000000E+00 -0.00000000000E+00 -0.11411177221E+04  0.11411177221E+04  0.00000000000E+00 0. -1.
    9000007    2    1    2  501    0  0.14984142120E+03  0.18034823877E+03  0.20126730232E+03  0.50310572349E+03  0.39702506633E+03 0.  0.
    9000005    1    3    3    0    0  0.11598208958E+03  0.22313270439E+01 -0.98891913873E+02  0.15243829751E+03  0.99999687468E+00 0.  0.
          4    1    3    3  501    0  0.33859331618E+02  0.17811691172E+03  0.30015921619E+03  0.35066742598E+03  0.00000000000E+00 0.  1.
   -9000007    1    1    2    0  503 -0.14984142120E+03 -0.18034823877E+03 -0.93592203661E+03  0.10444749865E+04  0.40000000000E+03 0. -1.
<mgrwt>
<rscale>  2 0.46301479E+03</rscale>
<asrwt>0</asrwt>
<pdfrwt beam="1">  1       21 0.62532767E-01 0.46365713E+03</pdfrwt>
<pdfrwt beam="2">  1       21 0.17555657E+00 0.46365713E+03</pdfrwt>
<totfact> 0.37871330E+02</totfact>
</mgrwt>
</event>
<event>
 6    1  0.8947013E-004  0.6671111E+03  0.7818608E-02  0.9775309E-01
         21   -1    0    0  501  502  0.00000000000E+00  0.00000000000E+00  0.13944104519E+04  0.13944104519E+04  0.00000000000E+00 0.  1.
         21   -1    0    0  502  503 -0.00000000000E+00 -0.00000000000E+00 -0.36140121270E+03  0.36140121270E+03  0.00000000000E+00 0.  1.
    9000007    2    1    2  501    0 -0.51109876060E+03  0.15319639860E+03  0.81717934230E+03  0.10549025235E+04  0.40043248752E+03 0.  0.
    9000005    1    3    3    0    0 -0.39769680785E+03 -0.63997717902E+02  0.38012694480E+03  0.55385553444E+03  0.99999687468E+00 0.  0.
          4    1    3    3  501    0 -0.11340195276E+03  0.21719411650E+03  0.43705239749E+03  0.50104698910E+03  0.00000000000E+00 0.  1.
   -9000007    1    1    2    0  503  0.51109876060E+03 -0.15319639860E+03  0.21582989691E+03  0.70090914107E+03  0.40000000000E+03 0.  1.
<mgrwt>
<rscale>  2 0.66704624E+03</rscale>
<asrwt>0</asrwt>
<pdfrwt beam="1">  1       21 0.21452468E+00 0.66711113E+03</pdfrwt>
<pdfrwt beam="2">  1       21 0.55600187E-01 0.66711113E+03</pdfrwt>
<totfact> 0.24464484E+02</totfact>
</mgrwt>
</event>
<event>
 6    1  0.8947013E-004  0.4845646E+03  0.7818608E-02  0.1017966E+00
         21   -1    0    0  501  502  0.00000000000E+00  0.00000000000E+00  0.12245039910E+04  0.12245039910E+04  0.00000000000E+00 0.  1.
         21   -1    0    0  502  503 -0.00000000000E+00 -0.00000000000E+00 -0.35493113928E+03  0.35493113928E+03  0.00000000000E+00 0.  1.
    9000007    2    1    2  501    0  0.18650997479E+03  0.20004217582E+03  0.97071268265E+03  0.10844279504E+04  0.39862015059E+03 0.  0.
    9000005    1    3    3    0    0  0.16511647477E+03  0.79816734914E+02  0.10742172726E+03  0.21254314596E+03  0.99999687468E+00 0.  0.
          4    1    3    3  501    0  0.21393500026E+02  0.12022544091E+03  0.86329095540E+03  0.87188480440E+03  0.00000000000E+00 0.  1.
   -9000007    1    1    2    0  503 -0.18650997479E+03 -0.20004217582E+03 -0.10113983091E+03  0.49500717995E+03  0.40000000000E+03 0.  1.
<mgrwt>
<rscale>  2 0.48427974E+03</rscale>
<asrwt>0</asrwt>
<pdfrwt beam="1">  1       21 0.18838523E+00 0.48456459E+03</pdfrwt>
<pdfrwt beam="2">  1       21 0.54604791E-01 0.48456459E+03</pdfrwt>
<totfact> 0.40977756E+02</totfact>
</mgrwt>
</event>
<event>
 6    1  0.8947013E-004  0.4896308E+03  0.7818608E-02  0.1016543E+00
         21   -1    0    0  501  502  0.00000000000E+00  0.00000000000E+00  0.88556125649E+03  0.88556125649E+03  0.00000000000E+00 0. -1.
         21   -1    0    0  502  503 -0.00000000000E+00 -0.00000000000E+00 -0.85606781788E+03  0.85606781788E+03  0.00000000000E+00 0. -1.
    9000007    2    1    2  501    0 -0.22791842929E+03  0.16670773884E+03  0.73493179914E+03  0.88291983307E+03  0.39960530732E+03 0.  0.
    9000005    1    3    3    0    0 -0.12934730058E+01  0.16886935006E+03  0.59050088019E+03  0.61417490991E+03  0.99999687468E+00 0.  0.
          4    1    3    3  501    0 -0.22662495628E+03 -0.21616112165E+01  0.14443091894E+03  0.26874492315E+03  0.00000000000E+00 0.  1.
   -9000007    1    1    2    0  503  0.22791842929E+03 -0.16670773884E+03 -0.70543836053E+03  0.85870924130E+03  0.40000000000E+03 0. -1.
<mgrwt>
<rscale>  2 0.48955014E+03</rscale>
<asrwt>0</asrwt>
<pdfrwt beam="1">  1       21 0.13624019E+00 0.48963076E+03</pdfrwt>
<pdfrwt beam="2">  1       21 0.13170274E+00 0.48963076E+03</pdfrwt>
<totfact> 0.12708195E+02</totfact>
</mgrwt>
</event>
<event>
 6    1  0.8947013E-004  0.4010175E+03  0.7818608E-02  0.1043491E+00
         21   -1    0    0  501  502  0.00000000000E+00  0.00000000000E+00  0.25190664120E+03  0.25190664120E+03  0.00000000000E+00 0. -1.
         21   -1    0    0  502  503 -0.00000000000E+00 -0.00000000000E+00 -0.67622789344E+03  0.67622789344E+03  0.00000000000E+00 0. -1.
    9000007    2    1    2  501    0  0.10139787272E+02 -0.11442483256E+02 -0.32377499683E+03  0.51540787548E+03  0.40072594603E+03 0.  0.
    9000005    1    3    3    0    0  0.86137145004E+02 -0.18909163428E+03 -0.16921445893E+03  0.26797348191E+03  0.99999687468E+00 0.  0.
          4    1    3    3  501    0 -0.75997357731E+02  0.17764915103E+03 -0.15456053790E+03  0.24743439356E+03  0.00000000000E+00 0.  1.
   -9000007    1    1    2    0  503 -0.10139787272E+02  0.11442483256E+02 -0.10054625541E+03  0.41272665916E+03  0.40000000000E+03 0. -1.
<mgrwt>
<rscale>  2 0.40083602E+03</rscale>
<asrwt>0</asrwt>
<pdfrwt beam="1">  1       21 0.38754868E-01 0.40101749E+03</pdfrwt>
<pdfrwt beam="2">  1       21 0.10403506E+00 0.40101749E+03</pdfrwt>
<totfact> 0.42705038E+03</totfact>
</mgrwt>
</event>
<event>
 6    1  0.8947013E-004  0.4534546E+03  0.7818608E-02  0.1026709E+00
         21   -1    0    0  501  502  0.00000000000E+00  0.00000000000E+00  0.13004087785E+03  0.13004087785E+03  0.00000000000E+00 0.  1.
         21   -1    0    0  502  503 -0.00000000000E+00 -0.00000000000E+00 -0.15823781567E+04  0.15823781567E+04  0.00000000000E+00 0.  1.
    9000007    2    1    2  501    0  0.84467253036E+02 -0.19579336416E+03 -0.75482880136E+03  0.88056097306E+03  0.40018914231E+03 0.  0.
    9000005    1    3    3    0    0  0.90637435889E+02  0.28231213576E+02 -0.18678813894E+01  0.94955964421E+02  0.99999687468E+00 0.  0.
          4    1    3    3  501    0 -0.61701828528E+01 -0.22402457774E+03 -0.75296091997E+03  0.78560500863E+03  0.00000000000E+00 0.  1.
   -9000007    1    1    2    0  503 -0.84467253036E+02  0.19579336416E+03 -0.69750847746E+03  0.83185806146E+03  0.40000000000E+03 0.  1.
<mgrwt>
<rscale>  2 0.45341290E+03</rscale>
<asrwt>0</asrwt>
<pdfrwt beam="1">  1       21 0.20006288E-01 0.45345464E+03</pdfrwt>
<pdfrwt beam="2">  1       21 0.24344281E+00 0.45345464E+03</pdfrwt>
<totfact> 0.13866601E+03</totfact>
</mgrwt>
</event>
<event>
 6    1  0.8947013E-004  0.4339401E+03  0.7818608E-02  0.1032653E+00
         21   -1    0    0  501  502  0.00000000000E+00  0.00000000000E+00  0.11091321245E+04  0.11091321245E+04  0.00000000000E+00 0.  1.
         21   -1    0    0  502  503 -0.00000000000E+00 -0.00000000000E+00 -0.25469144012E+03  0.25469144012E+03  0.00000000000E+00 0.  1.
    9000007    2    1    2  501    0 -0.53904476890E+00  0.16724305285E+03  0.82143922425E+03  0.92901369158E+03  0.40041667137E+03 0.  0.
    9000005    1    3    3    0    0  0.16812542079E+03  0.23966206280E+02  0.16705250983E+03  0.23821854922E+03  0.99999687468E+00 0.  0.
          4    1    3    3  501    0 -0.16866446556E+03  0.14327684657E+03  0.65438671442E+03  0.69079514236E+03  0.00000000000E+00 0.  1.
   -9000007    1    1    2    0  503  0.53904476890E+00 -0.16724305285E+03  0.33001460102E+02  0.43480987301E+03  0.40000000000E+03 0.  1.
<mgrwt>
<rscale>  2 0.43384399E+03</rscale>
<asrwt>0</asrwt>
<pdfrwt beam="1">  1       21 0.17063571E+00 0.43394013E+03</pdfrwt>
<pdfrwt beam="2">  1       21 0.39183299E-01 0.43394013E+03</pdfrwt>
<totfact> 0.11256265E+03</totfact>
</mgrwt>
</event>
<event>
 6    1  0.8947013E-004  0.7761201E+03  0.7818608E-02  0.9595379E-01
         21   -1    0    0  501  502  0.00000000000E+00  0.00000000000E+00  0.10951751156E+04  0.10951751156E+04  0.00000000000E+00 0. -1.
         21   -1    0    0  502  503 -0.00000000000E+00 -0.00000000000E+00 -0.73146478397E+03  0.73146478397E+03  0.00000000000E+00 0.  1.
    9000007    2    1    2  501    0 -0.22661204804E+03 -0.62530749060E+03  0.63703897878E+03  0.10037966415E+04  0.39928255507E+03 0.  0.
    9000005    1    3    3    0    0 -0.32776188270E+03 -0.40719496695E+03  0.51647595994E+03  0.73483604297E+03  0.99999687468E+00 0.  0.
          4    1    3    3  501    0  0.10114983465E+03 -0.21811252365E+03  0.12056301884E+03  0.26896059848E+03  0.00000000000E+00 0.  1.
   -9000007    1    1    2    0  503  0.22661204804E+03  0.62530749060E+03 -0.27332864712E+03  0.82284325814E+03  0.40000000000E+03 0.  1.
<mgrwt>
<rscale>  2 0.77602775E+03</rscale>
<asrwt>0</asrwt>
<pdfrwt beam="1">  1       21 0.16848848E+00 0.77612014E+03</pdfrwt>
<pdfrwt beam="2">  1       21 0.11253304E+00 0.77612014E+03</pdfrwt>
<totfact> 0.94860856E+01</totfact>
</mgrwt>
</event>
<event>
 6    1  0.8947013E-004  0.5013504E+03  0.7818608E-02  0.1013698E+00
         21   -1    0    0  501  502  0.00000000000E+00  0.00000000000E+00  0.46979836986E+03  0.46979836986E+03  0.00000000000E+00 0.  1.
         21   -1    0    0  502  503 -0.00000000000E+00 -0.00000000000E+00 -0.53194745658E+03  0.53194745658E+03  0.00000000000E+00 0.  1.
    9000007    2    1    2  501    0 -0.86096812904E+02 -0.28249076963E+03 -0.60670262640E+01  0.50138706153E+03  0.40514007521E+03 0.  0.
    9000005    1    3    3    0    0 -0.78599579914E+02  0.88258079048E+02 -0.49285340559E+02  0.12805243952E+03  0.99999687468E+00 0.  0.
          4    1    3    3  501    0 -0.74972329904E+01 -0.37074884868E+03  0.43218314295E+02  0.37333462201E+03  0.00000000000E+00 0.  1.
   -9000007    1    1    2    0  503  0.86096812904E+02  0.28249076963E+03 -0.56082060462E+02  0.50035876491E+03  0.40000000000E+03 0.  1.
<mgrwt>
<rscale>  2 0.50031101E+03</rscale>
<asrwt>0</asrwt>
<pdfrwt beam="1">  1       21 0.72276672E-01 0.50135035E+03</pdfrwt>
<pdfrwt beam="2">  1       21 0.81838071E-01 0.50135035E+03</pdfrwt>
<totfact> 0.19107570E+03</totfact>
</mgrwt>
</event>
<event>
 6    1  0.8947013E-004  0.4101787E+03  0.7818608E-02  0.1040445E+00
         21   -1    0    0  501  502  0.00000000000E+00  0.00000000000E+00  0.14800464775E+04  0.14800464775E+04  0.00000000000E+00 0.  1.
         21   -1    0    0  502  503 -0.00000000000E+00 -0.00000000000E+00 -0.12190748199E+03  0.12190748199E+03  0.00000000000E+00 0.  1.
    9000007    2    1    2  501    0  0.79174078806E+02  0.25917077792E+02  0.89393769637E+03  0.98355030832E+03  0.40162964821E+03 0.  0.
    9000005    1    3    3    0    0  0.13218180552E+03  0.10554243498E+03  0.12918972923E+03  0.21284318506E+03  0.99999687468E+00 0.  0.
          4    1    3    3  501    0 -0.53007726714E+02 -0.79625357189E+02  0.76474796714E+03  0.77070712326E+03  0.00000000000E+00 0.  1.
   -9000007    1    1    2    0  503 -0.79174078806E+02 -0.25917077792E+02  0.46420129915E+03  0.61840365120E+03  0.40000000000E+03 0. -1.
<mgrwt>
<rscale>  2 0.40977928E+03</rscale>
<asrwt>0</asrwt>
<pdfrwt beam="1">  1       21 0.22769945E+00 0.41017875E+03</pdfrwt>
<pdfrwt beam="2">  1       21 0.18754998E-01 0.41017875E+03</pdfrwt>
<totfact> 0.20059789E+03</totfact>
</mgrwt>
</event>
<event>
 6    1  0.8947013E-004  0.4127472E+03  0.7818608E-02  0.1039457E+00
         21   -1    0    0  501  502  0.00000000000E+00  0.00000000000E+00  0.59415113325E+03  0.59415113325E+03  0.00000000000E+00 0.  1.
         21   -1    0    0  502  503 -0.00000000000E+00 -0.00000000000E+00 -0.28980344340E+03  0.28980344340E+03  0.00000000000E+00 0.  1.
    9000007    2    1    2  501    0  0.81446047662E+01 -0.10145889445E+03  0.19794150458E+03  0.45771225342E+03  0.39994927909E+03 0.  0.
    9000005    1    3    3    0    0  0.14066097810E+03  0.36436564631E+02 -0.41642964151E+02  0.15115644366E+03  0.99999687468E+00 0.  0.
          4    1    3    3  501    0 -0.13251637334E+03 -0.13789545908E+03  0.23958446873E+03  0.30655580975E+03  0.00000000000E+00 0.  1.
   -9000007    1    1    2    0  503 -0.81446047662E+01  0.10145889445E+03  0.10640618528E+03  0.42624232323E+03  0.40000000000E+03 0.  1.
<mgrwt>
<rscale>  2 0.41273490E+03</rscale>
<asrwt>0</asrwt>
<pdfrwt beam="1">  1       21 0.91407867E-01 0.41274719E+03</pdfrwt>
<pdfrwt beam="2">  1       21 0.44585145E-01 0.41274719E+03</pdfrwt>
<totfact> 0.43457772E+03</totfact>
</mgrwt>
</event>
<event>
 6    1  0.8947013E-004  0.4049752E+03  0.7818608E-02  0.1042286E+00
         21   -1    0    0  501  502  0.00000000000E+00  0.00000000000E+00  0.32086804017E+04  0.32086804017E+04  0.00000000000E+00 0. -1.
         21   -1    0    0  502  503 -0.00000000000E+00 -0.00000000000E+00 -0.54068396860E+02  0.54068396860E+02  0.00000000000E+00 0. -1.
    9000007    2    1    2  501    0 -0.28872459632E+02  0.33745517591E+02  0.11805651792E+04  0.12480941759E+04  0.40253267027E+03 0.  0.
    9000005    1    3    3    0    0 -0.13423840995E+03  0.17382679555E+03  0.79072308785E+03  0.82065809398E+03  0.99999687468E+00 0.  0.
          4    1    3    3  501    0  0.10536595032E+03 -0.14008127796E+03  0.38984209133E+03  0.42743608188E+03  0.00000000000E+00 0.  1.
   -9000007    1    1    2    0  503  0.28872459632E+02 -0.33745517591E+02  0.19740468256E+04  0.20146546227E+04  0.40000000000E+03 0. -1.
<mgrwt>
<rscale>  2 0.40434442E+03</rscale>
<asrwt>0</asrwt>
<pdfrwt beam="1">  1       21 0.49364299E+00 0.40497522E+03</pdfrwt>
<pdfrwt beam="2">  1       21 0.83182174E-02 0.40497522E+03</pdfrwt>
<totfact> 0.18408994E+02</totfact>
</mgrwt>
</event>
<event>
 6    1  0.8947013E-004  0.4104832E+03  0.7818608E-02  0.1040287E+00
         21   -1    0    0  501  502  0.00000000000E+00  0.00000000000E+00  0.10201757332E+04  0.10201757332E+04  0.00000000000E+00 0. -1.
         21   -1    0    0  502  503 -0.00000000000E+00 -0.00000000000E+00 -0.17845661317E+03  0.17845661317E+03  0.00000000000E+00 0. -1.
    9000007    2    1    2  501    0  0.53377354426E+02  0.75148732212E+02  0.58627865204E+03  0.71515917586E+03  0.39904074361E+03 0.  0.
    9000005    1    3    3    0    0  0.16947179767E+03 -0.43974370369E+02  0.49579772893E+03  0.52580492909E+03  0.99999687468E+00 0.  0.
          4    1    3    3  501    0 -0.11609444325E+03  0.11912310258E+03  0.90480923117E+02  0.18935424677E+03  0.00000000000E+00 0.  1.
   -9000007    1    1    2    0  503 -0.53377354426E+02 -0.75148732212E+02  0.25544046801E+03  0.48347317052E+03  0.40000000000E+03 0. -1.
<mgrwt>
<rscale>  2 0.41024934E+03</rscale>
<asrwt>0</asrwt>
<pdfrwt beam="1">  1       21 0.15695011E+00 0.41048322E+03</pdfrwt>
<pdfrwt beam="2">  1       21 0.27454864E-01 0.41048322E+03</pdfrwt>
<totfact> 0.29337660E+03</totfact>
</mgrwt>
</event>
<event>
 6    1  0.8947013E-004  0.5077503E+03  0.7818608E-02  0.1011781E+00
         21   -1    0    0  501  502  0.00000000000E+00  0.00000000000E+00  0.20928804609E+04  0.20928804609E+04  0.00000000000E+00 0. -1.
         21   -1    0    0  502  503 -0.00000000000E+00 -0.00000000000E+00 -0.14206238305E+03  0.14206238305E+03  0.00000000000E+00 0.  1.
    9000007    2    1    2  501    0  0.11478527203E+03 -0.29092037084E+03  0.56775886032E+03  0.76162579728E+03  0.39989174881E+03 0.  0.
    9000005    1    3    3    0    0  0.53975818960E+02  0.99054823048E+02  0.13442099268E+03  0.17548575517E+03  0.99999687468E+00 0.  0.
          4    1    3    3  501    0  0.60809453071E+02 -0.38997519389E+03  0.43333786764E+03  0.58614004211E+03  0.00000000000E+00 0.  1.
   -9000007    1    1    2    0  503 -0.11478527203E+03  0.29092037084E+03  0.13830592176E+04  0.14733170467E+04  0.40000000000E+03 0.  1.
<mgrwt>
<rscale>  2 0.50772893E+03</rscale>
<asrwt>0</asrwt>
<pdfrwt beam="1">  1       21 0.32198159E+00 0.50775025E+03</pdfrwt>
<pdfrwt beam="2">  1       21 0.21855753E-01 0.50775025E+03</pdfrwt>
<totfact> 0.38001015E+02</totfact>
</mgrwt>
</event>
<event>
 6    1  0.8947013E-004  0.5468298E+03  0.7818608E-02  0.1002238E+00
         21   -1    0    0  501  502  0.00000000000E+00  0.00000000000E+00  0.71546466288E+03  0.71546466288E+03  0.00000000000E+00 0.  1.
         21   -1    0    0  502  503 -0.00000000000E+00 -0.00000000000E+00 -0.59090511867E+03  0.59090511867E+03  0.00000000000E+00 0. -1.
    9000007    2    1    2  501    0  0.37277695214E+03  0.77554946937E+01  0.41576396333E+03  0.68683542619E+03  0.39982549409E+03 0.  0.
    9000005    1    3    3    0    0  0.24374308325E+03 -0.14807413075E+03  0.82367427905E+02  0.29685355313E+03  0.99999687468E+00 0.  0.
          4    1    3    3  501    0  0.12903386889E+03  0.15582962544E+03  0.33339653543E+03  0.38998187307E+03  0.00000000000E+00 0.  1.
   -9000007    1    1    2    0  503 -0.37277695214E+03 -0.77554946937E+01 -0.29120441912E+03  0.61953435535E+03  0.40000000000E+03 0. -1.
<mgrwt>
<rscale>  2 0.54679786E+03</rscale>
<asrwt>0</asrwt>
<pdfrwt beam="1">  1       21 0.11007149E+00 0.54682978E+03</pdfrwt>
<pdfrwt beam="2">  1       21 0.90908479E-01 0.54682978E+03</pdfrwt>
<totfact> 0.54007006E+02</totfact>
</mgrwt>
</event>
<event>
 6    1  0.8947013E-004  0.5827696E+03  0.7818608E-02  0.9942848E-01
         21   -1    0    0  501  502  0.00000000000E+00  0.00000000000E+00  0.19535627575E+04  0.19535627575E+04  0.00000000000E+00 0. -1.
         21   -1    0    0  502  503 -0.00000000000E+00 -0.00000000000E+00 -0.17331721205E+03  0.17331721205E+03  0.00000000000E+00 0.  1.
    9000007    2    1    2  501    0  0.31988874085E+03 -0.27801358928E+03  0.87194535634E+03  0.10476999123E+04  0.39719773354E+03 0.  0.
    9000005    1    3    3    0    0 -0.67265599904E+02  0.30423441620E+02  0.53385962883E+02  0.91111512759E+02  0.99999687468E+00 0.  0.
          4    1    3    3  501    0  0.38715434075E+03 -0.30843703090E+03  0.81855939346E+03  0.95658839958E+03  0.00000000000E+00 0.  1.
   -9000007    1    1    2    0  503 -0.31988874085E+03  0.27801358928E+03  0.90830018911E+03  0.10791800572E+04  0.40000000000E+03 0. -1.
<mgrwt>
<rscale>  2 0.58228901E+03</rscale>
<asrwt>0</asrwt>
<pdfrwt beam="1">  1       21 0.30054810E+00 0.58276956E+03</pdfrwt>
<pdfrwt beam="2">  1       21 0.26664188E-01 0.58276956E+03</pdfrwt>
<totfact> 0.33591546E+02</totfact>
</mgrwt>
</event>
<event>
 6    1  0.8947013E-004  0.4984123E+03  0.7818608E-02  0.1014243E+00
         21   -1    0    0  501  502  0.00000000000E+00  0.00000000000E+00  0.80537752477E+03  0.80537752477E+03  0.00000000000E+00 0. -1.
         21   -1    0    0  502  503 -0.00000000000E+00 -0.00000000000E+00 -0.38029743418E+03  0.38029743418E+03  0.00000000000E+00 0.  1.
    9000007    2    1    2  501    0  0.28458587418E+03  0.86172709743E+02  0.47092636812E+03  0.68515848884E+03  0.39906848404E+03 0.  0.
    9000005    1    3    3    0    0  0.16302709499E+03  0.46027400330E+02  0.52088482364E+03  0.54773931279E+03  0.99999687468E+00 0.  0.
          4    1    3    3  501    0  0.12155877919E+03  0.40145309413E+02 -0.49958455529E+02  0.13741917605E+03  0.00000000000E+00 0.  1.
   -9000007    1    1    2    0  503 -0.28458587418E+03 -0.86172709743E+02 -0.45846277516E+02  0.50051647011E+03  0.40000000000E+03 0.  1.
<mgrwt>
<rscale>  2 0.49822541E+03</rscale>
<asrwt>0</asrwt>
<pdfrwt beam="1">  1       21 0.12390423E+00 0.49841234E+03</pdfrwt>
<pdfrwt beam="2">  1       21 0.58507298E-01 0.49841234E+03</pdfrwt>
<totfact> 0.11128654E+03</totfact>
</mgrwt>
</event>
<event>
 6    1  0.8947013E-004  0.5036490E+03  0.7818608E-02  0.1012854E+00
         21   -1    0    0  501  502  0.00000000000E+00  0.00000000000E+00  0.83296027861E+03  0.83296027861E+03  0.00000000000E+00 0. -1.
         21   -1    0    0  502  503 -0.00000000000E+00 -0.00000000000E+00 -0.40258448226E+03  0.40258448226E+03  0.00000000000E+00 0.  1.
    9000007    2    1    2  501    0  0.18174675193E+03 -0.24550445467E+03  0.52046091596E+03  0.72425262532E+03  0.40044722641E+03 0.  0.
    9000005    1    3    3    0    0  0.45372187532E+02 -0.36748530509E+02  0.46519806886E+03  0.46884894493E+03  0.99999687468E+00 0.  0.
          4    1    3    3  501    0  0.13637456439E+03 -0.20875592416E+03  0.55262847096E+02  0.25540368039E+03  0.00000000000E+00 0.  1.
   -9000007    1    1    2    0  503 -0.18174675193E+03  0.24550445467E+03 -0.90085119616E+02  0.51129213555E+03  0.40000000000E+03 0.  1.
<mgrwt>
<rscale>  2 0.50356008E+03</rscale>
<asrwt>0</asrwt>
<pdfrwt beam="1">  1       21 0.12814773E+00 0.50364899E+03</pdfrwt>
<pdfrwt beam="2">  1       21 0.61936074E-01 0.50364899E+03</pdfrwt>
<totfact> 0.89831358E+02</totfact>
</mgrwt>
</event>
<event>
 6    1  0.8947013E-004  0.4197262E+03  0.7818608E-02  0.1037157E+00
         21   -1    0    0  501  502  0.00000000000E+00  0.00000000000E+00  0.48864135443E+03  0.48864135443E+03  0.00000000000E+00 0.  1.
         21   -1    0    0  502  503 -0.00000000000E+00 -0.00000000000E+00 -0.40459432803E+03  0.40459432803E+03  0.00000000000E+00 0.  1.
    9000007    2    1    2  501    0 -0.12144935086E+03 -0.37684732427E+02  0.18943714108E+03  0.46048037036E+03  0.39998207108E+03 0.  0.
    9000005    1    3    3    0    0  0.12254588467E+03  0.11483011698E+02  0.17127896819E+03  0.21091903267E+03  0.99999687468E+00 0.  0.
          4    1    3    3  501    0 -0.24399523553E+03 -0.49167744125E+02  0.18158172894E+02  0.24956133768E+03  0.00000000000E+00 0.  1.
   -9000007    1    1    2    0  503  0.12144935086E+03  0.37684732427E+02 -0.10539011469E+03  0.43275531211E+03  0.40000000000E+03 0. -1.
<mgrwt>
<rscale>  2 0.41972193E+03</rscale>
<asrwt>0</asrwt>
<pdfrwt beam="1">  1       21 0.75175593E-01 0.41972620E+03</pdfrwt>
<pdfrwt beam="2">  1       21 0.62245282E-01 0.41972620E+03</pdfrwt>
<totfact> 0.33403408E+03</totfact>
</mgrwt>
</event>
<event>
 6    1  0.8947013E-004  0.5454965E+03  0.7818608E-02  0.1002556E+00
         21   -1    0    0  501  502  0.00000000000E+00  0.00000000000E+00  0.17917294114E+03  0.17917294114E+03  0.00000000000E+00 0.  1.
         21   -1    0    0  502  503 -0.00000000000E+00 -0.00000000000E+00 -0.16699100503E+04  0.16699100503E+04  0.00000000000E+00 0. -1.
    9000007    2    1    2  501    0  0.32264583411E+03 -0.18222061053E+03 -0.67447919138E+03  0.86746103086E+03  0.40032708537E+03 0.  0.
    9000005    1    3    3    0    0  0.16424882433E+02 -0.22720377940E+03 -0.21345065546E+03  0.31217545779E+03  0.99999687468E+00 0.  0.
          4    1    3    3  501    0  0.30622095168E+03  0.44983168866E+02 -0.46102853592E+03  0.55528557307E+03  0.00000000000E+00 0.  1.
   -9000007    1    1    2    0  503 -0.32264583411E+03  0.18222061053E+03 -0.81625791781E+03  0.98162196062E+03  0.40000000000E+03 0. -1.
<mgrwt>
<rscale>  2 0.54543652E+03</rscale>
<asrwt>0</asrwt>
<pdfrwt beam="1">  1       21 0.27565069E-01 0.54549653E+03</pdfrwt>
<pdfrwt beam="2">  1       21 0.25690923E+00 0.54549653E+03</pdfrwt>
<totfact> 0.59040285E+02</totfact>
</mgrwt>
</event>
<event>
 6    1  0.8947013E-004  0.4121082E+03  0.7818608E-02  0.1039771E+00
         21   -1    0    0  501  502  0.00000000000E+00  0.00000000000E+00  0.34272010187E+03  0.34272010187E+03  0.00000000000E+00 0. -1.
         21   -1    0    0  502  503 -0.00000000000E+00 -0.00000000000E+00 -0.57895297952E+03  0.57895297952E+03  0.00000000000E+00 0. -1.
    9000007    2    1    2  501    0 -0.43008588070E+02 -0.89350028476E+02  0.58535983359E+02  0.41499581955E+03  0.39870026669E+03 0.  0.
    9000005    1    3    3    0    0 -0.13728110792E+02 -0.24153677021E+03 -0.17126971365E+02  0.24253413271E+03  0.99999687468E+00 0.  0.
          4    1    3    3  501    0 -0.29280477278E+02  0.15218674174E+03  0.75662954723E+02  0.17246168684E+03  0.00000000000E+00 0.  1.
   -9000007    1    1    2    0  503  0.43008588070E+02  0.89350028476E+02 -0.29476886102E+03  0.50667726184E+03  0.40000000000E+03 0. -1.
<mgrwt>
<rscale>  2 0.41179248E+03</rscale>
<asrwt>0</asrwt>
<pdfrwt beam="1">  1       21 0.52726170E-01 0.41210820E+03</pdfrwt>
<pdfrwt beam="2">  1       21 0.89069689E-01 0.41210820E+03</pdfrwt>
<totfact> 0.32420800E+03</totfact>
</mgrwt>
</event>
<event>
 6    1  0.8947013E-004  0.4254713E+03  0.7818608E-02  0.1035302E+00
         21   -1    0    0  501  502  0.00000000000E+00  0.00000000000E+00  0.53004530370E+03  0.53004530370E+03  0.00000000000E+00 0. -1.
         21   -1    0    0  502  503 -0.00000000000E+00 -0.00000000000E+00 -0.52409126098E+03  0.52409126098E+03  0.00000000000E+00 0. -1.
    9000007    2    1    2  501    0 -0.29973209784E+02  0.14181501657E+03  0.31406764509E+03  0.52883295323E+03  0.40001989264E+03 0.  0.
    9000005    1    3    3    0    0  0.69629573441E+02  0.10238036793E+03  0.38228130147E+03  0.40183331206E+03  0.99999687468E+00 0.  0.
          4    1    3    3  501    0 -0.99602783226E+02  0.39434648645E+02 -0.68213656385E+02  0.12699964117E+03  0.00000000000E+00 0.  1.
   -9000007    1    1    2    0  503  0.29973209784E+02 -0.14181501657E+03 -0.30811360237E+03  0.52530361144E+03  0.40000000000E+03 0. -1.
<mgrwt>
<rscale>  2 0.42546660E+03</rscale>
<asrwt>0</asrwt>
<pdfrwt beam="1">  1       21 0.81545432E-01 0.42547128E+03</pdfrwt>
<pdfrwt beam="2">  1       21 0.80629424E-01 0.42547128E+03</pdfrwt>
<totfact> 0.15427655E+03</totfact>
</mgrwt>
</event>
<event>
 6    1  0.8947013E-004  0.4744334E+03  0.7818608E-02  0.1021062E+00
         21   -1    0    0  501  502  0.00000000000E+00  0.00000000000E+00  0.15019164111E+04  0.15019164111E+04  0.00000000000E+00 0.  1.
         21   -1    0    0  502  503 -0.00000000000E+00 -0.00000000000E+00 -0.31717713068E+03  0.31717713068E+03  0.00000000000E+00 0.  1.
    9000007    2    1    2  501    0 -0.19338208002E+03  0.16640429117E+03  0.12547591653E+04  0.13395210225E+04  0.39345773551E+03 0.  0.
    9000005    1    3    3    0    0 -0.15482967915E+03  0.14159985440E+03  0.22096816154E+03  0.30471409012E+03  0.99999687468E+00 0.  0.
          4    1    3    3  501    0 -0.38552400871E+02  0.24804436775E+02  0.10337910038E+04  0.10348069323E+04  0.00000000000E+00 0.  1.
   -9000007    1    1    2    0  503  0.19338208002E+03 -0.16640429117E+03 -0.70019884922E+02  0.47957251931E+03  0.40000000000E+03 0.  1.
<mgrwt>
<rscale>  2 0.47305168E+03</rscale>
<asrwt>0</asrwt>
<pdfrwt beam="1">  1       21 0.23106406E+00 0.47443336E+03</pdfrwt>
<pdfrwt beam="2">  1       21 0.48796483E-01 0.47443336E+03</pdfrwt>
<totfact> 0.27497355E+02</totfact>
</mgrwt>
</event>
<event>
 6    1  0.8947013E-004  0.4093682E+03  0.7818608E-02  0.1040602E+00
         21   -1    0    0  501  502  0.00000000000E+00  0.00000000000E+00  0.59322604024E+03  0.59322604024E+03  0.00000000000E+00 0.  1.
         21   -1    0    0  502  503 -0.00000000000E+00 -0.00000000000E+00 -0.53564143536E+03  0.53564143536E+03  0.00000000000E+00 0.  1.
    9000007    2    1    2  501    0 -0.86521273803E+02 -0.98169669159E+01  0.41693577065E+03  0.58415143581E+03  0.39976888256E+03 0.  0.
    9000005    1    3    3    0    0 -0.14275341401E+03  0.15735091524E+03  0.13541355189E+03  0.25194379883E+03  0.99999687468E+00 0.  0.
          4    1    3    3  501    0  0.56232140210E+02 -0.16716788216E+03  0.28152221876E+03  0.33220763699E+03  0.00000000000E+00 0.  1.
   -9000007    1    1    2    0  503  0.86521273803E+02  0.98169669159E+01 -0.35935116577E+03  0.54471603978E+03  0.40000000000E+03 0.  1.
<mgrwt>
<rscale>  2 0.40931171E+03</rscale>
<asrwt>0</asrwt>
<pdfrwt beam="1">  1       21 0.91265544E-01 0.40936818E+03</pdfrwt>
<pdfrwt beam="2">  1       21 0.82406375E-01 0.40936818E+03</pdfrwt>
<totfact> 0.11344411E+03</totfact>
</mgrwt>
</event>
<event>
 6    1  0.8947013E-004  0.4602642E+03  0.7818608E-02  0.1024756E+00
         21   -1    0    0  501  502  0.00000000000E+00  0.00000000000E+00  0.46376598936E+03  0.46376598936E+03  0.00000000000E+00 0. -1.
         21   -1    0    0  502  503 -0.00000000000E+00 -0.00000000000E+00 -0.46947510638E+03  0.46947510638E+03  0.00000000000E+00 0.  1.
    9000007    2    1    2  501    0 -0.18862959608E+03 -0.12495674597E+03  0.75932411561E+02  0.46648564363E+03  0.40080894664E+03 0.  0.
    9000005    1    3    3    0    0 -0.15370674655E+03  0.55816592453E+02  0.18938806078E+03  0.25022009010E+03  0.99999687468E+00 0.  0.
          4    1    3    3  501    0 -0.34922849525E+02 -0.18077333842E+03 -0.11345564922E+03  0.21626555353E+03  0.00000000000E+00 0.  1.
   -9000007    1    1    2    0  503  0.18862959608E+03  0.12495674597E+03 -0.81641528579E+02  0.46675545210E+03  0.40000000000E+03 0.  1.
<mgrwt>
<rscale>  2 0.46008802E+03</rscale>
<asrwt>0</asrwt>
<pdfrwt beam="1">  1       21 0.71348613E-01 0.46026419E+03</pdfrwt>
<pdfrwt beam="2">  1       21 0.72226940E-01 0.46026419E+03</pdfrwt>
<totfact> 0.26585744E+03</totfact>
</mgrwt>
</event>
<event>
 6    1  0.8947013E-004  0.6739669E+03  0.7818608E-02  0.9762918E-01
         21   -1    0    0  501  502  0.00000000000E+00  0.00000000000E+00  0.13228588039E+04  0.13228588039E+04  0.00000000000E+00 0. -1.
         21   -1    0    0  502  503 -0.00000000000E+00 -0.00000000000E+00 -0.54731224688E+03  0.54731224688E+03  0.00000000000E+00 0. -1.
    9000007    2    1    2  501    0 -0.22729358916E+03 -0.49251299163E+03  0.95869531762E+03  0.11717622228E+04  0.39962303752E+03 0.  0.
    9000005    1    3    3    0    0 -0.20783399427E+03 -0.55215160005E+03  0.93318894661E+03  0.11040421046E+04  0.99999687468E+00 0.  0.
          4    1    3    3  501    0 -0.19459594897E+02  0.59638608422E+02  0.25506371015E+02  0.67720118211E+02  0.00000000000E+00 0.  1.
   -9000007    1    1    2    0  503  0.22729358916E+03  0.49251299163E+03 -0.18314876056E+03  0.69840882805E+03  0.40000000000E+03 0. -1.
<mgrwt>
<rscale>  2 0.67391101E+03</rscale>
<asrwt>0</asrwt>
<pdfrwt beam="1">  1       21 0.20351674E+00 0.67396693E+03</pdfrwt>
<pdfrwt beam="2">  1       21 0.84201885E-01 0.67396693E+03</pdfrwt>
<totfact> 0.11280690E+02</totfact>
</mgrwt>
</event>
<event>
 6    1  0.8947013E-004  0.4538554E+03  0.7818608E-02  0.1026691E+00
         21   -1    0    0  501  502  0.00000000000E+00  0.00000000000E+00  0.51822893873E+03  0.51822893873E+03  0.00000000000E+00 0. -1.
         21   -1    0    0  502  503 -0.00000000000E+00 -0.00000000000E+00 -0.42902652392E+03  0.42902652392E+03  0.00000000000E+00 0. -1.
    9000007    2    1    2  501    0  0.14969147919E+03 -0.14897029234E+03  0.17579948233E+03  0.48671367406E+03  0.40172758878E+03 0.  0.
    9000005    1    3    3    0    0  0.21690608221E+03 -0.61106032346E+02 -0.53948987503E+02  0.23171898699E+03  0.99999687468E+00 0.  0.
          4    1    3    3  501    0 -0.67214603019E+02 -0.87864259998E+02  0.22974846983E+03  0.25499468707E+03  0.00000000000E+00 0.  1.
   -9000007    1    1    2    0  503 -0.14969147919E+03  0.14897029234E+03 -0.86597067518E+02  0.46054178860E+03  0.40000000000E+03 0. -1.
<mgrwt>
<rscale>  2 0.45347282E+03</rscale>
<asrwt>0</asrwt>
<pdfrwt beam="1">  1       21 0.79727529E-01 0.45385542E+03</pdfrwt>
<pdfrwt beam="2">  1       21 0.66004080E-01 0.45385542E+03</pdfrwt>
<totfact> 0.25316123E+03</totfact>
</mgrwt>
</event>
<event>
 6    1  0.8947013E-004  0.4476785E+03  0.7818608E-02  0.1028437E+00
         21   -1    0    0  501  502  0.00000000000E+00  0.00000000000E+00  0.88184894482E+03  0.88184894482E+03  0.00000000000E+00 0.  1.
         21   -1    0    0  502  503 -0.00000000000E+00 -0.00000000000E+00 -0.22940763938E+03  0.22940763938E+03  0.00000000000E+00 0. -1.
    9000007    2    1    2  501    0  0.19826932014E+03  0.33246298827E+02  0.38148432556E+03  0.58796534154E+03  0.39969602514E+03 0.  0.
    9000005    1    3    3    0    0  0.12300999518E+03 -0.16600926986E+03  0.86203200733E+02  0.22388061194E+03  0.99999687468E+00 0.  0.
          4    1    3    3  501    0  0.75259324961E+02  0.19925556869E+03  0.29528112483E+03  0.36408472960E+03  0.00000000000E+00 0.  1.
   -9000007    1    1    2    0  503 -0.19826932014E+03 -0.33246298827E+02  0.27095697989E+03  0.52329124266E+03  0.40000000000E+03 0. -1.
<mgrwt>
<rscale>  2 0.44761059E+03</rscale>
<asrwt>0</asrwt>
<pdfrwt beam="1">  1       21 0.13566907E+00 0.44767850E+03</pdfrwt>
<pdfrwt beam="2">  1       21 0.35293483E-01 0.44767850E+03</pdfrwt>
<totfact> 0.25928536E+03</totfact>
</mgrwt>
</event>
<event>
 6    1  0.8947013E-004  0.4328674E+03  0.7818608E-02  0.1033634E+00
         21   -1    0    0  501  502  0.00000000000E+00  0.00000000000E+00  0.23491167902E+03  0.23491167902E+03  0.00000000000E+00 0.  1.
         21   -1    0    0  502  503 -0.00000000000E+00 -0.00000000000E+00 -0.82727629275E+03  0.82727629275E+03  0.00000000000E+00 0.  1.
    9000007    2    1    2  501    0  0.51436816503E+02 -0.15725291312E+03 -0.16911957716E+03  0.45678679424E+03  0.39074098740E+03 0.  0.
    9000005    1    3    3    0    0 -0.13939515709E+02 -0.22985226443E+03  0.32677975740E+02  0.23258379921E+03  0.99999687468E+00 0.  0.
          4    1    3    3  501    0  0.65376332211E+02  0.72599351308E+02 -0.20179755290E+03  0.22420299503E+03  0.00000000000E+00 0.  1.
   -9000007    1    1    2    0  503 -0.51436816503E+02  0.15725291312E+03 -0.42324503657E+03  0.60540117753E+03  0.40000000000E+03 0. -1.
<mgrwt>
<rscale>  2 0.43071616E+03</rscale>
<asrwt>0</asrwt>
<pdfrwt beam="1">  1       21 0.36140258E-01 0.43286744E+03</pdfrwt>
<pdfrwt beam="2">  1       21 0.12727328E+00 0.43286744E+03</pdfrwt>
<totfact> 0.29339826E+03</totfact>
</mgrwt>
</event>
<event>
 6    1  0.8947013E-004  0.5095317E+03  0.7818608E-02  0.1011361E+00
         21   -1    0    0  501  502  0.00000000000E+00  0.00000000000E+00  0.12160591742E+04  0.12160591742E+04  0.00000000000E+00 0.  1.
         21   -1    0    0  502  503 -0.00000000000E+00 -0.00000000000E+00 -0.36531805257E+03  0.36531805257E+03  0.00000000000E+00 0. -1.
    9000007    2    1    2  501    0  0.24091019258E+03  0.20232492223E+03  0.93570253358E+03  0.10654396951E+04  0.40081094974E+03 0.  0.
    9000005    1    3    3    0    0 -0.98891263594E+02 -0.13965581471E+02  0.12342082831E+03  0.15877096818E+03  0.99999687468E+00 0.  0.
          4    1    3    3  501    0  0.33980145617E+03  0.21629050370E+03  0.81228170527E+03  0.90666872689E+03  0.00000000000E+00 0.  1.
   -9000007    1    1    2    0  503 -0.24091019258E+03 -0.20232492223E+03 -0.84961411996E+02  0.51593753165E+03  0.40000000000E+03 0. -1.
<mgrwt>
<rscale>  2 0.50937217E+03</rscale>
<asrwt>0</asrwt>
<pdfrwt beam="1">  1       21 0.18708602E+00 0.50953166E+03</pdfrwt>
<pdfrwt beam="2">  1       21 0.56202778E-01 0.50953166E+03</pdfrwt>
<totfact> 0.38867531E+02</totfact>
</mgrwt>
</event>
<event>
 6    1  0.8947013E-004  0.4455147E+03  0.7818608E-02  0.1029085E+00
         21   -1    0    0  501  502  0.00000000000E+00  0.00000000000E+00  0.30814471395E+03  0.30814471395E+03  0.00000000000E+00 0.  1.
         21   -1    0    0  502  503 -0.00000000000E+00 -0.00000000000E+00 -0.97692588040E+03  0.97692588040E+03  0.00000000000E+00 0.  1.
    9000007    2    1    2  501    0 -0.15564669202E+03  0.11858034260E+03  0.40758351785E+02  0.44737523305E+03  0.40024513179E+03 0.  0.
    9000005    1    3    3    0    0  0.10432961246E+03  0.15067148668E+03  0.87560474552E+01  0.18347815482E+03  0.99999687468E+00 0.  0.
          4    1    3    3  501    0 -0.25997630448E+03 -0.32091144076E+02  0.32002304330E+02  0.26389707824E+03  0.00000000000E+00 0.  1.
   -9000007    1    1    2    0  503  0.15564669202E+03 -0.11858034260E+03 -0.70953951824E+03  0.83769536129E+03  0.40000000000E+03 0.  1.
<mgrwt>
<rscale>  2 0.44545965E+03</rscale>
<asrwt>0</asrwt>
<pdfrwt beam="1">  1       21 0.47406880E-01 0.44551471E+03</pdfrwt>
<pdfrwt beam="2">  1       21 0.15029629E+00 0.44551471E+03</pdfrwt>
<totfact> 0.10724024E+03</totfact>
</mgrwt>
</event>
<event>
 6    1  0.8947013E-004  0.6871308E+03  0.7818608E-02  0.9739672E-01
         21   -1    0    0  501  502  0.00000000000E+00  0.00000000000E+00  0.28363288387E+03  0.28363288387E+03  0.00000000000E+00 0. -1.
         21   -1    0    0  502  503 -0.00000000000E+00 -0.00000000000E+00 -0.17057788471E+04  0.17057788471E+04  0.00000000000E+00 0.  1.
    9000007    2    1    2  501    0  0.54270176810E+03 -0.13275365280E+03 -0.55460321557E+03  0.88271431954E+03  0.39931328773E+03 0.  0.
    9000005    1    3    3    0    0  0.62023487184E+01  0.72708737987E+02  0.14111512842E+02  0.74331450260E+02  0.99999687468E+00 0.  0.
          4    1    3    3  501    0  0.53649941939E+03 -0.20546239078E+03 -0.56871472841E+03  0.80838286928E+03  0.00000000000E+00 0.  1.
   -9000007    1    1    2    0  503 -0.54270176810E+03  0.13275365280E+03 -0.86754274765E+03  0.11066974114E+04  0.40000000000E+03 0.  1.
<mgrwt>
<rscale>  2 0.68703090E+03</rscale>
<asrwt>0</asrwt>
<pdfrwt beam="1">  1       21 0.43635828E-01 0.68713080E+03</pdfrwt>
<pdfrwt beam="2">  1       21 0.26242752E+00 0.68713080E+03</pdfrwt>
<totfact> 0.20259566E+02</totfact>
</mgrwt>
</event>
<event>
 6    1  0.8947013E-004  0.4621842E+03  0.7818608E-02  0.1024168E+00
         21   -1    0    0  501  502  0.00000000000E+00  0.00000000000E+00  0.11201689047E+04  0.11201689047E+04  0.00000000000E+00 0. -1.
         21   -1    0    0  502  503 -0.00000000000E+00 -0.00000000000E+00 -0.39716583295E+03  0.39716583295E+03  0.00000000000E+00 0.  1.
    9000007    2    1    2  501    0 -0.15385548311E+03 -0.17303979415E+03  0.90859798762E+03  0.10192787641E+04  0.39970566143E+03 0.  0.
    9000005    1    3    3    0    0 -0.16056670024E+03 -0.29428666757E+03  0.73013294609E+03  0.80341858759E+03  0.99999687468E+00 0.  0.
          4    1    3    3  501    0  0.67112171277E+01  0.12124687342E+03  0.17846504153E+03  0.21586017650E+03  0.00000000000E+00 0.  1.
   -9000007    1    1    2    0  503  0.15385548311E+03  0.17303979415E+03 -0.18559491584E+03  0.49805597359E+03  0.40000000000E+03 0.  1.
<mgrwt>
<rscale>  2 0.46212056E+03</rscale>
<asrwt>0</asrwt>
<pdfrwt beam="1">  1       21 0.17233368E+00 0.46218425E+03</pdfrwt>
<pdfrwt beam="2">  1       21 0.61102436E-01 0.46218425E+03</pdfrwt>
<totfact> 0.42068244E+02</totfact>
</mgrwt>
</event>
<event>
 6    1  0.8947013E-004  0.5100004E+03  0.7818608E-02  0.1011269E+00
         21   -1    0    0  501  502  0.00000000000E+00  0.00000000000E+00  0.18483205124E+04  0.18483205124E+04  0.00000000000E+00 0. -1.
         21   -1    0    0  502  503 -0.00000000000E+00 -0.00000000000E+00 -0.16698302576E+03  0.16698302576E+03  0.00000000000E+00 0.  1.
    9000007    2    1    2  501    0  0.30974564226E+03  0.64483144919E+02  0.43810184429E+03  0.67152703097E+03  0.39864130302E+03 0.  0.
    9000005    1    3    3    0    0  0.18916024047E+03 -0.16376846114E+03  0.19956356776E+03  0.32004425164E+03  0.99999687468E+00 0.  0.
          4    1    3    3  501    0  0.12058540179E+03  0.22825160606E+03  0.23853827653E+03  0.35148277933E+03  0.00000000000E+00 0.  1.
   -9000007    1    1    2    0  503 -0.30974564226E+03 -0.64483144919E+02  0.12432356424E+04  0.13437765072E+04  0.40000000000E+03 0. -1.
<mgrwt>
<rscale>  2 0.50973399E+03</rscale>
<asrwt>0</asrwt>
<pdfrwt beam="1">  1       21 0.28435699E+00 0.51000043E+03</pdfrwt>
<pdfrwt beam="2">  1       21 0.25689698E-01 0.51000043E+03</pdfrwt>
<totfact> 0.46867752E+02</totfact>
</mgrwt>
</event>
<event>
 6    1  0.8947013E-004  0.4773375E+03  0.7818608E-02  0.1020063E+00
         21   -1    0    0  501  502  0.00000000000E+00  0.00000000000E+00  0.58729118158E+03  0.58729118158E+03  0.00000000000E+00 0.  1.
         21   -1    0    0  502  503 -0.00000000000E+00 -0.00000000000E+00 -0.39483969453E+03  0.39483969453E+03  0.00000000000E+00 0. -1.
    9000007    2    1    2  501    0  0.56289276627E+02 -0.25432782846E+03  0.21242042565E+02  0.47501767290E+03  0.39666035622E+03 0.  0.
    9000005    1    3    3    0    0 -0.16104540259E+03 -0.33268815996E+02  0.29307713226E+01  0.16447499879E+03  0.99999687468E+00 0.  0.
          4    1    3    3  501    0  0.21733467922E+03 -0.22105901246E+03  0.18311271243E+02  0.31054267410E+03  0.00000000000E+00 0.  1.
   -9000007    1    1    2    0  503 -0.56289276627E+02  0.25432782846E+03  0.17120944448E+03  0.50711320321E+03  0.40000000000E+03 0.  1.
<mgrwt>
<rscale>  2 0.47663724E+03</rscale>
<asrwt>0</asrwt>
<pdfrwt beam="1">  1       21 0.90352489E-01 0.47733754E+03</pdfrwt>
<pdfrwt beam="2">  1       21 0.60744569E-01 0.47733754E+03</pdfrwt>
<totfact> 0.22512243E+03</totfact>
</mgrwt>
</event>
<event>
 6    1  0.8947013E-004  0.4015555E+03  0.7818608E-02  0.1043275E+00
         21   -1    0    0  501  502  0.00000000000E+00  0.00000000000E+00  0.73221920394E+03  0.73221920394E+03  0.00000000000E+00 0.  1.
         21   -1    0    0  502  503 -0.00000000000E+00 -0.00000000000E+00 -0.22592403869E+03  0.22592403869E+03  0.00000000000E+00 0.  1.
    9000007    2    1    2  501    0 -0.23637034470E+02  0.19657645092E+02  0.33077009749E+03  0.52024578680E+03  0.40037693350E+03 0.  0.
    9000005    1    3    3    0    0 -0.16737211872E+03 -0.11609257448E+03  0.16066511402E+03  0.25943243982E+03  0.99999687468E+00 0.  0.
          4    1    3    3  501    0  0.14373508425E+03  0.13575021958E+03  0.17010498347E+03  0.26081334698E+03  0.00000000000E+00 0.  1.
   -9000007    1    1    2    0  503  0.23637034470E+02 -0.19657645092E+02  0.17552506777E+03  0.43789745583E+03  0.40000000000E+03 0.  1.
<mgrwt>
<rscale>  2 0.40146151E+03</rscale>
<asrwt>0</asrwt>
<pdfrwt beam="1">  1       21 0.11264911E+00 0.40155550E+03</pdfrwt>
<pdfrwt beam="2">  1       21 0.34757545E-01 0.40155550E+03</pdfrwt>
<totfact> 0.43770765E+03</totfact>
</mgrwt>
</event>
<event>
 6    1  0.8947013E-004  0.4030625E+03  0.7818608E-02  0.1042726E+00
         21   -1    0    0  501  502  0.00000000000E+00  0.00000000000E+00  0.11755382394E+04  0.11755382394E+04  0.00000000000E+00 0.  1.
         21   -1    0    0  502  503 -0.00000000000E+00 -0.00000000000E+00 -0.34779309174E+03  0.34779309174E+03  0.00000000000E+00 0.  1.
    9000007    2    1    2  501    0 -0.49288716629E+02  0.33690544757E+01  0.10051674053E+04  0.10829685425E+04  0.40002327849E+03 0.  0.
    9000005    1    3    3    0    0  0.16650010653E+03 -0.61868975058E+02  0.44147028202E+03  0.47586454527E+03  0.99999687468E+00 0.  0.
          4    1    3    3  501    0 -0.21578882316E+03  0.65238029534E+02  0.56369712326E+03  0.60710399724E+03  0.00000000000E+00 0.  1.
   -9000007    1    1    2    0  503  0.49288716629E+02 -0.33690544757E+01 -0.17742225761E+03  0.44036278863E+03  0.40000000000E+03 0.  1.
<mgrwt>
<rscale>  2 0.40305669E+03</rscale>
<asrwt>0</asrwt>
<pdfrwt beam="1">  1       21 0.18085204E+00 0.40306247E+03</pdfrwt>
<pdfrwt beam="2">  1       21 0.53506630E-01 0.40306247E+03</pdfrwt>
<totfact> 0.50281822E+02</totfact>
</mgrwt>
</event>
<event>
 6    1  0.8947013E-004  0.4139897E+03  0.7818608E-02  0.1039126E+00
         21   -1    0    0  501  502  0.00000000000E+00  0.00000000000E+00  0.19000015228E+04  0.19000015228E+04  0.00000000000E+00 0.  1.
         21   -1    0    0  502  503 -0.00000000000E+00 -0.00000000000E+00 -0.19713598687E+03  0.19713598687E+03  0.00000000000E+00 0.  1.
    9000007    2    1    2  501    0 -0.64196327776E+00 -0.10671032979E+03  0.16240250024E+04  0.16757074012E+04  0.39893681126E+03 0.  0.
    9000005    1    3    3    0    0 -0.16689997697E+03 -0.15000772218E+03  0.67696559422E+03  0.71319095254E+03  0.99999687468E+00 0.  0.
          4    1    3    3  501    0  0.16625801369E+03  0.43297392394E+02  0.94705940821E+03  0.96251644868E+03  0.00000000000E+00 0.  1.
   -9000007    1    1    2    0  503  0.64196327776E+00  0.10671032979E+03  0.78840533512E+02  0.42143010847E+03  0.40000000000E+03 0.  1.
<mgrwt>
<rscale>  2 0.41373271E+03</rscale>
<asrwt>0</asrwt>
<pdfrwt beam="1">  1       21 0.29230791E+00 0.41398974E+03</pdfrwt>
<pdfrwt beam="2">  1       21 0.30328615E-01 0.41398974E+03</pdfrwt>
<totfact> 0.31923739E+02</totfact>
</mgrwt>
</event>
<event>
 6    1  0.8947013E-004  0.5603550E+03  0.7818608E-02  0.9994325E-01
         21   -1    0    0  501  502  0.00000000000E+00  0.00000000000E+00  0.32465660464E+03  0.32465660464E+03  0.00000000000E+00 0.  1.
         21   -1    0    0  502  503 -0.00000000000E+00 -0.00000000000E+00 -0.15776382573E+04  0.15776382573E+04  0.00000000000E+00 0.  1.
    9000007    2    1    2  501    0  0.33838390366E+03  0.18292241227E+03 -0.32177944201E+02  0.56127809479E+03  0.40747196767E+03 0.  0.
    9000005    1    3    3    0    0  0.63984844507E+02  0.26327843891E+03 -0.46914750806E+02  0.27497561812E+03  0.99999687468E+00 0.  0.
          4    1    3    3  501    0  0.27439905916E+03 -0.80356026639E+02  0.14736806606E+02  0.28630247668E+03  0.00000000000E+00 0.  1.
   -9000007    1    1    2    0  503 -0.33838390366E+03 -0.18292241227E+03 -0.12208037085E+04  0.13410167671E+04  0.40000000000E+03 0.  1.
<mgrwt>
<rscale>  2 0.55899762E+03</rscale>
<asrwt>0</asrwt>
<pdfrwt beam="1">  1       21 0.49947170E-01 0.56035496E+03</pdfrwt>
<pdfrwt beam="2">  1       21 0.24271358E+00 0.56035496E+03</pdfrwt>
<totfact> 0.21227923E+02</totfact>
</mgrwt>
</event>
<event>
 6    1  0.8947013E-004  0.4942787E+03  0.7818608E-02  0.1015336E+00
         21   -1    0    0  501  502  0.00000000000E+00  0.00000000000E+00  0.34763078091E+03  0.34763078091E+03  0.00000000000E+00 0.  1.
         21   -1    0    0  502  503 -0.00000000000E+00 -0.00000000000E+00 -0.99487874736E+03  0.99487874736E+03  0.00000000000E+00 0.  1.
    9000007    2    1    2  501    0 -0.19753725318E+03 -0.21281550152E+03  0.40981044045E+02  0.49517808488E+03  0.39901188666E+03 0.  0.
    9000005    1    3    3    0    0  0.65040798904E+02 -0.16265528262E+03 -0.90602130249E+02  0.19722269769E+03  0.99999687468E+00 0.  0.
          4    1    3    3  501    0 -0.26257805208E+03 -0.50160218900E+02  0.13158317429E+03  0.29795538719E+03  0.00000000000E+00 0.  1.
   -9000007    1    1    2    0  503  0.19753725318E+03  0.21281550152E+03 -0.68822901050E+03  0.84733144340E+03  0.40000000000E+03 0.  1.
<mgrwt>
<rscale>  2 0.49407872E+03</rscale>
<asrwt>0</asrwt>
<pdfrwt beam="1">  1       21 0.53481659E-01 0.49427867E+03</pdfrwt>
<pdfrwt beam="2">  1       21 0.15305827E+00 0.49427867E+03</pdfrwt>
<totfact> 0.77321786E+02</totfact>
</mgrwt>
</event>
<event>
 6    1  0.8947013E-004  0.6258167E+03  0.7818608E-02  0.9853419E-01
         21   -1    0    0  501  502  0.00000000000E+00  0.00000000000E+00  0.14696502043E+04  0.14696502043E+04  0.00000000000E+00 0.  1.
         21   -1    0    0  502  503 -0.00000000000E+00 -0.00000000000E+00 -0.43365182338E+03  0.43365182338E+03  0.00000000000E+00 0.  1.
    9000007    2    1    2  501    0 -0.40556654480E+03 -0.25830628168E+03 -0.73024475263E+02  0.63006283062E+03  0.40054992089E+03 0.  0.
    9000005    1    3    3    0    0  0.35703462391E+02 -0.17254760216E+03 -0.15897668464E+02  0.17692130481E+03  0.99999687468E+00 0.  0.
          4    1    3    3  501    0 -0.44127000719E+03 -0.85758679516E+02 -0.57126806799E+02  0.45314152581E+03  0.00000000000E+00 0.  1.
   -9000007    1    1    2    0  503  0.40556654480E+03  0.25830628168E+03  0.11090228562E+04  0.12732391971E+04  0.40000000000E+03 0.  1.
<mgrwt>
<rscale>  2 0.62572877E+03</rscale>
<asrwt>0</asrwt>
<pdfrwt beam="1">  1       21 0.22610003E+00 0.62581674E+03</pdfrwt>
<pdfrwt beam="2">  1       21 0.66715666E-01 0.62581674E+03</pdfrwt>
<totfact> 0.13954804E+02</totfact>
</mgrwt>
</event>
<event>
 6    1  0.8947013E-004  0.4154157E+03  0.7818608E-02  0.1038577E+00
         21   -1    0    0  501  502  0.00000000000E+00  0.00000000000E+00  0.13455485313E+04  0.13455485313E+04  0.00000000000E+00 0. -1.
         21   -1    0    0  502  503 -0.00000000000E+00 -0.00000000000E+00 -0.15588024552E+03  0.15588024552E+03  0.00000000000E+00 0. -1.
    9000007    2    1    2  501    0  0.10643587132E+03  0.34023710154E+02  0.91111836141E+03  0.10013525147E+04  0.40010496452E+03 0.  0.
    9000005    1    3    3    0    0  0.25040777409E+03  0.75715759238E+02  0.64302725785E+03  0.69420600966E+03  0.99999687468E+00 0.  0.
          4    1    3    3  501    0 -0.14397190277E+03 -0.41692049084E+02  0.26809110356E+03  0.30714650503E+03  0.00000000000E+00 0.  1.
   -9000007    1    1    2    0  503 -0.10643587132E+03 -0.34023710154E+02  0.27854992432E+03  0.50007626208E+03  0.40000000000E+03 0. -1.
<mgrwt>
<rscale>  2 0.41539041E+03</rscale>
<asrwt>0</asrwt>
<pdfrwt beam="1">  1       21 0.20700746E+00 0.41541568E+03</pdfrwt>
<pdfrwt beam="2">  1       21 0.23981577E-01 0.41541568E+03</pdfrwt>
<totfact> 0.16972948E+03</totfact>
</mgrwt>
</event>
<event>
 6    1  0.8947013E-004  0.5328254E+03  0.7818608E-02  0.1005557E+00
         21   -1    0    0  501  502  0.00000000000E+00  0.00000000000E+00  0.19008937420E+03  0.19008937420E+03  0.00000000000E+00 0. -1.
         21   -1    0    0  502  503 -0.00000000000E+00 -0.00000000000E+00 -0.15021321444E+04  0.15021321444E+04  0.00000000000E+00 0.  1.
    9000007    2    1    2  501    0  0.97721716482E+02  0.33816168542E+03 -0.72134681639E+03  0.89671880382E+03  0.39982561731E+03 0.  0.
    9000005    1    3    3    0    0  0.22452196103E+03  0.24511888627E+03 -0.30298444413E+03  0.44977100037E+03  0.99999687468E+00 0.  0.
          4    1    3    3  501    0 -0.12680024455E+03  0.93042799142E+02 -0.41836237226E+03  0.44694780345E+03  0.00000000000E+00 0.  1.
   -9000007    1    1    2    0  503 -0.97721716482E+02 -0.33816168542E+03 -0.59069595380E+03  0.79550271476E+03  0.40000000000E+03 0.  1.
<mgrwt>
<rscale>  2 0.53279263E+03</rscale>
<asrwt>0</asrwt>
<pdfrwt beam="1">  1       21 0.29244519E-01 0.53282536E+03</pdfrwt>
<pdfrwt beam="2">  1       21 0.23109726E+00 0.53282536E+03</pdfrwt>
<totfact> 0.76471291E+02</totfact>
</mgrwt>
</event>
<event>
 6    1  0.8947013E-004  0.4343032E+03  0.7818608E-02  0.1032568E+00
         21   -1    0    0  501  502  0.00000000000E+00  0.00000000000E+00  0.32115485499E+03  0.32115485499E+03  0.00000000000E+00 0.  1.
         21   -1    0    0  502  503 -0.00000000000E+00 -0.00000000000E+00 -0.59118544249E+03  0.59118544249E+03  0.00000000000E+00 0.  1.
    9000007    2    1    2  501    0 -0.14660282040E+03 -0.80474649073E+02 -0.17659040652E+03  0.46883198469E+03  0.40081255233E+03 0.  0.
    9000005    1    3    3    0    0 -0.22692038201E+03  0.51921204137E+02  0.15537265199E+01  0.23279193558E+03  0.99999687468E+00 0.  0.
          4    1    3    3  501    0  0.80317561611E+02 -0.13239585321E+03 -0.17814413304E+03  0.23604004911E+03  0.00000000000E+00 0.  1.
   -9000007    1    1    2    0  503  0.14660282040E+03  0.80474649073E+02 -0.93440180989E+02  0.44350831279E+03  0.40000000000E+03 0.  1.
<mgrwt>
<rscale>  2 0.43411562E+03</rscale>
<asrwt>0</asrwt>
<pdfrwt beam="1">  1       21 0.49408439E-01 0.43430319E+03</pdfrwt>
<pdfrwt beam="2">  1       21 0.90951607E-01 0.43430319E+03</pdfrwt>
<totfact> 0.35149811E+03</totfact>
</mgrwt>
</event>
<event>
 6    1  0.8947013E-004  0.4308646E+03  0.7818608E-02  0.1033630E+00
         21   -1    0    0  501  502  0.00000000000E+00  0.00000000000E+00  0.36413877993E+03  0.36413877993E+03  0.00000000000E+00 0.  1.
         21   -1    0    0  502  503 -0.00000000000E+00 -0.00000000000E+00 -0.51563382036E+03  0.51563382036E+03  0.00000000000E+00 0. -1.
    9000007    2    1    2  501    0  0.13260475553E+03  0.89779172998E+02 -0.26480770063E+02  0.43113812893E+03  0.39941774365E+03 0.  0.
    9000005    1    3    3    0    0  0.41566355787E+02 -0.98562025503E+02 -0.15298253227E+03  0.18667321709E+03  0.99999687468E+00 0.  0.
          4    1    3    3  501    0  0.91038399743E+02  0.18834119850E+03  0.12650176221E+03  0.24446491184E+03  0.00000000000E+00 0.  1.
   -9000007    1    1    2    0  503 -0.13260475553E+03 -0.89779172998E+02 -0.12501427037E+03  0.44863447136E+03  0.40000000000E+03 0. -1.
<mgrwt>
<rscale>  2 0.43072943E+03</rscale>
<asrwt>0</asrwt>
<pdfrwt beam="1">  1       21 0.56021351E-01 0.43086462E+03</pdfrwt>
<pdfrwt beam="2">  1       21 0.79328280E-01 0.43086462E+03</pdfrwt>
<totfact> 0.37016978E+03</totfact>
</mgrwt>
</event>
<event>
 6    1  0.8947013E-004  0.4915988E+03  0.7818608E-02  0.1016051E+00
         21   -1    0    0  501  502  0.00000000000E+00  0.00000000000E+00  0.12056374938E+04  0.12056374938E+04  0.00000000000E+00 0. -1.
         21   -1    0    0  502  503 -0.00000000000E+00 -0.00000000000E+00 -0.23370539417E+03  0.23370539417E+03  0.00000000000E+00 0. -1.
    9000007    2    1    2  501    0  0.26864094275E+03  0.93213793276E+02  0.21346585554E+03  0.53594496302E+03  0.40101441936E+03 0.  0.
    9000005    1    3    3    0    0  0.16410714079E+03 -0.15263000822E+03  0.10728668003E+03  0.24847234207E+03  0.99999687468E+00 0.  0.
          4    1    3    3  501    0  0.10453380196E+03  0.24584380150E+03  0.10617917550E+03  0.28747262095E+03  0.00000000000E+00 0.  1.
   -9000007    1    1    2    0  503 -0.26864094275E+03 -0.93213793276E+02  0.75846624411E+03  0.90339792497E+03  0.40000000000E+03 0. -1.
<mgrwt>
<rscale>  2 0.49139183E+03</rscale>
<asrwt>0</asrwt>
<pdfrwt beam="1">  1       21 0.18548269E+00 0.49159875E+03</pdfrwt>
<pdfrwt beam="2">  1       21 0.35954677E-01 0.49159875E+03</pdfrwt>
<totfact> 0.10267005E+03</totfact>
</mgrwt>
</event>
<event>
 6    1  0.8947013E-004  0.4019389E+03  0.7818608E-02  0.1043269E+00
         21   -1    0    0  501  502  0.00000000000E+00  0.00000000000E+00  0.23186499906E+03  0.23186499906E+03  0.00000000000E+00 0. -1.
         21   -1    0    0  502  503 -0.00000000000E+00 -0.00000000000E+00 -0.10116517712E+04  0.10116517712E+04  0.00000000000E+00 0. -1.
    9000007    2    1    2  501    0  0.65348147399E+01 -0.62326738052E+01 -0.73913709778E+03  0.84135517827E+03  0.40183745053E+03 0.  0.
    9000005    1    3    3    0    0 -0.12727165994E+03  0.56815435545E+02 -0.65809390045E+03  0.67269209223E+03  0.99999687468E+00 0.  0.
          4    1    3    3  501    0  0.13380647468E+03 -0.63048109351E+02 -0.81043197331E+02  0.16866308604E+03  0.00000000000E+00 0.  1.
   -9000007    1    1    2    0  503 -0.65348147399E+01  0.62326738052E+01 -0.40649674329E+02  0.40216159196E+03  0.40000000000E+03 0. -1.
<mgrwt>
<rscale>  2 0.40147887E+03</rscale>
<asrwt>0</asrwt>
<pdfrwt beam="1">  1       21 0.35671539E-01 0.40193891E+03</pdfrwt>
<pdfrwt beam="2">  1       21 0.15563873E+00 0.40193891E+03</pdfrwt>
<totfact> 0.17886657E+03</totfact>
</mgrwt>
</event>
<event>
 6    1  0.8947013E-004  0.4593334E+03  0.7818608E-02  0.1024991E+00
         21   -1    0    0  501  502  0.00000000000E+00  0.00000000000E+00  0.26443538329E+03  0.26443538329E+03  0.00000000000E+00 0.  1.
         21   -1    0    0  502  503 -0.00000000000E+00 -0.00000000000E+00 -0.83341521171E+03  0.83341521171E+03  0.00000000000E+00 0.  1.
    9000007    2    1    2  501    0  0.17966036065E+03 -0.13678201838E+03 -0.17044831481E+03  0.48972681395E+03  0.39974061407E+03 0.  0.
    9000005    1    3    3    0    0  0.25544985244E+03 -0.22183947631E+03 -0.89492622154E+02  0.34996758389E+03  0.99999687468E+00 0.  0.
          4    1    3    3  501    0 -0.75789491787E+02  0.85057457923E+02 -0.80955692659E+02  0.13975923006E+03  0.00000000000E+00 0.  1.
   -9000007    1    1    2    0  503 -0.17966036065E+03  0.13678201838E+03 -0.39853151361E+03  0.60812378105E+03  0.40000000000E+03 0. -1.
<mgrwt>
<rscale>  2 0.45927692E+03</rscale>
<asrwt>0</asrwt>
<pdfrwt beam="1">  1       21 0.40682366E-01 0.45933339E+03</pdfrwt>
<pdfrwt beam="2">  1       21 0.12821773E+00 0.45933339E+03</pdfrwt>
<totfact> 0.22363768E+03</totfact>
</mgrwt>
</event>
<event>
 6    1  0.8947013E-004  0.6621049E+03  0.7818608E-02  0.9784329E-01
         21   -1    0    0  501  502  0.00000000000E+00  0.00000000000E+00  0.36577694251E+03  0.36577694251E+03  0.00000000000E+00 0.  1.
         21   -1    0    0  502  503 -0.00000000000E+00 -0.00000000000E+00 -0.12611599454E+04  0.12611599454E+04  0.00000000000E+00 0.  1.
    9000007    2    1    2  501    0 -0.37720182503E+03 -0.36891196780E+03 -0.62902910874E+03  0.91326914048E+03  0.40000705810E+03 0.  0.
    9000005    1    3    3    0    0  0.18138127742E+02 -0.14078562052E+02  0.47696488710E+02  0.52944807266E+02  0.99999687468E+00 0.  0.
          4    1    3    3  501    0 -0.39533995277E+03 -0.35483340575E+03 -0.67672559745E+03  0.86032433322E+03  0.00000000000E+00 0.  1.
   -9000007    1    1    2    0  503  0.37720182503E+03  0.36891196780E+03 -0.26635389417E+03  0.71366774744E+03  0.40000000000E+03 0.  1.
<mgrwt>
<rscale>  2 0.66210384E+03</rscale>
<asrwt>0</asrwt>
<pdfrwt beam="1">  1       21 0.56273375E-01 0.66210490E+03</pdfrwt>
<pdfrwt beam="2">  1       21 0.19402461E+00 0.66210490E+03</pdfrwt>
<totfact> 0.32770940E+02</totfact>
</mgrwt>
</event>
<event>
 6    1  0.8947013E-004  0.4491866E+03  0.7818608E-02  0.1027971E+00
         21   -1    0    0  501  502  0.00000000000E+00  0.00000000000E+00  0.41218742035E+03  0.41218742035E+03  0.00000000000E+00 0. -1.
         21   -1    0    0  502  503 -0.00000000000E+00 -0.00000000000E+00 -0.81266510676E+03  0.81266510676E+03  0.00000000000E+00 0.  1.
    9000007    2    1    2  501    0 -0.38088211487E+02 -0.20079320130E+03  0.18601868932E+03  0.48610587211E+03  0.39990917041E+03 0.  0.
    9000005    1    3    3    0    0 -0.12704982076E+03 -0.76177900628E+02  0.27256892100E+03  0.31022499285E+03  0.99999687468E+00 0.  0.
          4    1    3    3  501    0  0.88961609273E+02 -0.12461530067E+03 -0.86550231676E+02  0.17588087926E+03  0.00000000000E+00 0.  1.
   -9000007    1    1    2    0  503  0.38088211487E+02  0.20079320130E+03 -0.58649637573E+03  0.73874665501E+03  0.40000000000E+03 0.  1.
<mgrwt>
<rscale>  2 0.44916640E+03</rscale>
<asrwt>0</asrwt>
<pdfrwt beam="1">  1       21 0.63413450E-01 0.44918662E+03</pdfrwt>
<pdfrwt beam="2">  1       21 0.12502540E+00 0.44918662E+03</pdfrwt>
<totfact> 0.92886223E+02</totfact>
</mgrwt>
</event>
<event>
 6    1  0.8947013E-004  0.4911614E+03  0.7818608E-02  0.1016200E+00
         21   -1    0    0  501  502  0.00000000000E+00  0.00000000000E+00  0.51119353514E+03  0.51119353514E+03  0.00000000000E+00 0.  1.
         21   -1    0    0  502  503 -0.00000000000E+00 -0.00000000000E+00 -0.56570650866E+03  0.56570650866E+03  0.00000000000E+00 0. -1.
    9000007    2    1    2  501    0 -0.88507523854E+01 -0.28260444525E+03  0.19343713399E+03  0.52788013149E+03  0.40161660838E+03 0.  0.
    9000005    1    3    3    0    0 -0.16749209856E+02  0.99931047833E+02  0.79090366366E+02  0.12854196357E+03  0.99999687468E+00 0.  0.
          4    1    3    3  501    0  0.78984574706E+01 -0.38253549308E+03  0.11434676763E+03  0.39933816793E+03  0.00000000000E+00 0.  1.
   -9000007    1    1    2    0  503  0.88507523854E+01  0.28260444525E+03 -0.24795010751E+03  0.54901991230E+03  0.40000000000E+03 0. -1.
<mgrwt>
<rscale>  2 0.49083080E+03</rscale>
<asrwt>0</asrwt>
<pdfrwt beam="1">  1       21 0.78645159E-01 0.49116139E+03</pdfrwt>
<pdfrwt beam="2">  1       21 0.87031770E-01 0.49116139E+03</pdfrwt>
<totfact> 0.13683841E+03</totfact>
</mgrwt>
</event>
<event>
 6    1  0.8947013E-004  0.5054506E+03  0.7818608E-02  0.1012428E+00
         21   -1    0    0  501  502  0.00000000000E+00  0.00000000000E+00  0.19224973492E+03  0.19224973492E+03  0.00000000000E+00 0. -1.
         21   -1    0    0  502  503 -0.00000000000E+00 -0.00000000000E+00 -0.13591725493E+04  0.13591725493E+04  0.00000000000E+00 0.  1.
    9000007    2    1    2  501    0  0.73736168282E+02  0.30007217582E+03 -0.46238527231E+03  0.68432743277E+03  0.39877758461E+03 0.  0.
    9000005    1    3    3    0    0  0.23028542304E+03  0.17817916285E+03 -0.19129491865E+03  0.34838762325E+03  0.99999687468E+00 0.  0.
          4    1    3    3  501    0 -0.15654925476E+03  0.12189301297E+03 -0.27109035366E+03  0.33593980952E+03  0.00000000000E+00 0.  1.
   -9000007    1    1    2    0  503 -0.73736168282E+02 -0.30007217582E+03 -0.70453754206E+03  0.86709485144E+03  0.40000000000E+03 0. -1.
<mgrwt>
<rscale>  2 0.50520874E+03</rscale>
<asrwt>0</asrwt>
<pdfrwt beam="1">  1       21 0.29576883E-01 0.50545062E+03</pdfrwt>
<pdfrwt beam="2">  1       21 0.20910346E+00 0.50545062E+03</pdfrwt>
<totfact> 0.10475673E+03</totfact>
</mgrwt>
</event>
<event>
 6    1  0.8947013E-004  0.5435223E+03  0.7818608E-02  0.1003016E+00
         21   -1    0    0  501  502  0.00000000000E+00  0.00000000000E+00  0.66824379297E+03  0.66824379297E+03  0.00000000000E+00 0. -1.
         21   -1    0    0  502  503 -0.00000000000E+00 -0.00000000000E+00 -0.62624259281E+03  0.62624259281E+03  0.00000000000E+00 0.  1.
    9000007    2    1    2  501    0 -0.13599830951E+03 -0.34193705304E+03  0.37214196998E+03  0.65855445834E+03  0.39973471246E+03 0.  0.
    9000005    1    3    3    0    0 -0.26856064607E+02 -0.12656547123E+03  0.39535958863E+03  0.41599311416E+03  0.99999687468E+00 0.  0.
          4    1    3    3  501    0 -0.10914224491E+03 -0.21537158181E+03 -0.23217618648E+02  0.24256134418E+03  0.00000000000E+00 0.  1.
   -9000007    1    1    2    0  503  0.13599830951E+03  0.34193705304E+03 -0.33014076982E+03  0.63593192744E+03  0.40000000000E+03 0.  1.
<mgrwt>
<rscale>  2 0.54347349E+03</rscale>
<asrwt>0</asrwt>
<pdfrwt beam="1">  1       21 0.10280674E+00 0.54352230E+03</pdfrwt>
<pdfrwt beam="2">  1       21 0.96345014E-01 0.54352230E+03</pdfrwt>
<totfact> 0.55711251E+02</totfact>
</mgrwt>
</event>
<event>
 6    1  0.8947013E-004  0.5945157E+03  0.7818608E-02  0.9916874E-01
         21   -1    0    0  501  502  0.00000000000E+00  0.00000000000E+00  0.25816338847E+04  0.25816338847E+04  0.00000000000E+00 0. -1.
         21   -1    0    0  502  503 -0.00000000000E+00 -0.00000000000E+00 -0.22243008193E+03  0.22243008193E+03  0.00000000000E+00 0.  1.
    9000007    2    1    2  501    0 -0.41583088689E+03 -0.14310698715E+03  0.20490389426E+04  0.21335438874E+04  0.40006748758E+03 0.  0.
    9000005    1    3    3    0    0 -0.49421112975E+03 -0.14755446049E+03  0.17982828308E+04  0.18707856903E+04  0.99999687468E+00 0.  0.
          4    1    3    3  501    0  0.78380242859E+02  0.44474733402E+01  0.25075611181E+03  0.26275819702E+03  0.00000000000E+00 0.  1.
   -9000007    1    1    2    0  503  0.41583088689E+03  0.14310698715E+03  0.31016486017E+03  0.67052007930E+03  0.40000000000E+03 0.  1.
<mgrwt>
<rscale>  2 0.59450436E+03</rscale>
<asrwt>0</asrwt>
<pdfrwt beam="1">  1       21 0.39717442E+00 0.59451571E+03</pdfrwt>
<pdfrwt beam="2">  1       21 0.34220014E-01 0.59451571E+03</pdfrwt>
<totfact> 0.50809685E+01</totfact>
</mgrwt>
</event>
<event>
 6    1  0.8947013E-004  0.5041053E+03  0.7818608E-02  0.1012776E+00
         21   -1    0    0  501  502  0.00000000000E+00  0.00000000000E+00  0.10238377891E+04  0.10238377891E+04  0.00000000000E+00 0.  1.
         21   -1    0    0  502  503 -0.00000000000E+00 -0.00000000000E+00 -0.27307838351E+03  0.27307838351E+03  0.00000000000E+00 0. -1.
    9000007    2    1    2  501    0 -0.14904212463E+03  0.26815786765E+03  0.57264439128E+03  0.76226941521E+03  0.39876166516E+03 0.  0.
    9000005    1    3    3    0    0  0.89247401866E+01  0.33086634393E+03  0.34401466284E+03  0.47738797301E+03  0.99999687468E+00 0.  0.
          4    1    3    3  501    0 -0.15796686482E+03 -0.62708476287E+02  0.22862972845E+03  0.28488144220E+03  0.00000000000E+00 0.  1.
   -9000007    1    1    2    0  503  0.14904212463E+03 -0.26815786765E+03  0.17811501432E+03  0.53464675742E+03  0.40000000000E+03 0. -1.
<mgrwt>
<rscale>  2 0.50385965E+03</rscale>
<asrwt>0</asrwt>
<pdfrwt beam="1">  1       21 0.15751350E+00 0.50410534E+03</pdfrwt>
<pdfrwt beam="2">  1       21 0.42012060E-01 0.50410534E+03</pdfrwt>
<totfact> 0.11859195E+03</totfact>
</mgrwt>
</event>
<event>
 6    1  0.8947013E-004  0.4237457E+03  0.7818608E-02  0.1035862E+00
         21   -1    0    0  501  502  0.00000000000E+00  0.00000000000E+00  0.16051823168E+04  0.16051823168E+04  0.00000000000E+00 0.  1.
         21   -1    0    0  502  503 -0.00000000000E+00 -0.00000000000E+00 -0.11823775483E+03  0.11823775483E+03  0.00000000000E+00 0.  1.
    9000007    2    1    2  501    0  0.13229428137E+03  0.44482244548E+02  0.94402714402E+03  0.10347693839E+04  0.40009996536E+03 0.  0.
    9000005    1    3    3    0    0  0.17403708630E+02  0.21567220839E+03  0.52225941096E+03  0.56530813091E+03  0.99999687468E+00 0.  0.
          4    1    3    3  501    0  0.11489057274E+03 -0.17118996384E+03  0.42176773306E+03  0.46946125301E+03  0.00000000000E+00 0.  1.
   -9000007    1    1    2    0  503 -0.13229428137E+03 -0.44482244548E+02  0.54291741794E+03  0.68865068770E+03  0.40000000000E+03 0. -1.
<mgrwt>
<rscale>  2 0.42372211E+03</rscale>
<asrwt>0</asrwt>
<pdfrwt beam="1">  1       21 0.24695111E+00 0.42374571E+03</pdfrwt>
<pdfrwt beam="2">  1       21 0.18190425E-01 0.42374571E+03</pdfrwt>
<totfact> 0.16028621E+03</totfact>
</mgrwt>
</event>
<event>
 6    1  0.8947013E-004  0.4118021E+03  0.7818608E-02  0.1039829E+00
         21   -1    0    0  501  502  0.00000000000E+00  0.00000000000E+00  0.52536111330E+03  0.52536111330E+03  0.00000000000E+00 0. -1.
         21   -1    0    0  502  503 -0.00000000000E+00 -0.00000000000E+00 -0.34307914807E+03  0.34307914807E+03  0.00000000000E+00 0.  1.
    9000007    2    1    2  501    0 -0.59497773870E+02  0.73766688614E+02  0.19828864349E+03  0.45705513379E+03  0.40074867403E+03 0.  0.
    9000005    1    3    3    0    0  0.11175915328E+03 -0.11259360138E+03  0.72688016452E+02  0.17450494303E+03  0.99999687468E+00 0.  0.
          4    1    3    3  501    0 -0.17125692715E+03  0.18636028999E+03  0.12560062704E+03  0.28255019076E+03  0.00000000000E+00 0.  1.
   -9000007    1    1    2    0  503  0.59497773870E+02 -0.73766688614E+02 -0.16006678264E+02  0.41138512758E+03  0.40000000000E+03 0. -1.
<mgrwt>
<rscale>  2 0.41161989E+03</rscale>
<asrwt>0</asrwt>
<pdfrwt beam="1">  1       21 0.80824787E-01 0.41180215E+03</pdfrwt>
<pdfrwt beam="2">  1       21 0.52781407E-01 0.41180215E+03</pdfrwt>
<totfact> 0.40584131E+03</totfact>
</mgrwt>
</event>
<event>
 6    1  0.8947013E-004  0.4432091E+03  0.7818608E-02  0.1029828E+00
         21   -1    0    0  501  502  0.00000000000E+00  0.00000000000E+00  0.75793162779E+02  0.75793162779E+02  0.00000000000E+00 0.  1.
         21   -1    0    0  502  503 -0.00000000000E+00 -0.00000000000E+00 -0.28133168485E+04  0.28133168485E+04  0.00000000000E+00 0.  1.
    9000007    2    1    2  501    0  0.10351664947E+03  0.16037035731E+03 -0.17773143151E+04  0.18315484842E+04  0.39911067002E+03 0.  0.
    9000005    1    3    3    0    0 -0.63426020839E+01  0.26242095709E+03 -0.77904880005E+03  0.82208455780E+03  0.99999687468E+00 0.  0.
          4    1    3    3  501    0  0.10985925156E+03 -0.10205059978E+03 -0.99826551508E+03  0.10094639264E+04  0.00000000000E+00 0.  1.
   -9000007    1    1    2    0  503 -0.10351664947E+03 -0.16037035731E+03 -0.96020937061E+03  0.10575615271E+04  0.40000000000E+03 0.  1.
<mgrwt>
<rscale>  2 0.44300840E+03</rscale>
<asrwt>0</asrwt>
<pdfrwt beam="1">  1       21 0.11660486E-01 0.44320915E+03</pdfrwt>
<pdfrwt beam="2">  1       21 0.43281798E+00 0.44320915E+03</pdfrwt>
<totfact> 0.25531452E+02</totfact>
</mgrwt>
</event>
<event>
 6    1  0.8947013E-004  0.5458050E+03  0.7818608E-02  0.1002483E+00
         21   -1    0    0  501  502  0.00000000000E+00  0.00000000000E+00  0.27957624342E+03  0.27957624342E+03  0.00000000000E+00 0. -1.
         21   -1    0    0  502  503 -0.00000000000E+00 -0.00000000000E+00 -0.10659554895E+04  0.10659554895E+04  0.00000000000E+00 0. -1.
    9000007    2    1    2  501    0  0.24880572803E+03 -0.27522581796E+03 -0.41226601692E+03  0.68400754637E+03  0.40031177052E+03 0.  0.
    9000005    1    3    3    0    0 -0.56414902199E+02 -0.77521326354E+02  0.39810955559E+02  0.10381767386E+03  0.99999687468E+00 0.  0.
          4    1    3    3  501    0  0.30522063023E+03 -0.19770449161E+03 -0.45207697248E+03  0.58018987251E+03  0.00000000000E+00 0.  1.
   -9000007    1    1    2    0  503 -0.24880572803E+03  0.27522581796E+03 -0.37411322920E+03  0.66152418658E+03  0.40000000000E+03 0. -1.
<mgrwt>
<rscale>  2 0.54574780E+03</rscale>
<asrwt>0</asrwt>
<pdfrwt beam="1">  1       21 0.43011730E-01 0.54580496E+03</pdfrwt>
<pdfrwt beam="2">  1       21 0.16399315E+00 0.54580496E+03</pdfrwt>
<totfact> 0.99326745E+02</totfact>
</mgrwt>
</event>
<event>
 6    1  0.8947013E-004  0.5450357E+03  0.7818608E-02  0.1002672E+00
         21   -1    0    0  501  502  0.00000000000E+00  0.00000000000E+00  0.19518333370E+03  0.19518333370E+03  0.00000000000E+00 0. -1.
         21   -1    0    0  502  503 -0.00000000000E+00 -0.00000000000E+00 -0.16146475699E+04  0.16146475699E+04  0.00000000000E+00 0. -1.
    9000007    2    1    2  501    0  0.35626113151E+03 -0.10070730005E+03 -0.49147916387E+03  0.73362448820E+03  0.39948612874E+03 0.  0.
    9000005    1    3    3    0    0  0.29769505718E+03  0.36398658581E+02 -0.10232597111E+03  0.31688927683E+03  0.99999687468E+00 0.  0.
          4    1    3    3  501    0  0.58566074332E+02 -0.13710595863E+03 -0.38915319276E+03  0.41673521137E+03  0.00000000000E+00 0.  1.
   -9000007    1    1    2    0  503 -0.35626113151E+03  0.10070730005E+03 -0.92798507236E+03  0.10762064154E+04  0.40000000000E+03 0. -1.
<mgrwt>
<rscale>  2 0.54494146E+03</rscale>
<asrwt>0</asrwt>
<pdfrwt beam="1">  1       21 0.30028206E-01 0.54503574E+03</pdfrwt>
<pdfrwt beam="2">  1       21 0.24840731E+00 0.54503574E+03</pdfrwt>
<totfact> 0.56234796E+02</totfact>
</mgrwt>
</event>
<event>
 6    1  0.8947013E-004  0.4817019E+03  0.7818608E-02  0.1018710E+00
         21   -1    0    0  501  502  0.00000000000E+00  0.00000000000E+00  0.83801404652E+03  0.83801404652E+03  0.00000000000E+00 0.  1.
         21   -1    0    0  502  503 -0.00000000000E+00 -0.00000000000E+00 -0.34012121318E+03  0.34012121318E+03  0.00000000000E+00 0.  1.
    9000007    2    1    2  501    0 -0.25145341893E+03 -0.93850481141E+02  0.50350734249E+03  0.69640062589E+03  0.39927115234E+03 0.  0.
    9000005    1    3    3    0    0 -0.12803395267E+02  0.10986768873E+03  0.93100237537E+01  0.11100681282E+03  0.99999687468E+00 0.  0.
          4    1    3    3  501    0 -0.23865002366E+03 -0.20371816987E+03  0.49419731873E+03  0.58539381306E+03  0.00000000000E+00 0.  1.
   -9000007    1    1    2    0  503  0.25145341893E+03  0.93850481141E+02 -0.56145091409E+01  0.48173463381E+03  0.40000000000E+03 0.  1.
<mgrwt>
<rscale>  2 0.48155058E+03</rscale>
<asrwt>0</asrwt>
<pdfrwt beam="1">  1       21 0.12892524E+00 0.48170191E+03</pdfrwt>
<pdfrwt beam="2">  1       21 0.52326341E-01 0.48170191E+03</pdfrwt>
<totfact> 0.12870178E+03</totfact>
</mgrwt>
</event>
<event>
 6    1  0.8947013E-004  0.4805257E+03  0.7818608E-02  0.1019031E+00
         21   -1    0    0  501  502  0.00000000000E+00  0.00000000000E+00  0.24498345331E+03  0.24498345331E+03  0.00000000000E+00 0. -1.
         21   -1    0    0  502  503 -0.00000000000E+00 -0.00000000000E+00 -0.95247650037E+03  0.95247650037E+03  0.00000000000E+00 0. -1.
    9000007    2    1    2  501    0  0.17520695133E+03 -0.19909881951E+03 -0.41860070243E+03  0.63728444323E+03  0.40070824521E+03 0.  0.
    9000005    1    3    3    0    0  0.30030115847E+01 -0.17684206024E+03  0.76383922317E+01  0.17703524332E+03  0.99999687468E+00 0.  0.
          4    1    3    3  501    0  0.17220393974E+03 -0.22256759272E+02 -0.42623909466E+03  0.46024919991E+03  0.00000000000E+00 0.  1.
   -9000007    1    1    2    0  503 -0.17520695133E+03  0.19909881951E+03 -0.28889234464E+03  0.56017551045E+03  0.40000000000E+03 0. -1.
<mgrwt>
<rscale>  2 0.48037798E+03</rscale>
<asrwt>0</asrwt>
<pdfrwt beam="1">  1       21 0.37689762E-01 0.48052566E+03</pdfrwt>
<pdfrwt beam="2">  1       21 0.14653485E+00 0.48052566E+03</pdfrwt>
<totfact> 0.18240413E+03</totfact>
</mgrwt>
</event>
<event>
 6    1  0.8947013E-004  0.4431628E+03  0.7818608E-02  0.1029860E+00
         21   -1    0    0  501  502  0.00000000000E+00  0.00000000000E+00  0.38284442704E+03  0.38284442704E+03  0.00000000000E+00 0.  1.
         21   -1    0    0  502  503 -0.00000000000E+00 -0.00000000000E+00 -0.65015797877E+03  0.65015797877E+03  0.00000000000E+00 0.  1.
    9000007    2    1    2  501    0  0.10162123666E+03 -0.16145099109E+03  0.10475412097E+03  0.45435946639E+03  0.39884307764E+03 0.  0.
    9000005    1    3    3    0    0  0.48503472245E+01  0.12723919614E+03 -0.12799149489E+02  0.12797717423E+03  0.99999687468E+00 0.  0.
          4    1    3    3  501    0  0.96770889439E+02 -0.28869018723E+03  0.11755327046E+03  0.32638229216E+03  0.00000000000E+00 0.  1.
   -9000007    1    1    2    0  503 -0.10162123666E+03  0.16145099109E+03 -0.37206767270E+03  0.57864293941E+03  0.40000000000E+03 0.  1.
<mgrwt>
<rscale>  2 0.44290161E+03</rscale>
<asrwt>0</asrwt>
<pdfrwt beam="1">  1       21 0.58899142E-01 0.44316283E+03</pdfrwt>
<pdfrwt beam="2">  1       21 0.10002431E+00 0.44316283E+03</pdfrwt>
<totfact> 0.19111337E+03</totfact>
</mgrwt>
</event>
<event>
 6    1  0.8947013E-004  0.4270184E+03  0.7818608E-02  0.1034839E+00
         21   -1    0    0  501  502  0.00000000000E+00  0.00000000000E+00  0.61794258508E+03  0.61794258508E+03  0.00000000000E+00 0. -1.
         21   -1    0    0  502  503 -0.00000000000E+00 -0.00000000000E+00 -0.33052792309E+03  0.33052792309E+03  0.00000000000E+00 0.  1.
    9000007    2    1    2  501    0  0.14324911989E+03  0.38324036504E+02  0.29969623297E+03  0.52169201866E+03  0.40044436337E+03 0.  0.
    9000005    1    3    3    0    0 -0.50790162955E+02 -0.11004163348E+03  0.24208219728E+03  0.27072789289E+03  0.99999687468E+00 0.  0.
          4    1    3    3  501    0  0.19403928285E+03  0.14836566999E+03  0.57614035685E+02  0.25096412578E+03  0.00000000000E+00 0.  1.
   -9000007    1    1    2    0  503 -0.14324911989E+03 -0.38324036504E+02 -0.12281570981E+02  0.42677848951E+03  0.40000000000E+03 0.  1.
<mgrwt>
<rscale>  2 0.42691421E+03</rscale>
<asrwt>0</asrwt>
<pdfrwt beam="1">  1       21 0.95068089E-01 0.42701842E+03</pdfrwt>
<pdfrwt beam="2">  1       21 0.50850450E-01 0.42701842E+03</pdfrwt>
<totfact> 0.29834324E+03</totfact>
</mgrwt>
</event>
<event>
 6    1  0.8947013E-004  0.4293806E+03  0.7818608E-02  0.1034111E+00
         21   -1    0    0  501  502  0.00000000000E+00  0.00000000000E+00  0.10810089507E+04  0.10810089507E+04  0.00000000000E+00 0. -1.
         21   -1    0    0  502  503 -0.00000000000E+00 -0.00000000000E+00 -0.19609243572E+03  0.19609243572E+03  0.00000000000E+00 0. -1.
    9000007    2    1    2  501    0 -0.15332959836E+03  0.16245399752E+02  0.67445793976E+03  0.79953810199E+03  0.40074154425E+03 0.  0.
    9000005    1    3    3    0    0  0.13202313391E+03  0.19343303390E+02  0.13837130627E+03  0.19222874308E+03  0.99999687468E+00 0.  0.
          4    1    3    3  501    0 -0.28535273227E+03 -0.30979036384E+01  0.53608663349E+03  0.60730935892E+03  0.00000000000E+00 0.  1.
   -9000007    1    1    2    0  503  0.15332959836E+03 -0.16245399752E+02  0.21045857523E+03  0.47756328443E+03  0.40000000000E+03 0.  1.
<mgrwt>
<rscale>  2 0.42920745E+03</rscale>
<asrwt>0</asrwt>
<pdfrwt beam="1">  1       21 0.16630907E+00 0.42938056E+03</pdfrwt>
<pdfrwt beam="2">  1       21 0.30168068E-01 0.42938056E+03</pdfrwt>
<totfact> 0.20559120E+03</totfact>
</mgrwt>
</event>
<event>
 6    1  0.8947013E-004  0.4249467E+03  0.7818608E-02  0.1035729E+00
         21   -1    0    0  501  502  0.00000000000E+00  0.00000000000E+00  0.73365572352E+03  0.73365572352E+03  0.00000000000E+00 0. -1.
         21   -1    0    0  502  503 -0.00000000000E+00 -0.00000000000E+00 -0.53747444936E+03  0.53747444936E+03  0.00000000000E+00 0. -1.
    9000007    2    1    2  501    0  0.51537763342E+02 -0.13387878675E+03  0.56734951148E+03  0.70690900083E+03  0.39655415354E+03 0.  0.
    9000005    1    3    3    0    0  0.58506544224E+02 -0.96811258180E+02  0.62656893211E+03  0.63669856456E+03  0.99999687468E+00 0.  0.
          4    1    3    3  501    0 -0.69687808815E+01 -0.37067528567E+02 -0.59219420636E+02  0.70210436272E+02  0.00000000000E+00 0.  1.
   -9000007    1    1    2    0  503 -0.51537763342E+02  0.13387878675E+03 -0.37116823732E+03  0.56422117205E+03  0.40000000000E+03 0. -1.
<mgrwt>
<rscale>  2 0.42413385E+03</rscale>
<asrwt>0</asrwt>
<pdfrwt beam="1">  1       21 0.11287011E+00 0.42494667E+03</pdfrwt>
<pdfrwt beam="2">  1       21 0.82688377E-01 0.42494667E+03</pdfrwt>
<totfact> 0.66652569E+02</totfact>
</mgrwt>
</event>
<event>
 6    1  0.8947013E-004  0.4108454E+03  0.7818608E-02  0.1040115E+00
         21   -1    0    0  501  502  0.00000000000E+00  0.00000000000E+00  0.15914767025E+03  0.15914767025E+03  0.00000000000E+00 0. -1.
         21   -1    0    0  502  503 -0.00000000000E+00 -0.00000000000E+00 -0.13181540391E+04  0.13181540391E+04  0.00000000000E+00 0.  1.
    9000007    2    1    2  501    0 -0.91679847171E+02  0.19717317384E+02 -0.25229912598E+03  0.48185608489E+03  0.39967045249E+03 0.  0.
    9000005    1    3    3    0    0 -0.25477709191E+02 -0.79658111069E+02  0.87885477360E+02  0.12132347444E+03  0.99999687468E+00 0.  0.
          4    1    3    3  501    0 -0.66202137979E+02  0.99375428453E+02 -0.34018460334E+03  0.36053261045E+03  0.00000000000E+00 0.  1.
   -9000007    1    1    2    0  503  0.91679847171E+02 -0.19717317384E+02 -0.90670724288E+03  0.99544562447E+03  0.40000000000E+03 0.  1.
<mgrwt>
<rscale>  2 0.41076520E+03</rscale>
<asrwt>0</asrwt>
<pdfrwt beam="1">  1       21 0.24484256E-01 0.41084543E+03</pdfrwt>
<pdfrwt beam="2">  1       21 0.20279294E+00 0.41084543E+03</pdfrwt>
<totfact> 0.17415061E+03</totfact>
</mgrwt>
</event>
<event>
 6    1  0.8947013E-004  0.4503532E+03  0.7818608E-02  0.1027641E+00
         21   -1    0    0  501  502  0.00000000000E+00  0.00000000000E+00  0.12268127993E+04  0.12268127993E+04  0.00000000000E+00 0.  1.
         21   -1    0    0  502  503 -0.00000000000E+00 -0.00000000000E+00 -0.17758772827E+03  0.17758772827E+03  0.00000000000E+00 0.  1.
    9000007    2    1    2  501    0  0.20595293524E+03  0.10247786167E+02  0.71024896774E+03  0.84099443312E+03  0.40037034318E+03 0.  0.
    9000005    1    3    3    0    0  0.24796618712E+03  0.15968489443E+03  0.45375126208E+03  0.54118176549E+03  0.99999687468E+00 0.  0.
          4    1    3    3  501    0 -0.42013251876E+02 -0.14943710826E+03  0.25649770566E+03  0.29981266762E+03  0.00000000000E+00 0.  1.
   -9000007    1    1    2    0  503 -0.20595293524E+03 -0.10247786167E+02  0.33897610325E+03  0.56340609442E+03  0.40000000000E+03 0. -1.
<mgrwt>
<rscale>  2 0.45027091E+03</rscale>
<asrwt>0</asrwt>
<pdfrwt beam="1">  1       21 0.18874043E+00 0.45035324E+03</pdfrwt>
<pdfrwt beam="2">  1       21 0.27321190E-01 0.45035324E+03</pdfrwt>
<totfact> 0.17175695E+03</totfact>
</mgrwt>
</event>
<event>
 6    1  0.8947013E-004  0.4807768E+03  0.7818608E-02  0.1018952E+00
         21   -1    0    0  501  502  0.00000000000E+00  0.00000000000E+00  0.46159908199E+03  0.46159908199E+03  0.00000000000E+00 0.  1.
         21   -1    0    0  502  503 -0.00000000000E+00 -0.00000000000E+00 -0.11066261736E+04  0.11066261736E+04  0.00000000000E+00 0.  1.
    9000007    2    1    2  501    0 -0.26488830673E+03 -0.23682909396E+02  0.25782676227E+03  0.54554652955E+03  0.40052425809E+03 0.  0.
    9000005    1    3    3    0    0 -0.13900946192E+03  0.18815037441E+03  0.11402999665E+03  0.26024610280E+03  0.99999687468E+00 0.  0.
          4    1    3    3  501    0 -0.12587884481E+03 -0.21183328381E+03  0.14379676563E+03  0.28530042675E+03  0.00000000000E+00 0.  1.
   -9000007    1    1    2    0  503  0.26488830673E+03  0.23682909396E+02 -0.90285385391E+03  0.10226787261E+04  0.40000000000E+03 0.  1.
<mgrwt>
<rscale>  2 0.48066764E+03</rscale>
<asrwt>0</asrwt>
<pdfrwt beam="1">  1       21 0.71015243E-01 0.48077685E+03</pdfrwt>
<pdfrwt beam="2">  1       21 0.17025018E+00 0.48077685E+03</pdfrwt>
<totfact> 0.30877720E+02</totfact>
</mgrwt>
</event>
<event>
 6    1  0.8947013E-004  0.4575672E+03  0.7818608E-02  0.1025528E+00
         21   -1    0    0  501  502  0.00000000000E+00  0.00000000000E+00  0.24332609793E+03  0.24332609793E+03  0.00000000000E+00 0. -1.
         21   -1    0    0  502  503 -0.00000000000E+00 -0.00000000000E+00 -0.85943841079E+03  0.85943841079E+03  0.00000000000E+00 0.  1.
    9000007    2    1    2  501    0 -0.15223120943E+03 -0.16032948188E+03 -0.30791551264E+03  0.55152485889E+03  0.40060931488E+03 0.  0.
    9000005    1    3    3    0    0 -0.20227190914E+02  0.60697541141E+02  0.69625148596E+02  0.94562106912E+02  0.99999687468E+00 0.  0.
          4    1    3    3  501    0 -0.13200401852E+03 -0.22102702302E+03 -0.37754066123E+03  0.45696275198E+03  0.00000000000E+00 0.  1.
   -9000007    1    1    2    0  503  0.15223120943E+03  0.16032948188E+03 -0.30819680022E+03  0.55123964984E+03  0.40000000000E+03 0.  1.
<mgrwt>
<rscale>  2 0.45743376E+03</rscale>
<asrwt>0</asrwt>
<pdfrwt beam="1">  1       21 0.37434784E-01 0.45756716E+03</pdfrwt>
<pdfrwt beam="2">  1       21 0.13222130E+00 0.45756716E+03</pdfrwt>
<totfact> 0.24510674E+03</totfact>
</mgrwt>
</event>
<event>
 6    1  0.8947013E-004  0.4684234E+03  0.7818608E-02  0.1022368E+00
         21   -1    0    0  501  502  0.00000000000E+00  0.00000000000E+00  0.27893421606E+03  0.27893421606E+03  0.00000000000E+00 0. -1.
         21   -1    0    0  502  503 -0.00000000000E+00 -0.00000000000E+00 -0.80692428799E+03  0.80692428799E+03  0.00000000000E+00 0.  1.
    9000007    2    1    2  501    0  0.52059203404E+02  0.23808324500E+03 -0.17781800254E+03  0.50103864257E+03  0.40003335750E+03 0.  0.
    9000005    1    3    3    0    0  0.19467266340E+02  0.79440070198E+02  0.12978141198E+03  0.15340767288E+03  0.99999687468E+00 0.  0.
          4    1    3    3  501    0  0.32591937064E+02  0.15864317480E+03 -0.30759941452E+03  0.34763096969E+03  0.00000000000E+00 0.  1.
   -9000007    1    1    2    0  503 -0.52059203404E+02 -0.23808324500E+03 -0.35017206938E+03  0.58481986148E+03  0.40000000000E+03 0.  1.
<mgrwt>
<rscale>  2 0.46841628E+03</rscale>
<asrwt>0</asrwt>
<pdfrwt beam="1">  1       21 0.42912957E-01 0.46842340E+03</pdfrwt>
<pdfrwt beam="2">  1       21 0.12414220E+00 0.46842340E+03</pdfrwt>
<totfact> 0.21685840E+03</totfact>
</mgrwt>
</event>
<event>
 6    1  0.8947013E-004  0.6610691E+03  0.7818608E-02  0.9786339E-01
         21   -1    0    0  501  502  0.00000000000E+00  0.00000000000E+00  0.67535056123E+03  0.67535056123E+03  0.00000000000E+00 0. -1.
         21   -1    0    0  502  503 -0.00000000000E+00 -0.00000000000E+00 -0.72011593078E+03  0.72011593078E+03  0.00000000000E+00 0.  1.
    9000007    2    1    2  501    0 -0.51821758709E+03  0.91993797534E+02  0.20017421465E+03  0.69047874299E+03  0.39959836331E+03 0.  0.
    9000005    1    3    3    0    0 -0.33348292988E+02  0.11766995401E+02  0.19582792403E+03  0.19899785589E+03  0.99999687468E+00 0.  0.
          4    1    3    3  501    0 -0.48486929410E+03  0.80226802133E+02  0.43462906235E+01  0.49148088710E+03  0.00000000000E+00 0.  1.
   -9000007    1    1    2    0  503  0.51821758709E+03 -0.91993797534E+02 -0.24493958420E+03  0.70498774902E+03  0.40000000000E+03 0. -1.
<mgrwt>
<rscale>  2 0.66100833E+03</rscale>
<asrwt>0</asrwt>
<pdfrwt beam="1">  1       21 0.10390009E+00 0.66106908E+03</pdfrwt>
<pdfrwt beam="2">  1       21 0.11078707E+00 0.66106908E+03</pdfrwt>
<totfact> 0.36969749E+02</totfact>
</mgrwt>
</event>
<event>
 6    1  0.8947013E-004  0.5689056E+03  0.7818608E-02  0.9972107E-01
         21   -1    0    0  501  502  0.00000000000E+00  0.00000000000E+00  0.49275836696E+03  0.49275836696E+03  0.00000000000E+00 0. -1.
         21   -1    0    0  502  503 -0.00000000000E+00 -0.00000000000E+00 -0.17587845521E+04  0.17587845521E+04  0.00000000000E+00 0. -1.
    9000007    2    1    2  501    0  0.37884249513E+03 -0.14186243404E+03  0.25809111139E+03  0.62471160638E+03  0.40000872872E+03 0.  0.
    9000005    1    3    3    0    0  0.38788932097E+03 -0.24523416277E+03  0.24472982087E+03  0.52008807440E+03  0.99999687468E+00 0.  0.
          4    1    3    3  501    0 -0.90468258334E+01  0.10337172874E+03  0.13361290521E+02  0.10462353198E+03  0.00000000000E+00 0.  1.
   -9000007    1    1    2    0  503 -0.37884249513E+03  0.14186243404E+03 -0.15241172965E+04  0.16268313127E+04  0.40000000000E+03 0. -1.
<mgrwt>
<rscale>  2 0.56890405E+03</rscale>
<asrwt>0</asrwt>
<pdfrwt beam="1">  1       21 0.75808981E-01 0.56890559E+03</pdfrwt>
<pdfrwt beam="2">  1       21 0.27058223E+00 0.56890559E+03</pdfrwt>
<totfact> 0.56483449E+01</totfact>
</mgrwt>
</event>
<event>
 6    1  0.8947013E-004  0.5407427E+03  0.7818608E-02  0.1003677E+00
         21   -1    0    0  501  502  0.00000000000E+00  0.00000000000E+00  0.23953277980E+04  0.23953277980E+04  0.00000000000E+00 0.  1.
         21   -1    0    0  502  503 -0.00000000000E+00 -0.00000000000E+00 -0.16723160067E+03  0.16723160067E+03  0.00000000000E+00 0.  1.
    9000007    2    1    2  501    0  0.25814952179E+03  0.25582037972E+03  0.17805810828E+04  0.18608792579E+04  0.40039652552E+03 0.  0.
    9000005    1    3    3    0    0 -0.33247042557E+02  0.15644051272E+03  0.11284192620E+04  0.11396973417E+04  0.99999687468E+00 0.  0.
          4    1    3    3  501    0  0.29139656435E+03  0.99379867003E+02  0.65216182081E+03  0.72118191616E+03  0.00000000000E+00 0.  1.
   -9000007    1    1    2    0  503 -0.25814952179E+03 -0.25582037972E+03  0.44751511454E+03  0.70168014082E+03  0.40000000000E+03 0.  1.
<mgrwt>
<rscale>  2 0.54066925E+03</rscale>
<asrwt>0</asrwt>
<pdfrwt beam="1">  1       21 0.36851194E+00 0.54074266E+03</pdfrwt>
<pdfrwt beam="2">  1       21 0.25727940E-01 0.54074266E+03</pdfrwt>
<totfact> 0.14061893E+02</totfact>
</mgrwt>
</event>
<event>
 6    1  0.8947013E-004  0.4211835E+03  0.7818608E-02  0.1036687E+00
         21   -1    0    0  501  502  0.00000000000E+00  0.00000000000E+00  0.70264881798E+03  0.70264881798E+03  0.00000000000E+00 0.  1.
         21   -1    0    0  502  503 -0.00000000000E+00 -0.00000000000E+00 -0.54256255184E+03  0.54256255184E+03  0.00000000000E+00 0.  1.
    9000007    2    1    2  501    0 -0.87147547964E+01  0.13160405101E+03  0.53532960463E+03  0.68111639884E+03  0.39993273183E+03 0.  0.
    9000005    1    3    3    0    0  0.19510869184E+03  0.74948046760E+02  0.24853567118E+03  0.32473926647E+03  0.99999687468E+00 0.  0.
          4    1    3    3  501    0 -0.20382344663E+03  0.56656004251E+02  0.28679393345E+03  0.35637713238E+03  0.00000000000E+00 0.  1.
   -9000007    1    1    2    0  503  0.87147547964E+01 -0.13160405101E+03 -0.37524333849E+03  0.56409497097E+03  0.40000000000E+03 0.  1.
<mgrwt>
<rscale>  2 0.42116757E+03</rscale>
<asrwt>0</asrwt>
<pdfrwt beam="1">  1       21 0.10809982E+00 0.42118354E+03</pdfrwt>
<pdfrwt beam="2">  1       21 0.83471162E-01 0.42118354E+03</pdfrwt>
<totfact> 0.72702043E+02</totfact>
</mgrwt>
</event>
<event>
 6    1  0.8947013E-004  0.4985261E+03  0.7818608E-02  0.1014224E+00
         21   -1    0    0  501  502  0.00000000000E+00  0.00000000000E+00  0.59100497846E+03  0.59100497846E+03  0.00000000000E+00 0. -1.
         21   -1    0    0  502  503 -0.00000000000E+00 -0.00000000000E+00 -0.62115180520E+03  0.62115180520E+03  0.00000000000E+00 0. -1.
    9000007    2    1    2  501    0 -0.24362081767E+03  0.16815203375E+03  0.33002657031E+03  0.59786769439E+03  0.40112595730E+03 0.  0.
    9000005    1    3    3    0    0 -0.26500681537E+03 -0.48026934836E+02  0.11709437146E+03  0.29367889008E+03  0.99999687468E+00 0.  0.
          4    1    3    3  501    0  0.21385997693E+02  0.21617896859E+03  0.21293219885E+03  0.30418880430E+03  0.00000000000E+00 0.  1.
   -9000007    1    1    2    0  503  0.24362081767E+03 -0.16815203375E+03 -0.36017339705E+03  0.61428908927E+03  0.40000000000E+03 0. -1.
<mgrwt>
<rscale>  2 0.49829954E+03</rscale>
<asrwt>0</asrwt>
<pdfrwt beam="1">  1       21 0.90923843E-01 0.49852607E+03</pdfrwt>
<pdfrwt beam="2">  1       21 0.95561816E-01 0.49852607E+03</pdfrwt>
<totfact> 0.77751724E+02</totfact>
</mgrwt>
</event>
<event>
 6    1  0.8947013E-004  0.4640001E+03  0.7818608E-02  0.1023760E+00
         21   -1    0    0  501  502  0.00000000000E+00  0.00000000000E+00  0.77697177786E+03  0.77697177786E+03  0.00000000000E+00 0. -1.
         21   -1    0    0  502  503 -0.00000000000E+00 -0.00000000000E+00 -0.30841497123E+03  0.30841497123E+03  0.00000000000E+00 0. -1.
    9000007    2    1    2  501    0  0.11849205651E+03 -0.20311514070E+03  0.57906253560E+02  0.46576589359E+03  0.39785500575E+03 0.  0.
    9000005    1    3    3    0    0 -0.57607228021E+01 -0.77977437468E+02 -0.16437566825E+03  0.18202754458E+03  0.99999687468E+00 0.  0.
          4    1    3    3  501    0  0.12425277932E+03 -0.12513770323E+03  0.22228192181E+03  0.28373834901E+03  0.00000000000E+00 0.  1.
   -9000007    1    1    2    0  503 -0.11849205651E+03  0.20311514070E+03  0.41065055306E+03  0.61962085550E+03  0.40000000000E+03 0. -1.
<mgrwt>
<rscale>  2 0.46353748E+03</rscale>
<asrwt>0</asrwt>
<pdfrwt beam="1">  1       21 0.11953412E+00 0.46400014E+03</pdfrwt>
<pdfrwt beam="2">  1       21 0.47448457E-01 0.46400014E+03</pdfrwt>
<totfact> 0.19382860E+03</totfact>
</mgrwt>
</event>
<event>
 6    1  0.8947013E-004  0.4349550E+03  0.7818608E-02  0.1032342E+00
         21   -1    0    0  501  502  0.00000000000E+00  0.00000000000E+00  0.46373646904E+03  0.46373646904E+03  0.00000000000E+00 0.  1.
         21   -1    0    0  502  503 -0.00000000000E+00 -0.00000000000E+00 -0.43933859044E+03  0.43933859044E+03  0.00000000000E+00 0.  1.
    9000007    2    1    2  501    0  0.68216921621E+02  0.15662781137E+03  0.13369084561E+03  0.45459900401E+03  0.39950117967E+03 0.  0.
    9000005    1    3    3    0    0 -0.13713066298E+02 -0.96220527958E+02  0.16031401882E+03  0.18747805954E+03  0.99999687468E+00 0.  0.
          4    1    3    3  501    0  0.81929987919E+02  0.25284833933E+03 -0.26623173204E+02  0.26712094447E+03  0.00000000000E+00 0.  1.
   -9000007    1    1    2    0  503 -0.68216921621E+02 -0.15662781137E+03 -0.10929296700E+03  0.44847605547E+03  0.40000000000E+03 0.  1.
<mgrwt>
<rscale>  2 0.43484025E+03</rscale>
<asrwt>0</asrwt>
<pdfrwt beam="1">  1       21 0.71344072E-01 0.43495496E+03</pdfrwt>
<pdfrwt beam="2">  1       21 0.67590552E-01 0.43495496E+03</pdfrwt>
<totfact> 0.31153015E+03</totfact>
</mgrwt>
</event>
<event>
 6    1  0.8947013E-004  0.4817722E+03  0.7818608E-02  0.1018735E+00
         21   -1    0    0  501  502  0.00000000000E+00  0.00000000000E+00  0.17268503034E+03  0.17268503034E+03  0.00000000000E+00 0. -1.
         21   -1    0    0  502  503 -0.00000000000E+00 -0.00000000000E+00 -0.20833428175E+04  0.20833428175E+04  0.00000000000E+00 0.  1.
    9000007    2    1    2  501    0  0.19389508469E+03 -0.18249054607E+03 -0.28260404370E+03  0.55854232659E+03  0.40150514544E+03 0.  0.
    9000005    1    3    3    0    0  0.29729295894E+03 -0.19956546407E+03 -0.27857294302E+03  0.45366657631E+03  0.99999687468E+00 0.  0.
          4    1    3    3  501    0 -0.10339787426E+03  0.17074917999E+02 -0.40311006844E+01  0.10487575029E+03  0.00000000000E+00 0.  1.
   -9000007    1    1    2    0  503 -0.19389508469E+03  0.18249054607E+03 -0.16280537434E+04  0.16974855212E+04  0.40000000000E+03 0.  1.
<mgrwt>
<rscale>  2 0.48145851E+03</rscale>
<asrwt>0</asrwt>
<pdfrwt beam="1">  1       21 0.26566929E-01 0.48177223E+03</pdfrwt>
<pdfrwt beam="2">  1       21 0.32051426E+00 0.48177223E+03</pdfrwt>
<totfact> 0.26926428E+02</totfact>
</mgrwt>
</event>
<event>
 6    1  0.8947013E-004  0.4718058E+03  0.7818608E-02  0.1021433E+00
         21   -1    0    0  501  502  0.00000000000E+00  0.00000000000E+00  0.30110174050E+03  0.30110174050E+03  0.00000000000E+00 0. -1.
         21   -1    0    0  502  503 -0.00000000000E+00 -0.00000000000E+00 -0.83888302999E+03  0.83888302999E+03  0.00000000000E+00 0. -1.
    9000007    2    1    2  501    0  0.16880631931E+02  0.24963122308E+03 -0.46568372082E+03  0.66270208414E+03  0.39963986440E+03 0.  0.
    9000005    1    3    3    0    0 -0.17883988757E+03  0.11414753189E+03 -0.31895203663E+03  0.38307279477E+03  0.99999687468E+00 0.  0.
          4    1    3    3  501    0  0.19572051950E+03  0.13548369119E+03 -0.14673168419E+03  0.27962928938E+03  0.00000000000E+00 0.  1.
   -9000007    1    1    2    0  503 -0.16880631931E+02 -0.24963122308E+03 -0.72097568669E+02  0.47728268634E+03  0.40000000000E+03 0. -1.
<mgrwt>
<rscale>  2 0.47172945E+03</rscale>
<asrwt>0</asrwt>
<pdfrwt beam="1">  1       21 0.46323346E-01 0.47180579E+03</pdfrwt>
<pdfrwt beam="2">  1       21 0.12905892E+00 0.47180579E+03</pdfrwt>
<totfact> 0.16692399E+03</totfact>
</mgrwt>
</event>
<event>
 6    1  0.8947013E-004  0.4789329E+03  0.7818608E-02  0.1019452E+00
         21   -1    0    0  501  502  0.00000000000E+00  0.00000000000E+00  0.11900712361E+03  0.11900712361E+03  0.00000000000E+00 0.  1.
         21   -1    0    0  502  503 -0.00000000000E+00 -0.00000000000E+00 -0.26726320399E+04  0.26726320399E+04  0.00000000000E+00 0.  1.
    9000007    2    1    2  501    0 -0.19471425719E+03 -0.17737823732E+03 -0.53875976809E+03  0.72063499971E+03  0.39959483739E+03 0.  0.
    9000005    1    3    3    0    0  0.52068390564E+01 -0.53234550033E+01 -0.43833641434E+03  0.43840080118E+03  0.99999687468E+00 0.  0.
          4    1    3    3  501    0 -0.19992109624E+03 -0.17205478232E+03 -0.10042335375E+03  0.28223419853E+03  0.00000000000E+00 0.  1.
   -9000007    1    1    2    0  503  0.19471425719E+03  0.17737823732E+03 -0.20148651482E+04  0.20710041638E+04  0.40000000000E+03 0.  1.
<mgrwt>
<rscale>  2 0.47884825E+03</rscale>
<asrwt>0</asrwt>
<pdfrwt beam="1">  1       21 0.18308790E-01 0.47893286E+03</pdfrwt>
<pdfrwt beam="2">  1       21 0.41117413E+00 0.47893286E+03</pdfrwt>
<totfact> 0.14994702E+02</totfact>
</mgrwt>
</event>
<event>
 6    1  0.8947013E-004  0.4045178E+03  0.7818608E-02  0.1042269E+00
         21   -1    0    0  501  502  0.00000000000E+00  0.00000000000E+00  0.14021319489E+03  0.14021319489E+03  0.00000000000E+00 0. -1.
         21   -1    0    0  502  503 -0.00000000000E+00 -0.00000000000E+00 -0.15433374155E+04  0.15433374155E+04  0.00000000000E+00 0. -1.
    9000007    2    1    2  501    0  0.37100003723E+02 -0.43103466357E+02 -0.28544632293E+03  0.49509017686E+03  0.40050013840E+03 0.  0.
    9000005    1    3    3    0    0  0.70577059903E+02 -0.20512258841E+03 -0.79762132909E+02  0.23112636262E+03  0.99999687468E+00 0.  0.
          4    1    3    3  501    0 -0.33477056180E+02  0.16201912205E+03 -0.20568419003E+03  0.26396381424E+03  0.00000000000E+00 0.  1.
   -9000007    1    1    2    0  503 -0.37100003723E+02  0.43103466357E+02 -0.11176778977E+04  0.11884604335E+04  0.40000000000E+03 0. -1.
<mgrwt>
<rscale>  2 0.40439399E+03</rscale>
<asrwt>0</asrwt>
<pdfrwt beam="1">  1       21 0.21571262E-01 0.40451784E+03</pdfrwt>
<pdfrwt beam="2">  1       21 0.23743651E+00 0.40451784E+03</pdfrwt>
<totfact> 0.13406887E+03</totfact>
</mgrwt>
</event>
<event>
 6    1  0.8947013E-004  0.4155523E+03  0.7818608E-02  0.1038548E+00
         21   -1    0    0  501  502  0.00000000000E+00  0.00000000000E+00  0.45502460258E+03  0.45502460258E+03  0.00000000000E+00 0. -1.
         21   -1    0    0  502  503 -0.00000000000E+00 -0.00000000000E+00 -0.38041707970E+03  0.38041707970E+03  0.00000000000E+00 0. -1.
    9000007    2    1    2  501    0 -0.33358108795E+02 -0.10644318319E+03  0.14075710316E+02  0.41579061889E+03  0.40030088492E+03 0.  0.
    9000005    1    3    3    0    0  0.17705030783E+03 -0.47644924792E+02 -0.46348308250E+02  0.18911905253E+03  0.99999687468E+00 0.  0.
          4    1    3    3  501    0 -0.21040841662E+03 -0.58798258395E+02  0.60424018567E+02  0.22667156636E+03  0.00000000000E+00 0.  1.
   -9000007    1    1    2    0  503  0.33358108795E+02  0.10644318319E+03  0.60531812559E+02  0.41965106339E+03  0.40000000000E+03 0. -1.
<mgrwt>
<rscale>  2 0.41547982E+03</rscale>
<asrwt>0</asrwt>
<pdfrwt beam="1">  1       21 0.70003785E-01 0.41555230E+03</pdfrwt>
<pdfrwt beam="2">  1       21 0.58525704E-01 0.41555230E+03</pdfrwt>
<totfact> 0.44990441E+03</totfact>
</mgrwt>
</event>
<event>
 6    1  0.8947013E-004  0.4570818E+03  0.7818608E-02  0.1025694E+00
         21   -1    0    0  501  502  0.00000000000E+00  0.00000000000E+00  0.19671455250E+04  0.19671455250E+04  0.00000000000E+00 0.  1.
         21   -1    0    0  502  503 -0.00000000000E+00 -0.00000000000E+00 -0.10635786092E+03  0.10635786092E+03  0.00000000000E+00 0.  1.
    9000007    2    1    2  501    0  0.82230321215E+02  0.20533371327E+03  0.87004740982E+03  0.98240760143E+03  0.39902185464E+03 0.  0.
    9000005    1    3    3    0    0  0.10963909992E+03 -0.26834109574E+02  0.65534625954E+03  0.66499663274E+03  0.99999687468E+00 0.  0.
          4    1    3    3  501    0 -0.27408778705E+02  0.23216782284E+03  0.21470115028E+03  0.31741096869E+03  0.00000000000E+00 0.  1.
   -9000007    1    1    2    0  503 -0.82230321215E+02 -0.20533371327E+03  0.99074025424E+03  0.10910957845E+04  0.40000000000E+03 0.  1.
<mgrwt>
<rscale>  2 0.45686770E+03</rscale>
<asrwt>0</asrwt>
<pdfrwt beam="1">  1       21 0.30263774E+00 0.45708179E+03</pdfrwt>
<pdfrwt beam="2">  1       21 0.16362749E-01 0.45708179E+03</pdfrwt>
<totfact> 0.88467955E+02</totfact>
</mgrwt>
</event>
<event>
 6    1  0.8947013E-004  0.4767187E+03  0.7818608E-02  0.1020054E+00
         21   -1    0    0  501  502  0.00000000000E+00  0.00000000000E+00  0.12084698519E+04  0.12084698519E+04  0.00000000000E+00 0.  1.
         21   -1    0    0  502  503 -0.00000000000E+00 -0.00000000000E+00 -0.24618005637E+03  0.24618005637E+03  0.00000000000E+00 0. -1.
    9000007    2    1    2  501    0 -0.22040668583E+03 -0.13668060761E+03  0.12742693969E+03  0.49326721459E+03  0.39976771303E+03 0.  0.
    9000005    1    3    3    0    0  0.37755393389E+02  0.65792011850E+02 -0.75875593035E+02  0.10729475367E+03  0.99999687468E+00 0.  0.
          4    1    3    3  501    0 -0.25816207922E+03 -0.20247261946E+03  0.20330253273E+03  0.38597246092E+03  0.00000000000E+00 0.  1.
   -9000007    1    1    2    0  503  0.22040668583E+03  0.13668060761E+03  0.83486285581E+03  0.96138269366E+03  0.40000000000E+03 0.  1.
<mgrwt>
<rscale>  2 0.47666995E+03</rscale>
<asrwt>0</asrwt>
<pdfrwt beam="1">  1       21 0.18591844E+00 0.47671868E+03</pdfrwt>
<pdfrwt beam="2">  1       21 0.37873855E-01 0.47671868E+03</pdfrwt>
<totfact> 0.92272140E+02</totfact>
</mgrwt>
</event>
<event>
 6    1  0.8947013E-004  0.4012096E+03  0.7818608E-02  0.1043382E+00
         21   -1    0    0  501  502  0.00000000000E+00  0.00000000000E+00  0.96022568553E+02  0.96022568553E+02  0.00000000000E+00 0. -1.
         21   -1    0    0  502  503 -0.00000000000E+00 -0.00000000000E+00 -0.18047335314E+04  0.18047335314E+04  0.00000000000E+00 0. -1.
    9000007    2    1    2  501    0  0.27973329238E+02 -0.27762003097E+00 -0.60016514616E+03  0.72191921051E+03  0.40023313158E+03 0.  0.
    9000005    1    3    3    0    0 -0.11483067216E+03 -0.15304811895E+03 -0.30882527537E+03  0.36329583081E+03  0.99999687468E+00 0.  0.
          4    1    3    3  501    0  0.14280400140E+03  0.15277049892E+03 -0.29133987079E+03  0.35862337970E+03  0.00000000000E+00 0.  1.
   -9000007    1    1    2    0  503 -0.27973329238E+02  0.27762003097E+00 -0.11085458167E+04  0.11788368894E+04  0.40000000000E+03 0.  1.
<mgrwt>
<rscale>  2 0.40115145E+03</rscale>
<asrwt>0</asrwt>
<pdfrwt beam="1">  1       21 0.14772705E-01 0.40120960E+03</pdfrwt>
<pdfrwt beam="2">  1       21 0.27765128E+00 0.40120960E+03</pdfrwt>
<totfact> 0.15582605E+03</totfact>
</mgrwt>
</event>
<event>
 6    1  0.8947013E-004  0.4149024E+03  0.7818608E-02  0.1038765E+00
         21   -1    0    0  501  502  0.00000000000E+00  0.00000000000E+00  0.16549430938E+03  0.16549430938E+03  0.00000000000E+00 0. -1.
         21   -1    0    0  502  503 -0.00000000000E+00 -0.00000000000E+00 -0.10855973211E+04  0.10855973211E+04  0.00000000000E+00 0. -1.
    9000007    2    1    2  501    0 -0.80243596108E+02  0.73741621284E+02 -0.33114285430E+03  0.53084797139E+03  0.40033375745E+03 0.  0.
    9000005    1    3    3    0    0  0.16565291088E+02  0.22477965739E+03 -0.12559786381E+03  0.25802350015E+03  0.99999687468E+00 0.  0.
          4    1    3    3  501    0 -0.96808887197E+02 -0.15103803611E+03 -0.20554499049E+03  0.27282447124E+03  0.00000000000E+00 0.  1.
   -9000007    1    1    2    0  503  0.80243596108E+02 -0.73741621284E+02 -0.58896015742E+03  0.72024365909E+03  0.40000000000E+03 0. -1.
<mgrwt>
<rscale>  2 0.41482184E+03</rscale>
<asrwt>0</asrwt>
<pdfrwt beam="1">  1       21 0.25460662E-01 0.41490237E+03</pdfrwt>
<pdfrwt beam="2">  1       21 0.16701498E+00 0.41490237E+03</pdfrwt>
<totfact> 0.28531081E+03</totfact>
</mgrwt>
</event>
<event>
 6    1  0.8947013E-004  0.5605683E+03  0.7818608E-02  0.9990853E-01
         21   -1    0    0  501  502  0.00000000000E+00  0.00000000000E+00  0.55598197030E+03  0.55598197030E+03  0.00000000000E+00 0.  1.
         21   -1    0    0  502  503 -0.00000000000E+00 -0.00000000000E+00 -0.61548697642E+03  0.61548697642E+03  0.00000000000E+00 0. -1.
    9000007    2    1    2  501    0  0.22596256948E+02 -0.39207937167E+03  0.13793522375E+03  0.57714624911E+03  0.39979349970E+03 0.  0.
    9000005    1    3    3    0    0  0.44024303365E+02  0.62886565674E+02 -0.41897019917E+02  0.87459817635E+02  0.99999687468E+00 0.  0.
          4    1    3    3  501    0 -0.21428046417E+02 -0.45496593734E+03  0.17983224366E+03  0.48968643148E+03  0.00000000000E+00 0.  1.
   -9000007    1    1    2    0  503 -0.22596256948E+02  0.39207937167E+03 -0.19744022986E+03  0.59432269760E+03  0.40000000000E+03 0. -1.
<mgrwt>
<rscale>  2 0.56053147E+03</rscale>
<asrwt>0</asrwt>
<pdfrwt beam="1">  1       21 0.85535687E-01 0.56056830E+03</pdfrwt>
<pdfrwt beam="2">  1       21 0.94690304E-01 0.56056830E+03</pdfrwt>
<totfact> 0.89868486E+02</totfact>
</mgrwt>
</event>
<event>
 6    1  0.8947013E-004  0.4266423E+03  0.7818608E-02  0.1034931E+00
         21   -1    0    0  501  502  0.00000000000E+00  0.00000000000E+00  0.84109642480E+03  0.84109642480E+03  0.00000000000E+00 0.  1.
         21   -1    0    0  502  503 -0.00000000000E+00 -0.00000000000E+00 -0.81742991912E+03  0.81742991912E+03  0.00000000000E+00 0. -1.
    9000007    2    1    2  501    0 -0.14649156431E+03  0.23745494035E+02  0.72291972660E+03  0.83939345246E+03  0.39993100659E+03 0.  0.
    9000005    1    3    3    0    0 -0.14443131521E+03  0.19745637587E+03  0.33958768015E+03  0.41853341287E+03  0.99999687468E+00 0.  0.
          4    1    3    3  501    0 -0.20602490983E+01 -0.17371088183E+03  0.38333204645E+03  0.42086003960E+03  0.00000000000E+00 0.  1.
   -9000007    1    1    2    0  503  0.14649156431E+03 -0.23745494035E+02 -0.69925322092E+03  0.81913289146E+03  0.40000000000E+03 0. -1.
<mgrwt>
<rscale>  2 0.42662610E+03</rscale>
<asrwt>0</asrwt>
<pdfrwt beam="1">  1       21 0.12939945E+00 0.42664227E+03</pdfrwt>
<pdfrwt beam="2">  1       21 0.12575845E+00 0.42664227E+03</pdfrwt>
<totfact> 0.16931517E+02</totfact>
</mgrwt>
</event>
<event>
 6    1  0.8947013E-004  0.4153719E+03  0.7818608E-02  0.1038592E+00
         21   -1    0    0  501  502  0.00000000000E+00  0.00000000000E+00  0.15375171938E+03  0.15375171938E+03  0.00000000000E+00 0.  1.
         21   -1    0    0  502  503 -0.00000000000E+00 -0.00000000000E+00 -0.11712971011E+04  0.11712971011E+04  0.00000000000E+00 0. -1.
    9000007    2    1    2  501    0  0.79133811353E+02  0.78653493478E+02 -0.37275046750E+03  0.55810096466E+03  0.40010654031E+03 0.  0.
    9000005    1    3    3    0    0 -0.14210817397E+02 -0.14726909227E+03 -0.23447903965E+03  0.27725719630E+03  0.99999687468E+00 0.  0.
          4    1    3    3  501    0  0.93344628750E+02  0.22592258575E+03 -0.13827142784E+03  0.28084376836E+03  0.00000000000E+00 0.  1.
   -9000007    1    1    2    0  503 -0.79133811353E+02 -0.78653493478E+02 -0.64479491428E+03  0.76694785586E+03  0.40000000000E+03 0. -1.
<mgrwt>
<rscale>  2 0.41534619E+03</rscale>
<asrwt>0</asrwt>
<pdfrwt beam="1">  1       21 0.23654110E-01 0.41537185E+03</pdfrwt>
<pdfrwt beam="2">  1       21 0.18019956E+00 0.41537185E+03</pdfrwt>
<totfact> 0.26462212E+03</totfact>
</mgrwt>
</event>
<event>
 6    1  0.8947013E-004  0.6157582E+03  0.7818608E-02  0.9873313E-01
         21   -1    0    0  501  502  0.00000000000E+00  0.00000000000E+00  0.61330317266E+03  0.61330317266E+03  0.00000000000E+00 0.  1.
         21   -1    0    0  502  503 -0.00000000000E+00 -0.00000000000E+00 -0.72148524172E+03  0.72148524172E+03  0.00000000000E+00 0.  1.
    9000007    2    1    2  501    0 -0.42305484858E+03  0.20002154768E+03 -0.30675708975E+03  0.68793753259E+03  0.40021758106E+03 0.  0.
    9000005    1    3    3    0    0 -0.16292575213E+03  0.28528499654E+03 -0.23802081687E+03  0.40569352869E+03  0.99999687468E+00 0.  0.
          4    1    3    3  501    0 -0.26012909644E+03 -0.85263448865E+02 -0.68736272877E+02  0.28224400390E+03  0.00000000000E+00 0.  1.
   -9000007    1    1    2    0  503  0.42305484858E+03 -0.20002154768E+03  0.19857502069E+03  0.64685088180E+03  0.40000000000E+03 0.  1.
<mgrwt>
<rscale>  2 0.61572283E+03</rscale>
<asrwt>0</asrwt>
<pdfrwt beam="1">  1       21 0.94354334E-01 0.61575818E+03</pdfrwt>
<pdfrwt beam="2">  1       21 0.11099773E+00 0.61575818E+03</pdfrwt>
<totfact> 0.47242123E+02</totfact>
</mgrwt>
</event>
<event>
 6    1  0.8947013E-004  0.5650707E+03  0.7818608E-02  0.9981522E-01
         21   -1    0    0  501  502  0.00000000000E+00  0.00000000000E+00  0.93345048701E+03  0.93345048701E+03  0.00000000000E+00 0. -1.
         21   -1    0    0  502  503 -0.00000000000E+00 -0.00000000000E+00 -0.11826296482E+04  0.11826296482E+04  0.00000000000E+00 0.  1.
    9000007    2    1    2  501    0 -0.10344854256E+03  0.38319589826E+03  0.76785644171E+03  0.95336687951E+03  0.40219919750E+03 0.  0.
    9000005    1    3    3    0    0 -0.13175517560E+03 -0.22243507045E+02  0.32962993415E+03  0.35568397966E+03  0.99999687468E+00 0.  0.
          4    1    3    3  501    0  0.28306633040E+02  0.40543940531E+03  0.43822650756E+03  0.59768289986E+03  0.00000000000E+00 0.  1.
   -9000007    1    1    2    0  503  0.10344854256E+03 -0.38319589826E+03 -0.10170356029E+04  0.11627132557E+04  0.40000000000E+03 0.  1.
<mgrwt>
<rscale>  2 0.56467949E+03</rscale>
<asrwt>0</asrwt>
<pdfrwt beam="1">  1       21 0.14360777E+00 0.56507070E+03</pdfrwt>
<pdfrwt beam="2">  1       21 0.18194302E+00 0.56507070E+03</pdfrwt>
<totfact> 0.43461968E+01</totfact>
</mgrwt>
</event>
<event>
 6    1  0.8947013E-004  0.4983310E+03  0.7818608E-02  0.1014367E+00
         21   -1    0    0  501  502  0.00000000000E+00  0.00000000000E+00  0.11027556506E+04  0.11027556506E+04  0.00000000000E+00 0.  1.
         21   -1    0    0  502  503 -0.00000000000E+00 -0.00000000000E+00 -0.22601402777E+03  0.22601402777E+03  0.00000000000E+00 0.  1.
    9000007    2    1    2  501    0 -0.10981045965E+03  0.27199615905E+03  0.49967132256E+03  0.70569483621E+03  0.40285670365E+03 0.  0.
    9000005    1    3    3    0    0  0.35155659139E+02  0.14626389251E+03 -0.19970956413E+02  0.15175271239E+03  0.99999687468E+00 0.  0.
          4    1    3    3  501    0 -0.14496611879E+03  0.12573226654E+03  0.51964227897E+03  0.55394212382E+03  0.00000000000E+00 0.  1.
   -9000007    1    1    2    0  503  0.10981045965E+03 -0.27199615905E+03  0.37707030026E+03  0.62307484216E+03  0.40000000000E+03 0.  1.
<mgrwt>
<rscale>  2 0.49775335E+03</rscale>
<asrwt>0</asrwt>
<pdfrwt beam="1">  1       21 0.16965471E+00 0.49833099E+03</pdfrwt>
<pdfrwt beam="2">  1       21 0.34771389E-01 0.49833099E+03</pdfrwt>
<totfact> 0.14212800E+03</totfact>
</mgrwt>
</event>
<event>
 6    1  0.8947013E-004  0.4335676E+03  0.7818608E-02  0.1032748E+00
         21   -1    0    0  501  502  0.00000000000E+00  0.00000000000E+00  0.11072464038E+04  0.11072464038E+04  0.00000000000E+00 0. -1.
         21   -1    0    0  502  503 -0.00000000000E+00 -0.00000000000E+00 -0.43571203982E+03  0.43571203982E+03  0.00000000000E+00 0. -1.
    9000007    2    1    2  501    0 -0.15569738779E+03  0.60301434407E+02  0.93855727657E+03  0.10338620133E+04  0.40012868130E+03 0.  0.
    9000005    1    3    3    0    0 -0.14848813523E+03  0.62289124068E+02  0.97929395362E+03  0.99244461249E+03  0.99999687468E+00 0.  0.
          4    1    3    3  501    0 -0.72092525673E+01 -0.19876896612E+01 -0.40736677051E+02  0.41417400811E+02  0.00000000000E+00 0.  1.
   -9000007    1    1    2    0  503  0.15569738779E+03 -0.60301434407E+02 -0.26702291257E+03  0.50909643035E+03  0.40000000000E+03 0. -1.
<mgrwt>
<rscale>  2 0.43353795E+03</rscale>
<asrwt>0</asrwt>
<pdfrwt beam="1">  1       21 0.17034560E+00 0.43356764E+03</pdfrwt>
<pdfrwt beam="2">  1       21 0.67032622E-01 0.43356764E+03</pdfrwt>
<totfact> 0.35915225E+02</totfact>
</mgrwt>
</event>
<event>
 6    1  0.8947013E-004  0.4894528E+03  0.7818608E-02  0.1016593E+00
         21   -1    0    0  501  502  0.00000000000E+00  0.00000000000E+00  0.28334934544E+03  0.28334934544E+03  0.00000000000E+00 0.  1.
         21   -1    0    0  502  503 -0.00000000000E+00 -0.00000000000E+00 -0.10400138480E+04  0.10400138480E+04  0.00000000000E+00 0.  1.
    9000007    2    1    2  501    0  0.27960875909E+03 -0.32187210879E+02 -0.91815971850E+02  0.49799016050E+03  0.40043345585E+03 0.  0.
    9000005    1    3    3    0    0  0.16809167202E+03  0.17184789745E+03  0.17554556046E+02  0.24103043893E+03  0.99999687468E+00 0.  0.
          4    1    3    3  501    0  0.11151708707E+03 -0.20403510833E+03 -0.10937052790E+03  0.25695972157E+03  0.00000000000E+00 0.  1.
   -9000007    1    1    2    0  503 -0.27960875909E+03  0.32187210879E+02 -0.66484853068E+03  0.82537303291E+03  0.40000000000E+03 0.  1.
<mgrwt>
<rscale>  2 0.48936412E+03</rscale>
<asrwt>0</asrwt>
<pdfrwt beam="1">  1       21 0.43592207E-01 0.48945278E+03</pdfrwt>
<pdfrwt beam="2">  1       21 0.16000213E+00 0.48945278E+03</pdfrwt>
<totfact> 0.10570131E+03</totfact>
</mgrwt>
</event>
<event>
 6    1  0.8947013E-004  0.4470443E+03  0.7818608E-02  0.1028680E+00
         21   -1    0    0  501  502  0.00000000000E+00  0.00000000000E+00  0.45292690565E+03  0.45292690565E+03  0.00000000000E+00 0. -1.
         21   -1    0    0  502  503 -0.00000000000E+00 -0.00000000000E+00 -0.46891702408E+03  0.46891702408E+03  0.00000000000E+00 0.  1.
    9000007    2    1    2  501    0  0.11674616002E+03 -0.16192270302E+03  0.10591184946E+03  0.45847720950E+03  0.39891779121E+03 0.  0.
    9000005    1    3    3    0    0 -0.66755159260E+02 -0.26699563824E+02  0.19950552159E+03  0.21206737404E+03  0.99999687468E+00 0.  0.
          4    1    3    3  501    0  0.18350131928E+03 -0.13522313920E+03 -0.93593672125E+02  0.24640983546E+03  0.00000000000E+00 0.  1.
   -9000007    1    1    2    0  503 -0.11674616002E+03  0.16192270302E+03 -0.12190196789E+03  0.46336672022E+03  0.40000000000E+03 0.  1.
<mgrwt>
<rscale>  2 0.44680211E+03</rscale>
<asrwt>0</asrwt>
<pdfrwt beam="1">  1       21 0.69681062E-01 0.44704432E+03</pdfrwt>
<pdfrwt beam="2">  1       21 0.72141081E-01 0.44704432E+03</pdfrwt>
<totfact> 0.28250449E+03</totfact>
</mgrwt>
</event>
<event>
 6    1  0.8947013E-004  0.5184388E+03  0.7818608E-02  0.1009088E+00
         21   -1    0    0  501  502  0.00000000000E+00  0.00000000000E+00  0.76026264582E+03  0.76026264582E+03  0.00000000000E+00 0.  1.
         21   -1    0    0  502  503 -0.00000000000E+00 -0.00000000000E+00 -0.54834767656E+03  0.54834767656E+03  0.00000000000E+00 0.  1.
    9000007    2    1    2  501    0 -0.32948630122E+03 -0.14230290653E+01  0.49611064867E+03  0.71756850331E+03  0.40026932622E+03 0.  0.
    9000005    1    3    3    0    0 -0.25511010994E+03 -0.47958616115E+02  0.51825773429E+02  0.26470381153E+03  0.99999687468E+00 0.  0.
          4    1    3    3  501    0 -0.74376191280E+02  0.46535587050E+02  0.44428487524E+03  0.45286469178E+03  0.00000000000E+00 0.  1.
   -9000007    1    1    2    0  503  0.32948630122E+03  0.14230290653E+01 -0.28419567941E+03  0.59104181908E+03  0.40000000000E+03 0.  1.
<mgrwt>
<rscale>  2 0.51838681E+03</rscale>
<asrwt>0</asrwt>
<pdfrwt beam="1">  1       21 0.11696348E+00 0.51843879E+03</pdfrwt>
<pdfrwt beam="2">  1       21 0.84361181E-01 0.51843879E+03</pdfrwt>
<totfact> 0.55933799E+02</totfact>
</mgrwt>
</event>
<event>
 6    1  0.8947013E-004  0.4050191E+03  0.7818608E-02  0.1042087E+00
         21   -1    0    0  501  502  0.00000000000E+00  0.00000000000E+00  0.64346609161E+03  0.64346609161E+03  0.00000000000E+00 0.  1.
         21   -1    0    0  502  503 -0.00000000000E+00 -0.00000000000E+00 -0.74412989064E+03  0.74412989064E+03  0.00000000000E+00 0.  1.
    9000007    2    1    2  501    0 -0.14719655763E+02  0.59359061058E+02  0.51233085033E+03  0.65308757077E+03  0.40037520964E+03 0.  0.
    9000005    1    3    3    0    0 -0.11541623465E+03 -0.13996123205E+03  0.24203208407E+03  0.30247410370E+03  0.99999687468E+00 0.  0.
          4    1    3    3  501    0  0.10069657889E+03  0.19932029311E+03  0.27029876626E+03  0.35061346706E+03  0.00000000000E+00 0.  1.
   -9000007    1    1    2    0  503  0.14719655763E+02 -0.59359061058E+02 -0.61299464936E+03  0.73450841149E+03  0.40000000000E+03 0.  1.
<mgrwt>
<rscale>  2 0.40492635E+03</rscale>
<asrwt>0</asrwt>
<pdfrwt beam="1">  1       21 0.98994783E-01 0.40501910E+03</pdfrwt>
<pdfrwt beam="2">  1       21 0.11448152E+00 0.40501910E+03</pdfrwt>
<totfact> 0.42432829E+02</totfact>
</mgrwt>
</event>
<event>
 6    1  0.8947013E-004  0.4256317E+03  0.7818608E-02  0.1035268E+00
         21   -1    0    0  501  502  0.00000000000E+00  0.00000000000E+00  0.36920259851E+03  0.36920259851E+03  0.00000000000E+00 0.  1.
         21   -1    0    0  502  503 -0.00000000000E+00 -0.00000000000E+00 -0.56660741604E+03  0.56660741604E+03  0.00000000000E+00 0.  1.
    9000007    2    1    2  501    0 -0.91341501812E+02 -0.11322142594E+03 -0.27026828288E+03  0.50398661798E+03  0.39974392444E+03 0.  0.
    9000005    1    3    3    0    0  0.69115272810E+02 -0.26093971863E+02 -0.30868429725E+03  0.31740323197E+03  0.99999687468E+00 0.  0.
          4    1    3    3  501    0 -0.16045677462E+03 -0.87127454073E+02  0.38416014368E+02  0.18658338601E+03  0.00000000000E+00 0.  1.
   -9000007    1    1    2    0  503  0.91341501812E+02  0.11322142594E+03  0.72863465353E+02  0.43182339657E+03  0.40000000000E+03 0.  1.
<mgrwt>
<rscale>  2 0.42557155E+03</rscale>
<asrwt>0</asrwt>
<pdfrwt beam="1">  1       21 0.56800400E-01 0.42563172E+03</pdfrwt>
<pdfrwt beam="2">  1       21 0.87170372E-01 0.42563172E+03</pdfrwt>
<totfact> 0.28907589E+03</totfact>
</mgrwt>
</event>
<event>
 6    1  0.8947013E-004  0.4238981E+03  0.7818608E-02  0.1035833E+00
         21   -1    0    0  501  502  0.00000000000E+00  0.00000000000E+00  0.47116417641E+03  0.47116417641E+03  0.00000000000E+00 0.  1.
         21   -1    0    0  502  503 -0.00000000000E+00 -0.00000000000E+00 -0.38562230126E+03  0.38562230126E+03  0.00000000000E+00 0.  1.
    9000007    2    1    2  501    0 -0.73717476705E+02  0.11939569347E+03 -0.38181917710E+01  0.42357195858E+03  0.39963611889E+03 0.  0.
    9000005    1    3    3    0    0  0.65225605693E+02  0.21763389555E+03 -0.74799976479E+02  0.23919642264E+03  0.99999687468E+00 0.  0.
          4    1    3    3  501    0 -0.13894308240E+03 -0.98238202079E+02  0.70981784708E+02  0.18437553594E+03  0.00000000000E+00 0.  1.
   -9000007    1    1    2    0  503  0.73717476705E+02 -0.11939569347E+03  0.89360066917E+02  0.43321451909E+03  0.40000000000E+03 0.  1.
<mgrwt>
<rscale>  2 0.42381224E+03</rscale>
<asrwt>0</asrwt>
<pdfrwt beam="1">  1       21 0.72486797E-01 0.42389810E+03</pdfrwt>
<pdfrwt beam="2">  1       21 0.59326507E-01 0.42389810E+03</pdfrwt>
<totfact> 0.40253045E+03</totfact>
</mgrwt>
</event>
<event>
 6    1  0.8947013E-004  0.5284759E+03  0.7818608E-02  0.1006617E+00
         21   -1    0    0  501  502  0.00000000000E+00  0.00000000000E+00  0.30618333388E+03  0.30618333388E+03  0.00000000000E+00 0.  1.
         21   -1    0    0  502  503 -0.00000000000E+00 -0.00000000000E+00 -0.91406890283E+03  0.91406890283E+03  0.00000000000E+00 0.  1.
    9000007    2    1    2  501    0  0.26103069534E+03 -0.22616320725E+03 -0.27302637410E+03  0.59461855747E+03  0.39967612851E+03 0.  0.
    9000005    1    3    3    0    0  0.26410225283E+03  0.35460284517E+02 -0.13155177537E+03  0.29717722208E+03  0.99999687468E+00 0.  0.
          4    1    3    3  501    0 -0.30715574864E+01 -0.26162349177E+03 -0.14147459873E+03  0.29744133539E+03  0.00000000000E+00 0.  1.
   -9000007    1    1    2    0  503 -0.26103069534E+03  0.22616320725E+03 -0.33485919485E+03  0.62563367924E+03  0.40000000000E+03 0.  1.
<mgrwt>
<rscale>  2 0.52841466E+03</rscale>
<asrwt>0</asrwt>
<pdfrwt beam="1">  1       21 0.47105128E-01 0.52847594E+03</pdfrwt>
<pdfrwt beam="2">  1       21 0.14062599E+00 0.52847594E+03</pdfrwt>
<totfact> 0.12594817E+03</totfact>
</mgrwt>
</event>
<event>
 6    1  0.8947013E-004  0.4355067E+03  0.7818608E-02  0.1032176E+00
         21   -1    0    0  501  502  0.00000000000E+00  0.00000000000E+00  0.18785265537E+04  0.18785265537E+04  0.00000000000E+00 0. -1.
         21   -1    0    0  502  503 -0.00000000000E+00 -0.00000000000E+00 -0.10264339942E+03  0.10264339942E+03  0.00000000000E+00 0. -1.
    9000007    2    1    2  501    0 -0.10505235366E+03  0.13649212948E+03  0.10186700399E+04  0.11076496047E+04  0.39941569613E+03 0.  0.
    9000005    1    3    3    0    0  0.22781943043E+02  0.19294771656E+03  0.91031301998E+03  0.93081611106E+03  0.99999687468E+00 0.  0.
          4    1    3    3  501    0 -0.12783429670E+03 -0.56455587078E+02  0.10835701987E+03  0.17683349367E+03  0.00000000000E+00 0.  1.
   -9000007    1    1    2    0  503  0.10505235366E+03 -0.13649212948E+03  0.75721311443E+03  0.87352034841E+03  0.40000000000E+03 0. -1.
<mgrwt>
<rscale>  2 0.43537250E+03</rscale>
<asrwt>0</asrwt>
<pdfrwt beam="1">  1       21 0.28900406E+00 0.43550671E+03</pdfrwt>
<pdfrwt beam="2">  1       21 0.15791294E-01 0.43550671E+03</pdfrwt>
<totfact> 0.11549650E+03</totfact>
</mgrwt>
</event>
<event>
 6    1  0.8947013E-004  0.4675500E+03  0.7818608E-02  0.1022720E+00
         21   -1    0    0  501  502  0.00000000000E+00  0.00000000000E+00  0.46543814161E+03  0.46543814161E+03  0.00000000000E+00 0.  1.
         21   -1    0    0  502  503 -0.00000000000E+00 -0.00000000000E+00 -0.48313552756E+03  0.48313552756E+03  0.00000000000E+00 0.  1.
    9000007    2    1    2  501    0  0.13740372320E+03 -0.19930680504E+03  0.74628969479E+02  0.47199509056E+03  0.39825481384E+03 0.  0.
    9000005    1    3    3    0    0 -0.99542988009E+02 -0.15458743258E+03 -0.62990239247E+02  0.19435753396E+03  0.99999687468E+00 0.  0.
          4    1    3    3  501    0  0.23694671121E+03 -0.44719372466E+02  0.13761920873E+03  0.27763755660E+03  0.00000000000E+00 0.  1.
   -9000007    1    1    2    0  503 -0.13740372320E+03  0.19930680504E+03 -0.92326355429E+02  0.47657857861E+03  0.40000000000E+03 0.  1.
<mgrwt>
<rscale>  2 0.46717649E+03</rscale>
<asrwt>0</asrwt>
<pdfrwt beam="1">  1       21 0.71605868E-01 0.46754998E+03</pdfrwt>
<pdfrwt beam="2">  1       21 0.74328543E-01 0.46754998E+03</pdfrwt>
<totfact> 0.24642788E+03</totfact>
</mgrwt>
</event>
<event>
 6    1  0.8947013E-004  0.4189835E+03  0.7818608E-02  0.1037593E+00
         21   -1    0    0  501  502  0.00000000000E+00  0.00000000000E+00  0.56557400653E+03  0.56557400653E+03  0.00000000000E+00 0.  1.
         21   -1    0    0  502  503 -0.00000000000E+00 -0.00000000000E+00 -0.40612605200E+03  0.40612605200E+03  0.00000000000E+00 0.  1.
    9000007    2    1    2  501    0  0.98172560935E+02  0.62532761808E+02  0.31795989690E+03  0.52597117918E+03  0.40249097787E+03 0.  0.
    9000005    1    3    3    0    0  0.20166789184E+02  0.13607744073E+03 -0.47168266864E+02  0.14542907087E+03  0.99999687468E+00 0.  0.
          4    1    3    3  501    0  0.78005771751E+02 -0.73544678920E+02  0.36512816376E+03  0.38054210831E+03  0.00000000000E+00 0.  1.
   -9000007    1    1    2    0  503 -0.98172560935E+02 -0.62532761808E+02 -0.15851194237E+03  0.44572887936E+03  0.40000000000E+03 0.  1.
<mgrwt>
<rscale>  2 0.41838414E+03</rscale>
<asrwt>0</asrwt>
<pdfrwt beam="1">  1       21 0.87011386E-01 0.41898351E+03</pdfrwt>
<pdfrwt beam="2">  1       21 0.62480931E-01 0.41898351E+03</pdfrwt>
<totfact> 0.23631434E+03</totfact>
</mgrwt>
</event>
<event>
 6    1  0.8947013E-004  0.8494241E+03  0.7818608E-02  0.9491241E-01
         21   -1    0    0  501  502  0.00000000000E+00  0.00000000000E+00  0.30407029727E+04  0.30407029727E+04  0.00000000000E+00 0. -1.
         21   -1    0    0  502  503 -0.00000000000E+00 -0.00000000000E+00 -0.45895672347E+03  0.45895672347E+03  0.00000000000E+00 0.  1.
    9000007    2    1    2  501    0  0.72433497465E+03 -0.19198999045E+03  0.25070991941E+04  0.26469619216E+04  0.39917381302E+03 0.  0.
    9000005    1    3    3    0    0  0.52636054602E+03  0.52902003354E+02  0.17081405738E+04  0.17881832306E+04  0.99999687468E+00 0.  0.
          4    1    3    3  501    0  0.19797442863E+03 -0.24489199380E+03  0.79895862031E+03  0.85877869092E+03  0.00000000000E+00 0.  1.
   -9000007    1    1    2    0  503 -0.72433497465E+03  0.19198999045E+03  0.74647055043E+02  0.85269777457E+03  0.40000000000E+03 0.  1.
<mgrwt>
<rscale>  2 0.84932690E+03</rscale>
<asrwt>0</asrwt>
<pdfrwt beam="1">  1       21 0.46780045E+00 0.84942411E+03</pdfrwt>
<pdfrwt beam="2">  1       21 0.70608728E-01 0.84942411E+03</pdfrwt>
<totfact> 0.31912874E+00</totfact>
</mgrwt>
</event>
<event>
 6    1  0.8947013E-004  0.5151891E+03  0.7818608E-02  0.1010002E+00
         21   -1    0    0  501  502  0.00000000000E+00  0.00000000000E+00  0.41944171211E+03  0.41944171211E+03  0.00000000000E+00 0.  1.
         21   -1    0    0  502  503 -0.00000000000E+00 -0.00000000000E+00 -0.65438939138E+03  0.65438939138E+03  0.00000000000E+00 0.  1.
    9000007    2    1    2  501    0 -0.11881841723E+02  0.32158914108E+03 -0.22009791531E+03  0.56023469646E+03  0.40231712487E+03 0.  0.
    9000005    1    3    3    0    0  0.19246715845E+02  0.24966898429E+03 -0.33678201243E+03  0.41967625818E+03  0.99999687468E+00 0.  0.
          4    1    3    3  501    0 -0.31128557567E+02  0.71920156792E+02  0.11668409712E+03  0.14055843827E+03  0.00000000000E+00 0.  1.
   -9000007    1    1    2    0  503  0.11881841723E+02 -0.32158914108E+03 -0.14849763956E+02  0.51359640703E+03  0.40000000000E+03 0.  1.
<mgrwt>
<rscale>  2 0.51473666E+03</rscale>
<asrwt>0</asrwt>
<pdfrwt beam="1">  1       21 0.64529494E-01 0.51518911E+03</pdfrwt>
<pdfrwt beam="2">  1       21 0.10067529E+00 0.51518911E+03</pdfrwt>
<totfact> 0.14985050E+03</totfact>
</mgrwt>
</event>
<event>
 6    1  0.8947013E-004  0.5946759E+03  0.7818608E-02  0.9916574E-01
         21   -1    0    0  501  502  0.00000000000E+00  0.00000000000E+00  0.39326296007E+03  0.39326296007E+03  0.00000000000E+00 0.  1.
         21   -1    0    0  502  503 -0.00000000000E+00 -0.00000000000E+00 -0.10662483874E+04  0.10662483874E+04  0.00000000000E+00 0. -1.
    9000007    2    1    2  501    0 -0.43988776224E+03 -0.10109738459E+01 -0.47559683144E+02  0.59657471774E+03  0.40017146944E+03 0.  0.
    9000005    1    3    3    0    0 -0.40277013109E+03 -0.27187613484E+02 -0.19065423209E+03  0.44644482418E+03  0.99999687468E+00 0.  0.
          4    1    3    3  501    0 -0.37117631148E+02  0.26176639638E+02  0.14309454894E+03  0.15012989357E+03  0.00000000000E+00 0.  1.
   -9000007    1    1    2    0  503  0.43988776224E+03  0.10109738459E+01 -0.62542574419E+03  0.86293662973E+03  0.40000000000E+03 0.  1.
<mgrwt>
<rscale>  2 0.59464709E+03</rscale>
<asrwt>0</asrwt>
<pdfrwt beam="1">  1       21 0.60501994E-01 0.59467594E+03</pdfrwt>
<pdfrwt beam="2">  1       21 0.16403821E+00 0.59467594E+03</pdfrwt>
<totfact> 0.46901227E+02</totfact>
</mgrwt>
</event>
<event>
 6    1  0.8947013E-004  0.4417993E+03  0.7818608E-02  0.1030228E+00
         21   -1    0    0  501  502  0.00000000000E+00  0.00000000000E+00  0.75712012961E+03  0.75712012961E+03  0.00000000000E+00 0. -1.
         21   -1    0    0  502  503 -0.00000000000E+00 -0.00000000000E+00 -0.28632237533E+03  0.28632237533E+03  0.00000000000E+00 0. -1.
    9000007    2    1    2  501    0  0.15084430908E+03  0.11150174230E+03  0.40067003022E+03  0.59611204342E+03  0.39953279099E+03 0.  0.
    9000005    1    3    3    0    0  0.25522400833E+03  0.17090011337E+03  0.35026114851E+03  0.46586480370E+03  0.99999687468E+00 0.  0.
          4    1    3    3  501    0 -0.10437969924E+03 -0.59398371073E+02  0.50408881713E+02  0.13024723972E+03  0.00000000000E+00 0.  1.
   -9000007    1    1    2    0  503 -0.15084430908E+03 -0.11150174230E+03  0.70127724051E+02  0.44733046152E+03  0.40000000000E+03 0. -1.
<mgrwt>
<rscale>  2 0.44169355E+03</rscale>
<asrwt>0</asrwt>
<pdfrwt beam="1">  1       21 0.11648002E+00 0.44179933E+03</pdfrwt>
<pdfrwt beam="2">  1       21 0.44049597E-01 0.44179933E+03</pdfrwt>
<totfact> 0.24389033E+03</totfact>
</mgrwt>
</event>
<event>
 6    1  0.8947013E-004  0.4099820E+03  0.7818608E-02  0.1040445E+00
         21   -1    0    0  501  502  0.00000000000E+00  0.00000000000E+00  0.10428221546E+04  0.10428221546E+04  0.00000000000E+00 0.  1.
         21   -1    0    0  502  503 -0.00000000000E+00 -0.00000000000E+00 -0.37066922665E+03  0.37066922665E+03  0.00000000000E+00 0.  1.
    9000007    2    1    2  501    0 -0.10974355791E+02  0.89245949093E+02  0.86764645940E+03  0.95928548442E+03  0.39916536196E+03 0.  0.
    9000005    1    3    3    0    0  0.78073530880E+02 -0.91096500964E+02  0.74938095842E+02  0.14145941791E+03  0.99999687468E+00 0.  0.
          4    1    3    3  501    0 -0.89047886671E+02  0.18034245006E+03  0.79270836356E+03  0.81782606652E+03  0.00000000000E+00 0.  1.
   -9000007    1    1    2    0  503  0.10974355791E+02 -0.89245949093E+02 -0.19549353142E+03  0.45420589686E+03  0.40000000000E+03 0.  1.
<mgrwt>
<rscale>  2 0.40977832E+03</rscale>
<asrwt>0</asrwt>
<pdfrwt beam="1">  1       21 0.16043418E+00 0.40998204E+03</pdfrwt>
<pdfrwt beam="2">  1       21 0.57026035E-01 0.40998204E+03</pdfrwt>
<totfact> 0.61392594E+02</totfact>
</mgrwt>
</event>
<event>
 6    1  0.8947013E-004  0.5257321E+03  0.7818608E-02  0.1007290E+00
         21   -1    0    0  501  502  0.00000000000E+00  0.00000000000E+00  0.41333824262E+03  0.41333824262E+03  0.00000000000E+00 0. -1.
         21   -1    0    0  502  503 -0.00000000000E+00 -0.00000000000E+00 -0.12653534149E+04  0.12653534149E+04  0.00000000000E+00 0. -1.
    9000007    2    1    2  501    0  0.13194614729E+03 -0.31414059202E+03  0.15047553170E+03  0.54684285627E+03  0.40037498232E+03 0.  0.
    9000005    1    3    3    0    0  0.27291454337E+03 -0.24341949824E+03  0.81313164318E+02  0.37463079264E+03  0.99999687468E+00 0.  0.
          4    1    3    3  501    0 -0.14096839608E+03 -0.70721093777E+02  0.69162367378E+02  0.17221206363E+03  0.00000000000E+00 0.  1.
   -9000007    1    1    2    0  503 -0.13194614729E+03  0.31414059202E+03 -0.10024907040E+04  0.11318488013E+04  0.40000000000E+03 0. -1.
<mgrwt>
<rscale>  2 0.52566069E+03</rscale>
<asrwt>0</asrwt>
<pdfrwt beam="1">  1       21 0.63590500E-01 0.52573208E+03</pdfrwt>
<pdfrwt beam="2">  1       21 0.19466975E+00 0.52573208E+03</pdfrwt>
<totfact> 0.26100624E+02</totfact>
</mgrwt>
</event>
<event>
 6    1  0.8947013E-004  0.8110157E+03  0.7818608E-02  0.9544331E-01
         21   -1    0    0  501  502  0.00000000000E+00  0.00000000000E+00  0.15507036091E+04  0.15507036091E+04  0.00000000000E+00 0.  1.
         21   -1    0    0  502  503 -0.00000000000E+00 -0.00000000000E+00 -0.43434100886E+03  0.43434100886E+03  0.00000000000E+00 0.  1.
    9000007    2    1    2  501    0  0.26969884073E+03 -0.65149518368E+03  0.71160349289E+03  0.10789467347E+04  0.40070323961E+03 0.  0.
    9000005    1    3    3    0    0  0.26642483032E+03 -0.29100183971E+03  0.56645326426E+03  0.69031482782E+03  0.99999687468E+00 0.  0.
          4    1    3    3  501    0  0.32740104067E+01 -0.36049334397E+03  0.14515022863E+03  0.38863190690E+03  0.00000000000E+00 0.  1.
   -9000007    1    1    2    0  503 -0.26969884073E+03  0.65149518368E+03  0.40475910740E+03  0.90609788327E+03  0.40000000000E+03 0.  1.
<mgrwt>
<rscale>  2 0.81092892E+03</rscale>
<asrwt>0</asrwt>
<pdfrwt beam="1">  1       21 0.23856978E+00 0.81101574E+03</pdfrwt>
<pdfrwt beam="2">  1       21 0.66821695E-01 0.81101574E+03</pdfrwt>
<totfact> 0.10845650E+02</totfact>
</mgrwt>
</event>
<event>
 6    1  0.8947013E-004  0.4088426E+03  0.7818608E-02  0.1040785E+00
         21   -1    0    0  501  502  0.00000000000E+00  0.00000000000E+00  0.39217466551E+03  0.39217466551E+03  0.00000000000E+00 0. -1.
         21   -1    0    0  502  503 -0.00000000000E+00 -0.00000000000E+00 -0.43024880730E+03  0.43024880730E+03  0.00000000000E+00 0. -1.
    9000007    2    1    2  501    0 -0.60185034253E+02 -0.59414344094E+02  0.22241768399E+02  0.40915562788E+03  0.39970154982E+03 0.  0.
    9000005    1    3    3    0    0  0.15810774225E+03 -0.88417697312E+02 -0.27948692488E+02  0.18329723610E+03  0.99999687468E+00 0.  0.
          4    1    3    3  501    0 -0.21829277650E+03  0.29003353218E+02  0.50190460887E+02  0.22585839178E+03  0.00000000000E+00 0.  1.
   -9000007    1    1    2    0  503  0.60185034253E+02  0.59414344094E+02 -0.60315910188E+02  0.41326784493E+03  0.40000000000E+03 0. -1.
<mgrwt>
<rscale>  2 0.40876962E+03</rscale>
<asrwt>0</asrwt>
<pdfrwt beam="1">  1       21 0.60334564E-01 0.40884264E+03</pdfrwt>
<pdfrwt beam="2">  1       21 0.66192124E-01 0.40884264E+03</pdfrwt>
<totfact> 0.47826840E+03</totfact>
</mgrwt>
</event>
<event>
 6    1  0.8947013E-004  0.4320012E+03  0.7818608E-02  0.1033243E+00
         21   -1    0    0  501  502  0.00000000000E+00  0.00000000000E+00  0.43049632014E+03  0.43049632014E+03  0.00000000000E+00 0.  1.
         21   -1    0    0  502  503 -0.00000000000E+00 -0.00000000000E+00 -0.56643790206E+03  0.56643790206E+03  0.00000000000E+00 0.  1.
    9000007    2    1    2  501    0  0.16222273090E+03 -0.12901823829E+02 -0.30960257524E+03  0.53148732718E+03  0.40017790154E+03 0.  0.
    9000005    1    3    3    0    0  0.79142334789E+02  0.40714457460E+02  0.85968860102E+02  0.12374498415E+03  0.99999687468E+00 0.  0.
          4    1    3    3  501    0  0.83080396111E+02 -0.53616281289E+02 -0.39557143535E+03  0.40774234303E+03  0.00000000000E+00 0.  1.
   -9000007    1    1    2    0  503 -0.16222273090E+03  0.12901823829E+02  0.17366099332E+03  0.46544689502E+03  0.40000000000E+03 0.  1.
<mgrwt>
<rscale>  2 0.43195998E+03</rscale>
<asrwt>0</asrwt>
<pdfrwt beam="1">  1       21 0.66230204E-01 0.43200119E+03</pdfrwt>
<pdfrwt beam="2">  1       21 0.87144292E-01 0.43200119E+03</pdfrwt>
<totfact> 0.20590001E+03</totfact>
</mgrwt>
</event>
<event>
 6    1  0.8947013E-004  0.4404799E+03  0.7818608E-02  0.1030666E+00
         21   -1    0    0  501  502  0.00000000000E+00  0.00000000000E+00  0.12601332735E+04  0.12601332735E+04  0.00000000000E+00 0.  1.
         21   -1    0    0  502  503 -0.00000000000E+00 -0.00000000000E+00 -0.18309713326E+03  0.18309713326E+03  0.00000000000E+00 0.  1.
    9000007    2    1    2  501    0 -0.14316493532E+03 -0.11295862923E+03  0.82828106757E+03  0.93812157018E+03  0.40095723328E+03 0.  0.
    9000005    1    3    3    0    0 -0.17048516646E+02 -0.21981808851E+03  0.68418146383E+03  0.71882954822E+03  0.99999687468E+00 0.  0.
          4    1    3    3  501    0 -0.12611641867E+03  0.10685945928E+03  0.14409960374E+03  0.21929202196E+03  0.00000000000E+00 0.  1.
   -9000007    1    1    2    0  503  0.14316493532E+03  0.11295862923E+03  0.24875507269E+03  0.50510883660E+03  0.40000000000E+03 0.  1.
<mgrwt>
<rscale>  2 0.44026196E+03</rscale>
<asrwt>0</asrwt>
<pdfrwt beam="1">  1       21 0.19386665E+00 0.44047991E+03</pdfrwt>
<pdfrwt beam="2">  1       21 0.28168790E-01 0.44047991E+03</pdfrwt>
<totfact> 0.14987335E+03</totfact>
</mgrwt>
</event>
<event>
 6    1  0.8947013E-004  0.4131967E+03  0.7818608E-02  0.1039348E+00
         21   -1    0    0  501  502  0.00000000000E+00  0.00000000000E+00  0.42099985199E+03  0.42099985199E+03  0.00000000000E+00 0.  1.
         21   -1    0    0  502  503 -0.00000000000E+00 -0.00000000000E+00 -0.42927198516E+03  0.42927198516E+03  0.00000000000E+00 0.  1.
    9000007    2    1    2  501    0  0.66440513531E+02  0.79480465337E+02 -0.10518777694E+03  0.42586150715E+03  0.39945221072E+03 0.  0.
    9000005    1    3    3    0    0  0.21205123850E+03  0.42381427653E+02 -0.15665684994E+03  0.26702861604E+03  0.99999687468E+00 0.  0.
          4    1    3    3  501    0 -0.14561072497E+03  0.37099037684E+02  0.51469073003E+02  0.15883289111E+03  0.00000000000E+00 0.  1.
   -9000007    1    1    2    0  503 -0.66440513531E+02 -0.79480465337E+02  0.96915643771E+02  0.42441033001E+03  0.40000000000E+03 0. -1.
<mgrwt>
<rscale>  2 0.41306404E+03</rscale>
<asrwt>0</asrwt>
<pdfrwt beam="1">  1       21 0.64769208E-01 0.41319667E+03</pdfrwt>
<pdfrwt beam="2">  1       21 0.66041843E-01 0.41319667E+03</pdfrwt>
<totfact> 0.41051287E+03</totfact>
</mgrwt>
</event>
<event>
 6    1  0.8947013E-004  0.6563654E+03  0.7818608E-02  0.9794965E-01
         21   -1    0    0  501  502  0.00000000000E+00  0.00000000000E+00  0.14943189638E+04  0.14943189638E+04  0.00000000000E+00 0. -1.
         21   -1    0    0  502  503 -0.00000000000E+00 -0.00000000000E+00 -0.48848104336E+03  0.48848104336E+03  0.00000000000E+00 0.  1.
    9000007    2    1    2  501    0  0.51995761737E+03  0.17204451719E+02  0.11376836179E+04  0.13134456877E+04  0.40020450169E+03 0.  0.
    9000005    1    3    3    0    0  0.38286501291E+03  0.15572670436E+03  0.97707782625E+03  0.10609045683E+04  0.99999687468E+00 0.  0.
          4    1    3    3  501    0  0.13709260446E+03 -0.13852225264E+03  0.16060579161E+03  0.25254111937E+03  0.00000000000E+00 0.  1.
   -9000007    1    1    2    0  503 -0.51995761737E+03 -0.17204451719E+02 -0.13184569744E+03  0.66935431944E+03  0.40000000000E+03 0.  1.
<mgrwt>
<rscale>  2 0.65633425E+03</rscale>
<asrwt>0</asrwt>
<pdfrwt beam="1">  1       21 0.22989522E+00 0.65636542E+03</pdfrwt>
<pdfrwt beam="2">  1       21 0.75150931E-01 0.65636542E+03</pdfrwt>
<totfact> 0.99443255E+01</totfact>
</mgrwt>
</event>
<event>
 6    1  0.8947013E-004  0.4742426E+03  0.7818608E-02  0.1020794E+00
         21   -1    0    0  501  502  0.00000000000E+00  0.00000000000E+00  0.11711632772E+04  0.11711632772E+04  0.00000000000E+00 0. -1.
         21   -1    0    0  502  503 -0.00000000000E+00 -0.00000000000E+00 -0.24196240894E+03  0.24196240894E+03  0.00000000000E+00 0.  1.
    9000007    2    1    2  501    0 -0.25326374567E+03  0.27631042660E+02  0.78639196188E+03  0.91784759950E+03  0.39890587712E+03 0.  0.
    9000005    1    3    3    0    0 -0.25831582586E+03 -0.63185567369E+02  0.78288956495E+03  0.82682316895E+03  0.99999687468E+00 0.  0.
          4    1    3    3  501    0  0.50520801914E+01  0.90816610029E+02  0.35023969306E+01  0.91024430543E+02  0.00000000000E+00 0.  1.
   -9000007    1    1    2    0  503  0.25326374567E+03 -0.27631042660E+02  0.14280890641E+03  0.49527808667E+03  0.40000000000E+03 0.  1.
<mgrwt>
<rscale>  2 0.47401177E+03</rscale>
<asrwt>0</asrwt>
<pdfrwt beam="1">  1       21 0.18017896E+00 0.47424255E+03</pdfrwt>
<pdfrwt beam="2">  1       21 0.37224987E-01 0.47424255E+03</pdfrwt>
<totfact> 0.10496244E+03</totfact>
</mgrwt>
</event>
<event>
 6    1  0.8947013E-004  0.4339609E+03  0.7818608E-02  0.1032664E+00
         21   -1    0    0  501  502  0.00000000000E+00  0.00000000000E+00  0.29455918654E+03  0.29455918654E+03  0.00000000000E+00 0.  1.
         21   -1    0    0  502  503 -0.00000000000E+00 -0.00000000000E+00 -0.71251870782E+03  0.71251870782E+03  0.00000000000E+00 0. -1.
    9000007    2    1    2  501    0  0.10755736444E+03 -0.12943506791E+03 -0.46465835602E+02  0.43582525153E+03  0.39932762556E+03 0.  0.
    9000005    1    3    3    0    0  0.64709969194E+02 -0.10890721649E+03 -0.22111161990E+03  0.25483231813E+03  0.99999687468E+00 0.  0.
          4    1    3    3  501    0  0.42847395246E+02 -0.20527851422E+02  0.17464578430E+03  0.18099293339E+03  0.00000000000E+00 0.  1.
   -9000007    1    1    2    0  503 -0.10755736444E+03  0.12943506791E+03 -0.37149368568E+03  0.57125264284E+03  0.40000000000E+03 0. -1.
<mgrwt>
<rscale>  2 0.43380585E+03</rscale>
<asrwt>0</asrwt>
<pdfrwt beam="1">  1       21 0.45316798E-01 0.43396085E+03</pdfrwt>
<pdfrwt beam="2">  1       21 0.10961826E+00 0.43396085E+03</pdfrwt>
<totfact> 0.26817267E+03</totfact>
</mgrwt>
</event>
<event>
 6    1  0.8947013E-004  0.5281801E+03  0.7818608E-02  0.1006689E+00
         21   -1    0    0  501  502  0.00000000000E+00  0.00000000000E+00  0.73432668323E+03  0.73432668323E+03  0.00000000000E+00 0. -1.
         21   -1    0    0  502  503 -0.00000000000E+00 -0.00000000000E+00 -0.47557604418E+03  0.47557604418E+03  0.00000000000E+00 0. -1.
    9000007    2    1    2  501    0 -0.32058913027E+03 -0.12726676253E+03 -0.14222975501E+03  0.54675908105E+03  0.39967733262E+03 0.  0.
    9000005    1    3    3    0    0 -0.66596776574E+02  0.12064740109E+03 -0.13328229440E+03  0.19171879416E+03  0.99999687468E+00 0.  0.
          4    1    3    3  501    0 -0.25399235370E+03 -0.24791416362E+03 -0.89474606035E+01  0.35504028688E+03  0.00000000000E+00 0.  1.
   -9000007    1    1    2    0  503  0.32058913027E+03  0.12726676253E+03  0.40098039406E+03  0.66314364636E+03  0.40000000000E+03 0. -1.
<mgrwt>
<rscale>  2 0.52811901E+03</rscale>
<asrwt>0</asrwt>
<pdfrwt beam="1">  1       21 0.11297334E+00 0.52818010E+03</pdfrwt>
<pdfrwt beam="2">  1       21 0.73165545E-01 0.52818010E+03</pdfrwt>
<totfact> 0.84499243E+02</totfact>
</mgrwt>
</event>
<event>
 6    1  0.8947013E-004  0.4878600E+03  0.7818608E-02  0.1017010E+00
         21   -1    0    0  501  502  0.00000000000E+00  0.00000000000E+00  0.99045966400E+03  0.99045966400E+03  0.00000000000E+00 0. -1.
         21   -1    0    0  502  503 -0.00000000000E+00 -0.00000000000E+00 -0.36861176622E+03  0.36861176622E+03  0.00000000000E+00 0. -1.
    9000007    2    1    2  501    0 -0.25232517014E+03  0.11974702894E+03  0.71195621191E+03  0.86295969814E+03  0.39976299292E+03 0.  0.
    9000005    1    3    3    0    0 -0.35825556237E+03  0.61728363181E+02  0.48816816832E+03  0.60865967449E+03  0.99999687468E+00 0.  0.
          4    1    3    3  501    0  0.10593039223E+03  0.58018665762E+02  0.22378804360E+03  0.25430002366E+03  0.00000000000E+00 0.  1.
   -9000007    1    1    2    0  503  0.25232517014E+03 -0.11974702894E+03 -0.90108314138E+02  0.49611173208E+03  0.40000000000E+03 0. -1.
<mgrwt>
<rscale>  2 0.48781138E+03</rscale>
<asrwt>0</asrwt>
<pdfrwt beam="1">  1       21 0.15237841E+00 0.48785996E+03</pdfrwt>
<pdfrwt beam="2">  1       21 0.56709503E-01 0.48785996E+03</pdfrwt>
<totfact> 0.69132839E+02</totfact>
</mgrwt>
</event>
<event>
 6    1  0.8947013E-004  0.4138481E+03  0.7818608E-02  0.1039165E+00
         21   -1    0    0  501  502  0.00000000000E+00  0.00000000000E+00  0.28879401867E+04  0.28879401867E+04  0.00000000000E+00 0.  1.
         21   -1    0    0  502  503 -0.00000000000E+00 -0.00000000000E+00 -0.64701510236E+02  0.64701510236E+02  0.00000000000E+00 0.  1.
    9000007    2    1    2  501    0  0.10234730383E+03  0.41051427616E+01  0.18447341948E+04  0.18905857458E+04  0.40097180673E+03 0.  0.
    9000005    1    3    3    0    0  0.25007821765E+03 -0.27882756767E+02  0.92969571303E+03  0.96314676031E+03  0.99999687468E+00 0.  0.
          4    1    3    3  501    0 -0.14773091382E+03  0.31987899528E+02  0.91503848179E+03  0.92743898547E+03  0.00000000000E+00 0.  1.
   -9000007    1    1    2    0  503 -0.10234730383E+03 -0.41051427616E+01  0.97850448163E+03  0.10620559512E+04  0.40000000000E+03 0.  1.
<mgrwt>
<rscale>  2 0.41361248E+03</rscale>
<asrwt>0</asrwt>
<pdfrwt beam="1">  1       21 0.44429839E+00 0.41384805E+03</pdfrwt>
<pdfrwt beam="2">  1       21 0.99540807E-02 0.41384805E+03</pdfrwt>
<totfact> 0.29065840E+02</totfact>
</mgrwt>
</event>
<event>
 6    1  0.8947013E-004  0.4439853E+03  0.7818608E-02  0.1029815E+00
         21   -1    0    0  501  502  0.00000000000E+00  0.00000000000E+00  0.15175965697E+04  0.15175965697E+04  0.00000000000E+00 0.  1.
         21   -1    0    0  502  503 -0.00000000000E+00 -0.00000000000E+00 -0.12924978000E+03  0.12924978000E+03  0.00000000000E+00 0.  1.
    9000007    2    1    2  501    0  0.18296371335E+03  0.18741940914E+02  0.74548357260E+03  0.86768006665E+03  0.40409894864E+03 0.  0.
    9000005    1    3    3    0    0  0.41209405349E+02  0.18916908722E+03  0.19755321680E+03  0.27660699939E+03  0.99999687468E+00 0.  0.
          4    1    3    3  501    0  0.14175430800E+03 -0.17042714631E+03  0.54793035580E+03  0.59107306726E+03  0.00000000000E+00 0.  1.
   -9000007    1    1    2    0  503 -0.18296371335E+03 -0.18741940914E+02  0.64286321714E+03  0.77916628309E+03  0.40000000000E+03 0.  1.
<mgrwt>
<rscale>  2 0.44305049E+03</rscale>
<asrwt>0</asrwt>
<pdfrwt beam="1">  1       21 0.23347638E+00 0.44398529E+03</pdfrwt>
<pdfrwt beam="2">  1       21 0.19884583E-01 0.44398529E+03</pdfrwt>
<totfact> 0.16253263E+03</totfact>
</mgrwt>
</event>
<event>
 6    1  0.8947013E-004  0.4516615E+03  0.7818608E-02  0.1027237E+00
         21   -1    0    0  501  502  0.00000000000E+00  0.00000000000E+00  0.10896575155E+04  0.10896575155E+04  0.00000000000E+00 0. -1.
         21   -1    0    0  502  503 -0.00000000000E+00 -0.00000000000E+00 -0.27406960537E+03  0.27406960537E+03  0.00000000000E+00 0. -1.
    9000007    2    1    2  501    0 -0.20257366264E+03 -0.54424399660E+02  0.79172519503E+03  0.91143569577E+03  0.39986014931E+03 0.  0.
    9000005    1    3    3    0    0  0.10688359666E+03  0.56865209696E+02  0.24841456247E+03  0.27634860258E+03  0.99999687468E+00 0.  0.
          4    1    3    3  501    0 -0.30945725930E+03 -0.11128960936E+03  0.54331063256E+03  0.63508709319E+03  0.00000000000E+00 0.  1.
   -9000007    1    1    2    0  503  0.20257366264E+03  0.54424399660E+02  0.23862715141E+02  0.45229142513E+03  0.40000000000E+03 0. -1.
<mgrwt>
<rscale>  2 0.45163053E+03</rscale>
<asrwt>0</asrwt>
<pdfrwt beam="1">  1       21 0.16763962E+00 0.45166149E+03</pdfrwt>
<pdfrwt beam="2">  1       21 0.42164555E-01 0.45166149E+03</pdfrwt>
<totfact> 0.10094422E+03</totfact>
</mgrwt>
</event>
<event>
 6    1  0.8947013E-004  0.4521727E+03  0.7818608E-02  0.1027285E+00
         21   -1    0    0  501  502  0.00000000000E+00  0.00000000000E+00  0.26241608181E+03  0.26241608181E+03  0.00000000000E+00 0.  1.
         21   -1    0    0  502  503 -0.00000000000E+00 -0.00000000000E+00 -0.78274209249E+03  0.78274209249E+03  0.00000000000E+00 0.  1.
    9000007    2    1    2  501    0  0.20052009628E+03  0.41393736449E+02 -0.20669857851E+03  0.49717649884E+03  0.40316053653E+03 0.  0.
    9000005    1    3    3    0    0 -0.38172060363E+02  0.14118199673E+03  0.26782522248E+02  0.14868680468E+03  0.99999687468E+00 0.  0.
          4    1    3    3  501    0  0.23869215664E+03 -0.99788260281E+02 -0.23348110076E+03  0.34848969417E+03  0.00000000000E+00 0.  1.
   -9000007    1    1    2    0  503 -0.20052009628E+03 -0.41393736449E+02 -0.31362743217E+03  0.54798167545E+03  0.40000000000E+03 0.  1.
<mgrwt>
<rscale>  2 0.45146715E+03</rscale>
<asrwt>0</asrwt>
<pdfrwt beam="1">  1       21 0.40371705E-01 0.45217272E+03</pdfrwt>
<pdfrwt beam="2">  1       21 0.12042186E+00 0.45217272E+03</pdfrwt>
<totfact> 0.26764959E+03</totfact>
</mgrwt>
</event>
<event>
 6    1  0.8947013E-004  0.4616523E+03  0.7818608E-02  0.1024322E+00
         21   -1    0    0  501  502  0.00000000000E+00  0.00000000000E+00  0.70934893588E+03  0.70934893588E+03  0.00000000000E+00 0. -1.
         21   -1    0    0  502  503 -0.00000000000E+00 -0.00000000000E+00 -0.35740869876E+03  0.35740869876E+03  0.00000000000E+00 0. -1.
    9000007    2    1    2  501    0 -0.88205068888E+02  0.21236156639E+03  0.38926654623E+03  0.60386367010E+03  0.40030653128E+03 0.  0.
    9000005    1    3    3    0    0 -0.16472365028E+02  0.28260084889E+03  0.41299763838E+03  0.50070213491E+03  0.99999687468E+00 0.  0.
          4    1    3    3  501    0 -0.71732703860E+02 -0.70239282495E+02 -0.23731092143E+02  0.10316153519E+03  0.00000000000E+00 0.  1.
   -9000007    1    1    2    0  503  0.88205068888E+02 -0.21236156639E+03 -0.37326309113E+02  0.46289396454E+03  0.40000000000E+03 0. -1.
<mgrwt>
<rscale>  2 0.46158589E+03</rscale>
<asrwt>0</asrwt>
<pdfrwt beam="1">  1       21 0.10913061E+00 0.46165235E+03</pdfrwt>
<pdfrwt beam="2">  1       21 0.54985954E-01 0.46165235E+03</pdfrwt>
<totfact> 0.17784178E+03</totfact>
</mgrwt>
</event>
<event>
 6    1  0.8947013E-004  0.5278601E+03  0.7818608E-02  0.1006789E+00
         21   -1    0    0  501  502  0.00000000000E+00  0.00000000000E+00  0.22546043096E+03  0.22546043096E+03  0.00000000000E+00 0.  1.
         21   -1    0    0  502  503 -0.00000000000E+00 -0.00000000000E+00 -0.17458570287E+04  0.17458570287E+04  0.00000000000E+00 0.  1.
    9000007    2    1    2  501    0 -0.28541663378E+03 -0.19114328081E+03 -0.22703623811E+03  0.57461440299E+03  0.40079651954E+03 0.  0.
    9000005    1    3    3    0    0 -0.21219951010E+03 -0.20475975936E+03  0.39821407895E+02  0.29755996986E+03  0.99999687468E+00 0.  0.
          4    1    3    3  501    0 -0.73217123675E+02  0.13616478551E+02 -0.26685764600E+03  0.27705443313E+03  0.00000000000E+00 0.  1.
   -9000007    1    1    2    0  503  0.28541663378E+03  0.19114328081E+03 -0.12933603596E+04  0.13967030567E+04  0.40000000000E+03 0.  1.
<mgrwt>
<rscale>  2 0.52770888E+03</rscale>
<asrwt>0</asrwt>
<pdfrwt beam="1">  1       21 0.34686222E-01 0.52786007E+03</pdfrwt>
<pdfrwt beam="2">  1       21 0.26859338E+00 0.52786007E+03</pdfrwt>
<totfact> 0.31859477E+02</totfact>
</mgrwt>
</event>
<event>
 6    1  0.8947013E-004  0.5385926E+03  0.7818608E-02  0.1004187E+00
         21   -1    0    0  501  502  0.00000000000E+00  0.00000000000E+00  0.52552623208E+03  0.52552623208E+03  0.00000000000E+00 0. -1.
         21   -1    0    0  502  503 -0.00000000000E+00 -0.00000000000E+00 -0.10546834429E+04  0.10546834429E+04  0.00000000000E+00 0.  1.
    9000007    2    1    2  501    0  0.36021918195E+03 -0.18002582887E+02  0.28110245066E+03  0.60727459438E+03  0.39960216864E+03 0.  0.
    9000005    1    3    3    0    0  0.20589787507E+03 -0.20854277578E+03  0.14933321174E+03  0.32891553993E+03  0.99999687468E+00 0.  0.
          4    1    3    3  501    0  0.15432130688E+03  0.19054019290E+03  0.13176923892E+03  0.27835905445E+03  0.00000000000E+00 0.  1.
   -9000007    1    1    2    0  503 -0.36021918195E+03  0.18002582887E+02 -0.81025966153E+03  0.97293508064E+03  0.40000000000E+03 0.  1.
<mgrwt>
<rscale>  2 0.53851870E+03</rscale>
<asrwt>0</asrwt>
<pdfrwt beam="1">  1       21 0.80850190E-01 0.53859257E+03</pdfrwt>
<pdfrwt beam="2">  1       21 0.16225899E+00 0.53859257E+03</pdfrwt>
<totfact> 0.25631671E+02</totfact>
</mgrwt>
</event>
<event>
 6    1  0.8947013E-004  0.5994177E+03  0.7818608E-02  0.9907024E-01
         21   -1    0    0  501  502  0.00000000000E+00  0.00000000000E+00  0.16250918018E+03  0.16250918018E+03  0.00000000000E+00 0. -1.
         21   -1    0    0  502  503 -0.00000000000E+00 -0.00000000000E+00 -0.24133552932E+04  0.24133552932E+04  0.00000000000E+00 0. -1.
    9000007    2    1    2  501    0 -0.18649805486E+03 -0.40444729880E+03 -0.15017381222E+04  0.16169474155E+04  0.40117628903E+03 0.  0.
    9000005    1    3    3    0    0  0.76753195967E+02 -0.18299981678E+03 -0.25216372320E+03  0.32088553929E+03  0.99999687468E+00 0.  0.
          4    1    3    3  501    0 -0.26325125083E+03 -0.22144748202E+03 -0.12495743990E+04  0.12960618762E+04  0.00000000000E+00 0.  1.
   -9000007    1    1    2    0  503  0.18649805486E+03  0.40444729880E+03 -0.74910799085E+03  0.95891705789E+03  0.40000000000E+03 0. -1.
<mgrwt>
<rscale>  2 0.59922093E+03</rscale>
<asrwt>0</asrwt>
<pdfrwt beam="1">  1       21 0.25001413E-01 0.59941768E+03</pdfrwt>
<pdfrwt beam="2">  1       21 0.37128542E+00 0.59941768E+03</pdfrwt>
<totfact> 0.13855298E+02</totfact>
</mgrwt>
</event>
<event>
 6    1  0.8947013E-004  0.4315339E+03  0.7818608E-02  0.1033377E+00
         21   -1    0    0  501  502  0.00000000000E+00  0.00000000000E+00  0.27318373149E+03  0.27318373149E+03  0.00000000000E+00 0.  1.
         21   -1    0    0  502  503 -0.00000000000E+00 -0.00000000000E+00 -0.68165741890E+03  0.68165741890E+03  0.00000000000E+00 0. -1.
    9000007    2    1    2  501    0 -0.59121134578E+02 -0.15072029780E+03 -0.20312303950E+03  0.47694910680E+03  0.40001195554E+03 0.  0.
    9000005    1    3    3    0    0  0.67333166176E+02 -0.83518880627E+02 -0.29016879167E+03  0.30936723541E+03  0.99999687468E+00 0.  0.
          4    1    3    3  501    0 -0.12645430075E+03 -0.67201417176E+02  0.87045752168E+02  0.16758187139E+03  0.00000000000E+00 0.  1.
   -9000007    1    1    2    0  503  0.59121134578E+02  0.15072029780E+03 -0.20535064790E+03  0.47789204358E+03  0.40000000000E+03 0. -1.
<mgrwt>
<rscale>  2 0.43153110E+03</rscale>
<asrwt>0</asrwt>
<pdfrwt beam="1">  1       21 0.42028267E-01 0.43153387E+03</pdfrwt>
<pdfrwt beam="2">  1       21 0.10487037E+00 0.43153387E+03</pdfrwt>
<totfact> 0.35030511E+03</totfact>
</mgrwt>
</event>
<event>
 6    1  0.8947013E-004  0.5101096E+03  0.7818608E-02  0.1011418E+00
         21   -1    0    0  501  502  0.00000000000E+00  0.00000000000E+00  0.68081893559E+03  0.68081893559E+03  0.00000000000E+00 0. -1.
         21   -1    0    0  502  503 -0.00000000000E+00 -0.00000000000E+00 -0.39289750295E+03  0.39289750295E+03  0.00000000000E+00 0.  1.
    9000007    2    1    2  501    0  0.37709764919E+02 -0.30805476422E+03  0.24420858269E+03  0.56555251087E+03  0.40483582667E+03 0.  0.
    9000005    1    3    3    0    0 -0.62115135642E+02 -0.12688941857E+03  0.31636717632E+03  0.34648002088E+03  0.99999687468E+00 0.  0.
          4    1    3    3  501    0  0.99824900562E+02 -0.18116534565E+03 -0.72158593628E+02  0.21907248999E+03  0.00000000000E+00 0.  1.
   -9000007    1    1    2    0  503 -0.37709764919E+02  0.30805476422E+03  0.43712849953E+02  0.50816392767E+03  0.40000000000E+03 0.  1.
<mgrwt>
<rscale>  2 0.50914958E+03</rscale>
<asrwt>0</asrwt>
<pdfrwt beam="1">  1       21 0.10474137E+00 0.51010961E+03</pdfrwt>
<pdfrwt beam="2">  1       21 0.60445770E-01 0.51010961E+03</pdfrwt>
<totfact> 0.15738466E+03</totfact>
</mgrwt>
</event>
<event>
 6    1  0.8947013E-004  0.4678941E+03  0.7818608E-02  0.1022524E+00
         21   -1    0    0  501  502  0.00000000000E+00  0.00000000000E+00  0.43310968650E+03  0.43310968650E+03  0.00000000000E+00 0. -1.
         21   -1    0    0  502  503 -0.00000000000E+00 -0.00000000000E+00 -0.65669090948E+03  0.65669090948E+03  0.00000000000E+00 0. -1.
    9000007    2    1    2  501    0  0.33839400335E+02  0.24037424648E+03 -0.37336053445E+03  0.59851786116E+03  0.39987580328E+03 0.  0.
    9000005    1    3    3    0    0  0.14435912805E+03  0.19968847868E+03 -0.40722870114E+03  0.47597401336E+03  0.99999687468E+00 0.  0.
          4    1    3    3  501    0 -0.11051972772E+03  0.40685767802E+02  0.33868166695E+02  0.12254384779E+03  0.00000000000E+00 0.  1.
   -9000007    1    1    2    0  503 -0.33839400335E+02 -0.24037424648E+03  0.14977931147E+03  0.49128273482E+03  0.40000000000E+03 0. -1.
<mgrwt>
<rscale>  2 0.46786755E+03</rscale>
<asrwt>0</asrwt>
<pdfrwt beam="1">  1       21 0.66632260E-01 0.46789409E+03</pdfrwt>
<pdfrwt beam="2">  1       21 0.10102937E+00 0.46789409E+03</pdfrwt>
<totfact> 0.14068162E+03</totfact>
</mgrwt>
</event>
<event>
 6    1  0.8947013E-004  0.4086234E+03  0.7818608E-02  0.1040838E+00
         21   -1    0    0  501  502  0.00000000000E+00  0.00000000000E+00  0.58179631785E+03  0.58179631785E+03  0.00000000000E+00 0. -1.
         21   -1    0    0  502  503 -0.00000000000E+00 -0.00000000000E+00 -0.31925232023E+03  0.31925232023E+03  0.00000000000E+00 0. -1.
    9000007    2    1    2  501    0 -0.83383583436E+02 -0.45032272834E+01  0.27454351886E+03  0.49224906670E+03  0.39995237076E+03 0.  0.
    9000005    1    3    3    0    0  0.13744274729E+03 -0.27411408681E+02  0.22451712962E+03  0.26467118391E+03  0.99999687468E+00 0.  0.
          4    1    3    3  501    0 -0.22082633072E+03  0.22908181397E+02  0.50026389244E+02  0.22757788279E+03  0.00000000000E+00 0.  1.
   -9000007    1    1    2    0  503  0.83383583436E+02  0.45032272834E+01 -0.11999521249E+02  0.40879957137E+03  0.40000000000E+03 0. -1.
<mgrwt>
<rscale>  2 0.40861177E+03</rscale>
<asrwt>0</asrwt>
<pdfrwt beam="1">  1       21 0.89507126E-01 0.40862342E+03</pdfrwt>
<pdfrwt beam="2">  1       21 0.49115742E-01 0.40862342E+03</pdfrwt>
<totfact> 0.37321359E+03</totfact>
</mgrwt>
</event>
<event>
 6    1  0.8947013E-004  0.5048683E+03  0.7818608E-02  0.1012528E+00
         21   -1    0    0  501  502  0.00000000000E+00  0.00000000000E+00  0.29557254716E+03  0.29557254716E+03  0.00000000000E+00 0. -1.
         21   -1    0    0  502  503 -0.00000000000E+00 -0.00000000000E+00 -0.92949223789E+03  0.92949223789E+03  0.00000000000E+00 0.  1.
    9000007    2    1    2  501    0  0.28401267666E+03  0.11928437712E+03 -0.15189500126E+03  0.52703916633E+03  0.39975771201E+03 0.  0.
    9000005    1    3    3    0    0  0.16691319285E+03 -0.11665304049E+03  0.31530987125E+02  0.20606588496E+03  0.99999687468E+00 0.  0.
          4    1    3    3  501    0  0.11709948381E+03  0.23593741761E+03 -0.18342598839E+03  0.32097328137E+03  0.00000000000E+00 0.  1.
   -9000007    1    1    2    0  503 -0.28401267666E+03 -0.11928437712E+03 -0.48202468947E+03  0.69802561872E+03  0.40000000000E+03 0. -1.
<mgrwt>
<rscale>  2 0.50482027E+03</rscale>
<asrwt>0</asrwt>
<pdfrwt beam="1">  1       21 0.45472700E-01 0.50486826E+03</pdfrwt>
<pdfrwt beam="2">  1       21 0.14299881E+00 0.50486826E+03</pdfrwt>
<totfact> 0.13080328E+03</totfact>
</mgrwt>
</event>
<event>
 6    1  0.8947013E-004  0.4689485E+03  0.7818608E-02  0.1022229E+00
         21   -1    0    0  501  502  0.00000000000E+00  0.00000000000E+00  0.68019343110E+03  0.68019343110E+03  0.00000000000E+00 0.  1.
         21   -1    0    0  502  503 -0.00000000000E+00 -0.00000000000E+00 -0.37028016377E+03  0.37028016377E+03  0.00000000000E+00 0.  1.
    9000007    2    1    2  501    0  0.14175614535E+03 -0.19914577989E+03  0.34228394448E+03  0.58057817339E+03  0.40019853871E+03 0.  0.
    9000005    1    3    3    0    0  0.72412255710E+01  0.95925427326E+02 -0.15784527197E+02  0.97489867412E+02  0.99999687468E+00 0.  0.
          4    1    3    3  501    0  0.13451491977E+03 -0.29507120721E+03  0.35806847168E+03  0.48308830598E+03  0.00000000000E+00 0.  1.
   -9000007    1    1    2    0  503 -0.14175614535E+03  0.19914577989E+03 -0.32370677152E+02  0.46989542148E+03  0.40000000000E+03 0.  1.
<mgrwt>
<rscale>  2 0.46890616E+03</rscale>
<asrwt>0</asrwt>
<pdfrwt beam="1">  1       21 0.10464514E+00 0.46894852E+03</pdfrwt>
<pdfrwt beam="2">  1       21 0.56966179E-01 0.46894852E+03</pdfrwt>
<totfact> 0.18222576E+03</totfact>
</mgrwt>
</event>
<event>
 6    1  0.8947013E-004  0.4523989E+03  0.7818608E-02  0.1027021E+00
         21   -1    0    0  501  502  0.00000000000E+00  0.00000000000E+00  0.89132632255E+03  0.89132632255E+03  0.00000000000E+00 0.  1.
         21   -1    0    0  502  503 -0.00000000000E+00 -0.00000000000E+00 -0.22954092345E+03  0.22954092345E+03  0.00000000000E+00 0. -1.
    9000007    2    1    2  501    0  0.19369695696E+03  0.84535456864E+02  0.32961851768E+03  0.55961900171E+03  0.39982534347E+03 0.  0.
    9000005    1    3    3    0    0  0.24791149001E+03 -0.57723475312E+02  0.79246938176E+02  0.26659554326E+03  0.99999687468E+00 0.  0.
          4    1    3    3  501    0 -0.54214533057E+02  0.14225893218E+03  0.25037157951E+03  0.29302345845E+03  0.00000000000E+00 0.  1.
   -9000007    1    1    2    0  503 -0.19369695696E+03 -0.84535456864E+02  0.33216688142E+03  0.56124824429E+03  0.40000000000E+03 0.  1.
<mgrwt>
<rscale>  2 0.45236028E+03</rscale>
<asrwt>0</asrwt>
<pdfrwt beam="1">  1       21 0.13712713E+00 0.45239889E+03</pdfrwt>
<pdfrwt beam="2">  1       21 0.35313988E-01 0.45239889E+03</pdfrwt>
<totfact> 0.25135288E+03</totfact>
</mgrwt>
</event>
<event>
 6    1  0.8947013E-004  0.4313392E+03  0.7818608E-02  0.1033659E+00
         21   -1    0    0  501  502  0.00000000000E+00  0.00000000000E+00  0.37712404320E+03  0.37712404320E+03  0.00000000000E+00 0. -1.
         21   -1    0    0  502  503 -0.00000000000E+00 -0.00000000000E+00 -0.49725835302E+03  0.49725835302E+03  0.00000000000E+00 0. -1.
    9000007    2    1    2  501    0 -0.42381231968E+02  0.15574758731E+03 -0.11217766948E+03  0.44296984668E+03  0.39696974162E+03 0.  0.
    9000005    1    3    3    0    0 -0.87574482195E+02  0.27348604039E+03 -0.13068475469E+03  0.31550500681E+03  0.99999687468E+00 0.  0.
          4    1    3    3  501    0  0.45193250227E+02 -0.11773845308E+03  0.18507085211E+02  0.12746483987E+03  0.00000000000E+00 0.  1.
   -9000007    1    1    2    0  503  0.42381231968E+02 -0.15574758731E+03 -0.79566403475E+01  0.43141254954E+03  0.40000000000E+03 0. -1.
<mgrwt>
<rscale>  2 0.43063530E+03</rscale>
<asrwt>0</asrwt>
<pdfrwt beam="1">  1       21 0.58019084E-01 0.43133917E+03</pdfrwt>
<pdfrwt beam="2">  1       21 0.76501285E-01 0.43133917E+03</pdfrwt>
<totfact> 0.37280774E+03</totfact>
</mgrwt>
</event>
<event>
 6    1  0.8947013E-004  0.4206791E+03  0.7818608E-02  0.1036872E+00
         21   -1    0    0  501  502  0.00000000000E+00  0.00000000000E+00  0.11098029432E+03  0.11098029432E+03  0.00000000000E+00 0.  1.
         21   -1    0    0  502  503 -0.00000000000E+00 -0.00000000000E+00 -0.17857317945E+04  0.17857317945E+04  0.00000000000E+00 0.  1.
    9000007    2    1    2  501    0 -0.11124962703E+03 -0.67782495177E+02 -0.52585458703E+03  0.67321911247E+03  0.39966233313E+03 0.  0.
    9000005    1    3    3    0    0  0.13887948290E+03 -0.92806824046E+02 -0.24208366873E+03  0.29411922756E+03  0.99999687468E+00 0.  0.
          4    1    3    3  501    0 -0.25012910992E+03  0.25024328869E+02 -0.28377091830E+03  0.37909988491E+03  0.00000000000E+00 0.  1.
   -9000007    1    1    2    0  503  0.11124962703E+03  0.67782495177E+02 -0.11488969132E+04  0.12234929764E+04  0.40000000000E+03 0.  1.
<mgrwt>
<rscale>  2 0.42059886E+03</rscale>
<asrwt>0</asrwt>
<pdfrwt beam="1">  1       21 0.17073892E-01 0.42067915E+03</pdfrwt>
<pdfrwt beam="2">  1       21 0.27472796E+00 0.42067915E+03</pdfrwt>
<totfact> 0.12261089E+03</totfact>
</mgrwt>
</event>
<event>
 6    1  0.8947013E-004  0.6094737E+03  0.7818608E-02  0.9886023E-01
         21   -1    0    0  501  502  0.00000000000E+00  0.00000000000E+00  0.44533690143E+03  0.44533690143E+03  0.00000000000E+00 0.  1.
         21   -1    0    0  502  503 -0.00000000000E+00 -0.00000000000E+00 -0.18572924090E+04  0.18572924090E+04  0.00000000000E+00 0.  1.
    9000007    2    1    2  501    0 -0.41156773564E+03 -0.20464516321E+03  0.14860867967E+03  0.62732986665E+03  0.40023815170E+03 0.  0.
    9000005    1    3    3    0    0 -0.43424102221E+01  0.84365808034E+02  0.91785516844E+02  0.12474785444E+03  0.99999687468E+00 0.  0.
          4    1    3    3  501    0 -0.40722532542E+03 -0.28901097124E+03  0.56823162823E+02  0.50258201221E+03  0.00000000000E+00 0.  1.
   -9000007    1    1    2    0  503  0.41156773564E+03  0.20464516321E+03 -0.15605641872E+04  0.16752994438E+04  0.40000000000E+03 0.  1.
<mgrwt>
<rscale>  2 0.60943463E+03</rscale>
<asrwt>0</asrwt>
<pdfrwt beam="1">  1       21 0.68513368E-01 0.60947373E+03</pdfrwt>
<pdfrwt beam="2">  1       21 0.28573730E+00 0.60947373E+03</pdfrwt>
<totfact> 0.56346207E+01</totfact>
</mgrwt>
</event>
<event>
 6    1  0.8947013E-004  0.4593676E+03  0.7818608E-02  0.1025018E+00
         21   -1    0    0  501  502  0.00000000000E+00  0.00000000000E+00  0.14772765045E+04  0.14772765045E+04  0.00000000000E+00 0. -1.
         21   -1    0    0  502  503 -0.00000000000E+00 -0.00000000000E+00 -0.39468585388E+03  0.39468585388E+03  0.00000000000E+00 0. -1.
    9000007    2    1    2  501    0  0.15686158045E+03 -0.16252082360E+03  0.12891406415E+04  0.13682943405E+04  0.39915815823E+03 0.  0.
    9000005    1    3    3    0    0  0.44619832833E+02 -0.26660589964E+03  0.10509478374E+04  0.10851552848E+04  0.99999687468E+00 0.  0.
          4    1    3    3  501    0  0.11224174761E+03  0.10408507604E+03  0.23819280407E+03  0.28313905571E+03  0.00000000000E+00 0.  1.
   -9000007    1    1    2    0  503 -0.15686158045E+03  0.16252082360E+03 -0.20654999083E+03  0.50366801788E+03  0.40000000000E+03 0. -1.
<mgrwt>
<rscale>  2 0.45918426E+03</rscale>
<asrwt>0</asrwt>
<pdfrwt beam="1">  1       21 0.22727331E+00 0.45936758E+03</pdfrwt>
<pdfrwt beam="2">  1       21 0.60720901E-01 0.45936758E+03</pdfrwt>
<totfact> 0.18273107E+02</totfact>
</mgrwt>
</event>
<event>
 6    1  0.8947013E-004  0.4155344E+03  0.7818608E-02  0.1038557E+00
         21   -1    0    0  501  502  0.00000000000E+00  0.00000000000E+00  0.37688957097E+03  0.37688957097E+03  0.00000000000E+00 0. -1.
         21   -1    0    0  502  503 -0.00000000000E+00 -0.00000000000E+00 -0.55410775667E+03  0.55410775667E+03  0.00000000000E+00 0. -1.
    9000007    2    1    2  501    0  0.36848912282E+02 -0.10635318449E+03  0.10551932002E+03  0.42839476166E+03  0.39964847395E+03 0.  0.
    9000005    1    3    3    0    0 -0.10407363353E+03 -0.17339175654E+03  0.16538993701E+03  0.26124864342E+03  0.99999687468E+00 0.  0.
          4    1    3    3  501    0  0.14092254581E+03  0.67038572049E+02 -0.59870616994E+02  0.16714611823E+03  0.00000000000E+00 0.  1.
   -9000007    1    1    2    0  503 -0.36848912282E+02  0.10635318449E+03 -0.28273750572E+03  0.50260256598E+03  0.40000000000E+03 0. -1.
<mgrwt>
<rscale>  2 0.41544979E+03</rscale>
<asrwt>0</asrwt>
<pdfrwt beam="1">  1       21 0.57983011E-01 0.41553441E+03</pdfrwt>
<pdfrwt beam="2">  1       21 0.85247347E-01 0.41553441E+03</pdfrwt>
<totfact> 0.29237612E+03</totfact>
</mgrwt>
</event>
<event>
 6    1  0.8947013E-004  0.4759728E+03  0.7818608E-02  0.1020287E+00
         21   -1    0    0  501  502  0.00000000000E+00  0.00000000000E+00  0.89325743704E+03  0.89325743704E+03  0.00000000000E+00 0.  1.
         21   -1    0    0  502  503 -0.00000000000E+00 -0.00000000000E+00 -0.39112260607E+03  0.39112260607E+03  0.00000000000E+00 0.  1.
    9000007    2    1    2  501    0 -0.24748670377E+03 -0.68990070245E+02 -0.13002094016E+03  0.49341214407E+03  0.40067543061E+03 0.  0.
    9000005    1    3    3    0    0 -0.78920110035E+02 -0.22979357481E+03 -0.63252998774E+02  0.25106854171E+03  0.99999687468E+00 0.  0.
          4    1    3    3  501    0 -0.16856659374E+03  0.16080350456E+03 -0.66767941389E+02  0.24234360235E+03  0.00000000000E+00 0.  1.
   -9000007    1    1    2    0  503  0.24748670377E+03  0.68990070245E+02  0.63215577114E+03  0.79096789905E+03  0.40000000000E+03 0.  1.
<mgrwt>
<rscale>  2 0.47583062E+03</rscale>
<asrwt>0</asrwt>
<pdfrwt beam="1">  1       21 0.13742422E+00 0.47597279E+03</pdfrwt>
<pdfrwt beam="2">  1       21 0.60172709E-01 0.47597279E+03</pdfrwt>
<totfact> 0.80613625E+02</totfact>
</mgrwt>
</event>
<event>
 6    1  0.8947013E-004  0.4287567E+03  0.7818608E-02  0.1034833E+00
         21   -1    0    0  501  502  0.00000000000E+00  0.00000000000E+00  0.22433139169E+03  0.22433139169E+03  0.00000000000E+00 0.  1.
         21   -1    0    0  502  503 -0.00000000000E+00 -0.00000000000E+00 -0.86530997622E+03  0.86530997622E+03  0.00000000000E+00 0. -1.
    9000007    2    1    2  501    0  0.15437349133E+03 -0.10684248493E+01 -0.17493997959E+03  0.45637657522E+03  0.39222858844E+03 0.  0.
    9000005    1    3    3    0    0 -0.89855800883E+02  0.47906147185E+02  0.56416918137E+02  0.11641706291E+03  0.99999687468E+00 0.  0.
          4    1    3    3  501    0  0.24422929222E+03 -0.48974572034E+02 -0.23135689773E+03  0.33995951231E+03  0.00000000000E+00 0.  1.
   -9000007    1    1    2    0  503 -0.15437349133E+03  0.10684248493E+01 -0.46603860495E+03  0.63326479269E+03  0.40000000000E+03 0. -1.
<mgrwt>
<rscale>  2 0.42693491E+03</rscale>
<asrwt>0</asrwt>
<pdfrwt beam="1">  1       21 0.34512521E-01 0.42875671E+03</pdfrwt>
<pdfrwt beam="2">  1       21 0.13312461E+00 0.42875671E+03</pdfrwt>
<totfact> 0.28711911E+03</totfact>
</mgrwt>
</event>
<event>
 6    1  0.8947013E-004  0.4506591E+03  0.7818608E-02  0.1027592E+00
         21   -1    0    0  501  502  0.00000000000E+00  0.00000000000E+00  0.15684109704E+03  0.15684109704E+03  0.00000000000E+00 0. -1.
         21   -1    0    0  502  503 -0.00000000000E+00 -0.00000000000E+00 -0.13275399425E+04  0.13275399425E+04  0.00000000000E+00 0.  1.
    9000007    2    1    2  501    0  0.38398382939E+02 -0.20204729754E+03 -0.70672654669E+03  0.83818614614E+03  0.40099383727E+03 0.  0.
    9000005    1    3    3    0    0 -0.10571898194E+03 -0.25728221306E+03 -0.33329190983E+03  0.43411419863E+03  0.99999687468E+00 0.  0.
          4    1    3    3  501    0  0.14411736488E+03  0.55234915528E+02 -0.37343463686E+03  0.40407194751E+03  0.00000000000E+00 0.  1.
   -9000007    1    1    2    0  503 -0.38398382939E+02  0.20204729754E+03 -0.46397229880E+03  0.64619489344E+03  0.40000000000E+03 0. -1.
<mgrwt>
<rscale>  2 0.45043789E+03</rscale>
<asrwt>0</asrwt>
<pdfrwt beam="1">  1       21 0.24129399E-01 0.45065908E+03</pdfrwt>
<pdfrwt beam="2">  1       21 0.20423692E+00 0.45065908E+03</pdfrwt>
<totfact> 0.17212082E+03</totfact>
</mgrwt>
</event>
<event>
 6    1  0.8947013E-004  0.4687084E+03  0.7818608E-02  0.1022297E+00
         21   -1    0    0  501  502  0.00000000000E+00  0.00000000000E+00  0.40260982613E+03  0.40260982613E+03  0.00000000000E+00 0.  1.
         21   -1    0    0  502  503 -0.00000000000E+00 -0.00000000000E+00 -0.60152167885E+03  0.60152167885E+03  0.00000000000E+00 0.  1.
    9000007    2    1    2  501    0  0.22029029529E+03 -0.10494031511E+03  0.53781123390E+02  0.47178385155E+03  0.40018409440E+03 0.  0.
    9000005    1    3    3    0    0  0.24220591451E+02 -0.19693386252E+03  0.13553162770E+03  0.24029025232E+03  0.99999687468E+00 0.  0.
          4    1    3    3  501    0  0.19606970384E+03  0.91993547413E+02 -0.81750504311E+02  0.23149359923E+03  0.00000000000E+00 0.  1.
   -9000007    1    1    2    0  503 -0.22029029529E+03  0.10494031511E+03 -0.25269297611E+03  0.53234765343E+03  0.40000000000E+03 0.  1.
<mgrwt>
<rscale>  2 0.46866913E+03</rscale>
<asrwt>0</asrwt>
<pdfrwt beam="1">  1       21 0.61939973E-01 0.46870843E+03</pdfrwt>
<pdfrwt beam="2">  1       21 0.92541797E-01 0.46870843E+03</pdfrwt>
<totfact> 0.20434590E+03</totfact>
</mgrwt>
</event>
<event>
 6    1  0.8947013E-004  0.4314917E+03  0.7818608E-02  0.1033400E+00
         21   -1    0    0  501  502  0.00000000000E+00  0.00000000000E+00  0.39000727850E+03  0.39000727850E+03  0.00000000000E+00 0.  1.
         21   -1    0    0  502  503 -0.00000000000E+00 -0.00000000000E+00 -0.47902631885E+03  0.47902631885E+03  0.00000000000E+00 0. -1.
    9000007    2    1    2  501    0 -0.15917137524E+03 -0.27111074894E+02 -0.17996125524E+02  0.43186681967E+03  0.40014316478E+03 0.  0.
    9000005    1    3    3    0    0 -0.12980727327E+03  0.40482072895E+02 -0.19637874031E+03  0.23886049498E+03  0.99999687468E+00 0.  0.
          4    1    3    3  501    0 -0.29364101967E+02 -0.67593147790E+02  0.17838261479E+03  0.19300632469E+03  0.00000000000E+00 0.  1.
   -9000007    1    1    2    0  503  0.15917137524E+03  0.27111074894E+02 -0.71022914833E+02  0.43716677768E+03  0.40000000000E+03 0. -1.
<mgrwt>
<rscale>  2 0.43145851E+03</rscale>
<asrwt>0</asrwt>
<pdfrwt beam="1">  1       21 0.60001120E-01 0.43149170E+03</pdfrwt>
<pdfrwt beam="2">  1       21 0.73696356E-01 0.43149170E+03</pdfrwt>
<totfact> 0.37721059E+03</totfact>
</mgrwt>
</event>
<event>
 6    1  0.8947013E-004  0.6064851E+03  0.7818608E-02  0.9892118E-01
         21   -1    0    0  501  502  0.00000000000E+00  0.00000000000E+00  0.41308273229E+03  0.41308273229E+03  0.00000000000E+00 0. -1.
         21   -1    0    0  502  503 -0.00000000000E+00 -0.00000000000E+00 -0.89292359089E+03  0.89292359089E+03  0.00000000000E+00 0.  1.
    9000007    2    1    2  501    0 -0.10521521807E+03  0.44336611927E+03 -0.20400910786E+03  0.63987802281E+03  0.40022544915E+03 0.  0.
    9000005    1    3    3    0    0  0.14018604089E+03  0.23491579854E+03 -0.33719847594E+02  0.27563669309E+03  0.99999687468E+00 0.  0.
          4    1    3    3  501    0 -0.24540125895E+03  0.20845032074E+03 -0.17028926026E+03  0.36424132972E+03  0.00000000000E+00 0.  1.
   -9000007    1    1    2    0  503  0.10521521807E+03 -0.44336611927E+03 -0.27583175074E+03  0.66612830037E+03  0.40000000000E+03 0. -1.
<mgrwt>
<rscale>  2 0.60644790E+03</rscale>
<asrwt>0</asrwt>
<pdfrwt beam="1">  1       21 0.63551189E-01 0.60648509E+03</pdfrwt>
<pdfrwt beam="2">  1       21 0.13737286E+00 0.60648509E+03</pdfrwt>
<totfact> 0.68219722E+02</totfact>
</mgrwt>
</event>
<event>
 6    1  0.8947013E-004  0.4316804E+03  0.7818608E-02  0.1033335E+00
         21   -1    0    0  501  502  0.00000000000E+00  0.00000000000E+00  0.48687625696E+03  0.48687625696E+03  0.00000000000E+00 0. -1.
         21   -1    0    0  502  503 -0.00000000000E+00 -0.00000000000E+00 -0.44325081176E+03  0.44325081176E+03  0.00000000000E+00 0.  1.
    9000007    2    1    2  501    0  0.12426628056E+03  0.10443103789E+03  0.19371270928E+03  0.47309956736E+03  0.39993829117E+03 0.  0.
    9000005    1    3    3    0    0  0.29391816100E+02 -0.57868669424E+02  0.26440148446E+03  0.27225320335E+03  0.99999687468E+00 0.  0.
          4    1    3    3  501    0  0.94874464458E+02  0.16229970732E+03 -0.70688775181E+02  0.20084636401E+03  0.00000000000E+00 0.  1.
   -9000007    1    1    2    0  503 -0.12426628056E+03 -0.10443103789E+03 -0.15008726408E+03  0.45702750136E+03  0.40000000000E+03 0.  1.
<mgrwt>
<rscale>  2 0.43166608E+03</rscale>
<asrwt>0</asrwt>
<pdfrwt beam="1">  1       21 0.74904040E-01 0.43168038E+03</pdfrwt>
<pdfrwt beam="2">  1       21 0.68192432E-01 0.43168038E+03</pdfrwt>
<totfact> 0.27380624E+03</totfact>
</mgrwt>
</event>
<event>
 6    1  0.8947013E-004  0.9615884E+03  0.7818608E-02  0.9351744E-01
         21   -1    0    0  501  502  0.00000000000E+00  0.00000000000E+00  0.52957642744E+03  0.52957642744E+03  0.00000000000E+00 0.  1.
         21   -1    0    0  502  503 -0.00000000000E+00 -0.00000000000E+00 -0.21186096365E+04  0.21186096365E+04  0.00000000000E+00 0. -1.
    9000007    2    1    2  501    0 -0.43325093457E+03  0.75940844002E+03 -0.23911410002E+03  0.99087222764E+03  0.40030571767E+03 0.  0.
    9000005    1    3    3    0    0 -0.13610663410E+03 -0.42032751547E+01 -0.74108425511E+02  0.15503464804E+03  0.99999687468E+00 0.  0.
          4    1    3    3  501    0 -0.29714430047E+03  0.76361171517E+03 -0.16500567451E+03  0.83583757960E+03  0.00000000000E+00 0.  1.
   -9000007    1    1    2    0  503  0.43325093457E+03 -0.75940844002E+03 -0.13499191091E+04  0.16573138363E+04  0.40000000000E+03 0. -1.
<mgrwt>
<rscale>  2 0.96155657E+03</rscale>
<asrwt>0</asrwt>
<pdfrwt beam="1">  1       21 0.81473297E-01 0.96158838E+03</pdfrwt>
<pdfrwt beam="2">  1       21 0.32593994E+00 0.96158838E+03</pdfrwt>
<totfact> 0.18662642E+01</totfact>
</mgrwt>
</event>
<event>
 6    1  0.8947013E-004  0.4121902E+03  0.7818608E-02  0.1039658E+00
         21   -1    0    0  501  502  0.00000000000E+00  0.00000000000E+00  0.44958689838E+03  0.44958689838E+03  0.00000000000E+00 0.  1.
         21   -1    0    0  502  503 -0.00000000000E+00 -0.00000000000E+00 -0.41035362306E+03  0.41035362306E+03  0.00000000000E+00 0.  1.
    9000007    2    1    2  501    0  0.62890732130E+02  0.75816948942E+02  0.14094031067E+03  0.43562015311E+03  0.40024653988E+03 0.  0.
    9000005    1    3    3    0    0 -0.20640624030E+02 -0.15804000619E+03  0.24167228646E+02  0.16120711477E+03  0.99999687468E+00 0.  0.
          4    1    3    3  501    0  0.83531356160E+02  0.23385695513E+03  0.11677308203E+03  0.27441303834E+03  0.00000000000E+00 0.  1.
   -9000007    1    1    2    0  503 -0.62890732130E+02 -0.75816948942E+02 -0.10170703535E+03  0.42432036832E+03  0.40000000000E+03 0.  1.
<mgrwt>
<rscale>  2 0.41213032E+03</rscale>
<asrwt>0</asrwt>
<pdfrwt beam="1">  1       21 0.69167215E-01 0.41219018E+03</pdfrwt>
<pdfrwt beam="2">  1       21 0.63131326E-01 0.41219018E+03</pdfrwt>
<totfact> 0.39196005E+03</totfact>
</mgrwt>
</event>
<event>
 6    1  0.8947013E-004  0.4268811E+03  0.7818608E-02  0.1034858E+00
         21   -1    0    0  501  502  0.00000000000E+00  0.00000000000E+00  0.69845045343E+03  0.69845045343E+03  0.00000000000E+00 0. -1.
         21   -1    0    0  502  503 -0.00000000000E+00 -0.00000000000E+00 -0.67899959245E+03  0.67899959245E+03  0.00000000000E+00 0. -1.
    9000007    2    1    2  501    0 -0.13589021113E+03 -0.61329736483E+02  0.55020764195E+03  0.69632579393E+03  0.39989208041E+03 0.  0.
    9000005    1    3    3    0    0 -0.24486735467E+03 -0.10731444730E+02  0.17184509061E+03  0.29934415052E+03  0.99999687468E+00 0.  0.
          4    1    3    3  501    0  0.10897714355E+03 -0.50598291753E+02  0.37836255134E+03  0.39698164341E+03  0.00000000000E+00 0.  1.
   -9000007    1    1    2    0  503  0.13589021113E+03  0.61329736483E+02 -0.53075678097E+03  0.68112425195E+03  0.40000000000E+03 0. -1.
<mgrwt>
<rscale>  2 0.42685583E+03</rscale>
<asrwt>0</asrwt>
<pdfrwt beam="1">  1       21 0.10745392E+00 0.42688111E+03</pdfrwt>
<pdfrwt beam="2">  1       21 0.10446148E+00 0.42688111E+03</pdfrwt>
<totfact> 0.43078073E+02</totfact>
</mgrwt>
</event>
<event>
 6    1  0.8947013E-004  0.4204378E+03  0.7818608E-02  0.1036945E+00
         21   -1    0    0  501  502  0.00000000000E+00  0.00000000000E+00  0.30079680327E+03  0.30079680327E+03  0.00000000000E+00 0.  1.
         21   -1    0    0  502  503 -0.00000000000E+00 -0.00000000000E+00 -0.12921935578E+04  0.12921935578E+04  0.00000000000E+00 0.  1.
    9000007    2    1    2  501    0 -0.11257663324E+03  0.62226486450E+02  0.92508416307E+02  0.43049474674E+03  0.40027776095E+03 0.  0.
    9000005    1    3    3    0    0 -0.59720944407E+02  0.79426430434E+02 -0.15097503645E+03  0.18074736700E+03  0.99999687468E+00 0.  0.
          4    1    3    3  501    0 -0.52855688834E+02 -0.17199943984E+02  0.24348345276E+03  0.24974737973E+03  0.00000000000E+00 0.  1.
   -9000007    1    1    2    0  503  0.11257663324E+03 -0.62226486450E+02 -0.10839051708E+04  0.11624956143E+04  0.40000000000E+03 0.  1.
<mgrwt>
<rscale>  2 0.42037165E+03</rscale>
<asrwt>0</asrwt>
<pdfrwt beam="1">  1       21 0.46276431E-01 0.42043777E+03</pdfrwt>
<pdfrwt beam="2">  1       21 0.19879901E+00 0.42043777E+03</pdfrwt>
<totfact> 0.51126412E+02</totfact>
</mgrwt>
</event>
<event>
 6    1  0.8947013E-004  0.6230910E+03  0.7818608E-02  0.9858732E-01
         21   -1    0    0  501  502  0.00000000000E+00  0.00000000000E+00  0.16146553729E+04  0.16146553729E+04  0.00000000000E+00 0.  1.
         21   -1    0    0  502  503 -0.00000000000E+00 -0.00000000000E+00 -0.49064696962E+03  0.49064696962E+03  0.00000000000E+00 0. -1.
    9000007    2    1    2  501    0  0.14381418358E+03 -0.45529025220E+03  0.13138732322E+04  0.14541338648E+04  0.40033822367E+03 0.  0.
    9000005    1    3    3    0    0 -0.81038496628E+02  0.11928614417E+02  0.74739023009E+02  0.11088936528E+03  0.99999687468E+00 0.  0.
          4    1    3    3  501    0  0.22485268020E+03 -0.46721886662E+03  0.12391342092E+04  0.13432444996E+04  0.00000000000E+00 0.  1.
   -9000007    1    1    2    0  503 -0.14381418358E+03  0.45529025220E+03 -0.18986482890E+03  0.65116847774E+03  0.40000000000E+03 0. -1.
<mgrwt>
<rscale>  2 0.62303670E+03</rscale>
<asrwt>0</asrwt>
<pdfrwt beam="1">  1       21 0.24840852E+00 0.62309103E+03</pdfrwt>
<pdfrwt beam="2">  1       21 0.75484150E-01 0.62309103E+03</pdfrwt>
<totfact> 0.76233279E+01</totfact>
</mgrwt>
</event>
<event>
 6    1  0.8947013E-004  0.4956228E+03  0.7818608E-02  0.1014930E+00
         21   -1    0    0  501  502  0.00000000000E+00  0.00000000000E+00  0.60427343310E+03  0.60427343310E+03  0.00000000000E+00 0.  1.
         21   -1    0    0  502  503 -0.00000000000E+00 -0.00000000000E+00 -0.50175797815E+03  0.50175797815E+03  0.00000000000E+00 0.  1.
    9000007    2    1    2  501    0  0.25220229790E+02  0.29150014095E+03 -0.18972372244E+03  0.53069487586E+03  0.40004195811E+03 0.  0.
    9000005    1    3    3    0    0 -0.38228322615E+02 -0.95035818648E+02 -0.23062657858E+02  0.10500522681E+03  0.99999687468E+00 0.  0.
          4    1    3    3  501    0  0.63448552405E+02  0.38653595960E+03 -0.16666106458E+03  0.42568964905E+03  0.00000000000E+00 0.  1.
   -9000007    1    1    2    0  503 -0.25220229790E+02 -0.29150014095E+03  0.29223917738E+03  0.57533653539E+03  0.40000000000E+03 0.  1.
<mgrwt>
<rscale>  2 0.49561433E+03</rscale>
<asrwt>0</asrwt>
<pdfrwt beam="1">  1       21 0.92965143E-01 0.49562280E+03</pdfrwt>
<pdfrwt beam="2">  1       21 0.77193536E-01 0.49562280E+03</pdfrwt>
<totfact> 0.12194047E+03</totfact>
</mgrwt>
</event>
<event>
 6    1  0.8947013E-004  0.5306988E+03  0.7818608E-02  0.1006063E+00
         21   -1    0    0  501  502  0.00000000000E+00  0.00000000000E+00  0.20774194119E+04  0.20774194119E+04  0.00000000000E+00 0. -1.
         21   -1    0    0  502  503 -0.00000000000E+00 -0.00000000000E+00 -0.23595382225E+03  0.23595382225E+03  0.00000000000E+00 0. -1.
    9000007    2    1    2  501    0  0.27066306197E+03 -0.21993802930E+03  0.16751928957E+04  0.17572456961E+04  0.40001246069E+03 0.  0.
    9000005    1    3    3    0    0  0.32037462077E+03 -0.14877797129E+03  0.16110325425E+04  0.16493033788E+04  0.99999687468E+00 0.  0.
          4    1    3    3  501    0 -0.49711558802E+02 -0.71160058013E+02  0.64160353232E+02  0.10794231729E+03  0.00000000000E+00 0.  1.
   -9000007    1    1    2    0  503 -0.27066306197E+03  0.21993802930E+03  0.16627269394E+03  0.55612753807E+03  0.40000000000E+03 0. -1.
<mgrwt>
<rscale>  2 0.53069644E+03</rscale>
<asrwt>0</asrwt>
<pdfrwt beam="1">  1       21 0.31960297E+00 0.53069878E+03</pdfrwt>
<pdfrwt beam="2">  1       21 0.36300589E-01 0.53069878E+03</pdfrwt>
<totfact> 0.14220104E+02</totfact>
</mgrwt>
</event>
<event>
 6    1  0.8947013E-004  0.4869231E+03  0.7818608E-02  0.1017266E+00
         21   -1    0    0  501  502  0.00000000000E+00  0.00000000000E+00  0.15673914029E+04  0.15673914029E+04  0.00000000000E+00 0. -1.
         21   -1    0    0  502  503 -0.00000000000E+00 -0.00000000000E+00 -0.68631161300E+03  0.68631161300E+03  0.00000000000E+00 0. -1.
    9000007    2    1    2  501    0 -0.25861494466E+03  0.10105655713E+03  0.14355359161E+04  0.15157899361E+04  0.39970194737E+03 0.  0.
    9000005    1    3    3    0    0 -0.65279279755E+02 -0.69706167388E+02  0.10348816753E+04  0.10392792772E+04  0.99999687468E+00 0.  0.
          4    1    3    3  501    0 -0.19333566490E+03  0.17076272452E+03  0.40065424075E+03  0.47651065890E+03  0.00000000000E+00 0.  1.
   -9000007    1    1    2    0  503  0.25861494466E+03 -0.10105655713E+03 -0.55445612623E+03  0.73791307974E+03  0.40000000000E+03 0. -1.
<mgrwt>
<rscale>  2 0.48686190E+03</rscale>
<asrwt>0</asrwt>
<pdfrwt beam="1">  1       21 0.24113714E+00 0.48692311E+03</pdfrwt>
<pdfrwt beam="2">  1       21 0.10558640E+00 0.48692311E+03</pdfrwt>
<totfact> 0.40784018E+01</totfact>
</mgrwt>
</event>
<event>
 6    1  0.8947013E-004  0.5215765E+03  0.7818608E-02  0.1008481E+00
         21   -1    0    0  501  502  0.00000000000E+00  0.00000000000E+00  0.44488328716E+03  0.44488328716E+03  0.00000000000E+00 0. -1.
         21   -1    0    0  502  503 -0.00000000000E+00 -0.00000000000E+00 -0.10013104229E+04  0.10013104229E+04  0.00000000000E+00 0. -1.
    9000007    2    1    2  501    0 -0.30058059063E+03 -0.14728652980E+03  0.17546529462E+03  0.54746764337E+03  0.39609435441E+03 0.  0.
    9000005    1    3    3    0    0 -0.23238876922E+03 -0.17650960154E+03  0.28973468290E+03  0.41122666008E+03  0.99999687468E+00 0.  0.
          4    1    3    3  501    0 -0.68191821406E+02  0.29223071734E+02 -0.11426938828E+03  0.13624098328E+03  0.00000000000E+00 0.  1.
   -9000007    1    1    2    0  503  0.30058059063E+03  0.14728652980E+03 -0.73189243032E+03  0.89872606665E+03  0.40000000000E+03 0. -1.
<mgrwt>
<rscale>  2 0.52082756E+03</rscale>
<asrwt>0</asrwt>
<pdfrwt beam="1">  1       21 0.68443584E-01 0.52157647E+03</pdfrwt>
<pdfrwt beam="2">  1       21 0.15404776E+00 0.52157647E+03</pdfrwt>
<totfact> 0.43664718E+02</totfact>
</mgrwt>
</event>
<event>
 6    1  0.8947013E-004  0.4316512E+03  0.7818608E-02  0.1033353E+00
         21   -1    0    0  501  502  0.00000000000E+00  0.00000000000E+00  0.79755933533E+03  0.79755933533E+03  0.00000000000E+00 0.  1.
         21   -1    0    0  502  503 -0.00000000000E+00 -0.00000000000E+00 -0.36582842620E+03  0.36582842620E+03  0.00000000000E+00 0. -1.
    9000007    2    1    2  501    0  0.16217319082E+03  0.47562688999E+01  0.56565353829E+03  0.71143860895E+03  0.39982271447E+03 0.  0.
    9000005    1    3    3    0    0 -0.10867160089E+02  0.15896264585E+03  0.38788226854E+03  0.41933384335E+03  0.99999687468E+00 0.  0.
          4    1    3    3  501    0  0.17304035091E+03 -0.15420637695E+03  0.17777126975E+03  0.29210476560E+03  0.00000000000E+00 0.  1.
   -9000007    1    1    2    0  503 -0.16217319082E+03 -0.47562688999E+01 -0.13392262915E+03  0.45194915258E+03  0.40000000000E+03 0. -1.
<mgrwt>
<rscale>  2 0.43161013E+03</rscale>
<asrwt>0</asrwt>
<pdfrwt beam="1">  1       21 0.12270144E+00 0.43165121E+03</pdfrwt>
<pdfrwt beam="2">  1       21 0.56281297E-01 0.43165121E+03</pdfrwt>
<totfact> 0.12749801E+03</totfact>
</mgrwt>
</event>
<event>
 6    1  0.8947013E-004  0.4760634E+03  0.7818608E-02  0.1020238E+00
         21   -1    0    0  501  502  0.00000000000E+00  0.00000000000E+00  0.15361979174E+03  0.15361979174E+03  0.00000000000E+00 0.  1.
         21   -1    0    0  502  503 -0.00000000000E+00 -0.00000000000E+00 -0.32456313129E+04  0.32456313129E+04  0.00000000000E+00 0.  1.
    9000007    2    1    2  501    0 -0.14302419746E+03 -0.21489633854E+03 -0.29036043903E+03  0.55744091686E+03  0.39974346005E+03 0.  0.
    9000005    1    3    3    0    0 -0.12045518276E+03  0.10217153070E+03 -0.99015569133E+02  0.18642305561E+03  0.99999687468E+00 0.  0.
          4    1    3    3  501    0 -0.22569014697E+02 -0.31706786924E+03 -0.19134486990E+03  0.37101786125E+03  0.00000000000E+00 0.  1.
   -9000007    1    1    2    0  503  0.14302419746E+03  0.21489633854E+03 -0.28016510822E+04  0.28418101878E+04  0.40000000000E+03 0.  1.
<mgrwt>
<rscale>  2 0.47600950E+03</rscale>
<asrwt>0</asrwt>
<pdfrwt beam="1">  1       21 0.23633816E-01 0.47606340E+03</pdfrwt>
<pdfrwt beam="2">  1       21 0.49932786E+00 0.47606340E+03</pdfrwt>
<totfact> 0.23108235E+01</totfact>
</mgrwt>
</event>
<event>
 6    1  0.8947013E-004  0.4468116E+03  0.7818608E-02  0.1028684E+00
         21   -1    0    0  501  502  0.00000000000E+00  0.00000000000E+00  0.16104671383E+03  0.16104671383E+03  0.00000000000E+00 0. -1.
         21   -1    0    0  502  503 -0.00000000000E+00 -0.00000000000E+00 -0.13331514833E+04  0.13331514833E+04  0.00000000000E+00 0. -1.
    9000007    2    1    2  501    0  0.15607200773E+03  0.12362076938E+03 -0.38787301540E+03  0.59161301538E+03  0.39989988457E+03 0.  0.
    9000005    1    3    3    0    0  0.34857095814E+02  0.20230249037E+03 -0.39687074029E+03  0.44682065667E+03  0.99999687468E+00 0.  0.
          4    1    3    3  501    0  0.12121491192E+03 -0.78681720992E+02  0.89977248830E+01  0.14479235871E+03  0.00000000000E+00 0.  1.
   -9000007    1    1    2    0  503 -0.15607200773E+03 -0.12362076938E+03 -0.78423175402E+03  0.90258518170E+03  0.40000000000E+03 0. -1.
<mgrwt>
<rscale>  2 0.44678915E+03</rscale>
<asrwt>0</asrwt>
<pdfrwt beam="1">  1       21 0.24776417E-01 0.44681156E+03</pdfrwt>
<pdfrwt beam="2">  1       21 0.20510023E+00 0.44681156E+03</pdfrwt>
<totfact> 0.16164757E+03</totfact>
</mgrwt>
</event>
<event>
 6    1  0.8947013E-004  0.4390093E+03  0.7818608E-02  0.1031099E+00
         21   -1    0    0  501  502  0.00000000000E+00  0.00000000000E+00  0.88570348102E+03  0.88570348102E+03  0.00000000000E+00 0. -1.
         21   -1    0    0  502  503 -0.00000000000E+00 -0.00000000000E+00 -0.21765376203E+03  0.21765376203E+03  0.00000000000E+00 0. -1.
    9000007    2    1    2  501    0  0.13191365036E+03 -0.12380614688E+03  0.31132047704E+03  0.53768514261E+03  0.39931904538E+03 0.  0.
    9000005    1    3    3    0    0  0.21575216344E+03 -0.22162224231E+03  0.22814241369E+03  0.38433757979E+03  0.99999687468E+00 0.  0.
          4    1    3    3  501    0 -0.83838513082E+02  0.97816095430E+02  0.83178063347E+02  0.15334756282E+03  0.00000000000E+00 0.  1.
   -9000007    1    1    2    0  503 -0.13191365036E+03  0.12380614688E+03  0.35672924195E+03  0.56567210044E+03  0.40000000000E+03 0. -1.
<mgrwt>
<rscale>  2 0.43885414E+03</rscale>
<asrwt>0</asrwt>
<pdfrwt beam="1">  1       21 0.13626207E+00 0.43900931E+03</pdfrwt>
<pdfrwt beam="2">  1       21 0.33485195E-01 0.43900931E+03</pdfrwt>
<totfact> 0.28599263E+03</totfact>
</mgrwt>
</event>
<event>
 6    1  0.8947013E-004  0.6053026E+03  0.7818608E-02  0.9894671E-01
         21   -1    0    0  501  502  0.00000000000E+00  0.00000000000E+00  0.93414156251E+03  0.93414156251E+03  0.00000000000E+00 0.  1.
         21   -1    0    0  502  503 -0.00000000000E+00 -0.00000000000E+00 -0.40499325207E+03  0.40499325207E+03  0.00000000000E+00 0.  1.
    9000007    2    1    2  501    0 -0.24636328650E+03  0.38106591206E+03  0.38476148303E+03  0.71723960299E+03  0.40060597974E+03 0.  0.
    9000005    1    3    3    0    0 -0.95090927480E+01  0.22826763721E+03  0.37017026698E+03  0.43499834895E+03  0.99999687468E+00 0.  0.
          4    1    3    3  501    0 -0.23685419375E+03  0.15279827485E+03  0.14591216050E+02  0.28224125404E+03  0.00000000000E+00 0.  1.
   -9000007    1    1    2    0  503  0.24636328650E+03 -0.38106591206E+03  0.14438682741E+03  0.62189521159E+03  0.40000000000E+03 0.  1.
<mgrwt>
<rscale>  2 0.60520236E+03</rscale>
<asrwt>0</asrwt>
<pdfrwt beam="1">  1       21 0.14371409E+00 0.60530261E+03</pdfrwt>
<pdfrwt beam="2">  1       21 0.62306654E-01 0.60530261E+03</pdfrwt>
<totfact> 0.63161391E+02</totfact>
</mgrwt>
</event>
<event>
 6    1  0.8947013E-004  0.4020193E+03  0.7818608E-02  0.1043090E+00
         21   -1    0    0  501  502  0.00000000000E+00  0.00000000000E+00  0.58273437748E+03  0.58273437748E+03  0.00000000000E+00 0.  1.
         21   -1    0    0  502  503 -0.00000000000E+00 -0.00000000000E+00 -0.30731916782E+03  0.30731916782E+03  0.00000000000E+00 0.  1.
    9000007    2    1    2  501    0 -0.28981544813E+01  0.40138854679E+02 -0.14181958837E+01  0.40193853695E+03  0.39991630281E+03 0.  0.
    9000005    1    3    3    0    0 -0.11305034463E+03  0.18615970763E+03  0.14863952907E+02  0.21830656027E+03  0.99999687468E+00 0.  0.
          4    1    3    3  501    0  0.11015219014E+03 -0.14602085296E+03 -0.16282148791E+02  0.18363197668E+03  0.00000000000E+00 0.  1.
   -9000007    1    1    2    0  503  0.28981544813E+01 -0.40138854679E+02  0.27683340554E+03  0.48811500835E+03  0.40000000000E+03 0.  1.
<mgrwt>
<rscale>  2 0.40199849E+03</rscale>
<asrwt>0</asrwt>
<pdfrwt beam="1">  1       21 0.89651443E-01 0.40201931E+03</pdfrwt>
<pdfrwt beam="2">  1       21 0.47279872E-01 0.40201931E+03</pdfrwt>
<totfact> 0.40396397E+03</totfact>
</mgrwt>
</event>
<event>
 6    1  0.8947013E-004  0.4953223E+03  0.7818608E-02  0.1015233E+00
         21   -1    0    0  501  502  0.00000000000E+00  0.00000000000E+00  0.12194824913E+04  0.12194824913E+04  0.00000000000E+00 0.  1.
         21   -1    0    0  502  503 -0.00000000000E+00 -0.00000000000E+00 -0.84824230581E+03  0.84824230581E+03  0.00000000000E+00 0.  1.
    9000007    2    1    2  501    0  0.92664666434E+02  0.27091369025E+03  0.10897032438E+04  0.11969951409E+04  0.40418218637E+03 0.  0.
    9000005    1    3    3    0    0 -0.57354940581E+02 -0.52426851731E+02  0.37953006411E+02  0.86484649973E+02  0.99999687468E+00 0.  0.
          4    1    3    3  501    0  0.15001960702E+03  0.32334054199E+03  0.10517502374E+04  0.11105104909E+04  0.00000000000E+00 0.  1.
   -9000007    1    1    2    0  503 -0.92664666434E+02 -0.27091369025E+03 -0.71846305834E+03  0.87072965619E+03  0.40000000000E+03 0.  1.
<mgrwt>
<rscale>  2 0.49446844E+03</rscale>
<asrwt>0</asrwt>
<pdfrwt beam="1">  1       21 0.18761269E+00 0.49532233E+03</pdfrwt>
<pdfrwt beam="2">  1       21 0.13049882E+00 0.49532233E+03</pdfrwt>
<totfact> 0.52987091E+01</totfact>
</mgrwt>
</event>
<event>
 6    1  0.8947013E-004  0.4405102E+03  0.7818608E-02  0.1030737E+00
         21   -1    0    0  501  502  0.00000000000E+00  0.00000000000E+00  0.52961617593E+03  0.52961617593E+03  0.00000000000E+00 0. -1.
         21   -1    0    0  502  503 -0.00000000000E+00 -0.00000000000E+00 -0.65785110381E+03  0.65785110381E+03  0.00000000000E+00 0.  1.
    9000007    2    1    2  501    0 -0.14967904314E+03  0.99851206238E+02  0.33207392266E+03  0.55165416472E+03  0.40208848280E+03 0.  0.
    9000005    1    3    3    0    0 -0.96748699317E+02  0.25655637149E+03  0.18975780464E+03  0.33345240588E+03  0.99999687468E+00 0.  0.
          4    1    3    3  501    0 -0.52930343822E+02 -0.15670516525E+03  0.14231611802E+03  0.21820175884E+03  0.00000000000E+00 0.  1.
   -9000007    1    1    2    0  503  0.14967904314E+03 -0.99851206238E+02 -0.46030885054E+03  0.63581311502E+03  0.40000000000E+03 0.  1.
<mgrwt>
<rscale>  2 0.44003304E+03</rscale>
<asrwt>0</asrwt>
<pdfrwt beam="1">  1       21 0.81479412E-01 0.44051019E+03</pdfrwt>
<pdfrwt beam="2">  1       21 0.10120786E+00 0.44051019E+03</pdfrwt>
<totfact> 0.89630396E+02</totfact>
</mgrwt>
</event>
<event>
 6    1  0.8947013E-004  0.4702040E+03  0.7818608E-02  0.1021905E+00
         21   -1    0    0  501  502  0.00000000000E+00  0.00000000000E+00  0.37862711874E+03  0.37862711874E+03  0.00000000000E+00 0.  1.
         21   -1    0    0  502  503 -0.00000000000E+00 -0.00000000000E+00 -0.10473113535E+04  0.10473113535E+04  0.00000000000E+00 0. -1.
    9000007    2    1    2  501    0  0.56298214803E+02 -0.24067052528E+03  0.14040313085E+03  0.49014247101E+03  0.39929289000E+03 0.  0.
    9000005    1    3    3    0    0 -0.69221208335E+02 -0.31263978194E+03  0.64093646878E+02  0.32656424253E+03  0.99999687468E+00 0.  0.
          4    1    3    3  501    0  0.12551942314E+03  0.71969256656E+02  0.76309483968E+02  0.16357822848E+03  0.00000000000E+00 0.  1.
   -9000007    1    1    2    0  503 -0.56298214803E+02  0.24067052528E+03 -0.80908736564E+03  0.93579600126E+03  0.40000000000E+03 0. -1.
<mgrwt>
<rscale>  2 0.47005357E+03</rscale>
<asrwt>0</asrwt>
<pdfrwt beam="1">  1       21 0.58250328E-01 0.47020399E+03</pdfrwt>
<pdfrwt beam="2">  1       21 0.16112482E+00 0.47020399E+03</pdfrwt>
<totfact> 0.56301149E+02</totfact>
</mgrwt>
</event>
<event>
 6    1  0.8947013E-004  0.4222674E+03  0.7818608E-02  0.1036349E+00
         21   -1    0    0  501  502  0.00000000000E+00  0.00000000000E+00  0.20868426670E+03  0.20868426670E+03  0.00000000000E+00 0.  1.
         21   -1    0    0  502  503 -0.00000000000E+00 -0.00000000000E+00 -0.85788200176E+03  0.85788200176E+03  0.00000000000E+00 0.  1.
    9000007    2    1    2  501    0  0.11875415778E+03 -0.63370321874E+02 -0.28876109727E+03  0.51155913558E+03  0.40023921624E+03 0.  0.
    9000005    1    3    3    0    0 -0.10414722429E+02 -0.21498491494E+03 -0.10071328266E+03  0.23763658261E+03  0.99999687468E+00 0.  0.
          4    1    3    3  501    0  0.12916888021E+03  0.15161459307E+03 -0.18804781460E+03  0.27392255296E+03  0.00000000000E+00 0.  1.
   -9000007    1    1    2    0  503 -0.11875415778E+03  0.63370321874E+02 -0.36043663779E+03  0.55500713288E+03  0.40000000000E+03 0.  1.
<mgrwt>
<rscale>  2 0.42221073E+03</rscale>
<asrwt>0</asrwt>
<pdfrwt beam="1">  1       21 0.32105272E-01 0.42226742E+03</pdfrwt>
<pdfrwt beam="2">  1       21 0.13198184E+00 0.42226742E+03</pdfrwt>
<totfact> 0.34039067E+03</totfact>
</mgrwt>
</event>
<event>
 6    1  0.8947013E-004  0.5068723E+03  0.7818608E-02  0.1012002E+00
         21   -1    0    0  501  502  0.00000000000E+00  0.00000000000E+00  0.72894777034E+03  0.72894777034E+03  0.00000000000E+00 0. -1.
         21   -1    0    0  502  503 -0.00000000000E+00 -0.00000000000E+00 -0.45110085745E+03  0.45110085745E+03  0.00000000000E+00 0. -1.
    9000007    2    1    2  501    0 -0.47383267488E+02 -0.30765848178E+03  0.41486201978E+03  0.65500381544E+03  0.40002573334E+03 0.  0.
    9000005    1    3    3    0    0 -0.17227629373E+03 -0.32762060509E+03  0.24771186329E+03  0.44539482425E+03  0.99999687468E+00 0.  0.
          4    1    3    3  501    0  0.12489302625E+03  0.19962123304E+02  0.16715015649E+03  0.20960899119E+03  0.00000000000E+00 0.  1.
   -9000007    1    1    2    0  503  0.47383267488E+02  0.30765848178E+03 -0.13701510690E+03  0.52504481234E+03  0.40000000000E+03 0. -1.
<mgrwt>
<rscale>  2 0.50686720E+03</rscale>
<asrwt>0</asrwt>
<pdfrwt beam="1">  1       21 0.11214581E+00 0.50687227E+03</pdfrwt>
<pdfrwt beam="2">  1       21 0.69400132E-01 0.50687227E+03</pdfrwt>
<totfact> 0.97760808E+02</totfact>
</mgrwt>
</event>
<event>
 6    1  0.8947013E-004  0.4209606E+03  0.7818608E-02  0.1036759E+00
         21   -1    0    0  501  502  0.00000000000E+00  0.00000000000E+00  0.14118104477E+04  0.14118104477E+04  0.00000000000E+00 0. -1.
         21   -1    0    0  502  503 -0.00000000000E+00 -0.00000000000E+00 -0.19063208398E+03  0.19063208398E+03  0.00000000000E+00 0. -1.
    9000007    2    1    2  501    0 -0.91436204179E+02 -0.94059832411E+02  0.10788903028E+04  0.11580848787E+04  0.39993558142E+03 0.  0.
    9000005    1    3    3    0    0 -0.17096348933E+03 -0.98969761999E+02  0.10572117203E+04  0.10755097164E+04  0.99999687468E+00 0.  0.
          4    1    3    3  501    0  0.79527285147E+02  0.49099295878E+01  0.21678582474E+02  0.82575162303E+02  0.00000000000E+00 0.  1.
   -9000007    1    1    2    0  503  0.91436204179E+02  0.94059832411E+02  0.14228806097E+03  0.44435765303E+03  0.40000000000E+03 0. -1.
<mgrwt>
<rscale>  2 0.42094530E+03</rscale>
<asrwt>0</asrwt>
<pdfrwt beam="1">  1       21 0.21720160E+00 0.42096061E+03</pdfrwt>
<pdfrwt beam="2">  1       21 0.29328014E-01 0.42096061E+03</pdfrwt>
<totfact> 0.98091564E+02</totfact>
</mgrwt>
</event>
<event>
 6    1  0.8947013E-004  0.4287062E+03  0.7818608E-02  0.1034338E+00
         21   -1    0    0  501  502  0.00000000000E+00  0.00000000000E+00  0.15603888120E+03  0.15603888120E+03  0.00000000000E+00 0.  1.
         21   -1    0    0  502  503 -0.00000000000E+00 -0.00000000000E+00 -0.14524728815E+04  0.14524728815E+04  0.00000000000E+00 0. -1.
    9000007    2    1    2  501    0  0.14606889434E+03 -0.49526903145E+02 -0.29646266648E+03  0.52051741322E+03  0.39907296178E+03 0.  0.
    9000005    1    3    3    0    0  0.22207533084E+03  0.57303818293E+02 -0.31335760801E+03  0.38832353863E+03  0.99999687468E+00 0.  0.
          4    1    3    3  501    0 -0.76006436499E+02 -0.10683072144E+03  0.16894941532E+02  0.13219387460E+03  0.00000000000E+00 0.  1.
   -9000007    1    1    2    0  503 -0.14606889434E+03  0.49526903145E+02 -0.99997133385E+03  0.10879943495E+04  0.40000000000E+03 0. -1.
<mgrwt>
<rscale>  2 0.42848986E+03</rscale>
<asrwt>0</asrwt>
<pdfrwt beam="1">  1       21 0.24005982E-01 0.42870624E+03</pdfrwt>
<pdfrwt beam="2">  1       21 0.22345736E+00 0.42870624E+03</pdfrwt>
<totfact> 0.13190191E+03</totfact>
</mgrwt>
</event>
<event>
 6    1  0.8947013E-004  0.5404147E+03  0.7818608E-02  0.1003965E+00
         21   -1    0    0  501  502  0.00000000000E+00  0.00000000000E+00  0.10191692425E+04  0.10191692425E+04  0.00000000000E+00 0. -1.
         21   -1    0    0  502  503 -0.00000000000E+00 -0.00000000000E+00 -0.28454153880E+03  0.28454153880E+03  0.00000000000E+00 0. -1.
    9000007    2    1    2  501    0 -0.35548203701E+03  0.39459655179E+02  0.36419196556E+03  0.65167766932E+03  0.40512152978E+03 0.  0.
    9000005    1    3    3    0    0 -0.19084541958E+03 -0.17970859846E+03  0.21841706087E+03  0.34120985772E+03  0.99999687468E+00 0.  0.
          4    1    3    3  501    0 -0.16463661743E+03  0.21916825364E+03  0.14577490470E+03  0.31046781160E+03  0.00000000000E+00 0.  1.
   -9000007    1    1    2    0  503  0.35548203701E+03 -0.39459655179E+02  0.37043573816E+03  0.65203311199E+03  0.40000000000E+03 0. -1.
<mgrwt>
<rscale>  2 0.53945494E+03</rscale>
<asrwt>0</asrwt>
<pdfrwt beam="1">  1       21 0.15679527E+00 0.54041465E+03</pdfrwt>
<pdfrwt beam="2">  1       21 0.43775622E-01 0.54041465E+03</pdfrwt>
<totfact> 0.10879722E+03</totfact>
</mgrwt>
</event>
<event>
 6    1  0.8947013E-004  0.4549648E+03  0.7818608E-02  0.1026280E+00
         21   -1    0    0  501  502  0.00000000000E+00  0.00000000000E+00  0.15300473413E+04  0.15300473413E+04  0.00000000000E+00 0.  1.
         21   -1    0    0  502  503 -0.00000000000E+00 -0.00000000000E+00 -0.15723804936E+03  0.15723804936E+03  0.00000000000E+00 0.  1.
    9000007    2    1    2  501    0 -0.18684692493E+03 -0.10991432906E+03  0.10022066011E+04  0.11004810898E+04  0.39955928787E+03 0.  0.
    9000005    1    3    3    0    0 -0.41531778077E+02 -0.12327968692E+03  0.53575563252E+02  0.14069154476E+03  0.99999687468E+00 0.  0.
          4    1    3    3  501    0 -0.14531514685E+03  0.13365357857E+02  0.94863103787E+03  0.95978954501E+03  0.00000000000E+00 0.  1.
   -9000007    1    1    2    0  503  0.18684692493E+03  0.10991432906E+03  0.37060269080E+03  0.58680430087E+03  0.40000000000E+03 0.  1.
<mgrwt>
<rscale>  2 0.45486787E+03</rscale>
<asrwt>0</asrwt>
<pdfrwt beam="1">  1       21 0.23539189E+00 0.45496476E+03</pdfrwt>
<pdfrwt beam="2">  1       21 0.24190470E-01 0.45496476E+03</pdfrwt>
<totfact> 0.10794736E+03</totfact>
</mgrwt>
</event>
<event>
 6    1  0.8947013E-004  0.6223400E+03  0.7818608E-02  0.9860153E-01
         21   -1    0    0  501  502  0.00000000000E+00  0.00000000000E+00  0.11974801753E+04  0.11974801753E+04  0.00000000000E+00 0.  1.
         21   -1    0    0  502  503 -0.00000000000E+00 -0.00000000000E+00 -0.32850146742E+03  0.32850146742E+03  0.00000000000E+00 0. -1.
    9000007    2    1    2  501    0  0.11954559255E+02 -0.47650925298E+03  0.33936163313E+03  0.70885360776E+03  0.40012890364E+03 0.  0.
    9000005    1    3    3    0    0 -0.16333081145E+03 -0.24888982453E+03  0.29327087561E+03  0.41788982424E+03  0.99999687468E+00 0.  0.
          4    1    3    3  501    0  0.17528537071E+03 -0.22761942845E+03  0.46090757517E+02  0.29096378352E+03  0.00000000000E+00 0.  1.
   -9000007    1    1    2    0  503 -0.11954559255E+02  0.47650925298E+03  0.52961707478E+03  0.81712803499E+03  0.40000000000E+03 0.  1.
<mgrwt>
<rscale>  2 0.62231932E+03</rscale>
<asrwt>0</asrwt>
<pdfrwt beam="1">  1       21 0.18422772E+00 0.62234004E+03</pdfrwt>
<pdfrwt beam="2">  1       21 0.50538688E-01 0.62234004E+03</pdfrwt>
<totfact> 0.49025877E+02</totfact>
</mgrwt>
</event>
<event>
 6    1  0.8947013E-004  0.4109111E+03  0.7818608E-02  0.1040089E+00
         21   -1    0    0  501  502  0.00000000000E+00  0.00000000000E+00  0.91591833157E+03  0.91591833157E+03  0.00000000000E+00 0. -1.
         21   -1    0    0  502  503 -0.00000000000E+00 -0.00000000000E+00 -0.18463413733E+03  0.18463413733E+03  0.00000000000E+00 0. -1.
    9000007    2    1    2  501    0  0.39353224055E+02  0.84065569225E+02  0.33975195769E+03  0.53317852835E+03  0.40029021242E+03 0.  0.
    9000005    1    3    3    0    0 -0.10518722864E+03 -0.11237422373E+03  0.19902465082E+03  0.25160312172E+03  0.99999687468E+00 0.  0.
          4    1    3    3  501    0  0.14454045270E+03  0.19643979295E+03  0.14072730687E+03  0.28157540663E+03  0.00000000000E+00 0.  1.
   -9000007    1    1    2    0  503 -0.39353224055E+02 -0.84065569225E+02  0.39153223655E+03  0.56737394056E+03  0.40000000000E+03 0.  1.
<mgrwt>
<rscale>  2 0.41084043E+03</rscale>
<asrwt>0</asrwt>
<pdfrwt beam="1">  1       21 0.14091051E+00 0.41091112E+03</pdfrwt>
<pdfrwt beam="2">  1       21 0.28405253E-01 0.41091112E+03</pdfrwt>
<totfact> 0.36710518E+03</totfact>
</mgrwt>
</event>
<event>
 6    1  0.8947013E-004  0.6298032E+03  0.7818608E-02  0.9845991E-01
         21   -1    0    0  501  502  0.00000000000E+00  0.00000000000E+00  0.66838124414E+03  0.66838124414E+03  0.00000000000E+00 0. -1.
         21   -1    0    0  502  503 -0.00000000000E+00 -0.00000000000E+00 -0.65710183135E+03  0.65710183135E+03  0.00000000000E+00 0.  1.
    9000007    2    1    2  501    0  0.13290814370E+03 -0.46642238808E+03  0.21364605956E+03  0.66505391314E+03  0.40179304357E+03 0.  0.
    9000005    1    3    3    0    0  0.22524539620E+03 -0.47506755814E+03  0.22448613039E+03  0.57168146379E+03  0.99999687468E+00 0.  0.
          4    1    3    3  501    0 -0.92337252495E+02  0.86451700639E+01 -0.10840070829E+02  0.93372449360E+02  0.00000000000E+00 0.  1.
   -9000007    1    1    2    0  503 -0.13290814370E+03  0.46642238808E+03 -0.20236664677E+03  0.66042916235E+03  0.40000000000E+03 0.  1.
<mgrwt>
<rscale>  2 0.62951741E+03</rscale>
<asrwt>0</asrwt>
<pdfrwt beam="1">  1       21 0.10282788E+00 0.62980320E+03</pdfrwt>
<pdfrwt beam="2">  1       21 0.10109259E+00 0.62980320E+03</pdfrwt>
<totfact> 0.48102322E+02</totfact>
</mgrwt>
</event>
<event>
 6    1  0.8947013E-004  0.5734792E+03  0.7818608E-02  0.9962300E-01
         21   -1    0    0  501  502  0.00000000000E+00  0.00000000000E+00  0.52819662778E+03  0.52819662778E+03  0.00000000000E+00 0. -1.
         21   -1    0    0  502  503 -0.00000000000E+00 -0.00000000000E+00 -0.64642277845E+03  0.64642277845E+03  0.00000000000E+00 0.  1.
    9000007    2    1    2  501    0 -0.37741498913E+03 -0.16071475669E+03  0.54857131440E+02  0.57609695086E+03  0.40075813763E+03 0.  0.
    9000005    1    3    3    0    0  0.35018397109E+02 -0.54694081593E+02  0.12845414898E+03  0.14394165166E+03  0.99999687468E+00 0.  0.
          4    1    3    3  501    0 -0.41243338624E+03 -0.10602067510E+03 -0.73597017543E+02  0.43215529920E+03  0.00000000000E+00 0.  1.
   -9000007    1    1    2    0  503  0.37741498913E+03  0.16071475669E+03 -0.17308328211E+03  0.59852245537E+03  0.40000000000E+03 0.  1.
<mgrwt>
<rscale>  2 0.57334677E+03</rscale>
<asrwt>0</asrwt>
<pdfrwt beam="1">  1       21 0.81261019E-01 0.57347920E+03</pdfrwt>
<pdfrwt beam="2">  1       21 0.99449659E-01 0.57347920E+03</pdfrwt>
<totfact> 0.89607216E+02</totfact>
</mgrwt>
</event>
<event>
 6    1  0.8947013E-004  0.4232785E+03  0.7818608E-02  0.1036079E+00
         21   -1    0    0  501  502  0.00000000000E+00  0.00000000000E+00  0.88141519128E+03  0.88141519128E+03  0.00000000000E+00 0. -1.
         21   -1    0    0  502  503 -0.00000000000E+00 -0.00000000000E+00 -0.32550160669E+03  0.32550160669E+03  0.00000000000E+00 0.  1.
    9000007    2    1    2  501    0  0.38450126238E+02  0.13298975545E+03  0.64823168215E+03  0.77368785341E+03  0.39902868758E+03 0.  0.
    9000005    1    3    3    0    0 -0.10242800726E+03  0.74700949193E+01  0.55276780889E+03  0.56222820058E+03  0.99999687468E+00 0.  0.
          4    1    3    3  501    0  0.14087813350E+03  0.12551966053E+03  0.95463873265E+02  0.21145965283E+03  0.00000000000E+00 0.  1.
   -9000007    1    1    2    0  503 -0.38450126238E+02 -0.13298975545E+03 -0.92318097564E+02  0.43322894455E+03  0.40000000000E+03 0.  1.
<mgrwt>
<rscale>  2 0.42304887E+03</rscale>
<asrwt>0</asrwt>
<pdfrwt beam="1">  1       21 0.13560234E+00 0.42327850E+03</pdfrwt>
<pdfrwt beam="2">  1       21 0.50077171E-01 0.42327850E+03</pdfrwt>
<totfact> 0.12692759E+03</totfact>
</mgrwt>
</event>
<event>
 6    1  0.8947013E-004  0.5105612E+03  0.7818608E-02  0.1011465E+00
         21   -1    0    0  501  502  0.00000000000E+00  0.00000000000E+00  0.15399400171E+04  0.15399400171E+04  0.00000000000E+00 0.  1.
         21   -1    0    0  502  503 -0.00000000000E+00 -0.00000000000E+00 -0.32538044934E+03  0.32538044934E+03  0.00000000000E+00 0.  1.
    9000007    2    1    2  501    0 -0.22635062590E+03 -0.22234697898E+03  0.12556576859E+04  0.13531077760E+04  0.39185666305E+03 0.  0.
    9000005    1    3    3    0    0  0.47277720623E+02 -0.46900464728E+02  0.74372437414E+03  0.74670059672E+03  0.99999687468E+00 0.  0.
          4    1    3    3  501    0 -0.27362834652E+03 -0.17544651425E+03  0.51193331180E+03  0.60640717931E+03  0.00000000000E+00 0.  1.
   -9000007    1    1    2    0  503  0.22635062590E+03  0.22234697898E+03 -0.41098118172E+02  0.51221269042E+03  0.40000000000E+03 0.  1.
<mgrwt>
<rscale>  2 0.50896515E+03</rscale>
<asrwt>0</asrwt>
<pdfrwt beam="1">  1       21 0.23691384E+00 0.51056125E+03</pdfrwt>
<pdfrwt beam="2">  1       21 0.50058532E-01 0.51056125E+03</pdfrwt>
<totfact> 0.23501827E+02</totfact>
</mgrwt>
</event>
<event>
 6    1  0.8947013E-004  0.4059943E+03  0.7818608E-02  0.1041818E+00
         21   -1    0    0  501  502  0.00000000000E+00  0.00000000000E+00  0.13601248064E+03  0.13601248064E+03  0.00000000000E+00 0.  1.
         21   -1    0    0  502  503 -0.00000000000E+00 -0.00000000000E+00 -0.12766001670E+04  0.12766001670E+04  0.00000000000E+00 0.  1.
    9000007    2    1    2  501    0  0.10853342873E+02  0.68655727369E+02 -0.40649020759E+03  0.57372617600E+03  0.39886843973E+03 0.  0.
    9000005    1    3    3    0    0 -0.44532717143E+02  0.68297652210E+02  0.61711551405E+02  0.10225970743E+03  0.99999687468E+00 0.  0.
          4    1    3    3  501    0  0.55386060016E+02  0.35807515935E+00 -0.46820175899E+03  0.47146646857E+03  0.00000000000E+00 0.  1.
   -9000007    1    1    2    0  503 -0.10853342873E+02 -0.68655727369E+02 -0.73409747877E+03  0.83888647163E+03  0.40000000000E+03 0.  1.
<mgrwt>
<rscale>  2 0.40571535E+03</rscale>
<asrwt>0</asrwt>
<pdfrwt beam="1">  1       21 0.20924997E-01 0.40599434E+03</pdfrwt>
<pdfrwt beam="2">  1       21 0.19640002E+00 0.40599434E+03</pdfrwt>
<totfact> 0.26038353E+03</totfact>
</mgrwt>
</event>
<event>
 6    1  0.8947013E-004  0.4270485E+03  0.7818608E-02  0.1034801E+00
         21   -1    0    0  501  502  0.00000000000E+00  0.00000000000E+00  0.30467186938E+03  0.30467186938E+03  0.00000000000E+00 0.  1.
         21   -1    0    0  502  503 -0.00000000000E+00 -0.00000000000E+00 -0.62063839656E+03  0.62063839656E+03  0.00000000000E+00 0.  1.
    9000007    2    1    2  501    0  0.24568188227E+02 -0.14738628554E+03 -0.24535768947E+03  0.49251479345E+03  0.40005513739E+03 0.  0.
    9000005    1    3    3    0    0 -0.67832765747E+02  0.76835067947E+02  0.46919218095E+02  0.11272677054E+03  0.99999687468E+00 0.  0.
          4    1    3    3  501    0  0.92400953975E+02 -0.22422135349E+03 -0.29227690756E+03  0.37978802292E+03  0.00000000000E+00 0.  1.
   -9000007    1    1    2    0  503 -0.24568188227E+02  0.14738628554E+03 -0.70608837706E+02  0.43279547248E+03  0.40000000000E+03 0.  1.
<mgrwt>
<rscale>  2 0.42703559E+03</rscale>
<asrwt>0</asrwt>
<pdfrwt beam="1">  1       21 0.46872595E-01 0.42704851E+03</pdfrwt>
<pdfrwt beam="2">  1       21 0.95482830E-01 0.42704851E+03</pdfrwt>
<totfact> 0.35082088E+03</totfact>
</mgrwt>
</event>
<event>
 6    1  0.8947013E-004  0.1177292E+04  0.7818608E-02  0.9133012E-01
         21   -1    0    0  501  502  0.00000000000E+00  0.00000000000E+00  0.15890910126E+04  0.15890910126E+04  0.00000000000E+00 0.  1.
         21   -1    0    0  502  503 -0.00000000000E+00 -0.00000000000E+00 -0.88569619154E+03  0.88569619154E+03  0.00000000000E+00 0. -1.
    9000007    2    1    2  501    0  0.91629764082E+03  0.62162265109E+03  0.19813867748E+03  0.11936549481E+04  0.39942097164E+03 0.  0.
    9000005    1    3    3    0    0  0.83731969579E+03  0.50512411029E+03  0.35438358850E+02  0.97852517445E+03  0.99999687468E+00 0.  0.
          4    1    3    3  501    0  0.78977945025E+02  0.11649854079E+03  0.16270031863E+03  0.21512977360E+03  0.00000000000E+00 0.  1.
   -9000007    1    1    2    0  503 -0.91629764082E+03 -0.62162265109E+03  0.50525614356E+03  0.12811322561E+04  0.40000000000E+03 0.  1.
<mgrwt>
<rscale>  2 0.11772427E+04</rscale>
<asrwt>0</asrwt>
<pdfrwt beam="1">  1       21 0.24447554E+00 0.11772918E+04</pdfrwt>
<pdfrwt beam="2">  1       21 0.13626095E+00 0.11772918E+04</pdfrwt>
<totfact> 0.15611275E+01</totfact>
</mgrwt>
</event>
<event>
 6    1  0.8947013E-004  0.5384420E+03  0.7818608E-02  0.1004223E+00
         21   -1    0    0  501  502  0.00000000000E+00  0.00000000000E+00  0.13722059582E+04  0.13722059582E+04  0.00000000000E+00 0.  1.
         21   -1    0    0  502  503 -0.00000000000E+00 -0.00000000000E+00 -0.40813827049E+03  0.40813827049E+03  0.00000000000E+00 0.  1.
    9000007    2    1    2  501    0  0.20121560877E+03  0.29850387016E+03  0.11005173990E+04  0.12251768617E+04  0.40040918466E+03 0.  0.
    9000005    1    3    3    0    0 -0.31821477351E+02 -0.15362594443E+02 -0.18460178245E+02  0.39879743021E+02  0.99999687468E+00 0.  0.
          4    1    3    3  501    0  0.23303708612E+03  0.31386646460E+03  0.11189775772E+04  0.11852971186E+04  0.00000000000E+00 0.  1.
   -9000007    1    1    2    0  503 -0.20121560877E+03 -0.29850387016E+03 -0.13644971127E+03  0.55516736703E+03  0.40000000000E+03 0.  1.
<mgrwt>
<rscale>  2 0.53836594E+03</rscale>
<asrwt>0</asrwt>
<pdfrwt beam="1">  1       21 0.21110861E+00 0.53844201E+03</pdfrwt>
<pdfrwt beam="2">  1       21 0.62790504E-01 0.53844201E+03</pdfrwt>
<totfact> 0.20736961E+02</totfact>
</mgrwt>
</event>
<event>
 6    1  0.8947013E-004  0.6409638E+03  0.7818608E-02  0.9824000E-01
         21   -1    0    0  501  502  0.00000000000E+00  0.00000000000E+00  0.11417254453E+04  0.11417254453E+04  0.00000000000E+00 0. -1.
         21   -1    0    0  502  503 -0.00000000000E+00 -0.00000000000E+00 -0.61494401610E+03  0.61494401610E+03  0.00000000000E+00 0.  1.
    9000007    2    1    2  501    0 -0.28962457295E+03  0.40859783001E+03  0.82923525244E+03  0.10479291034E+04  0.39961196407E+03 0.  0.
    9000005    1    3    3    0    0 -0.17770260863E+02  0.18449548609E+03  0.59908157336E+03  0.62709975130E+03  0.99999687468E+00 0.  0.
          4    1    3    3  501    0 -0.27185431209E+03  0.22410234393E+03  0.23015367909E+03  0.42082935205E+03  0.00000000000E+00 0.  1.
   -9000007    1    1    2    0  503  0.28962457295E+03 -0.40859783001E+03 -0.30245382323E+03  0.70874035805E+03  0.40000000000E+03 0. -1.
<mgrwt>
<rscale>  2 0.64090326E+03</rscale>
<asrwt>0</asrwt>
<pdfrwt beam="1">  1       21 0.17565007E+00 0.64096379E+03</pdfrwt>
<pdfrwt beam="2">  1       21 0.94606772E-01 0.64096379E+03</pdfrwt>
<totfact> 0.13516783E+02</totfact>
</mgrwt>
</event>
<event>
 6    1  0.8947013E-004  0.4936388E+03  0.7818608E-02  0.1015632E+00
         21   -1    0    0  501  502  0.00000000000E+00  0.00000000000E+00  0.20754100781E+04  0.20754100781E+04  0.00000000000E+00 0.  1.
         21   -1    0    0  502  503 -0.00000000000E+00 -0.00000000000E+00 -0.17901865538E+03  0.17901865538E+03  0.00000000000E+00 0.  1.
    9000007    2    1    2  501    0 -0.28463010954E+03 -0.40802517574E+01  0.16145589722E+04  0.16883364461E+04  0.40329682962E+03 0.  0.
    9000005    1    3    3    0    0  0.27520922313E+02  0.34829196711E+02  0.10123624709E+01  0.44412824499E+02  0.99999687468E+00 0.  0.
          4    1    3    3  501    0 -0.31215103186E+03 -0.38909448468E+02  0.16135466097E+04  0.16439236216E+04  0.00000000000E+00 0.  1.
   -9000007    1    1    2    0  503  0.28463010954E+03  0.40802517574E+01  0.28183245061E+03  0.56609228747E+03  0.40000000000E+03 0.  1.
<mgrwt>
<rscale>  2 0.49296499E+03</rscale>
<asrwt>0</asrwt>
<pdfrwt beam="1">  1       21 0.31929384E+00 0.49363882E+03</pdfrwt>
<pdfrwt beam="2">  1       21 0.27541333E-01 0.49363882E+03</pdfrwt>
<totfact> 0.25342056E+02</totfact>
</mgrwt>
</event>
<event>
 6    1  0.8947013E-004  0.4242085E+03  0.7818608E-02  0.1035729E+00
         21   -1    0    0  501  502  0.00000000000E+00  0.00000000000E+00  0.18144034071E+03  0.18144034071E+03  0.00000000000E+00 0.  1.
         21   -1    0    0  502  503 -0.00000000000E+00 -0.00000000000E+00 -0.20990270946E+04  0.20990270946E+04  0.00000000000E+00 0.  1.
    9000007    2    1    2  501    0  0.13941812216E+03  0.16110388934E+02 -0.13055250322E+03  0.44384325752E+03  0.40031977684E+03 0.  0.
    9000005    1    3    3    0    0  0.12839487696E+03 -0.16239580041E+03 -0.16121093599E+03  0.26238827393E+03  0.99999687468E+00 0.  0.
          4    1    3    3  501    0  0.11023245202E+02  0.17850618934E+03  0.30658432768E+02  0.18145498359E+03  0.00000000000E+00 0.  1.
   -9000007    1    1    2    0  503 -0.13941812216E+03 -0.16110388934E+02 -0.17870342507E+04  0.18366241778E+04  0.40000000000E+03 0.  1.
<mgrwt>
<rscale>  2 0.42413308E+03</rscale>
<asrwt>0</asrwt>
<pdfrwt beam="1">  1       21 0.27913899E-01 0.42420853E+03</pdfrwt>
<pdfrwt beam="2">  1       21 0.32292724E+00 0.42420853E+03</pdfrwt>
<totfact> 0.24476848E+02</totfact>
</mgrwt>
</event>
<event>
 6    1  0.8947013E-004  0.4581932E+03  0.7818608E-02  0.1025329E+00
         21   -1    0    0  501  502  0.00000000000E+00  0.00000000000E+00  0.15085074507E+03  0.15085074507E+03  0.00000000000E+00 0. -1.
         21   -1    0    0  502  503 -0.00000000000E+00 -0.00000000000E+00 -0.14743878598E+04  0.14743878598E+04  0.00000000000E+00 0.  1.
    9000007    2    1    2  501    0 -0.16242973576E+03  0.15348474427E+03 -0.85505940893E+03  0.96994298715E+03  0.39965212341E+03 0.  0.
    9000005    1    3    3    0    0 -0.11454534288E+03 -0.12794252441E+03 -0.34723753662E+03  0.38738202328E+03  0.99999687468E+00 0.  0.
          4    1    3    3  501    0 -0.47884392885E+02  0.28142726868E+03 -0.50782187231E+03  0.58256096387E+03  0.00000000000E+00 0.  1.
   -9000007    1    1    2    0  503  0.16242973576E+03 -0.15348474427E+03 -0.46847770583E+03  0.65529561775E+03  0.40000000000E+03 0. -1.
<mgrwt>
<rscale>  2 0.45811724E+03</rscale>
<asrwt>0</asrwt>
<pdfrwt beam="1">  1       21 0.23207806E-01 0.45819318E+03</pdfrwt>
<pdfrwt beam="2">  1       21 0.22682891E+00 0.45819318E+03</pdfrwt>
<totfact> 0.13221050E+03</totfact>
</mgrwt>
</event>
<event>
 6    1  0.8947013E-004  0.4542556E+03  0.7818608E-02  0.1026472E+00
         21   -1    0    0  501  502  0.00000000000E+00  0.00000000000E+00  0.41434957745E+03  0.41434957745E+03  0.00000000000E+00 0.  1.
         21   -1    0    0  502  503 -0.00000000000E+00 -0.00000000000E+00 -0.52688448321E+03  0.52688448321E+03  0.00000000000E+00 0.  1.
    9000007    2    1    2  501    0 -0.91990862342E+02 -0.19429165194E+03 -0.16677074188E+03  0.48390147852E+03  0.40017070833E+03 0.  0.
    9000005    1    3    3    0    0  0.45224901465E+02 -0.22658119914E+03  0.39157668077E+02  0.23434729458E+03  0.99999687468E+00 0.  0.
          4    1    3    3  501    0 -0.13721576381E+03  0.32289547203E+02 -0.20592840995E+03  0.24955418394E+03  0.00000000000E+00 0.  1.
   -9000007    1    1    2    0  503  0.91990862342E+02  0.19429165194E+03  0.54235836118E+02  0.45733258214E+03  0.40000000000E+03 0.  1.
<mgrwt>
<rscale>  2 0.45421801E+03</rscale>
<asrwt>0</asrwt>
<pdfrwt beam="1">  1       21 0.63746089E-01 0.45425561E+03</pdfrwt>
<pdfrwt beam="2">  1       21 0.81059151E-01 0.45425561E+03</pdfrwt>
<totfact> 0.26319952E+03</totfact>
</mgrwt>
</event>
<event>
 6    1  0.8947013E-004  0.4590613E+03  0.7818608E-02  0.1025071E+00
         21   -1    0    0  501  502  0.00000000000E+00  0.00000000000E+00  0.20582374515E+03  0.20582374515E+03  0.00000000000E+00 0.  1.
         21   -1    0    0  502  503 -0.00000000000E+00 -0.00000000000E+00 -0.11411887907E+04  0.11411887907E+04  0.00000000000E+00 0. -1.
    9000007    2    1    2  501    0  0.64411970522E+01  0.22515715955E+03 -0.25113423773E+03  0.52305317165E+03  0.39972362889E+03 0.  0.
    9000005    1    3    3    0    0 -0.66156316234E+02  0.95707383077E+02  0.92563452488E+02  0.14867936670E+03  0.99999687468E+00 0.  0.
          4    1    3    3  501    0  0.72597513286E+02  0.12944977648E+03 -0.34369769022E+03  0.37437380494E+03  0.00000000000E+00 0.  1.
   -9000007    1    1    2    0  503 -0.64411970522E+01 -0.22515715955E+03 -0.68423080786E+03  0.82395936426E+03  0.40000000000E+03 0. -1.
<mgrwt>
<rscale>  2 0.45900104E+03</rscale>
<asrwt>0</asrwt>
<pdfrwt beam="1">  1       21 0.31665192E-01 0.45906125E+03</pdfrwt>
<pdfrwt beam="2">  1       21 0.17556750E+00 0.45906125E+03</pdfrwt>
<totfact> 0.15796128E+03</totfact>
</mgrwt>
</event>
<event>
 6    1  0.8947013E-004  0.5150797E+03  0.7818608E-02  0.1009986E+00
         21   -1    0    0  501  502  0.00000000000E+00  0.00000000000E+00  0.71499651627E+03  0.71499651627E+03  0.00000000000E+00 0. -1.
         21   -1    0    0  502  503 -0.00000000000E+00 -0.00000000000E+00 -0.10077184990E+04  0.10077184990E+04  0.00000000000E+00 0. -1.
    9000007    2    1    2  501    0  0.32336749830E+03  0.27212305213E+02  0.53877024725E+03  0.74461155600E+03  0.39857990603E+03 0.  0.
    9000005    1    3    3    0    0  0.22523781228E+03 -0.65143828792E+02  0.56100631741E+03  0.60803361640E+03  0.99999687468E+00 0.  0.
          4    1    3    3  501    0  0.98129686021E+02  0.92356134005E+02 -0.22236070160E+02  0.13657793959E+03  0.00000000000E+00 0.  1.
   -9000007    1    1    2    0  503 -0.32336749830E+03 -0.27212305213E+02 -0.83149222995E+03  0.97810345924E+03  0.40000000000E+03 0. -1.
<mgrwt>
<rscale>  2 0.51480392E+03</rscale>
<asrwt>0</asrwt>
<pdfrwt beam="1">  1       21 0.10999946E+00 0.51507965E+03</pdfrwt>
<pdfrwt beam="2">  1       21 0.15503361E+00 0.51507965E+03</pdfrwt>
<totfact> 0.14017693E+02</totfact>
</mgrwt>
</event>
<event>
 6    1  0.8947013E-004  0.4080143E+03  0.7818608E-02  0.1041074E+00
         21   -1    0    0  501  502  0.00000000000E+00  0.00000000000E+00  0.15515171627E+03  0.15515171627E+03  0.00000000000E+00 0. -1.
         21   -1    0    0  502  503 -0.00000000000E+00 -0.00000000000E+00 -0.13465337248E+04  0.13465337248E+04  0.00000000000E+00 0. -1.
    9000007    2    1    2  501    0 -0.56527718937E+02 -0.57273778066E+02 -0.25636580923E+03  0.48152321788E+03  0.39958167194E+03 0.  0.
    9000005    1    3    3    0    0 -0.20700752467E+03 -0.11553846031E+03 -0.20134850207E+03  0.31103612388E+03  0.99999687468E+00 0.  0.
          4    1    3    3  501    0  0.15047980574E+03  0.58264682240E+02 -0.55017307157E+02  0.17048709399E+03  0.00000000000E+00 0.  1.
   -9000007    1    1    2    0  503  0.56527718937E+02  0.57273778066E+02 -0.93501619927E+03  0.10201622232E+04  0.40000000000E+03 0. -1.
<mgrwt>
<rscale>  2 0.40791174E+03</rscale>
<asrwt>0</asrwt>
<pdfrwt beam="1">  1       21 0.23869494E-01 0.40801430E+03</pdfrwt>
<pdfrwt beam="2">  1       21 0.20715904E+00 0.40801430E+03</pdfrwt>
<totfact> 0.17149166E+03</totfact>
</mgrwt>
</event>
<event>
 6    1  0.8947013E-004  0.4350434E+03  0.7818608E-02  0.1032303E+00
         21   -1    0    0  501  502  0.00000000000E+00  0.00000000000E+00  0.53382326484E+03  0.53382326484E+03  0.00000000000E+00 0. -1.
         21   -1    0    0  502  503 -0.00000000000E+00 -0.00000000000E+00 -0.38829925897E+03  0.38829925897E+03  0.00000000000E+00 0.  1.
    9000007    2    1    2  501    0  0.28237386480E+02  0.16871695227E+03  0.20919902291E+03  0.48244392782E+03  0.39965629273E+03 0.  0.
    9000005    1    3    3    0    0  0.20736270079E+03  0.64299046695E+02  0.54748252096E+02  0.22390182711E+03  0.99999687468E+00 0.  0.
          4    1    3    3  501    0 -0.17912531431E+03  0.10441790558E+03  0.15445077081E+03  0.25854210070E+03  0.00000000000E+00 0.  1.
   -9000007    1    1    2    0  503 -0.28237386480E+02 -0.16871695227E+03 -0.63675017043E+02  0.43967859599E+03  0.40000000000E+03 0.  1.
<mgrwt>
<rscale>  2 0.43496438E+03</rscale>
<asrwt>0</asrwt>
<pdfrwt beam="1">  1       21 0.82126656E-01 0.43504340E+03</pdfrwt>
<pdfrwt beam="2">  1       21 0.59738348E-01 0.43504340E+03</pdfrwt>
<totfact> 0.29663446E+03</totfact>
</mgrwt>
</event>
<event>
 6    1  0.8947013E-004  0.4586788E+03  0.7818608E-02  0.1025181E+00
         21   -1    0    0  501  502  0.00000000000E+00  0.00000000000E+00  0.17279002164E+03  0.17279002164E+03  0.00000000000E+00 0. -1.
         21   -1    0    0  502  503 -0.00000000000E+00 -0.00000000000E+00 -0.12300284847E+04  0.12300284847E+04  0.00000000000E+00 0. -1.
    9000007    2    1    2  501    0 -0.22106861343E+03 -0.38921686375E+02 -0.60065515639E+03  0.75562877725E+03  0.39975242663E+03 0.  0.
    9000005    1    3    3    0    0 -0.51812183804E+02 -0.13584963363E+03 -0.24619542777E+02  0.14746778370E+03  0.99999687468E+00 0.  0.
          4    1    3    3  501    0 -0.16925642963E+03  0.96927947254E+02 -0.57603561361E+03  0.60816099355E+03  0.00000000000E+00 0.  1.
   -9000007    1    1    2    0  503  0.22106861343E+03  0.38921686375E+02 -0.45658330666E+03  0.64718972909E+03  0.40000000000E+03 0. -1.
<mgrwt>
<rscale>  2 0.45862481E+03</rscale>
<asrwt>0</asrwt>
<pdfrwt beam="1">  1       21 0.26583080E-01 0.45867879E+03</pdfrwt>
<pdfrwt beam="2">  1       21 0.18923516E+00 0.45867879E+03</pdfrwt>
<totfact> 0.17919784E+03</totfact>
</mgrwt>
</event>
<event>
 6    1  0.8947013E-004  0.4251562E+03  0.7818608E-02  0.1035413E+00
         21   -1    0    0  501  502  0.00000000000E+00  0.00000000000E+00  0.15350099666E+03  0.15350099666E+03  0.00000000000E+00 0.  1.
         21   -1    0    0  502  503 -0.00000000000E+00 -0.00000000000E+00 -0.11943016007E+04  0.11943016007E+04  0.00000000000E+00 0.  1.
    9000007    2    1    2  501    0  0.13718005731E+03  0.44038595840E+02 -0.43957330009E+03  0.61143853179E+03  0.39984325173E+03 0.  0.
    9000005    1    3    3    0    0 -0.21539711248E+02  0.21662460267E+01  0.71467824141E+02  0.74681334105E+02  0.99999687468E+00 0.  0.
          4    1    3    3  501    0  0.15871976856E+03  0.41872349813E+02 -0.51104112423E+03  0.53675719768E+03  0.00000000000E+00 0.  1.
   -9000007    1    1    2    0  503 -0.13718005731E+03 -0.44038595840E+02 -0.60122730397E+03  0.73636406559E+03  0.40000000000E+03 0.  1.
<mgrwt>
<rscale>  2 0.42511929E+03</rscale>
<asrwt>0</asrwt>
<pdfrwt beam="1">  1       21 0.23615537E-01 0.42515617E+03</pdfrwt>
<pdfrwt beam="2">  1       21 0.18373872E+00 0.42515617E+03</pdfrwt>
<totfact> 0.24971267E+03</totfact>
</mgrwt>
</event>
<event>
 6    1  0.8947013E-004  0.4224058E+03  0.7818608E-02  0.1036319E+00
         21   -1    0    0  501  502  0.00000000000E+00  0.00000000000E+00  0.30479800881E+03  0.30479800881E+03  0.00000000000E+00 0.  1.
         21   -1    0    0  502  503 -0.00000000000E+00 -0.00000000000E+00 -0.93742406855E+03  0.93742406855E+03  0.00000000000E+00 0.  1.
    9000007    2    1    2  501    0 -0.10385264593E+03 -0.87414698588E+02  0.64701892540E+02  0.42693502692E+03  0.39957537551E+03 0.  0.
    9000005    1    3    3    0    0  0.86309898978E+02  0.97932721769E+02  0.92418545331E+02  0.15994500358E+03  0.99999687468E+00 0.  0.
          4    1    3    3  501    0 -0.19016254491E+03 -0.18534742036E+03 -0.27716652792E+02  0.26699002334E+03  0.00000000000E+00 0.  1.
   -9000007    1    1    2    0  503  0.10385264593E+03  0.87414698588E+02 -0.69732795228E+03  0.81528705044E+03  0.40000000000E+03 0.  1.
<mgrwt>
<rscale>  2 0.42230529E+03</rscale>
<asrwt>0</asrwt>
<pdfrwt beam="1">  1       21 0.46892002E-01 0.42240585E+03</pdfrwt>
<pdfrwt beam="2">  1       21 0.14421909E+00 0.42240585E+03</pdfrwt>
<totfact> 0.12390063E+03</totfact>
</mgrwt>
</event>
<event>
 6    1  0.8947013E-004  0.4043607E+03  0.7818608E-02  0.1042298E+00
         21   -1    0    0  501  502  0.00000000000E+00  0.00000000000E+00  0.15201879769E+04  0.15201879769E+04  0.00000000000E+00 0. -1.
         21   -1    0    0  502  503 -0.00000000000E+00 -0.00000000000E+00 -0.10960425314E+03  0.10960425314E+03  0.00000000000E+00 0. -1.
    9000007    2    1    2  501    0  0.19015178529E+02  0.54586301392E+02  0.81830515568E+03  0.91276005257E+03  0.40020787653E+03 0.  0.
    9000005    1    3    3    0    0  0.16520650702E+03 -0.87106373629E+02  0.27375330959E+03  0.33139490762E+03  0.99999687468E+00 0.  0.
          4    1    3    3  501    0 -0.14619132849E+03  0.14169267502E+03  0.54455184609E+03  0.58136514495E+03  0.00000000000E+00 0.  1.
   -9000007    1    1    2    0  503 -0.19015178529E+02 -0.54586301392E+02  0.59227856809E+03  0.71703217747E+03  0.40000000000E+03 0.  1.
<mgrwt>
<rscale>  2 0.40430927E+03</rscale>
<asrwt>0</asrwt>
<pdfrwt beam="1">  1       21 0.23387506E+00 0.40436071E+03</pdfrwt>
<pdfrwt beam="2">  1       21 0.16862194E-01 0.40436071E+03</pdfrwt>
<totfact> 0.22476255E+03</totfact>
</mgrwt>
</event>
<event>
 6    1  0.8947013E-004  0.4477739E+03  0.7818608E-02  0.1028396E+00
         21   -1    0    0  501  502  0.00000000000E+00  0.00000000000E+00  0.60373906030E+03  0.60373906030E+03  0.00000000000E+00 0.  1.
         21   -1    0    0  502  503 -0.00000000000E+00 -0.00000000000E+00 -0.33315546149E+03  0.33315546149E+03  0.00000000000E+00 0.  1.
    9000007    2    1    2  501    0  0.14512072263E+03  0.13943254815E+03  0.16265806446E+03  0.47629775607E+03  0.39987553924E+03 0.  0.
    9000005    1    3    3    0    0  0.11857215201E+03  0.26161147579E+03  0.21952140021E+02  0.28806738091E+03  0.99999687468E+00 0.  0.
          4    1    3    3  501    0  0.26548570619E+02 -0.12217892764E+03  0.14070592444E+03  0.18823037516E+03  0.00000000000E+00 0.  1.
   -9000007    1    1    2    0  503 -0.14512072263E+03 -0.13943254815E+03  0.10792553435E+03  0.46059676571E+03  0.40000000000E+03 0. -1.
<mgrwt>
<rscale>  2 0.44774610E+03</rscale>
<asrwt>0</asrwt>
<pdfrwt beam="1">  1       21 0.92882932E-01 0.44777389E+03</pdfrwt>
<pdfrwt beam="2">  1       21 0.51254687E-01 0.44777389E+03</pdfrwt>
<totfact> 0.30776169E+03</totfact>
</mgrwt>
</event>
<event>
 6    1  0.8947013E-004  0.5410660E+03  0.7818608E-02  0.1003598E+00
         21   -1    0    0  501  502  0.00000000000E+00  0.00000000000E+00  0.76471342905E+03  0.76471342905E+03  0.00000000000E+00 0.  1.
         21   -1    0    0  502  503 -0.00000000000E+00 -0.00000000000E+00 -0.65710754982E+03  0.65710754982E+03  0.00000000000E+00 0. -1.
    9000007    2    1    2  501    0 -0.34905014503E+03 -0.10317214973E+03  0.51325727823E+03  0.74577841088E+03  0.40033974103E+03 0.  0.
    9000005    1    3    3    0    0  0.47548204899E+02  0.69568195667E+02  0.14413228363E+02  0.85494483934E+02  0.99999687468E+00 0.  0.
          4    1    3    3  501    0 -0.39659834993E+03 -0.17274034539E+03  0.49884404986E+03  0.66028392694E+03  0.00000000000E+00 0.  1.
   -9000007    1    1    2    0  503  0.34905014503E+03  0.10317214973E+03 -0.40565139900E+03  0.67604256799E+03  0.40000000000E+03 0. -1.
<mgrwt>
<rscale>  2 0.54100315E+03</rscale>
<asrwt>0</asrwt>
<pdfrwt beam="1">  1       21 0.11764822E+00 0.54106599E+03</pdfrwt>
<pdfrwt beam="2">  1       21 0.10109347E+00 0.54106599E+03</pdfrwt>
<totfact> 0.35437689E+02</totfact>
</mgrwt>
</event>
<event>
 6    1  0.8947013E-004  0.4131318E+03  0.7818608E-02  0.1039354E+00
         21   -1    0    0  501  502  0.00000000000E+00  0.00000000000E+00  0.19491742646E+03  0.19491742646E+03  0.00000000000E+00 0. -1.
         21   -1    0    0  502  503 -0.00000000000E+00 -0.00000000000E+00 -0.10531568187E+04  0.10531568187E+04  0.00000000000E+00 0. -1.
    9000007    2    1    2  501    0 -0.78546055305E+01  0.10162701321E+03 -0.17253605443E+03  0.44771256933E+03  0.40035997554E+03 0.  0.
    9000005    1    3    3    0    0 -0.47994548345E+01 -0.11863308630E+03 -0.19287748732E+03  0.22649408169E+03  0.99999687468E+00 0.  0.
          4    1    3    3  501    0 -0.30551506960E+01  0.22026009951E+03  0.20341432890E+02  0.22121848764E+03  0.00000000000E+00 0.  1.
   -9000007    1    1    2    0  503  0.78546055305E+01 -0.10162701321E+03 -0.68570333777E+03  0.80036167579E+03  0.40000000000E+03 0.  1.
<mgrwt>
<rscale>  2 0.41304453E+03</rscale>
<asrwt>0</asrwt>
<pdfrwt beam="1">  1       21 0.29987296E-01 0.41313176E+03</pdfrwt>
<pdfrwt beam="2">  1       21 0.16202413E+00 0.41313176E+03</pdfrwt>
<totfact> 0.22541594E+03</totfact>
</mgrwt>
</event>
<event>
 6    1  0.8947013E-004  0.5164932E+03  0.7818608E-02  0.1009569E+00
         21   -1    0    0  501  502  0.00000000000E+00  0.00000000000E+00  0.12771569916E+04  0.12771569916E+04  0.00000000000E+00 0. -1.
         21   -1    0    0  502  503 -0.00000000000E+00 -0.00000000000E+00 -0.36544400135E+03  0.36544400135E+03  0.00000000000E+00 0.  1.
    9000007    2    1    2  501    0 -0.31057517622E+03 -0.10152956181E+03  0.99349523784E+03  0.11196731509E+04  0.39983744840E+03 0.  0.
    9000005    1    3    3    0    0 -0.89015415794E+02 -0.57110417297E+01  0.81396710924E+03  0.81884053097E+03  0.99999687468E+00 0.  0.
          4    1    3    3  501    0 -0.22155976042E+03 -0.95818520085E+02  0.17952812860E+03  0.30083261989E+03  0.00000000000E+00 0.  1.
   -9000007    1    1    2    0  503  0.31057517622E+03  0.10152956181E+03 -0.81782247595E+02  0.52292784208E+03  0.40000000000E+03 0.  1.
<mgrwt>
<rscale>  2 0.51646169E+03</rscale>
<asrwt>0</asrwt>
<pdfrwt beam="1">  1       21 0.19648569E+00 0.51649317E+03</pdfrwt>
<pdfrwt beam="2">  1       21 0.56222155E-01 0.51649317E+03</pdfrwt>
<totfact> 0.33389040E+02</totfact>
</mgrwt>
</event>
<event>
 6    1  0.8947013E-004  0.4177970E+03  0.7818608E-02  0.1037849E+00
         21   -1    0    0  501  502  0.00000000000E+00  0.00000000000E+00  0.89025739465E+03  0.89025739465E+03  0.00000000000E+00 0.  1.
         21   -1    0    0  502  503 -0.00000000000E+00 -0.00000000000E+00 -0.21330029318E+03  0.21330029318E+03  0.00000000000E+00 0.  1.
    9000007    2    1    2  501    0 -0.90861747057E+02 -0.75221964733E+02  0.18031816529E+03  0.45504829392E+03  0.40079933634E+03 0.  0.
    9000005    1    3    3    0    0  0.97542522361E+01 -0.17955175544E+03 -0.46627832937E+02  0.18576634011E+03  0.99999687468E+00 0.  0.
          4    1    3    3  501    0 -0.10061599929E+03  0.10432979071E+03  0.22694599822E+03  0.26928195382E+03  0.00000000000E+00 0.  1.
   -9000007    1    1    2    0  503  0.90861747057E+02  0.75221964733E+02  0.49663893618E+03  0.64850939391E+03  0.40000000000E+03 0.  1.
<mgrwt>
<rscale>  2 0.41760515E+03</rscale>
<asrwt>0</asrwt>
<pdfrwt beam="1">  1       21 0.13696267E+00 0.41779697E+03</pdfrwt>
<pdfrwt beam="2">  1       21 0.32815430E-01 0.41779697E+03</pdfrwt>
<totfact> 0.29628886E+03</totfact>
</mgrwt>
</event>
<event>
 6    1  0.8947013E-004  0.5143950E+03  0.7818608E-02  0.1010163E+00
         21   -1    0    0  501  502  0.00000000000E+00  0.00000000000E+00  0.67633468180E+03  0.67633468180E+03  0.00000000000E+00 0. -1.
         21   -1    0    0  502  503 -0.00000000000E+00 -0.00000000000E+00 -0.51592311600E+03  0.51592311600E+03  0.00000000000E+00 0. -1.
    9000007    2    1    2  501    0  0.21891699968E+03  0.23550543921E+03  0.37439823036E+03  0.63622024758E+03  0.40151550890E+03 0.  0.
    9000005    1    3    3    0    0  0.14114225138E+03  0.29126144107E+03  0.89685357238E+02  0.33585536392E+03  0.99999687468E+00 0.  0.
          4    1    3    3  501    0  0.77774748295E+02 -0.55756001856E+02  0.28471287312E+03  0.30036488366E+03  0.00000000000E+00 0.  1.
   -9000007    1    1    2    0  503 -0.21891699968E+03 -0.23550543921E+03 -0.21398666456E+03  0.55603755022E+03  0.40000000000E+03 0. -1.
<mgrwt>
<rscale>  2 0.51409918E+03</rscale>
<asrwt>0</asrwt>
<pdfrwt beam="1">  1       21 0.10405149E+00 0.51439495E+03</pdfrwt>
<pdfrwt beam="2">  1       21 0.79372786E-01 0.51439495E+03</pdfrwt>
<totfact> 0.86412408E+02</totfact>
</mgrwt>
</event>
<event>
 6    1  0.8947013E-004  0.4480707E+03  0.7818608E-02  0.1028496E+00
         21   -1    0    0  501  502  0.00000000000E+00  0.00000000000E+00  0.37761812600E+03  0.37761812600E+03  0.00000000000E+00 0.  1.
         21   -1    0    0  502  503 -0.00000000000E+00 -0.00000000000E+00 -0.63032851621E+03  0.63032851621E+03  0.00000000000E+00 0.  1.
    9000007    2    1    2  501    0 -0.24597846910E+02  0.19448020544E+03  0.75831162930E+02  0.45444220995E+03  0.40291407587E+03 0.  0.
    9000005    1    3    3    0    0 -0.17557186942E+03  0.17557654650E+03 -0.54371010106E+02  0.25418460171E+03  0.99999687468E+00 0.  0.
          4    1    3    3  501    0  0.15097402251E+03  0.18903658943E+02  0.13020217304E+03  0.20025760824E+03  0.00000000000E+00 0.  1.
   -9000007    1    1    2    0  503  0.24597846910E+02 -0.19448020544E+03 -0.32854155315E+03  0.55350443225E+03  0.40000000000E+03 0. -1.
<mgrwt>
<rscale>  2 0.44741462E+03</rscale>
<asrwt>0</asrwt>
<pdfrwt beam="1">  1       21 0.58095096E-01 0.44807071E+03</pdfrwt>
<pdfrwt beam="2">  1       21 0.96973618E-01 0.44807071E+03</pdfrwt>
<totfact> 0.21183974E+03</totfact>
</mgrwt>
</event>
<event>
 6    1  0.8947013E-004  0.4336927E+03  0.7818608E-02  0.1032945E+00
         21   -1    0    0  501  502  0.00000000000E+00  0.00000000000E+00  0.14730247136E+03  0.14730247136E+03  0.00000000000E+00 0.  1.
         21   -1    0    0  502  503 -0.00000000000E+00 -0.00000000000E+00 -0.13471962197E+04  0.13471962197E+04  0.00000000000E+00 0.  1.
    9000007    2    1    2  501    0  0.16756574587E+03  0.33342583656E+01 -0.41638653864E+03  0.59896926992E+03  0.39660690901E+03 0.  0.
    9000005    1    3    3    0    0 -0.68215209572E+02 -0.11423053780E+03 -0.26135910514E+03  0.29327719382E+03  0.99999687468E+00 0.  0.
          4    1    3    3  501    0  0.23578095544E+03  0.11756479617E+03 -0.15502743350E+03  0.30569207609E+03  0.00000000000E+00 0.  1.
   -9000007    1    1    2    0  503 -0.16756574587E+03 -0.33342583656E+01 -0.78350720970E+03  0.89552942114E+03  0.40000000000E+03 0.  1.
<mgrwt>
<rscale>  2 0.43290875E+03</rscale>
<asrwt>0</asrwt>
<pdfrwt beam="1">  1       21 0.22661918E-01 0.43369274E+03</pdfrwt>
<pdfrwt beam="2">  1       21 0.20726096E+00 0.43369274E+03</pdfrwt>
<totfact> 0.18701403E+03</totfact>
</mgrwt>
</event>
<event>
 6    1  0.8947013E-004  0.4473933E+03  0.7818608E-02  0.1028553E+00
         21   -1    0    0  501  502  0.00000000000E+00  0.00000000000E+00  0.13175075481E+04  0.13175075481E+04  0.00000000000E+00 0. -1.
         21   -1    0    0  502  503 -0.00000000000E+00 -0.00000000000E+00 -0.73096079648E+03  0.73096079648E+03  0.00000000000E+00 0. -1.
    9000007    2    1    2  501    0  0.93697030997E+02 -0.17714864151E+03  0.12050103404E+04  0.12851479757E+04  0.39924256311E+03 0.  0.
    9000005    1    3    3    0    0 -0.11126395508E+03 -0.19653021299E+03  0.79347510597E+03  0.82498941575E+03  0.99999687468E+00 0.  0.
          4    1    3    3  501    0  0.20496098607E+03  0.19381571485E+02  0.41153523446E+03  0.46015855998E+03  0.00000000000E+00 0.  1.
   -9000007    1    1    2    0  503 -0.93697030997E+02  0.17714864151E+03 -0.61846358880E+03  0.76332036884E+03  0.40000000000E+03 0. -1.
<mgrwt>
<rscale>  2 0.44722395E+03</rscale>
<asrwt>0</asrwt>
<pdfrwt beam="1">  1       21 0.20269347E+00 0.44739331E+03</pdfrwt>
<pdfrwt beam="2">  1       21 0.11245551E+00 0.44739331E+03</pdfrwt>
<totfact> 0.62950033E+01</totfact>
</mgrwt>
</event>
<event>
 6    1  0.8947013E-004  0.4175860E+03  0.7818608E-02  0.1037961E+00
         21   -1    0    0  501  502  0.00000000000E+00  0.00000000000E+00  0.16486400025E+03  0.16486400025E+03  0.00000000000E+00 0.  1.
         21   -1    0    0  502  503 -0.00000000000E+00 -0.00000000000E+00 -0.10891656918E+04  0.10891656918E+04  0.00000000000E+00 0.  1.
    9000007    2    1    2  501    0  0.97019016225E+02 -0.70465168745E+02 -0.34948554159E+03  0.54354279156E+03  0.39864845786E+03 0.  0.
    9000005    1    3    3    0    0 -0.13133351952E+03  0.34363640799E+02 -0.22583941122E+03  0.26350292752E+03  0.99999687468E+00 0.  0.
          4    1    3    3  501    0  0.22835253575E+03 -0.10482880954E+03 -0.12364613037E+03  0.28003986403E+03  0.00000000000E+00 0.  1.
   -9000007    1    1    2    0  503 -0.97019016225E+02  0.70465168745E+02 -0.57481614996E+03  0.71048690049E+03  0.40000000000E+03 0.  1.
<mgrwt>
<rscale>  2 0.41726197E+03</rscale>
<asrwt>0</asrwt>
<pdfrwt beam="1">  1       21 0.25363693E-01 0.41758595E+03</pdfrwt>
<pdfrwt beam="2">  1       21 0.16756395E+00 0.41758595E+03</pdfrwt>
<totfact> 0.28446828E+03</totfact>
</mgrwt>
</event>
<event>
 6    1  0.8947013E-004  0.4577519E+03  0.7818608E-02  0.1025854E+00
         21   -1    0    0  501  502  0.00000000000E+00  0.00000000000E+00  0.48273333667E+03  0.48273333667E+03  0.00000000000E+00 0. -1.
         21   -1    0    0  502  503 -0.00000000000E+00 -0.00000000000E+00 -0.70029163200E+03  0.70029163200E+03  0.00000000000E+00 0. -1.
    9000007    2    1    2  501    0 -0.22230304332E+03 -0.10869819031E+02  0.26001814045E+03  0.52149942264E+03  0.39346590503E+03 0.  0.
    9000005    1    3    3    0    0 -0.10257360467E+03 -0.20143820965E+03  0.11346849103E+03  0.25293239241E+03  0.99999687468E+00 0.  0.
          4    1    3    3  501    0 -0.11972943865E+03  0.19056839062E+03  0.14654964941E+03  0.26856703023E+03  0.00000000000E+00 0.  1.
   -9000007    1    1    2    0  503  0.22230304332E+03  0.10869819031E+02 -0.47757643578E+03  0.66152554603E+03  0.40000000000E+03 0. -1.
<mgrwt>
<rscale>  2 0.45632055E+03</rscale>
<asrwt>0</asrwt>
<pdfrwt beam="1">  1       21 0.74266667E-01 0.45775189E+03</pdfrwt>
<pdfrwt beam="2">  1       21 0.10773717E+00 0.45775189E+03</pdfrwt>
<totfact> 0.94417494E+02</totfact>
</mgrwt>
</event>
<event>
 6    1  0.8947013E-004  0.5738496E+03  0.7818608E-02  0.9961365E-01
         21   -1    0    0  501  502  0.00000000000E+00  0.00000000000E+00  0.21299691624E+04  0.21299691624E+04  0.00000000000E+00 0. -1.
         21   -1    0    0  502  503 -0.00000000000E+00 -0.00000000000E+00 -0.18363379244E+03  0.18363379244E+03  0.00000000000E+00 0. -1.
    9000007    2    1    2  501    0 -0.41143973200E+03 -0.45454007877E+01  0.51235525997E+03  0.76906345403E+03  0.39955896957E+03 0.  0.
    9000005    1    3    3    0    0 -0.26353953218E+03 -0.17372431662E+03  0.16718219810E+03  0.35718918036E+03  0.99999687468E+00 0.  0.
          4    1    3    3  501    0 -0.14790019982E+03  0.16917891583E+03  0.34517306188E+03  0.41187427367E+03  0.00000000000E+00 0.  1.
   -9000007    1    1    2    0  503  0.41143973200E+03  0.45454007877E+01  0.14339801100E+04  0.15445395008E+04  0.40000000000E+03 0. -1.
<mgrwt>
<rscale>  2 0.57377271E+03</rscale>
<asrwt>0</asrwt>
<pdfrwt beam="1">  1       21 0.32768755E+00 0.57384956E+03</pdfrwt>
<pdfrwt beam="2">  1       21 0.28251354E-01 0.57384956E+03</pdfrwt>
<totfact> 0.20558844E+02</totfact>
</mgrwt>
</event>
<event>
 6    1  0.8947013E-004  0.4795326E+03  0.7818608E-02  0.1019285E+00
         21   -1    0    0  501  502  0.00000000000E+00  0.00000000000E+00  0.10677166970E+04  0.10677166970E+04  0.00000000000E+00 0.  1.
         21   -1    0    0  502  503 -0.00000000000E+00 -0.00000000000E+00 -0.22640183250E+03  0.22640183250E+03  0.00000000000E+00 0.  1.
    9000007    2    1    2  501    0 -0.12360587043E+02 -0.26419458256E+03  0.56427062130E+03  0.74030892840E+03  0.39963034650E+03 0.  0.
    9000005    1    3    3    0    0 -0.79788306366E+02 -0.16122044736E+01 -0.31464338613E+02  0.85789146365E+02  0.99999687468E+00 0.  0.
          4    1    3    3  501    0  0.67427719323E+02 -0.26258237809E+03  0.59573495991E+03  0.65451978203E+03  0.00000000000E+00 0.  1.
   -9000007    1    1    2    0  503  0.12360587043E+02  0.26419458256E+03  0.27704424317E+03  0.55380960107E+03  0.40000000000E+03 0.  1.
<mgrwt>
<rscale>  2 0.47945556E+03</rscale>
<asrwt>0</asrwt>
<pdfrwt beam="1">  1       21 0.16426410E+00 0.47953265E+03</pdfrwt>
<pdfrwt beam="2">  1       21 0.34831052E-01 0.47953265E+03</pdfrwt>
<totfact> 0.15635370E+03</totfact>
</mgrwt>
</event>
<event>
 6    1  0.8947013E-004  0.4763330E+03  0.7818608E-02  0.1020168E+00
         21   -1    0    0  501  502  0.00000000000E+00  0.00000000000E+00  0.36517584577E+03  0.36517584577E+03  0.00000000000E+00 0. -1.
         21   -1    0    0  502  503 -0.00000000000E+00 -0.00000000000E+00 -0.86287700738E+03  0.86287700738E+03  0.00000000000E+00 0. -1.
    9000007    2    1    2  501    0  0.56235174256E+01  0.25803067625E+03  0.76228868996E+02  0.48239399425E+03  0.40035193441E+03 0.  0.
    9000005    1    3    3    0    0  0.16186927639E+03  0.87635231300E+02  0.15240891882E+03  0.23897923536E+03  0.99999687468E+00 0.  0.
          4    1    3    3  501    0 -0.15624575897E+03  0.17039544495E+03 -0.76180049821E+02  0.24341475889E+03  0.00000000000E+00 0.  1.
   -9000007    1    1    2    0  503 -0.56235174256E+01 -0.25803067625E+03 -0.57393003060E+03  0.74565885890E+03  0.40000000000E+03 0. -1.
<mgrwt>
<rscale>  2 0.47625904E+03</rscale>
<asrwt>0</asrwt>
<pdfrwt beam="1">  1       21 0.56180900E-01 0.47633300E+03</pdfrwt>
<pdfrwt beam="2">  1       21 0.13275031E+00 0.47633300E+03</pdfrwt>
<totfact> 0.10253315E+03</totfact>
</mgrwt>
</event>
<event>
 6    1  0.8947013E-004  0.4458267E+03  0.7818608E-02  0.1029028E+00
         21   -1    0    0  501  502  0.00000000000E+00  0.00000000000E+00  0.37614800185E+03  0.37614800185E+03  0.00000000000E+00 0.  1.
         21   -1    0    0  502  503 -0.00000000000E+00 -0.00000000000E+00 -0.18736283851E+04  0.18736283851E+04  0.00000000000E+00 0.  1.
    9000007    2    1    2  501    0 -0.10071198954E+03  0.16726061966E+03  0.20454676650E+03  0.49051079069E+03  0.40080224098E+03 0.  0.
    9000005    1    3    3    0    0  0.43097131002E+02  0.14695116270E+03 -0.78712650311E+02  0.17218794451E+03  0.99999687468E+00 0.  0.
          4    1    3    3  501    0 -0.14380912054E+03  0.20309456955E+02  0.28325941681E+03  0.31832284618E+03  0.00000000000E+00 0.  1.
   -9000007    1    1    2    0  503  0.10071198954E+03 -0.16726061966E+03 -0.17020271497E+04  0.17592655962E+04  0.40000000000E+03 0.  1.
<mgrwt>
<rscale>  2 0.44564633E+03</rscale>
<asrwt>0</asrwt>
<pdfrwt beam="1">  1       21 0.57868922E-01 0.44582671E+03</pdfrwt>
<pdfrwt beam="2">  1       21 0.28825053E+00 0.44582671E+03</pdfrwt>
<totfact> 0.86614584E+01</totfact>
</mgrwt>
</event>
<event>
 6    1  0.8947013E-004  0.4619116E+03  0.7818608E-02  0.1024259E+00
         21   -1    0    0  501  502  0.00000000000E+00  0.00000000000E+00  0.32414648904E+03  0.32414648904E+03  0.00000000000E+00 0.  1.
         21   -1    0    0  502  503 -0.00000000000E+00 -0.00000000000E+00 -0.81279160421E+03  0.81279160421E+03  0.00000000000E+00 0. -1.
    9000007    2    1    2  501    0 -0.18214852000E+03 -0.14207114393E+03  0.41456386759E+01  0.46150858520E+03  0.39951307190E+03 0.  0.
    9000005    1    3    3    0    0 -0.21596693002E+03 -0.12466813826E+02 -0.14547382916E+03  0.26069286770E+03  0.99999687468E+00 0.  0.
          4    1    3    3  501    0  0.33818410019E+02 -0.12960433011E+03  0.14961946783E+03  0.20081571750E+03  0.00000000000E+00 0.  1.
   -9000007    1    1    2    0  503  0.18214852000E+03  0.14207114393E+03 -0.49279075384E+03  0.67542950805E+03  0.40000000000E+03 0. -1.
<mgrwt>
<rscale>  2 0.46180613E+03</rscale>
<asrwt>0</asrwt>
<pdfrwt beam="1">  1       21 0.49868691E-01 0.46191156E+03</pdfrwt>
<pdfrwt beam="2">  1       21 0.12504486E+00 0.46191156E+03</pdfrwt>
<totfact> 0.15553755E+03</totfact>
</mgrwt>
</event>
<event>
 6    1  0.8947013E-004  0.4051392E+03  0.7818608E-02  0.1042052E+00
         21   -1    0    0  501  502  0.00000000000E+00  0.00000000000E+00  0.18132222015E+03  0.18132222015E+03  0.00000000000E+00 0.  1.
         21   -1    0    0  502  503 -0.00000000000E+00 -0.00000000000E+00 -0.12166854206E+04  0.12166854206E+04  0.00000000000E+00 0. -1.
    9000007    2    1    2  501    0  0.64324051440E+02  0.39218199543E+00 -0.16325149872E+03  0.43638580359E+03  0.39955447732E+03 0.  0.
    9000005    1    3    3    0    0 -0.40287729081E+02 -0.15716047480E+03 -0.18494580442E+03  0.24602533715E+03  0.99999687468E+00 0.  0.
          4    1    3    3  501    0  0.10461178052E+03  0.15755265679E+03  0.21694305699E+02  0.19036046645E+03  0.00000000000E+00 0.  1.
   -9000007    1    1    2    0  503 -0.64324051440E+02 -0.39218199543E+00 -0.87211170168E+03  0.96162183711E+03  0.40000000000E+03 0. -1.
<mgrwt>
<rscale>  2 0.40502915E+03</rscale>
<asrwt>0</asrwt>
<pdfrwt beam="1">  1       21 0.27895727E-01 0.40513916E+03</pdfrwt>
<pdfrwt beam="2">  1       21 0.18718237E+00 0.40513916E+03</pdfrwt>
<totfact> 0.17243704E+03</totfact>
</mgrwt>
</event>
<event>
 6    1  0.8947013E-004  0.5053372E+03  0.7818608E-02  0.1012408E+00
         21   -1    0    0  501  502  0.00000000000E+00  0.00000000000E+00  0.78685180306E+02  0.78685180306E+02  0.00000000000E+00 0.  1.
         21   -1    0    0  502  503 -0.00000000000E+00 -0.00000000000E+00 -0.32440842186E+04  0.32440842186E+04  0.00000000000E+00 0.  1.
    9000007    2    1    2  501    0  0.22073034313E+03  0.21597182375E+03 -0.15801079218E+04  0.16588842956E+04  0.39973784979E+03 0.  0.
    9000005    1    3    3    0    0  0.66601468375E+02 -0.85549654829E+02 -0.81509704287E+03  0.82227652789E+03  0.99999687468E+00 0.  0.
          4    1    3    3  501    0  0.15412887476E+03  0.30152147858E+03 -0.76501087898E+03  0.83660776774E+03  0.00000000000E+00 0.  1.
   -9000007    1    1    2    0  503 -0.22073034313E+03 -0.21597182375E+03 -0.15852911164E+04  0.16638851033E+04  0.40000000000E+03 0.  1.
<mgrwt>
<rscale>  2 0.50528535E+03</rscale>
<asrwt>0</asrwt>
<pdfrwt beam="1">  1       21 0.12105414E-01 0.50533723E+03</pdfrwt>
<pdfrwt beam="2">  1       21 0.49908982E+00 0.50533723E+03</pdfrwt>
<totfact> 0.79950021E+01</totfact>
</mgrwt>
</event>
<event>
 6    1  0.8947013E-004  0.4738610E+03  0.7818608E-02  0.1020910E+00
         21   -1    0    0  501  502  0.00000000000E+00  0.00000000000E+00  0.14068990105E+03  0.14068990105E+03  0.00000000000E+00 0.  1.
         21   -1    0    0  502  503 -0.00000000000E+00 -0.00000000000E+00 -0.16036197221E+04  0.16036197221E+04  0.00000000000E+00 0.  1.
    9000007    2    1    2  501    0  0.22239444218E+03  0.11865615927E+03 -0.65947909811E+03  0.81206950589E+03  0.40125506788E+03 0.  0.
    9000005    1    3    3    0    0 -0.36284996307E+02 -0.10025017023E+03 -0.57181370196E+02  0.12098515066E+03  0.99999687468E+00 0.  0.
          4    1    3    3  501    0  0.25867943849E+03  0.21890632950E+03 -0.60229772792E+03  0.69108435523E+03  0.00000000000E+00 0.  1.
   -9000007    1    1    2    0  503 -0.22239444218E+03 -0.11865615927E+03 -0.80345072293E+03  0.93224011726E+03  0.40000000000E+03 0.  1.
<mgrwt>
<rscale>  2 0.47359516E+03</rscale>
<asrwt>0</asrwt>
<pdfrwt beam="1">  1       21 0.21644599E-01 0.47386095E+03</pdfrwt>
<pdfrwt beam="2">  1       21 0.24671075E+00 0.47386095E+03</pdfrwt>
<totfact> 0.11278424E+03</totfact>
</mgrwt>
</event>
<event>
 6    1  0.8947013E-004  0.4068722E+03  0.7818608E-02  0.1041441E+00
         21   -1    0    0  501  502  0.00000000000E+00  0.00000000000E+00  0.16105859623E+03  0.16105859623E+03  0.00000000000E+00 0.  1.
         21   -1    0    0  502  503 -0.00000000000E+00 -0.00000000000E+00 -0.10477793598E+04  0.10477793598E+04  0.00000000000E+00 0.  1.
    9000007    2    1    2  501    0  0.73467798583E+02  0.67357720546E+00 -0.52775318624E+03  0.66638455460E+03  0.40018368018E+03 0.  0.
    9000005    1    3    3    0    0  0.20102101164E+03  0.10546557627E+03 -0.39054353113E+03  0.45172744503E+03  0.99999687468E+00 0.  0.
          4    1    3    3  501    0 -0.12755321306E+03 -0.10479199906E+03 -0.13720965512E+03  0.21465710956E+03  0.00000000000E+00 0.  1.
   -9000007    1    1    2    0  503 -0.73467798583E+02 -0.67357720546E+00 -0.35896757729E+03  0.54245340139E+03  0.40000000000E+03 0. -1.
<mgrwt>
<rscale>  2 0.40682698E+03</rscale>
<asrwt>0</asrwt>
<pdfrwt beam="1">  1       21 0.24778245E-01 0.40687215E+03</pdfrwt>
<pdfrwt beam="2">  1       21 0.16119683E+00 0.40687215E+03</pdfrwt>
<totfact> 0.33332063E+03</totfact>
</mgrwt>
</event>
<event>
 6    1  0.8947013E-004  0.5180512E+03  0.7818608E-02  0.1009186E+00
         21   -1    0    0  501  502  0.00000000000E+00  0.00000000000E+00  0.28311269570E+03  0.28311269570E+03  0.00000000000E+00 0. -1.
         21   -1    0    0  502  503 -0.00000000000E+00 -0.00000000000E+00 -0.20788916414E+04  0.20788916414E+04  0.00000000000E+00 0. -1.
    9000007    2    1    2  501    0 -0.17678926282E+03  0.27727634134E+03 -0.26744569060E+02  0.51874113326E+03  0.40030048519E+03 0.  0.
    9000005    1    3    3    0    0 -0.30064795339E+03  0.24562164085E+03 -0.39675673432E+02  0.39024907609E+03  0.99999687468E+00 0.  0.
          4    1    3    3  501    0  0.12385869058E+03  0.31654700489E+02  0.12931104372E+02  0.12849205716E+03  0.00000000000E+00 0.  1.
   -9000007    1    1    2    0  503  0.17678926282E+03 -0.27727634134E+03 -0.17690343766E+04  0.18432632038E+04  0.40000000000E+03 0. -1.
<mgrwt>
<rscale>  2 0.51799320E+03</rscale>
<asrwt>0</asrwt>
<pdfrwt beam="1">  1       21 0.43555799E-01 0.51805124E+03</pdfrwt>
<pdfrwt beam="2">  1       21 0.31982949E+00 0.51805124E+03</pdfrwt>
<totfact> 0.97967488E+01</totfact>
</mgrwt>
</event>
<event>
 6    1  0.8947013E-004  0.6362453E+03  0.7818608E-02  0.9833076E-01
         21   -1    0    0  501  502  0.00000000000E+00  0.00000000000E+00  0.90909948397E+03  0.90909948397E+03  0.00000000000E+00 0.  1.
         21   -1    0    0  502  503 -0.00000000000E+00 -0.00000000000E+00 -0.80380543640E+03  0.80380543640E+03  0.00000000000E+00 0. -1.
    9000007    2    1    2  501    0  0.42100110937E+03 -0.25993479736E+03  0.62478717667E+03  0.89151515652E+03  0.39954001703E+03 0.  0.
    9000005    1    3    3    0    0  0.22026079625E+03  0.85607246221E+02  0.22858222247E+03  0.32877690216E+03  0.99999687468E+00 0.  0.
          4    1    3    3  501    0  0.20074031312E+03 -0.34554204358E+03  0.39620495419E+03  0.56273825436E+03  0.00000000000E+00 0.  1.
   -9000007    1    1    2    0  503 -0.42100110937E+03  0.25993479736E+03 -0.51949312911E+03  0.82138976385E+03  0.40000000000E+03 0. -1.
<mgrwt>
<rscale>  2 0.63617298E+03</rscale>
<asrwt>0</asrwt>
<pdfrwt beam="1">  1       21 0.13986146E+00 0.63624526E+03</pdfrwt>
<pdfrwt beam="2">  1       21 0.12366238E+00 0.63624526E+03</pdfrwt>
<totfact> 0.13120386E+02</totfact>
</mgrwt>
</event>
<event>
 6    1  0.8947013E-004  0.5442583E+03  0.7818608E-02  0.1002860E+00
         21   -1    0    0  501  502  0.00000000000E+00  0.00000000000E+00  0.53807776428E+03  0.53807776428E+03  0.00000000000E+00 0. -1.
         21   -1    0    0  502  503 -0.00000000000E+00 -0.00000000000E+00 -0.55657304278E+03  0.55657304278E+03  0.00000000000E+00 0.  1.
    9000007    2    1    2  501    0  0.31303817286E+03 -0.19551000824E+03 -0.68614395797E+02  0.54808975200E+03  0.39934619060E+03 0.  0.
    9000005    1    3    3    0    0 -0.61387956110E+01 -0.22239640255E+03 -0.44382947738E+02  0.22686712129E+03  0.99999687468E+00 0.  0.
          4    1    3    3  501    0  0.31917696847E+03  0.26886394315E+02 -0.24231448059E+02  0.32122263071E+03  0.00000000000E+00 0.  1.
   -9000007    1    1    2    0  503 -0.31303817286E+03  0.19551000824E+03  0.50119117294E+02  0.54656105506E+03  0.40000000000E+03 0.  1.
<mgrwt>
<rscale>  2 0.54413814E+03</rscale>
<asrwt>0</asrwt>
<pdfrwt beam="1">  1       21 0.82781195E-01 0.54425827E+03</pdfrwt>
<pdfrwt beam="2">  1       21 0.85626622E-01 0.54425827E+03</pdfrwt>
<totfact> 0.12397679E+03</totfact>
</mgrwt>
</event>
<event>
 6    1  0.8947013E-004  0.5298403E+03  0.7818608E-02  0.1006303E+00
         21   -1    0    0  501  502  0.00000000000E+00  0.00000000000E+00  0.16163266932E+03  0.16163266932E+03  0.00000000000E+00 0.  1.
         21   -1    0    0  502  503 -0.00000000000E+00 -0.00000000000E+00 -0.21257632606E+04  0.21257632606E+04  0.00000000000E+00 0. -1.
    9000007    2    1    2  501    0  0.15092063302E+03  0.31208792310E+03 -0.14727370379E+04  0.15651469884E+04  0.40069290404E+03 0.  0.
    9000005    1    3    3    0    0  0.58699972591E+01  0.13450261007E+03 -0.12056161436E+04  0.12131103390E+04  0.99999687468E+00 0.  0.
          4    1    3    3  501    0  0.14505063576E+03  0.17758531303E+03 -0.26712089430E+03  0.35203664938E+03  0.00000000000E+00 0.  1.
   -9000007    1    1    2    0  503 -0.15092063302E+03 -0.31208792310E+03 -0.49139355345E+03  0.72224894156E+03  0.40000000000E+03 0.  1.
<mgrwt>
<rscale>  2 0.52970927E+03</rscale>
<asrwt>0</asrwt>
<pdfrwt beam="1">  1       21 0.24866564E-01 0.52984027E+03</pdfrwt>
<pdfrwt beam="2">  1       21 0.32704051E+00 0.52984027E+03</pdfrwt>
<totfact> 0.27257935E+02</totfact>
</mgrwt>
</event>
<event>
 6    1  0.8947013E-004  0.4166380E+03  0.7818608E-02  0.1038185E+00
         21   -1    0    0  501  502  0.00000000000E+00  0.00000000000E+00  0.75603058352E+03  0.75603058352E+03  0.00000000000E+00 0.  1.
         21   -1    0    0  502  503 -0.00000000000E+00 -0.00000000000E+00 -0.47356155022E+03  0.47356155022E+03  0.00000000000E+00 0.  1.
    9000007    2    1    2  501    0 -0.67948391938E+02  0.94711323273E+02  0.58259856928E+03  0.71610897229E+03  0.39975461041E+03 0.  0.
    9000005    1    3    3    0    0  0.32864147362E+02 -0.75377674688E+02  0.49163859855E+03  0.49846901368E+03  0.99999687468E+00 0.  0.
          4    1    3    3  501    0 -0.10081253930E+03  0.17008899796E+03  0.90959970728E+02  0.21763995861E+03  0.00000000000E+00 0.  1.
   -9000007    1    1    2    0  503  0.67948391938E+02 -0.94711323273E+02 -0.30012953598E+03  0.51348316145E+03  0.40000000000E+03 0.  1.
<mgrwt>
<rscale>  2 0.41657909E+03</rscale>
<asrwt>0</asrwt>
<pdfrwt beam="1">  1       21 0.11631240E+00 0.41663799E+03</pdfrwt>
<pdfrwt beam="2">  1       21 0.72855623E-01 0.41663799E+03</pdfrwt>
<totfact> 0.82984918E+02</totfact>
</mgrwt>
</event>
<event>
 6    1  0.8947013E-004  0.5588283E+03  0.7818608E-02  0.9995119E-01
         21   -1    0    0  501  502  0.00000000000E+00  0.00000000000E+00  0.57471629057E+03  0.57471629057E+03  0.00000000000E+00 0.  1.
         21   -1    0    0  502  503 -0.00000000000E+00 -0.00000000000E+00 -0.72105469611E+03  0.72105469611E+03  0.00000000000E+00 0.  1.
    9000007    2    1    2  501    0 -0.35349456679E+03  0.16531993376E+03  0.24910907059E+03  0.61117782601E+03  0.39899112361E+03 0.  0.
    9000005    1    3    3    0    0  0.64321905219E+02  0.37548712002E+02 -0.42621195924E+02  0.85818294086E+02  0.99999687468E+00 0.  0.
          4    1    3    3  501    0 -0.41781647201E+03  0.12777122176E+03  0.29173026651E+03  0.52535953193E+03  0.00000000000E+00 0.  1.
   -9000007    1    1    2    0  503  0.35349456679E+03 -0.16531993376E+03 -0.39544747613E+03  0.68459316066E+03  0.40000000000E+03 0.  1.
<mgrwt>
<rscale>  2 0.55864781E+03</rscale>
<asrwt>0</asrwt>
<pdfrwt beam="1">  1       21 0.88417891E-01 0.55882832E+03</pdfrwt>
<pdfrwt beam="2">  1       21 0.11093149E+00 0.55882832E+03</pdfrwt>
<totfact> 0.56343209E+02</totfact>
</mgrwt>
</event>
<event>
 6    1  0.8947013E-004  0.4227443E+03  0.7818608E-02  0.1036203E+00
         21   -1    0    0  501  502  0.00000000000E+00  0.00000000000E+00  0.33648777036E+03  0.33648777036E+03  0.00000000000E+00 0.  1.
         21   -1    0    0  502  503 -0.00000000000E+00 -0.00000000000E+00 -0.13367953062E+04  0.13367953062E+04  0.00000000000E+00 0.  1.
    9000007    2    1    2  501    0 -0.10315091282E+03 -0.89847632273E+02  0.14960014954E+03  0.44812986461E+03  0.39965918352E+03 0.  0.
    9000005    1    3    3    0    0 -0.96693982194E+02 -0.98736587484E+02 -0.11713800863E+03  0.18116554021E+03  0.99999687468E+00 0.  0.
          4    1    3    3  501    0 -0.64569306288E+01  0.88889552107E+01  0.26673815817E+03  0.26696432440E+03  0.00000000000E+00 0.  1.
   -9000007    1    1    2    0  503  0.10315091282E+03  0.89847632273E+02 -0.11499076854E+04  0.12251532120E+04  0.40000000000E+03 0.  1.
<mgrwt>
<rscale>  2 0.42266362E+03</rscale>
<asrwt>0</asrwt>
<pdfrwt beam="1">  1       21 0.51767348E-01 0.42274426E+03</pdfrwt>
<pdfrwt beam="2">  1       21 0.20566082E+00 0.42274426E+03</pdfrwt>
<totfact> 0.36274363E+02</totfact>
</mgrwt>
</event>
<event>
 6    1  0.8947013E-004  0.4451376E+03  0.7818608E-02  0.1029185E+00
         21   -1    0    0  501  502  0.00000000000E+00  0.00000000000E+00  0.13798540173E+04  0.13798540173E+04  0.00000000000E+00 0.  1.
         21   -1    0    0  502  503 -0.00000000000E+00 -0.00000000000E+00 -0.18155827442E+03  0.18155827442E+03  0.00000000000E+00 0.  1.
    9000007    2    1    2  501    0 -0.15227215858E+03  0.12216413911E+03  0.95620148263E+03  0.10547363420E+04  0.40004573309E+03 0.  0.
    9000005    1    3    3    0    0 -0.16876370159E+03  0.10199428528E+02  0.92074456778E+03  0.93613929221E+03  0.99999687468E+00 0.  0.
          4    1    3    3  501    0  0.16491543010E+02  0.11196471058E+03  0.35456914845E+02  0.11859704978E+03  0.00000000000E+00 0.  1.
   -9000007    1    1    2    0  503  0.15227215858E+03 -0.12216413911E+03  0.24209426022E+03  0.50667594969E+03  0.40000000000E+03 0.  1.
<mgrwt>
<rscale>  2 0.44512732E+03</rscale>
<asrwt>0</asrwt>
<pdfrwt beam="1">  1       21 0.21228523E+00 0.44513759E+03</pdfrwt>
<pdfrwt beam="2">  1       21 0.27932043E-01 0.44513759E+03</pdfrwt>
<totfact> 0.11484086E+03</totfact>
</mgrwt>
</event>
<event>
 6    1  0.8947013E-004  0.5484852E+03  0.7818608E-02  0.1001851E+00
         21   -1    0    0  501  502  0.00000000000E+00  0.00000000000E+00  0.11940438920E+04  0.11940438920E+04  0.00000000000E+00 0. -1.
         21   -1    0    0  502  503 -0.00000000000E+00 -0.00000000000E+00 -0.29718656306E+03  0.29718656306E+03  0.00000000000E+00 0. -1.
    9000007    2    1    2  501    0  0.28723783808E+03 -0.24151693548E+03  0.15732759288E+03  0.57050235390E+03  0.39985617236E+03 0.  0.
    9000005    1    3    3    0    0  0.86850274321E+02 -0.30799067524E+03  0.24218172481E+02  0.32091859724E+03  0.99999687468E+00 0.  0.
          4    1    3    3  501    0  0.20038756376E+03  0.66473739760E+02  0.13310942040E+03  0.24958375665E+03  0.00000000000E+00 0.  1.
   -9000007    1    1    2    0  503 -0.28723783808E+03  0.24151693548E+03  0.73952973607E+03  0.92072810117E+03  0.40000000000E+03 0. -1.
<mgrwt>
<rscale>  2 0.54845897E+03</rscale>
<asrwt>0</asrwt>
<pdfrwt beam="1">  1       21 0.18369906E+00 0.54848519E+03</pdfrwt>
<pdfrwt beam="2">  1       21 0.45721010E-01 0.54848519E+03</pdfrwt>
<totfact> 0.62831703E+02</totfact>
</mgrwt>
</event>
<event>
 6    1  0.8947013E-004  0.8510690E+03  0.7818608E-02  0.9488916E-01
         21   -1    0    0  501  502  0.00000000000E+00  0.00000000000E+00  0.25667625448E+04  0.25667625448E+04  0.00000000000E+00 0. -1.
         21   -1    0    0  502  503 -0.00000000000E+00 -0.00000000000E+00 -0.43252386917E+03  0.43252386917E+03  0.00000000000E+00 0.  1.
    9000007    2    1    2  501    0  0.74869909978E+03  0.60877067662E+02  0.19512857947E+04  0.21288106153E+04  0.40007752239E+03 0.  0.
    9000005    1    3    3    0    0  0.74746411118E+03 -0.24738476525E+01  0.19151962723E+04  0.20558906777E+04  0.99999687468E+00 0.  0.
          4    1    3    3  501    0  0.12349886009E+01  0.63350915315E+02  0.36089522394E+02  0.72919937567E+02  0.00000000000E+00 0.  1.
   -9000007    1    1    2    0  503 -0.74869909978E+03 -0.60877067662E+02  0.18295288091E+03  0.87047579864E+03  0.40000000000E+03 0.  1.
<mgrwt>
<rscale>  2 0.85105986E+03</rscale>
<asrwt>0</asrwt>
<pdfrwt beam="1">  1       21 0.39488654E+00 0.85106897E+03</pdfrwt>
<pdfrwt beam="2">  1       21 0.66542135E-01 0.85106897E+03</pdfrwt>
<totfact> 0.11299370E+01</totfact>
</mgrwt>
</event>
<event>
 6    1  0.8947013E-004  0.5712158E+03  0.7818608E-02  0.9967402E-01
         21   -1    0    0  501  502  0.00000000000E+00  0.00000000000E+00  0.13026809111E+04  0.13026809111E+04  0.00000000000E+00 0.  1.
         21   -1    0    0  502  503 -0.00000000000E+00 -0.00000000000E+00 -0.27799180792E+03  0.27799180792E+03  0.00000000000E+00 0. -1.
    9000007    2    1    2  501    0 -0.21801724049E+03  0.34337722898E+03  0.76277024229E+03  0.95294592479E+03  0.40105866717E+03 0.  0.
    9000005    1    3    3    0    0 -0.15039945133E+02  0.10811683393E+03 -0.19802379374E+02  0.11094405775E+03  0.99999687468E+00 0.  0.
          4    1    3    3  501    0 -0.20297729536E+03  0.23526039505E+03  0.78257262167E+03  0.84200186704E+03  0.00000000000E+00 0.  1.
   -9000007    1    1    2    0  503  0.21801724049E+03 -0.34337722898E+03  0.26191886091E+03  0.62772679426E+03  0.40000000000E+03 0. -1.
<mgrwt>
<rscale>  2 0.57103001E+03</rscale>
<asrwt>0</asrwt>
<pdfrwt beam="1">  1       21 0.20041245E+00 0.57121580E+03</pdfrwt>
<pdfrwt beam="2">  1       21 0.42767971E-01 0.57121580E+03</pdfrwt>
<totfact> 0.55020301E+02</totfact>
</mgrwt>
</event>
<event>
 6    1  0.8947013E-004  0.4334589E+03  0.7818608E-02  0.1033195E+00
         21   -1    0    0  501  502  0.00000000000E+00  0.00000000000E+00  0.98358666152E+03  0.98358666152E+03  0.00000000000E+00 0.  1.
         21   -1    0    0  502  503 -0.00000000000E+00 -0.00000000000E+00 -0.59529680622E+03  0.59529680622E+03  0.00000000000E+00 0. -1.
    9000007    2    1    2  501    0  0.15250988374E+03  0.10241956168E+01  0.84698626641E+03  0.95145800509E+03  0.40574164976E+03 0.  0.
    9000005    1    3    3    0    0 -0.17060924489E+02  0.13202677612E+03  0.80480861803E+02  0.15556450066E+03  0.99999687468E+00 0.  0.
          4    1    3    3  501    0  0.16957080823E+03 -0.13100258050E+03  0.76650540461E+03  0.79589350443E+03  0.00000000000E+00 0.  1.
   -9000007    1    1    2    0  503 -0.15250988374E+03 -0.10241956168E+01 -0.45869641111E+03  0.62742546265E+03  0.40000000000E+03 0. -1.
<mgrwt>
<rscale>  2 0.43211016E+03</rscale>
<asrwt>0</asrwt>
<pdfrwt beam="1">  1       21 0.15132102E+00 0.43345888E+03</pdfrwt>
<pdfrwt beam="2">  1       21 0.91584124E-01 0.43345888E+03</pdfrwt>
<totfact> 0.24360679E+02</totfact>
</mgrwt>
</event>
<event>
 6    1  0.8947013E-004  0.4537724E+03  0.7818608E-02  0.1026939E+00
         21   -1    0    0  501  502  0.00000000000E+00  0.00000000000E+00  0.34771390570E+04  0.34771390570E+04  0.00000000000E+00 0.  1.
         21   -1    0    0  502  503 -0.00000000000E+00 -0.00000000000E+00 -0.62128463618E+02  0.62128463618E+02  0.00000000000E+00 0. -1.
    9000007    2    1    2  501    0  0.16291696748E+03 -0.13916714185E+03  0.21194168685E+04  0.21665066050E+04  0.39485893063E+03 0.  0.
    9000005    1    3    3    0    0  0.39259937507E+02  0.13780260980E+03  0.57492261293E+03  0.59250984196E+03  0.99999687468E+00 0.  0.
          4    1    3    3  501    0  0.12365702997E+03 -0.27696975165E+03  0.15444942556E+04  0.15739967630E+04  0.00000000000E+00 0.  1.
   -9000007    1    1    2    0  503 -0.16291696748E+03  0.13916714185E+03  0.12955937249E+04  0.13727609157E+04  0.40000000000E+03 0. -1.
<mgrwt>
<rscale>  2 0.45263687E+03</rscale>
<asrwt>0</asrwt>
<pdfrwt beam="1">  1       21 0.53494432E+00 0.45377244E+03</pdfrwt>
<pdfrwt beam="2">  1       21 0.95582279E-02 0.45377244E+03</pdfrwt>
<totfact> 0.69687537E+01</totfact>
</mgrwt>
</event>
<event>
 6    1  0.8947013E-004  0.4135434E+03  0.7818608E-02  0.1039240E+00
         21   -1    0    0  501  502  0.00000000000E+00  0.00000000000E+00  0.34388743734E+03  0.34388743734E+03  0.00000000000E+00 0.  1.
         21   -1    0    0  502  503 -0.00000000000E+00 -0.00000000000E+00 -0.53948904500E+03  0.53948904500E+03  0.00000000000E+00 0.  1.
    9000007    2    1    2  501    0  0.70726186565E+02  0.77562577726E+02  0.26859791558E+02  0.41379451817E+03  0.39935736870E+03 0.  0.
    9000005    1    3    3    0    0  0.91484880368E+02 -0.12173535928E+03 -0.94797319986E+02  0.17937812828E+03  0.99999687468E+00 0.  0.
          4    1    3    3  501    0 -0.20758693804E+02  0.19929793700E+03  0.12165711154E+03  0.23441638989E+03  0.00000000000E+00 0.  1.
   -9000007    1    1    2    0  503 -0.70726186565E+02 -0.77562577726E+02 -0.22246139921E+03  0.46958196417E+03  0.40000000000E+03 0.  1.
<mgrwt>
<rscale>  2 0.41338793E+03</rscale>
<asrwt>0</asrwt>
<pdfrwt beam="1">  1       21 0.52905760E-01 0.41354340E+03</pdfrwt>
<pdfrwt beam="2">  1       21 0.82998314E-01 0.41354340E+03</pdfrwt>
<totfact> 0.37948351E+03</totfact>
</mgrwt>
</event>
<event>
 6    1  0.8947013E-004  0.4209354E+03  0.7818608E-02  0.1036796E+00
         21   -1    0    0  501  502  0.00000000000E+00  0.00000000000E+00  0.14184790935E+03  0.14184790935E+03  0.00000000000E+00 0.  1.
         21   -1    0    0  502  503 -0.00000000000E+00 -0.00000000000E+00 -0.12673060856E+04  0.12673060856E+04  0.00000000000E+00 0.  1.
    9000007    2    1    2  501    0 -0.71098731625E+02  0.11014327405E+03 -0.47528352872E+03  0.63461307109E+03  0.39956569781E+03 0.  0.
    9000005    1    3    3    0    0  0.10111798717E+03 -0.81500409346E+02 -0.53725017714E+02  0.14055085049E+03  0.99999687468E+00 0.  0.
          4    1    3    3  501    0 -0.17221671879E+03  0.19164368339E+03 -0.42155851101E+03  0.49406222059E+03  0.00000000000E+00 0.  1.
   -9000007    1    1    2    0  503  0.71098731625E+02 -0.11014327405E+03 -0.65017464758E+03  0.77454092391E+03  0.40000000000E+03 0.  1.
<mgrwt>
<rscale>  2 0.42083214E+03</rscale>
<asrwt>0</asrwt>
<pdfrwt beam="1">  1       21 0.21822755E-01 0.42093535E+03</pdfrwt>
<pdfrwt beam="2">  1       21 0.19497017E+00 0.42093535E+03</pdfrwt>
<totfact> 0.24401635E+03</totfact>
</mgrwt>
</event>
<event>
 6    1  0.8947013E-004  0.4222003E+03  0.7818608E-02  0.1036357E+00
         21   -1    0    0  501  502  0.00000000000E+00  0.00000000000E+00  0.25528530820E+03  0.25528530820E+03  0.00000000000E+00 0.  1.
         21   -1    0    0  502  503 -0.00000000000E+00 -0.00000000000E+00 -0.10823385044E+04  0.10823385044E+04  0.00000000000E+00 0.  1.
    9000007    2    1    2  501    0 -0.83757514307E+02 -0.10577851798E+03 -0.15078362675E+02  0.42246942870E+03  0.40006080175E+03 0.  0.
    9000005    1    3    3    0    0  0.16098898630E+03 -0.63162301312E+02 -0.19235838456E+02  0.17400559615E+03  0.99999687468E+00 0.  0.
          4    1    3    3  501    0 -0.24474650061E+03 -0.42616216669E+02  0.41574757810E+01  0.24846383255E+03  0.00000000000E+00 0.  1.
   -9000007    1    1    2    0  503  0.83757514307E+02  0.10577851798E+03 -0.81197483348E+03  0.91515438385E+03  0.40000000000E+03 0.  1.
<mgrwt>
<rscale>  2 0.42218586E+03</rscale>
<asrwt>0</asrwt>
<pdfrwt beam="1">  1       21 0.39274662E-01 0.42220026E+03</pdfrwt>
<pdfrwt beam="2">  1       21 0.16651362E+00 0.42220026E+03</pdfrwt>
<totfact> 0.12070048E+03</totfact>
</mgrwt>
</event>
<event>
 6    1  0.8947013E-004  0.4304711E+03  0.7818608E-02  0.1033735E+00
         21   -1    0    0  501  502  0.00000000000E+00  0.00000000000E+00  0.23632086426E+03  0.23632086426E+03  0.00000000000E+00 0.  1.
         21   -1    0    0  502  503 -0.00000000000E+00 -0.00000000000E+00 -0.87600878200E+03  0.87600878200E+03  0.00000000000E+00 0.  1.
    9000007    2    1    2  501    0 -0.68585395274E+02 -0.14261553876E+03 -0.13928043112E+03  0.45244268548E+03  0.40032761185E+03 0.  0.
    9000005    1    3    3    0    0  0.35995602069E+01 -0.13361463277E+03 -0.27088665800E+03  0.30207020442E+03  0.99999687468E+00 0.  0.
          4    1    3    3  501    0 -0.72184955481E+02 -0.90009059890E+01  0.13160622688E+03  0.15037248106E+03  0.00000000000E+00 0.  1.
   -9000007    1    1    2    0  503  0.68585395274E+02  0.14261553876E+03 -0.50040748662E+03  0.65988696078E+03  0.40000000000E+03 0.  1.
<mgrwt>
<rscale>  2 0.43039489E+03</rscale>
<asrwt>0</asrwt>
<pdfrwt beam="1">  1       21 0.36357055E-01 0.43047107E+03</pdfrwt>
<pdfrwt beam="2">  1       21 0.13477058E+00 0.43047107E+03</pdfrwt>
<totfact> 0.25007111E+03</totfact>
</mgrwt>
</event>
<event>
 6    1  0.8947013E-004  0.4495742E+03  0.7818608E-02  0.1028416E+00
         21   -1    0    0  501  502  0.00000000000E+00  0.00000000000E+00  0.10909887852E+04  0.10909887852E+04  0.00000000000E+00 0.  1.
         21   -1    0    0  502  503 -0.00000000000E+00 -0.00000000000E+00 -0.18964691600E+03  0.18964691600E+03  0.00000000000E+00 0.  1.
    9000007    2    1    2  501    0  0.48162382844E+02 -0.18190112678E+03  0.58143935663E+03  0.73497531908E+03  0.40830057455E+03 0.  0.
    9000005    1    3    3    0    0  0.17959263227E+03 -0.17881190709E+02  0.45549256854E+03  0.48994666091E+03  0.99999687468E+00 0.  0.
          4    1    3    3  501    0 -0.13143024943E+03 -0.16401993608E+03  0.12594678809E+03  0.24502865817E+03  0.00000000000E+00 0.  1.
   -9000007    1    1    2    0  503 -0.48162382844E+02  0.18190112678E+03  0.31990251253E+03  0.54566038208E+03  0.40000000000E+03 0.  1.
<mgrwt>
<rscale>  2 0.44768109E+03</rscale>
<asrwt>0</asrwt>
<pdfrwt beam="1">  1       21 0.16784442E+00 0.44957424E+03</pdfrwt>
<pdfrwt beam="2">  1       21 0.29176449E-01 0.44957424E+03</pdfrwt>
<totfact> 0.21227248E+03</totfact>
</mgrwt>
</event>
<event>
 6    1  0.8947013E-004  0.5633042E+03  0.7818608E-02  0.9984909E-01
         21   -1    0    0  501  502  0.00000000000E+00  0.00000000000E+00  0.14429937688E+04  0.14429937688E+04  0.00000000000E+00 0.  1.
         21   -1    0    0  502  503 -0.00000000000E+00 -0.00000000000E+00 -0.22866004269E+03  0.22866004269E+03  0.00000000000E+00 0. -1.
    9000007    2    1    2  501    0  0.38016711111E+03  0.11306907050E+03  0.44132141354E+03  0.71517083597E+03  0.39924063860E+03 0.  0.
    9000005    1    3    3    0    0  0.44589164609E+03  0.11236470451E+03  0.27370229589E+03  0.53512534386E+03  0.99999687468E+00 0.  0.
          4    1    3    3  501    0 -0.65724534980E+02  0.70436599420E+00  0.16761911765E+03  0.18004549211E+03  0.00000000000E+00 0.  1.
   -9000007    1    1    2    0  503 -0.38016711111E+03 -0.11306907050E+03  0.77301231254E+03  0.95648297550E+03  0.40000000000E+03 0.  1.
<mgrwt>
<rscale>  2 0.56316943E+03</rscale>
<asrwt>0</asrwt>
<pdfrwt beam="1">  1       21 0.22199904E+00 0.56330422E+03</pdfrwt>
<pdfrwt beam="2">  1       21 0.35178469E-01 0.56330422E+03</pdfrwt>
<totfact> 0.59550150E+02</totfact>
</mgrwt>
</event>
<event>
 6    1  0.8947013E-004  0.4121448E+03  0.7818608E-02  0.1039690E+00
         21   -1    0    0  501  502  0.00000000000E+00  0.00000000000E+00  0.19949077711E+03  0.19949077711E+03  0.00000000000E+00 0.  1.
         21   -1    0    0  502  503 -0.00000000000E+00 -0.00000000000E+00 -0.86200775442E+03  0.86200775442E+03  0.00000000000E+00 0.  1.
    9000007    2    1    2  501    0 -0.74619518045E+02  0.62741833523E+02 -0.27033531533E+03  0.49289404144E+03  0.40044817795E+03 0.  0.
    9000005    1    3    3    0    0  0.36937691070E+02  0.33208535186E+02 -0.34945939446E+03  0.35297318340E+03  0.99999687468E+00 0.  0.
          4    1    3    3  501    0 -0.11155720912E+03  0.29533298337E+02  0.79124079130E+02  0.13992085804E+03  0.00000000000E+00 0.  1.
   -9000007    1    1    2    0  503  0.74619518045E+02 -0.62741833523E+02 -0.39218166199E+03  0.56860449009E+03  0.40000000000E+03 0.  1.
<mgrwt>
<rscale>  2 0.41203592E+03</rscale>
<asrwt>0</asrwt>
<pdfrwt beam="1">  1       21 0.30690889E-01 0.41214482E+03</pdfrwt>
<pdfrwt beam="2">  1       21 0.13261658E+00 0.41214482E+03</pdfrwt>
<totfact> 0.36922177E+03</totfact>
</mgrwt>
</event>
<event>
 6    1  0.8947013E-004  0.4124466E+03  0.7818608E-02  0.1039579E+00
         21   -1    0    0  501  502  0.00000000000E+00  0.00000000000E+00  0.21898685170E+03  0.21898685170E+03  0.00000000000E+00 0. -1.
         21   -1    0    0  502  503 -0.00000000000E+00 -0.00000000000E+00 -0.81244840249E+03  0.81244840249E+03  0.00000000000E+00 0. -1.
    9000007    2    1    2  501    0 -0.20709388752E+02 -0.98403716711E+02 -0.40550530251E+03  0.57818066623E+03  0.39968257679E+03 0.  0.
    9000005    1    3    3    0    0  0.10257108365E+03 -0.16631398426E+03 -0.39046822285E+03  0.43663211244E+03  0.99999687468E+00 0.  0.
          4    1    3    3  501    0 -0.12328047241E+03  0.67910267547E+02 -0.15037079662E+02  0.14154855379E+03  0.00000000000E+00 0.  1.
   -9000007    1    1    2    0  503  0.20709388752E+02  0.98403716711E+02 -0.18795624827E+03  0.45325458796E+03  0.40000000000E+03 0. -1.
<mgrwt>
<rscale>  2 0.41236959E+03</rscale>
<asrwt>0</asrwt>
<pdfrwt beam="1">  1       21 0.33690284E-01 0.41244657E+03</pdfrwt>
<pdfrwt beam="2">  1       21 0.12499206E+00 0.41244657E+03</pdfrwt>
<totfact> 0.35699790E+03</totfact>
</mgrwt>
</event>
<event>
 6    1  0.8947013E-004  0.4318919E+03  0.7818608E-02  0.1033286E+00
         21   -1    0    0  501  502  0.00000000000E+00  0.00000000000E+00  0.28809174813E+03  0.28809174813E+03  0.00000000000E+00 0. -1.
         21   -1    0    0  502  503 -0.00000000000E+00 -0.00000000000E+00 -0.64788402954E+03  0.64788402954E+03  0.00000000000E+00 0. -1.
    9000007    2    1    2  501    0 -0.58512217652E+02 -0.15122793243E+03 -0.16324285407E+03  0.46171293435E+03  0.40029618681E+03 0.  0.
    9000005    1    3    3    0    0  0.28734978254E+02 -0.16445889330E+03  0.92715313698E+02  0.19097003940E+03  0.99999687468E+00 0.  0.
          4    1    3    3  501    0 -0.87247195906E+02  0.13230960868E+02 -0.25595816777E+03  0.27074289495E+03  0.00000000000E+00 0.  1.
   -9000007    1    1    2    0  503  0.58512217652E+02  0.15122793243E+03 -0.19654942734E+03  0.47426284332E+03  0.40000000000E+03 0. -1.
<mgrwt>
<rscale>  2 0.43182325E+03</rscale>
<asrwt>0</asrwt>
<pdfrwt beam="1">  1       21 0.44321808E-01 0.43189189E+03</pdfrwt>
<pdfrwt beam="2">  1       21 0.99674466E-01 0.43189189E+03</pdfrwt>
<totfact> 0.35508051E+03</totfact>
</mgrwt>
</event>
<event>
 6    1  0.8947013E-004  0.4681744E+03  0.7818608E-02  0.1022449E+00
         21   -1    0    0  501  502  0.00000000000E+00  0.00000000000E+00  0.12057556729E+04  0.12057556729E+04  0.00000000000E+00 0. -1.
         21   -1    0    0  502  503 -0.00000000000E+00 -0.00000000000E+00 -0.57629051998E+03  0.57629051998E+03  0.00000000000E+00 0. -1.
    9000007    2    1    2  501    0  0.16754170280E+03 -0.17594221886E+03  0.10520302037E+04  0.11515011044E+04  0.40020164596E+03 0.  0.
    9000005    1    3    3    0    0  0.14407550730E+03  0.94392767144E+02  0.60042950034E+03  0.62464736545E+03  0.99999687468E+00 0.  0.
          4    1    3    3  501    0  0.23466195508E+02 -0.27033498601E+03  0.45160070334E+03  0.52685373895E+03  0.00000000000E+00 0.  1.
   -9000007    1    1    2    0  503 -0.16754170280E+03  0.17594221886E+03 -0.42256505073E+03  0.63054508852E+03  0.40000000000E+03 0. -1.
<mgrwt>
<rscale>  2 0.46813128E+03</rscale>
<asrwt>0</asrwt>
<pdfrwt beam="1">  1       21 0.18550087E+00 0.46817437E+03</pdfrwt>
<pdfrwt beam="2">  1       21 0.88660080E-01 0.46817437E+03</pdfrwt>
<totfact> 0.14495151E+02</totfact>
</mgrwt>
</event>
<event>
 6    1  0.8947013E-004  0.4016607E+03  0.7818608E-02  0.1043223E+00
         21   -1    0    0  501  502  0.00000000000E+00  0.00000000000E+00  0.27335346605E+03  0.27335346605E+03  0.00000000000E+00 0.  1.
         21   -1    0    0  502  503 -0.00000000000E+00 -0.00000000000E+00 -0.23181110635E+04  0.23181110635E+04  0.00000000000E+00 0.  1.
    9000007    2    1    2  501    0 -0.19844175898E+02  0.28000292099E+02  0.96340061242E+02  0.41305295417E+03  0.40019186383E+03 0.  0.
    9000005    1    3    3    0    0  0.10004384806E+03 -0.15388493237E+03  0.36532046412E+02  0.18714949734E+03  0.99999687468E+00 0.  0.
          4    1    3    3  501    0 -0.11988802396E+03  0.18188522447E+03  0.59808014830E+02  0.22590345683E+03  0.00000000000E+00 0.  1.
   -9000007    1    1    2    0  503  0.19844175898E+02 -0.28000292099E+02 -0.21410976587E+04  0.21784115754E+04  0.40000000000E+03 0.  1.
<mgrwt>
<rscale>  2 0.40161292E+03</rscale>
<asrwt>0</asrwt>
<pdfrwt beam="1">  1       21 0.42054379E-01 0.40166072E+03</pdfrwt>
<pdfrwt beam="2">  1       21 0.35663247E+00 0.40166072E+03</pdfrwt>
<totfact> 0.67950173E+01</totfact>
</mgrwt>
</event>
<event>
 6    1  0.8947013E-004  0.4425857E+03  0.7818608E-02  0.1029971E+00
         21   -1    0    0  501  502  0.00000000000E+00  0.00000000000E+00  0.71854967025E+03  0.71854967025E+03  0.00000000000E+00 0. -1.
         21   -1    0    0  502  503 -0.00000000000E+00 -0.00000000000E+00 -0.27432020529E+03  0.27432020529E+03  0.00000000000E+00 0. -1.
    9000007    2    1    2  501    0 -0.13870220826E+03 -0.12833374041E+03  0.18157399177E+03  0.47838396795E+03  0.40021775923E+03 0.  0.
    9000005    1    3    3    0    0 -0.20847873095E+03 -0.16533045886E+03  0.25645499253E+03  0.36955067998E+03  0.99999687468E+00 0.  0.
          4    1    3    3  501    0  0.69776522690E+02  0.36996718449E+02 -0.74881000765E+02  0.10883328797E+03  0.00000000000E+00 0.  1.
   -9000007    1    1    2    0  503  0.13870220826E+03  0.12833374041E+03  0.26265547319E+03  0.51448590758E+03  0.40000000000E+03 0. -1.
<mgrwt>
<rscale>  2 0.44253647E+03</rscale>
<asrwt>0</asrwt>
<pdfrwt beam="1">  1       21 0.11054610E+00 0.44258571E+03</pdfrwt>
<pdfrwt beam="2">  1       21 0.42203109E-01 0.44258571E+03</pdfrwt>
<totfact> 0.30367202E+03</totfact>
</mgrwt>
</event>
<event>
 6    1  0.8947013E-004  0.4718983E+03  0.7818608E-02  0.1021413E+00
         21   -1    0    0  501  502  0.00000000000E+00  0.00000000000E+00  0.13583889194E+04  0.13583889194E+04  0.00000000000E+00 0. -1.
         21   -1    0    0  502  503 -0.00000000000E+00 -0.00000000000E+00 -0.45640490253E+03  0.45640490253E+03  0.00000000000E+00 0.  1.
    9000007    2    1    2  501    0  0.11380904583E+03  0.22218150707E+03  0.11776065848E+04  0.12686391543E+04  0.40046337441E+03 0.  0.
    9000005    1    3    3    0    0  0.12132697981E+03  0.26923562800E+03  0.11842610570E+04  0.12205258336E+04  0.99999687468E+00 0.  0.
          4    1    3    3  501    0 -0.75179339792E+01 -0.47054120931E+02 -0.66544721792E+01  0.48113320691E+02  0.00000000000E+00 0.  1.
   -9000007    1    1    2    0  503 -0.11380904583E+03 -0.22218150707E+03 -0.27562256795E+03  0.54615466762E+03  0.40000000000E+03 0.  1.
<mgrwt>
<rscale>  2 0.47180001E+03</rscale>
<asrwt>0</asrwt>
<pdfrwt beam="1">  1       21 0.20898291E+00 0.47189833E+03</pdfrwt>
<pdfrwt beam="2">  1       21 0.70216140E-01 0.47189833E+03</pdfrwt>
<totfact> 0.17219501E+02</totfact>
</mgrwt>
</event>
<event>
 6    1  0.8947013E-004  0.4299280E+03  0.7818608E-02  0.1033888E+00
         21   -1    0    0  501  502  0.00000000000E+00  0.00000000000E+00  0.20112827973E+03  0.20112827973E+03  0.00000000000E+00 0.  1.
         21   -1    0    0  502  503 -0.00000000000E+00 -0.00000000000E+00 -0.96567690373E+03  0.96567690373E+03  0.00000000000E+00 0.  1.
    9000007    2    1    2  501    0 -0.15494734932E+03 -0.28800074419E+02 -0.25377937842E+03  0.49918002847E+03  0.39992324583E+03 0.  0.
    9000005    1    3    3    0    0 -0.17516656628E+03 -0.10549363501E+03  0.28054569034E+02  0.20639838131E+03  0.99999687468E+00 0.  0.
          4    1    3    3  501    0  0.20219216961E+02  0.76693560595E+02 -0.28183394746E+03  0.29278164715E+03  0.00000000000E+00 0.  1.
   -9000007    1    1    2    0  503  0.15494734932E+03  0.28800074419E+02 -0.51076924558E+03  0.66762515499E+03  0.40000000000E+03 0. -1.
<mgrwt>
<rscale>  2 0.42991019E+03</rscale>
<asrwt>0</asrwt>
<pdfrwt beam="1">  1       21 0.30942812E-01 0.42992805E+03</pdfrwt>
<pdfrwt beam="2">  1       21 0.14856568E+00 0.42992805E+03</pdfrwt>
<totfact> 0.26685725E+03</totfact>
</mgrwt>
</event>
<event>
 6    1  0.8947013E-004  0.4482099E+03  0.7818608E-02  0.1028291E+00
         21   -1    0    0  501  502  0.00000000000E+00  0.00000000000E+00  0.14127238178E+03  0.14127238178E+03  0.00000000000E+00 0. -1.
         21   -1    0    0  502  503 -0.00000000000E+00 -0.00000000000E+00 -0.34683425290E+04  0.34683425290E+04  0.00000000000E+00 0. -1.
    9000007    2    1    2  501    0  0.19783857869E+01 -0.20220840271E+03 -0.27640820531E+03  0.52620276902E+03  0.39949431288E+03 0.  0.
    9000005    1    3    3    0    0  0.13705368719E+03 -0.21605994472E+03 -0.47771897485E+02  0.26028593329E+03  0.99999687468E+00 0.  0.
          4    1    3    3  501    0 -0.13507530140E+03  0.13851542017E+02 -0.22863630783E+03  0.26591683573E+03  0.00000000000E+00 0.  1.
   -9000007    1    1    2    0  503 -0.19783857869E+01  0.20220840271E+03 -0.30506619419E+04  0.30834121417E+04  0.40000000000E+03 0. -1.
<mgrwt>
<rscale>  2 0.44809709E+03</rscale>
<asrwt>0</asrwt>
<pdfrwt beam="1">  1       21 0.21734215E-01 0.44820994E+03</pdfrwt>
<pdfrwt beam="2">  1       21 0.53359110E+00 0.44820994E+03</pdfrwt>
<totfact> 0.15647476E+01</totfact>
</mgrwt>
</event>
<event>
 6    1  0.8947013E-004  0.5195706E+03  0.7818608E-02  0.1008841E+00
         21   -1    0    0  501  502  0.00000000000E+00  0.00000000000E+00  0.28015674298E+03  0.28015674298E+03  0.00000000000E+00 0. -1.
         21   -1    0    0  502  503 -0.00000000000E+00 -0.00000000000E+00 -0.10023297111E+04  0.10023297111E+04  0.00000000000E+00 0. -1.
    9000007    2    1    2  501    0  0.31718138585E+03 -0.96693187456E+02 -0.23246616274E+03  0.56850721119E+03  0.39900667705E+03 0.  0.
    9000005    1    3    3    0    0  0.72163691499E+02 -0.16172633833E+03 -0.25885088228E+03  0.31363639160E+03  0.99999687468E+00 0.  0.
          4    1    3    3  501    0  0.24501769435E+03  0.65033150876E+02  0.26384719543E+02  0.25487081960E+03  0.00000000000E+00 0.  1.
   -9000007    1    1    2    0  503 -0.31718138585E+03  0.96693187456E+02 -0.48970680537E+03  0.71397924288E+03  0.40000000000E+03 0. -1.
<mgrwt>
<rscale>  2 0.51937941E+03</rscale>
<asrwt>0</asrwt>
<pdfrwt beam="1">  1       21 0.43101036E-01 0.51957060E+03</pdfrwt>
<pdfrwt beam="2">  1       21 0.15420457E+00 0.51957060E+03</pdfrwt>
<totfact> 0.11857242E+03</totfact>
</mgrwt>
</event>
<event>
 6    1  0.8947013E-004  0.6711743E+03  0.7818608E-02  0.9767985E-01
         21   -1    0    0  501  502  0.00000000000E+00  0.00000000000E+00  0.84106692786E+03  0.84106692786E+03  0.00000000000E+00 0.  1.
         21   -1    0    0  502  503 -0.00000000000E+00 -0.00000000000E+00 -0.71672254575E+03  0.71672254575E+03  0.00000000000E+00 0. -1.
    9000007    2    1    2  501    0 -0.23952939943E+03 -0.48235525713E+03 -0.32964811632E+03  0.74775853847E+03  0.40054216256E+03 0.  0.
    9000005    1    3    3    0    0  0.20298250092E+02 -0.20218924789E+03 -0.30286112701E+03  0.36471683971E+03  0.99999687468E+00 0.  0.
          4    1    3    3  501    0 -0.25982764952E+03 -0.28016600924E+03 -0.26786989307E+02  0.38304169876E+03  0.00000000000E+00 0.  1.
   -9000007    1    1    2    0  503  0.23952939943E+03  0.48235525713E+03  0.45399249843E+03  0.81003093515E+03  0.40000000000E+03 0.  1.
<mgrwt>
<rscale>  2 0.67109344E+03</rscale>
<asrwt>0</asrwt>
<pdfrwt beam="1">  1       21 0.12939491E+00 0.67117431E+03</pdfrwt>
<pdfrwt beam="2">  1       21 0.11026501E+00 0.67117431E+03</pdfrwt>
<totfact> 0.21331461E+02</totfact>
</mgrwt>
</event>
<event>
 6    1  0.8947013E-004  0.4226569E+03  0.7818608E-02  0.1036279E+00
         21   -1    0    0  501  502  0.00000000000E+00  0.00000000000E+00  0.55834149255E+03  0.55834149255E+03  0.00000000000E+00 0. -1.
         21   -1    0    0  502  503 -0.00000000000E+00 -0.00000000000E+00 -0.48773741484E+03  0.48773741484E+03  0.00000000000E+00 0.  1.
    9000007    2    1    2  501    0 -0.13618509853E+03  0.96162670482E+01  0.34269293791E+03  0.54341480334E+03  0.39902674741E+03 0.  0.
    9000005    1    3    3    0    0 -0.25116418941E+03 -0.83384449917E+02  0.16349256686E+03  0.31107432543E+03  0.99999687468E+00 0.  0.
          4    1    3    3  501    0  0.11497909087E+03  0.93000716965E+02  0.17920037105E+03  0.23234047792E+03  0.00000000000E+00 0.  1.
   -9000007    1    1    2    0  503  0.13618509853E+03 -0.96162670482E+01 -0.27208886019E+03  0.50266410405E+03  0.40000000000E+03 0.  1.
<mgrwt>
<rscale>  2 0.42242647E+03</rscale>
<asrwt>0</asrwt>
<pdfrwt beam="1">  1       21 0.85898691E-01 0.42265690E+03</pdfrwt>
<pdfrwt beam="2">  1       21 0.75036525E-01 0.42265690E+03</pdfrwt>
<totfact> 0.16137153E+03</totfact>
</mgrwt>
</event>
<event>
 6    1  0.8947013E-004  0.5299759E+03  0.7818608E-02  0.1006259E+00
         21   -1    0    0  501  502  0.00000000000E+00  0.00000000000E+00  0.15009473277E+04  0.15009473277E+04  0.00000000000E+00 0.  1.
         21   -1    0    0  502  503 -0.00000000000E+00 -0.00000000000E+00 -0.29100496852E+03  0.29100496852E+03  0.00000000000E+00 0. -1.
    9000007    2    1    2  501    0 -0.32575311313E+03 -0.11993422333E+03  0.11407247596E+04  0.12578264827E+04  0.40046869383E+03 0.  0.
    9000005    1    3    3    0    0 -0.59650720979E+02  0.94784838252E+02  0.65950290918E+02  0.12997236222E+03  0.99999687468E+00 0.  0.
          4    1    3    3  501    0 -0.26610239215E+03 -0.21471906158E+03  0.10747744687E+04  0.11278541205E+04  0.00000000000E+00 0.  1.
   -9000007    1    1    2    0  503  0.32575311313E+03  0.11993422333E+03  0.69217599618E+02  0.53412581358E+03  0.40000000000E+03 0. -1.
<mgrwt>
<rscale>  2 0.52988739E+03</rscale>
<asrwt>0</asrwt>
<pdfrwt beam="1">  1       21 0.23091497E+00 0.52997593E+03</pdfrwt>
<pdfrwt beam="2">  1       21 0.44769996E-01 0.52997593E+03</pdfrwt>
<totfact> 0.32186185E+02</totfact>
</mgrwt>
</event>
<event>
 6    1  0.8947013E-004  0.4432366E+03  0.7818608E-02  0.1029775E+00
         21   -1    0    0  501  502  0.00000000000E+00  0.00000000000E+00  0.37993213743E+03  0.37993213743E+03  0.00000000000E+00 0. -1.
         21   -1    0    0  502  503 -0.00000000000E+00 -0.00000000000E+00 -0.63255832088E+03  0.63255832088E+03  0.00000000000E+00 0. -1.
    9000007    2    1    2  501    0 -0.14123631732E+03  0.12849503161E+03  0.90240580809E+02  0.45211889541E+03  0.39976175741E+03 0.  0.
    9000005    1    3    3    0    0 -0.95491294640E+02  0.13605856549E+03  0.24191225787E+03  0.29351841696E+03  0.99999687468E+00 0.  0.
          4    1    3    3  501    0 -0.45745022681E+02 -0.75635338815E+01 -0.15167167706E+03  0.15860047845E+03  0.00000000000E+00 0.  1.
   -9000007    1    1    2    0  503  0.14123631732E+03 -0.12849503161E+03 -0.34286676426E+03  0.56037156290E+03  0.40000000000E+03 0. -1.
<mgrwt>
<rscale>  2 0.44318283E+03</rscale>
<asrwt>0</asrwt>
<pdfrwt beam="1">  1       21 0.58451099E-01 0.44323659E+03</pdfrwt>
<pdfrwt beam="2">  1       21 0.97316663E-01 0.44323659E+03</pdfrwt>
<totfact> 0.20764532E+03</totfact>
</mgrwt>
</event>
<event>
 6    1  0.8947013E-004  0.4479867E+03  0.7818608E-02  0.1028356E+00
         21   -1    0    0  501  502  0.00000000000E+00  0.00000000000E+00  0.61680489057E+03  0.61680489057E+03  0.00000000000E+00 0.  1.
         21   -1    0    0  502  503 -0.00000000000E+00 -0.00000000000E+00 -0.60567907064E+03  0.60567907064E+03  0.00000000000E+00 0.  1.
    9000007    2    1    2  501    0 -0.19743963013E+03 -0.36404938104E+02  0.42161756915E+03  0.61518567928E+03  0.40048010975E+03 0.  0.
    9000005    1    3    3    0    0 -0.13556301569E+03  0.33118847807E+02  0.48362041573E+03  0.50335265551E+03  0.99999687468E+00 0.  0.
          4    1    3    3  501    0 -0.61876614437E+02 -0.69523785911E+02 -0.62002846577E+02  0.11183302377E+03  0.00000000000E+00 0.  1.
   -9000007    1    1    2    0  503  0.19743963013E+03  0.36404938104E+02 -0.41049174922E+03  0.60729828193E+03  0.40000000000E+03 0.  1.
<mgrwt>
<rscale>  2 0.44787933E+03</rscale>
<asrwt>0</asrwt>
<pdfrwt beam="1">  1       21 0.94893060E-01 0.44798666E+03</pdfrwt>
<pdfrwt beam="2">  1       21 0.93181396E-01 0.44798666E+03</pdfrwt>
<totfact> 0.76135597E+02</totfact>
</mgrwt>
</event>
<event>
 6    1  0.8947013E-004  0.4345558E+03  0.7818608E-02  0.1032433E+00
         21   -1    0    0  501  502  0.00000000000E+00  0.00000000000E+00  0.49368889174E+03  0.49368889174E+03  0.00000000000E+00 0.  1.
         21   -1    0    0  502  503 -0.00000000000E+00 -0.00000000000E+00 -0.42242903489E+03  0.42242903489E+03  0.00000000000E+00 0. -1.
    9000007    2    1    2  501    0  0.67445448949E+02 -0.15574974287E+03  0.17650630932E+03  0.46903439222E+03  0.40003988910E+03 0.  0.
    9000005    1    3    3    0    0  0.12010835397E+03 -0.18025591755E+03 -0.60592926596E+02  0.22492379877E+03  0.99999687468E+00 0.  0.
          4    1    3    3  501    0 -0.52662905024E+02  0.24506174683E+02  0.23709923592E+03  0.24411059345E+03  0.00000000000E+00 0.  1.
   -9000007    1    1    2    0  503 -0.67445448949E+02  0.15574974287E+03 -0.10524645247E+03  0.44708353441E+03  0.40000000000E+03 0. -1.
<mgrwt>
<rscale>  2 0.43454667E+03</rscale>
<asrwt>0</asrwt>
<pdfrwt beam="1">  1       21 0.75952137E-01 0.43455585E+03</pdfrwt>
<pdfrwt beam="2">  1       21 0.64989082E-01 0.43455585E+03</pdfrwt>
<totfact> 0.29498779E+03</totfact>
</mgrwt>
</event>
<event>
 6    1  0.8947013E-004  0.4338100E+03  0.7818608E-02  0.1032717E+00
         21   -1    0    0  501  502  0.00000000000E+00  0.00000000000E+00  0.10095121692E+04  0.10095121692E+04  0.00000000000E+00 0.  1.
         21   -1    0    0  502  503 -0.00000000000E+00 -0.00000000000E+00 -0.61384939912E+03  0.61384939912E+03  0.00000000000E+00 0.  1.
    9000007    2    1    2  501    0  0.16562975557E+03  0.12582871743E+02  0.87542472257E+03  0.97701562722E+03  0.40074873218E+03 0.  0.
    9000005    1    3    3    0    0  0.34034306543E+02  0.14797436508E+03  0.10704903962E+03  0.18578278612E+03  0.99999687468E+00 0.  0.
          4    1    3    3  501    0  0.13159544902E+03 -0.13539149334E+03  0.76837568296E+03  0.79123284110E+03  0.00000000000E+00 0.  1.
   -9000007    1    1    2    0  503 -0.16562975557E+03 -0.12582871743E+02 -0.47976195247E+03  0.64634594114E+03  0.40000000000E+03 0.  1.
<mgrwt>
<rscale>  2 0.43363697E+03</rscale>
<asrwt>0</asrwt>
<pdfrwt beam="1">  1       21 0.15530956E+00 0.43380997E+03</pdfrwt>
<pdfrwt beam="2">  1       21 0.94438369E-01 0.43380997E+03</pdfrwt>
<totfact> 0.21086054E+02</totfact>
</mgrwt>
</event>
<event>
 6    1  0.8947013E-004  0.5130703E+03  0.7818608E-02  0.1010448E+00
         21   -1    0    0  501  502  0.00000000000E+00  0.00000000000E+00  0.43369206658E+03  0.43369206658E+03  0.00000000000E+00 0. -1.
         21   -1    0    0  502  503 -0.00000000000E+00 -0.00000000000E+00 -0.64332202957E+03  0.64332202957E+03  0.00000000000E+00 0.  1.
    9000007    2    1    2  501    0  0.31955122240E+03 -0.26835322776E+02  0.23969464659E+02  0.51362984815E+03  0.40050963458E+03 0.  0.
    9000005    1    3    3    0    0  0.35946013268E+02 -0.18342318897E+03  0.31654018814E+02  0.18957626176E+03  0.99999687468E+00 0.  0.
          4    1    3    3  501    0  0.28360520913E+03  0.15658786619E+03 -0.76845541549E+01  0.32405358640E+03  0.00000000000E+00 0.  1.
   -9000007    1    1    2    0  503 -0.31955122240E+03  0.26835322776E+02 -0.23359942765E+03  0.56338424799E+03  0.40000000000E+03 0.  1.
<mgrwt>
<rscale>  2 0.51297079E+03</rscale>
<asrwt>0</asrwt>
<pdfrwt beam="1">  1       21 0.66721857E-01 0.51307025E+03</pdfrwt>
<pdfrwt beam="2">  1       21 0.98972619E-01 0.51307025E+03</pdfrwt>
<totfact> 0.14508666E+03</totfact>
</mgrwt>
</event>
<event>
 6    1  0.8947013E-004  0.4419262E+03  0.7818608E-02  0.1030185E+00
         21   -1    0    0  501  502  0.00000000000E+00  0.00000000000E+00  0.15651382112E+04  0.15651382112E+04  0.00000000000E+00 0. -1.
         21   -1    0    0  502  503 -0.00000000000E+00 -0.00000000000E+00 -0.24067851488E+03  0.24067851488E+03  0.00000000000E+00 0. -1.
    9000007    2    1    2  501    0 -0.80252918340E+01 -0.18770826768E+03  0.12889270359E+04  0.13624643053E+04  0.39959639685E+03 0.  0.
    9000005    1    3    3    0    0 -0.18959956397E+03 -0.17743753439E+03  0.76402499253E+03  0.80694935558E+03  0.99999687468E+00 0.  0.
          4    1    3    3  501    0  0.18157427214E+03 -0.10270733290E+02  0.52490204335E+03  0.55551494974E+03  0.00000000000E+00 0.  1.
   -9000007    1    1    2    0  503  0.80252918340E+01  0.18770826768E+03  0.35532660473E+02  0.44335242080E+03  0.40000000000E+03 0. -1.
<mgrwt>
<rscale>  2 0.44183489E+03</rscale>
<asrwt>0</asrwt>
<pdfrwt beam="1">  1       21 0.24079049E+00 0.44192624E+03</pdfrwt>
<pdfrwt beam="2">  1       21 0.37027465E-01 0.44192624E+03</pdfrwt>
<totfact> 0.43170108E+02</totfact>
</mgrwt>
</event>
<event>
 6    1  0.8947013E-004  0.4007638E+03  0.7818608E-02  0.1043556E+00
         21   -1    0    0  501  502  0.00000000000E+00  0.00000000000E+00  0.47443675094E+03  0.47443675094E+03  0.00000000000E+00 0.  1.
         21   -1    0    0  502  503 -0.00000000000E+00 -0.00000000000E+00 -0.91466069662E+03  0.91466069662E+03  0.00000000000E+00 0.  1.
    9000007    2    1    2  501    0 -0.12011357820E+02 -0.94207449725E+01  0.33126077838E+03  0.51994745900E+03  0.40047301242E+03 0.  0.
    9000005    1    3    3    0    0 -0.53946268196E+02 -0.14807945406E+03 -0.86415627435E+00  0.15760542924E+03  0.99999687468E+00 0.  0.
          4    1    3    3  501    0  0.41934910376E+02  0.13865870909E+03  0.33212493466E+03  0.36234202976E+03  0.00000000000E+00 0.  1.
   -9000007    1    1    2    0  503  0.12011357820E+02  0.94207449725E+01 -0.77148472406E+03  0.86914998856E+03  0.40000000000E+03 0.  1.
<mgrwt>
<rscale>  2 0.40064562E+03</rscale>
<asrwt>0</asrwt>
<pdfrwt beam="1">  1       21 0.72990270E-01 0.40076384E+03</pdfrwt>
<pdfrwt beam="2">  1       21 0.14071703E+00 0.40076384E+03</pdfrwt>
<totfact> 0.50962304E+02</totfact>
</mgrwt>
</event>
<event>
 6    1  0.8947013E-004  0.4042291E+03  0.7818608E-02  0.1042627E+00
         21   -1    0    0  501  502  0.00000000000E+00  0.00000000000E+00  0.97717000124E+02  0.97717000124E+02  0.00000000000E+00 0.  1.
         21   -1    0    0  502  503 -0.00000000000E+00 -0.00000000000E+00 -0.22245421857E+04  0.22245421857E+04  0.00000000000E+00 0.  1.
    9000007    2    1    2  501    0  0.58472647018E+01 -0.23151187121E+02 -0.48073715223E+03  0.62809981271E+03  0.40352323009E+03 0.  0.
    9000005    1    3    3    0    0 -0.47016065437E+02  0.91359823326E+02 -0.49092671349E+03  0.50156471740E+03  0.99999687468E+00 0.  0.
          4    1    3    3  501    0  0.52863330138E+02 -0.11451101045E+03  0.10189561263E+02  0.12653509531E+03  0.00000000000E+00 0.  1.
   -9000007    1    1    2    0  503 -0.58472647018E+01  0.23151187121E+02 -0.16460880333E+04  0.16941593731E+04  0.40000000000E+03 0.  1.
<mgrwt>
<rscale>  2 0.40334696E+03</rscale>
<asrwt>0</asrwt>
<pdfrwt beam="1">  1       21 0.15033386E-01 0.40422910E+03</pdfrwt>
<pdfrwt beam="2">  1       21 0.34223722E+00 0.40422910E+03</pdfrwt>
<totfact> 0.61638671E+02</totfact>
</mgrwt>
</event>
<event>
 6    1  0.8947013E-004  0.4108166E+03  0.7818608E-02  0.1040123E+00
         21   -1    0    0  501  502  0.00000000000E+00  0.00000000000E+00  0.42607611883E+03  0.42607611883E+03  0.00000000000E+00 0.  1.
         21   -1    0    0  502  503 -0.00000000000E+00 -0.00000000000E+00 -0.44552424742E+03  0.44552424742E+03  0.00000000000E+00 0.  1.
    9000007    2    1    2  501    0  0.81027754155E+02  0.46955203037E+02 -0.15529575084E+03  0.43890548010E+03  0.39968858152E+03 0.  0.
    9000005    1    3    3    0    0  0.19760232587E+03 -0.42174116846E+02  0.28130075582E+02  0.20400401090E+03  0.99999687468E+00 0.  0.
          4    1    3    3  501    0 -0.11657457171E+03  0.89129319883E+02 -0.18342582642E+03  0.23490146919E+03  0.00000000000E+00 0.  1.
   -9000007    1    1    2    0  503 -0.81027754155E+02 -0.46955203037E+02  0.13584762224E+03  0.43269488616E+03  0.40000000000E+03 0. -1.
<mgrwt>
<rscale>  2 0.41074079E+03</rscale>
<asrwt>0</asrwt>
<pdfrwt beam="1">  1       21 0.65550172E-01 0.41081661E+03</pdfrwt>
<pdfrwt beam="2">  1       21 0.68542192E-01 0.41081661E+03</pdfrwt>
<totfact> 0.36825524E+03</totfact>
</mgrwt>
</event>
<event>
 6    1  0.8947013E-004  0.4133112E+03  0.7818608E-02  0.1039275E+00
         21   -1    0    0  501  502  0.00000000000E+00  0.00000000000E+00  0.10056236025E+04  0.10056236025E+04  0.00000000000E+00 0.  1.
         21   -1    0    0  502  503 -0.00000000000E+00 -0.00000000000E+00 -0.58103942880E+03  0.58103942880E+03  0.00000000000E+00 0.  1.
    9000007    2    1    2  501    0  0.74850890791E+02 -0.71610634264E+02  0.87970184069E+03  0.97195754922E+03  0.40011924496E+03 0.  0.
    9000005    1    3    3    0    0 -0.98394056697E+02 -0.18175085271E+03  0.48044579397E+03  0.52301426729E+03  0.99999687468E+00 0.  0.
          4    1    3    3  501    0  0.17324494749E+03  0.11014021844E+03  0.39925604672E+03  0.44894328193E+03  0.00000000000E+00 0.  1.
   -9000007    1    1    2    0  503 -0.74850890791E+02  0.71610634264E+02 -0.45511766704E+03  0.61470548203E+03  0.40000000000E+03 0.  1.
<mgrwt>
<rscale>  2 0.41328234E+03</rscale>
<asrwt>0</asrwt>
<pdfrwt beam="1">  1       21 0.15471132E+00 0.41331120E+03</pdfrwt>
<pdfrwt beam="2">  1       21 0.89390681E-01 0.41331120E+03</pdfrwt>
<totfact> 0.24549650E+02</totfact>
</mgrwt>
</event>
<event>
 6    1  0.8947013E-004  0.4065818E+03  0.7818608E-02  0.1041774E+00
         21   -1    0    0  501  502  0.00000000000E+00  0.00000000000E+00  0.38976379626E+03  0.38976379626E+03  0.00000000000E+00 0.  1.
         21   -1    0    0  502  503 -0.00000000000E+00 -0.00000000000E+00 -0.42118786715E+03  0.42118786715E+03  0.00000000000E+00 0.  1.
    9000007    2    1    2  501    0 -0.72831404707E+02  0.20753554293E+01 -0.87513430313E+01  0.40373823878E+03  0.39701292024E+03 0.  0.
    9000005    1    3    3    0    0 -0.11321318315E+03  0.11243588337E+03  0.14130860540E+03  0.21313886239E+03  0.99999687468E+00 0.  0.
          4    1    3    3  501    0  0.40381778448E+02 -0.11036052794E+03 -0.15005994843E+03  0.19059937639E+03  0.00000000000E+00 0.  1.
   -9000007    1    1    2    0  503  0.72831404707E+02 -0.20753554293E+01 -0.22672727862E+02  0.40721342463E+03  0.40000000000E+03 0. -1.
<mgrwt>
<rscale>  2 0.40584516E+03</rscale>
<asrwt>0</asrwt>
<pdfrwt beam="1">  1       21 0.59963661E-01 0.40658175E+03</pdfrwt>
<pdfrwt beam="2">  1       21 0.64798134E-01 0.40658175E+03</pdfrwt>
<totfact> 0.50864713E+03</totfact>
</mgrwt>
</event>
<event>
 6    1  0.8947013E-004  0.4149922E+03  0.7818608E-02  0.1038726E+00
         21   -1    0    0  501  502  0.00000000000E+00  0.00000000000E+00  0.47702305090E+03  0.47702305090E+03  0.00000000000E+00 0. -1.
         21   -1    0    0  502  503 -0.00000000000E+00 -0.00000000000E+00 -0.65970929553E+03  0.65970929553E+03  0.00000000000E+00 0. -1.
    9000007    2    1    2  501    0  0.56896306990E+00  0.11053583596E+03  0.29121909845E+03  0.50680793117E+03  0.39978396797E+03 0.  0.
    9000005    1    3    3    0    0  0.95487251778E+02  0.23729624425E+03  0.19338412822E+03  0.32066453473E+03  0.99999687468E+00 0.  0.
          4    1    3    3  501    0 -0.94918288708E+02 -0.12676040829E+03  0.97834970224E+02  0.18614339644E+03  0.00000000000E+00 0.  1.
   -9000007    1    1    2    0  503 -0.56896306990E+00 -0.11053583596E+03 -0.47390534308E+03  0.62992441527E+03  0.40000000000E+03 0. -1.
<mgrwt>
<rscale>  2 0.41494010E+03</rscale>
<asrwt>0</asrwt>
<pdfrwt beam="1">  1       21 0.73388162E-01 0.41499216E+03</pdfrwt>
<pdfrwt beam="2">  1       21 0.10149374E+00 0.41499216E+03</pdfrwt>
<totfact> 0.11438677E+03</totfact>
</mgrwt>
</event>
<event>
 6    1  0.8947013E-004  0.6346085E+03  0.7818608E-02  0.9836421E-01
         21   -1    0    0  501  502  0.00000000000E+00  0.00000000000E+00  0.17745380062E+04  0.17745380062E+04  0.00000000000E+00 0. -1.
         21   -1    0    0  502  503 -0.00000000000E+00 -0.00000000000E+00 -0.48414807513E+03  0.48414807513E+03  0.00000000000E+00 0.  1.
    9000007    2    1    2  501    0  0.61557385546E+01  0.49263580999E+03  0.14685557848E+04  0.15995419349E+04  0.39893655388E+03 0.  0.
    9000005    1    3    3    0    0 -0.12002216253E+03  0.49293877078E+03  0.11987207548E+04  0.13016629361E+04  0.99999687468E+00 0.  0.
          4    1    3    3  501    0  0.12617790109E+03 -0.30296079025E+00  0.26983502997E+03  0.29787899876E+03  0.00000000000E+00 0.  1.
   -9000007    1    1    2    0  503 -0.61557385546E+01 -0.49263580999E+03 -0.17816585370E+03  0.65914414647E+03  0.40000000000E+03 0.  1.
<mgrwt>
<rscale>  2 0.63444098E+03</rscale>
<asrwt>0</asrwt>
<pdfrwt beam="1">  1       21 0.27300584E+00 0.63460849E+03</pdfrwt>
<pdfrwt beam="2">  1       21 0.74484320E-01 0.63460849E+03</pdfrwt>
<totfact> 0.55103014E+01</totfact>
</mgrwt>
</event>
<event>
 6    1  0.8947013E-004  0.4398411E+03  0.7818608E-02  0.1030838E+00
         21   -1    0    0  501  502  0.00000000000E+00  0.00000000000E+00  0.12634393505E+03  0.12634393505E+03  0.00000000000E+00 0. -1.
         21   -1    0    0  502  503 -0.00000000000E+00 -0.00000000000E+00 -0.18314448298E+04  0.18314448298E+04  0.00000000000E+00 0.  1.
    9000007    2    1    2  501    0  0.14577274029E+03  0.10829752466E+03 -0.45540118693E+03  0.63312752311E+03  0.40060226384E+03 0.  0.
    9000005    1    3    3    0    0  0.22648750747E+03  0.36096574558E+02 -0.47084914392E+03  0.52373606909E+03  0.99999687468E+00 0.  0.
          4    1    3    3  501    0 -0.80714767181E+02  0.72200950104E+02  0.15447956993E+02  0.10939145402E+03  0.00000000000E+00 0.  1.
   -9000007    1    1    2    0  503 -0.14577274029E+03 -0.10829752466E+03 -0.12496997078E+04  0.13246612417E+04  0.40000000000E+03 0.  1.
<mgrwt>
<rscale>  2 0.43970395E+03</rscale>
<asrwt>0</asrwt>
<pdfrwt beam="1">  1       21 0.19437530E-01 0.43984113E+03</pdfrwt>
<pdfrwt beam="2">  1       21 0.28176072E+00 0.43984113E+03</pdfrwt>
<totfact> 0.86218288E+02</totfact>
</mgrwt>
</event>
<event>
 6    1  0.8947013E-004  0.4656824E+03  0.7818608E-02  0.1023156E+00
         21   -1    0    0  501  502  0.00000000000E+00  0.00000000000E+00  0.76264184253E+03  0.76264184253E+03  0.00000000000E+00 0.  1.
         21   -1    0    0  502  503 -0.00000000000E+00 -0.00000000000E+00 -0.42384015354E+03  0.42384015354E+03  0.00000000000E+00 0.  1.
    9000007    2    1    2  501    0 -0.18836556644E+03 -0.14621380602E+03  0.50981327149E+03  0.69039226120E+03  0.39983976646E+03 0.  0.
    9000005    1    3    3    0    0  0.12528764378E+03 -0.57987292234E+02  0.12581669582E+03  0.18678961611E+03  0.99999687468E+00 0.  0.
          4    1    3    3  501    0 -0.31365321022E+03 -0.88226513786E+02  0.38399657567E+03  0.50360264509E+03  0.00000000000E+00 0.  1.
   -9000007    1    1    2    0  503  0.18836556644E+03  0.14621380602E+03 -0.17101158251E+03  0.49608973487E+03  0.40000000000E+03 0.  1.
<mgrwt>
<rscale>  2 0.46564795E+03</rscale>
<asrwt>0</asrwt>
<pdfrwt beam="1">  1       21 0.11732951E+00 0.46568236E+03</pdfrwt>
<pdfrwt beam="2">  1       21 0.65206178E-01 0.46568236E+03</pdfrwt>
<totfact> 0.10197867E+03</totfact>
</mgrwt>
</event>
<event>
 6    1  0.8947013E-004  0.5432548E+03  0.7818608E-02  0.1003071E+00
         21   -1    0    0  501  502  0.00000000000E+00  0.00000000000E+00  0.41020795739E+03  0.41020795739E+03  0.00000000000E+00 0.  1.
         21   -1    0    0  502  503 -0.00000000000E+00 -0.00000000000E+00 -0.14952978032E+04  0.14952978032E+04  0.00000000000E+00 0. -1.
    9000007    2    1    2  501    0 -0.18306655160E+03  0.31876698680E+03  0.14379527423E+03  0.56189704059E+03  0.39990680057E+03 0.  0.
    9000005    1    3    3    0    0  0.12910166449E+02 -0.29082882993E+02 -0.92589588668E+02  0.97909746217E+02  0.99999687468E+00 0.  0.
          4    1    3    3  501    0 -0.19597671805E+03  0.34784986980E+03  0.23638486290E+03  0.46398729437E+03  0.00000000000E+00 0.  1.
   -9000007    1    1    2    0  503  0.18306655160E+03 -0.31876698680E+03 -0.12288851200E+04  0.13436087200E+04  0.40000000000E+03 0. -1.
<mgrwt>
<rscale>  2 0.54323762E+03</rscale>
<asrwt>0</asrwt>
<pdfrwt beam="1">  1       21 0.63108918E-01 0.54325478E+03</pdfrwt>
<pdfrwt beam="2">  1       21 0.23004581E+00 0.54325478E+03</pdfrwt>
<totfact> 0.15448932E+02</totfact>
</mgrwt>
</event>
<event>
 6    1  0.8947013E-004  0.4845885E+03  0.7818608E-02  0.1017900E+00
         21   -1    0    0  501  502  0.00000000000E+00  0.00000000000E+00  0.18559025480E+03  0.18559025480E+03  0.00000000000E+00 0. -1.
         21   -1    0    0  502  503 -0.00000000000E+00 -0.00000000000E+00 -0.13878086636E+04  0.13878086636E+04  0.00000000000E+00 0.  1.
    9000007    2    1    2  501    0 -0.23021012239E+03  0.14774735140E+03 -0.36652073665E+03  0.60736756303E+03  0.39966476694E+03 0.  0.
    9000005    1    3    3    0    0  0.10137118170E+03 -0.26820570294E+02 -0.11726563794E+03  0.15731398318E+03  0.99999687468E+00 0.  0.
          4    1    3    3  501    0 -0.33158130409E+03  0.17456792169E+03 -0.24925509871E+03  0.45005357985E+03  0.00000000000E+00 0.  1.
   -9000007    1    1    2    0  503  0.23021012239E+03 -0.14774735140E+03 -0.83569767211E+03  0.96603135532E+03  0.40000000000E+03 0. -1.
<mgrwt>
<rscale>  2 0.48451928E+03</rscale>
<asrwt>0</asrwt>
<pdfrwt beam="1">  1       21 0.28552346E-01 0.48458846E+03</pdfrwt>
<pdfrwt beam="2">  1       21 0.21350903E+00 0.48458846E+03</pdfrwt>
<totfact> 0.10606475E+03</totfact>
</mgrwt>
</event>
<event>
 6    1  0.8947013E-004  0.4238535E+03  0.7818608E-02  0.1036130E+00
         21   -1    0    0  501  502  0.00000000000E+00  0.00000000000E+00  0.15394962436E+04  0.15394962436E+04  0.00000000000E+00 0. -1.
         21   -1    0    0  502  503 -0.00000000000E+00 -0.00000000000E+00 -0.12358317165E+03  0.12358317165E+03  0.00000000000E+00 0. -1.
    9000007    2    1    2  501    0  0.38700497112E+02  0.13473684965E+03  0.49412089479E+03  0.64850927722E+03  0.39592559508E+03 0.  0.
    9000005    1    3    3    0    0 -0.15659809147E+03 -0.16339466221E+02  0.28206650641E+03  0.32303630514E+03  0.99999687468E+00 0.  0.
          4    1    3    3  501    0  0.19529858858E+03  0.15107631587E+03  0.21205438838E+03  0.32547297208E+03  0.00000000000E+00 0.  1.
   -9000007    1    1    2    0  503 -0.38700497112E+02 -0.13473684965E+03  0.92179217716E+03  0.10145701380E+04  0.40000000000E+03 0.  1.
<mgrwt>
<rscale>  2 0.42288943E+03</rscale>
<asrwt>0</asrwt>
<pdfrwt beam="1">  1       21 0.23684556E+00 0.42385345E+03</pdfrwt>
<pdfrwt beam="2">  1       21 0.19012797E-01 0.42385345E+03</pdfrwt>
<totfact> 0.17022981E+03</totfact>
</mgrwt>
</event>
<event>
 6    1  0.8947013E-004  0.4096226E+03  0.7818608E-02  0.1040538E+00
         21   -1    0    0  501  502  0.00000000000E+00  0.00000000000E+00  0.10661542810E+04  0.10661542810E+04  0.00000000000E+00 0.  1.
         21   -1    0    0  502  503 -0.00000000000E+00 -0.00000000000E+00 -0.16274972344E+03  0.16274972344E+03  0.00000000000E+00 0.  1.
    9000007    2    1    2  501    0 -0.15110714174E+02 -0.84666916086E+02  0.33843813109E+03  0.53134835547E+03  0.40049205475E+03 0.  0.
    9000005    1    3    3    0    0  0.17684476604E+03 -0.12035953412E+03  0.18946634553E+03  0.28576036256E+03  0.99999687468E+00 0.  0.
          4    1    3    3  501    0 -0.19195548021E+03  0.35692618032E+02  0.14897178556E+03  0.24558799291E+03  0.00000000000E+00 0.  1.
   -9000007    1    1    2    0  503  0.15110714174E+02  0.84666916086E+02  0.56496642643E+03  0.69755564893E+03  0.40000000000E+03 0.  1.
<mgrwt>
<rscale>  2 0.40950232E+03</rscale>
<asrwt>0</asrwt>
<pdfrwt beam="1">  1       21 0.16402373E+00 0.40962264E+03</pdfrwt>
<pdfrwt beam="2">  1       21 0.25038420E-01 0.40962264E+03</pdfrwt>
<totfact> 0.31078394E+03</totfact>
</mgrwt>
</event>
<event>
 6    1  0.8947013E-004  0.4293266E+03  0.7818608E-02  0.1034091E+00
         21   -1    0    0  501  502  0.00000000000E+00  0.00000000000E+00  0.14055377812E+04  0.14055377812E+04  0.00000000000E+00 0.  1.
         21   -1    0    0  502  503 -0.00000000000E+00 -0.00000000000E+00 -0.15949827056E+03  0.15949827056E+03  0.00000000000E+00 0. -1.
    9000007    2    1    2  501    0 -0.13169038136E+03  0.83540357641E+02  0.95324977230E+03  0.10453754137E+04  0.39975402345E+03 0.  0.
    9000005    1    3    3    0    0 -0.21134659534E+03 -0.37337416070E+01  0.22938143918E+03  0.31192654395E+03  0.99999687468E+00 0.  0.
          4    1    3    3  501    0  0.79656213982E+02  0.87274099248E+02  0.72386833312E+03  0.73344886973E+03  0.00000000000E+00 0.  1.
   -9000007    1    1    2    0  503  0.13169038136E+03 -0.83540357641E+02  0.29278973838E+03  0.51966063811E+03  0.40000000000E+03 0. -1.
<mgrwt>
<rscale>  2 0.42926932E+03</rscale>
<asrwt>0</asrwt>
<pdfrwt beam="1">  1       21 0.21623657E+00 0.42932662E+03</pdfrwt>
<pdfrwt beam="2">  1       21 0.24538196E-01 0.42932662E+03</pdfrwt>
<totfact> 0.14052835E+03</totfact>
</mgrwt>
</event>
<event>
 6    1  0.8947013E-004  0.5567784E+03  0.7818608E-02  0.9999390E-01
         21   -1    0    0  501  502  0.00000000000E+00  0.00000000000E+00  0.79833745521E+03  0.79833745521E+03  0.00000000000E+00 0. -1.
         21   -1    0    0  502  503 -0.00000000000E+00 -0.00000000000E+00 -0.65889770922E+03  0.65889770922E+03  0.00000000000E+00 0.  1.
    9000007    2    1    2  501    0 -0.73852441410E+02  0.38014504316E+03  0.53666413407E+03  0.77331144688E+03  0.40004720239E+03 0.  0.
    9000005    1    3    3    0    0  0.27748024142E+02  0.34375236962E+03  0.15758586038E+03  0.37917007774E+03  0.99999687468E+00 0.  0.
          4    1    3    3  501    0 -0.10160046555E+03  0.36392673539E+02  0.37907827369E+03  0.39414136914E+03  0.00000000000E+00 0.  1.
   -9000007    1    1    2    0  503  0.73852441410E+02 -0.38014504316E+03 -0.39722438808E+03  0.68392371755E+03  0.40000000000E+03 0.  1.
<mgrwt>
<rscale>  2 0.55676993E+03</rscale>
<asrwt>0</asrwt>
<pdfrwt beam="1">  1       21 0.12282115E+00 0.55677841E+03</pdfrwt>
<pdfrwt beam="2">  1       21 0.10136888E+00 0.55677841E+03</pdfrwt>
<totfact> 0.31340381E+02</totfact>
</mgrwt>
</event>
<event>
 6    1  0.8947013E-004  0.4147756E+03  0.7818608E-02  0.1038783E+00
         21   -1    0    0  501  502  0.00000000000E+00  0.00000000000E+00  0.27641188191E+03  0.27641188191E+03  0.00000000000E+00 0. -1.
         21   -1    0    0  502  503 -0.00000000000E+00 -0.00000000000E+00 -0.62689560488E+03  0.62689560488E+03  0.00000000000E+00 0. -1.
    9000007    2    1    2  501    0 -0.48662934134E+02 -0.98339998058E+02 -0.13677852785E+03  0.43671478775E+03  0.39996575326E+03 0.  0.
    9000005    1    3    3    0    0 -0.17002129626E+03 -0.29730207888E+02  0.70887969266E+02  0.18659375827E+03  0.99999687468E+00 0.  0.
          4    1    3    3  501    0  0.12135836213E+03 -0.68609790169E+02 -0.20766649711E+03  0.25012102948E+03  0.00000000000E+00 0.  1.
   -9000007    1    1    2    0  503  0.48662934134E+02  0.98339998058E+02 -0.21370519512E+03  0.46659269904E+03  0.40000000000E+03 0. -1.
<mgrwt>
<rscale>  2 0.41476739E+03</rscale>
<asrwt>0</asrwt>
<pdfrwt beam="1">  1       21 0.42524905E-01 0.41477565E+03</pdfrwt>
<pdfrwt beam="2">  1       21 0.96445477E-01 0.41477565E+03</pdfrwt>
<totfact> 0.42162855E+03</totfact>
</mgrwt>
</event>
<event>
 6    1  0.8947013E-004  0.4362334E+03  0.7818608E-02  0.1031935E+00
         21   -1    0    0  501  502  0.00000000000E+00  0.00000000000E+00  0.32595709183E+04  0.32595709183E+04  0.00000000000E+00 0. -1.
         21   -1    0    0  502  503 -0.00000000000E+00 -0.00000000000E+00 -0.79088044013E+02  0.79088044013E+02  0.00000000000E+00 0. -1.
    9000007    2    1    2  501    0 -0.12276503617E+03  0.12219569860E+03  0.24457930143E+04  0.24843918886E+04  0.40037050900E+03 0.  0.
    9000005    1    3    3    0    0 -0.15004171062E+03 -0.60623811531E+02  0.19246008992E+04  0.19313926019E+04  0.99999687468E+00 0.  0.
          4    1    3    3  501    0  0.27276674445E+02  0.18281951013E+03  0.52119211504E+03  0.55299928665E+03  0.00000000000E+00 0.  1.
   -9000007    1    1    2    0  503  0.12276503617E+03 -0.12219569860E+03  0.73468985998E+03  0.85426707371E+03  0.40000000000E+03 0. -1.
<mgrwt>
<rscale>  2 0.43614838E+03</rscale>
<asrwt>0</asrwt>
<pdfrwt beam="1">  1       21 0.50147235E+00 0.43623341E+03</pdfrwt>
<pdfrwt beam="2">  1       21 0.12167394E-01 0.43623341E+03</pdfrwt>
<totfact> 0.79866011E+01</totfact>
</mgrwt>
</event>
<event>
 6    1  0.8947013E-004  0.4018736E+03  0.7818608E-02  0.1043135E+00
         21   -1    0    0  501  502  0.00000000000E+00  0.00000000000E+00  0.13098211404E+04  0.13098211404E+04  0.00000000000E+00 0. -1.
         21   -1    0    0  502  503 -0.00000000000E+00 -0.00000000000E+00 -0.14936882348E+03  0.14936882348E+03  0.00000000000E+00 0. -1.
    9000007    2    1    2  501    0 -0.32841388917E+02 -0.20587130639E+02  0.88504527483E+03  0.97200270461E+03  0.39997716497E+03 0.  0.
    9000005    1    3    3    0    0 -0.11081087875E+03 -0.56988635769E+02  0.87674380580E+03  0.88555488619E+03  0.99999687468E+00 0.  0.
          4    1    3    3  501    0  0.77969489834E+02  0.36401505130E+02  0.83014690279E+01  0.86447818415E+02  0.00000000000E+00 0.  1.
   -9000007    1    1    2    0  503  0.32841388917E+02  0.20587130639E+02  0.27540704211E+03  0.48718725929E+03  0.40000000000E+03 0. -1.
<mgrwt>
<rscale>  2 0.40186791E+03</rscale>
<asrwt>0</asrwt>
<pdfrwt beam="1">  1       21 0.20151094E+00 0.40187360E+03</pdfrwt>
<pdfrwt beam="2">  1       21 0.22979820E-01 0.40187360E+03</pdfrwt>
<totfact> 0.20159923E+03</totfact>
</mgrwt>
</event>
<event>
 6    1  0.8947013E-004  0.4321192E+03  0.7818608E-02  0.1033535E+00
         21   -1    0    0  501  502  0.00000000000E+00  0.00000000000E+00  0.43877190887E+03  0.43877190887E+03  0.00000000000E+00 0.  1.
         21   -1    0    0  502  503 -0.00000000000E+00 -0.00000000000E+00 -0.55116126622E+03  0.55116126622E+03  0.00000000000E+00 0.  1.
    9000007    2    1    2  501    0  0.86288553521E+02  0.13885723232E+03  0.18427389442E+03  0.46578040119E+03  0.39530680304E+03 0.  0.
    9000005    1    3    3    0    0  0.12745612899E+02 -0.11952876499E+03 -0.27953047000E+02  0.12341778292E+03  0.99999687468E+00 0.  0.
          4    1    3    3  501    0  0.73542940622E+02  0.25838599731E+03  0.21222694142E+03  0.34236261827E+03  0.00000000000E+00 0.  1.
   -9000007    1    1    2    0  503 -0.86288553521E+02 -0.13885723232E+03 -0.29666325177E+03  0.52415277390E+03  0.40000000000E+03 0.  1.
<mgrwt>
<rscale>  2 0.43102997E+03</rscale>
<asrwt>0</asrwt>
<pdfrwt beam="1">  1       21 0.67503371E-01 0.43211925E+03</pdfrwt>
<pdfrwt beam="2">  1       21 0.84794041E-01 0.43211925E+03</pdfrwt>
<totfact> 0.21038087E+03</totfact>
</mgrwt>
</event>
<event>
 6    1  0.8947013E-004  0.5948143E+03  0.7818608E-02  0.9916367E-01
         21   -1    0    0  501  502  0.00000000000E+00  0.00000000000E+00  0.50948470994E+03  0.50948470994E+03  0.00000000000E+00 0. -1.
         21   -1    0    0  502  503 -0.00000000000E+00 -0.00000000000E+00 -0.10336868843E+04  0.10336868843E+04  0.00000000000E+00 0. -1.
    9000007    2    1    2  501    0 -0.43893672687E+03  0.33742290248E+02 -0.70429791962E+03  0.92169072583E+03  0.39959259522E+03 0.  0.
    9000005    1    3    3    0    0 -0.43875635881E+03  0.81334083580E+02 -0.35787006048E+03  0.57200905214E+03  0.99999687468E+00 0.  0.
          4    1    3    3  501    0 -0.18036805429E+00 -0.47591793332E+02 -0.34642785914E+03  0.34968167369E+03  0.00000000000E+00 0.  1.
   -9000007    1    1    2    0  503  0.43893672687E+03 -0.33742290248E+02  0.18009574526E+03  0.62148086841E+03  0.40000000000E+03 0. -1.
<mgrwt>
<rscale>  2 0.59474576E+03</rscale>
<asrwt>0</asrwt>
<pdfrwt beam="1">  1       21 0.78382264E-01 0.59481425E+03</pdfrwt>
<pdfrwt beam="2">  1       21 0.15902875E+00 0.59481425E+03</pdfrwt>
<totfact> 0.28511058E+02</totfact>
</mgrwt>
</event>
<event>
 6    1  0.8947013E-004  0.5690493E+03  0.7818608E-02  0.9971787E-01
         21   -1    0    0  501  502  0.00000000000E+00  0.00000000000E+00  0.28264570972E+03  0.28264570972E+03  0.00000000000E+00 0. -1.
         21   -1    0    0  502  503 -0.00000000000E+00 -0.00000000000E+00 -0.14946313690E+04  0.14946313690E+04  0.00000000000E+00 0. -1.
    9000007    2    1    2  501    0  0.28739039367E+03  0.28499792811E+03 -0.17659740352E+03  0.59581785489E+03  0.39999401980E+03 0.  0.
    9000005    1    3    3    0    0  0.95837683986E+02 -0.42773456126E+01 -0.22585910250E+03  0.24539048787E+03  0.99999687468E+00 0.  0.
          4    1    3    3  501    0  0.19155270969E+03  0.28927527372E+03  0.49261698988E+02  0.35042736703E+03  0.00000000000E+00 0.  1.
   -9000007    1    1    2    0  503 -0.28739039367E+03 -0.28499792811E+03 -0.10353882557E+04  0.11814592238E+04  0.40000000000E+03 0. -1.
<mgrwt>
<rscale>  2 0.56904821E+03</rscale>
<asrwt>0</asrwt>
<pdfrwt beam="1">  1       21 0.43483956E-01 0.56904926E+03</pdfrwt>
<pdfrwt beam="2">  1       21 0.22994328E+00 0.56904926E+03</pdfrwt>
<totfact> 0.34127236E+02</totfact>
</mgrwt>
</event>
<event>
 6    1  0.8947013E-004  0.4114206E+03  0.7818608E-02  0.1040026E+00
         21   -1    0    0  501  502  0.00000000000E+00  0.00000000000E+00  0.17626382637E+03  0.17626382637E+03  0.00000000000E+00 0. -1.
         21   -1    0    0  502  503 -0.00000000000E+00 -0.00000000000E+00 -0.10400497701E+04  0.10400497701E+04  0.00000000000E+00 0. -1.
    9000007    2    1    2  501    0  0.89062636478E+02  0.73167704698E+01 -0.26044978567E+03  0.48693015276E+03  0.40159829988E+03 0.  0.
    9000005    1    3    3    0    0 -0.11425095940E+03 -0.11599039894E+03 -0.52569285652E+02  0.17108940399E+03  0.99999687468E+00 0.  0.
          4    1    3    3  501    0  0.20331359588E+03  0.12330716941E+03 -0.20788050002E+03  0.31584074877E+03  0.00000000000E+00 0.  1.
   -9000007    1    1    2    0  503 -0.89062636478E+02 -0.73167704698E+01 -0.60333615809E+03  0.72938344374E+03  0.40000000000E+03 0. -1.
<mgrwt>
<rscale>  2 0.41103001E+03</rscale>
<asrwt>0</asrwt>
<pdfrwt beam="1">  1       21 0.27117512E-01 0.41142057E+03</pdfrwt>
<pdfrwt beam="2">  1       21 0.16000765E+00 0.41142057E+03</pdfrwt>
<totfact> 0.28483266E+03</totfact>
</mgrwt>
</event>
<event>
 6    1  0.8947013E-004  0.4149609E+03  0.7818608E-02  0.1038726E+00
         21   -1    0    0  501  502  0.00000000000E+00  0.00000000000E+00  0.41191317644E+03  0.41191317644E+03  0.00000000000E+00 0.  1.
         21   -1    0    0  502  503 -0.00000000000E+00 -0.00000000000E+00 -0.56386046083E+03  0.56386046083E+03  0.00000000000E+00 0.  1.
    9000007    2    1    2  501    0  0.15375119490E+02 -0.10902111025E+03  0.17220994553E+03  0.44927586283E+03  0.40008816378E+03 0.  0.
    9000005    1    3    3    0    0 -0.78548466925E+02  0.11768981061E+03 -0.12620122986E+02  0.14205991931E+03  0.99999687468E+00 0.  0.
          4    1    3    3  501    0  0.93923586415E+02 -0.22671092086E+03  0.18483006851E+03  0.30721594351E+03  0.00000000000E+00 0.  1.
   -9000007    1    1    2    0  503 -0.15375119490E+02  0.10902111025E+03 -0.32415722992E+03  0.52649777444E+03  0.40000000000E+03 0.  1.
<mgrwt>
<rscale>  2 0.41493963E+03</rscale>
<asrwt>0</asrwt>
<pdfrwt beam="1">  1       21 0.63371258E-01 0.41496088E+03</pdfrwt>
<pdfrwt beam="2">  1       21 0.86747763E-01 0.41496088E+03</pdfrwt>
<totfact> 0.23105581E+03</totfact>
</mgrwt>
</event>
<event>
 6    1  0.8947013E-004  0.4031648E+03  0.7818608E-02  0.1042933E+00
         21   -1    0    0  501  502  0.00000000000E+00  0.00000000000E+00  0.15646020755E+04  0.15646020755E+04  0.00000000000E+00 0. -1.
         21   -1    0    0  502  503 -0.00000000000E+00 -0.00000000000E+00 -0.12817349697E+03  0.12817349697E+03  0.00000000000E+00 0.  1.
    9000007    2    1    2  501    0 -0.25711099139E+02  0.43368414041E+02  0.10900872636E+04  0.11612737508E+04  0.39714556799E+03 0.  0.
    9000005    1    3    3    0    0 -0.92664233614E+01 -0.24634826516E+02  0.10909867394E+04  0.10913046352E+04  0.99999687468E+00 0.  0.
          4    1    3    3  501    0 -0.16444675778E+02  0.68003240558E+02 -0.89947578804E+00  0.69969115648E+02  0.00000000000E+00 0.  1.
   -9000007    1    1    2    0  503  0.25711099139E+02 -0.43368414041E+02  0.34634131489E+03  0.53150182159E+03  0.40000000000E+03 0.  1.
<mgrwt>
<rscale>  2 0.40245499E+03</rscale>
<asrwt>0</asrwt>
<pdfrwt beam="1">  1       21 0.24070800E+00 0.40316483E+03</pdfrwt>
<pdfrwt beam="2">  1       21 0.19719001E-01 0.40316483E+03</pdfrwt>
<totfact> 0.15194562E+03</totfact>
</mgrwt>
</event>
<event>
 6    1  0.8947013E-004  0.4393804E+03  0.7818608E-02  0.1031100E+00
         21   -1    0    0  501  502  0.00000000000E+00  0.00000000000E+00  0.49832003768E+03  0.49832003768E+03  0.00000000000E+00 0.  1.
         21   -1    0    0  502  503 -0.00000000000E+00 -0.00000000000E+00 -0.47298187262E+03  0.47298187262E+03  0.00000000000E+00 0.  1.
    9000007    2    1    2  501    0  0.16590903223E+03 -0.60669114699E+02  0.22149064352E+03  0.49205005244E+03  0.40230411442E+03 0.  0.
    9000005    1    3    3    0    0 -0.52976624812E+02  0.13221253568E+03  0.38057719601E+02  0.14743156847E+03  0.99999687468E+00 0.  0.
          4    1    3    3  501    0  0.21888565704E+03 -0.19288165038E+03  0.18343292392E+03  0.34461848397E+03  0.00000000000E+00 0.  1.
   -9000007    1    1    2    0  503 -0.16590903223E+03  0.60669114699E+02 -0.19615247846E+03  0.47925185786E+03  0.40000000000E+03 0.  1.
<mgrwt>
<rscale>  2 0.43885229E+03</rscale>
<asrwt>0</asrwt>
<pdfrwt beam="1">  1       21 0.76664621E-01 0.43938041E+03</pdfrwt>
<pdfrwt beam="2">  1       21 0.72766442E-01 0.43938041E+03</pdfrwt>
<totfact> 0.22367871E+03</totfact>
</mgrwt>
</event>
<event>
 6    1  0.8947013E-004  0.4250725E+03  0.7818608E-02  0.1035807E+00
         21   -1    0    0  501  502  0.00000000000E+00  0.00000000000E+00  0.38313495621E+03  0.38313495621E+03  0.00000000000E+00 0.  1.
         21   -1    0    0  502  503 -0.00000000000E+00 -0.00000000000E+00 -0.52844530890E+03  0.52844530890E+03  0.00000000000E+00 0.  1.
    9000007    2    1    2  501    0  0.11026587892E+03  0.92347371370E+02  0.83885820808E+02  0.42865430080E+03  0.39499503492E+03 0.  0.
    9000005    1    3    3    0    0  0.42953099011E+02 -0.92741403998E+02 -0.11147980415E+03  0.15124378816E+03  0.99999687468E+00 0.  0.
          4    1    3    3  501    0  0.67312779912E+02  0.18508877537E+03  0.19536562496E+03  0.27741051264E+03  0.00000000000E+00 0.  1.
   -9000007    1    1    2    0  503 -0.11026587892E+03 -0.92347371370E+02 -0.22919617349E+03  0.48292596430E+03  0.40000000000E+03 0.  1.
<mgrwt>
<rscale>  2 0.42389096E+03</rscale>
<asrwt>0</asrwt>
<pdfrwt beam="1">  1       21 0.58943839E-01 0.42507247E+03</pdfrwt>
<pdfrwt beam="2">  1       21 0.81299278E-01 0.42507247E+03</pdfrwt>
<totfact> 0.31384778E+03</totfact>
</mgrwt>
</event>
<event>
 6    1  0.8947013E-004  0.4338977E+03  0.7818608E-02  0.1032660E+00
         21   -1    0    0  501  502  0.00000000000E+00  0.00000000000E+00  0.29614006818E+04  0.29614006818E+04  0.00000000000E+00 0. -1.
         21   -1    0    0  502  503 -0.00000000000E+00 -0.00000000000E+00 -0.84607657730E+02  0.84607657730E+02  0.00000000000E+00 0.  1.
    9000007    2    1    2  501    0 -0.66816012312E+02  0.15339482079E+03  0.21989950443E+04  0.22413938655E+04  0.40034098535E+03 0.  0.
    9000005    1    3    3    0    0 -0.80865562499E+02 -0.10924335831E+03  0.12248085678E+04  0.12323272205E+04  0.99999687468E+00 0.  0.
          4    1    3    3  501    0  0.14049550187E+02  0.26263817910E+03  0.97418647653E+03  0.10090666450E+04  0.00000000000E+00 0.  1.
   -9000007    1    1    2    0  503  0.66816012312E+02 -0.15339482079E+03  0.67779797970E+03  0.80461447404E+03  0.40000000000E+03 0.  1.
<mgrwt>
<rscale>  2 0.43381908E+03</rscale>
<asrwt>0</asrwt>
<pdfrwt beam="1">  1       21 0.45560002E+00 0.43389775E+03</pdfrwt>
<pdfrwt beam="2">  1       21 0.13016565E-01 0.43389775E+03</pdfrwt>
<totfact> 0.14775144E+02</totfact>
</mgrwt>
</event>
<event>
 6    1  0.8947013E-004  0.4019636E+03  0.7818608E-02  0.1043162E+00
         21   -1    0    0  501  502  0.00000000000E+00  0.00000000000E+00  0.43319974111E+03  0.43319974111E+03  0.00000000000E+00 0. -1.
         21   -1    0    0  502  503 -0.00000000000E+00 -0.00000000000E+00 -0.44671792375E+03  0.44671792375E+03  0.00000000000E+00 0. -1.
    9000007    2    1    2  501    0  0.87113969003E+01 -0.30607143634E+02  0.17276891913E+03  0.43752014004E+03  0.40070199381E+03 0.  0.
    9000005    1    3    3    0    0  0.24866441149E+02  0.82164530182E+02  0.27275252499E+03  0.28594455721E+03  0.99999687468E+00 0.  0.
          4    1    3    3  501    0 -0.16155044249E+02 -0.11277167382E+03 -0.99983605859E+02  0.15157558283E+03  0.00000000000E+00 0.  1.
   -9000007    1    1    2    0  503 -0.87113969003E+01  0.30607143634E+02 -0.18628710178E+03  0.44239752482E+03  0.40000000000E+03 0. -1.
<mgrwt>
<rscale>  2 0.40178859E+03</rscale>
<asrwt>0</asrwt>
<pdfrwt beam="1">  1       21 0.66646114E-01 0.40196365E+03</pdfrwt>
<pdfrwt beam="2">  1       21 0.68725834E-01 0.40196365E+03</pdfrwt>
<totfact> 0.35401758E+03</totfact>
</mgrwt>
</event>
<event>
 6    1  0.8947013E-004  0.5129969E+03  0.7818608E-02  0.1010448E+00
         21   -1    0    0  501  502  0.00000000000E+00  0.00000000000E+00  0.10010817489E+04  0.10010817489E+04  0.00000000000E+00 0.  1.
         21   -1    0    0  502  503 -0.00000000000E+00 -0.00000000000E+00 -0.40421740659E+03  0.40421740659E+03  0.00000000000E+00 0.  1.
    9000007    2    1    2  501    0 -0.32013576415E+03 -0.26056015628E+02  0.71397913020E+03  0.87910366235E+03  0.39986401109E+03 0.  0.
    9000005    1    3    3    0    0 -0.12657519657E+03 -0.14145165979E+03  0.59444323664E+03  0.62401411364E+03  0.99999687468E+00 0.  0.
          4    1    3    3  501    0 -0.19356056758E+03  0.11539564416E+03  0.11953589356E+03  0.25508954871E+03  0.00000000000E+00 0.  1.
   -9000007    1    1    2    0  503  0.32013576415E+03  0.26056015628E+02 -0.11711478789E+03  0.52619549312E+03  0.40000000000E+03 0.  1.
<mgrwt>
<rscale>  2 0.51297039E+03</rscale>
<asrwt>0</asrwt>
<pdfrwt beam="1">  1       21 0.15401258E+00 0.51299690E+03</pdfrwt>
<pdfrwt beam="2">  1       21 0.62187294E-01 0.51299690E+03</pdfrwt>
<totfact> 0.54294440E+02</totfact>
</mgrwt>
</event>
<event>
 6    1  0.8947013E-004  0.5459661E+03  0.7818608E-02  0.1002439E+00
         21   -1    0    0  501  502  0.00000000000E+00  0.00000000000E+00  0.13897721081E+03  0.13897721081E+03  0.00000000000E+00 0. -1.
         21   -1    0    0  502  503 -0.00000000000E+00 -0.00000000000E+00 -0.21479024630E+04  0.21479024630E+04  0.00000000000E+00 0. -1.
    9000007    2    1    2  501    0 -0.11256747192E+02  0.37124409606E+03 -0.95798228196E+03  0.11026372916E+04  0.40016253070E+03 0.  0.
    9000005    1    3    3    0    0 -0.13415381742E+03  0.12541269850E+03 -0.70693197512E+03  0.73039674774E+03  0.99999687468E+00 0.  0.
          4    1    3    3  501    0  0.12289707023E+03  0.24583139756E+03 -0.25105030684E+03  0.37224054382E+03  0.00000000000E+00 0.  1.
   -9000007    1    1    2    0  503  0.11256747192E+02 -0.37124409606E+03 -0.10509429702E+04  0.11842423823E+04  0.40000000000E+03 0. -1.
<mgrwt>
<rscale>  2 0.54593628E+03</rscale>
<asrwt>0</asrwt>
<pdfrwt beam="1">  1       21 0.21381112E-01 0.54596607E+03</pdfrwt>
<pdfrwt beam="2">  1       21 0.33044650E+00 0.54596607E+03</pdfrwt>
<totfact> 0.34533045E+02</totfact>
</mgrwt>
</event>
<event>
 6    1  0.8947013E-004  0.6611342E+03  0.7818608E-02  0.9786172E-01
         21   -1    0    0  501  502  0.00000000000E+00  0.00000000000E+00  0.11499249942E+04  0.11499249942E+04  0.00000000000E+00 0. -1.
         21   -1    0    0  502  503 -0.00000000000E+00 -0.00000000000E+00 -0.45098043181E+03  0.45098043181E+03  0.00000000000E+00 0. -1.
    9000007    2    1    2  501    0 -0.24180859862E+03  0.46757571117E+03  0.66693452075E+03  0.93899675645E+03  0.39976844500E+03 0.  0.
    9000005    1    3    3    0    0 -0.33873772103E+03  0.24797490722E+03  0.39737722994E+03  0.57805229965E+03  0.99999687468E+00 0.  0.
          4    1    3    3  501    0  0.96929122414E+02  0.21960080395E+03  0.26955729081E+03  0.36094445680E+03  0.00000000000E+00 0.  1.
   -9000007    1    1    2    0  503  0.24180859862E+03 -0.46757571117E+03  0.32010041619E+02  0.66190866954E+03  0.40000000000E+03 0. -1.
<mgrwt>
<rscale>  2 0.66109919E+03</rscale>
<asrwt>0</asrwt>
<pdfrwt beam="1">  1       21 0.17691154E+00 0.66113421E+03</pdfrwt>
<pdfrwt beam="2">  1       21 0.69381605E-01 0.66113421E+03</pdfrwt>
<totfact> 0.27140616E+02</totfact>
</mgrwt>
</event>
<event>
 6    1  0.8947013E-004  0.4761207E+03  0.7818608E-02  0.1020256E+00
         21   -1    0    0  501  502  0.00000000000E+00  0.00000000000E+00  0.19284546739E+04  0.19284546739E+04  0.00000000000E+00 0.  1.
         21   -1    0    0  502  503 -0.00000000000E+00 -0.00000000000E+00 -0.21447384962E+03  0.21447384962E+03  0.00000000000E+00 0.  1.
    9000007    2    1    2  501    0 -0.40613047999E+02 -0.25371452342E+03  0.15782688279E+04  0.16485215808E+04  0.40083716153E+03 0.  0.
    9000005    1    3    3    0    0  0.12325187966E+03 -0.28364273460E+03  0.99855192262E+03  0.10453473915E+04  0.99999687468E+00 0.  0.
          4    1    3    3  501    0 -0.16386492766E+03  0.29928211185E+02  0.57971690531E+03  0.60317418931E+03  0.00000000000E+00 0.  1.
   -9000007    1    1    2    0  503  0.40613047999E+02  0.25371452342E+03  0.13571199635E+03  0.49440694273E+03  0.40000000000E+03 0.  1.
<mgrwt>
<rscale>  2 0.47594445E+03</rscale>
<asrwt>0</asrwt>
<pdfrwt beam="1">  1       21 0.29668532E+00 0.47612069E+03</pdfrwt>
<pdfrwt beam="2">  1       21 0.32995978E-01 0.47612069E+03</pdfrwt>
<totfact> 0.24461123E+02</totfact>
</mgrwt>
</event>
<event>
 6    1  0.8947013E-004  0.4282092E+03  0.7818608E-02  0.1034504E+00
         21   -1    0    0  501  502  0.00000000000E+00  0.00000000000E+00  0.87239229007E+03  0.87239229007E+03  0.00000000000E+00 0.  1.
         21   -1    0    0  502  503 -0.00000000000E+00 -0.00000000000E+00 -0.24385745357E+03  0.24385745357E+03  0.00000000000E+00 0.  1.
    9000007    2    1    2  501    0 -0.13207101197E+02  0.14952943530E+03  0.52343222000E+03  0.67627242656E+03  0.40103569224E+03 0.  0.
    9000005    1    3    3    0    0 -0.21041712132E+02  0.14651364758E+03 -0.46792657931E+01  0.14809422034E+03  0.99999687468E+00 0.  0.
          4    1    3    3  501    0  0.78346109356E+01  0.30157877223E+01  0.52811148579E+03  0.52817820622E+03  0.00000000000E+00 0.  1.
   -9000007    1    1    2    0  503  0.13207101197E+02 -0.14952943530E+03  0.10510261651E+03  0.43997731707E+03  0.40000000000E+03 0.  1.
<mgrwt>
<rscale>  2 0.42796653E+03</rscale>
<asrwt>0</asrwt>
<pdfrwt beam="1">  1       21 0.13421420E+00 0.42820918E+03</pdfrwt>
<pdfrwt beam="2">  1       21 0.37516532E-01 0.42820918E+03</pdfrwt>
<totfact> 0.23735283E+03</totfact>
</mgrwt>
</event>
<event>
 6    1  0.8947013E-004  0.5264817E+03  0.7818608E-02  0.1007298E+00
         21   -1    0    0  501  502  0.00000000000E+00  0.00000000000E+00  0.22525745963E+04  0.22525745963E+04  0.00000000000E+00 0. -1.
         21   -1    0    0  502  503 -0.00000000000E+00 -0.00000000000E+00 -0.14607640085E+03  0.14607640085E+03  0.00000000000E+00 0.  1.
    9000007    2    1    2  501    0 -0.16535784037E+03 -0.29973283635E+03  0.15346857324E+04  0.16213785343E+04  0.39550608812E+03 0.  0.
    9000005    1    3    3    0    0 -0.31414120975E+02 -0.86223783663E+02  0.11943707827E+04  0.11978914618E+04  0.99999687468E+00 0.  0.
          4    1    3    3  501    0 -0.13394371940E+03 -0.21350905268E+03  0.34031494976E+03  0.42348707250E+03  0.00000000000E+00 0.  1.
   -9000007    1    1    2    0  503  0.16535784037E+03  0.29973283635E+03  0.57181246297E+03  0.77727246276E+03  0.40000000000E+03 0.  1.
<mgrwt>
<rscale>  2 0.52562810E+03</rscale>
<asrwt>0</asrwt>
<pdfrwt beam="1">  1       21 0.34654991E+00 0.52648171E+03</pdfrwt>
<pdfrwt beam="2">  1       21 0.22473294E-01 0.52648171E+03</pdfrwt>
<totfact> 0.25237537E+02</totfact>
</mgrwt>
</event>
<event>
 6    1  0.8947013E-004  0.4272619E+03  0.7818608E-02  0.1034764E+00
         21   -1    0    0  501  502  0.00000000000E+00  0.00000000000E+00  0.40810749469E+03  0.40810749469E+03  0.00000000000E+00 0.  1.
         21   -1    0    0  502  503 -0.00000000000E+00 -0.00000000000E+00 -0.15288787793E+04  0.15288787793E+04  0.00000000000E+00 0.  1.
    9000007    2    1    2  501    0 -0.62998725921E+02 -0.13632261979E+03  0.25446257927E+03  0.49690958281E+03  0.39951875188E+03 0.  0.
    9000005    1    3    3    0    0 -0.33792403688E+02  0.87231521383E+02 -0.59138220810E+02  0.11067788408E+03  0.99999687468E+00 0.  0.
          4    1    3    3  501    0 -0.29206322233E+02 -0.22355414117E+03  0.31360080008E+03  0.38623169873E+03  0.00000000000E+00 0.  1.
   -9000007    1    1    2    0  503  0.62998725921E+02  0.13632261979E+03 -0.13752338638E+04  0.14400766912E+04  0.40000000000E+03 0.  1.
<mgrwt>
<rscale>  2 0.42714919E+03</rscale>
<asrwt>0</asrwt>
<pdfrwt beam="1">  1       21 0.62785769E-01 0.42726186E+03</pdfrwt>
<pdfrwt beam="2">  1       21 0.23521212E+00 0.42726186E+03</pdfrwt>
<totfact> 0.15417764E+02</totfact>
</mgrwt>
</event>
