<event>
 6    1  0.9163926E-004  0.6164241E+03  0.7818608E-02  0.9872044E-01
         21   -1    0    0  501  502  0.00000000000E+00  0.00000000000E+00  0.57529512752E+03  0.57529512752E+03  0.00000000000E+00 0. -1.
         21   -1    0    0  502  503 -0.00000000000E+00 -0.00000000000E+00 -0.68313975880E+03  0.68313975880E+03  0.00000000000E+00 0.  1.
    9000007    2    1    2  501    0 -0.38237645244E+03  0.27160062496E+03 -0.16922090860E+03  0.63896277372E+03  0.39957359702E+03 0.  0.
    9000005    1    3    3    0    0 -0.62113770855E+01  0.57670810258E+02  0.10971751858E+03  0.12411058552E+03  0.99999687468E+00 0.  0.
          4    1    3    3  501    0 -0.37616507536E+03  0.21392981470E+03 -0.27893842718E+03  0.51485218820E+03  0.00000000000E+00 0.  1.
   -9000007    1    1    2    0  503  0.38237645244E+03 -0.27160062496E+03  0.61376277316E+02  0.61947211259E+03  0.40000000000E+03 0. -1.
<mgrwt>
<rscale>  2 0.61635492E+03</rscale>
<asrwt>0</asrwt>
<pdfrwt beam="1">  1       21 0.88506943E-01 0.61642408E+03</pdfrwt>
<pdfrwt beam="2">  1       21 0.10509842E+00 0.61642408E+03</pdfrwt>
<totfact> 0.63088952E+02</totfact>
</mgrwt>
</event>
<event>
 6    1  0.9163926E-004  0.4222499E+03  0.7818608E-02  0.1036409E+00
         21   -1    0    0  501  502  0.00000000000E+00  0.00000000000E+00  0.25250578578E+03  0.25250578578E+03  0.00000000000E+00 0. -1.
         21   -1    0    0  502  503 -0.00000000000E+00 -0.00000000000E+00 -0.80069662623E+03  0.80069662623E+03  0.00000000000E+00 0. -1.
    9000007    2    1    2  501    0  0.80762345425E+02  0.10498358710E+03 -0.91931695008E+02  0.43214161160E+03  0.40093743394E+03 0.  0.
    9000005    1    3    3    0    0  0.23952211902E+03  0.40411146756E+02 -0.94736146421E+02  0.26072944543E+03  0.99999687468E+00 0.  0.
          4    1    3    3  501    0 -0.15875977360E+03  0.64572440346E+02  0.28044514137E+01  0.17141216617E+03  0.00000000000E+00 0.  1.
   -9000007    1    1    2    0  503 -0.80762345425E+02 -0.10498358710E+03 -0.45625914545E+03  0.62106080041E+03  0.40000000000E+03 0. -1.
<mgrwt>
<rscale>  2 0.42202717E+03</rscale>
<asrwt>0</asrwt>
<pdfrwt beam="1">  1       21 0.38847045E-01 0.42224985E+03</pdfrwt>
<pdfrwt beam="2">  1       21 0.12318409E+00 0.42224985E+03</pdfrwt>
<totfact> 0.27651307E+03</totfact>
</mgrwt>
</event>
<event>
 6    1  0.9163926E-004  0.8138853E+03  0.7818608E-02  0.9540479E-01
         21   -1    0    0  501  502  0.00000000000E+00  0.00000000000E+00  0.65284975170E+03  0.65284975170E+03  0.00000000000E+00 0. -1.
         21   -1    0    0  502  503 -0.00000000000E+00 -0.00000000000E+00 -0.24169378453E+04  0.24169378453E+04  0.00000000000E+00 0.  1.
    9000007    2    1    2  501    0  0.69961674144E+03  0.10656953690E+03  0.28737781143E+03  0.86313107397E+03  0.40198083691E+03 0.  0.
    9000005    1    3    3    0    0  0.57444143549E+03  0.91889576051E+02  0.39018952642E+03  0.70048235061E+03  0.99999687468E+00 0.  0.
          4    1    3    3  501    0  0.12517530595E+03  0.14679960853E+02 -0.10281171499E+03  0.16264872335E+03  0.00000000000E+00 0.  1.
   -9000007    1    1    2    0  503 -0.69961674144E+03 -0.10656953690E+03 -0.20514659050E+04  0.22066565230E+04  0.40000000000E+03 0.  1.
<mgrwt>
<rscale>  2 0.81364104E+03</rscale>
<asrwt>0</asrwt>
<pdfrwt beam="1">  1       21 0.10043842E+00 0.81388528E+03</pdfrwt>
<pdfrwt beam="2">  1       21 0.37183659E+00 0.81388528E+03</pdfrwt>
<totfact> 0.61170656E+00</totfact>
</mgrwt>
</event>
<event>
 6    1  0.9163926E-004  0.6106455E+03  0.7818608E-02  0.9883582E-01
         21   -1    0    0  501  502  0.00000000000E+00  0.00000000000E+00  0.57686506841E+03  0.57686506841E+03  0.00000000000E+00 0.  1.
         21   -1    0    0  502  503 -0.00000000000E+00 -0.00000000000E+00 -0.77533848318E+03  0.77533848318E+03  0.00000000000E+00 0. -1.
    9000007    2    1    2  501    0 -0.32598318482E+03 -0.32645972520E+03  0.17651313077E+03  0.63564518111E+03  0.40005864816E+03 0.  0.
    9000005    1    3    3    0    0 -0.27188520984E+03 -0.27506871884E+03 -0.56599139852E+02  0.39088211783E+03  0.99999687468E+00 0.  0.
          4    1    3    3  501    0 -0.54097974984E+02 -0.51391006362E+02  0.23311227062E+03  0.24476306328E+03  0.00000000000E+00 0.  1.
   -9000007    1    1    2    0  503  0.32598318482E+03  0.32645972520E+03 -0.37498654554E+03  0.71655837048E+03  0.40000000000E+03 0.  1.
<mgrwt>
<rscale>  2 0.61063588E+03</rscale>
<asrwt>0</asrwt>
<pdfrwt beam="1">  1       21 0.88748473E-01 0.61064549E+03</pdfrwt>
<pdfrwt beam="2">  1       21 0.11928284E+00 0.61064549E+03</pdfrwt>
<totfact> 0.45689183E+02</totfact>
</mgrwt>
</event>
<event>
 6    1  0.9163926E-004  0.4213018E+03  0.7818608E-02  0.1036689E+00
         21   -1    0    0  501  502  0.00000000000E+00  0.00000000000E+00  0.92932086512E+03  0.92932086512E+03  0.00000000000E+00 0.  1.
         21   -1    0    0  502  503 -0.00000000000E+00 -0.00000000000E+00 -0.42634417364E+03  0.42634417364E+03  0.00000000000E+00 0.  1.
    9000007    2    1    2  501    0  0.11068040984E+03 -0.69073557400E+02  0.75545172421E+03  0.86498698586E+03  0.40059189787E+03 0.  0.
    9000005    1    3    3    0    0  0.10643345528E+03 -0.11921943428E+03  0.64724031939E+02  0.17242840317E+03  0.99999687468E+00 0.  0.
          4    1    3    3  501    0  0.42469545546E+01  0.50145876884E+02  0.69072769227E+03  0.69255858269E+03  0.00000000000E+00 0.  1.
   -9000007    1    1    2    0  503 -0.11068040984E+03  0.69073557400E+02 -0.25247503272E+03  0.49067805291E+03  0.40000000000E+03 0.  1.
<mgrwt>
<rscale>  2 0.42116101E+03</rscale>
<asrwt>0</asrwt>
<pdfrwt beam="1">  1       21 0.14297244E+00 0.42130177E+03</pdfrwt>
<pdfrwt beam="2">  1       21 0.65591412E-01 0.42130177E+03</pdfrwt>
<totfact> 0.61442697E+02</totfact>
</mgrwt>
</event>
<event>
 6    1  0.9163926E-004  0.5664420E+03  0.7818608E-02  0.9977665E-01
         21   -1    0    0  501  502  0.00000000000E+00  0.00000000000E+00  0.17068827270E+04  0.17068827270E+04  0.00000000000E+00 0.  1.
         21   -1    0    0  502  503 -0.00000000000E+00 -0.00000000000E+00 -0.28965978306E+03  0.28965978306E+03  0.00000000000E+00 0. -1.
    9000007    2    1    2  501    0 -0.37399735142E+03 -0.14427633373E+03  0.13002740471E+04  0.14182979910E+04  0.40020858874E+03 0.  0.
    9000005    1    3    3    0    0 -0.24046502453E+02 -0.15095433289E+03  0.75523781222E+03  0.77055213834E+03  0.99999687468E+00 0.  0.
          4    1    3    3  501    0 -0.34995084896E+03  0.66779991587E+01  0.54503623483E+03  0.64774585266E+03  0.00000000000E+00 0.  1.
   -9000007    1    1    2    0  503  0.37399735142E+03  0.14427633373E+03  0.11694889690E+03  0.57824451906E+03  0.40000000000E+03 0. -1.
<mgrwt>
<rscale>  2 0.56640521E+03</rscale>
<asrwt>0</asrwt>
<pdfrwt beam="1">  1       21 0.26259734E+00 0.56644205E+03</pdfrwt>
<pdfrwt beam="2">  1       21 0.44563045E-01 0.56644205E+03</pdfrwt>
<totfact> 0.20303978E+02</totfact>
</mgrwt>
</event>
<event>
 6    1  0.9163926E-004  0.4357833E+03  0.7818608E-02  0.1032389E+00
         21   -1    0    0  501  502  0.00000000000E+00  0.00000000000E+00  0.23261316507E+03  0.23261316507E+03  0.00000000000E+00 0. -1.
         21   -1    0    0  502  503 -0.00000000000E+00 -0.00000000000E+00 -0.82949028856E+03  0.82949028856E+03  0.00000000000E+00 0. -1.
    9000007    2    1    2  501    0  0.16134594651E+03  0.97005985126E+01 -0.21494401077E+03  0.48590945968E+03  0.40469798514E+03 0.  0.
    9000005    1    3    3    0    0  0.23706860020E+03 -0.87556848856E+02 -0.25230847619E+03  0.35711103334E+03  0.99999687468E+00 0.  0.
          4    1    3    3  501    0 -0.75722653693E+02  0.97257447369E+02  0.37364465422E+02  0.12879842634E+03  0.00000000000E+00 0.  1.
   -9000007    1    1    2    0  503 -0.16134594651E+03 -0.97005985126E+01 -0.38193311273E+03  0.57619399395E+03  0.40000000000E+03 0. -1.
<mgrwt>
<rscale>  2 0.43468934E+03</rscale>
<asrwt>0</asrwt>
<pdfrwt beam="1">  1       21 0.35786641E-01 0.43578329E+03</pdfrwt>
<pdfrwt beam="2">  1       21 0.12761389E+00 0.43578329E+03</pdfrwt>
<totfact> 0.29692450E+03</totfact>
</mgrwt>
</event>
<event>
 6    1  0.9163926E-004  0.4386240E+03  0.7818608E-02  0.1031210E+00
         21   -1    0    0  501  502  0.00000000000E+00  0.00000000000E+00  0.11878283364E+03  0.11878283364E+03  0.00000000000E+00 0. -1.
         21   -1    0    0  502  503 -0.00000000000E+00 -0.00000000000E+00 -0.16339194183E+04  0.16339194183E+04  0.00000000000E+00 0. -1.
    9000007    2    1    2  501    0 -0.15964771872E+03  0.80258682917E+02 -0.67081686940E+03  0.80149006117E+03  0.40057732789E+03 0.  0.
    9000005    1    3    3    0    0 -0.23775461867E+03  0.15515286668E+03 -0.29095796155E+03  0.40651839579E+03  0.99999687468E+00 0.  0.
          4    1    3    3  501    0  0.78106899947E+02 -0.74894183764E+02 -0.37985890785E+03  0.39497166538E+03  0.00000000000E+00 0.  1.
   -9000007    1    1    2    0  503  0.15964771872E+03 -0.80258682917E+02 -0.84431971528E+03  0.95121219078E+03  0.40000000000E+03 0. -1.
<mgrwt>
<rscale>  2 0.43849218E+03</rscale>
<asrwt>0</asrwt>
<pdfrwt beam="1">  1       21 0.18274282E-01 0.43862404E+03</pdfrwt>
<pdfrwt beam="2">  1       21 0.25137222E+00 0.43862404E+03</pdfrwt>
<totfact> 0.14818122E+03</totfact>
</mgrwt>
</event>
<event>
 6    1  0.9163926E-004  0.4875299E+03  0.7818608E-02  0.1017101E+00
         21   -1    0    0  501  502  0.00000000000E+00  0.00000000000E+00  0.12397623828E+04  0.12397623828E+04  0.00000000000E+00 0. -1.
         21   -1    0    0  502  503 -0.00000000000E+00 -0.00000000000E+00 -0.21594136642E+03  0.21594136642E+03  0.00000000000E+00 0.  1.
    9000007    2    1    2  501    0  0.65230296148E+02  0.27057212194E+03  0.26779361191E+03  0.55623629509E+03  0.40027632042E+03 0.  0.
    9000005    1    3    3    0    0  0.41835719302E+02  0.36896912888E+03  0.14872646984E+03  0.40001126022E+03  0.99999687468E+00 0.  0.
          4    1    3    3  501    0  0.23394576846E+02 -0.98397006938E+02  0.11906714207E+03  0.15622503487E+03  0.00000000000E+00 0.  1.
   -9000007    1    1    2    0  503 -0.65230296148E+02 -0.27057212194E+03  0.75602740446E+03  0.89946745411E+03  0.40000000000E+03 0. -1.
<mgrwt>
<rscale>  2 0.48747317E+03</rscale>
<asrwt>0</asrwt>
<pdfrwt beam="1">  1       21 0.19073267E+00 0.48752989E+03</pdfrwt>
<pdfrwt beam="2">  1       21 0.33221750E-01 0.48752989E+03</pdfrwt>
<totfact> 0.11103742E+03</totfact>
</mgrwt>
</event>
<event>
 6    1  0.9163926E-004  0.5270726E+03  0.7818608E-02  0.1006989E+00
         21   -1    0    0  501  502  0.00000000000E+00  0.00000000000E+00  0.12015146636E+04  0.12015146636E+04  0.00000000000E+00 0.  1.
         21   -1    0    0  502  503 -0.00000000000E+00 -0.00000000000E+00 -0.25198667104E+03  0.25198667104E+03  0.00000000000E+00 0. -1.
    9000007    2    1    2  501    0  0.28645193308E+03  0.18705666985E+03  0.68531430518E+03  0.86455839995E+03  0.40094965064E+03 0.  0.
    9000005    1    3    3    0    0  0.14387228251E+02 -0.11766444419E+03  0.15062546190E+03  0.19167927256E+03  0.99999687468E+00 0.  0.
          4    1    3    3  501    0  0.27206470483E+03  0.30472111404E+03  0.53468884328E+03  0.67287912740E+03  0.00000000000E+00 0.  1.
   -9000007    1    1    2    0  503 -0.28645193308E+03 -0.18705666985E+03  0.26421368737E+03  0.58894293467E+03  0.40000000000E+03 0. -1.
<mgrwt>
<rscale>  2 0.52689200E+03</rscale>
<asrwt>0</asrwt>
<pdfrwt beam="1">  1       21 0.18484841E+00 0.52707260E+03</pdfrwt>
<pdfrwt beam="2">  1       21 0.38767181E-01 0.52707260E+03</pdfrwt>
<totfact> 0.87685872E+02</totfact>
</mgrwt>
</event>
<event>
 6    1  0.9163926E-004  0.4610191E+03  0.7818608E-02  0.1024489E+00
         21   -1    0    0  501  502  0.00000000000E+00  0.00000000000E+00  0.33585631848E+03  0.33585631848E+03  0.00000000000E+00 0. -1.
         21   -1    0    0  502  503 -0.00000000000E+00 -0.00000000000E+00 -0.66291984303E+03  0.66291984303E+03  0.00000000000E+00 0.  1.
    9000007    2    1    2  501    0 -0.22918278673E+03  0.37291689527E+01 -0.27001631060E+03  0.53424086570E+03  0.39995729542E+03 0.  0.
    9000005    1    3    3    0    0 -0.12515597469E+03 -0.13382078400E+03  0.32433578201E+02  0.18607782571E+03  0.99999687468E+00 0.  0.
          4    1    3    3  501    0 -0.10402681203E+03  0.13754995295E+03 -0.30244988880E+03  0.34816303999E+03  0.00000000000E+00 0.  1.
   -9000007    1    1    2    0  503  0.22918278673E+03 -0.37291689527E+01 -0.57047213956E+02  0.46453529581E+03  0.40000000000E+03 0. -1.
<mgrwt>
<rscale>  2 0.46100989E+03</rscale>
<asrwt>0</asrwt>
<pdfrwt beam="1">  1       21 0.51670203E-01 0.46101915E+03</pdfrwt>
<pdfrwt beam="2">  1       21 0.10198767E+00 0.46101915E+03</pdfrwt>
<totfact> 0.24024296E+03</totfact>
</mgrwt>
</event>
<event>
 6    1  0.9163926E-004  0.4677415E+03  0.7818608E-02  0.1022610E+00
         21   -1    0    0  501  502  0.00000000000E+00  0.00000000000E+00  0.61289549779E+03  0.61289549779E+03  0.00000000000E+00 0.  1.
         21   -1    0    0  502  503 -0.00000000000E+00 -0.00000000000E+00 -0.41266803716E+03  0.41266803716E+03  0.00000000000E+00 0.  1.
    9000007    2    1    2  501    0 -0.75940365796E+02 -0.22879767603E+03 -0.89134598617E+02  0.47615865961E+03  0.40083260439E+03 0.  0.
    9000005    1    3    3    0    0  0.16532881372E+03 -0.80946004430E+02 -0.22528796581E+02  0.18545732380E+03  0.99999687468E+00 0.  0.
          4    1    3    3  501    0 -0.24126917952E+03 -0.14785167160E+03 -0.66605802036E+02  0.29070133582E+03  0.00000000000E+00 0.  1.
   -9000007    1    1    2    0  503  0.75940365796E+02  0.22879767603E+03  0.28936205924E+03  0.54940487534E+03  0.40000000000E+03 0. -1.
<mgrwt>
<rscale>  2 0.46756305E+03</rscale>
<asrwt>0</asrwt>
<pdfrwt beam="1">  1       21 0.94291615E-01 0.46774148E+03</pdfrwt>
<pdfrwt beam="2">  1       21 0.63487391E-01 0.46774148E+03</pdfrwt>
<totfact> 0.18509101E+03</totfact>
</mgrwt>
</event>
<event>
 6    1  0.9163926E-004  0.5629944E+03  0.7818608E-02  0.9985941E-01
         21   -1    0    0  501  502  0.00000000000E+00  0.00000000000E+00  0.98056364262E+03  0.98056364262E+03  0.00000000000E+00 0. -1.
         21   -1    0    0  502  503 -0.00000000000E+00 -0.00000000000E+00 -0.36565281245E+03  0.36565281245E+03  0.00000000000E+00 0.  1.
    9000007    2    1    2  501    0  0.14980407944E+03 -0.36502603627E+03  0.53871365453E+03  0.77921444542E+03  0.40159367649E+03 0.  0.
    9000005    1    3    3    0    0 -0.83928434679E+02 -0.80166794319E+02 -0.11904866175E+02  0.11667657388E+03  0.99999687468E+00 0.  0.
          4    1    3    3  501    0  0.23373251412E+03 -0.28485924195E+03  0.55061852071E+03  0.66253787154E+03  0.00000000000E+00 0.  1.
   -9000007    1    1    2    0  503 -0.14980407944E+03  0.36502603627E+03  0.76197175640E+02  0.56700200965E+03  0.40000000000E+03 0.  1.
<mgrwt>
<rscale>  2 0.56271031E+03</rscale>
<asrwt>0</asrwt>
<pdfrwt beam="1">  1       21 0.15085594E+00 0.56299445E+03</pdfrwt>
<pdfrwt beam="2">  1       21 0.56254279E-01 0.56299445E+03</pdfrwt>
<totfact> 0.70293322E+02</totfact>
</mgrwt>
</event>
<event>
 6    1  0.9163926E-004  0.4315090E+03  0.7818608E-02  0.1033480E+00
         21   -1    0    0  501  502  0.00000000000E+00  0.00000000000E+00  0.20403794200E+04  0.20403794200E+04  0.00000000000E+00 0. -1.
         21   -1    0    0  502  503 -0.00000000000E+00 -0.00000000000E+00 -0.16227513058E+03  0.16227513058E+03  0.00000000000E+00 0.  1.
    9000007    2    1    2  501    0 -0.58420744611E+02  0.15095370206E+03  0.16681997061E+04  0.17228004711E+04  0.39868684446E+03 0.  0.
    9000005    1    3    3    0    0 -0.18495070349E+03  0.18158786656E+03  0.14101301870E+04  0.14337534865E+04  0.99999687468E+00 0.  0.
          4    1    3    3  501    0  0.12652995888E+03 -0.30634164502E+02  0.25806951918E+03  0.28904698452E+03  0.00000000000E+00 0.  1.
   -9000007    1    1    2    0  503  0.58420744611E+02 -0.15095370206E+03  0.20990458330E+03  0.47985407955E+03  0.40000000000E+03 0.  1.
<mgrwt>
<rscale>  2 0.43120442E+03</rscale>
<asrwt>0</asrwt>
<pdfrwt beam="1">  1       21 0.31390451E+00 0.43150898E+03</pdfrwt>
<pdfrwt beam="2">  1       21 0.24965406E-01 0.43150898E+03</pdfrwt>
<totfact> 0.34344676E+02</totfact>
</mgrwt>
</event>
<event>
 6    1  0.9163926E-004  0.4277832E+03  0.7818608E-02  0.1034563E+00
         21   -1    0    0  501  502  0.00000000000E+00  0.00000000000E+00  0.29401788104E+03  0.29401788104E+03  0.00000000000E+00 0.  1.
         21   -1    0    0  502  503 -0.00000000000E+00 -0.00000000000E+00 -0.74586657482E+03  0.74586657482E+03  0.00000000000E+00 0.  1.
    9000007    2    1    2  501    0 -0.37090838339E+02  0.14702475086E+03 -0.14378327808E+02  0.42802472621E+03  0.40000802777E+03 0.  0.
    9000005    1    3    3    0    0 -0.14695262201E+03  0.22043382403E+03 -0.84967438918E+02  0.27822043340E+03  0.99999687468E+00 0.  0.
          4    1    3    3  501    0  0.10986178367E+03 -0.73409073168E+02  0.70589111110E+02  0.14980429281E+03  0.00000000000E+00 0.  1.
   -9000007    1    1    2    0  503  0.37090838339E+02 -0.14702475086E+03 -0.43747036597E+03  0.61185972964E+03  0.40000000000E+03 0.  1.
<mgrwt>
<rscale>  2 0.42778128E+03</rscale>
<asrwt>0</asrwt>
<pdfrwt beam="1">  1       21 0.45233521E-01 0.42778316E+03</pdfrwt>
<pdfrwt beam="2">  1       21 0.11474870E+00 0.42778316E+03</pdfrwt>
<totfact> 0.24083528E+03</totfact>
</mgrwt>
</event>
<event>
 6    1  0.9163926E-004  0.5076791E+03  0.7818608E-02  0.1011861E+00
         21   -1    0    0  501  502  0.00000000000E+00  0.00000000000E+00  0.59056636190E+03  0.59056636190E+03  0.00000000000E+00 0. -1.
         21   -1    0    0  502  503 -0.00000000000E+00 -0.00000000000E+00 -0.63068649996E+03  0.63068649996E+03  0.00000000000E+00 0.  1.
    9000007    2    1    2  501    0  0.21339577773E+03 -0.22847387327E+03  0.31963522273E+03  0.59902943870E+03  0.39866216788E+03 0.  0.
    9000005    1    3    3    0    0  0.16988698218E+03 -0.18057544554E+03  0.41521521943E+03  0.48360495933E+03  0.99999687468E+00 0.  0.
          4    1    3    3  501    0  0.43508795553E+02 -0.47898427726E+02 -0.95579996699E+02  0.11542447937E+03  0.00000000000E+00 0.  1.
   -9000007    1    1    2    0  503 -0.21339577773E+03  0.22847387327E+03 -0.35975536079E+03  0.62222342317E+03  0.40000000000E+03 0.  1.
<mgrwt>
<rscale>  2 0.50741554E+03</rscale>
<asrwt>0</asrwt>
<pdfrwt beam="1">  1       21 0.90856364E-01 0.50767910E+03</pdfrwt>
<pdfrwt beam="2">  1       21 0.97028692E-01 0.50767910E+03</pdfrwt>
<totfact> 0.74823715E+02</totfact>
</mgrwt>
</event>
<event>
 6    1  0.9163926E-004  0.4826626E+03  0.7818608E-02  0.1018417E+00
         21   -1    0    0  501  502  0.00000000000E+00  0.00000000000E+00  0.20000155063E+04  0.20000155063E+04  0.00000000000E+00 0. -1.
         21   -1    0    0  502  503 -0.00000000000E+00 -0.00000000000E+00 -0.21879241125E+03  0.21879241125E+03  0.00000000000E+00 0. -1.
    9000007    2    1    2  501    0 -0.16059832107E+03  0.21684540409E+03  0.16494670147E+04  0.17186345329E+04  0.40018680013E+03 0.  0.
    9000005    1    3    3    0    0  0.40742533122E+02 -0.99380631904E+02  0.34014851330E+03  0.35670502533E+03  0.99999687468E+00 0.  0.
          4    1    3    3  501    0 -0.20134085420E+03  0.31622603599E+03  0.13093185014E+04  0.13619295075E+04  0.00000000000E+00 0.  1.
   -9000007    1    1    2    0  503  0.16059832107E+03 -0.21684540409E+03  0.13175608031E+03  0.50017338464E+03  0.40000000000E+03 0. -1.
<mgrwt>
<rscale>  2 0.48262392E+03</rscale>
<asrwt>0</asrwt>
<pdfrwt beam="1">  1       21 0.30769468E+00 0.48266264E+03</pdfrwt>
<pdfrwt beam="2">  1       21 0.33660372E-01 0.48266264E+03</pdfrwt>
<totfact> 0.20090520E+02</totfact>
</mgrwt>
</event>
<event>
 6    1  0.9163926E-004  0.4627906E+03  0.7818608E-02  0.1023984E+00
         21   -1    0    0  501  502  0.00000000000E+00  0.00000000000E+00  0.22925896114E+03  0.22925896114E+03  0.00000000000E+00 0. -1.
         21   -1    0    0  502  503 -0.00000000000E+00 -0.00000000000E+00 -0.94068203044E+03  0.94068203044E+03  0.00000000000E+00 0. -1.
    9000007    2    1    2  501    0  0.19261946116E+03  0.13020859497E+03 -0.40525577114E+03  0.61514828301E+03  0.40014826631E+03 0.  0.
    9000005    1    3    3    0    0  0.22356343868E+03  0.23688596819E+03 -0.38136469401E+03  0.50153325201E+03  0.99999687468E+00 0.  0.
          4    1    3    3  501    0 -0.30943977528E+02 -0.10667737322E+03 -0.23891077134E+02  0.11361503100E+03  0.00000000000E+00 0.  1.
   -9000007    1    1    2    0  503 -0.19261946116E+03 -0.13020859497E+03 -0.30616729817E+03  0.55479270857E+03  0.40000000000E+03 0. -1.
<mgrwt>
<rscale>  2 0.46275858E+03</rscale>
<asrwt>0</asrwt>
<pdfrwt beam="1">  1       21 0.35270610E-01 0.46279063E+03</pdfrwt>
<pdfrwt beam="2">  1       21 0.14472031E+00 0.46279063E+03</pdfrwt>
<totfact> 0.21736991E+03</totfact>
</mgrwt>
</event>
<event>
 6    1  0.9163926E-004  0.4300858E+03  0.7818608E-02  0.1033837E+00
         21   -1    0    0  501  502  0.00000000000E+00  0.00000000000E+00  0.70045601965E+03  0.70045601965E+03  0.00000000000E+00 0.  1.
         21   -1    0    0  502  503 -0.00000000000E+00 -0.00000000000E+00 -0.62043422843E+03  0.62043422843E+03  0.00000000000E+00 0.  1.
    9000007    2    1    2  501    0  0.93247356904E+02  0.12758812685E+03  0.54056674432E+03  0.69075101465E+03  0.39993844463E+03 0.  0.
    9000005    1    3    3    0    0  0.14666851100E+03 -0.87042292111E+02  0.99814746468E+02  0.19761577959E+03  0.99999687468E+00 0.  0.
          4    1    3    3  501    0 -0.53421154100E+02  0.21463041896E+03  0.44075199785E+03  0.49313523506E+03  0.00000000000E+00 0.  1.
   -9000007    1    1    2    0  503 -0.93247356904E+02 -0.12758812685E+03 -0.46054495310E+03  0.63013923343E+03  0.40000000000E+03 0.  1.
<mgrwt>
<rscale>  2 0.43007149E+03</rscale>
<asrwt>0</asrwt>
<pdfrwt beam="1">  1       21 0.10776246E+00 0.43008581E+03</pdfrwt>
<pdfrwt beam="2">  1       21 0.95451420E-01 0.43008581E+03</pdfrwt>
<totfact> 0.53158068E+02</totfact>
</mgrwt>
</event>
<event>
 6    1  0.9163926E-004  0.4694662E+03  0.7818608E-02  0.1022085E+00
         21   -1    0    0  501  502  0.00000000000E+00  0.00000000000E+00  0.23394800237E+03  0.23394800237E+03  0.00000000000E+00 0. -1.
         21   -1    0    0  502  503 -0.00000000000E+00 -0.00000000000E+00 -0.10735156533E+04  0.10735156533E+04  0.00000000000E+00 0. -1.
    9000007    2    1    2  501    0 -0.14356269947E+03  0.19946993885E+03 -0.19061720075E+03  0.50650473539E+03  0.39976696282E+03 0.  0.
    9000005    1    3    3    0    0  0.13597660736E+03  0.11234394390E+03 -0.67137748255E+02  0.18873069892E+03  0.99999687468E+00 0.  0.
          4    1    3    3  501    0 -0.27953930683E+03  0.87125994944E+02 -0.12347945250E+03  0.31777403646E+03  0.00000000000E+00 0.  1.
   -9000007    1    1    2    0  503  0.14356269947E+03 -0.19946993885E+03 -0.64895045013E+03  0.80095892024E+03  0.40000000000E+03 0. -1.
<mgrwt>
<rscale>  2 0.46941655E+03</rscale>
<asrwt>0</asrwt>
<pdfrwt beam="1">  1       21 0.35992001E-01 0.46946619E+03</pdfrwt>
<pdfrwt beam="2">  1       21 0.16515625E+00 0.46946619E+03</pdfrwt>
<totfact> 0.14465246E+03</totfact>
</mgrwt>
</event>
<event>
 6    1  0.9163926E-004  0.4082190E+03  0.7818608E-02  0.1040980E+00
         21   -1    0    0  501  502  0.00000000000E+00  0.00000000000E+00  0.10054220738E+04  0.10054220738E+04  0.00000000000E+00 0. -1.
         21   -1    0    0  502  503 -0.00000000000E+00 -0.00000000000E+00 -0.23398290553E+03  0.23398290553E+03  0.00000000000E+00 0. -1.
    9000007    2    1    2  501    0 -0.40688056680E+02  0.69958223892E+02  0.72053368194E+03  0.82813737836E+03  0.40011630756E+03 0.  0.
    9000005    1    3    3    0    0  0.85329280186E+02  0.11353239009E+03  0.67104670417E+03  0.68591207077E+03  0.99999687468E+00 0.  0.
          4    1    3    3  501    0 -0.12601733687E+03 -0.43574166195E+02  0.49486977772E+02  0.14222530759E+03  0.00000000000E+00 0.  1.
   -9000007    1    1    2    0  503  0.40688056680E+02 -0.69958223892E+02  0.50905486302E+02  0.41126760094E+03  0.40000000000E+03 0. -1.
<mgrwt>
<rscale>  2 0.40819047E+03</rscale>
<asrwt>0</asrwt>
<pdfrwt beam="1">  1       21 0.15468032E+00 0.40821897E+03</pdfrwt>
<pdfrwt beam="2">  1       21 0.35997371E-01 0.40821897E+03</pdfrwt>
<totfact> 0.17808597E+03</totfact>
</mgrwt>
</event>
<event>
 6    1  0.9163926E-004  0.4644632E+03  0.7818608E-02  0.1023531E+00
         21   -1    0    0  501  502  0.00000000000E+00  0.00000000000E+00  0.90581194993E+03  0.90581194993E+03  0.00000000000E+00 0. -1.
         21   -1    0    0  502  503 -0.00000000000E+00 -0.00000000000E+00 -0.31262649851E+03  0.31262649851E+03  0.00000000000E+00 0. -1.
    9000007    2    1    2  501    0 -0.23406732917E+03 -0.21680715755E+02  0.59456764910E+03  0.75447780518E+03  0.40058519834E+03 0.  0.
    9000005    1    3    3    0    0 -0.22047795468E+03 -0.90761328844E+02  0.63147299557E+03  0.67498688242E+03  0.99999687468E+00 0.  0.
          4    1    3    3  501    0 -0.13589374491E+02  0.69080613089E+02 -0.36905346465E+02  0.79490922762E+02  0.00000000000E+00 0.  1.
   -9000007    1    1    2    0  503  0.23406732917E+03  0.21680715755E+02 -0.13821976816E+01  0.46396064326E+03  0.40000000000E+03 0. -1.
<mgrwt>
<rscale>  2 0.46433700E+03</rscale>
<asrwt>0</asrwt>
<pdfrwt beam="1">  1       21 0.13935568E+00 0.46446321E+03</pdfrwt>
<pdfrwt beam="2">  1       21 0.48096385E-01 0.46446321E+03</pdfrwt>
<totfact> 0.12645208E+03</totfact>
</mgrwt>
</event>
<event>
 6    1  0.9163926E-004  0.6320542E+03  0.7818608E-02  0.9841055E-01
         21   -1    0    0  501  502  0.00000000000E+00  0.00000000000E+00  0.11488510444E+04  0.11488510444E+04  0.00000000000E+00 0. -1.
         21   -1    0    0  502  503 -0.00000000000E+00 -0.00000000000E+00 -0.55527422631E+03  0.55527422631E+03  0.00000000000E+00 0.  1.
    9000007    2    1    2  501    0  0.16535862151E+02  0.48908228577E+03  0.81771977938E+03  0.10335173494E+04  0.40002194559E+03 0.  0.
    9000005    1    3    3    0    0 -0.30066180587E+02  0.54068892957E+03  0.79188490534E+03  0.95933893754E+03  0.99999687468E+00 0.  0.
          4    1    3    3  501    0  0.46602042738E+02 -0.51606643798E+02  0.25834874037E+02  0.74178411873E+02  0.00000000000E+00 0.  1.
   -9000007    1    1    2    0  503 -0.16535862151E+02 -0.48908228577E+03 -0.22414296130E+03  0.67060792129E+03  0.40000000000E+03 0.  1.
<mgrwt>
<rscale>  2 0.63205070E+03</rscale>
<asrwt>0</asrwt>
<pdfrwt beam="1">  1       21 0.17674631E+00 0.63205417E+03</pdfrwt>
<pdfrwt beam="2">  1       21 0.85426805E-01 0.63205417E+03</pdfrwt>
<totfact> 0.16991750E+02</totfact>
</mgrwt>
</event>
<event>
 6    1  0.9163926E-004  0.4015175E+03  0.7818608E-02  0.1043372E+00
         21   -1    0    0  501  502  0.00000000000E+00  0.00000000000E+00  0.13274057064E+04  0.13274057064E+04  0.00000000000E+00 0.  1.
         21   -1    0    0  502  503 -0.00000000000E+00 -0.00000000000E+00 -0.12330469708E+03  0.12330469708E+03  0.00000000000E+00 0.  1.
    9000007    2    1    2  501    0  0.10853080895E+02 -0.44359966695E+01  0.70122678085E+03  0.80804411597E+03  0.40134626912E+03 0.  0.
    9000005    1    3    3    0    0  0.70244838754E+02 -0.18902539103E+03  0.28799208322E+03  0.35157556203E+03  0.99999687468E+00 0.  0.
          4    1    3    3  501    0 -0.59391757860E+02  0.18458939436E+03  0.41323469763E+03  0.45646855394E+03  0.00000000000E+00 0.  1.
   -9000007    1    1    2    0  503 -0.10853080895E+02  0.44359966695E+01  0.50287422845E+03  0.64266628749E+03  0.40000000000E+03 0.  1.
<mgrwt>
<rscale>  2 0.40118064E+03</rscale>
<asrwt>0</asrwt>
<pdfrwt beam="1">  1       21 0.20421625E+00 0.40151749E+03</pdfrwt>
<pdfrwt beam="2">  1       21 0.18969954E-01 0.40151749E+03</pdfrwt>
<totfact> 0.27896290E+03</totfact>
</mgrwt>
</event>
<event>
 6    1  0.9163926E-004  0.5192576E+03  0.7818608E-02  0.1008994E+00
         21   -1    0    0  501  502  0.00000000000E+00  0.00000000000E+00  0.23048428017E+03  0.23048428017E+03  0.00000000000E+00 0.  1.
         21   -1    0    0  502  503 -0.00000000000E+00 -0.00000000000E+00 -0.22590931895E+04  0.22590931895E+04  0.00000000000E+00 0.  1.
    9000007    2    1    2  501    0 -0.26840599550E+03 -0.18854055455E+03 -0.14918440261E+03  0.54026328370E+03  0.40254081855E+03 0.  0.
    9000005    1    3    3    0    0 -0.80944432263E+02  0.89645677869E+02 -0.16494266672E+03  0.20443931123E+03  0.99999687468E+00 0.  0.
          4    1    3    3  501    0 -0.18746156324E+03 -0.27818623242E+03  0.15758264117E+02  0.33582397247E+03  0.00000000000E+00 0.  1.
   -9000007    1    1    2    0  503  0.26840599550E+03  0.18854055455E+03 -0.18794245067E+04  0.19493141859E+04  0.40000000000E+03 0.  1.
<mgrwt>
<rscale>  2 0.51876507E+03</rscale>
<asrwt>0</asrwt>
<pdfrwt beam="1">  1       21 0.35459120E-01 0.51925758E+03</pdfrwt>
<pdfrwt beam="2">  1       21 0.34755280E+00 0.51925758E+03</pdfrwt>
<totfact> 0.10126229E+02</totfact>
</mgrwt>
</event>
<event>
 6    1  0.9163926E-004  0.4011483E+03  0.7818608E-02  0.1043385E+00
         21   -1    0    0  501  502  0.00000000000E+00  0.00000000000E+00  0.22930731106E+03  0.22930731106E+03  0.00000000000E+00 0. -1.
         21   -1    0    0  502  503 -0.00000000000E+00 -0.00000000000E+00 -0.74736262002E+03  0.74736262002E+03  0.00000000000E+00 0. -1.
    9000007    2    1    2  501    0  0.44451949652E+00  0.30327233202E+02 -0.37969168967E+03  0.55232993789E+03  0.39997830243E+03 0.  0.
    9000005    1    3    3    0    0 -0.66931002186E+02  0.16957155454E+03 -0.51389272853E+02  0.18940994832E+03  0.99999687468E+00 0.  0.
          4    1    3    3  501    0  0.67375521683E+02 -0.13924432134E+03 -0.32830241681E+03  0.36291998957E+03  0.00000000000E+00 0.  1.
   -9000007    1    1    2    0  503 -0.44451949652E+00 -0.30327233202E+02 -0.13836361929E+03  0.42433999318E+03  0.40000000000E+03 0. -1.
<mgrwt>
<rscale>  2 0.40114287E+03</rscale>
<asrwt>0</asrwt>
<pdfrwt beam="1">  1       21 0.35278048E-01 0.40114828E+03</pdfrwt>
<pdfrwt beam="2">  1       21 0.11497886E+00 0.40114828E+03</pdfrwt>
<totfact> 0.40373861E+03</totfact>
</mgrwt>
</event>
<event>
 6    1  0.9163926E-004  0.4291431E+03  0.7818608E-02  0.1034209E+00
         21   -1    0    0  501  502  0.00000000000E+00  0.00000000000E+00  0.71636115411E+03  0.71636115411E+03  0.00000000000E+00 0.  1.
         21   -1    0    0  502  503 -0.00000000000E+00 -0.00000000000E+00 -0.35736747678E+03  0.35736747678E+03  0.00000000000E+00 0.  1.
    9000007    2    1    2  501    0  0.14641812367E+03  0.43367404790E+02  0.46487731945E+03  0.63267268840E+03  0.40105462193E+03 0.  0.
    9000005    1    3    3    0    0 -0.13538547439E+03 -0.28338212515E+02  0.15373219953E+03  0.20680152352E+03  0.99999687468E+00 0.  0.
          4    1    3    3  501    0  0.28180359805E+03  0.71705617305E+02  0.31114511992E+03  0.42587116488E+03  0.00000000000E+00 0.  1.
   -9000007    1    1    2    0  503 -0.14641812367E+03 -0.43367404790E+02 -0.10588364213E+03  0.44105594249E+03  0.40000000000E+03 0.  1.
<mgrwt>
<rscale>  2 0.42889654E+03</rscale>
<asrwt>0</asrwt>
<pdfrwt beam="1">  1       21 0.11020941E+00 0.42914311E+03</pdfrwt>
<pdfrwt beam="2">  1       21 0.54979612E-01 0.42914311E+03</pdfrwt>
<totfact> 0.17581661E+03</totfact>
</mgrwt>
</event>
<event>
 6    1  0.9163926E-004  0.6421373E+03  0.7818608E-02  0.9821756E-01
         21   -1    0    0  501  502  0.00000000000E+00  0.00000000000E+00  0.15324734216E+04  0.15324734216E+04  0.00000000000E+00 0.  1.
         21   -1    0    0  502  503 -0.00000000000E+00 -0.00000000000E+00 -0.32317726737E+03  0.32317726737E+03  0.00000000000E+00 0. -1.
    9000007    2    1    2  501    0  0.39290812404E+03  0.31251752762E+03  0.98472433008E+03  0.11755944389E+04  0.40037017812E+03 0.  0.
    9000005    1    3    3    0    0  0.16060695511E+03 -0.80145169461E+02  0.20753922637E+03  0.27439273440E+03  0.99999687468E+00 0.  0.
          4    1    3    3  501    0  0.23230116893E+03  0.39266269708E+03  0.77718510371E+03  0.90120170450E+03  0.00000000000E+00 0.  1.
   -9000007    1    1    2    0  503 -0.39290812404E+03 -0.31251752762E+03  0.22457182410E+03  0.68005625002E+03  0.40000000000E+03 0. -1.
<mgrwt>
<rscale>  2 0.64207958E+03</rscale>
<asrwt>0</asrwt>
<pdfrwt beam="1">  1       21 0.23576514E+00 0.64213727E+03</pdfrwt>
<pdfrwt beam="2">  1       21 0.49719580E-01 0.64213727E+03</pdfrwt>
<totfact> 0.22930922E+02</totfact>
</mgrwt>
</event>
<event>
 6    1  0.9163926E-004  0.5478653E+03  0.7818608E-02  0.1001996E+00
         21   -1    0    0  501  502  0.00000000000E+00  0.00000000000E+00  0.32802196807E+03  0.32802196807E+03  0.00000000000E+00 0. -1.
         21   -1    0    0  502  503 -0.00000000000E+00 -0.00000000000E+00 -0.14466853211E+04  0.14466853211E+04  0.00000000000E+00 0.  1.
    9000007    2    1    2  501    0  0.27473367621E+03 -0.25431835544E+03 -0.21280493117E+02  0.54816517412E+03  0.39984469481E+03 0.  0.
    9000005    1    3    3    0    0  0.35670292004E+03 -0.13233026425E+03  0.51901976626E+02  0.38398318606E+03  0.99999687468E+00 0.  0.
          4    1    3    3  501    0 -0.81969243831E+02 -0.12198809119E+03 -0.73182469742E+02  0.16418198806E+03  0.00000000000E+00 0.  1.
   -9000007    1    1    2    0  503 -0.27473367621E+03  0.25431835544E+03 -0.10973828599E+04  0.12265421150E+04  0.40000000000E+03 0.  1.
<mgrwt>
<rscale>  2 0.54783698E+03</rscale>
<asrwt>0</asrwt>
<pdfrwt beam="1">  1       21 0.50464918E-01 0.54786533E+03</pdfrwt>
<pdfrwt beam="2">  1       21 0.22256698E+00 0.54786533E+03</pdfrwt>
<totfact> 0.28004604E+02</totfact>
</mgrwt>
</event>
<event>
 6    1  0.9163926E-004  0.4270397E+03  0.7818608E-02  0.1034898E+00
         21   -1    0    0  501  502  0.00000000000E+00  0.00000000000E+00  0.81313795491E+03  0.81313795491E+03  0.00000000000E+00 0.  1.
         21   -1    0    0  502  503 -0.00000000000E+00 -0.00000000000E+00 -0.34799560919E+03  0.34799560919E+03  0.00000000000E+00 0.  1.
    9000007    2    1    2  501    0 -0.11486867480E+03  0.90077709442E+02  0.57986748825E+03  0.72014528248E+03  0.40131548407E+03 0.  0.
    9000005    1    3    3    0    0  0.28128278547E+02  0.21284306896E+03  0.18825460406E+03  0.28554188485E+03  0.99999687468E+00 0.  0.
          4    1    3    3  501    0 -0.14299695335E+03 -0.12276535952E+03  0.39161288420E+03  0.43460339763E+03  0.00000000000E+00 0.  1.
   -9000007    1    1    2    0  503  0.11486867480E+03 -0.90077709442E+02 -0.11472514254E+03  0.44098828161E+03  0.40000000000E+03 0.  1.
<mgrwt>
<rscale>  2 0.42673038E+03</rscale>
<asrwt>0</asrwt>
<pdfrwt beam="1">  1       21 0.12509815E+00 0.42703972E+03</pdfrwt>
<pdfrwt beam="2">  1       21 0.53537786E-01 0.42703972E+03</pdfrwt>
<totfact> 0.13539656E+03</totfact>
</mgrwt>
</event>
<event>
 6    1  0.9163926E-004  0.4318240E+03  0.7818608E-02  0.1033315E+00
         21   -1    0    0  501  502  0.00000000000E+00  0.00000000000E+00  0.17380878650E+03  0.17380878650E+03  0.00000000000E+00 0.  1.
         21   -1    0    0  502  503 -0.00000000000E+00 -0.00000000000E+00 -0.10726407092E+04  0.10726407092E+04  0.00000000000E+00 0.  1.
    9000007    2    1    2  501    0 -0.10058441104E+03 -0.12788581530E+03 -0.46555881735E+03  0.63473257641E+03  0.39958531711E+03 0.  0.
    9000005    1    3    3    0    0 -0.22854712979E+03 -0.11728130491E+03 -0.43102364632E+03  0.50176795304E+03  0.99999687468E+00 0.  0.
          4    1    3    3  501    0  0.12796271875E+03 -0.10604510389E+02 -0.34535171022E+02  0.13296462337E+03  0.00000000000E+00 0.  1.
   -9000007    1    1    2    0  503  0.10058441104E+03  0.12788581530E+03 -0.43327310531E+03  0.61171691924E+03  0.40000000000E+03 0. -1.
<mgrwt>
<rscale>  2 0.43172799E+03</rscale>
<asrwt>0</asrwt>
<pdfrwt beam="1">  1       21 0.26739813E-01 0.43182404E+03</pdfrwt>
<pdfrwt beam="2">  1       21 0.16502165E+00 0.43182404E+03</pdfrwt>
<totfact> 0.26632586E+03</totfact>
</mgrwt>
</event>
<event>
 6    1  0.9163926E-004  0.4090784E+03  0.7818608E-02  0.1040715E+00
         21   -1    0    0  501  502  0.00000000000E+00  0.00000000000E+00  0.45648076430E+03  0.45648076430E+03  0.00000000000E+00 0. -1.
         21   -1    0    0  502  503 -0.00000000000E+00 -0.00000000000E+00 -0.14445156887E+04  0.14445156887E+04  0.00000000000E+00 0. -1.
    9000007    2    1    2  501    0 -0.14833237596E+02  0.84410333639E+02  0.32725871023E+03  0.52355590087E+03  0.39958401939E+03 0.  0.
    9000005    1    3    3    0    0 -0.18079354236E+03  0.13749061143E+03  0.13560975548E+03  0.26453918229E+03  0.99999687468E+00 0.  0.
          4    1    3    3  501    0  0.16596030476E+03 -0.53080277795E+02  0.19164895475E+03  0.25901671858E+03  0.00000000000E+00 0.  1.
   -9000007    1    1    2    0  503  0.14833237596E+02 -0.84410333639E+02 -0.13152936346E+04  0.13774405521E+04  0.40000000000E+03 0. -1.
<mgrwt>
<rscale>  2 0.40897667E+03</rscale>
<asrwt>0</asrwt>
<pdfrwt beam="1">  1       21 0.70227810E-01 0.40907839E+03</pdfrwt>
<pdfrwt beam="2">  1       21 0.22223318E+00 0.40907839E+03</pdfrwt>
<totfact> 0.14657957E+02</totfact>
</mgrwt>
</event>
<event>
 6    1  0.9163926E-004  0.5133190E+03  0.7818608E-02  0.1010409E+00
         21   -1    0    0  501  502  0.00000000000E+00  0.00000000000E+00  0.16868647214E+04  0.16868647214E+04  0.00000000000E+00 0. -1.
         21   -1    0    0  502  503 -0.00000000000E+00 -0.00000000000E+00 -0.22422316334E+03  0.22422316334E+03  0.00000000000E+00 0. -1.
    9000007    2    1    2  501    0  0.30270709614E+03  0.10521458165E+03  0.12589036481E+04  0.13595347774E+04  0.40099217141E+03 0.  0.
    9000005    1    3    3    0    0  0.29220190433E+03  0.11161218020E+03  0.43630805745E+03  0.53684723400E+03  0.99999687468E+00 0.  0.
          4    1    3    3  501    0  0.10505191803E+02 -0.63975985467E+01  0.82259559062E+03  0.82268754338E+03  0.00000000000E+00 0.  1.
   -9000007    1    1    2    0  503 -0.30270709614E+03 -0.10521458165E+03  0.20373790996E+03  0.55155310732E+03  0.40000000000E+03 0. -1.
<mgrwt>
<rscale>  2 0.51312524E+03</rscale>
<asrwt>0</asrwt>
<pdfrwt beam="1">  1       21 0.25951764E+00 0.51331902E+03</pdfrwt>
<pdfrwt beam="2">  1       21 0.34495872E-01 0.51331902E+03</pdfrwt>
<totfact> 0.36859013E+02</totfact>
</mgrwt>
</event>
<event>
 6    1  0.9163926E-004  0.4206089E+03  0.7818608E-02  0.1036933E+00
         21   -1    0    0  501  502  0.00000000000E+00  0.00000000000E+00  0.30652766375E+03  0.30652766375E+03  0.00000000000E+00 0. -1.
         21   -1    0    0  502  503 -0.00000000000E+00 -0.00000000000E+00 -0.57814237110E+03  0.57814237110E+03  0.00000000000E+00 0.  1.
    9000007    2    1    2  501    0  0.12016327753E+03  0.42510724430E+02 -0.10940139454E+03  0.43460389104E+03  0.40083101430E+03 0.  0.
    9000005    1    3    3    0    0 -0.47735723847E+02 -0.11357554748E+03  0.71617358453E+02  0.14250666771E+03  0.99999687468E+00 0.  0.
          4    1    3    3  501    0  0.16789900137E+03  0.15608627191E+03 -0.18101875300E+03  0.29209722333E+03  0.00000000000E+00 0.  1.
   -9000007    1    1    2    0  503 -0.12016327753E+03 -0.42510724430E+02 -0.16221331281E+03  0.45006614382E+03  0.40000000000E+03 0. -1.
<mgrwt>
<rscale>  2 0.42041083E+03</rscale>
<asrwt>0</asrwt>
<pdfrwt beam="1">  1       21 0.47158103E-01 0.42060894E+03</pdfrwt>
<pdfrwt beam="2">  1       21 0.88944979E-01 0.42060894E+03</pdfrwt>
<totfact> 0.41094179E+03</totfact>
</mgrwt>
</event>
<event>
 6    1  0.9163926E-004  0.4635582E+03  0.7818608E-02  0.1023765E+00
         21   -1    0    0  501  502  0.00000000000E+00  0.00000000000E+00  0.31700336446E+03  0.31700336446E+03  0.00000000000E+00 0.  1.
         21   -1    0    0  502  503 -0.00000000000E+00 -0.00000000000E+00 -0.68029162176E+03  0.68029162176E+03  0.00000000000E+00 0.  1.
    9000007    2    1    2  501    0  0.22872639973E+03  0.50699430233E+02 -0.15052265004E+03  0.48724067363E+03  0.39982522145E+03 0.  0.
    9000005    1    3    3    0    0  0.14723766930E+03 -0.85182087138E+02 -0.24835671453E+03  0.30102653849E+03  0.99999687468E+00 0.  0.
          4    1    3    3  501    0  0.81488730427E+02  0.13588151737E+03  0.97834064491E+02  0.18621413514E+03  0.00000000000E+00 0.  1.
   -9000007    1    1    2    0  503 -0.22872639973E+03 -0.50699430233E+02 -0.21276560726E+03  0.51005431259E+03  0.40000000000E+03 0.  1.
<mgrwt>
<rscale>  2 0.46352049E+03</rscale>
<asrwt>0</asrwt>
<pdfrwt beam="1">  1       21 0.48769749E-01 0.46355819E+03</pdfrwt>
<pdfrwt beam="2">  1       21 0.10466025E+00 0.46355819E+03</pdfrwt>
<totfact> 0.25474662E+03</totfact>
</mgrwt>
</event>
<event>
 6    1  0.9163926E-004  0.5604967E+03  0.7818608E-02  0.9991351E-01
         21   -1    0    0  501  502  0.00000000000E+00  0.00000000000E+00  0.31934303186E+03  0.31934303186E+03  0.00000000000E+00 0.  1.
         21   -1    0    0  502  503 -0.00000000000E+00 -0.00000000000E+00 -0.14803697640E+04  0.14803697640E+04  0.00000000000E+00 0. -1.
    9000007    2    1    2  501    0  0.50467964657E+02  0.38830305451E+03 -0.11026403010E+04  0.12369204248E+04  0.40103644024E+03 0.  0.
    9000005    1    3    3    0    0  0.21896298279E+03  0.28994930239E+03 -0.66571545027E+03  0.75841508853E+03  0.99999687468E+00 0.  0.
          4    1    3    3  501    0 -0.16849501814E+03  0.98353752121E+02 -0.43692485069E+03  0.47850533627E+03  0.00000000000E+00 0.  1.
   -9000007    1    1    2    0  503 -0.50467964657E+02 -0.38830305451E+03 -0.58386431194E+02  0.56279237108E+03  0.40000000000E+03 0.  1.
<mgrwt>
<rscale>  2 0.56031129E+03</rscale>
<asrwt>0</asrwt>
<pdfrwt beam="1">  1       21 0.49129696E-01 0.56049666E+03</pdfrwt>
<pdfrwt beam="2">  1       21 0.22774920E+00 0.56049666E+03</pdfrwt>
<totfact> 0.27327992E+02</totfact>
</mgrwt>
</event>
<event>
 6    1  0.9163926E-004  0.5011435E+03  0.7818608E-02  0.1013587E+00
         21   -1    0    0  501  502  0.00000000000E+00  0.00000000000E+00  0.10098661918E+04  0.10098661918E+04  0.00000000000E+00 0.  1.
         21   -1    0    0  502  503 -0.00000000000E+00 -0.00000000000E+00 -0.92130059669E+03  0.92130059669E+03  0.00000000000E+00 0.  1.
    9000007    2    1    2  501    0  0.47133048656E+02  0.29820015506E+03  0.86979139370E+03  0.10030188448E+04  0.39795084845E+03 0.  0.
    9000005    1    3    3    0    0  0.10815668848E+03  0.12443987939E+03  0.64674111248E+02  0.17710701145E+03  0.99999687468E+00 0.  0.
          4    1    3    3  501    0 -0.61023639823E+02  0.17376027567E+03  0.80511728245E+03  0.82591183339E+03  0.00000000000E+00 0.  1.
   -9000007    1    1    2    0  503 -0.47133048656E+02 -0.29820015506E+03 -0.78122579864E+03  0.92814794361E+03  0.40000000000E+03 0.  1.
<mgrwt>
<rscale>  2 0.50073453E+03</rscale>
<asrwt>0</asrwt>
<pdfrwt beam="1">  1       21 0.15536403E+00 0.50114355E+03</pdfrwt>
<pdfrwt beam="2">  1       21 0.14173855E+00 0.50114355E+03</pdfrwt>
<totfact> 0.72984574E+01</totfact>
</mgrwt>
</event>
<event>
 6    1  0.9163926E-004  0.4570825E+03  0.7818608E-02  0.1025635E+00
         21   -1    0    0  501  502  0.00000000000E+00  0.00000000000E+00  0.37628711634E+03  0.37628711634E+03  0.00000000000E+00 0.  1.
         21   -1    0    0  502  503 -0.00000000000E+00 -0.00000000000E+00 -0.59511236836E+03  0.59511236836E+03  0.00000000000E+00 0.  1.
    9000007    2    1    2  501    0  0.22005893377E+03 -0.21157816403E+02 -0.23526716766E+03  0.51407692445E+03  0.40006356563E+03 0.  0.
    9000005    1    3    3    0    0  0.25724992234E+03  0.12159274036E+03 -0.70939810151E+02  0.29325036012E+03  0.99999687468E+00 0.  0.
          4    1    3    3  501    0 -0.37190988572E+02 -0.14275055676E+03 -0.16432735751E+03  0.22082656433E+03  0.00000000000E+00 0.  1.
   -9000007    1    1    2    0  503 -0.22005893377E+03  0.21157816403E+02  0.16441915639E+02  0.45732256025E+03  0.40000000000E+03 0.  1.
<mgrwt>
<rscale>  2 0.45706863E+03</rscale>
<asrwt>0</asrwt>
<pdfrwt beam="1">  1       21 0.57890326E-01 0.45708254E+03</pdfrwt>
<pdfrwt beam="2">  1       21 0.91555749E-01 0.45708254E+03</pdfrwt>
<totfact> 0.24414886E+03</totfact>
</mgrwt>
</event>
<event>
 6    1  0.9163926E-004  0.8170244E+03  0.7818608E-02  0.9536096E-01
         21   -1    0    0  501  502  0.00000000000E+00  0.00000000000E+00  0.75534298672E+03  0.75534298672E+03  0.00000000000E+00 0. -1.
         21   -1    0    0  502  503 -0.00000000000E+00 -0.00000000000E+00 -0.94539042529E+03  0.94539042529E+03  0.00000000000E+00 0.  1.
    9000007    2    1    2  501    0 -0.71070328399E+03  0.49292608104E+02  0.12433427203E+03  0.82531078319E+03  0.39768072440E+03 0.  0.
    9000005    1    3    3    0    0 -0.19253241224E+03  0.22670396669E+02  0.22476982818E+03  0.29682512074E+03  0.99999687468E+00 0.  0.
          4    1    3    3  501    0 -0.51817087175E+03  0.26622211435E+02 -0.10043555615E+03  0.52848566245E+03  0.00000000000E+00 0.  1.
   -9000007    1    1    2    0  503  0.71070328399E+03 -0.49292608104E+02 -0.31438171060E+03  0.87542262882E+03  0.40000000000E+03 0.  1.
<mgrwt>
<rscale>  2 0.81674104E+03</rscale>
<asrwt>0</asrwt>
<pdfrwt beam="1">  1       21 0.11620661E+00 0.81702443E+03</pdfrwt>
<pdfrwt beam="2">  1       21 0.14544468E+00 0.81702443E+03</pdfrwt>
<totfact> 0.13069934E+02</totfact>
</mgrwt>
</event>
<event>
 6    1  0.9163926E-004  0.5443362E+03  0.7818608E-02  0.1002815E+00
         21   -1    0    0  501  502  0.00000000000E+00  0.00000000000E+00  0.79487651517E+03  0.79487651517E+03  0.00000000000E+00 0. -1.
         21   -1    0    0  502  503 -0.00000000000E+00 -0.00000000000E+00 -0.41044953776E+03  0.41044953776E+03  0.00000000000E+00 0.  1.
    9000007    2    1    2  501    0  0.34625869553E+03  0.12808899833E+03  0.95466267605E+01  0.54438948031E+03  0.39995861344E+03 0.  0.
    9000005    1    3    3    0    0 -0.41912370975E+02  0.14180555439E+03  0.44454390348E+02  0.15441066968E+03  0.99999687468E+00 0.  0.
          4    1    3    3  501    0  0.38817106651E+03 -0.13716556058E+02 -0.34907763588E+02  0.38997881063E+03  0.00000000000E+00 0.  1.
   -9000007    1    1    2    0  503 -0.34625869553E+03 -0.12808899833E+03  0.37488035064E+03  0.66093657262E+03  0.40000000000E+03 0. -1.
<mgrwt>
<rscale>  2 0.54432858E+03</rscale>
<asrwt>0</asrwt>
<pdfrwt beam="1">  1       21 0.12228869E+00 0.54433618E+03</pdfrwt>
<pdfrwt beam="2">  1       21 0.63146083E-01 0.54433618E+03</pdfrwt>
<totfact> 0.95729048E+02</totfact>
</mgrwt>
</event>
<event>
 6    1  0.9163926E-004  0.4810943E+03  0.7818608E-02  0.1018852E+00
         21   -1    0    0  501  502  0.00000000000E+00  0.00000000000E+00  0.19780109542E+03  0.19780109542E+03  0.00000000000E+00 0. -1.
         21   -1    0    0  502  503 -0.00000000000E+00 -0.00000000000E+00 -0.14247788412E+04  0.14247788412E+04  0.00000000000E+00 0. -1.
    9000007    2    1    2  501    0 -0.19367419732E+03 -0.18356461885E+03 -0.27021630077E+03  0.55178671351E+03  0.40030746184E+03 0.  0.
    9000005    1    3    3    0    0  0.10109578012E+03 -0.87290989661E+02  0.98604452648E+01  0.13393394644E+03  0.99999687468E+00 0.  0.
          4    1    3    3  501    0 -0.29476997744E+03 -0.96273629193E+02 -0.28007674603E+03  0.41785276707E+03  0.00000000000E+00 0.  1.
   -9000007    1    1    2    0  503  0.19367419732E+03  0.18356461885E+03 -0.95676144498E+03  0.10707932231E+04  0.40000000000E+03 0. -1.
<mgrwt>
<rscale>  2 0.48103034E+03</rscale>
<asrwt>0</asrwt>
<pdfrwt beam="1">  1       21 0.30430938E-01 0.48109430E+03</pdfrwt>
<pdfrwt beam="2">  1       21 0.21919674E+00 0.48109430E+03</pdfrwt>
<totfact> 0.86007787E+02</totfact>
</mgrwt>
</event>
<event>
 6    1  0.9163926E-004  0.5738776E+03  0.7818608E-02  0.9963180E-01
         21   -1    0    0  501  502  0.00000000000E+00  0.00000000000E+00  0.22289338664E+03  0.22289338664E+03  0.00000000000E+00 0.  1.
         21   -1    0    0  502  503 -0.00000000000E+00 -0.00000000000E+00 -0.15135438104E+04  0.15135438104E+04  0.00000000000E+00 0. -1.
    9000007    2    1    2  501    0 -0.37430102781E+03  0.15805785562E+03 -0.49674123213E+03  0.75900415601E+03  0.40528004145E+03 0.  0.
    9000005    1    3    3    0    0 -0.67372833345E+02 -0.92178547018E+02 -0.29129816650E+03  0.31287634139E+03  0.99999687468E+00 0.  0.
          4    1    3    3  501    0 -0.30692819447E+03  0.25023640264E+03 -0.20544306564E+03  0.44612781463E+03  0.00000000000E+00 0.  1.
   -9000007    1    1    2    0  503  0.37430102781E+03 -0.15805785562E+03 -0.79390919166E+03  0.97743304105E+03  0.40000000000E+03 0.  1.
<mgrwt>
<rscale>  2 0.57294615E+03</rscale>
<asrwt>0</asrwt>
<pdfrwt beam="1">  1       21 0.34291289E-01 0.57387756E+03</pdfrwt>
<pdfrwt beam="2">  1       21 0.23285290E+00 0.57387756E+03</pdfrwt>
<totfact> 0.53251692E+02</totfact>
</mgrwt>
</event>
<event>
 6    1  0.9163926E-004  0.4615560E+03  0.7818608E-02  0.1024346E+00
         21   -1    0    0  501  502  0.00000000000E+00  0.00000000000E+00  0.16589865052E+04  0.16589865052E+04  0.00000000000E+00 0. -1.
         21   -1    0    0  502  503 -0.00000000000E+00 -0.00000000000E+00 -0.15482236922E+03  0.15482236922E+03  0.00000000000E+00 0. -1.
    9000007    2    1    2  501    0 -0.85338423643E+02 -0.21389544070E+03  0.37694234714E+03  0.59575186946E+03  0.39975098598E+03 0.  0.
    9000005    1    3    3    0    0  0.11473897277E+03 -0.19747726708E+03  0.30810907414E+03  0.38352901382E+03  0.99999687468E+00 0.  0.
          4    1    3    3  501    0 -0.20007739641E+03 -0.16418173620E+02  0.68833273005E+02  0.21222285563E+03  0.00000000000E+00 0.  1.
   -9000007    1    1    2    0  503  0.85338423643E+02  0.21389544070E+03  0.11272217889E+04  0.12180570050E+04  0.40000000000E+03 0. -1.
<mgrwt>
<rscale>  2 0.46150201E+03</rscale>
<asrwt>0</asrwt>
<pdfrwt beam="1">  1       21 0.25522868E+00 0.46155596E+03</pdfrwt>
<pdfrwt beam="2">  1       21 0.23818827E-01 0.46155596E+03</pdfrwt>
<totfact> 0.83613655E+02</totfact>
</mgrwt>
</event>
<event>
 6    1  0.9163926E-004  0.6546502E+03  0.7818608E-02  0.9798201E-01
         21   -1    0    0  501  502  0.00000000000E+00  0.00000000000E+00  0.52014241018E+03  0.52014241018E+03  0.00000000000E+00 0. -1.
         21   -1    0    0  502  503 -0.00000000000E+00 -0.00000000000E+00 -0.11813026855E+04  0.11813026855E+04  0.00000000000E+00 0.  1.
    9000007    2    1    2  501    0  0.42685225801E+03 -0.29335496652E+03 -0.79872316162E+03  0.10327272672E+04  0.40038348231E+03 0.  0.
    9000005    1    3    3    0    0  0.12070029853E+02  0.88791503585E+02 -0.90289413514E+02  0.12721161471E+03  0.99999687468E+00 0.  0.
          4    1    3    3  501    0  0.41478222816E+03 -0.38214647010E+03 -0.70843374811E+03  0.90551565247E+03  0.00000000000E+00 0.  1.
   -9000007    1    1    2    0  503 -0.42685225801E+03  0.29335496652E+03  0.13756288625E+03  0.66871782855E+03  0.40000000000E+03 0. -1.
<mgrwt>
<rscale>  2 0.65459160E+03</rscale>
<asrwt>0</asrwt>
<pdfrwt beam="1">  1       21 0.80021910E-01 0.65465023E+03</pdfrwt>
<pdfrwt beam="2">  1       21 0.18173887E+00 0.65465023E+03</pdfrwt>
<totfact> 0.18094746E+02</totfact>
</mgrwt>
</event>
<event>
 6    1  0.9163926E-004  0.4267729E+03  0.7818608E-02  0.1034952E+00
         21   -1    0    0  501  502  0.00000000000E+00  0.00000000000E+00  0.26177447007E+03  0.26177447007E+03  0.00000000000E+00 0.  1.
         21   -1    0    0  502  503 -0.00000000000E+00 -0.00000000000E+00 -0.70612653557E+03  0.70612653557E+03  0.00000000000E+00 0.  1.
    9000007    2    1    2  501    0 -0.14760456102E+03  0.18653990680E+02 -0.28437112052E+03  0.51212805716E+03  0.39909038443E+03 0.  0.
    9000005    1    3    3    0    0 -0.19083277014E+03  0.41778902012E+02  0.26741115610E+02  0.19717684973E+03  0.99999687468E+00 0.  0.
          4    1    3    3  501    0  0.43228209122E+02 -0.23124911332E+02 -0.31111223613E+03  0.31495120743E+03  0.00000000000E+00 0.  1.
   -9000007    1    1    2    0  503  0.14760456102E+03 -0.18653990680E+02 -0.15998094498E+03  0.45577294847E+03  0.40000000000E+03 0.  1.
<mgrwt>
<rscale>  2 0.42655960E+03</rscale>
<asrwt>0</asrwt>
<pdfrwt beam="1">  1       21 0.40272997E-01 0.42677286E+03</pdfrwt>
<pdfrwt beam="2">  1       21 0.10863485E+00 0.42677286E+03</pdfrwt>
<totfact> 0.35134986E+03</totfact>
</mgrwt>
</event>
<event>
 6    1  0.9163926E-004  0.5032095E+03  0.7818608E-02  0.1012992E+00
         21   -1    0    0  501  502  0.00000000000E+00  0.00000000000E+00  0.32103502323E+04  0.32103502323E+04  0.00000000000E+00 0. -1.
         21   -1    0    0  502  503 -0.00000000000E+00 -0.00000000000E+00 -0.89430851081E+02  0.89430851081E+02  0.00000000000E+00 0.  1.
    9000007    2    1    2  501    0 -0.16418515735E+03  0.25741598212E+03  0.98958977611E+03  0.11098528564E+04  0.39908104955E+03 0.  0.
    9000005    1    3    3    0    0 -0.19972566409E+03 -0.17335037838E+02  0.59385695846E+03  0.62678379968E+03  0.99999687468E+00 0.  0.
          4    1    3    3  501    0  0.35540506736E+02  0.27475101996E+03  0.39573281764E+03  0.48306905671E+03  0.00000000000E+00 0.  1.
   -9000007    1    1    2    0  503  0.16418515735E+03 -0.25741598212E+03  0.21313296051E+04  0.21899282270E+04  0.40000000000E+03 0. -1.
<mgrwt>
<rscale>  2 0.50302681E+03</rscale>
<asrwt>0</asrwt>
<pdfrwt beam="1">  1       21 0.49389995E+00 0.50320945E+03</pdfrwt>
<pdfrwt beam="2">  1       21 0.13758595E-01 0.50320945E+03</pdfrwt>
<totfact> 0.68898905E+01</totfact>
</mgrwt>
</event>
<event>
 6    1  0.9163926E-004  0.4907124E+03  0.7818608E-02  0.1016238E+00
         21   -1    0    0  501  502  0.00000000000E+00  0.00000000000E+00  0.35926881273E+03  0.35926881273E+03  0.00000000000E+00 0.  1.
         21   -1    0    0  502  503 -0.00000000000E+00 -0.00000000000E+00 -0.10623127016E+04  0.10623127016E+04  0.00000000000E+00 0.  1.
    9000007    2    1    2  501    0 -0.27813971247E+03  0.58625474232E+02  0.80379341883E+02  0.49716245116E+03  0.39988875748E+03 0.  0.
    9000005    1    3    3    0    0 -0.36305701670E+03  0.11799538237E+03  0.32833620541E+02  0.38316100306E+03  0.99999687468E+00 0.  0.
          4    1    3    3  501    0  0.84917304227E+02 -0.59369908139E+02  0.47545721342E+02  0.11400144809E+03  0.00000000000E+00 0.  1.
   -9000007    1    1    2    0  503  0.27813971247E+03 -0.58625474232E+02 -0.78342323073E+03  0.92441906316E+03  0.40000000000E+03 0.  1.
<mgrwt>
<rscale>  2 0.49068972E+03</rscale>
<asrwt>0</asrwt>
<pdfrwt beam="1">  1       21 0.55272126E-01 0.49071239E+03</pdfrwt>
<pdfrwt beam="2">  1       21 0.16343272E+00 0.49071239E+03</pdfrwt>
<totfact> 0.60094461E+02</totfact>
</mgrwt>
</event>
<event>
 6    1  0.9163926E-004  0.4701812E+03  0.7818608E-02  0.1022069E+00
         21   -1    0    0  501  502  0.00000000000E+00  0.00000000000E+00  0.49506566486E+03  0.49506566486E+03  0.00000000000E+00 0. -1.
         21   -1    0    0  502  503 -0.00000000000E+00 -0.00000000000E+00 -0.44518211619E+03  0.44518211619E+03  0.00000000000E+00 0. -1.
    9000007    2    1    2  501    0 -0.68918905902E+02 -0.23731941671E+03  0.50384531931E+02  0.47006635636E+03  0.39667802710E+03 0.  0.
    9000005    1    3    3    0    0 -0.62985835627E+02 -0.34861476020E+03  0.55066447458E+02  0.35851468610E+03  0.99999687468E+00 0.  0.
          4    1    3    3  501    0 -0.59330702750E+01  0.11129534349E+03 -0.46819155271E+01  0.11155167026E+03  0.00000000000E+00 0.  1.
   -9000007    1    1    2    0  503  0.68918905902E+02  0.23731941671E+03 -0.50098325412E+00  0.47018142469E+03  0.40000000000E+03 0. -1.
<mgrwt>
<rscale>  2 0.46947385E+03</rscale>
<asrwt>0</asrwt>
<pdfrwt beam="1">  1       21 0.76163948E-01 0.47018116E+03</pdfrwt>
<pdfrwt beam="2">  1       21 0.68489556E-01 0.47018116E+03</pdfrwt>
<totfact> 0.25742374E+03</totfact>
</mgrwt>
</event>
<event>
 6    1  0.9163926E-004  0.4006509E+03  0.7818608E-02  0.1043917E+00
         21   -1    0    0  501  502  0.00000000000E+00  0.00000000000E+00  0.74498185866E+03  0.74498185866E+03  0.00000000000E+00 0.  1.
         21   -1    0    0  502  503 -0.00000000000E+00 -0.00000000000E+00 -0.61410672672E+03  0.61410672672E+03  0.00000000000E+00 0.  1.
    9000007    2    1    2  501    0 -0.22542296634E+02 -0.36043875281E+01  0.61435191419E+03  0.73117860320E+03  0.39581906038E+03 0.  0.
    9000005    1    3    3    0    0 -0.17455677406E+03 -0.11322142228E+03  0.29722945825E+03  0.36281608107E+03  0.99999687468E+00 0.  0.
          4    1    3    3  501    0  0.15201447742E+03  0.10961703476E+03  0.31712245594E+03  0.36836252213E+03  0.00000000000E+00 0.  1.
   -9000007    1    1    2    0  503  0.22542296634E+02  0.36043875281E+01 -0.48347678225E+03  0.62790998218E+03  0.40000000000E+03 0.  1.
<mgrwt>
<rscale>  2 0.39960328E+03</rscale>
<asrwt>0</asrwt>
<pdfrwt beam="1">  1       21 0.11461259E+00 0.40065090E+03</pdfrwt>
<pdfrwt beam="2">  1       21 0.94477958E-01 0.40065090E+03</pdfrwt>
<totfact> 0.47438715E+02</totfact>
</mgrwt>
</event>
<event>
 6    1  0.9163926E-004  0.4071066E+03  0.7818608E-02  0.1041369E+00
         21   -1    0    0  501  502  0.00000000000E+00  0.00000000000E+00  0.14264379341E+04  0.14264379341E+04  0.00000000000E+00 0. -1.
         21   -1    0    0  502  503 -0.00000000000E+00 -0.00000000000E+00 -0.11845116971E+03  0.11845116971E+03  0.00000000000E+00 0. -1.
    9000007    2    1    2  501    0  0.48513376963E+02  0.56290088704E+02  0.76271131291E+03  0.86456018349E+03  0.40026696367E+03 0.  0.
    9000005    1    3    3    0    0  0.59233751734E+02  0.11366558036E+03  0.32785208771E+02  0.13230408691E+03  0.99999687468E+00 0.  0.
          4    1    3    3  501    0 -0.10720374771E+02 -0.57375491661E+02  0.72992610414E+03  0.73225609659E+03  0.00000000000E+00 0.  1.
   -9000007    1    1    2    0  503 -0.48513376963E+02 -0.56290088704E+02  0.54527545147E+03  0.68032892031E+03  0.40000000000E+03 0. -1.
<mgrwt>
<rscale>  2 0.40704094E+03</rscale>
<asrwt>0</asrwt>
<pdfrwt beam="1">  1       21 0.21945198E+00 0.40710658E+03</pdfrwt>
<pdfrwt beam="2">  1       21 0.18223258E-01 0.40710658E+03</pdfrwt>
<totfact> 0.23916928E+03</totfact>
</mgrwt>
</event>
<event>
 6    1  0.9163926E-004  0.4779540E+03  0.7818608E-02  0.1019712E+00
         21   -1    0    0  501  502  0.00000000000E+00  0.00000000000E+00  0.15200688203E+04  0.15200688203E+04  0.00000000000E+00 0.  1.
         21   -1    0    0  502  503 -0.00000000000E+00 -0.00000000000E+00 -0.23504756947E+03  0.23504756947E+03  0.00000000000E+00 0.  1.
    9000007    2    1    2  501    0  0.25473653280E+03 -0.58049821639E+02  0.11697693628E+04  0.12636456575E+04  0.40022431547E+03 0.  0.
    9000005    1    3    3    0    0 -0.58929748942E+01 -0.11603362009E+03  0.78580628047E+02  0.14026561675E+03  0.99999687468E+00 0.  0.
          4    1    3    3  501    0  0.26062950769E+03  0.57983798446E+02  0.10911887348E+04  0.11233800408E+04  0.00000000000E+00 0.  1.
   -9000007    1    1    2    0  503 -0.25473653280E+03  0.58049821639E+02  0.11525188798E+03  0.49147073221E+03  0.40000000000E+03 0.  1.
<mgrwt>
<rscale>  2 0.47790700E+03</rscale>
<asrwt>0</asrwt>
<pdfrwt beam="1">  1       21 0.23385674E+00 0.47795396E+03</pdfrwt>
<pdfrwt beam="2">  1       21 0.36161166E-01 0.47795396E+03</pdfrwt>
<totfact> 0.49125084E+02</totfact>
</mgrwt>
</event>
<event>
 6    1  0.9163926E-004  0.5133425E+03  0.7818608E-02  0.1010671E+00
         21   -1    0    0  501  502  0.00000000000E+00  0.00000000000E+00  0.14573986930E+03  0.14573986930E+03  0.00000000000E+00 0. -1.
         21   -1    0    0  502  503 -0.00000000000E+00 -0.00000000000E+00 -0.18660172640E+04  0.18660172640E+04  0.00000000000E+00 0. -1.
    9000007    2    1    2  501    0  0.16385360814E+03  0.26752541930E+03 -0.66196665180E+03  0.83768750869E+03  0.40632826539E+03 0.  0.
    9000005    1    3    3    0    0  0.27516380172E+03  0.97452238439E+02 -0.27733214759E+03  0.40264894963E+03  0.99999687468E+00 0.  0.
          4    1    3    3  501    0 -0.11131019359E+03  0.17007318086E+03 -0.38463450421E+03  0.43503855906E+03  0.00000000000E+00 0.  1.
   -9000007    1    1    2    0  503 -0.16385360814E+03 -0.26752541930E+03 -0.10583107429E+04  0.11740696246E+04  0.40000000000E+03 0. -1.
<mgrwt>
<rscale>  2 0.51208933E+03</rscale>
<asrwt>0</asrwt>
<pdfrwt beam="1">  1       21 0.22421520E-01 0.51334249E+03</pdfrwt>
<pdfrwt beam="2">  1       21 0.28707956E+00 0.51334249E+03</pdfrwt>
<totfact> 0.58682133E+02</totfact>
</mgrwt>
</event>
<event>
 6    1  0.9163926E-004  0.4277312E+03  0.7818608E-02  0.1034590E+00
         21   -1    0    0  501  502  0.00000000000E+00  0.00000000000E+00  0.88003131784E+03  0.88003131784E+03  0.00000000000E+00 0.  1.
         21   -1    0    0  502  503 -0.00000000000E+00 -0.00000000000E+00 -0.23207914617E+03  0.23207914617E+03  0.00000000000E+00 0.  1.
    9000007    2    1    2  501    0 -0.50540441312E+02  0.14243385808E+03  0.50375804685E+03  0.66085257126E+03  0.40014023922E+03 0.  0.
    9000005    1    3    3    0    0  0.71910517091E+02 -0.67809993088E+02 -0.28098263709E+01  0.98884845901E+02  0.99999687468E+00 0.  0.
          4    1    3    3  501    0 -0.12245095840E+03  0.21024385117E+03  0.50656787322E+03  0.56196772536E+03  0.00000000000E+00 0.  1.
   -9000007    1    1    2    0  503  0.50540441312E+02 -0.14243385808E+03  0.14419412482E+03  0.45125789275E+03  0.40000000000E+03 0.  1.
<mgrwt>
<rscale>  2 0.42769837E+03</rscale>
<asrwt>0</asrwt>
<pdfrwt beam="1">  1       21 0.13538943E+00 0.42773117E+03</pdfrwt>
<pdfrwt beam="2">  1       21 0.35704485E-01 0.42773117E+03</pdfrwt>
<totfact> 0.25662117E+03</totfact>
</mgrwt>
</event>
<event>
 6    1  0.9163926E-004  0.4922641E+03  0.7818608E-02  0.1015827E+00
         21   -1    0    0  501  502  0.00000000000E+00  0.00000000000E+00  0.84478306185E+03  0.84478306185E+03  0.00000000000E+00 0. -1.
         21   -1    0    0  502  503 -0.00000000000E+00 -0.00000000000E+00 -0.39771523903E+03  0.39771523903E+03  0.00000000000E+00 0. -1.
    9000007    2    1    2  501    0  0.57966795882E+02  0.28100504188E+03  0.55163628505E+03  0.73925030408E+03  0.39983051174E+03 0.  0.
    9000005    1    3    3    0    0 -0.65713751344E+02  0.34596918518E+03  0.40579007402E+03  0.53728908269E+03  0.99999687468E+00 0.  0.
          4    1    3    3  501    0  0.12368054723E+03 -0.64964143294E+02  0.14584621103E+03  0.20196122140E+03  0.00000000000E+00 0.  1.
   -9000007    1    1    2    0  503 -0.57966795882E+02 -0.28100504188E+03 -0.10456846223E+03  0.50324799680E+03  0.40000000000E+03 0. -1.
<mgrwt>
<rscale>  2 0.49222971E+03</rscale>
<asrwt>0</asrwt>
<pdfrwt beam="1">  1       21 0.12996662E+00 0.49226414E+03</pdfrwt>
<pdfrwt beam="2">  1       21 0.61186960E-01 0.49226414E+03</pdfrwt>
<totfact> 0.89341786E+02</totfact>
</mgrwt>
</event>
<event>
 6    1  0.9163926E-004  0.4100576E+03  0.7818608E-02  0.1040401E+00
         21   -1    0    0  501  502  0.00000000000E+00  0.00000000000E+00  0.15669494485E+04  0.15669494485E+04  0.00000000000E+00 0. -1.
         21   -1    0    0  502  503 -0.00000000000E+00 -0.00000000000E+00 -0.11617946340E+03  0.11617946340E+03  0.00000000000E+00 0. -1.
    9000007    2    1    2  501    0  0.43521828992E+02  0.79076607896E+02  0.49036613389E+03  0.63884790712E+03  0.39940010472E+03 0.  0.
    9000005    1    3    3    0    0  0.18059505581E+03 -0.68980926561E+00  0.43477789162E+03  0.47079492888E+03  0.99999687468E+00 0.  0.
          4    1    3    3  501    0 -0.13707322682E+03  0.79766417162E+02  0.55588242273E+02  0.16805297824E+03  0.00000000000E+00 0.  1.
   -9000007    1    1    2    0  503 -0.43521828992E+02 -0.79076607896E+02  0.96040385123E+03  0.10442810048E+04  0.40000000000E+03 0. -1.
<mgrwt>
<rscale>  2 0.40991126E+03</rscale>
<asrwt>0</asrwt>
<pdfrwt beam="1">  1       21 0.24106913E+00 0.41005763E+03</pdfrwt>
<pdfrwt beam="2">  1       21 0.17873765E-01 0.41005763E+03</pdfrwt>
<totfact> 0.18130842E+03</totfact>
</mgrwt>
</event>
<event>
 6    1  0.9163926E-004  0.4388273E+03  0.7818608E-02  0.1031124E+00
         21   -1    0    0  501  502  0.00000000000E+00  0.00000000000E+00  0.12576796788E+04  0.12576796788E+04  0.00000000000E+00 0. -1.
         21   -1    0    0  502  503 -0.00000000000E+00 -0.00000000000E+00 -0.18202154707E+03  0.18202154707E+03  0.00000000000E+00 0. -1.
    9000007    2    1    2  501    0  0.17975315320E+03 -0.83308299628E+01  0.82517913586E+03  0.93460685232E+03  0.40023588461E+03 0.  0.
    9000005    1    3    3    0    0  0.67163033887E+02  0.18560043750E+03  0.51763083448E+03  0.55398653081E+03  0.99999687468E+00 0.  0.
          4    1    3    3  501    0  0.11259011931E+03 -0.19393126746E+03  0.30754830138E+03  0.38062032151E+03  0.00000000000E+00 0.  1.
   -9000007    1    1    2    0  503 -0.17975315320E+03  0.83308299628E+01  0.25047899585E+03  0.50509437353E+03  0.40000000000E+03 0. -1.
<mgrwt>
<rscale>  2 0.43877347E+03</rscale>
<asrwt>0</asrwt>
<pdfrwt beam="1">  1       21 0.19348918E+00 0.43882726E+03</pdfrwt>
<pdfrwt beam="2">  1       21 0.28003316E-01 0.43882726E+03</pdfrwt>
<totfact> 0.15263210E+03</totfact>
</mgrwt>
</event>
<event>
 6    1  0.9163926E-004  0.5769968E+03  0.7818608E-02  0.9955023E-01
         21   -1    0    0  501  502  0.00000000000E+00  0.00000000000E+00  0.19282819575E+03  0.19282819575E+03  0.00000000000E+00 0.  1.
         21   -1    0    0  502  503 -0.00000000000E+00 -0.00000000000E+00 -0.17496816756E+04  0.17496816756E+04  0.00000000000E+00 0. -1.
    9000007    2    1    2  501    0  0.84048744299E+02 -0.40541820140E+03 -0.65857645371E+03  0.87558451071E+03  0.40186711806E+03 0.  0.
    9000005    1    3    3    0    0 -0.33739356510E+02 -0.32562096122E+02 -0.40905451307E+03  0.41173441554E+03  0.99999687468E+00 0.  0.
          4    1    3    3  501    0  0.11778810081E+03 -0.37285610528E+03 -0.24952194064E+03  0.46385009518E+03  0.00000000000E+00 0.  1.
   -9000007    1    1    2    0  503 -0.84048744299E+02  0.40541820140E+03 -0.89827702610E+03  0.10669253606E+04  0.40000000000E+03 0.  1.
<mgrwt>
<rscale>  2 0.57667180E+03</rscale>
<asrwt>0</asrwt>
<pdfrwt beam="1">  1       21 0.29665877E-01 0.57699679E+03</pdfrwt>
<pdfrwt beam="2">  1       21 0.26918179E+00 0.57699679E+03</pdfrwt>
<totfact> 0.42329252E+02</totfact>
</mgrwt>
</event>
<event>
 6    1  0.9163926E-004  0.5096122E+03  0.7818608E-02  0.1011338E+00
         21   -1    0    0  501  502  0.00000000000E+00  0.00000000000E+00  0.25840564259E+03  0.25840564259E+03  0.00000000000E+00 0.  1.
         21   -1    0    0  502  503 -0.00000000000E+00 -0.00000000000E+00 -0.10521115990E+04  0.10521115990E+04  0.00000000000E+00 0. -1.
    9000007    2    1    2  501    0  0.12071300944E+03 -0.29072565458E+03 -0.25672566736E+03  0.57062477122E+03  0.40076367647E+03 0.  0.
    9000005    1    3    3    0    0  0.23395877586E+03 -0.47060172080E+02 -0.93978879169E+02  0.25648469413E+03  0.99999687468E+00 0.  0.
          4    1    3    3  501    0 -0.11324576642E+03 -0.24366548250E+03 -0.16274678819E+03  0.31414007710E+03  0.00000000000E+00 0.  1.
   -9000007    1    1    2    0  503 -0.12071300944E+03  0.29072565458E+03 -0.53698028909E+03  0.73989247040E+03  0.40000000000E+03 0.  1.
<mgrwt>
<rscale>  2 0.50946202E+03</rscale>
<asrwt>0</asrwt>
<pdfrwt beam="1">  1       21 0.39754713E-01 0.50961217E+03</pdfrwt>
<pdfrwt beam="2">  1       21 0.16186333E+00 0.50961217E+03</pdfrwt>
<totfact> 0.12296698E+03</totfact>
</mgrwt>
</event>
<event>
 6    1  0.9163926E-004  0.5881047E+03  0.7818608E-02  0.9930459E-01
         21   -1    0    0  501  502  0.00000000000E+00  0.00000000000E+00  0.34829287326E+03  0.34829287326E+03  0.00000000000E+00 0. -1.
         21   -1    0    0  502  503 -0.00000000000E+00 -0.00000000000E+00 -0.14043501155E+04  0.14043501155E+04  0.00000000000E+00 0.  1.
    9000007    2    1    2  501    0 -0.42598786253E+03  0.66343589919E+02 -0.53622156331E+02  0.59042819260E+03  0.39982869335E+03 0.  0.
    9000005    1    3    3    0    0 -0.37433312508E+03  0.11759741781E+03  0.11324318863E+03  0.40838641134E+03  0.99999687468E+00 0.  0.
          4    1    3    3  501    0 -0.51654737452E+02 -0.51253827894E+02 -0.16686534496E+03  0.18204178126E+03  0.00000000000E+00 0.  1.
   -9000007    1    1    2    0  503  0.42598786253E+03 -0.66343589919E+02 -0.10024350859E+04  0.11622147962E+04  0.40000000000E+03 0.  1.
<mgrwt>
<rscale>  2 0.58807557E+03</rscale>
<asrwt>0</asrwt>
<pdfrwt beam="1">  1       21 0.53583519E-01 0.58810469E+03</pdfrwt>
<pdfrwt beam="2">  1       21 0.21605387E+00 0.58810469E+03</pdfrwt>
<totfact> 0.26671244E+02</totfact>
</mgrwt>
</event>
<event>
 6    1  0.9163926E-004  0.5983773E+03  0.7818608E-02  0.9908848E-01
         21   -1    0    0  501  502  0.00000000000E+00  0.00000000000E+00  0.27957830737E+03  0.27957830737E+03  0.00000000000E+00 0. -1.
         21   -1    0    0  502  503 -0.00000000000E+00 -0.00000000000E+00 -0.13029649289E+04  0.13029649289E+04  0.00000000000E+00 0.  1.
    9000007    2    1    2  501    0 -0.20066894895E+03 -0.39722454129E+03 -0.40753927487E+03  0.72386790899E+03  0.39980135797E+03 0.  0.
    9000005    1    3    3    0    0 -0.88930111680E+02 -0.19910734721E+03  0.40129801824E+02  0.22172889182E+03  0.99999687468E+00 0.  0.
          4    1    3    3  501    0 -0.11173883727E+03 -0.19811719407E+03 -0.44766907669E+03  0.50213901717E+03  0.00000000000E+00 0.  1.
   -9000007    1    1    2    0  503  0.20066894895E+03  0.39722454129E+03 -0.61584734661E+03  0.85867532724E+03  0.40000000000E+03 0.  1.
<mgrwt>
<rscale>  2 0.59834408E+03</rscale>
<asrwt>0</asrwt>
<pdfrwt beam="1">  1       21 0.43012047E-01 0.59837728E+03</pdfrwt>
<pdfrwt beam="2">  1       21 0.20045614E+00 0.59837728E+03</pdfrwt>
<totfact> 0.53787145E+02</totfact>
</mgrwt>
</event>
<event>
 6    1  0.9163926E-004  0.4386952E+03  0.7818608E-02  0.1031880E+00
         21   -1    0    0  501  502  0.00000000000E+00  0.00000000000E+00  0.21138721621E+03  0.21138721621E+03  0.00000000000E+00 0. -1.
         21   -1    0    0  502  503 -0.00000000000E+00 -0.00000000000E+00 -0.15673198180E+04  0.15673198180E+04  0.00000000000E+00 0. -1.
    9000007    2    1    2  501    0  0.68212147458E+02 -0.16673518409E+03 -0.89613187768E+02  0.43855093248E+03  0.38967021734E+03 0.  0.
    9000005    1    3    3    0    0 -0.10945854719E+03 -0.59816028259E+02  0.98218010087E+02  0.15876683624E+03  0.99999687468E+00 0.  0.
          4    1    3    3  501    0  0.17767069465E+03 -0.10691915583E+03 -0.18783119785E+03  0.27978409624E+03  0.00000000000E+00 0.  1.
   -9000007    1    1    2    0  503 -0.68212147458E+02  0.16673518409E+03 -0.12663194140E+04  0.13401561017E+04  0.40000000000E+03 0. -1.
<mgrwt>
<rscale>  2 0.43632671E+03</rscale>
<asrwt>0</asrwt>
<pdfrwt beam="1">  1       21 0.32521109E-01 0.43869525E+03</pdfrwt>
<pdfrwt beam="2">  1       21 0.24112613E+00 0.43869525E+03</pdfrwt>
<totfact> 0.55942526E+02</totfact>
</mgrwt>
</event>
<event>
 6    1  0.9163926E-004  0.4679075E+03  0.7818608E-02  0.1022681E+00
         21   -1    0    0  501  502  0.00000000000E+00  0.00000000000E+00  0.27829779375E+03  0.27829779375E+03  0.00000000000E+00 0. -1.
         21   -1    0    0  502  503 -0.00000000000E+00 -0.00000000000E+00 -0.23933879131E+04  0.23933879131E+04  0.00000000000E+00 0. -1.
    9000007    2    1    2  501    0 -0.24231917427E+03 -0.14793313190E+02  0.39184196843E+02  0.46718230386E+03  0.39722346284E+03 0.  0.
    9000005    1    3    3    0    0 -0.14640549171E+03  0.15624518570E+03 -0.90097306676E+02  0.23230508113E+03  0.99999687468E+00 0.  0.
          4    1    3    3  501    0 -0.95913682559E+02 -0.17103849889E+03  0.12928150352E+03  0.23487722273E+03  0.00000000000E+00 0.  1.
   -9000007    1    1    2    0  503  0.24231917427E+03  0.14793313190E+02 -0.21542743162E+04  0.22045034030E+04  0.40000000000E+03 0. -1.
<mgrwt>
<rscale>  2 0.46731353E+03</rscale>
<asrwt>0</asrwt>
<pdfrwt beam="1">  1       21 0.42815045E-01 0.46790750E+03</pdfrwt>
<pdfrwt beam="2">  1       21 0.36821352E+00 0.46790750E+03</pdfrwt>
<totfact> 0.52860151E+01</totfact>
</mgrwt>
</event>
<event>
 6    1  0.9163926E-004  0.7185945E+03  0.7818608E-02  0.9686016E-01
         21   -1    0    0  501  502  0.00000000000E+00  0.00000000000E+00  0.69879603929E+03  0.69879603929E+03  0.00000000000E+00 0.  1.
         21   -1    0    0  502  503 -0.00000000000E+00 -0.00000000000E+00 -0.76919827023E+03  0.76919827023E+03  0.00000000000E+00 0. -1.
    9000007    2    1    2  501    0 -0.56734149174E+03 -0.18513552215E+03 -0.18113935289E+03  0.74107324091E+03  0.40028309158E+03 0.  0.
    9000005    1    3    3    0    0 -0.53580378393E+03 -0.51641611457E+02 -0.24300680829E+03  0.59059788331E+03  0.99999687468E+00 0.  0.
          4    1    3    3  501    0 -0.31537707817E+02 -0.13349391070E+03  0.61867455393E+02  0.15047535760E+03  0.00000000000E+00 0.  1.
   -9000007    1    1    2    0  503  0.56734149174E+03  0.18513552215E+03  0.11073712195E+03  0.72692106861E+03  0.40000000000E+03 0.  1.
<mgrwt>
<rscale>  2 0.71855510E+03</rscale>
<asrwt>0</asrwt>
<pdfrwt beam="1">  1       21 0.10750708E+00 0.71859452E+03</pdfrwt>
<pdfrwt beam="2">  1       21 0.11833820E+00 0.71859452E+03</pdfrwt>
<totfact> 0.28246887E+02</totfact>
</mgrwt>
</event>
<event>
 6    1  0.9163926E-004  0.5375830E+03  0.7818608E-02  0.1004421E+00
         21   -1    0    0  501  502  0.00000000000E+00  0.00000000000E+00  0.23446954548E+03  0.23446954548E+03  0.00000000000E+00 0. -1.
         21   -1    0    0  502  503 -0.00000000000E+00 -0.00000000000E+00 -0.21586288586E+04  0.21586288586E+04  0.00000000000E+00 0. -1.
    9000007    2    1    2  501    0 -0.29569960316E+03  0.20385593739E+03 -0.17806906600E+03  0.56612641481E+03  0.39974370135E+03 0.  0.
    9000005    1    3    3    0    0 -0.32919898311E+03  0.89001768627E+02  0.12348554657E+02  0.34124298102E+03  0.99999687468E+00 0.  0.
          4    1    3    3  501    0  0.33499379950E+02  0.11485416876E+03 -0.19041762066E+03  0.22488343379E+03  0.00000000000E+00 0.  1.
   -9000007    1    1    2    0  503  0.29569960316E+03 -0.20385593739E+03 -0.17460902471E+04  0.18269719893E+04  0.40000000000E+03 0. -1.
<mgrwt>
<rscale>  2 0.53753534E+03</rscale>
<asrwt>0</asrwt>
<pdfrwt beam="1">  1       21 0.36072238E-01 0.53758302E+03</pdfrwt>
<pdfrwt beam="2">  1       21 0.33209675E+00 0.53758302E+03</pdfrwt>
<totfact> 0.12042868E+02</totfact>
</mgrwt>
</event>
<event>
 6    1  0.9163926E-004  0.1240853E+04  0.7818608E-02  0.9077888E-01
         21   -1    0    0  501  502  0.00000000000E+00  0.00000000000E+00  0.16674632909E+04  0.16674632909E+04  0.00000000000E+00 0.  1.
         21   -1    0    0  502  503 -0.00000000000E+00 -0.00000000000E+00 -0.14568062285E+04  0.14568062285E+04  0.00000000000E+00 0. -1.
    9000007    2    1    2  501    0  0.86348077938E+03 -0.79631460340E+03  0.10507596613E+04  0.16257741472E+04  0.39916125542E+03 0.  0.
    9000005    1    3    3    0    0  0.19170516480E+03  0.72773671388E+01  0.13610717167E+03  0.23522328213E+03  0.99999687468E+00 0.  0.
          4    1    3    3  501    0  0.67177561458E+03 -0.80359197053E+03  0.91465248965E+03  0.13905508650E+04  0.00000000000E+00 0.  1.
   -9000007    1    1    2    0  503 -0.86348077938E+03  0.79631460340E+03 -0.84010259888E+03  0.14984953722E+04  0.40000000000E+03 0. -1.
<mgrwt>
<rscale>  2 0.12407854E+04</rscale>
<asrwt>0</asrwt>
<pdfrwt beam="1">  1       21 0.25653282E+00 0.12408529E+04</pdfrwt>
<pdfrwt beam="2">  1       21 0.22412403E+00 0.12408529E+04</pdfrwt>
<totfact> 0.28750865E+00</totfact>
</mgrwt>
</event>
<event>
 6    1  0.9163926E-004  0.8326149E+03  0.7818608E-02  0.9513995E-01
         21   -1    0    0  501  502  0.00000000000E+00  0.00000000000E+00  0.60877911928E+03  0.60877911928E+03  0.00000000000E+00 0. -1.
         21   -1    0    0  502  503 -0.00000000000E+00 -0.00000000000E+00 -0.11992573335E+04  0.11992573335E+04  0.00000000000E+00 0.  1.
    9000007    2    1    2  501    0  0.62264642736E+03  0.38152196699E+03 -0.49843759743E+03  0.97034972142E+03  0.39986367492E+03 0.  0.
    9000005    1    3    3    0    0 -0.84281747887E+01  0.24897526142E+02 -0.17436011175E+03  0.17633312083E+03  0.99999687468E+00 0.  0.
          4    1    3    3  501    0  0.63107460215E+03  0.35662444085E+03 -0.32407748569E+03  0.79401660060E+03  0.00000000000E+00 0.  1.
   -9000007    1    1    2    0  503 -0.62264642736E+03 -0.38152196699E+03 -0.92040616831E+02  0.83768673139E+03  0.40000000000E+03 0. -1.
<mgrwt>
<rscale>  2 0.83259854E+03</rscale>
<asrwt>0</asrwt>
<pdfrwt beam="1">  1       21 0.93658327E-01 0.83261491E+03</pdfrwt>
<pdfrwt beam="2">  1       21 0.18450113E+00 0.83261491E+03</pdfrwt>
<totfact> 0.11247805E+02</totfact>
</mgrwt>
</event>
<event>
 6    1  0.9163926E-004  0.4142211E+03  0.7818608E-02  0.1038969E+00
         21   -1    0    0  501  502  0.00000000000E+00  0.00000000000E+00  0.96989378429E+03  0.96989378429E+03  0.00000000000E+00 0. -1.
         21   -1    0    0  502  503 -0.00000000000E+00 -0.00000000000E+00 -0.29425010884E+03  0.29425010884E+03  0.00000000000E+00 0. -1.
    9000007    2    1    2  501    0 -0.99974702332E+02 -0.39106957744E+02  0.73704023116E+03  0.84546283038E+03  0.40006849410E+03 0.  0.
    9000005    1    3    3    0    0  0.48737196018E+02 -0.11791892435E+03  0.63703553572E+03  0.64968874144E+03  0.99999687468E+00 0.  0.
          4    1    3    3  501    0 -0.14871189835E+03  0.78811966609E+02  0.10000469544E+03  0.19577408894E+03  0.00000000000E+00 0.  1.
   -9000007    1    1    2    0  503  0.99974702332E+02  0.39106957744E+02 -0.61396555708E+02  0.41868106275E+03  0.40000000000E+03 0. -1.
<mgrwt>
<rscale>  2 0.41420453E+03</rscale>
<asrwt>0</asrwt>
<pdfrwt beam="1">  1       21 0.14921443E+00 0.41422107E+03</pdfrwt>
<pdfrwt beam="2">  1       21 0.45269248E-01 0.41422107E+03</pdfrwt>
<totfact> 0.12217004E+03</totfact>
</mgrwt>
</event>
<event>
 6    1  0.9163926E-004  0.5015196E+03  0.7818608E-02  0.1013383E+00
         21   -1    0    0  501  502  0.00000000000E+00  0.00000000000E+00  0.50080852697E+03  0.50080852697E+03  0.00000000000E+00 0.  1.
         21   -1    0    0  502  503 -0.00000000000E+00 -0.00000000000E+00 -0.69391183598E+03  0.69391183598E+03  0.00000000000E+00 0.  1.
    9000007    2    1    2  501    0 -0.20473287889E+03 -0.22272495701E+03 -0.41051371045E+03  0.64810418973E+03  0.39999447009E+03 0.  0.
    9000005    1    3    3    0    0 -0.69088820692E+01  0.84099827937E+02  0.16835059844E+02  0.86051920050E+02  0.99999687468E+00 0.  0.
          4    1    3    3  501    0 -0.19782399682E+03 -0.30682478495E+03 -0.42734877030E+03  0.56205226968E+03  0.00000000000E+00 0.  1.
   -9000007    1    1    2    0  503  0.20473287889E+03  0.22272495701E+03  0.21741040145E+03  0.54661617322E+03  0.40000000000E+03 0.  1.
<mgrwt>
<rscale>  2 0.50151855E+03</rscale>
<asrwt>0</asrwt>
<pdfrwt beam="1">  1       21 0.77047465E-01 0.50151965E+03</pdfrwt>
<pdfrwt beam="2">  1       21 0.10675567E+00 0.50151965E+03</pdfrwt>
<totfact> 0.87270979E+02</totfact>
</mgrwt>
</event>
<event>
 6    1  0.9163926E-004  0.4184743E+03  0.7818608E-02  0.1037575E+00
         21   -1    0    0  501  502  0.00000000000E+00  0.00000000000E+00  0.92262941648E+03  0.92262941648E+03  0.00000000000E+00 0. -1.
         21   -1    0    0  502  503 -0.00000000000E+00 -0.00000000000E+00 -0.33252814727E+03  0.33252814727E+03  0.00000000000E+00 0.  1.
    9000007    2    1    2  501    0 -0.26849329031E+02  0.11953386583E+03  0.70631371611E+03  0.82097492434E+03  0.40013938732E+03 0.  0.
    9000005    1    3    3    0    0  0.11975460349E+03  0.72413946348E+02  0.63684374318E+03  0.65203979779E+03  0.99999687468E+00 0.  0.
          4    1    3    3  501    0 -0.14660393252E+03  0.47119919484E+02  0.69469972929E+02  0.16893512655E+03  0.00000000000E+00 0.  1.
   -9000007    1    1    2    0  503  0.26849329031E+02 -0.11953386583E+03 -0.11621244691E+03  0.43418263941E+03  0.40000000000E+03 0.  1.
<mgrwt>
<rscale>  2 0.41844100E+03</rscale>
<asrwt>0</asrwt>
<pdfrwt beam="1">  1       21 0.14194299E+00 0.41847433E+03</pdfrwt>
<pdfrwt beam="2">  1       21 0.51158177E-01 0.41847433E+03</pdfrwt>
<totfact> 0.10770114E+03</totfact>
</mgrwt>
</event>
<event>
 6    1  0.9163926E-004  0.4029212E+03  0.7818608E-02  0.1042807E+00
         21   -1    0    0  501  502  0.00000000000E+00  0.00000000000E+00  0.10438539057E+04  0.10438539057E+04  0.00000000000E+00 0.  1.
         21   -1    0    0  502  503 -0.00000000000E+00 -0.00000000000E+00 -0.27132111431E+03  0.27132111431E+03  0.00000000000E+00 0.  1.
    9000007    2    1    2  501    0 -0.39593929151E+02  0.21406310002E+02  0.81625358863E+03  0.91028316108E+03  0.40039930452E+03 0.  0.
    9000005    1    3    3    0    0 -0.21332164273E+03 -0.37562495131E+02  0.38758079735E+03  0.44400105717E+03  0.99999687468E+00 0.  0.
          4    1    3    3  501    0  0.17372771358E+03  0.58968805133E+02  0.42867279128E+03  0.46628210391E+03  0.00000000000E+00 0.  1.
   -9000007    1    1    2    0  503  0.39593929151E+02 -0.21406310002E+02 -0.43720797227E+02  0.40489185895E+03  0.40000000000E+03 0.  1.
<mgrwt>
<rscale>  2 0.40282199E+03</rscale>
<asrwt>0</asrwt>
<pdfrwt beam="1">  1       21 0.16059291E+00 0.40292122E+03</pdfrwt>
<pdfrwt beam="2">  1       21 0.41741710E-01 0.40292122E+03</pdfrwt>
<totfact> 0.11888738E+03</totfact>
</mgrwt>
</event>
<event>
 6    1  0.9163926E-004  0.4838647E+03  0.7818608E-02  0.1018103E+00
         21   -1    0    0  501  502  0.00000000000E+00  0.00000000000E+00  0.19730779625E+04  0.19730779625E+04  0.00000000000E+00 0.  1.
         21   -1    0    0  502  503 -0.00000000000E+00 -0.00000000000E+00 -0.28322548999E+03  0.28322548999E+03  0.00000000000E+00 0. -1.
    9000007    2    1    2  501    0  0.26482114399E+03 -0.60397353488E+02  0.17052327254E+04  0.17725528651E+04  0.40043343173E+03 0.  0.
    9000005    1    3    3    0    0  0.25185186007E+03 -0.57402967384E+02  0.46248404860E+03  0.52973290939E+03  0.99999687468E+00 0.  0.
          4    1    3    3  501    0  0.12969283918E+02 -0.29943861038E+01  0.12427486768E+04  0.12428199557E+04  0.00000000000E+00 0.  1.
   -9000007    1    1    2    0  503 -0.26482114399E+03  0.60397353488E+02 -0.15380252879E+02  0.48375058738E+03  0.40000000000E+03 0. -1.
<mgrwt>
<rscale>  2 0.48377498E+03</rscale>
<asrwt>0</asrwt>
<pdfrwt beam="1">  1       21 0.30355045E+00 0.48386466E+03</pdfrwt>
<pdfrwt beam="2">  1       21 0.43573154E-01 0.48386466E+03</pdfrwt>
<totfact> 0.12523661E+02</totfact>
</mgrwt>
</event>
<event>
 6    1  0.9163926E-004  0.4598236E+03  0.7818608E-02  0.1024891E+00
         21   -1    0    0  501  502  0.00000000000E+00  0.00000000000E+00  0.20428537833E+03  0.20428537833E+03  0.00000000000E+00 0. -1.
         21   -1    0    0  502  503 -0.00000000000E+00 -0.00000000000E+00 -0.10804580877E+04  0.10804580877E+04  0.00000000000E+00 0. -1.
    9000007    2    1    2  501    0 -0.19940991258E+03 -0.10804345197E+03 -0.30336742396E+03  0.55020715259E+03  0.39907194350E+03 0.  0.
    9000005    1    3    3    0    0 -0.74115016611E+02 -0.26211821987E+02  0.95787676891E+02  0.12392083899E+03  0.99999687468E+00 0.  0.
          4    1    3    3  501    0 -0.12529489597E+03 -0.81831629984E+02 -0.39915510085E+03  0.42628631360E+03  0.00000000000E+00 0.  1.
   -9000007    1    1    2    0  503  0.19940991258E+03  0.10804345197E+03 -0.57280528536E+03  0.73453631339E+03  0.40000000000E+03 0. -1.
<mgrwt>
<rscale>  2 0.45962165E+03</rscale>
<asrwt>0</asrwt>
<pdfrwt beam="1">  1       21 0.31428519E-01 0.45982355E+03</pdfrwt>
<pdfrwt beam="2">  1       21 0.16622432E+00 0.45982355E+03</pdfrwt>
<totfact> 0.18740281E+03</totfact>
</mgrwt>
</event>
<event>
 6    1  0.9163926E-004  0.4347340E+03  0.7818608E-02  0.1032394E+00
         21   -1    0    0  501  502  0.00000000000E+00  0.00000000000E+00  0.39493024294E+03  0.39493024294E+03  0.00000000000E+00 0.  1.
         21   -1    0    0  502  503 -0.00000000000E+00 -0.00000000000E+00 -0.47888164937E+03  0.47888164937E+03  0.00000000000E+00 0.  1.
    9000007    2    1    2  501    0 -0.16891843963E+03 -0.21452933599E+02 -0.26408107680E+02  0.43528606772E+03  0.39972853913E+03 0.  0.
    9000005    1    3    3    0    0  0.11918279763E+03 -0.57534891937E+02  0.38367326331E+02  0.13779642508E+03  0.99999687468E+00 0.  0.
          4    1    3    3  501    0 -0.28810123726E+03  0.36081958338E+02 -0.64775434011E+02  0.29748964264E+03  0.00000000000E+00 0.  1.
   -9000007    1    1    2    0  503  0.16891843963E+03  0.21452933599E+02 -0.57543298750E+02  0.43852582460E+03  0.40000000000E+03 0.  1.
<mgrwt>
<rscale>  2 0.43467157E+03</rscale>
<asrwt>0</asrwt>
<pdfrwt beam="1">  1       21 0.60758499E-01 0.43473402E+03</pdfrwt>
<pdfrwt beam="2">  1       21 0.73674099E-01 0.43473402E+03</pdfrwt>
<totfact> 0.36680755E+03</totfact>
</mgrwt>
</event>
<event>
 6    1  0.9163926E-004  0.4328586E+03  0.7818608E-02  0.1033045E+00
         21   -1    0    0  501  502  0.00000000000E+00  0.00000000000E+00  0.60828332520E+03  0.60828332520E+03  0.00000000000E+00 0.  1.
         21   -1    0    0  502  503 -0.00000000000E+00 -0.00000000000E+00 -0.31239922474E+03  0.31239922474E+03  0.00000000000E+00 0. -1.
    9000007    2    1    2  501    0  0.61132727449E+02  0.15371848866E+03  0.20679961775E+03  0.47875197940E+03  0.39883679840E+03 0.  0.
    9000005    1    3    3    0    0  0.51344025498E+02 -0.25558440944E+02 -0.10460210703E+03  0.11929812927E+03  0.99999687468E+00 0.  0.
          4    1    3    3  501    0  0.97887019514E+01  0.17927692960E+03  0.31140172478E+03  0.35945385012E+03  0.00000000000E+00 0.  1.
   -9000007    1    1    2    0  503 -0.61132727449E+02 -0.15371848866E+03  0.89084482715E+02  0.44193057054E+03  0.40000000000E+03 0. -1.
<mgrwt>
<rscale>  2 0.43258970E+03</rscale>
<asrwt>0</asrwt>
<pdfrwt beam="1">  1       21 0.93582050E-01 0.43285862E+03</pdfrwt>
<pdfrwt beam="2">  1       21 0.48061419E-01 0.43285862E+03</pdfrwt>
<totfact> 0.34842542E+03</totfact>
</mgrwt>
</event>
<event>
 6    1  0.9163926E-004  0.4457671E+03  0.7818608E-02  0.1029008E+00
         21   -1    0    0  501  502  0.00000000000E+00  0.00000000000E+00  0.15448748051E+04  0.15448748051E+04  0.00000000000E+00 0. -1.
         21   -1    0    0  502  503 -0.00000000000E+00 -0.00000000000E+00 -0.16171285953E+03  0.16171285953E+03  0.00000000000E+00 0.  1.
    9000007    2    1    2  501    0 -0.13089510106E+03 -0.14688358306E+03  0.10777833147E+04  0.11662503416E+04  0.39976827210E+03 0.  0.
    9000005    1    3    3    0    0 -0.10784872063E+03  0.43259755546E+02  0.89158484883E+03  0.89912585084E+03  0.99999687468E+00 0.  0.
          4    1    3    3  501    0 -0.23046380438E+02 -0.19014333861E+03  0.18619846585E+03  0.26712449074E+03  0.00000000000E+00 0.  1.
   -9000007    1    1    2    0  503  0.13089510106E+03  0.14688358306E+03  0.30537863087E+03  0.54033732302E+03  0.40000000000E+03 0.  1.
<mgrwt>
<rscale>  2 0.44571512E+03</rscale>
<asrwt>0</asrwt>
<pdfrwt beam="1">  1       21 0.23767304E+00 0.44576711E+03</pdfrwt>
<pdfrwt beam="2">  1       21 0.24878903E-01 0.44576711E+03</pdfrwt>
<totfact> 0.99370218E+02</totfact>
</mgrwt>
</event>
<event>
 6    1  0.9163926E-004  0.4183825E+03  0.7818608E-02  0.1037602E+00
         21   -1    0    0  501  502  0.00000000000E+00  0.00000000000E+00  0.35579973085E+03  0.35579973085E+03  0.00000000000E+00 0.  1.
         21   -1    0    0  502  503 -0.00000000000E+00 -0.00000000000E+00 -0.88666374216E+03  0.88666374216E+03  0.00000000000E+00 0.  1.
    9000007    2    1    2  501    0  0.52772992382E+02 -0.11035013070E+03  0.14909012932E+03  0.44415289847E+03  0.40010222505E+03 0.  0.
    9000005    1    3    3    0    0  0.15923210662E+03  0.81913423714E+02  0.86871027268E+00  0.17907101221E+03  0.99999687468E+00 0.  0.
          4    1    3    3  501    0 -0.10645911423E+03 -0.19226355442E+03  0.14822141905E+03  0.26508188626E+03  0.00000000000E+00 0.  1.
   -9000007    1    1    2    0  503 -0.52772992382E+02  0.11035013070E+03 -0.67995414063E+03  0.79831057454E+03  0.40000000000E+03 0.  1.
<mgrwt>
<rscale>  2 0.41835808E+03</rscale>
<asrwt>0</asrwt>
<pdfrwt beam="1">  1       21 0.54738420E-01 0.41838252E+03</pdfrwt>
<pdfrwt beam="2">  1       21 0.13640981E+00 0.41838252E+03</pdfrwt>
<totfact> 0.10353071E+03</totfact>
</mgrwt>
</event>
<event>
 6    1  0.9163926E-004  0.4180325E+03  0.7818608E-02  0.1037769E+00
         21   -1    0    0  501  502  0.00000000000E+00  0.00000000000E+00  0.36184897582E+03  0.36184897582E+03  0.00000000000E+00 0.  1.
         21   -1    0    0  502  503 -0.00000000000E+00 -0.00000000000E+00 -0.57883212096E+03  0.57883212096E+03  0.00000000000E+00 0.  1.
    9000007    2    1    2  501    0  0.87172125004E+02 -0.80839685458E+02  0.83716436627E+02  0.42633270065E+03  0.40077062737E+03 0.  0.
    9000005    1    3    3    0    0 -0.13997074697E+03  0.58249386546E+02  0.26443552977E+02  0.15389952088E+03  0.99999687468E+00 0.  0.
          4    1    3    3  501    0  0.22714287197E+03 -0.13908907200E+03  0.57272883651E+02  0.27243317977E+03  0.00000000000E+00 0.  1.
   -9000007    1    1    2    0  503 -0.87172125004E+02  0.80839685458E+02 -0.30069958177E+03  0.51434839613E+03  0.40000000000E+03 0.  1.
<mgrwt>
<rscale>  2 0.41784764E+03</rscale>
<asrwt>0</asrwt>
<pdfrwt beam="1">  1       21 0.55669073E-01 0.41803245E+03</pdfrwt>
<pdfrwt beam="2">  1       21 0.89051096E-01 0.41803245E+03</pdfrwt>
<totfact> 0.28796826E+03</totfact>
</mgrwt>
</event>
<event>
 6    1  0.9163926E-004  0.4171920E+03  0.7818608E-02  0.1037990E+00
         21   -1    0    0  501  502  0.00000000000E+00  0.00000000000E+00  0.46613784503E+03  0.46613784503E+03  0.00000000000E+00 0. -1.
         21   -1    0    0  502  503 -0.00000000000E+00 -0.00000000000E+00 -0.70255417603E+03  0.70255417603E+03  0.00000000000E+00 0. -1.
    9000007    2    1    2  501    0  0.10203337915E+03 -0.59816143298E+02  0.28180671047E+03  0.50345228821E+03  0.40007549660E+03 0.  0.
    9000005    1    3    3    0    0 -0.10647676598E+03 -0.11043307360E+03  0.24001763900E+03  0.28485475678E+03  0.99999687468E+00 0.  0.
          4    1    3    3  501    0  0.20851014512E+03  0.50616930304E+02  0.41789071467E+02  0.21859753143E+03  0.00000000000E+00 0.  1.
   -9000007    1    1    2    0  503 -0.10203337915E+03  0.59816143298E+02 -0.51822304147E+03  0.66523973285E+03  0.40000000000E+03 0. -1.
<mgrwt>
<rscale>  2 0.41717392E+03</rscale>
<asrwt>0</asrwt>
<pdfrwt beam="1">  1       21 0.71713515E-01 0.41719202E+03</pdfrwt>
<pdfrwt beam="2">  1       21 0.10808526E+00 0.41719202E+03</pdfrwt>
<totfact> 0.10317253E+03</totfact>
</mgrwt>
</event>
<event>
 6    1  0.9163926E-004  0.4692479E+03  0.7818608E-02  0.1022138E+00
         21   -1    0    0  501  502  0.00000000000E+00  0.00000000000E+00  0.17763846718E+03  0.17763846718E+03  0.00000000000E+00 0. -1.
         21   -1    0    0  502  503 -0.00000000000E+00 -0.00000000000E+00 -0.12583614395E+04  0.12583614395E+04  0.00000000000E+00 0. -1.
    9000007    2    1    2  501    0  0.72860953126E+02 -0.23427525017E+03 -0.62856438721E+03  0.78435506673E+03  0.39990757747E+03 0.  0.
    9000005    1    3    3    0    0 -0.10644154520E+02 -0.32916956654E+03 -0.53030656912E+03  0.62425312079E+03  0.99999687468E+00 0.  0.
          4    1    3    3  501    0  0.83505107646E+02  0.94894316368E+02 -0.98257818083E+02  0.16010194595E+03  0.00000000000E+00 0.  1.
   -9000007    1    1    2    0  503 -0.72860953126E+02  0.23427525017E+03 -0.45215858513E+03  0.65164483996E+03  0.40000000000E+03 0. -1.
<mgrwt>
<rscale>  2 0.46922822E+03</rscale>
<asrwt>0</asrwt>
<pdfrwt beam="1">  1       21 0.27328995E-01 0.46924792E+03</pdfrwt>
<pdfrwt beam="2">  1       21 0.19359406E+00 0.46924792E+03</pdfrwt>
<totfact> 0.15778977E+03</totfact>
</mgrwt>
</event>
<event>
 6    1  0.9163926E-004  0.4755922E+03  0.7818608E-02  0.1020380E+00
         21   -1    0    0  501  502  0.00000000000E+00  0.00000000000E+00  0.12837228015E+04  0.12837228015E+04  0.00000000000E+00 0. -1.
         21   -1    0    0  502  503 -0.00000000000E+00 -0.00000000000E+00 -0.18058205483E+03  0.18058205483E+03  0.00000000000E+00 0.  1.
    9000007    2    1    2  501    0 -0.24860719932E+03 -0.63426127658E+02  0.66768489605E+03  0.81975058316E+03  0.40044910407E+03 0.  0.
    9000005    1    3    3    0    0  0.31538219519E+02 -0.14164371405E+03  0.39595531228E+03  0.42170986512E+03  0.99999687468E+00 0.  0.
          4    1    3    3  501    0 -0.28014541884E+03  0.78217586397E+02  0.27172958376E+03  0.39804071804E+03  0.00000000000E+00 0.  1.
   -9000007    1    1    2    0  503  0.24860719932E+03  0.63426127658E+02  0.43545585060E+03  0.64455427316E+03  0.40000000000E+03 0. -1.
<mgrwt>
<rscale>  2 0.47549761E+03</rscale>
<asrwt>0</asrwt>
<pdfrwt beam="1">  1       21 0.19749581E+00 0.47559216E+03</pdfrwt>
<pdfrwt beam="2">  1       21 0.27781855E-01 0.47559216E+03</pdfrwt>
<totfact> 0.14337540E+03</totfact>
</mgrwt>
</event>
<event>
 6    1  0.9163926E-004  0.4958654E+03  0.7818608E-02  0.1014872E+00
         21   -1    0    0  501  502  0.00000000000E+00  0.00000000000E+00  0.11528275946E+04  0.11528275946E+04  0.00000000000E+00 0. -1.
         21   -1    0    0  502  503 -0.00000000000E+00 -0.00000000000E+00 -0.25722831266E+03  0.25722831266E+03  0.00000000000E+00 0.  1.
    9000007    2    1    2  501    0 -0.28292934587E+03 -0.75571909036E+02  0.73941950097E+03  0.89029418093E+03  0.40015297326E+03 0.  0.
    9000005    1    3    3    0    0 -0.34276384826E+03 -0.77844834883E+02  0.75111061328E+03  0.82928585383E+03  0.99999687468E+00 0.  0.
          4    1    3    3  501    0  0.59834502391E+02  0.22729258474E+01 -0.11691112315E+02  0.61008327099E+02  0.00000000000E+00 0.  1.
   -9000007    1    1    2    0  503  0.28292934587E+03  0.75571909036E+02  0.15617978100E+03  0.51976172636E+03  0.40000000000E+03 0.  1.
<mgrwt>
<rscale>  2 0.49583457E+03</rscale>
<asrwt>0</asrwt>
<pdfrwt beam="1">  1       21 0.17735809E+00 0.49586544E+03</pdfrwt>
<pdfrwt beam="2">  1       21 0.39573587E-01 0.49586544E+03</pdfrwt>
<totfact> 0.96087758E+02</totfact>
</mgrwt>
</event>
<event>
 6    1  0.9163926E-004  0.5866497E+03  0.7818608E-02  0.9934428E-01
         21   -1    0    0  501  502  0.00000000000E+00  0.00000000000E+00  0.11658033021E+04  0.11658033021E+04  0.00000000000E+00 0.  1.
         21   -1    0    0  502  503 -0.00000000000E+00 -0.00000000000E+00 -0.33754699851E+03  0.33754699851E+03  0.00000000000E+00 0. -1.
    9000007    2    1    2  501    0 -0.32287677217E+03 -0.27904800692E+03  0.68361076932E+03  0.90082268236E+03  0.40254269457E+03 0.  0.
    9000005    1    3    3    0    0 -0.33800845892E+03 -0.26735120793E+03  0.32016331732E+03  0.53687236513E+03  0.99999687468E+00 0.  0.
          4    1    3    3  501    0  0.15131686754E+02 -0.11696798994E+02  0.36344745200E+03  0.36395031723E+03  0.00000000000E+00 0.  1.
   -9000007    1    1    2    0  503  0.32287677217E+03  0.27904800692E+03  0.14464553429E+03  0.60252761826E+03  0.40000000000E+03 0. -1.
<mgrwt>
<rscale>  2 0.58621372E+03</rscale>
<asrwt>0</asrwt>
<pdfrwt beam="1">  1       21 0.17935435E+00 0.58664966E+03</pdfrwt>
<pdfrwt beam="2">  1       21 0.51930308E-01 0.58664966E+03</pdfrwt>
<totfact> 0.50698082E+02</totfact>
</mgrwt>
</event>
<event>
 6    1  0.9163926E-004  0.5491607E+03  0.7818608E-02  0.1001717E+00
         21   -1    0    0  501  502  0.00000000000E+00  0.00000000000E+00  0.37649906502E+03  0.37649906502E+03  0.00000000000E+00 0.  1.
         21   -1    0    0  502  503 -0.00000000000E+00 -0.00000000000E+00 -0.12549266236E+04  0.12549266236E+04  0.00000000000E+00 0.  1.
    9000007    2    1    2  501    0  0.31334625151E+03 -0.20700910652E+03  0.51637725982E+02  0.55158307183E+03  0.40067291756E+03 0.  0.
    9000005    1    3    3    0    0  0.26740236631E+03  0.57235406542E+02 -0.19332143739E+02  0.27414348259E+03  0.99999687468E+00 0.  0.
          4    1    3    3  501    0  0.45943885197E+02 -0.26424451306E+03  0.70969869721E+02  0.27743958924E+03  0.00000000000E+00 0.  1.
   -9000007    1    1    2    0  503 -0.31334625151E+03  0.20700910652E+03 -0.93006528459E+03  0.10798426168E+04  0.40000000000E+03 0.  1.
<mgrwt>
<rscale>  2 0.54903793E+03</rscale>
<asrwt>0</asrwt>
<pdfrwt beam="1">  1       21 0.57922932E-01 0.54916066E+03</pdfrwt>
<pdfrwt beam="2">  1       21 0.19306564E+00 0.54916066E+03</pdfrwt>
<totfact> 0.32560858E+02</totfact>
</mgrwt>
</event>
<event>
 6    1  0.9163926E-004  0.4045676E+03  0.7818608E-02  0.1042223E+00
         21   -1    0    0  501  502  0.00000000000E+00  0.00000000000E+00  0.33878230647E+03  0.33878230647E+03  0.00000000000E+00 0.  1.
         21   -1    0    0  502  503 -0.00000000000E+00 -0.00000000000E+00 -0.15534503443E+04  0.15534503443E+04  0.00000000000E+00 0.  1.
    9000007    2    1    2  501    0  0.87462567580E+01 -0.59987075065E+02  0.17810772445E+03  0.44188811578E+03  0.39983471483E+03 0.  0.
    9000005    1    3    3    0    0  0.28059866005E+02 -0.21825542286E+03  0.26099304577E+02  0.22159638846E+03  0.99999687468E+00 0.  0.
          4    1    3    3  501    0 -0.19313609247E+02  0.15826834779E+03  0.15200841987E+03  0.22029172732E+03  0.00000000000E+00 0.  1.
   -9000007    1    1    2    0  503 -0.87462567580E+01  0.59987075065E+02 -0.13927757622E+04  0.14503445349E+04  0.40000000000E+03 0.  1.
<mgrwt>
<rscale>  2 0.40452674E+03</rscale>
<asrwt>0</asrwt>
<pdfrwt beam="1">  1       21 0.52120355E-01 0.40456760E+03</pdfrwt>
<pdfrwt beam="2">  1       21 0.23899236E+00 0.40456760E+03</pdfrwt>
<totfact> 0.22185446E+02</totfact>
</mgrwt>
</event>
<event>
 6    1  0.9163926E-004  0.4120521E+03  0.7818608E-02  0.1039728E+00
         21   -1    0    0  501  502  0.00000000000E+00  0.00000000000E+00  0.38903753880E+03  0.38903753880E+03  0.00000000000E+00 0.  1.
         21   -1    0    0  502  503 -0.00000000000E+00 -0.00000000000E+00 -0.45420692109E+03  0.45420692109E+03  0.00000000000E+00 0.  1.
    9000007    2    1    2  501    0  0.93593055077E+02 -0.32051251049E+02  0.52121106917E+02  0.41482410380E+03  0.39946900337E+03 0.  0.
    9000005    1    3    3    0    0 -0.13461371557E+03 -0.10412347436E+03  0.42000996391E+02  0.17529299480E+03  0.99999687468E+00 0.  0.
          4    1    3    3  501    0  0.22820677065E+03  0.72072223307E+02  0.10120110526E+02  0.23953110900E+03  0.00000000000E+00 0.  1.
   -9000007    1    1    2    0  503 -0.93593055077E+02  0.32051251049E+02 -0.11729048921E+03  0.42842035609E+03  0.40000000000E+03 0.  1.
<mgrwt>
<rscale>  2 0.41192319E+03</rscale>
<asrwt>0</asrwt>
<pdfrwt beam="1">  1       21 0.59851929E-01 0.41205211E+03</pdfrwt>
<pdfrwt beam="2">  1       21 0.69877988E-01 0.41205211E+03</pdfrwt>
<totfact> 0.43070958E+03</totfact>
</mgrwt>
</event>
<event>
 6    1  0.9163926E-004  0.5426173E+03  0.7818608E-02  0.1003247E+00
         21   -1    0    0  501  502  0.00000000000E+00  0.00000000000E+00  0.16694301222E+04  0.16694301222E+04  0.00000000000E+00 0.  1.
         21   -1    0    0  502  503 -0.00000000000E+00 -0.00000000000E+00 -0.18674989814E+03  0.18674989814E+03  0.00000000000E+00 0.  1.
    9000007    2    1    2  501    0  0.16480357015E+03 -0.32752600747E+03  0.96157532618E+03  0.11038610608E+04  0.39931019435E+03 0.  0.
    9000005    1    3    3    0    0  0.14594534181E+03 -0.14739588687E+03  0.11307589342E+03  0.23624721782E+03  0.99999687468E+00 0.  0.
          4    1    3    3  501    0  0.18858228344E+02 -0.18013012060E+03  0.84849943276E+03  0.86761384298E+03  0.00000000000E+00 0.  1.
   -9000007    1    1    2    0  503 -0.16480357015E+03  0.32752600747E+03  0.52110489787E+03  0.75231895954E+03  0.40000000000E+03 0. -1.
<mgrwt>
<rscale>  2 0.54249015E+03</rscale>
<asrwt>0</asrwt>
<pdfrwt beam="1">  1       21 0.25683539E+00 0.54261727E+03</pdfrwt>
<pdfrwt beam="2">  1       21 0.28730755E-01 0.54261727E+03</pdfrwt>
<totfact> 0.54515248E+02</totfact>
</mgrwt>
</event>
<event>
 6    1  0.9163926E-004  0.6271176E+03  0.7818608E-02  0.9850762E-01
         21   -1    0    0  501  502  0.00000000000E+00  0.00000000000E+00  0.91479426556E+03  0.91479426556E+03  0.00000000000E+00 0. -1.
         21   -1    0    0  502  503 -0.00000000000E+00 -0.00000000000E+00 -0.13305492838E+04  0.13305492838E+04  0.00000000000E+00 0. -1.
    9000007    2    1    2  501    0 -0.33330899501E+02 -0.48164306858E+03  0.71582940563E+03  0.95167655097E+03  0.40023183947E+03 0.  0.
    9000005    1    3    3    0    0 -0.49993118758E+02 -0.41353239635E+03  0.76151004245E+03  0.86799014943E+03  0.99999687468E+00 0.  0.
          4    1    3    3  501    0  0.16662219257E+02 -0.68110672231E+02 -0.45680636823E+02  0.83686401541E+02  0.00000000000E+00 0.  1.
   -9000007    1    1    2    0  503  0.33330899501E+02  0.48164306858E+03 -0.11315844239E+04  0.12936669984E+04  0.40000000000E+03 0. -1.
<mgrwt>
<rscale>  2 0.62708064E+03</rscale>
<asrwt>0</asrwt>
<pdfrwt beam="1">  1       21 0.14073758E+00 0.62711763E+03</pdfrwt>
<pdfrwt beam="2">  1       21 0.20469989E+00 0.62711763E+03</pdfrwt>
<totfact> 0.31117759E+01</totfact>
</mgrwt>
</event>
<event>
 6    1  0.9163926E-004  0.4113284E+03  0.7818608E-02  0.1039977E+00
         21   -1    0    0  501  502  0.00000000000E+00  0.00000000000E+00  0.12909211247E+03  0.12909211247E+03  0.00000000000E+00 0.  1.
         21   -1    0    0  502  503 -0.00000000000E+00 -0.00000000000E+00 -0.17537493067E+04  0.17537493067E+04  0.00000000000E+00 0.  1.
    9000007    2    1    2  501    0  0.52186948806E+02  0.80421068374E+02 -0.33762930466E+03  0.53168198579E+03  0.39937596420E+03 0.  0.
    9000005    1    3    3    0    0 -0.15029776391E+03  0.91881253154E+02 -0.56432608847E+02  0.18497897678E+03  0.99999687468E+00 0.  0.
          4    1    3    3  501    0  0.20248471271E+03 -0.11460184780E+02 -0.28119669581E+03  0.34670300900E+03  0.00000000000E+00 0.  1.
   -9000007    1    1    2    0  503 -0.52186948806E+02 -0.80421068374E+02 -0.12870278896E+04  0.13511594334E+04  0.40000000000E+03 0.  1.
<mgrwt>
<rscale>  2 0.41117658E+03</rscale>
<asrwt>0</asrwt>
<pdfrwt beam="1">  1       21 0.19860325E-01 0.41132837E+03</pdfrwt>
<pdfrwt beam="2">  1       21 0.26980759E+00 0.41132837E+03</pdfrwt>
<totfact> 0.99224129E+02</totfact>
</mgrwt>
</event>
<event>
 6    1  0.9163926E-004  0.4567834E+03  0.7818608E-02  0.1025814E+00
         21   -1    0    0  501  502  0.00000000000E+00  0.00000000000E+00  0.20573745884E+03  0.20573745884E+03  0.00000000000E+00 0. -1.
         21   -1    0    0  502  503 -0.00000000000E+00 -0.00000000000E+00 -0.10190680073E+04  0.10190680073E+04  0.00000000000E+00 0. -1.
    9000007    2    1    2  501    0 -0.34881630905E+02 -0.21503739120E+03 -0.35363844007E+03  0.57767747085E+03  0.40148886191E+03 0.  0.
    9000005    1    3    3    0    0  0.73472979631E+02  0.31324169785E+02  0.48750039496E+02  0.93579103935E+02  0.99999687468E+00 0.  0.
          4    1    3    3  501    0 -0.10835461054E+03 -0.24636156099E+03 -0.40238847957E+03  0.48409836691E+03  0.00000000000E+00 0.  1.
   -9000007    1    1    2    0  503  0.34881630905E+02  0.21503739120E+03 -0.45969210841E+03  0.64712799532E+03  0.40000000000E+03 0. -1.
<mgrwt>
<rscale>  2 0.45645607E+03</rscale>
<asrwt>0</asrwt>
<pdfrwt beam="1">  1       21 0.31651918E-01 0.45678344E+03</pdfrwt>
<pdfrwt beam="2">  1       21 0.15677969E+00 0.45678344E+03</pdfrwt>
<totfact> 0.21787660E+03</totfact>
</mgrwt>
</event>
<event>
 6    1  0.9163926E-004  0.7642155E+03  0.7818608E-02  0.9613478E-01
         21   -1    0    0  501  502  0.00000000000E+00  0.00000000000E+00  0.38897462356E+03  0.38897462356E+03  0.00000000000E+00 0.  1.
         21   -1    0    0  502  503 -0.00000000000E+00 -0.00000000000E+00 -0.21482711898E+04  0.21482711898E+04  0.00000000000E+00 0. -1.
    9000007    2    1    2  501    0  0.36072028005E+02 -0.64965180153E+03 -0.18324396340E+03  0.78587764495E+03  0.40084494294E+03 0.  0.
    9000005    1    3    3    0    0  0.14623824843E+03 -0.28003429681E+03 -0.23905682857E+03  0.39617420408E+03  0.99999687468E+00 0.  0.
          4    1    3    3  501    0 -0.11016622042E+03 -0.36961750471E+03  0.55812865167E+02  0.38970344087E+03  0.00000000000E+00 0.  1.
   -9000007    1    1    2    0  503 -0.36072028005E+02  0.64965180153E+03 -0.15760526028E+04  0.17513681684E+04  0.40000000000E+03 0. -1.
<mgrwt>
<rscale>  2 0.76410476E+03</rscale>
<asrwt>0</asrwt>
<pdfrwt beam="1">  1       21 0.59842250E-01 0.76421549E+03</pdfrwt>
<pdfrwt beam="2">  1       21 0.33050326E+00 0.76421549E+03</pdfrwt>
<totfact> 0.37922951E+01</totfact>
</mgrwt>
</event>
<event>
 6    1  0.9163926E-004  0.4440240E+03  0.7818608E-02  0.1029533E+00
         21   -1    0    0  501  502  0.00000000000E+00  0.00000000000E+00  0.64870982186E+03  0.64870982186E+03  0.00000000000E+00 0.  1.
         21   -1    0    0  502  503 -0.00000000000E+00 -0.00000000000E+00 -0.96757322960E+03  0.96757322960E+03  0.00000000000E+00 0.  1.
    9000007    2    1    2  501    0  0.12866232609E+03 -0.14353846351E+03  0.50993242106E+03  0.67603850322E+03  0.39979957369E+03 0.  0.
    9000005    1    3    3    0    0  0.19212248293E+03  0.73039813311E+02  0.16377800628E+03  0.26281190634E+03  0.99999687468E+00 0.  0.
          4    1    3    3  501    0 -0.63460156847E+02 -0.21657827682E+03  0.34615441478E+03  0.41322659688E+03  0.00000000000E+00 0.  1.
   -9000007    1    1    2    0  503 -0.12866232609E+03  0.14353846351E+03 -0.82879582880E+03  0.94024454824E+03  0.40000000000E+03 0.  1.
<mgrwt>
<rscale>  2 0.44397883E+03</rscale>
<asrwt>0</asrwt>
<pdfrwt beam="1">  1       21 0.99801511E-01 0.44402397E+03</pdfrwt>
<pdfrwt beam="2">  1       21 0.14885742E+00 0.44402397E+03</pdfrwt>
<totfact> 0.20612337E+02</totfact>
</mgrwt>
</event>
<event>
 6    1  0.9163926E-004  0.4759955E+03  0.7818608E-02  0.1020278E+00
         21   -1    0    0  501  502  0.00000000000E+00  0.00000000000E+00  0.60216687463E+03  0.60216687463E+03  0.00000000000E+00 0. -1.
         21   -1    0    0  502  503 -0.00000000000E+00 -0.00000000000E+00 -0.66069609454E+03  0.66069609454E+03  0.00000000000E+00 0. -1.
    9000007    2    1    2  501    0 -0.23682818977E+03 -0.10239182150E+03  0.38534811173E+03  0.61201831633E+03  0.39937648371E+03 0.  0.
    9000005    1    3    3    0    0  0.61610828684E+02  0.97782120577E+02  0.10651408249E+03  0.15717342994E+03  0.99999687468E+00 0.  0.
          4    1    3    3  501    0 -0.29843901845E+03 -0.20017394207E+03  0.27883402924E+03  0.45484488640E+03  0.00000000000E+00 0.  1.
   -9000007    1    1    2    0  503  0.23682818977E+03  0.10239182150E+03 -0.44387733164E+03  0.65084465283E+03  0.40000000000E+03 0. -1.
<mgrwt>
<rscale>  2 0.47586444E+03</rscale>
<asrwt>0</asrwt>
<pdfrwt beam="1">  1       21 0.92641058E-01 0.47599546E+03</pdfrwt>
<pdfrwt beam="2">  1       21 0.10164555E+00 0.47599546E+03</pdfrwt>
<totfact> 0.64601683E+02</totfact>
</mgrwt>
</event>
<event>
 6    1  0.9163926E-004  0.4253960E+03  0.7818608E-02  0.1035336E+00
         21   -1    0    0  501  502  0.00000000000E+00  0.00000000000E+00  0.10230505157E+03  0.10230505157E+03  0.00000000000E+00 0. -1.
         21   -1    0    0  502  503 -0.00000000000E+00 -0.00000000000E+00 -0.17897620671E+04  0.17897620671E+04  0.00000000000E+00 0.  1.
    9000007    2    1    2  501    0 -0.14181410100E+03 -0.29164134054E+02 -0.73987998483E+03  0.85338332892E+03  0.39984863157E+03 0.  0.
    9000005    1    3    3    0    0  0.92513709994E+01 -0.95428577225E+02 -0.55916271734E+00  0.95882813232E+02  0.99999687468E+00 0.  0.
          4    1    3    3  501    0 -0.15106547200E+03  0.66264443171E+02 -0.73932082211E+03  0.75750051568E+03  0.00000000000E+00 0.  1.
   -9000007    1    1    2    0  503  0.14181410100E+03  0.29164134054E+02 -0.94757703069E+03  0.10386837897E+04  0.40000000000E+03 0.  1.
<mgrwt>
<rscale>  2 0.42536045E+03</rscale>
<asrwt>0</asrwt>
<pdfrwt beam="1">  1       21 0.15739239E-01 0.42539603E+03</pdfrwt>
<pdfrwt beam="2">  1       21 0.27534800E+00 0.42539603E+03</pdfrwt>
<totfact> 0.14114966E+03</totfact>
</mgrwt>
</event>
<event>
 6    1  0.9163926E-004  0.4440095E+03  0.7818608E-02  0.1029762E+00
         21   -1    0    0  501  502  0.00000000000E+00  0.00000000000E+00  0.36410100554E+03  0.36410100554E+03  0.00000000000E+00 0.  1.
         21   -1    0    0  502  503 -0.00000000000E+00 -0.00000000000E+00 -0.65148618313E+03  0.65148618313E+03  0.00000000000E+00 0.  1.
    9000007    2    1    2  501    0 -0.33507179411E+02  0.18979374378E+03  0.69000820736E+02  0.44624074225E+03  0.39651644421E+03 0.  0.
    9000005    1    3    3    0    0  0.18058375268E+03  0.63954927724E+02  0.15461786304E+02  0.19219987342E+03  0.99999687468E+00 0.  0.
          4    1    3    3  501    0 -0.21409093209E+03  0.12583881605E+03  0.53539034432E+02  0.25404086883E+03  0.00000000000E+00 0.  1.
   -9000007    1    1    2    0  503  0.33507179411E+02 -0.18979374378E+03 -0.35638599832E+03  0.56934644642E+03  0.40000000000E+03 0.  1.
<mgrwt>
<rscale>  2 0.44322345E+03</rscale>
<asrwt>0</asrwt>
<pdfrwt beam="1">  1       21 0.56015540E-01 0.44400946E+03</pdfrwt>
<pdfrwt beam="2">  1       21 0.10022864E+00 0.44400946E+03</pdfrwt>
<totfact> 0.21202830E+03</totfact>
</mgrwt>
</event>
<event>
 6    1  0.9163926E-004  0.4184719E+03  0.7818608E-02  0.1037566E+00
         21   -1    0    0  501  502  0.00000000000E+00  0.00000000000E+00  0.13228942926E+03  0.13228942926E+03  0.00000000000E+00 0.  1.
         21   -1    0    0  502  503 -0.00000000000E+00 -0.00000000000E+00 -0.14955007663E+04  0.14955007663E+04  0.00000000000E+00 0. -1.
    9000007    2    1    2  501    0 -0.31433115258E+02 -0.11880592958E+03 -0.40575556775E+03  0.58288616180E+03  0.40001975853E+03 0.  0.
    9000005    1    3    3    0    0 -0.16633980142E+03 -0.11135821359E+02 -0.37111090946E+03  0.40683810437E+03  0.99999687468E+00 0.  0.
          4    1    3    3  501    0  0.13490668616E+03 -0.10767010822E+03 -0.34644658294E+02  0.17604805743E+03  0.00000000000E+00 0.  1.
   -9000007    1    1    2    0  503  0.31433115258E+02  0.11880592958E+03 -0.95745576933E+03  0.10449040338E+04  0.40000000000E+03 0. -1.
<mgrwt>
<rscale>  2 0.41846714E+03</rscale>
<asrwt>0</asrwt>
<pdfrwt beam="1">  1       21 0.20352219E-01 0.41847186E+03</pdfrwt>
<pdfrwt beam="2">  1       21 0.23007705E+00 0.41847186E+03</pdfrwt>
<totfact> 0.16532345E+03</totfact>
</mgrwt>
</event>
<event>
 6    1  0.9163926E-004  0.4624660E+03  0.7818608E-02  0.1024102E+00
         21   -1    0    0  501  502  0.00000000000E+00  0.00000000000E+00  0.14604422454E+04  0.14604422454E+04  0.00000000000E+00 0.  1.
         21   -1    0    0  502  503 -0.00000000000E+00 -0.00000000000E+00 -0.15408659334E+03  0.15408659334E+03  0.00000000000E+00 0.  1.
    9000007    2    1    2  501    0 -0.41440721167E+02 -0.22838013873E+03  0.83436852354E+03  0.95373638218E+03  0.39945892466E+03 0.  0.
    9000005    1    3    3    0    0 -0.21245953728E+02 -0.14141207417E+03  0.32159353061E+02  0.14657417662E+03  0.99999687468E+00 0.  0.
          4    1    3    3  501    0 -0.20194767439E+02 -0.86968064567E+02  0.80220917048E+03  0.80716220556E+03  0.00000000000E+00 0.  1.
   -9000007    1    1    2    0  503  0.41440721167E+02  0.22838013873E+03  0.47198712848E+03  0.66079245651E+03  0.40000000000E+03 0.  1.
<mgrwt>
<rscale>  2 0.46234900E+03</rscale>
<asrwt>0</asrwt>
<pdfrwt beam="1">  1       21 0.22468341E+00 0.46246602E+03</pdfrwt>
<pdfrwt beam="2">  1       21 0.23705631E-01 0.46246602E+03</pdfrwt>
<totfact> 0.13067153E+03</totfact>
</mgrwt>
</event>
<event>
 6    1  0.9163926E-004  0.4584085E+03  0.7818608E-02  0.1025277E+00
         21   -1    0    0  501  502  0.00000000000E+00  0.00000000000E+00  0.11796169734E+04  0.11796169734E+04  0.00000000000E+00 0.  1.
         21   -1    0    0  502  503 -0.00000000000E+00 -0.00000000000E+00 -0.18036323310E+03  0.18036323310E+03  0.00000000000E+00 0.  1.
    9000007    2    1    2  501    0  0.48112425376E+02 -0.21771688128E+03  0.42141322497E+03  0.62267761798E+03  0.40052823107E+03 0.  0.
    9000005    1    3    3    0    0 -0.13195108602E+03  0.45332678109E+02  0.13455542277E+03  0.19383576192E+03  0.99999687468E+00 0.  0.
          4    1    3    3  501    0  0.18006351140E+03 -0.26304955939E+03  0.28685780220E+03  0.42884185607E+03  0.00000000000E+00 0.  1.
   -9000007    1    1    2    0  503 -0.48112425376E+02  0.21771688128E+03  0.57784051528E+03  0.73730258847E+03  0.40000000000E+03 0.  1.
<mgrwt>
<rscale>  2 0.45829304E+03</rscale>
<asrwt>0</asrwt>
<pdfrwt beam="1">  1       21 0.18147953E+00 0.45840845E+03</pdfrwt>
<pdfrwt beam="2">  1       21 0.27748190E-01 0.45840845E+03</pdfrwt>
<totfact> 0.18645904E+03</totfact>
</mgrwt>
</event>
<event>
 6    1  0.9163926E-004  0.4245669E+03  0.7818608E-02  0.1035653E+00
         21   -1    0    0  501  502  0.00000000000E+00  0.00000000000E+00  0.20306811161E+04  0.20306811161E+04  0.00000000000E+00 0.  1.
         21   -1    0    0  502  503 -0.00000000000E+00 -0.00000000000E+00 -0.12258545263E+03  0.12258545263E+03  0.00000000000E+00 0. -1.
    9000007    2    1    2  501    0  0.65305389643E+01  0.13981270836E+03  0.15215502903E+04  0.15796747567E+04  0.40083264534E+03 0.  0.
    9000005    1    3    3    0    0  0.19081784461E+03  0.76489368810E+01  0.55721362897E+03  0.58903139506E+03  0.99999687468E+00 0.  0.
          4    1    3    3  501    0 -0.18428730564E+03  0.13216377148E+03  0.96433666135E+03  0.99064336163E+03  0.00000000000E+00 0.  1.
   -9000007    1    1    2    0  503 -0.65305389643E+01 -0.13981270836E+03  0.38654537320E+03  0.57359181209E+03  0.40000000000E+03 0. -1.
<mgrwt>
<rscale>  2 0.42437026E+03</rscale>
<asrwt>0</asrwt>
<pdfrwt beam="1">  1       21 0.31241245E+00 0.42456690E+03</pdfrwt>
<pdfrwt beam="2">  1       21 0.18859302E-01 0.42456690E+03</pdfrwt>
<totfact> 0.60276483E+02</totfact>
</mgrwt>
</event>
<event>
 6    1  0.9163926E-004  0.4143619E+03  0.7818608E-02  0.1038940E+00
         21   -1    0    0  501  502  0.00000000000E+00  0.00000000000E+00  0.40073955908E+03  0.40073955908E+03  0.00000000000E+00 0.  1.
         21   -1    0    0  502  503 -0.00000000000E+00 -0.00000000000E+00 -0.47250821277E+03  0.47250821277E+03  0.00000000000E+00 0.  1.
    9000007    2    1    2  501    0  0.84012562868E+02 -0.68100740434E+02  0.97887918115E+02  0.42549876412E+03  0.39971406304E+03 0.  0.
    9000005    1    3    3    0    0  0.13204165968E+03 -0.69969302423E+02 -0.12664162842E+03  0.19588212071E+03  0.99999687468E+00 0.  0.
          4    1    3    3  501    0 -0.48029096810E+02  0.18685619888E+01  0.22452954654E+03  0.22961664341E+03  0.00000000000E+00 0.  1.
   -9000007    1    1    2    0  503 -0.84012562868E+02  0.68100740434E+02 -0.16965657181E+03  0.44774900773E+03  0.40000000000E+03 0.  1.
<mgrwt>
<rscale>  2 0.41429292E+03</rscale>
<asrwt>0</asrwt>
<pdfrwt beam="1">  1       21 0.61652240E-01 0.41436195E+03</pdfrwt>
<pdfrwt beam="2">  1       21 0.72693571E-01 0.41436195E+03</pdfrwt>
<totfact> 0.36890506E+03</totfact>
</mgrwt>
</event>
<event>
 6    1  0.9163926E-004  0.4505616E+03  0.7818608E-02  0.1027573E+00
         21   -1    0    0  501  502  0.00000000000E+00  0.00000000000E+00  0.75045428387E+03  0.75045428387E+03  0.00000000000E+00 0.  1.
         21   -1    0    0  502  503 -0.00000000000E+00 -0.00000000000E+00 -0.64605671803E+03  0.64605671803E+03  0.00000000000E+00 0.  1.
    9000007    2    1    2  501    0 -0.58883096057E+02  0.19884310722E+03  0.58466183628E+03  0.73798266556E+03  0.39972884758E+03 0.  0.
    9000005    1    3    3    0    0 -0.10866091849E+03 -0.94727440570E+02  0.12778617812E+03  0.19264161159E+03  0.99999687468E+00 0.  0.
          4    1    3    3  501    0  0.49777822429E+02  0.29357054779E+03  0.45687565816E+03  0.54534105398E+03  0.00000000000E+00 0.  1.
   -9000007    1    1    2    0  503  0.58883096057E+02 -0.19884310722E+03 -0.48026427044E+03  0.65852833633E+03  0.40000000000E+03 0.  1.
<mgrwt>
<rscale>  2 0.45050146E+03</rscale>
<asrwt>0</asrwt>
<pdfrwt beam="1">  1       21 0.11545451E+00 0.45056165E+03</pdfrwt>
<pdfrwt beam="2">  1       21 0.99393341E-01 0.45056165E+03</pdfrwt>
<totfact> 0.40238041E+02</totfact>
</mgrwt>
</event>
<event>
 6    1  0.9163926E-004  0.4406762E+03  0.7818608E-02  0.1030546E+00
         21   -1    0    0  501  502  0.00000000000E+00  0.00000000000E+00  0.13185083909E+04  0.13185083909E+04  0.00000000000E+00 0. -1.
         21   -1    0    0  502  503 -0.00000000000E+00 -0.00000000000E+00 -0.15019659228E+03  0.15019659228E+03  0.00000000000E+00 0. -1.
    9000007    2    1    2  501    0  0.57840401270E+02 -0.17542734510E+03  0.68696907431E+03  0.81616296639E+03  0.40009400548E+03 0.  0.
    9000005    1    3    3    0    0  0.21642808177E+03 -0.17954047618E+03  0.46287024044E+03  0.54159556557E+03  0.99999687468E+00 0.  0.
          4    1    3    3  501    0 -0.15858768050E+03  0.41131310751E+01  0.22409883387E+03  0.27456740083E+03  0.00000000000E+00 0.  1.
   -9000007    1    1    2    0  503 -0.57840401270E+02  0.17542734510E+03  0.48134272430E+03  0.65254201678E+03  0.40000000000E+03 0. -1.
<mgrwt>
<rscale>  2 0.44065482E+03</rscale>
<asrwt>0</asrwt>
<pdfrwt beam="1">  1       21 0.20284744E+00 0.44067616E+03</pdfrwt>
<pdfrwt beam="2">  1       21 0.23107169E-01 0.44067616E+03</pdfrwt>
<totfact> 0.19198928E+03</totfact>
</mgrwt>
</event>
<event>
 6    1  0.9163926E-004  0.4640613E+03  0.7818608E-02  0.1023637E+00
         21   -1    0    0  501  502  0.00000000000E+00  0.00000000000E+00  0.38927888802E+03  0.38927888802E+03  0.00000000000E+00 0. -1.
         21   -1    0    0  502  503 -0.00000000000E+00 -0.00000000000E+00 -0.68381434241E+03  0.68381434241E+03  0.00000000000E+00 0. -1.
    9000007    2    1    2  501    0 -0.13145149992E+03 -0.19421252459E+03  0.87578367488E+02  0.47225300674E+03  0.40044341720E+03 0.  0.
    9000005    1    3    3    0    0 -0.24511774192E+03 -0.80327417949E+02 -0.47359357296E+02  0.26225771713E+03  0.99999687468E+00 0.  0.
          4    1    3    3  501    0  0.11366624200E+03 -0.11388510664E+03  0.13493772478E+03  0.20999528960E+03  0.00000000000E+00 0.  1.
   -9000007    1    1    2    0  503  0.13145149992E+03  0.19421252459E+03 -0.38211382187E+03  0.60084022369E+03  0.40000000000E+03 0. -1.
<mgrwt>
<rscale>  2 0.46396567E+03</rscale>
<asrwt>0</asrwt>
<pdfrwt beam="1">  1       21 0.59889060E-01 0.46406134E+03</pdfrwt>
<pdfrwt beam="2">  1       21 0.10520221E+00 0.46406134E+03</pdfrwt>
<totfact> 0.16153739E+03</totfact>
</mgrwt>
</event>
<event>
 6    1  0.9163926E-004  0.4462019E+03  0.7818608E-02  0.1028863E+00
         21   -1    0    0  501  502  0.00000000000E+00  0.00000000000E+00  0.14736747492E+03  0.14736747492E+03  0.00000000000E+00 0.  1.
         21   -1    0    0  502  503 -0.00000000000E+00 -0.00000000000E+00 -0.14930258434E+04  0.14930258434E+04  0.00000000000E+00 0.  1.
    9000007    2    1    2  501    0 -0.14164926090E+03  0.13795506909E+03 -0.41978244989E+03  0.61260816040E+03  0.39996917226E+03 0.  0.
    9000005    1    3    3    0    0  0.86475683718E+02  0.15007172800E+03 -0.31885002416E+03  0.36285796852E+03  0.99999687468E+00 0.  0.
          4    1    3    3  501    0 -0.22812494462E+03 -0.12116658907E+02 -0.10093242573E+03  0.24975019188E+03  0.00000000000E+00 0.  1.
   -9000007    1    1    2    0  503  0.14164926090E+03 -0.13795506909E+03 -0.92587591862E+03  0.10277851579E+04  0.40000000000E+03 0.  1.
<mgrwt>
<rscale>  2 0.44619497E+03</rscale>
<asrwt>0</asrwt>
<pdfrwt beam="1">  1       21 0.22671920E-01 0.44620188E+03</pdfrwt>
<pdfrwt beam="2">  1       21 0.22969628E+00 0.44620188E+03</pdfrwt>
<totfact> 0.13340626E+03</totfact>
</mgrwt>
</event>
<event>
 6    1  0.9163926E-004  0.4357515E+03  0.7818608E-02  0.1032080E+00
         21   -1    0    0  501  502  0.00000000000E+00  0.00000000000E+00  0.77941089168E+03  0.77941089168E+03  0.00000000000E+00 0. -1.
         21   -1    0    0  502  503 -0.00000000000E+00 -0.00000000000E+00 -0.25398805658E+03  0.25398805658E+03  0.00000000000E+00 0. -1.
    9000007    2    1    2  501    0 -0.10652247378E+03 -0.13524291016E+03  0.36796907389E+03  0.57033375946E+03  0.40030198059E+03 0.  0.
    9000005    1    3    3    0    0 -0.14250763470E+03 -0.11647069570E+03 -0.15518553778E+02  0.18470428909E+03  0.99999687468E+00 0.  0.
          4    1    3    3  501    0  0.35985160913E+02 -0.18772214462E+02  0.38348762767E+03  0.38562947037E+03  0.00000000000E+00 0.  1.
   -9000007    1    1    2    0  503  0.10652247378E+03  0.13524291016E+03  0.15745376121E+03  0.46306518881E+03  0.40000000000E+03 0. -1.
<mgrwt>
<rscale>  2 0.43568212E+03</rscale>
<asrwt>0</asrwt>
<pdfrwt beam="1">  1       21 0.11990937E+00 0.43575149E+03</pdfrwt>
<pdfrwt beam="2">  1       21 0.39075086E-01 0.43575149E+03</pdfrwt>
<totfact> 0.29114671E+03</totfact>
</mgrwt>
</event>
<event>
 6    1  0.9163926E-004  0.4547913E+03  0.7818608E-02  0.1026315E+00
         21   -1    0    0  501  502  0.00000000000E+00  0.00000000000E+00  0.19873244669E+03  0.19873244669E+03  0.00000000000E+00 0. -1.
         21   -1    0    0  502  503 -0.00000000000E+00 -0.00000000000E+00 -0.13978827485E+04  0.13978827485E+04  0.00000000000E+00 0. -1.
    9000007    2    1    2  501    0  0.26030886263E+02  0.21450318256E+03 -0.19595318475E+03  0.49520987558E+03  0.40018239328E+03 0.  0.
    9000005    1    3    3    0    0  0.74374442811E+02  0.32539524671E+03 -0.14125093538E+03  0.36244510075E+03  0.99999687468E+00 0.  0.
          4    1    3    3  501    0 -0.48343556548E+02 -0.11089206414E+03 -0.54702249371E+02  0.13276477483E+03  0.00000000000E+00 0.  1.
   -9000007    1    1    2    0  503 -0.26030886263E+02 -0.21450318256E+03 -0.10031971170E+04  0.11014053196E+04  0.40000000000E+03 0. -1.
<mgrwt>
<rscale>  2 0.45475122E+03</rscale>
<asrwt>0</asrwt>
<pdfrwt beam="1">  1       21 0.30574223E-01 0.45479135E+03</pdfrwt>
<pdfrwt beam="2">  1       21 0.21505888E+00 0.45479135E+03</pdfrwt>
<totfact> 0.91707939E+02</totfact>
</mgrwt>
</event>
<event>
 6    1  0.9163926E-004  0.4205510E+03  0.7818608E-02  0.1036908E+00
         21   -1    0    0  501  502  0.00000000000E+00  0.00000000000E+00  0.19768249933E+04  0.19768249933E+04  0.00000000000E+00 0.  1.
         21   -1    0    0  502  503 -0.00000000000E+00 -0.00000000000E+00 -0.98157425862E+02  0.98157425862E+02  0.00000000000E+00 0.  1.
    9000007    2    1    2  501    0  0.51012926758E+02  0.11851700004E+03  0.12492379262E+04  0.13181269037E+04  0.40026808521E+03 0.  0.
    9000005    1    3    3    0    0  0.18809922993E+03  0.16437269108E+03  0.54951183021E+03  0.60362567325E+03  0.99999687468E+00 0.  0.
          4    1    3    3  501    0 -0.13708630317E+03 -0.45855691048E+02  0.69972609598E+03  0.71450123045E+03  0.00000000000E+00 0.  1.
   -9000007    1    1    2    0  503 -0.51012926758E+02 -0.11851700004E+03  0.62942964122E+03  0.75685551543E+03  0.40000000000E+03 0.  1.
<mgrwt>
<rscale>  2 0.42048719E+03</rscale>
<asrwt>0</asrwt>
<pdfrwt beam="1">  1       21 0.30412689E+00 0.42055099E+03</pdfrwt>
<pdfrwt beam="2">  1       21 0.15101144E-01 0.42055099E+03</pdfrwt>
<totfact> 0.10268259E+03</totfact>
</mgrwt>
</event>
<event>
 6    1  0.9163926E-004  0.4057091E+03  0.7818608E-02  0.1041908E+00
         21   -1    0    0  501  502  0.00000000000E+00  0.00000000000E+00  0.21263409141E+03  0.21263409141E+03  0.00000000000E+00 0. -1.
         21   -1    0    0  502  503 -0.00000000000E+00 -0.00000000000E+00 -0.15740538667E+04  0.15740538667E+04  0.00000000000E+00 0. -1.
    9000007    2    1    2  501    0  0.61290759145E+02  0.34855344410E+01 -0.43498199513E+02  0.40803427209E+03  0.40103761386E+03 0.  0.
    9000005    1    3    3    0    0 -0.12125781514E+03  0.64739254215E+02  0.98225500432E+02  0.16894933470E+03  0.99999687468E+00 0.  0.
          4    1    3    3  501    0  0.18254857428E+03 -0.61253719774E+02 -0.14172369995E+03  0.23908493738E+03  0.00000000000E+00 0.  1.
   -9000007    1    1    2    0  503 -0.61290759145E+02 -0.34855344410E+01 -0.13179215758E+04  0.13786536860E+04  0.40000000000E+03 0. -1.
<mgrwt>
<rscale>  2 0.40545245E+03</rscale>
<asrwt>0</asrwt>
<pdfrwt beam="1">  1       21 0.32712936E-01 0.40570910E+03</pdfrwt>
<pdfrwt beam="2">  1       21 0.24216214E+00 0.40570910E+03</pdfrwt>
<totfact> 0.55478256E+02</totfact>
</mgrwt>
</event>
<event>
 6    1  0.9163926E-004  0.5362674E+03  0.7818608E-02  0.1004763E+00
         21   -1    0    0  501  502  0.00000000000E+00  0.00000000000E+00  0.37406620854E+03  0.37406620854E+03  0.00000000000E+00 0. -1.
         21   -1    0    0  502  503 -0.00000000000E+00 -0.00000000000E+00 -0.87451784195E+03  0.87451784195E+03  0.00000000000E+00 0. -1.
    9000007    2    1    2  501    0 -0.18156453141E+03 -0.30644623200E+03 -0.32334605981E+02  0.53724128954E+03  0.40088365428E+03 0.  0.
    9000005    1    3    3    0    0 -0.22614262422E+03 -0.35051169044E+03  0.64298125697E+02  0.42205945148E+03  0.99999687468E+00 0.  0.
          4    1    3    3  501    0  0.44578092817E+02  0.44065458440E+02 -0.96632731678E+02  0.11518183806E+03  0.00000000000E+00 0.  1.
   -9000007    1    1    2    0  503  0.18156453141E+03  0.30644623200E+03 -0.46811702743E+03  0.71134276094E+03  0.40000000000E+03 0. -1.
<mgrwt>
<rscale>  2 0.53610222E+03</rscale>
<asrwt>0</asrwt>
<pdfrwt beam="1">  1       21 0.57548648E-01 0.53626736E+03</pdfrwt>
<pdfrwt beam="2">  1       21 0.13454120E+00 0.53626736E+03</pdfrwt>
<totfact> 0.91872703E+02</totfact>
</mgrwt>
</event>
<event>
 6    1  0.9163926E-004  0.4237516E+03  0.7818608E-02  0.1035869E+00
         21   -1    0    0  501  502  0.00000000000E+00  0.00000000000E+00  0.98413459795E+03  0.98413459795E+03  0.00000000000E+00 0.  1.
         21   -1    0    0  502  503 -0.00000000000E+00 -0.00000000000E+00 -0.18240686988E+03  0.18240686988E+03  0.00000000000E+00 0.  1.
    9000007    2    1    2  501    0  0.51307551509E+02  0.12944881774E+03  0.39276306916E+03  0.57777873676E+03  0.40021991317E+03 0.  0.
    9000005    1    3    3    0    0 -0.13555286535E+03 -0.66906174040E+02  0.16451068641E+03  0.22341839979E+03  0.99999687468E+00 0.  0.
          4    1    3    3  501    0  0.18686041686E+03  0.19635499178E+03  0.22825238275E+03  0.35436033696E+03  0.00000000000E+00 0.  1.
   -9000007    1    1    2    0  503 -0.51307551509E+02 -0.12944881774E+03  0.40896465891E+03  0.58876273107E+03  0.40000000000E+03 0.  1.
<mgrwt>
<rscale>  2 0.42369969E+03</rscale>
<asrwt>0</asrwt>
<pdfrwt beam="1">  1       21 0.15140532E+00 0.42375163E+03</pdfrwt>
<pdfrwt beam="2">  1       21 0.28062596E-01 0.42375163E+03</pdfrwt>
<totfact> 0.30839745E+03</totfact>
</mgrwt>
</event>
<event>
 6    1  0.9163926E-004  0.4034947E+03  0.7818608E-02  0.1042683E+00
         21   -1    0    0  501  502  0.00000000000E+00  0.00000000000E+00  0.86129408424E+03  0.86129408424E+03  0.00000000000E+00 0.  1.
         21   -1    0    0  502  503 -0.00000000000E+00 -0.00000000000E+00 -0.27023385678E+03  0.27023385678E+03  0.00000000000E+00 0.  1.
    9000007    2    1    2  501    0 -0.32019413945E+02  0.27962630280E+02  0.60709844015E+03  0.72895574150E+03  0.40124905666E+03 0.  0.
    9000005    1    3    3    0    0  0.13475298496E+03 -0.11454417720E+01  0.45249583363E+02  0.14215556191E+03  0.99999687468E+00 0.  0.
          4    1    3    3  501    0 -0.16677239891E+03  0.29108072052E+02  0.56184885678E+03  0.58680017959E+03  0.00000000000E+00 0.  1.
   -9000007    1    1    2    0  503  0.32019413945E+02 -0.27962630280E+02 -0.16038212694E+02  0.40257219952E+03  0.40000000000E+03 0.  1.
<mgrwt>
<rscale>  2 0.40318380E+03</rscale>
<asrwt>0</asrwt>
<pdfrwt beam="1">  1       21 0.13250678E+00 0.40349468E+03</pdfrwt>
<pdfrwt beam="2">  1       21 0.41574440E-01 0.40349468E+03</pdfrwt>
<totfact> 0.20080570E+03</totfact>
</mgrwt>
</event>
<event>
 6    1  0.9163926E-004  0.4528014E+03  0.7818608E-02  0.1026945E+00
         21   -1    0    0  501  502  0.00000000000E+00  0.00000000000E+00  0.24736375500E+03  0.24736375500E+03  0.00000000000E+00 0.  1.
         21   -1    0    0  502  503 -0.00000000000E+00 -0.00000000000E+00 -0.11386303295E+04  0.11386303295E+04  0.00000000000E+00 0.  1.
    9000007    2    1    2  501    0  0.10497901935E+03  0.18256346125E+03 -0.83640052848E+02  0.46046147548E+03  0.40084797626E+03 0.  0.
    9000005    1    3    3    0    0 -0.94351752281E+02 -0.66192688784E+02  0.34805761183E+02  0.12040002580E+03  0.99999687468E+00 0.  0.
          4    1    3    3  501    0  0.19933077163E+03  0.24875615003E+03 -0.11844581403E+03  0.34006144968E+03  0.00000000000E+00 0.  1.
   -9000007    1    1    2    0  503 -0.10497901935E+03 -0.18256346125E+03 -0.80762652162E+03  0.92553260899E+03  0.40000000000E+03 0.  1.
<mgrwt>
<rscale>  2 0.45261366E+03</rscale>
<asrwt>0</asrwt>
<pdfrwt beam="1">  1       21 0.38055962E-01 0.45280140E+03</pdfrwt>
<pdfrwt beam="2">  1       21 0.17517390E+00 0.45280140E+03</pdfrwt>
<totfact> 0.10991380E+03</totfact>
</mgrwt>
</event>
<event>
 6    1  0.9163926E-004  0.5307249E+03  0.7818608E-02  0.1006077E+00
         21   -1    0    0  501  502  0.00000000000E+00  0.00000000000E+00  0.23671002319E+04  0.23671002319E+04  0.00000000000E+00 0.  1.
         21   -1    0    0  502  503 -0.00000000000E+00 -0.00000000000E+00 -0.24360397642E+03  0.24360397642E+03  0.00000000000E+00 0.  1.
    9000007    2    1    2  501    0 -0.33165865688E+03 -0.10632140902E+03  0.19958128353E+04  0.20651725754E+04  0.40045871952E+03 0.  0.
    9000005    1    3    3    0    0 -0.72025273801E+02 -0.16151118860E+03  0.29634705944E+03  0.34510300453E+03  0.99999687468E+00 0.  0.
          4    1    3    3  501    0 -0.25963338308E+03  0.55189779575E+02  0.16994657758E+04  0.17200695709E+04  0.00000000000E+00 0.  1.
   -9000007    1    1    2    0  503  0.33165865688E+03  0.10632140902E+03  0.12768342019E+03  0.54553163290E+03  0.40000000000E+03 0.  1.
<mgrwt>
<rscale>  2 0.53063834E+03</rscale>
<asrwt>0</asrwt>
<pdfrwt beam="1">  1       21 0.36416925E+00 0.53072487E+03</pdfrwt>
<pdfrwt beam="2">  1       21 0.37477537E-01 0.53072487E+03</pdfrwt>
<totfact> 0.70875390E+01</totfact>
</mgrwt>
</event>
<event>
 6    1  0.9163926E-004  0.4940754E+03  0.7818608E-02  0.1015371E+00
         21   -1    0    0  501  502  0.00000000000E+00  0.00000000000E+00  0.25455474495E+04  0.25455474495E+04  0.00000000000E+00 0.  1.
         21   -1    0    0  502  503 -0.00000000000E+00 -0.00000000000E+00 -0.96295964624E+02  0.96295964624E+02  0.00000000000E+00 0. -1.
    9000007    2    1    2  501    0  0.27732072833E+03  0.81806543279E+02  0.13203880968E+04  0.14097997275E+04  0.40063880059E+03 0.  0.
    9000005    1    3    3    0    0  0.13613211379E+03 -0.14287455081E+03  0.33027396664E+03  0.38474274874E+03  0.99999687468E+00 0.  0.
          4    1    3    3  501    0  0.14118861454E+03  0.22468109409E+03  0.99011413018E+03  0.10250569788E+04  0.00000000000E+00 0.  1.
   -9000007    1    1    2    0  503 -0.27732072833E+03 -0.81806543279E+02  0.11288633881E+04  0.12320436867E+04  0.40000000000E+03 0. -1.
<mgrwt>
<rscale>  2 0.49394593E+03</rscale>
<asrwt>0</asrwt>
<pdfrwt beam="1">  1       21 0.39162263E+00 0.49407545E+03</pdfrwt>
<pdfrwt beam="2">  1       21 0.14814766E-01 0.49407545E+03</pdfrwt>
<totfact> 0.29506122E+02</totfact>
</mgrwt>
</event>
<event>
 6    1  0.9163926E-004  0.5985535E+03  0.7818608E-02  0.9908804E-01
         21   -1    0    0  501  502  0.00000000000E+00  0.00000000000E+00  0.16026771232E+04  0.16026771232E+04  0.00000000000E+00 0. -1.
         21   -1    0    0  502  503 -0.00000000000E+00 -0.00000000000E+00 -0.41302328066E+03  0.41302328066E+03  0.00000000000E+00 0. -1.
    9000007    2    1    2  501    0  0.30506808722E+03 -0.32434515893E+03  0.12777704805E+04  0.14106955593E+04  0.39887120780E+03 0.  0.
    9000005    1    3    3    0    0  0.35123984796E+03 -0.31938125612E+03  0.79691932665E+03  0.92760726104E+03  0.99999687468E+00 0.  0.
          4    1    3    3  501    0 -0.46171760740E+02 -0.49639028120E+01  0.48085115383E+03  0.48308829830E+03  0.00000000000E+00 0.  1.
   -9000007    1    1    2    0  503 -0.30506808722E+03  0.32434515893E+03 -0.88116637976E+02  0.60500484448E+03  0.40000000000E+03 0. -1.
<mgrwt>
<rscale>  2 0.59836499E+03</rscale>
<asrwt>0</asrwt>
<pdfrwt beam="1">  1       21 0.24656571E+00 0.59855352E+03</pdfrwt>
<pdfrwt beam="2">  1       21 0.63542044E-01 0.59855352E+03</pdfrwt>
<totfact> 0.11681350E+02</totfact>
</mgrwt>
</event>
<event>
 6    1  0.9163926E-004  0.4779530E+03  0.7818608E-02  0.1019728E+00
         21   -1    0    0  501  502  0.00000000000E+00  0.00000000000E+00  0.26234169601E+03  0.26234169601E+03  0.00000000000E+00 0.  1.
         21   -1    0    0  502  503 -0.00000000000E+00 -0.00000000000E+00 -0.92707540286E+03  0.92707540286E+03  0.00000000000E+00 0.  1.
    9000007    2    1    2  501    0  0.22804328164E+03 -0.12663774004E+03 -0.18495506160E+03  0.51249139842E+03  0.40049744460E+03 0.  0.
    9000005    1    3    3    0    0  0.21493332860E+03  0.10162325286E+03 -0.15022036477E+03  0.28123082912E+03  0.99999687468E+00 0.  0.
          4    1    3    3  501    0  0.13109953044E+02 -0.22826099290E+03 -0.34734696832E+02  0.23126056930E+03  0.00000000000E+00 0.  1.
   -9000007    1    1    2    0  503 -0.22804328164E+03  0.12663774004E+03 -0.47977864524E+03  0.67692570045E+03  0.40000000000E+03 0.  1.
<mgrwt>
<rscale>  2 0.47784877E+03</rscale>
<asrwt>0</asrwt>
<pdfrwt beam="1">  1       21 0.40360261E-01 0.47795299E+03</pdfrwt>
<pdfrwt beam="2">  1       21 0.14262699E+00 0.47795299E+03</pdfrwt>
<totfact> 0.17059004E+03</totfact>
</mgrwt>
</event>
<event>
 6    1  0.9163926E-004  0.4694585E+03  0.7818608E-02  0.1022096E+00
         21   -1    0    0  501  502  0.00000000000E+00  0.00000000000E+00  0.17658831136E+04  0.17658831136E+04  0.00000000000E+00 0. -1.
         21   -1    0    0  502  503 -0.00000000000E+00 -0.00000000000E+00 -0.12564002827E+03  0.12564002827E+03  0.00000000000E+00 0.  1.
    9000007    2    1    2  501    0  0.14228939604E+03 -0.19959611155E+03  0.90140846161E+03  0.10163308880E+04  0.40038279097E+03 0.  0.
    9000005    1    3    3    0    0  0.13109940333E+03 -0.78849381745E+02  0.87999017650E+03  0.89318978346E+03  0.99999687468E+00 0.  0.
          4    1    3    3  501    0  0.11189992713E+02 -0.12074672980E+03  0.21418285114E+02  0.12314110456E+03  0.00000000000E+00 0.  1.
   -9000007    1    1    2    0  503 -0.14228939604E+03  0.19959611155E+03  0.73883462368E+03  0.87519225380E+03  0.40000000000E+03 0. -1.
<mgrwt>
<rscale>  2 0.46937685E+03</rscale>
<asrwt>0</asrwt>
<pdfrwt beam="1">  1       21 0.27167431E+00 0.46945847E+03</pdfrwt>
<pdfrwt beam="2">  1       21 0.19329236E-01 0.46945847E+03</pdfrwt>
<totfact> 0.98723482E+02</totfact>
</mgrwt>
</event>
<event>
 6    1  0.9163926E-004  0.4678750E+03  0.7818608E-02  0.1022533E+00
         21   -1    0    0  501  502  0.00000000000E+00  0.00000000000E+00  0.12821789045E+04  0.12821789045E+04  0.00000000000E+00 0. -1.
         21   -1    0    0  502  503 -0.00000000000E+00 -0.00000000000E+00 -0.57717558230E+03  0.57717558230E+03  0.00000000000E+00 0. -1.
    9000007    2    1    2  501    0  0.79884426007E+01  0.24257626283E+03  0.11326917041E+04  0.12254582725E+04  0.39981298429E+03 0.  0.
    9000005    1    3    3    0    0 -0.38367028301E+02  0.31502718549E+03  0.10774957339E+04  0.11232596374E+04  0.99999687468E+00 0.  0.
          4    1    3    3  501    0  0.46355470901E+02 -0.72450922660E+02  0.55195970251E+02  0.10219863506E+03  0.00000000000E+00 0.  1.
   -9000007    1    1    2    0  503 -0.79884426007E+01 -0.24257626283E+03 -0.42768838194E+03  0.63389621434E+03  0.40000000000E+03 0. -1.
<mgrwt>
<rscale>  2 0.46783507E+03</rscale>
<asrwt>0</asrwt>
<pdfrwt beam="1">  1       21 0.19725829E+00 0.46787505E+03</pdfrwt>
<pdfrwt beam="2">  1       21 0.88796244E-01 0.46787505E+03</pdfrwt>
<totfact> 0.12006569E+02</totfact>
</mgrwt>
</event>
<event>
 6    1  0.9163926E-004  0.6517546E+03  0.7818608E-02  0.9803502E-01
         21   -1    0    0  501  502  0.00000000000E+00  0.00000000000E+00  0.42419542365E+03  0.42419542365E+03  0.00000000000E+00 0. -1.
         21   -1    0    0  502  503 -0.00000000000E+00 -0.00000000000E+00 -0.11535265785E+04  0.11535265785E+04  0.00000000000E+00 0. -1.
    9000007    2    1    2  501    0 -0.39829816779E+03  0.32575243334E+03 -0.78151513103E+02  0.65642345979E+03  0.40003502504E+03 0.  0.
    9000005    1    3    3    0    0 -0.17842228773E+03  0.36844290838E+03 -0.12411612672E+03  0.42777389167E+03  0.99999687468E+00 0.  0.
          4    1    3    3  501    0 -0.21987588007E+03 -0.42690475037E+02  0.45964613612E+02  0.22864956811E+03  0.00000000000E+00 0.  1.
   -9000007    1    1    2    0  503  0.39829816779E+03 -0.32575243334E+03 -0.65117964170E+03  0.92129854231E+03  0.40000000000E+03 0. -1.
<mgrwt>
<rscale>  2 0.65174926E+03</rscale>
<asrwt>0</asrwt>
<pdfrwt beam="1">  1       21 0.65260835E-01 0.65175463E+03</pdfrwt>
<pdfrwt beam="2">  1       21 0.17746563E+00 0.65175463E+03</pdfrwt>
<totfact> 0.30969905E+02</totfact>
</mgrwt>
</event>
<event>
 6    1  0.9163926E-004  0.6288186E+03  0.7818608E-02  0.9847586E-01
         21   -1    0    0  501  502  0.00000000000E+00  0.00000000000E+00  0.25068245834E+03  0.25068245834E+03  0.00000000000E+00 0. -1.
         21   -1    0    0  502  503 -0.00000000000E+00 -0.00000000000E+00 -0.26733152806E+04  0.26733152806E+04  0.00000000000E+00 0.  1.
    9000007    2    1    2  501    0 -0.44582904381E+03  0.18989756786E+03 -0.27498337112E+03  0.68631527990E+03  0.40073455859E+03 0.  0.
    9000005    1    3    3    0    0 -0.45461175759E+03  0.23086820779E+02 -0.15583632567E+03  0.48113492060E+03  0.99999687468E+00 0.  0.
          4    1    3    3  501    0  0.87827137787E+01  0.16681074708E+03 -0.11914704545E+03  0.20518035930E+03  0.00000000000E+00 0.  1.
   -9000007    1    1    2    0  503  0.44582904381E+03 -0.18989756786E+03 -0.21476494511E+04  0.22376824591E+04  0.40000000000E+03 0.  1.
<mgrwt>
<rscale>  2 0.62870158E+03</rscale>
<asrwt>0</asrwt>
<pdfrwt beam="1">  1       21 0.38566532E-01 0.62881858E+03</pdfrwt>
<pdfrwt beam="2">  1       21 0.41127927E+00 0.62881858E+03</pdfrwt>
<totfact> 0.31645481E+01</totfact>
</mgrwt>
</event>
<event>
 6    1  0.9163926E-004  0.5729909E+03  0.7818608E-02  0.9963129E-01
         21   -1    0    0  501  502  0.00000000000E+00  0.00000000000E+00  0.20969760509E+04  0.20969760509E+04  0.00000000000E+00 0. -1.
         21   -1    0    0  502  503 -0.00000000000E+00 -0.00000000000E+00 -0.25418543693E+03  0.25418543693E+03  0.00000000000E+00 0.  1.
    9000007    2    1    2  501    0 -0.30940842475E+03  0.26923329113E+03  0.16500457092E+04  0.17467024432E+04  0.40012303627E+03 0.  0.
    9000005    1    3    3    0    0 -0.24454381522E+03 -0.47949395699E+02  0.70730041358E+03  0.74991712686E+03  0.99999687468E+00 0.  0.
          4    1    3    3  501    0 -0.64864609533E+02  0.31718268683E+03  0.94274529562E+03  0.99678531631E+03  0.00000000000E+00 0.  1.
   -9000007    1    1    2    0  503  0.30940842475E+03 -0.26923329113E+03  0.19274490476E+03  0.60445904466E+03  0.40000000000E+03 0.  1.
<mgrwt>
<rscale>  2 0.57296943E+03</rscale>
<asrwt>0</asrwt>
<pdfrwt beam="1">  1       21 0.32261169E+00 0.57299091E+03</pdfrwt>
<pdfrwt beam="2">  1       21 0.39105453E-01 0.57299091E+03</pdfrwt>
<totfact> 0.11448180E+02</totfact>
</mgrwt>
</event>
<event>
 6    1  0.9163926E-004  0.4023509E+03  0.7818608E-02  0.1042986E+00
         21   -1    0    0  501  502  0.00000000000E+00  0.00000000000E+00  0.43961572343E+03  0.43961572343E+03  0.00000000000E+00 0.  1.
         21   -1    0    0  502  503 -0.00000000000E+00 -0.00000000000E+00 -0.46830286078E+03  0.46830286078E+03  0.00000000000E+00 0.  1.
    9000007    2    1    2  501    0 -0.36187699329E+02  0.24014205432E+02  0.19569297447E+03  0.44723141680E+03  0.39979240647E+03 0.  0.
    9000005    1    3    3    0    0 -0.19191338343E+02 -0.18477238935E+03  0.13334567674E+03  0.22867271992E+03  0.99999687468E+00 0.  0.
          4    1    3    3  501    0 -0.16996360986E+02  0.20878659478E+03  0.62347297726E+02  0.21855869688E+03  0.00000000000E+00 0.  1.
   -9000007    1    1    2    0  503  0.36187699329E+02 -0.24014205432E+02 -0.22438011182E+03  0.46068716742E+03  0.40000000000E+03 0.  1.
<mgrwt>
<rscale>  2 0.40229928E+03</rscale>
<asrwt>0</asrwt>
<pdfrwt beam="1">  1       21 0.67633188E-01 0.40235088E+03</pdfrwt>
<pdfrwt beam="2">  1       21 0.72046594E-01 0.40235088E+03</pdfrwt>
<totfact> 0.30807069E+03</totfact>
</mgrwt>
</event>
<event>
 6    1  0.9163926E-004  0.4109753E+03  0.7818608E-02  0.1040067E+00
         21   -1    0    0  501  502  0.00000000000E+00  0.00000000000E+00  0.22061240677E+03  0.22061240677E+03  0.00000000000E+00 0.  1.
         21   -1    0    0  502  503 -0.00000000000E+00 -0.00000000000E+00 -0.78082045031E+03  0.78082045031E+03  0.00000000000E+00 0.  1.
    9000007    2    1    2  501    0 -0.27143441959E+02 -0.90354505275E+02 -0.35109229628E+03  0.54031454382E+03  0.39971652792E+03 0.  0.
    9000005    1    3    3    0    0  0.83475023150E+02 -0.40275175128E+02 -0.39911521773E+03  0.40973665474E+03  0.99999687468E+00 0.  0.
          4    1    3    3  501    0 -0.11061846511E+03 -0.50079330147E+02  0.48022921453E+02  0.13057788908E+03  0.00000000000E+00 0.  1.
   -9000007    1    1    2    0  503  0.27143441959E+02  0.90354505275E+02 -0.20911574727E+03  0.46111831326E+03  0.40000000000E+03 0.  1.
<mgrwt>
<rscale>  2 0.41090632E+03</rscale>
<asrwt>0</asrwt>
<pdfrwt beam="1">  1       21 0.33940370E-01 0.41097531E+03</pdfrwt>
<pdfrwt beam="2">  1       21 0.12012622E+00 0.41097531E+03</pdfrwt>
<totfact> 0.38947845E+03</totfact>
</mgrwt>
</event>
<event>
 6    1  0.9163926E-004  0.4731764E+03  0.7818608E-02  0.1021038E+00
         21   -1    0    0  501  502  0.00000000000E+00  0.00000000000E+00  0.48954796377E+03  0.48954796377E+03  0.00000000000E+00 0.  1.
         21   -1    0    0  502  503 -0.00000000000E+00 -0.00000000000E+00 -0.53006528330E+03  0.53006528330E+03  0.00000000000E+00 0.  1.
    9000007    2    1    2  501    0 -0.24942103259E+03 -0.39237573106E+02  0.16875069583E+03  0.50236713457E+03  0.40018183606E+03 0.  0.
    9000005    1    3    3    0    0 -0.90243497798E+02 -0.45162697965E+02  0.28684328060E+03  0.30407832182E+03  0.99999687468E+00 0.  0.
          4    1    3    3  501    0 -0.15917753479E+03  0.59251248595E+01 -0.11809258476E+03  0.19828881276E+03  0.00000000000E+00 0.  1.
   -9000007    1    1    2    0  503  0.24942103259E+03  0.39237573106E+02 -0.20926801537E+03  0.51724611250E+03  0.40000000000E+03 0.  1.
<mgrwt>
<rscale>  2 0.47313799E+03</rscale>
<asrwt>0</asrwt>
<pdfrwt beam="1">  1       21 0.75315071E-01 0.47317644E+03</pdfrwt>
<pdfrwt beam="2">  1       21 0.81548505E-01 0.47317644E+03</pdfrwt>
<totfact> 0.17714042E+03</totfact>
</mgrwt>
</event>
<event>
 6    1  0.9163926E-004  0.5918850E+03  0.7818608E-02  0.9922979E-01
         21   -1    0    0  501  502  0.00000000000E+00  0.00000000000E+00  0.46804961705E+03  0.46804961705E+03  0.00000000000E+00 0. -1.
         21   -1    0    0  502  503 -0.00000000000E+00 -0.00000000000E+00 -0.77712812644E+03  0.77712812644E+03  0.00000000000E+00 0. -1.
    9000007    2    1    2  501    0 -0.34630679671E+02  0.43488917045E+03 -0.27684914928E+03  0.65241589738E+03  0.39833801870E+03 0.  0.
    9000005    1    3    3    0    0 -0.69261236597E+02  0.43932843438E+03 -0.35353892893E+03  0.56815259078E+03  0.99999687468E+00 0.  0.
          4    1    3    3  501    0  0.34630556925E+02 -0.44392639266E+01  0.76689779646E+02  0.84263306600E+02  0.00000000000E+00 0.  1.
   -9000007    1    1    2    0  503  0.34630679671E+02 -0.43488917045E+03 -0.32229360114E+02  0.59276184611E+03  0.40000000000E+03 0. -1.
<mgrwt>
<rscale>  2 0.59160434E+03</rscale>
<asrwt>0</asrwt>
<pdfrwt beam="1">  1       21 0.72007635E-01 0.59188502E+03</pdfrwt>
<pdfrwt beam="2">  1       21 0.11955817E+00 0.59188502E+03</pdfrwt>
<totfact> 0.74320065E+02</totfact>
</mgrwt>
</event>
<event>
 6    1  0.9163926E-004  0.4008469E+03  0.7818608E-02  0.1043549E+00
         21   -1    0    0  501  502  0.00000000000E+00  0.00000000000E+00  0.30325996571E+03  0.30325996571E+03  0.00000000000E+00 0. -1.
         21   -1    0    0  502  503 -0.00000000000E+00 -0.00000000000E+00 -0.53599384684E+03  0.53599384684E+03  0.00000000000E+00 0. -1.
    9000007    2    1    2  501    0 -0.16387794003E+02  0.20240984728E+02 -0.67918900451E+02  0.40584611175E+03  0.39927413156E+03 0.  0.
    9000005    1    3    3    0    0  0.18315379364E+03  0.44389825913E+02  0.13594900650E+02  0.18894864404E+03  0.99999687468E+00 0.  0.
          4    1    3    3  501    0 -0.19954158764E+03 -0.24148841185E+02 -0.81513801101E+02  0.21689746771E+03  0.00000000000E+00 0.  1.
   -9000007    1    1    2    0  503  0.16387794003E+02 -0.20240984728E+02 -0.16481498068E+03  0.43340770080E+03  0.40000000000E+03 0.  1.
<mgrwt>
<rscale>  2 0.40066572E+03</rscale>
<asrwt>0</asrwt>
<pdfrwt beam="1">  1       21 0.46655380E-01 0.40084692E+03</pdfrwt>
<pdfrwt beam="2">  1       21 0.82460590E-01 0.40084692E+03</pdfrwt>
<totfact> 0.50536671E+03</totfact>
</mgrwt>
</event>
<event>
 6    1  0.9163926E-004  0.6016414E+03  0.7818608E-02  0.9902231E-01
         21   -1    0    0  501  502  0.00000000000E+00  0.00000000000E+00  0.72649183551E+03  0.72649183551E+03  0.00000000000E+00 0.  1.
         21   -1    0    0  502  503 -0.00000000000E+00 -0.00000000000E+00 -0.20949552041E+04  0.20949552041E+04  0.00000000000E+00 0. -1.
    9000007    2    1    2  501    0 -0.44359630551E+03 -0.72073891597E+02  0.54755855606E+03  0.81318601478E+03  0.39934796132E+03 0.  0.
    9000005    1    3    3    0    0 -0.35122725884E+03 -0.66883387750E+02  0.60610437974E+03  0.70370270288E+03  0.99999687468E+00 0.  0.
          4    1    3    3  501    0 -0.92369046671E+02 -0.51905038477E+01 -0.58545823685E+02  0.10948331190E+03  0.00000000000E+00 0.  1.
   -9000007    1    1    2    0  503  0.44359630551E+03  0.72073891597E+02 -0.19160219246E+04  0.20082610248E+04  0.40000000000E+03 0. -1.
<mgrwt>
<rscale>  2 0.60153301E+03</rscale>
<asrwt>0</asrwt>
<pdfrwt beam="1">  1       21 0.11176798E+00 0.60164136E+03</pdfrwt>
<pdfrwt beam="2">  1       21 0.32230080E+00 0.60164136E+03</pdfrwt>
<totfact> 0.10576410E+01</totfact>
</mgrwt>
</event>
<event>
 6    1  0.9163926E-004  0.4701961E+03  0.7818608E-02  0.1021887E+00
         21   -1    0    0  501  502  0.00000000000E+00  0.00000000000E+00  0.61747620963E+03  0.61747620963E+03  0.00000000000E+00 0.  1.
         21   -1    0    0  502  503 -0.00000000000E+00 -0.00000000000E+00 -0.43269821163E+03  0.43269821163E+03  0.00000000000E+00 0. -1.
    9000007    2    1    2  501    0 -0.23344391724E+03 -0.79372005197E+02  0.31085831061E+03  0.56366417169E+03  0.40036037699E+03 0.  0.
    9000005    1    3    3    0    0 -0.64271980772E+02 -0.14119116486E+03 -0.47790551674E+02  0.16232920061E+03  0.99999687468E+00 0.  0.
          4    1    3    3  501    0 -0.16917193647E+03  0.61819159664E+02  0.35864886229E+03  0.40133497108E+03  0.00000000000E+00 0.  1.
   -9000007    1    1    2    0  503  0.23344391724E+03  0.79372005197E+02 -0.12608031262E+03  0.48651024957E+03  0.40000000000E+03 0. -1.
<mgrwt>
<rscale>  2 0.47011942E+03</rscale>
<asrwt>0</asrwt>
<pdfrwt beam="1">  1       21 0.94996340E-01 0.47019614E+03</pdfrwt>
<pdfrwt beam="2">  1       21 0.66568955E-01 0.47019614E+03</pdfrwt>
<totfact> 0.16347482E+03</totfact>
</mgrwt>
</event>
<event>
 6    1  0.9163926E-004  0.4168013E+03  0.7818608E-02  0.1038222E+00
         21   -1    0    0  501  502  0.00000000000E+00  0.00000000000E+00  0.35402751702E+03  0.35402751702E+03  0.00000000000E+00 0. -1.
         21   -1    0    0  502  503 -0.00000000000E+00 -0.00000000000E+00 -0.82207490747E+03  0.82207490747E+03  0.00000000000E+00 0. -1.
    9000007    2    1    2  501    0  0.11233374327E+03 -0.10809353367E+01  0.13998117693E+03  0.43967946378E+03  0.40137670919E+03 0.  0.
    9000005    1    3    3    0    0  0.14184855790E+03  0.17934093760E+03  0.11239527104E+03  0.25478987857E+03  0.99999687468E+00 0.  0.
          4    1    3    3  501    0 -0.29514814628E+02 -0.18042187294E+03  0.27585905885E+02  0.18488958521E+03  0.00000000000E+00 0.  1.
   -9000007    1    1    2    0  503 -0.11233374327E+03  0.10809353367E+01 -0.60802856739E+03  0.73642296071E+03  0.40000000000E+03 0. -1.
<mgrwt>
<rscale>  2 0.41646948E+03</rscale>
<asrwt>0</asrwt>
<pdfrwt beam="1">  1       21 0.54465772E-01 0.41680127E+03</pdfrwt>
<pdfrwt beam="2">  1       21 0.12647306E+00 0.41680127E+03</pdfrwt>
<totfact> 0.12743253E+03</totfact>
</mgrwt>
</event>
<event>
 6    1  0.9163926E-004  0.4387635E+03  0.7818608E-02  0.1031131E+00
         21   -1    0    0  501  502  0.00000000000E+00  0.00000000000E+00  0.14327035245E+04  0.14327035245E+04  0.00000000000E+00 0.  1.
         21   -1    0    0  502  503 -0.00000000000E+00 -0.00000000000E+00 -0.13769915963E+03  0.13769915963E+03  0.00000000000E+00 0.  1.
    9000007    2    1    2  501    0  0.98242548608E+02 -0.15103362188E+03  0.76994519214E+03  0.88618788732E+03  0.40006326930E+03 0.  0.
    9000005    1    3    3    0    0 -0.13611623150E+03 -0.11701855738E+02  0.42548450242E+03  0.44688099501E+03  0.99999687468E+00 0.  0.
          4    1    3    3  501    0  0.23435878011E+03 -0.13933176614E+03  0.34446068972E+03  0.43930689231E+03  0.00000000000E+00 0.  1.
   -9000007    1    1    2    0  503 -0.98242548608E+02  0.15103362188E+03  0.52505917270E+03  0.68421479678E+03  0.40000000000E+03 0.  1.
<mgrwt>
<rscale>  2 0.43874904E+03</rscale>
<asrwt>0</asrwt>
<pdfrwt beam="1">  1       21 0.22041592E+00 0.43876346E+03</pdfrwt>
<pdfrwt beam="2">  1       21 0.21184487E-01 0.43876346E+03</pdfrwt>
<totfact> 0.17459418E+03</totfact>
</mgrwt>
</event>
<event>
 6    1  0.9163926E-004  0.5509110E+03  0.7818608E-02  0.1001332E+00
         21   -1    0    0  501  502  0.00000000000E+00  0.00000000000E+00  0.11418141025E+03  0.11418141025E+03  0.00000000000E+00 0.  1.
         21   -1    0    0  502  503 -0.00000000000E+00 -0.00000000000E+00 -0.30484215810E+04  0.30484215810E+04  0.00000000000E+00 0.  1.
    9000007    2    1    2  501    0  0.23923673596E+03 -0.29371537015E+03 -0.89738546543E+03  0.10525603317E+04  0.39884789562E+03 0.  0.
    9000005    1    3    3    0    0  0.18769881198E+03  0.10145039998E+02 -0.13852979696E+03  0.23350646778E+03  0.99999687468E+00 0.  0.
          4    1    3    3  501    0  0.51537923981E+02 -0.30386041015E+03 -0.75885566846E+03  0.81905386393E+03  0.00000000000E+00 0.  1.
   -9000007    1    1    2    0  503 -0.23923673596E+03  0.29371537015E+03 -0.20368547053E+04  0.21100426595E+04  0.40000000000E+03 0.  1.
<mgrwt>
<rscale>  2 0.55070190E+03</rscale>
<asrwt>0</asrwt>
<pdfrwt beam="1">  1       21 0.17566371E-01 0.55091100E+03</pdfrwt>
<pdfrwt beam="2">  1       21 0.46898794E+00 0.55091100E+03</pdfrwt>
<totfact> 0.63465570E+01</totfact>
</mgrwt>
</event>
<event>
 6    1  0.9163926E-004  0.4282800E+03  0.7818608E-02  0.1034638E+00
         21   -1    0    0  501  502  0.00000000000E+00  0.00000000000E+00  0.46274097170E+03  0.46274097170E+03  0.00000000000E+00 0. -1.
         21   -1    0    0  502  503 -0.00000000000E+00 -0.00000000000E+00 -0.46186064418E+03  0.46186064418E+03  0.00000000000E+00 0. -1.
    9000007    2    1    2  501    0 -0.14532045457E+03  0.48017702488E+02  0.17806274571E+03  0.46111769643E+03  0.39686200912E+03 0.  0.
    9000005    1    3    3    0    0 -0.25656336178E+03 -0.64057712086E+02  0.84715407767E+02  0.27767940038E+03  0.99999687468E+00 0.  0.
          4    1    3    3  501    0  0.11124290722E+03  0.11207541457E+03  0.93347337941E+02  0.18343829605E+03  0.00000000000E+00 0.  1.
   -9000007    1    1    2    0  503  0.14532045457E+03 -0.48017702488E+02 -0.17718241819E+03  0.46348391945E+03  0.40000000000E+03 0. -1.
<mgrwt>
<rscale>  2 0.42754576E+03</rscale>
<asrwt>0</asrwt>
<pdfrwt beam="1">  1       21 0.71190919E-01 0.42827997E+03</pdfrwt>
<pdfrwt beam="2">  1       21 0.71055484E-01 0.42827997E+03</pdfrwt>
<totfact> 0.28049061E+03</totfact>
</mgrwt>
</event>
<event>
 6    1  0.9163926E-004  0.4788661E+03  0.7818608E-02  0.1019470E+00
         21   -1    0    0  501  502  0.00000000000E+00  0.00000000000E+00  0.29679996775E+03  0.29679996775E+03  0.00000000000E+00 0. -1.
         21   -1    0    0  502  503 -0.00000000000E+00 -0.00000000000E+00 -0.93948254548E+03  0.93948254548E+03  0.00000000000E+00 0.  1.
    9000007    2    1    2  501    0  0.22250748360E+03 -0.13958311395E+03 -0.60501908202E+02  0.48267296052E+03  0.40039940055E+03 0.  0.
    9000005    1    3    3    0    0  0.12440382178E+03 -0.25859459965E+03  0.52169649593E+02  0.29166787648E+03  0.99999687468E+00 0.  0.
          4    1    3    3  501    0  0.98103661826E+02  0.11901148569E+03 -0.11267155779E+03  0.19100508403E+03  0.00000000000E+00 0.  1.
   -9000007    1    1    2    0  503 -0.22250748360E+03  0.13958311395E+03 -0.58218066954E+03  0.75360955271E+03  0.40000000000E+03 0.  1.
<mgrwt>
<rscale>  2 0.47878256E+03</rscale>
<asrwt>0</asrwt>
<pdfrwt beam="1">  1       21 0.45661534E-01 0.47886606E+03</pdfrwt>
<pdfrwt beam="2">  1       21 0.14453577E+00 0.47886606E+03</pdfrwt>
<totfact> 0.12723391E+03</totfact>
</mgrwt>
</event>
<event>
 6    1  0.9163926E-004  0.4876119E+03  0.7818608E-02  0.1017076E+00
         21   -1    0    0  501  502  0.00000000000E+00  0.00000000000E+00  0.85360384896E+03  0.85360384896E+03  0.00000000000E+00 0. -1.
         21   -1    0    0  502  503 -0.00000000000E+00 -0.00000000000E+00 -0.27867518046E+03  0.27867518046E+03  0.00000000000E+00 0. -1.
    9000007    2    1    2  501    0 -0.17901022695E+03  0.21382400644E+03  0.30374594390E+03  0.57433150751E+03  0.39978708708E+03 0.  0.
    9000005    1    3    3    0    0 -0.39043733303E+02  0.30985506024E+03  0.15508500770E+03  0.34869317612E+03  0.99999687468E+00 0.  0.
          4    1    3    3  501    0 -0.13996649365E+03 -0.96031053803E+02  0.14866093619E+03  0.22563833138E+03  0.00000000000E+00 0.  1.
   -9000007    1    1    2    0  503  0.17901022695E+03 -0.21382400644E+03  0.27118272461E+03  0.55794752191E+03  0.40000000000E+03 0. -1.
<mgrwt>
<rscale>  2 0.48756824E+03</rscale>
<asrwt>0</asrwt>
<pdfrwt beam="1">  1       21 0.13132367E+00 0.48761190E+03</pdfrwt>
<pdfrwt beam="2">  1       21 0.42873105E-01 0.48761190E+03</pdfrwt>
<totfact> 0.18652832E+03</totfact>
</mgrwt>
</event>
<event>
 6    1  0.9163926E-004  0.4691579E+03  0.7818608E-02  0.1022215E+00
         21   -1    0    0  501  502  0.00000000000E+00  0.00000000000E+00  0.40635722268E+03  0.40635722268E+03  0.00000000000E+00 0. -1.
         21   -1    0    0  502  503 -0.00000000000E+00 -0.00000000000E+00 -0.70034695420E+03  0.70034695420E+03  0.00000000000E+00 0. -1.
    9000007    2    1    2  501    0 -0.22322103256E+03 -0.97648952864E+02  0.11706641297E+03  0.48354280028E+03  0.40093159926E+03 0.  0.
    9000005    1    3    3    0    0 -0.15576185923E+03  0.23529475183E+02  0.24735126211E+03  0.29325592894E+03  0.99999687468E+00 0.  0.
          4    1    3    3  501    0 -0.67459173321E+02 -0.12117842805E+03 -0.13028484915E+03  0.19028687134E+03  0.00000000000E+00 0.  1.
   -9000007    1    1    2    0  503  0.22322103256E+03  0.97648952864E+02 -0.41105614449E+03  0.62316137660E+03  0.40000000000E+03 0. -1.
<mgrwt>
<rscale>  2 0.46895876E+03</rscale>
<asrwt>0</asrwt>
<pdfrwt beam="1">  1       21 0.62516496E-01 0.46915786E+03</pdfrwt>
<pdfrwt beam="2">  1       21 0.10774568E+00 0.46915786E+03</pdfrwt>
<totfact> 0.13828147E+03</totfact>
</mgrwt>
</event>
<event>
 6    1  0.9163926E-004  0.5077662E+03  0.7818608E-02  0.1011779E+00
         21   -1    0    0  501  502  0.00000000000E+00  0.00000000000E+00  0.44766827639E+03  0.44766827639E+03  0.00000000000E+00 0.  1.
         21   -1    0    0  502  503 -0.00000000000E+00 -0.00000000000E+00 -0.65492062458E+03  0.65492062458E+03  0.00000000000E+00 0. -1.
    9000007    2    1    2  501    0 -0.18204368639E+03 -0.25409860429E+03  0.87983348266E+02  0.51533246557E+03  0.40015056672E+03 0.  0.
    9000005    1    3    3    0    0 -0.20102398326E+03 -0.22648417783E+03 -0.10419471973E+03  0.32025499881E+03  0.99999687468E+00 0.  0.
          4    1    3    3  501    0  0.18980296873E+02 -0.27614426461E+02  0.19217806799E+03  0.19507746676E+03  0.00000000000E+00 0.  1.
   -9000007    1    1    2    0  503  0.18204368639E+03  0.25409860429E+03 -0.29523569645E+03  0.58725643540E+03  0.40000000000E+03 0. -1.
<mgrwt>
<rscale>  2 0.50773650E+03</rscale>
<asrwt>0</asrwt>
<pdfrwt beam="1">  1       21 0.68872043E-01 0.50776617E+03</pdfrwt>
<pdfrwt beam="2">  1       21 0.10075702E+00 0.50776617E+03</pdfrwt>
<totfact> 0.12959036E+03</totfact>
</mgrwt>
</event>
<event>
 6    1  0.9163926E-004  0.4785454E+03  0.7818608E-02  0.1019570E+00
         21   -1    0    0  501  502  0.00000000000E+00  0.00000000000E+00  0.39289941868E+03  0.39289941868E+03  0.00000000000E+00 0. -1.
         21   -1    0    0  502  503 -0.00000000000E+00 -0.00000000000E+00 -0.58809380829E+03  0.58809380829E+03  0.00000000000E+00 0. -1.
    9000007    2    1    2  501    0 -0.23412381645E+03  0.11912923590E+03 -0.48681532707E+02  0.48052169580E+03  0.39940639984E+03 0.  0.
    9000005    1    3    3    0    0 -0.10120403349E+03  0.88589416515E+02 -0.22224985161E+03  0.25978132660E+03  0.99999687468E+00 0.  0.
          4    1    3    3  501    0 -0.13291978295E+03  0.30539819382E+02  0.17356831890E+03  0.22074036920E+03  0.00000000000E+00 0.  1.
   -9000007    1    1    2    0  503  0.23412381645E+03 -0.11912923590E+03 -0.14651285691E+03  0.50047153117E+03  0.40000000000E+03 0. -1.
<mgrwt>
<rscale>  2 0.47842137E+03</rscale>
<asrwt>0</asrwt>
<pdfrwt beam="1">  1       21 0.60446064E-01 0.47854544E+03</pdfrwt>
<pdfrwt beam="2">  1       21 0.90475971E-01 0.47854544E+03</pdfrwt>
<totfact> 0.22674127E+03</totfact>
</mgrwt>
</event>
<event>
 6    1  0.9163926E-004  0.4132235E+03  0.7818608E-02  0.1039609E+00
         21   -1    0    0  501  502  0.00000000000E+00  0.00000000000E+00  0.36502306974E+03  0.36502306974E+03  0.00000000000E+00 0.  1.
         21   -1    0    0  502  503 -0.00000000000E+00 -0.00000000000E+00 -0.47706708153E+03  0.47706708153E+03  0.00000000000E+00 0.  1.
    9000007    2    1    2  501    0 -0.34251942236E+02 -0.80541186480E+02 -0.12716526438E+03  0.43234787795E+03  0.40384849243E+03 0.  0.
    9000005    1    3    3    0    0 -0.58726258927E+02 -0.17934013699E+03 -0.22328505145E+03  0.29235059846E+03  0.99999687468E+00 0.  0.
          4    1    3    3  501    0  0.24474316691E+02  0.98798950506E+02  0.96119787074E+02  0.13999727949E+03  0.00000000000E+00 0.  1.
   -9000007    1    1    2    0  503  0.34251942236E+02  0.80541186480E+02  0.15121252595E+02  0.40974227332E+03  0.40000000000E+03 0. -1.
<mgrwt>
<rscale>  2 0.41228021E+03</rscale>
<asrwt>0</asrwt>
<pdfrwt beam="1">  1       21 0.56157395E-01 0.41322353E+03</pdfrwt>
<pdfrwt beam="2">  1       21 0.73394936E-01 0.41322353E+03</pdfrwt>
<totfact> 0.44263056E+03</totfact>
</mgrwt>
</event>
<event>
 6    1  0.9163926E-004  0.5525360E+03  0.7818608E-02  0.1000957E+00
         21   -1    0    0  501  502  0.00000000000E+00  0.00000000000E+00  0.77322242092E+03  0.77322242092E+03  0.00000000000E+00 0.  1.
         21   -1    0    0  502  503 -0.00000000000E+00 -0.00000000000E+00 -0.75146767923E+03  0.75146767923E+03  0.00000000000E+00 0. -1.
    9000007    2    1    2  501    0  0.27879472051E+03 -0.25816350876E+03  0.53649800347E+03  0.77014684826E+03  0.40114980583E+03 0.  0.
    9000005    1    3    3    0    0  0.32300158411E+03 -0.12553964867E+03  0.18711082752E+03  0.39382951704E+03  0.99999687468E+00 0.  0.
          4    1    3    3  501    0 -0.44206863600E+02 -0.13262386009E+03  0.34938717595E+03  0.37631733122E+03  0.00000000000E+00 0.  1.
   -9000007    1    1    2    0  503 -0.27879472051E+03  0.25816350876E+03 -0.51474326178E+03  0.75454325190E+03  0.40000000000E+03 0. -1.
<mgrwt>
<rscale>  2 0.55232736E+03</rscale>
<asrwt>0</asrwt>
<pdfrwt beam="1">  1       21 0.11895730E+00 0.55253603E+03</pdfrwt>
<pdfrwt beam="2">  1       21 0.11561041E+00 0.55253603E+03</pdfrwt>
<totfact> 0.24569712E+02</totfact>
</mgrwt>
</event>
<event>
 6    1  0.9163926E-004  0.4428124E+03  0.7818608E-02  0.1029895E+00
         21   -1    0    0  501  502  0.00000000000E+00  0.00000000000E+00  0.18034283533E+04  0.18034283533E+04  0.00000000000E+00 0.  1.
         21   -1    0    0  502  503 -0.00000000000E+00 -0.00000000000E+00 -0.37632628558E+03  0.37632628558E+03  0.00000000000E+00 0.  1.
    9000007    2    1    2  501    0  0.17819170413E+03 -0.65108475943E+02  0.16326643818E+04  0.16916488490E+04  0.40011429340E+03 0.  0.
    9000005    1    3    3    0    0 -0.80530827683E+02 -0.13285250998E+03  0.37583235033E+03  0.40667672562E+03  0.99999687468E+00 0.  0.
          4    1    3    3  501    0  0.25872253181E+03  0.67744034038E+02  0.12568320315E+04  0.12849721234E+04  0.00000000000E+00 0.  1.
   -9000007    1    1    2    0  503 -0.17819170413E+03  0.65108475943E+02 -0.20556231411E+03  0.48810578981E+03  0.40000000000E+03 0.  1.
<mgrwt>
<rscale>  2 0.44278661E+03</rscale>
<asrwt>0</asrwt>
<pdfrwt beam="1">  1       21 0.27745051E+00 0.44281243E+03</pdfrwt>
<pdfrwt beam="2">  1       21 0.57896353E-01 0.44281243E+03</pdfrwt>
<totfact> 0.10069264E+02</totfact>
</mgrwt>
</event>
<event>
 6    1  0.9163926E-004  0.5051387E+03  0.7818608E-02  0.1012799E+00
         21   -1    0    0  501  502  0.00000000000E+00  0.00000000000E+00  0.48093119268E+03  0.48093119268E+03  0.00000000000E+00 0. -1.
         21   -1    0    0  502  503 -0.00000000000E+00 -0.00000000000E+00 -0.63341676024E+03  0.63341676024E+03  0.00000000000E+00 0. -1.
    9000007    2    1    2  501    0  0.16919712659E+03 -0.24711332920E+03  0.15407328878E+03  0.52811336036E+03  0.40678308466E+03 0.  0.
    9000005    1    3    3    0    0 -0.63421107231E+02  0.80372250362E+02  0.45249614458E+02  0.11193955098E+03  0.99999687468E+00 0.  0.
          4    1    3    3  501    0  0.23261823382E+03 -0.32748557956E+03  0.10882367432E+03  0.41617380938E+03  0.00000000000E+00 0.  1.
   -9000007    1    1    2    0  503 -0.16919712659E+03  0.24711332920E+03 -0.30655885634E+03  0.58623459256E+03  0.40000000000E+03 0. -1.
<mgrwt>
<rscale>  2 0.50377166E+03</rscale>
<asrwt>0</asrwt>
<pdfrwt beam="1">  1       21 0.73989414E-01 0.50513874E+03</pdfrwt>
<pdfrwt beam="2">  1       21 0.97448733E-01 0.50513874E+03</pdfrwt>
<totfact> 0.11958140E+03</totfact>
</mgrwt>
</event>
<event>
 6    1  0.9163926E-004  0.4189012E+03  0.7818608E-02  0.1037530E+00
         21   -1    0    0  501  502  0.00000000000E+00  0.00000000000E+00  0.74500871821E+03  0.74500871821E+03  0.00000000000E+00 0.  1.
         21   -1    0    0  502  503 -0.00000000000E+00 -0.00000000000E+00 -0.37020812765E+03  0.37020812765E+03  0.00000000000E+00 0.  1.
    9000007    2    1    2  501    0  0.10389050319E+03  0.68447204470E+02  0.52443391163E+03  0.67039285007E+03  0.39864443971E+03 0.  0.
    9000005    1    3    3    0    0 -0.65455022955E+02 -0.12157401605E+03  0.83773197349E+02  0.16150402471E+03  0.99999687468E+00 0.  0.
          4    1    3    3  501    0  0.16934552614E+03  0.19002122052E+03  0.44066071428E+03  0.50888882537E+03  0.00000000000E+00 0.  1.
   -9000007    1    1    2    0  503 -0.10389050319E+03 -0.68447204470E+02 -0.14963332108E+03  0.44482399579E+03  0.40000000000E+03 0.  1.
<mgrwt>
<rscale>  2 0.41857732E+03</rscale>
<asrwt>0</asrwt>
<pdfrwt beam="1">  1       21 0.11461673E+00 0.41890125E+03</pdfrwt>
<pdfrwt beam="2">  1       21 0.56955096E-01 0.41890125E+03</pdfrwt>
<totfact> 0.14839296E+03</totfact>
</mgrwt>
</event>
<event>
 6    1  0.9163926E-004  0.4939728E+03  0.7818608E-02  0.1015500E+00
         21   -1    0    0  501  502  0.00000000000E+00  0.00000000000E+00  0.50140741918E+03  0.50140741918E+03  0.00000000000E+00 0.  1.
         21   -1    0    0  502  503 -0.00000000000E+00 -0.00000000000E+00 -0.88261362520E+03  0.88261362520E+03  0.00000000000E+00 0.  1.
    9000007    2    1    2  501    0 -0.13936456529E+03 -0.25013307515E+03  0.27386415864E+03  0.56481031447E+03  0.40251717555E+03 0.  0.
    9000005    1    3    3    0    0 -0.32657069453E+02  0.68515250019E+01 -0.96186317592E+02  0.10181471046E+03  0.99999687468E+00 0.  0.
          4    1    3    3  501    0 -0.10670749584E+03 -0.25698460015E+03  0.37005047623E+03  0.46299560402E+03  0.00000000000E+00 0.  1.
   -9000007    1    1    2    0  503  0.13936456529E+03  0.25013307515E+03 -0.65507036466E+03  0.81921072991E+03  0.40000000000E+03 0.  1.
<mgrwt>
<rscale>  2 0.49345974E+03</rscale>
<asrwt>0</asrwt>
<pdfrwt beam="1">  1       21 0.77139603E-01 0.49397279E+03</pdfrwt>
<pdfrwt beam="2">  1       21 0.13578671E+00 0.49397279E+03</pdfrwt>
<totfact> 0.47275075E+02</totfact>
</mgrwt>
</event>
<event>
 6    1  0.9163926E-004  0.4560397E+03  0.7818608E-02  0.1025986E+00
         21   -1    0    0  501  502  0.00000000000E+00  0.00000000000E+00  0.18565705524E+03  0.18565705524E+03  0.00000000000E+00 0. -1.
         21   -1    0    0  502  503 -0.00000000000E+00 -0.00000000000E+00 -0.11235016592E+04  0.11235016592E+04  0.00000000000E+00 0.  1.
    9000007    2    1    2  501    0  0.15568080898E+03 -0.15202086941E+03 -0.51290147183E+03  0.68632364433E+03  0.40078094508E+03 0.  0.
    9000005    1    3    3    0    0 -0.49202306975E+02  0.12583199761E+02  0.46117030469E+02  0.68607466218E+02  0.99999687468E+00 0.  0.
          4    1    3    3  501    0  0.20488311595E+03 -0.16460406917E+03 -0.55901850229E+03  0.61771617811E+03  0.00000000000E+00 0.  1.
   -9000007    1    1    2    0  503 -0.15568080898E+03  0.15202086941E+03 -0.42494313216E+03  0.62283507014E+03  0.40000000000E+03 0. -1.
<mgrwt>
<rscale>  2 0.45586808E+03</rscale>
<asrwt>0</asrwt>
<pdfrwt beam="1">  1       21 0.28562624E-01 0.45603972E+03</pdfrwt>
<pdfrwt beam="2">  1       21 0.17284641E+00 0.45603972E+03</pdfrwt>
<totfact> 0.20309083E+03</totfact>
</mgrwt>
</event>
<event>
 6    1  0.9163926E-004  0.5016354E+03  0.7818608E-02  0.1013365E+00
         21   -1    0    0  501  502  0.00000000000E+00  0.00000000000E+00  0.64646704998E+03  0.64646704998E+03  0.00000000000E+00 0.  1.
         21   -1    0    0  502  503 -0.00000000000E+00 -0.00000000000E+00 -0.14271492267E+04  0.14271492267E+04  0.00000000000E+00 0.  1.
    9000007    2    1    2  501    0 -0.23654849391E+02  0.30147635839E+03  0.49388225427E+03  0.70395864234E+03  0.40023810723E+03 0.  0.
    9000005    1    3    3    0    0  0.98488104851E+02  0.13344276477E+03 -0.24858567424E+01  0.16587361980E+03  0.99999687468E+00 0.  0.
          4    1    3    3  501    0 -0.12214295424E+03  0.16803359362E+03  0.49636811101E+03  0.53808502254E+03  0.00000000000E+00 0.  1.
   -9000007    1    1    2    0  503  0.23654849391E+02 -0.30147635839E+03 -0.12745644310E+04  0.13696576343E+04  0.40000000000E+03 0.  1.
<mgrwt>
<rscale>  2 0.50158792E+03</rscale>
<asrwt>0</asrwt>
<pdfrwt beam="1">  1       21 0.99456470E-01 0.50163541E+03</pdfrwt>
<pdfrwt beam="2">  1       21 0.21956142E+00 0.50163541E+03</pdfrwt>
<totfact> 0.64112798E+01</totfact>
</mgrwt>
</event>
<event>
 6    1  0.9163926E-004  0.4171573E+03  0.7818608E-02  0.1038038E+00
         21   -1    0    0  501  502  0.00000000000E+00  0.00000000000E+00  0.40800674332E+03  0.40800674332E+03  0.00000000000E+00 0. -1.
         21   -1    0    0  502  503 -0.00000000000E+00 -0.00000000000E+00 -0.43826595159E+03  0.43826595159E+03  0.00000000000E+00 0. -1.
    9000007    2    1    2  501    0  0.11748028735E+03  0.14785085329E+02  0.55704032469E+02  0.42035028950E+03  0.39946365290E+03 0.  0.
    9000005    1    3    3    0    0  0.23154956856E+03 -0.92919572186E+02 -0.11305747629E+02  0.24975601998E+03  0.99999687468E+00 0.  0.
          4    1    3    3  501    0 -0.11406928120E+03  0.10770465751E+03  0.67009780098E+02  0.17059426952E+03  0.00000000000E+00 0.  1.
   -9000007    1    1    2    0  503 -0.11748028735E+03 -0.14785085329E+02 -0.85963240742E+02  0.42592240540E+03  0.40000000000E+03 0. -1.
<mgrwt>
<rscale>  2 0.41702868E+03</rscale>
<asrwt>0</asrwt>
<pdfrwt beam="1">  1       21 0.62770269E-01 0.41715730E+03</pdfrwt>
<pdfrwt beam="2">  1       21 0.67425531E-01 0.41715730E+03</pdfrwt>
<totfact> 0.41949967E+03</totfact>
</mgrwt>
</event>
<event>
 6    1  0.9163926E-004  0.6744190E+03  0.7818608E-02  0.9762163E-01
         21   -1    0    0  501  502  0.00000000000E+00  0.00000000000E+00  0.82267195808E+03  0.82267195808E+03  0.00000000000E+00 0.  1.
         21   -1    0    0  502  503 -0.00000000000E+00 -0.00000000000E+00 -0.56342877387E+03  0.56342877387E+03  0.00000000000E+00 0. -1.
    9000007    2    1    2  501    0 -0.54086580845E+03 -0.48011670246E+02  0.22567803116E+03  0.71084702946E+03  0.39941454945E+03 0.  0.
    9000005    1    3    3    0    0 -0.34931077582E+03 -0.64555566551E+02 -0.66190360590E+02  0.36134139412E+03  0.99999687468E+00 0.  0.
          4    1    3    3  501    0 -0.19155503263E+03  0.16543896305E+02  0.29186839175E+03  0.34950563534E+03  0.00000000000E+00 0.  1.
   -9000007    1    1    2    0  503  0.54086580845E+03  0.48011670246E+02  0.33565153042E+02  0.67525370249E+03  0.40000000000E+03 0.  1.
<mgrwt>
<rscale>  2 0.67433218E+03</rscale>
<asrwt>0</asrwt>
<pdfrwt beam="1">  1       21 0.12656492E+00 0.67441897E+03</pdfrwt>
<pdfrwt beam="2">  1       21 0.86681350E-01 0.67441897E+03</pdfrwt>
<totfact> 0.40633332E+02</totfact>
</mgrwt>
</event>
<event>
 6    1  0.9163926E-004  0.6666915E+03  0.7818608E-02  0.9775964E-01
         21   -1    0    0  501  502  0.00000000000E+00  0.00000000000E+00  0.66855296906E+03  0.66855296906E+03  0.00000000000E+00 0. -1.
         21   -1    0    0  502  503 -0.00000000000E+00 -0.00000000000E+00 -0.74766396533E+03  0.74766396533E+03  0.00000000000E+00 0. -1.
    9000007    2    1    2  501    0  0.26837957077E+03  0.46092293023E+03  0.19616746356E+03  0.69492935507E+03  0.39995948939E+03 0.  0.
    9000005    1    3    3    0    0  0.91418571310E+02  0.16228434930E+03  0.28142375037E+03  0.33748169206E+03  0.99999687468E+00 0.  0.
          4    1    3    3  501    0  0.17696099946E+03  0.29863858094E+03 -0.85256286807E+02  0.35744766301E+03  0.00000000000E+00 0.  1.
   -9000007    1    1    2    0  503 -0.26837957077E+03 -0.46092293023E+03 -0.27527845983E+03  0.72128757931E+03  0.40000000000E+03 0. -1.
<mgrwt>
<rscale>  2 0.66668541E+03</rscale>
<asrwt>0</asrwt>
<pdfrwt beam="1">  1       21 0.10285430E+00 0.66669149E+03</pdfrwt>
<pdfrwt beam="2">  1       21 0.11502523E+00 0.66669149E+03</pdfrwt>
<totfact> 0.34428253E+02</totfact>
</mgrwt>
</event>
<event>
 6    1  0.9163926E-004  0.4020823E+03  0.7818608E-02  0.1043099E+00
         21   -1    0    0  501  502  0.00000000000E+00  0.00000000000E+00  0.43145223584E+03  0.43145223584E+03  0.00000000000E+00 0.  1.
         21   -1    0    0  502  503 -0.00000000000E+00 -0.00000000000E+00 -0.16281212788E+04  0.16281212788E+04  0.00000000000E+00 0.  1.
    9000007    2    1    2  501    0  0.69246998722E+01 -0.40276875591E+02  0.30543468448E+03  0.50458612364E+03  0.39955804524E+03 0.  0.
    9000005    1    3    3    0    0  0.56674480530E+01  0.14337258075E+01 -0.98411322285E+02  0.98589877193E+02  0.99999687468E+00 0.  0.
          4    1    3    3  501    0  0.12572518192E+01 -0.41710601398E+02  0.40384600676E+03  0.40599624645E+03  0.00000000000E+00 0.  1.
   -9000007    1    1    2    0  503 -0.69246998722E+01  0.40276875591E+02 -0.15021037275E+04  0.15549873910E+04  0.40000000000E+03 0.  1.
<mgrwt>
<rscale>  2 0.40197234E+03</rscale>
<asrwt>0</asrwt>
<pdfrwt beam="1">  1       21 0.66377267E-01 0.40208230E+03</pdfrwt>
<pdfrwt beam="2">  1       21 0.25048020E+00 0.40208230E+03</pdfrwt>
<totfact> 0.11152954E+02</totfact>
</mgrwt>
</event>
<event>
 6    1  0.9163926E-004  0.4102371E+03  0.7818608E-02  0.1040384E+00
         21   -1    0    0  501  502  0.00000000000E+00  0.00000000000E+00  0.26233914293E+03  0.26233914293E+03  0.00000000000E+00 0. -1.
         21   -1    0    0  502  503 -0.00000000000E+00 -0.00000000000E+00 -0.95657203494E+03  0.95657203494E+03  0.00000000000E+00 0. -1.
    9000007    2    1    2  501    0 -0.15581056437E+02  0.84539384663E+02  0.32932220216E+01  0.41025033633E+03  0.40112942583E+03 0.  0.
    9000005    1    3    3    0    0 -0.15695263341E+03 -0.32970825673E+02  0.11298052886E+03  0.19618054026E+03  0.99999687468E+00 0.  0.
          4    1    3    3  501    0  0.14137157697E+03  0.11751021034E+03 -0.10968730684E+03  0.21406979607E+03  0.00000000000E+00 0.  1.
   -9000007    1    1    2    0  503  0.15581056437E+02 -0.84539384663E+02 -0.69752611403E+03  0.80866084154E+03  0.40000000000E+03 0. -1.
<mgrwt>
<rscale>  2 0.40996077E+03</rscale>
<asrwt>0</asrwt>
<pdfrwt beam="1">  1       21 0.40359869E-01 0.41023712E+03</pdfrwt>
<pdfrwt beam="2">  1       21 0.14716492E+00 0.41023712E+03</pdfrwt>
<totfact> 0.16122388E+03</totfact>
</mgrwt>
</event>
<event>
 6    1  0.9163926E-004  0.5223117E+03  0.7818608E-02  0.1008141E+00
         21   -1    0    0  501  502  0.00000000000E+00  0.00000000000E+00  0.52620931664E+03  0.52620931664E+03  0.00000000000E+00 0.  1.
         21   -1    0    0  502  503 -0.00000000000E+00 -0.00000000000E+00 -0.56393571682E+03  0.56393571682E+03  0.00000000000E+00 0.  1.
    9000007    2    1    2  501    0  0.33100307843E+03 -0.56977519253E+02  0.13670996441E+03  0.53947496806E+03  0.39941726448E+03 0.  0.
    9000005    1    3    3    0    0 -0.71894361156E+02  0.30794935300E+02 -0.43463455922E+02  0.89482954805E+02  0.99999687468E+00 0.  0.
          4    1    3    3  501    0  0.40289743959E+03 -0.87772454553E+02  0.18017342033E+03  0.44999201326E+03  0.00000000000E+00 0.  1.
   -9000007    1    1    2    0  503 -0.33100307843E+03  0.56977519253E+02 -0.17443636459E+03  0.55067006539E+03  0.40000000000E+03 0.  1.
<mgrwt>
<rscale>  2 0.52220009E+03</rscale>
<asrwt>0</asrwt>
<pdfrwt beam="1">  1       21 0.80955280E-01 0.52231167E+03</pdfrwt>
<pdfrwt beam="2">  1       21 0.86759340E-01 0.52231167E+03</pdfrwt>
<totfact> 0.12753234E+03</totfact>
</mgrwt>
</event>
<event>
 6    1  0.9163926E-004  0.4496152E+03  0.7818608E-02  0.1027848E+00
         21   -1    0    0  501  502  0.00000000000E+00  0.00000000000E+00  0.99033875269E+03  0.99033875269E+03  0.00000000000E+00 0. -1.
         21   -1    0    0  502  503 -0.00000000000E+00 -0.00000000000E+00 -0.20420782161E+03  0.20420782161E+03  0.00000000000E+00 0.  1.
    9000007    2    1    2  501    0  0.13060750992E+03  0.15841554338E+03  0.37699132346E+03  0.58664113383E+03  0.39983941265E+03 0.  0.
    9000005    1    3    3    0    0  0.13700530838E+03  0.13625287451E+03  0.46082278878E+03  0.49969384926E+03  0.99999687468E+00 0.  0.
          4    1    3    3  501    0 -0.63977984620E+01  0.22162668864E+02 -0.83831465320E+02  0.86947284569E+02  0.00000000000E+00 0.  1.
   -9000007    1    1    2    0  503 -0.13060750992E+03 -0.15841554338E+03  0.40913960761E+03  0.60790544047E+03  0.40000000000E+03 0. -1.
<mgrwt>
<rscale>  2 0.44957946E+03</rscale>
<asrwt>0</asrwt>
<pdfrwt beam="1">  1       21 0.15235980E+00 0.44961518E+03</pdfrwt>
<pdfrwt beam="2">  1       21 0.31416589E-01 0.44961518E+03</pdfrwt>
<totfact> 0.23988761E+03</totfact>
</mgrwt>
</event>
<event>
 6    1  0.9163926E-004  0.4774503E+03  0.7818608E-02  0.1019847E+00
         21   -1    0    0  501  502  0.00000000000E+00  0.00000000000E+00  0.10872466179E+04  0.10872466179E+04  0.00000000000E+00 0. -1.
         21   -1    0    0  502  503 -0.00000000000E+00 -0.00000000000E+00 -0.60745778003E+03  0.60745778003E+03  0.00000000000E+00 0. -1.
    9000007    2    1    2  501    0 -0.16673177693E+03  0.20011393525E+03  0.92564918770E+03  0.10415302067E+04  0.40014207503E+03 0.  0.
    9000005    1    3    3    0    0  0.59544602789E+02  0.15963309021E+03  0.69619217207E+03  0.71673762539E+03  0.99999687468E+00 0.  0.
          4    1    3    3  501    0 -0.22627637972E+03  0.40480845037E+02  0.22945701564E+03  0.32479258129E+03  0.00000000000E+00 0.  1.
   -9000007    1    1    2    0  503  0.16673177693E+03 -0.20011393525E+03 -0.44586034985E+03  0.65317419123E+03  0.40000000000E+03 0. -1.
<mgrwt>
<rscale>  2 0.47742049E+03</rscale>
<asrwt>0</asrwt>
<pdfrwt beam="1">  1       21 0.16726871E+00 0.47745026E+03</pdfrwt>
<pdfrwt beam="2">  1       21 0.93455043E-01 0.47745026E+03</pdfrwt>
<totfact> 0.17181055E+02</totfact>
</mgrwt>
</event>
<event>
 6    1  0.9163926E-004  0.7617464E+03  0.7818608E-02  0.9617183E-01
         21   -1    0    0  501  502  0.00000000000E+00  0.00000000000E+00  0.57111077749E+03  0.57111077749E+03  0.00000000000E+00 0.  1.
         21   -1    0    0  502  503 -0.00000000000E+00 -0.00000000000E+00 -0.17785464683E+04  0.17785464683E+04  0.00000000000E+00 0.  1.
    9000007    2    1    2  501    0 -0.55875437463E+03 -0.32871121217E+03  0.16573105471E+03  0.77935650289E+03  0.39959011991E+03 0.  0.
    9000005    1    3    3    0    0 -0.52656807258E+03 -0.11668012796E+03  0.67771004486E+02  0.54358264906E+03  0.99999687468E+00 0.  0.
          4    1    3    3  501    0 -0.32186302056E+02 -0.21203108421E+03  0.97960050220E+02  0.23577385383E+03  0.00000000000E+00 0.  1.
   -9000007    1    1    2    0  503  0.55875437463E+03  0.32871121217E+03 -0.13731667456E+04  0.15703007429E+04  0.40000000000E+03 0.  1.
<mgrwt>
<rscale>  2 0.76169256E+03</rscale>
<asrwt>0</asrwt>
<pdfrwt beam="1">  1       21 0.87863197E-01 0.76174636E+03</pdfrwt>
<pdfrwt beam="2">  1       21 0.27362253E+00 0.76174636E+03</pdfrwt>
<totfact> 0.35227816E+01</totfact>
</mgrwt>
</event>
<event>
 6    1  0.9163926E-004  0.4144632E+03  0.7818608E-02  0.1038898E+00
         21   -1    0    0  501  502  0.00000000000E+00  0.00000000000E+00  0.10803159264E+03  0.10803159264E+03  0.00000000000E+00 0.  1.
         21   -1    0    0  502  503 -0.00000000000E+00 -0.00000000000E+00 -0.15921335783E+04  0.15921335783E+04  0.00000000000E+00 0.  1.
    9000007    2    1    2  501    0  0.32347281531E+01 -0.10848624520E+03 -0.70669344240E+03  0.81917494853E+03  0.39981526472E+03 0.  0.
    9000005    1    3    3    0    0 -0.15322402290E+03  0.73783609121E+02 -0.35010441031E+03  0.38922451140E+03  0.99999687468E+00 0.  0.
          4    1    3    3  501    0  0.15645875105E+03 -0.18226985433E+03 -0.35658903209E+03  0.42995043712E+03  0.00000000000E+00 0.  1.
   -9000007    1    1    2    0  503 -0.32347281531E+01  0.10848624520E+03 -0.77740854330E+03  0.88099022245E+03  0.40000000000E+03 0.  1.
<mgrwt>
<rscale>  2 0.41441860E+03</rscale>
<asrwt>0</asrwt>
<pdfrwt beam="1">  1       21 0.16620246E-01 0.41446318E+03</pdfrwt>
<pdfrwt beam="2">  1       21 0.24494362E+00 0.41446318E+03</pdfrwt>
<totfact> 0.19622760E+03</totfact>
</mgrwt>
</event>
<event>
 6    1  0.9163926E-004  0.5160972E+03  0.7818608E-02  0.1009692E+00
         21   -1    0    0  501  502  0.00000000000E+00  0.00000000000E+00  0.29227713180E+04  0.29227713180E+04  0.00000000000E+00 0.  1.
         21   -1    0    0  502  503 -0.00000000000E+00 -0.00000000000E+00 -0.17073737186E+03  0.17073737186E+03  0.00000000000E+00 0.  1.
    9000007    2    1    2  501    0 -0.13434835764E+03 -0.29716471853E+03  0.24324074516E+04  0.24864523110E+04  0.39935289290E+03 0.  0.
    9000005    1    3    3    0    0  0.94138818189E+02 -0.39601487441E+02  0.17250888345E+03  0.20047620747E+03  0.99999687468E+00 0.  0.
          4    1    3    3  501    0 -0.22848717583E+03 -0.25756323109E+03  0.22598985682E+04  0.22859761035E+04  0.00000000000E+00 0.  1.
   -9000007    1    1    2    0  503  0.13434835764E+03  0.29716471853E+03  0.31962649457E+03  0.60705637891E+03  0.40000000000E+03 0.  1.
<mgrwt>
<rscale>  2 0.51597184E+03</rscale>
<asrwt>0</asrwt>
<pdfrwt beam="1">  1       21 0.44965709E+00 0.51609723E+03</pdfrwt>
<pdfrwt beam="2">  1       21 0.26267290E-01 0.51609723E+03</pdfrwt>
<totfact> 0.40570638E+01</totfact>
</mgrwt>
</event>
<event>
 6    1  0.9163926E-004  0.4676491E+03  0.7818608E-02  0.1022590E+00
         21   -1    0    0  501  502  0.00000000000E+00  0.00000000000E+00  0.24333334921E+03  0.24333334921E+03  0.00000000000E+00 0. -1.
         21   -1    0    0  502  503 -0.00000000000E+00 -0.00000000000E+00 -0.10090257125E+04  0.10090257125E+04  0.00000000000E+00 0. -1.
    9000007    2    1    2  501    0 -0.18753385639E+03  0.15338418103E+03 -0.17571068227E+03  0.49951509499E+03  0.39993178415E+03 0.  0.
    9000005    1    3    3    0    0 -0.20629553298E+03  0.79566194001E+02  0.78119275740E+02  0.23450425879E+03  0.99999687468E+00 0.  0.
          4    1    3    3  501    0  0.18761676591E+02  0.73817987027E+02 -0.25382995801E+03  0.26501083620E+03  0.00000000000E+00 0.  1.
   -9000007    1    1    2    0  503  0.18753385639E+03 -0.15338418103E+03 -0.58998168097E+03  0.75284396668E+03  0.40000000000E+03 0. -1.
<mgrwt>
<rscale>  2 0.46763448E+03</rscale>
<asrwt>0</asrwt>
<pdfrwt beam="1">  1       21 0.37435900E-01 0.46764907E+03</pdfrwt>
<pdfrwt beam="2">  1       21 0.15523472E+00 0.46764907E+03</pdfrwt>
<totfact> 0.15883413E+03</totfact>
</mgrwt>
</event>
<event>
 6    1  0.9163926E-004  0.4097617E+03  0.7818608E-02  0.1040463E+00
         21   -1    0    0  501  502  0.00000000000E+00  0.00000000000E+00  0.93437816118E+03  0.93437816118E+03  0.00000000000E+00 0.  1.
         21   -1    0    0  502  503 -0.00000000000E+00 -0.00000000000E+00 -0.27529059722E+03  0.27529059722E+03  0.00000000000E+00 0.  1.
    9000007    2    1    2  501    0 -0.87667860412E+02 -0.14798650918E+02  0.68603684157E+03  0.79902180860E+03  0.39985578500E+03 0.  0.
    9000005    1    3    3    0    0  0.55240986463E+02  0.12849783904E+03  0.51622378391E+03  0.53483759805E+03  0.99999687468E+00 0.  0.
          4    1    3    3  501    0 -0.14290884687E+03 -0.14329648996E+03  0.16981305766E+03  0.26418421055E+03  0.00000000000E+00 0.  1.
   -9000007    1    1    2    0  503  0.87667860412E+02  0.14798650918E+02 -0.26949277615E+02  0.41064694980E+03  0.40000000000E+03 0.  1.
<mgrwt>
<rscale>  2 0.40972650E+03</rscale>
<asrwt>0</asrwt>
<pdfrwt beam="1">  1       21 0.14375049E+00 0.40976170E+03</pdfrwt>
<pdfrwt beam="2">  1       21 0.42352400E-01 0.40976170E+03</pdfrwt>
<totfact> 0.15546546E+03</totfact>
</mgrwt>
</event>
<event>
 6    1  0.9163926E-004  0.6284783E+03  0.7818608E-02  0.9848170E-01
         21   -1    0    0  501  502  0.00000000000E+00  0.00000000000E+00  0.42401142706E+03  0.42401142706E+03  0.00000000000E+00 0. -1.
         21   -1    0    0  502  503 -0.00000000000E+00 -0.00000000000E+00 -0.11280882002E+04  0.11280882002E+04  0.00000000000E+00 0.  1.
    9000007    2    1    2  501    0 -0.32527392170E+03  0.35889198488E+03 -0.27812056216E+02  0.62909337142E+03  0.40047269389E+03 0.  0.
    9000005    1    3    3    0    0 -0.11166360270E+03 -0.72056698468E+02  0.49731139894E+02  0.14189825309E+03  0.99999687468E+00 0.  0.
          4    1    3    3  501    0 -0.21361031900E+03  0.43094868335E+03 -0.77543196110E+02  0.48719511833E+03  0.00000000000E+00 0.  1.
   -9000007    1    1    2    0  503  0.32527392170E+03 -0.35889198488E+03 -0.67626471691E+03  0.92300625582E+03  0.40000000000E+03 0.  1.
<mgrwt>
<rscale>  2 0.62840300E+03</rscale>
<asrwt>0</asrwt>
<pdfrwt beam="1">  1       21 0.65232528E-01 0.62847829E+03</pdfrwt>
<pdfrwt beam="2">  1       21 0.17355203E+00 0.62847829E+03</pdfrwt>
<totfact> 0.33354103E+02</totfact>
</mgrwt>
</event>
<event>
 6    1  0.9163926E-004  0.5028694E+03  0.7818608E-02  0.1013044E+00
         21   -1    0    0  501  502  0.00000000000E+00  0.00000000000E+00  0.15918768840E+04  0.15918768840E+04  0.00000000000E+00 0.  1.
         21   -1    0    0  502  503 -0.00000000000E+00 -0.00000000000E+00 -0.17145382309E+03  0.17145382309E+03  0.00000000000E+00 0.  1.
    9000007    2    1    2  501    0 -0.12338115676E+03  0.27835205480E+03  0.47080652585E+03  0.68886603111E+03  0.40021850005E+03 0.  0.
    9000005    1    3    3    0    0 -0.75632691619E+02 -0.91046650679E+02  0.54673057582E+02  0.13038381748E+03  0.99999687468E+00 0.  0.
          4    1    3    3  501    0 -0.47748465141E+02  0.36939870548E+03  0.41613346827E+03  0.55848221363E+03  0.00000000000E+00 0.  1.
   -9000007    1    1    2    0  503  0.12338115676E+03 -0.27835205480E+03  0.94961653506E+03  0.10744646760E+04  0.40000000000E+03 0.  1.
<mgrwt>
<rscale>  2 0.50282591E+03</rscale>
<asrwt>0</asrwt>
<pdfrwt beam="1">  1       21 0.24490413E+00 0.50286939E+03</pdfrwt>
<pdfrwt beam="2">  1       21 0.26377512E-01 0.50286939E+03</pdfrwt>
<totfact> 0.77806147E+02</totfact>
</mgrwt>
</event>
<event>
 6    1  0.9163926E-004  0.4078249E+03  0.7818608E-02  0.1041107E+00
         21   -1    0    0  501  502  0.00000000000E+00  0.00000000000E+00  0.15256374476E+03  0.15256374476E+03  0.00000000000E+00 0.  1.
         21   -1    0    0  502  503 -0.00000000000E+00 -0.00000000000E+00 -0.21307907742E+04  0.21307907742E+04  0.00000000000E+00 0. -1.
    9000007    2    1    2  501    0 -0.66867341911E+02 -0.43010189123E+02 -0.19120657729E+03  0.45038883074E+03  0.39996128047E+03 0.  0.
    9000005    1    3    3    0    0  0.11653636400E+03  0.34315001011E+02  0.55364312284E+02  0.13350824131E+03  0.99999687468E+00 0.  0.
          4    1    3    3  501    0 -0.18340370592E+03 -0.77325190134E+02 -0.24657088957E+03  0.31688058943E+03  0.00000000000E+00 0.  1.
   -9000007    1    1    2    0  503  0.66867341911E+02  0.43010189123E+02 -0.17870204522E+04  0.18329656883E+04  0.40000000000E+03 0. -1.
<mgrwt>
<rscale>  2 0.40781537E+03</rscale>
<asrwt>0</asrwt>
<pdfrwt beam="1">  1       21 0.23471347E-01 0.40782486E+03</pdfrwt>
<pdfrwt beam="2">  1       21 0.32781395E+00 0.40782486E+03</pdfrwt>
<totfact> 0.32405999E+02</totfact>
</mgrwt>
</event>
<event>
 6    1  0.9163926E-004  0.5424089E+03  0.7818608E-02  0.1003266E+00
         21   -1    0    0  501  502  0.00000000000E+00  0.00000000000E+00  0.45669229035E+03  0.45669229035E+03  0.00000000000E+00 0. -1.
         21   -1    0    0  502  503 -0.00000000000E+00 -0.00000000000E+00 -0.64529523309E+03  0.64529523309E+03  0.00000000000E+00 0.  1.
    9000007    2    1    2  501    0 -0.22156551527E+03 -0.29174486799E+03 -0.71731111808E+02  0.54713135250E+03  0.40000127367E+03 0.  0.
    9000005    1    3    3    0    0  0.52404016898E+02 -0.17970673565E+03  0.92314577587E+02  0.20871912479E+03  0.99999687468E+00 0.  0.
          4    1    3    3  501    0 -0.27396953217E+03 -0.11203813234E+03 -0.16404568940E+03  0.33841222771E+03  0.00000000000E+00 0.  1.
   -9000007    1    1    2    0  503  0.22156551527E+03  0.29174486799E+03 -0.11687183094E+03  0.55485617093E+03  0.40000000000E+03 0. -1.
<mgrwt>
<rscale>  2 0.54240862E+03</rscale>
<asrwt>0</asrwt>
<pdfrwt beam="1">  1       21 0.70260352E-01 0.54240885E+03</pdfrwt>
<pdfrwt beam="2">  1       21 0.99276190E-01 0.54240885E+03</pdfrwt>
<totfact> 0.12695199E+03</totfact>
</mgrwt>
</event>
<event>
 6    1  0.9163926E-004  0.4037904E+03  0.7818608E-02  0.1042496E+00
         21   -1    0    0  501  502  0.00000000000E+00  0.00000000000E+00  0.77537084069E+03  0.77537084069E+03  0.00000000000E+00 0. -1.
         21   -1    0    0  502  503 -0.00000000000E+00 -0.00000000000E+00 -0.21018317463E+03  0.21018317463E+03  0.00000000000E+00 0.  1.
    9000007    2    1    2  501    0 -0.26496832808E+02  0.48421110931E+02  0.28832947067E+03  0.49596526291E+03  0.39975113786E+03 0.  0.
    9000005    1    3    3    0    0 -0.18799717341E+03  0.24760882232E+02  0.27248804114E+03  0.33197405178E+03  0.99999687468E+00 0.  0.
          4    1    3    3  501    0  0.16150034060E+03  0.23660228699E+02  0.15841429530E+02  0.16399121112E+03  0.00000000000E+00 0.  1.
   -9000007    1    1    2    0  503  0.26496832808E+02 -0.48421110931E+02  0.27685819539E+03  0.48958875241E+03  0.40000000000E+03 0.  1.
<mgrwt>
<rscale>  2 0.40372875E+03</rscale>
<asrwt>0</asrwt>
<pdfrwt beam="1">  1       21 0.11928782E+00 0.40379040E+03</pdfrwt>
<pdfrwt beam="2">  1       21 0.32335874E-01 0.40379040E+03</pdfrwt>
<totfact> 0.43814400E+03</totfact>
</mgrwt>
</event>
<event>
 6    1  0.9163926E-004  0.5087866E+03  0.7818608E-02  0.1011527E+00
         21   -1    0    0  501  502  0.00000000000E+00  0.00000000000E+00  0.39352132321E+03  0.39352132321E+03  0.00000000000E+00 0. -1.
         21   -1    0    0  502  503 -0.00000000000E+00 -0.00000000000E+00 -0.88949898775E+03  0.88949898775E+03  0.00000000000E+00 0. -1.
    9000007    2    1    2  501    0 -0.18752021204E+03 -0.25185902322E+03  0.79604359638E+02  0.51497639031E+03  0.40033364960E+03 0.  0.
    9000005    1    3    3    0    0  0.93163245617E+02 -0.20302348785E+03  0.46388235994E+02  0.22814643409E+03  0.99999687468E+00 0.  0.
          4    1    3    3  501    0 -0.28068345765E+03 -0.48835535364E+02  0.33216123644E+02  0.28682995622E+03  0.00000000000E+00 0.  1.
   -9000007    1    1    2    0  503  0.18752021204E+03  0.25185902322E+03 -0.57558202417E+03  0.76804392065E+03  0.40000000000E+03 0. -1.
<mgrwt>
<rscale>  2 0.50872099E+03</rscale>
<asrwt>0</asrwt>
<pdfrwt beam="1">  1       21 0.60541742E-01 0.50878662E+03</pdfrwt>
<pdfrwt beam="2">  1       21 0.13684600E+00 0.50878662E+03</pdfrwt>
<totfact> 0.79396874E+02</totfact>
</mgrwt>
</event>
<event>
 6    1  0.9163926E-004  0.4016615E+03  0.7818608E-02  0.1043349E+00
         21   -1    0    0  501  502  0.00000000000E+00  0.00000000000E+00  0.27153082424E+04  0.27153082424E+04  0.00000000000E+00 0. -1.
         21   -1    0    0  502  503 -0.00000000000E+00 -0.00000000000E+00 -0.64344279999E+02  0.64344279999E+02  0.00000000000E+00 0. -1.
    9000007    2    1    2  501    0  0.13970787445E+02  0.33716488908E+02  0.92886681634E+03  0.10113339524E+04  0.39833505527E+03 0.  0.
    9000005    1    3    3    0    0 -0.77024903765E+02 -0.88429203728E+01  0.49094175549E+00  0.77538855152E+02  0.99999687468E+00 0.  0.
          4    1    3    3  501    0  0.90995691210E+02  0.42559409281E+02  0.92837587458E+03  0.93379509724E+03  0.00000000000E+00 0.  1.
   -9000007    1    1    2    0  503 -0.13970787445E+02 -0.33716488908E+02  0.17220971461E+04  0.17683185700E+04  0.40000000000E+03 0. -1.
<mgrwt>
<rscale>  2 0.40124638E+03</rscale>
<asrwt>0</asrwt>
<pdfrwt beam="1">  1       21 0.41773964E+00 0.40166153E+03</pdfrwt>
<pdfrwt beam="2">  1       21 0.98991221E-02 0.40166153E+03</pdfrwt>
<totfact> 0.44389715E+02</totfact>
</mgrwt>
</event>
<event>
 6    1  0.9163926E-004  0.4702120E+03  0.7818608E-02  0.1022425E+00
         21   -1    0    0  501  502  0.00000000000E+00  0.00000000000E+00  0.18037135245E+04  0.18037135245E+04  0.00000000000E+00 0. -1.
         21   -1    0    0  502  503 -0.00000000000E+00 -0.00000000000E+00 -0.14913187294E+03  0.14913187294E+03  0.00000000000E+00 0. -1.
    9000007    2    1    2  501    0  0.20185474342E+03  0.14266744895E+03  0.12492728529E+04  0.13320599589E+04  0.39064271998E+03 0.  0.
    9000005    1    3    3    0    0  0.57946818514E+02  0.19013499785E+03  0.11053189134E+04  0.11230494430E+04  0.99999687468E+00 0.  0.
          4    1    3    3  501    0  0.14390792490E+03 -0.47467548905E+02  0.14395393955E+03  0.20901051591E+03  0.00000000000E+00 0.  1.
   -9000007    1    1    2    0  503 -0.20185474342E+03 -0.14266744895E+03  0.40530879864E+03  0.62078543852E+03  0.40000000000E+03 0. -1.
<mgrwt>
<rscale>  2 0.46821587E+03</rscale>
<asrwt>0</asrwt>
<pdfrwt beam="1">  1       21 0.27749437E+00 0.47021201E+03</pdfrwt>
<pdfrwt beam="2">  1       21 0.22943366E-01 0.47021201E+03</pdfrwt>
<totfact> 0.65537675E+02</totfact>
</mgrwt>
</event>
<event>
 6    1  0.9163926E-004  0.4015502E+03  0.7818608E-02  0.1043283E+00
         21   -1    0    0  501  502  0.00000000000E+00  0.00000000000E+00  0.11662282184E+04  0.11662282184E+04  0.00000000000E+00 0. -1.
         21   -1    0    0  502  503 -0.00000000000E+00 -0.00000000000E+00 -0.21285685722E+03  0.21285685722E+03  0.00000000000E+00 0. -1.
    9000007    2    1    2  501    0 -0.12160354008E+02 -0.33086106010E+02  0.88514179097E+03  0.97177949150E+03  0.39954577379E+03 0.  0.
    9000005    1    3    3    0    0  0.14830143310E+03 -0.87730830736E+02  0.69940991339E+03  0.72032301134E+03  0.99999687468E+00 0.  0.
          4    1    3    3  501    0 -0.16046178711E+03  0.54644724727E+02  0.18573187758E+03  0.25145648016E+03  0.00000000000E+00 0.  1.
   -9000007    1    1    2    0  503  0.12160354008E+02  0.33086106010E+02  0.68229570230E+02  0.40730558414E+03  0.40000000000E+03 0. -1.
<mgrwt>
<rscale>  2 0.40143704E+03</rscale>
<asrwt>0</asrwt>
<pdfrwt beam="1">  1       21 0.17941972E+00 0.40155020E+03</pdfrwt>
<pdfrwt beam="2">  1       21 0.32747209E-01 0.40155020E+03</pdfrwt>
<totfact> 0.14228216E+03</totfact>
</mgrwt>
</event>
<event>
 6    1  0.9163926E-004  0.5574087E+03  0.7818608E-02  0.9998004E-01
         21   -1    0    0  501  502  0.00000000000E+00  0.00000000000E+00  0.17977614077E+04  0.17977614077E+04  0.00000000000E+00 0.  1.
         21   -1    0    0  502  503 -0.00000000000E+00 -0.00000000000E+00 -0.19743547241E+03  0.19743547241E+03  0.00000000000E+00 0. -1.
    9000007    2    1    2  501    0  0.17206882503E+03 -0.34798956515E+03  0.11525411760E+04  0.12802034475E+04  0.39983157281E+03 0.  0.
    9000005    1    3    3    0    0  0.10697084053E+03 -0.38770434609E+03  0.59939689537E+03  0.72182758251E+03  0.99999687468E+00 0.  0.
          4    1    3    3  501    0  0.65097984503E+02  0.39714780941E+02  0.55314428062E+03  0.55837586498E+03  0.00000000000E+00 0.  1.
   -9000007    1    1    2    0  503 -0.17206882503E+03  0.34798956515E+03  0.44778475927E+03  0.71499343258E+03  0.40000000000E+03 0. -1.
<mgrwt>
<rscale>  2 0.55737845E+03</rscale>
<asrwt>0</asrwt>
<pdfrwt beam="1">  1       21 0.27657867E+00 0.55740866E+03</pdfrwt>
<pdfrwt beam="2">  1       21 0.30374689E-01 0.55740866E+03</pdfrwt>
<totfact> 0.36702523E+02</totfact>
</mgrwt>
</event>
<event>
 6    1  0.9163926E-004  0.4708439E+03  0.7818608E-02  0.1021767E+00
         21   -1    0    0  501  502  0.00000000000E+00  0.00000000000E+00  0.28422824577E+03  0.28422824577E+03  0.00000000000E+00 0.  1.
         21   -1    0    0  502  503 -0.00000000000E+00 -0.00000000000E+00 -0.78024543760E+03  0.78024543760E+03  0.00000000000E+00 0.  1.
    9000007    2    1    2  501    0 -0.21738996064E+03  0.11537783523E+03 -0.21982187506E+03  0.51963031793E+03  0.40140200636E+03 0.  0.
    9000005    1    3    3    0    0 -0.27479055588E+03 -0.55870224627E+02 -0.81142790948E+02  0.29191862585E+03  0.99999687468E+00 0.  0.
          4    1    3    3  501    0  0.57400595244E+02  0.17124805986E+03 -0.13867908411E+03  0.22771169208E+03  0.00000000000E+00 0.  1.
   -9000007    1    1    2    0  503  0.21738996064E+03 -0.11537783523E+03 -0.27619531677E+03  0.54484336543E+03  0.40000000000E+03 0. -1.
<mgrwt>
<rscale>  2 0.47054498E+03</rscale>
<asrwt>0</asrwt>
<pdfrwt beam="1">  1       21 0.43727423E-01 0.47084393E+03</pdfrwt>
<pdfrwt beam="2">  1       21 0.12003776E+00 0.47084393E+03</pdfrwt>
<totfact> 0.22707004E+03</totfact>
</mgrwt>
</event>
<event>
 6    1  0.9163926E-004  0.4105484E+03  0.7818608E-02  0.1040328E+00
         21   -1    0    0  501  502  0.00000000000E+00  0.00000000000E+00  0.53178310367E+03  0.53178310367E+03  0.00000000000E+00 0. -1.
         21   -1    0    0  502  503 -0.00000000000E+00 -0.00000000000E+00 -0.43665961368E+03  0.43665961368E+03  0.00000000000E+00 0. -1.
    9000007    2    1    2  501    0 -0.31326271772E+02  0.78702059132E+02  0.30252997276E+03  0.50997483570E+03  0.40171457431E+03 0.  0.
    9000005    1    3    3    0    0 -0.60333493424E+02  0.21306566133E+03  0.29950817335E+03  0.37248255310E+03  0.99999687468E+00 0.  0.
          4    1    3    3  501    0  0.29007221652E+02 -0.13436360219E+03  0.30217994121E+01  0.13749228260E+03  0.00000000000E+00 0.  1.
   -9000007    1    1    2    0  503  0.31326271772E+02 -0.78702059132E+02 -0.20740648278E+03  0.45846788166E+03  0.40000000000E+03 0. -1.
<mgrwt>
<rscale>  2 0.41012832E+03</rscale>
<asrwt>0</asrwt>
<pdfrwt beam="1">  1       21 0.81812786E-01 0.41054835E+03</pdfrwt>
<pdfrwt beam="2">  1       21 0.67178402E-01 0.41054835E+03</pdfrwt>
<totfact> 0.23309268E+03</totfact>
</mgrwt>
</event>
<event>
 6    1  0.9163926E-004  0.4068514E+03  0.7818608E-02  0.1041454E+00
         21   -1    0    0  501  502  0.00000000000E+00  0.00000000000E+00  0.41624347945E+03  0.41624347945E+03  0.00000000000E+00 0.  1.
         21   -1    0    0  502  503 -0.00000000000E+00 -0.00000000000E+00 -0.39961708125E+03  0.39961708125E+03  0.00000000000E+00 0.  1.
    9000007    2    1    2  501    0 -0.36624732928E+02  0.63119065988E+02  0.38509492329E+02  0.40866987151E+03  0.40025328896E+03 0.  0.
    9000005    1    3    3    0    0  0.14930946401E+03  0.11912026395E+03 -0.46666749806E+02  0.19662588553E+03  0.99999687468E+00 0.  0.
          4    1    3    3  501    0 -0.18593419694E+03 -0.56001197967E+02  0.85176242135E+02  0.21204398598E+03  0.00000000000E+00 0.  1.
   -9000007    1    1    2    0  503  0.36624732928E+02 -0.63119065988E+02 -0.21883094123E+02  0.40719068919E+03  0.40000000000E+03 0.  1.
<mgrwt>
<rscale>  2 0.40678912E+03</rscale>
<asrwt>0</asrwt>
<pdfrwt beam="1">  1       21 0.64037459E-01 0.40685143E+03</pdfrwt>
<pdfrwt beam="2">  1       21 0.61479551E-01 0.40685143E+03</pdfrwt>
<totfact> 0.49427292E+03</totfact>
</mgrwt>
</event>
<event>
 6    1  0.9163926E-004  0.4428075E+03  0.7818608E-02  0.1029933E+00
         21   -1    0    0  501  502  0.00000000000E+00  0.00000000000E+00  0.10760424112E+04  0.10760424112E+04  0.00000000000E+00 0. -1.
         21   -1    0    0  502  503 -0.00000000000E+00 -0.00000000000E+00 -0.18866637109E+03  0.18866637109E+03  0.00000000000E+00 0. -1.
    9000007    2    1    2  501    0  0.13814357889E+03 -0.13036407833E+03  0.56243184941E+03  0.71546642378E+03  0.39935470076E+03 0.  0.
    9000005    1    3    3    0    0  0.16709111049E+03 -0.24983597543E+03  0.48372971757E+03  0.56950232087E+03  0.99999687468E+00 0.  0.
          4    1    3    3  501    0 -0.28947531603E+02  0.11947189710E+03  0.78702131839E+02  0.14596410291E+03  0.00000000000E+00 0.  1.
   -9000007    1    1    2    0  503 -0.13814357889E+03  0.13036407833E+03  0.32494419070E+03  0.54924235850E+03  0.40000000000E+03 0. -1.
<mgrwt>
<rscale>  2 0.44266167E+03</rscale>
<asrwt>0</asrwt>
<pdfrwt beam="1">  1       21 0.16554498E+00 0.44280745E+03</pdfrwt>
<pdfrwt beam="2">  1       21 0.29025596E-01 0.44280745E+03</pdfrwt>
<totfact> 0.22359852E+03</totfact>
</mgrwt>
</event>
<event>
 6    1  0.9163926E-004  0.4553116E+03  0.7818608E-02  0.1026156E+00
         21   -1    0    0  501  502  0.00000000000E+00  0.00000000000E+00  0.15566736110E+03  0.15566736110E+03  0.00000000000E+00 0.  1.
         21   -1    0    0  502  503 -0.00000000000E+00 -0.00000000000E+00 -0.21673898464E+04  0.21673898464E+04  0.00000000000E+00 0.  1.
    9000007    2    1    2  501    0 -0.18299286456E+03 -0.11722705979E+03 -0.28458083223E+03  0.53693099085E+03  0.40010007102E+03 0.  0.
    9000005    1    3    3    0    0 -0.32877445552E+02 -0.24588672551E+03 -0.21200091539E+03  0.32632284064E+03  0.99999687468E+00 0.  0.
          4    1    3    3  501    0 -0.15011541900E+03  0.12865966571E+03 -0.72579916844E+02  0.21060815020E+03  0.00000000000E+00 0.  1.
   -9000007    1    1    2    0  503  0.18299286456E+03  0.11722705979E+03 -0.17271416531E+04  0.17861262167E+04  0.40000000000E+03 0.  1.
<mgrwt>
<rscale>  2 0.45528960E+03</rscale>
<asrwt>0</asrwt>
<pdfrwt beam="1">  1       21 0.23948828E-01 0.45531158E+03</pdfrwt>
<pdfrwt beam="2">  1       21 0.33344455E+00 0.45531158E+03</pdfrwt>
<totfact> 0.27954683E+02</totfact>
</mgrwt>
</event>
<event>
 6    1  0.9163926E-004  0.4753065E+03  0.7818608E-02  0.1020491E+00
         21   -1    0    0  501  502  0.00000000000E+00  0.00000000000E+00  0.14997868221E+04  0.14997868221E+04  0.00000000000E+00 0.  1.
         21   -1    0    0  502  503 -0.00000000000E+00 -0.00000000000E+00 -0.18818397439E+03  0.18818397439E+03  0.00000000000E+00 0. -1.
    9000007    2    1    2  501    0 -0.24772431912E+03 -0.61305669387E+02  0.10345967257E+04  0.11385546382E+04  0.40098697729E+03 0.  0.
    9000005    1    3    3    0    0 -0.33608050334E+03 -0.10695096159E+03  0.63090695142E+03  0.72279540277E+03  0.99999687468E+00 0.  0.
          4    1    3    3  501    0  0.88356184228E+02  0.45645292206E+02  0.40368977427E+03  0.41575923542E+03  0.00000000000E+00 0.  1.
   -9000007    1    1    2    0  503  0.24772431912E+03  0.61305669387E+02  0.27700612204E+03  0.54941615832E+03  0.40000000000E+03 0. -1.
<mgrwt>
<rscale>  2 0.47509829E+03</rscale>
<asrwt>0</asrwt>
<pdfrwt beam="1">  1       21 0.23073643E+00 0.47530651E+03</pdfrwt>
<pdfrwt beam="2">  1       21 0.28951382E-01 0.47530651E+03</pdfrwt>
<totfact> 0.80415732E+02</totfact>
</mgrwt>
</event>
<event>
 6    1  0.9163926E-004  0.4136473E+03  0.7818608E-02  0.1039172E+00
         21   -1    0    0  501  502  0.00000000000E+00  0.00000000000E+00  0.34447950656E+03  0.34447950656E+03  0.00000000000E+00 0. -1.
         21   -1    0    0  502  503 -0.00000000000E+00 -0.00000000000E+00 -0.17598161728E+04  0.17598161728E+04  0.00000000000E+00 0. -1.
    9000007    2    1    2  501    0 -0.69115157299E+02  0.78395893084E+02  0.18375432175E+03  0.45262537058E+03  0.40022650375E+03 0.  0.
    9000005    1    3    3    0    0 -0.85935402172E+02  0.16884970444E+03 -0.54564746348E+02  0.19716345395E+03  0.99999687468E+00 0.  0.
          4    1    3    3  501    0  0.16820244872E+02 -0.90453811357E+02  0.23831906810E+03  0.25546191663E+03  0.00000000000E+00 0.  1.
   -9000007    1    1    2    0  503  0.69115157299E+02 -0.78395893084E+02 -0.15990909880E+04  0.16516703088E+04  0.40000000000E+03 0. -1.
<mgrwt>
<rscale>  2 0.41359249E+03</rscale>
<asrwt>0</asrwt>
<pdfrwt beam="1">  1       21 0.52996847E-01 0.41364728E+03</pdfrwt>
<pdfrwt beam="2">  1       21 0.27074095E+00 0.41364728E+03</pdfrwt>
<totfact> 0.13631054E+02</totfact>
</mgrwt>
</event>
<event>
 6    1  0.9163926E-004  0.4232731E+03  0.7818608E-02  0.1036160E+00
         21   -1    0    0  501  502  0.00000000000E+00  0.00000000000E+00  0.68156655312E+03  0.68156655312E+03  0.00000000000E+00 0.  1.
         21   -1    0    0  502  503 -0.00000000000E+00 -0.00000000000E+00 -0.26190186779E+03  0.26190186779E+03  0.00000000000E+00 0.  1.
    9000007    2    1    2  501    0 -0.63620411572E+02  0.12293329397E+03  0.22290851168E+03  0.47669958798E+03  0.39798761421E+03 0.  0.
    9000005    1    3    3    0    0 -0.21993145322E+03  0.14441502856E+03  0.15032094422E+03  0.30302298733E+03  0.99999687468E+00 0.  0.
          4    1    3    3  501    0  0.15631104165E+03 -0.21481734587E+02  0.72587567461E+02  0.17367660064E+03  0.00000000000E+00 0.  1.
   -9000007    1    1    2    0  503  0.63620411572E+02 -0.12293329397E+03  0.19675617365E+03  0.46676883294E+03  0.40000000000E+03 0.  1.
<mgrwt>
<rscale>  2 0.42279703E+03</rscale>
<asrwt>0</asrwt>
<pdfrwt beam="1">  1       21 0.10485639E+00 0.42327314E+03</pdfrwt>
<pdfrwt beam="2">  1       21 0.40292595E-01 0.42327314E+03</pdfrwt>
<totfact> 0.38349237E+03</totfact>
</mgrwt>
</event>
<event>
 6    1  0.9163926E-004  0.4022074E+03  0.7818608E-02  0.1043043E+00
         21   -1    0    0  501  502  0.00000000000E+00  0.00000000000E+00  0.33006300055E+03  0.33006300055E+03  0.00000000000E+00 0. -1.
         21   -1    0    0  502  503 -0.00000000000E+00 -0.00000000000E+00 -0.83807366343E+03  0.83807366343E+03  0.00000000000E+00 0. -1.
    9000007    2    1    2  501    0  0.31956800959E+02  0.22807995637E+02  0.12247190661E+03  0.42044039394E+03  0.40028654131E+03 0.  0.
    9000005    1    3    3    0    0  0.37618868059E+02  0.20581191692E+03  0.11135444951E+03  0.23701168283E+03  0.99999687468E+00 0.  0.
          4    1    3    3  501    0 -0.56620671002E+01 -0.18300392128E+03  0.11117457105E+02  0.18342871111E+03  0.00000000000E+00 0.  1.
   -9000007    1    1    2    0  503 -0.31956800959E+02 -0.22807995637E+02 -0.63048256949E+03  0.74769627004E+03  0.40000000000E+03 0. -1.
<mgrwt>
<rscale>  2 0.40213604E+03</rscale>
<asrwt>0</asrwt>
<pdfrwt beam="1">  1       21 0.50778923E-01 0.40220736E+03</pdfrwt>
<pdfrwt beam="2">  1       21 0.12893441E+00 0.40220736E+03</pdfrwt>
<totfact> 0.14180125E+03</totfact>
</mgrwt>
</event>
<event>
 6    1  0.9163926E-004  0.6723721E+03  0.7818608E-02  0.9766017E-01
         21   -1    0    0  501  502  0.00000000000E+00  0.00000000000E+00  0.12795812009E+04  0.12795812009E+04  0.00000000000E+00 0. -1.
         21   -1    0    0  502  503 -0.00000000000E+00 -0.00000000000E+00 -0.42859021994E+03  0.42859021994E+03  0.00000000000E+00 0.  1.
    9000007    2    1    2  501    0 -0.24722576380E+03  0.48058684598E+03  0.78418637204E+03  0.10324886916E+04  0.39874846378E+03 0.  0.
    9000005    1    3    3    0    0 -0.28276200859E+03  0.28472433309E+03  0.71833798314E+03  0.82282000302E+03  0.99999687468E+00 0.  0.
          4    1    3    3  501    0  0.35536244788E+02  0.19586251289E+03  0.65848388898E+02  0.20966868857E+03  0.00000000000E+00 0.  1.
   -9000007    1    1    2    0  503  0.24722576380E+03 -0.48058684598E+03  0.66804608912E+02  0.67568272924E+03  0.40000000000E+03 0.  1.
<mgrwt>
<rscale>  2 0.67218611E+03</rscale>
<asrwt>0</asrwt>
<pdfrwt beam="1">  1       21 0.19685865E+00 0.67237214E+03</pdfrwt>
<pdfrwt beam="2">  1       21 0.65936957E-01 0.67237214E+03</pdfrwt>
<totfact> 0.21978217E+02</totfact>
</mgrwt>
</event>
<event>
 6    1  0.9163926E-004  0.4865719E+03  0.7818608E-02  0.1017369E+00
         21   -1    0    0  501  502  0.00000000000E+00  0.00000000000E+00  0.21885385038E+03  0.21885385038E+03  0.00000000000E+00 0.  1.
         21   -1    0    0  502  503 -0.00000000000E+00 -0.00000000000E+00 -0.11688221206E+04  0.11688221206E+04  0.00000000000E+00 0.  1.
    9000007    2    1    2  501    0  0.17989044954E+03  0.21069322479E+03 -0.66503226190E+03  0.82381363169E+03  0.39956073579E+03 0.  0.
    9000005    1    3    3    0    0 -0.12890965669E+03  0.51984549577E+02 -0.18738878888E+03  0.23331448985E+03  0.99999687468E+00 0.  0.
          4    1    3    3  501    0  0.30880010623E+03  0.15870867521E+03 -0.47764347302E+03  0.59049914184E+03  0.00000000000E+00 0.  1.
   -9000007    1    1    2    0  503 -0.17989044954E+03 -0.21069322479E+03 -0.28493600829E+03  0.56386233925E+03  0.40000000000E+03 0.  1.
<mgrwt>
<rscale>  2 0.48648161E+03</rscale>
<asrwt>0</asrwt>
<pdfrwt beam="1">  1       21 0.33669822E-01 0.48657189E+03</pdfrwt>
<pdfrwt beam="2">  1       21 0.17981879E+00 0.48657189E+03</pdfrwt>
<totfact> 0.12877569E+03</totfact>
</mgrwt>
</event>
<event>
 6    1  0.9163926E-004  0.7014289E+03  0.7818608E-02  0.9715239E-01
         21   -1    0    0  501  502  0.00000000000E+00  0.00000000000E+00  0.59624901461E+03  0.59624901461E+03  0.00000000000E+00 0.  1.
         21   -1    0    0  502  503 -0.00000000000E+00 -0.00000000000E+00 -0.91991267826E+03  0.91991267826E+03  0.00000000000E+00 0.  1.
    9000007    2    1    2  501    0  0.28889604601E+03  0.49706332696E+03  0.82931435955E+02  0.70631451504E+03  0.40183291885E+03 0.  0.
    9000005    1    3    3    0    0 -0.87689145863E+00 -0.67095356941E+02  0.11343310884E+02  0.68060462511E+02  0.99999687468E+00 0.  0.
          4    1    3    3  501    0  0.28977293747E+03  0.56415868390E+03  0.71588125071E+02  0.63825405252E+03  0.00000000000E+00 0.  1.
   -9000007    1    1    2    0  503 -0.28889604601E+03 -0.49706332696E+03 -0.40659509961E+03  0.80984717783E+03  0.40000000000E+03 0.  1.
<mgrwt>
<rscale>  2 0.70116670E+03</rscale>
<asrwt>0</asrwt>
<pdfrwt beam="1">  1       21 0.91730619E-01 0.70142895E+03</pdfrwt>
<pdfrwt beam="2">  1       21 0.14152503E+00 0.70142895E+03</pdfrwt>
<totfact> 0.26173644E+02</totfact>
</mgrwt>
</event>
<event>
 6    1  0.9163926E-004  0.5107829E+03  0.7818608E-02  0.1011018E+00
         21   -1    0    0  501  502  0.00000000000E+00  0.00000000000E+00  0.56537599417E+03  0.56537599417E+03  0.00000000000E+00 0.  1.
         21   -1    0    0  502  503 -0.00000000000E+00 -0.00000000000E+00 -0.46125668710E+03  0.46125668710E+03  0.00000000000E+00 0. -1.
    9000007    2    1    2  501    0 -0.92788825254E+02  0.30337557970E+03  0.55353486630E+02  0.51377342797E+03  0.40031564840E+03 0.  0.
    9000005    1    3    3    0    0  0.13639804076E+03  0.19410748998E+03  0.97321229017E+02  0.25642652905E+03  0.99999687468E+00 0.  0.
          4    1    3    3  501    0 -0.22918686601E+03  0.10926808973E+03 -0.41967742386E+02  0.25734689892E+03  0.00000000000E+00 0.  1.
   -9000007    1    1    2    0  503  0.92788825254E+02 -0.30337557970E+03  0.48765820447E+02  0.51285925330E+03  0.40000000000E+03 0.  1.
<mgrwt>
<rscale>  2 0.51072101E+03</rscale>
<asrwt>0</asrwt>
<pdfrwt beam="1">  1       21 0.86980923E-01 0.51078286E+03</pdfrwt>
<pdfrwt beam="2">  1       21 0.70962567E-01 0.51078286E+03</pdfrwt>
<totfact> 0.17214864E+03</totfact>
</mgrwt>
</event>
<event>
 6    1  0.9163926E-004  0.4248930E+03  0.7818608E-02  0.1035499E+00
         21   -1    0    0  501  502  0.00000000000E+00  0.00000000000E+00  0.38498066918E+03  0.38498066918E+03  0.00000000000E+00 0.  1.
         21   -1    0    0  502  503 -0.00000000000E+00 -0.00000000000E+00 -0.50462374339E+03  0.50462374339E+03  0.00000000000E+00 0.  1.
    9000007    2    1    2  501    0  0.12304656508E+03  0.73441178017E+02  0.58775899567E+02  0.42877104354E+03  0.39981988145E+03 0.  0.
    9000005    1    3    3    0    0 -0.12978924975E+03 -0.47127708552E+02 -0.15573329538E+02  0.13895970225E+03  0.99999687468E+00 0.  0.
          4    1    3    3  501    0  0.25283581483E+03  0.12056888657E+03  0.74349229105E+02  0.28981134129E+03  0.00000000000E+00 0.  1.
   -9000007    1    1    2    0  503 -0.12304656508E+03 -0.73441178017E+02 -0.17841897377E+03  0.46083336903E+03  0.40000000000E+03 0.  1.
<mgrwt>
<rscale>  2 0.42485061E+03</rscale>
<asrwt>0</asrwt>
<pdfrwt beam="1">  1       21 0.59227796E-01 0.42489300E+03</pdfrwt>
<pdfrwt beam="2">  1       21 0.77634421E-01 0.42489300E+03</pdfrwt>
<totfact> 0.34541566E+03</totfact>
</mgrwt>
</event>
<event>
 6    1  0.9163926E-004  0.5727848E+03  0.7818608E-02  0.9963553E-01
         21   -1    0    0  501  502  0.00000000000E+00  0.00000000000E+00  0.16428296323E+03  0.16428296323E+03  0.00000000000E+00 0. -1.
         21   -1    0    0  502  503 -0.00000000000E+00 -0.00000000000E+00 -0.21262432635E+04  0.21262432635E+04  0.00000000000E+00 0.  1.
    9000007    2    1    2  501    0 -0.33536682505E+03 -0.23582085241E+03 -0.12633740330E+04  0.13871408413E+04  0.39995422806E+03 0.  0.
    9000005    1    3    3    0    0  0.17967999035E+02  0.38503292061E+01 -0.58697688407E+03  0.58726530329E+03  0.99999687468E+00 0.  0.
          4    1    3    3  501    0 -0.35333482409E+03 -0.23967118162E+03 -0.67639714894E+03  0.79987553801E+03  0.00000000000E+00 0.  1.
   -9000007    1    1    2    0  503  0.33536682505E+03  0.23582085241E+03 -0.69858626721E+03  0.90338538538E+03  0.40000000000E+03 0. -1.
<mgrwt>
<rscale>  2 0.57277677E+03</rscale>
<asrwt>0</asrwt>
<pdfrwt beam="1">  1       21 0.25274301E-01 0.57278476E+03</pdfrwt>
<pdfrwt beam="2">  1       21 0.32711436E+00 0.57278476E+03</pdfrwt>
<totfact> 0.25822510E+02</totfact>
</mgrwt>
</event>
<event>
 6    1  0.9163926E-004  0.4258583E+03  0.7818608E-02  0.1035184E+00
         21   -1    0    0  501  502  0.00000000000E+00  0.00000000000E+00  0.32073639480E+03  0.32073639480E+03  0.00000000000E+00 0. -1.
         21   -1    0    0  502  503 -0.00000000000E+00 -0.00000000000E+00 -0.81192942782E+03  0.81192942782E+03  0.00000000000E+00 0. -1.
    9000007    2    1    2  501    0 -0.14564184085E+02  0.14511321411E+03  0.66512380722E+02  0.43102111988E+03  0.40010667155E+03 0.  0.
    9000005    1    3    3    0    0 -0.59996276297E+02  0.27667509024E+03  0.18208852143E+02  0.28369212365E+03  0.99999687468E+00 0.  0.
          4    1    3    3  501    0  0.45432092212E+02 -0.13156187614E+03  0.48303528579E+02  0.14732899623E+03  0.00000000000E+00 0.  1.
   -9000007    1    1    2    0  503  0.14564184085E+02 -0.14511321411E+03 -0.55770541374E+03  0.70164470274E+03  0.40000000000E+03 0. -1.
<mgrwt>
<rscale>  2 0.42583326E+03</rscale>
<asrwt>0</asrwt>
<pdfrwt beam="1">  1       21 0.49344061E-01 0.42585832E+03</pdfrwt>
<pdfrwt beam="2">  1       21 0.12491222E+00 0.42585832E+03</pdfrwt>
<totfact> 0.16183334E+03</totfact>
</mgrwt>
</event>
<event>
 6    1  0.9163926E-004  0.4337157E+03  0.7818608E-02  0.1032999E+00
         21   -1    0    0  501  502  0.00000000000E+00  0.00000000000E+00  0.16441089603E+03  0.16441089603E+03  0.00000000000E+00 0. -1.
         21   -1    0    0  502  503 -0.00000000000E+00 -0.00000000000E+00 -0.11456204270E+04  0.11456204270E+04  0.00000000000E+00 0. -1.
    9000007    2    1    2  501    0 -0.15715505698E+03  0.62283366278E+01 -0.42643910592E+03  0.60824308671E+03  0.40419405903E+03 0.  0.
    9000005    1    3    3    0    0 -0.28538911735E+03  0.51560827084E+02 -0.34089673686E+03  0.44756793047E+03  0.99999687468E+00 0.  0.
          4    1    3    3  501    0  0.12823406036E+03 -0.45332490456E+02 -0.85542369068E+02  0.16067515624E+03  0.00000000000E+00 0.  1.
   -9000007    1    1    2    0  503  0.15715505698E+03 -0.62283366278E+01 -0.55477042501E+03  0.70178823628E+03  0.40000000000E+03 0. -1.
<mgrwt>
<rscale>  2 0.43273595E+03</rscale>
<asrwt>0</asrwt>
<pdfrwt beam="1">  1       21 0.25293983E-01 0.43371574E+03</pdfrwt>
<pdfrwt beam="2">  1       21 0.17624931E+00 0.43371574E+03</pdfrwt>
<totfact> 0.24590307E+03</totfact>
</mgrwt>
</event>
<event>
 6    1  0.9163926E-004  0.4107810E+03  0.7818608E-02  0.1040156E+00
         21   -1    0    0  501  502  0.00000000000E+00  0.00000000000E+00  0.84035820310E+03  0.84035820310E+03  0.00000000000E+00 0.  1.
         21   -1    0    0  502  503 -0.00000000000E+00 -0.00000000000E+00 -0.34385556877E+03  0.34385556877E+03  0.00000000000E+00 0.  1.
    9000007    2    1    2  501    0 -0.91245734843E+02 -0.20377567283E+02  0.63043545967E+03  0.75215008319E+03  0.39942439768E+03 0.  0.
    9000005    1    3    3    0    0  0.11247649158E+03  0.62768770189E+02  0.62685696437E+02  0.14325284012E+03  0.99999687468E+00 0.  0.
          4    1    3    3  501    0 -0.20372222642E+03 -0.83146337472E+02  0.56774976323E+03  0.60889724308E+03  0.00000000000E+00 0.  1.
   -9000007    1    1    2    0  503  0.91245734843E+02  0.20377567283E+02 -0.13393282534E+03  0.43206368868E+03  0.40000000000E+03 0.  1.
<mgrwt>
<rscale>  2 0.41064081E+03</rscale>
<asrwt>0</asrwt>
<pdfrwt beam="1">  1       21 0.12928588E+00 0.41078100E+03</pdfrwt>
<pdfrwt beam="2">  1       21 0.52900857E-01 0.41078100E+03</pdfrwt>
<totfact> 0.12852243E+03</totfact>
</mgrwt>
</event>
<event>
 6    1  0.9163926E-004  0.4422436E+03  0.7818608E-02  0.1030064E+00
         21   -1    0    0  501  502  0.00000000000E+00  0.00000000000E+00  0.52655845551E+03  0.52655845551E+03  0.00000000000E+00 0. -1.
         21   -1    0    0  502  503 -0.00000000000E+00 -0.00000000000E+00 -0.39239269328E+03  0.39239269328E+03  0.00000000000E+00 0. -1.
    9000007    2    1    2  501    0  0.16721630875E+03  0.87057634073E+02  0.17338126580E+03  0.47501626473E+03  0.40004882560E+03 0.  0.
    9000005    1    3    3    0    0  0.29836936715E+03  0.86884927862E+02  0.11353566064E+03  0.33085437306E+03  0.99999687468E+00 0.  0.
          4    1    3    3  501    0 -0.13115305839E+03  0.17270621116E+00  0.59845605164E+02  0.14416189167E+03  0.00000000000E+00 0.  1.
   -9000007    1    1    2    0  503 -0.16721630875E+03 -0.87057634073E+02 -0.39215503578E+02  0.44393488406E+03  0.40000000000E+03 0. -1.
<mgrwt>
<rscale>  2 0.44223254E+03</rscale>
<asrwt>0</asrwt>
<pdfrwt beam="1">  1       21 0.81008993E-01 0.44224358E+03</pdfrwt>
<pdfrwt beam="2">  1       21 0.60368107E-01 0.44224358E+03</pdfrwt>
<totfact> 0.29846944E+03</totfact>
</mgrwt>
</event>
<event>
 6    1  0.9163926E-004  0.6176216E+03  0.7818608E-02  0.9869948E-01
         21   -1    0    0  501  502  0.00000000000E+00  0.00000000000E+00  0.21791556683E+04  0.21791556683E+04  0.00000000000E+00 0. -1.
         21   -1    0    0  502  503 -0.00000000000E+00 -0.00000000000E+00 -0.17673657773E+03  0.17673657773E+03  0.00000000000E+00 0.  1.
    9000007    2    1    2  501    0  0.82860832803E+01  0.46936155973E+03  0.87855405677E+03  0.10739244043E+04  0.40135702641E+03 0.  0.
    9000005    1    3    3    0    0 -0.13864938881E+02  0.53057061227E+03  0.85163450913E+03  0.10034838057E+04  0.99999687468E+00 0.  0.
          4    1    3    3  501    0  0.22151022162E+02 -0.61209052533E+02  0.26919547642E+02  0.70440598663E+02  0.00000000000E+00 0.  1.
   -9000007    1    1    2    0  503 -0.82860832803E+01 -0.46936155973E+03  0.11238650338E+04  0.12819678417E+04  0.40000000000E+03 0.  1.
<mgrwt>
<rscale>  2 0.61740120E+03</rscale>
<asrwt>0</asrwt>
<pdfrwt beam="1">  1       21 0.33525470E+00 0.61762156E+03</pdfrwt>
<pdfrwt beam="2">  1       21 0.27190244E-01 0.61762156E+03</pdfrwt>
<totfact> 0.19528369E+02</totfact>
</mgrwt>
</event>
<event>
 6    1  0.9163926E-004  0.4041451E+03  0.7818608E-02  0.1042412E+00
         21   -1    0    0  501  502  0.00000000000E+00  0.00000000000E+00  0.36721000966E+03  0.36721000966E+03  0.00000000000E+00 0. -1.
         21   -1    0    0  502  503 -0.00000000000E+00 -0.00000000000E+00 -0.60628106655E+03  0.60628106655E+03  0.00000000000E+00 0. -1.
    9000007    2    1    2  501    0 -0.12276039883E+02 -0.51346404953E+02 -0.37139399184E+03  0.54887770670E+03  0.40068202515E+03 0.  0.
    9000005    1    3    3    0    0 -0.48576365168E+01 -0.22757443223E+03 -0.20226470988E+03  0.30450900101E+03  0.99999687468E+00 0.  0.
          4    1    3    3  501    0 -0.74184033663E+01  0.17622802728E+03 -0.16912928196E+03  0.24436870569E+03  0.00000000000E+00 0.  1.
   -9000007    1    1    2    0  503  0.12276039883E+02  0.51346404953E+02  0.13232293495E+03  0.42461336952E+03  0.40000000000E+03 0. -1.
<mgrwt>
<rscale>  2 0.40397592E+03</rscale>
<asrwt>0</asrwt>
<pdfrwt beam="1">  1       21 0.56493849E-01 0.40414507E+03</pdfrwt>
<pdfrwt beam="2">  1       21 0.93274009E-01 0.40414507E+03</pdfrwt>
<totfact> 0.25133976E+03</totfact>
</mgrwt>
</event>
<event>
 6    1  0.9163926E-004  0.6722734E+03  0.7818608E-02  0.9765888E-01
         21   -1    0    0  501  502  0.00000000000E+00  0.00000000000E+00  0.59120214421E+03  0.59120214421E+03  0.00000000000E+00 0.  1.
         21   -1    0    0  502  503 -0.00000000000E+00 -0.00000000000E+00 -0.78813442968E+03  0.78813442968E+03  0.00000000000E+00 0.  1.
    9000007    2    1    2  501    0 -0.30137597393E+03 -0.44837484099E+03  0.21234659551E+02  0.67260869727E+03  0.40010507768E+03 0.  0.
    9000005    1    3    3    0    0 -0.64536651329E+02  0.55067374128E+00 -0.12817116374E+03  0.14350654973E+03  0.99999687468E+00 0.  0.
          4    1    3    3  501    0 -0.23683932260E+03 -0.44892551473E+03  0.14940582329E+03  0.52910214755E+03  0.00000000000E+00 0.  1.
   -9000007    1    1    2    0  503  0.30137597393E+03  0.44837484099E+03 -0.21816694502E+03  0.70672787662E+03  0.40000000000E+03 0.  1.
<mgrwt>
<rscale>  2 0.67225778E+03</rscale>
<asrwt>0</asrwt>
<pdfrwt beam="1">  1       21 0.90954176E-01 0.67227342E+03</pdfrwt>
<pdfrwt beam="2">  1       21 0.12125145E+00 0.67227342E+03</pdfrwt>
<totfact> 0.40521635E+02</totfact>
</mgrwt>
</event>
<event>
 6    1  0.9163926E-004  0.4162044E+03  0.7818608E-02  0.1038336E+00
         21   -1    0    0  501  502  0.00000000000E+00  0.00000000000E+00  0.37897633382E+03  0.37897633382E+03  0.00000000000E+00 0. -1.
         21   -1    0    0  502  503 -0.00000000000E+00 -0.00000000000E+00 -0.49590457864E+03  0.49590457864E+03  0.00000000000E+00 0. -1.
    9000007    2    1    2  501    0  0.52426934340E+02  0.10102521132E+03 -0.18143123050E+03  0.45403021218E+03  0.40033918794E+03 0.  0.
    9000005    1    3    3    0    0  0.61707247781E+02  0.20315510835E+03  0.34384612645E+02  0.21508854934E+03  0.99999687468E+00 0.  0.
          4    1    3    3  501    0 -0.92803134414E+01 -0.10212989703E+03 -0.21581584315E+03  0.23894166283E+03  0.00000000000E+00 0.  1.
   -9000007    1    1    2    0  503 -0.52426934340E+02 -0.10102521132E+03  0.64502985678E+02  0.42085070028E+03  0.40000000000E+03 0. -1.
<mgrwt>
<rscale>  2 0.41612286E+03</rscale>
<asrwt>0</asrwt>
<pdfrwt beam="1">  1       21 0.58304051E-01 0.41620445E+03</pdfrwt>
<pdfrwt beam="2">  1       21 0.76293013E-01 0.41620445E+03</pdfrwt>
<totfact> 0.37320219E+03</totfact>
</mgrwt>
</event>
<event>
 6    1  0.9163926E-004  0.5346243E+03  0.7818608E-02  0.1005117E+00
         21   -1    0    0  501  502  0.00000000000E+00  0.00000000000E+00  0.64815443911E+03  0.64815443911E+03  0.00000000000E+00 0. -1.
         21   -1    0    0  502  503 -0.00000000000E+00 -0.00000000000E+00 -0.56495393816E+03  0.56495393816E+03  0.00000000000E+00 0. -1.
    9000007    2    1    2  501    0  0.34839623041E+03  0.66566114782E+02  0.32574866182E+03  0.62604739974E+03  0.40001521851E+03 0.  0.
    9000005    1    3    3    0    0  0.92961745796E+02  0.21414218003E+03  0.97229548406E+02  0.25288998502E+03  0.99999687468E+00 0.  0.
          4    1    3    3  501    0  0.25543448461E+03 -0.14757606524E+03  0.22851911342E+03  0.37315741472E+03  0.00000000000E+00 0.  1.
   -9000007    1    1    2    0  503 -0.34839623041E+03 -0.66566114782E+02 -0.24254816086E+03  0.58706097753E+03  0.40000000000E+03 0. -1.
<mgrwt>
<rscale>  2 0.53462147E+03</rscale>
<asrwt>0</asrwt>
<pdfrwt beam="1">  1       21 0.99716068E-01 0.53462431E+03</pdfrwt>
<pdfrwt beam="2">  1       21 0.86915990E-01 0.53462431E+03</pdfrwt>
<totfact> 0.77032940E+02</totfact>
</mgrwt>
</event>
<event>
 6    1  0.9163926E-004  0.5481978E+03  0.7818608E-02  0.1001912E+00
         21   -1    0    0  501  502  0.00000000000E+00  0.00000000000E+00  0.10703307267E+04  0.10703307267E+04  0.00000000000E+00 0.  1.
         21   -1    0    0  502  503 -0.00000000000E+00 -0.00000000000E+00 -0.36376611487E+03  0.36376611487E+03  0.00000000000E+00 0.  1.
    9000007    2    1    2  501    0  0.35674022257E+03  0.11511331180E+03  0.69578630347E+03  0.88579871749E+03  0.40000765850E+03 0.  0.
    9000005    1    3    3    0    0  0.28031260289E+03  0.25207111304E+03  0.57621583208E+03  0.68857874386E+03  0.99999687468E+00 0.  0.
          4    1    3    3  501    0  0.76427619680E+02 -0.13695780123E+03  0.11957047139E+03  0.19721997363E+03  0.00000000000E+00 0.  1.
   -9000007    1    1    2    0  503 -0.35674022257E+03 -0.11511331180E+03  0.10778308373E+02  0.54829812410E+03  0.40000000000E+03 0.  1.
<mgrwt>
<rscale>  2 0.54819637E+03</rscale>
<asrwt>0</asrwt>
<pdfrwt beam="1">  1       21 0.16466626E+00 0.54819776E+03</pdfrwt>
<pdfrwt beam="2">  1       21 0.55964018E-01 0.54819776E+03</pdfrwt>
<totfact> 0.55982785E+02</totfact>
</mgrwt>
</event>
<event>
 6    1  0.9163926E-004  0.4589227E+03  0.7818608E-02  0.1025133E+00
         21   -1    0    0  501  502  0.00000000000E+00  0.00000000000E+00  0.30951680429E+03  0.30951680429E+03  0.00000000000E+00 0.  1.
         21   -1    0    0  502  503 -0.00000000000E+00 -0.00000000000E+00 -0.99823321789E+03  0.99823321789E+03  0.00000000000E+00 0. -1.
    9000007    2    1    2  501    0  0.28411343439E+02  0.22207156999E+03  0.24894036695E+02  0.45959740536E+03  0.40060838149E+03 0.  0.
    9000005    1    3    3    0    0  0.17660046044E+03  0.25197375779E+03  0.13617684143E+02  0.30800152363E+03  0.99999687468E+00 0.  0.
          4    1    3    3  501    0 -0.14818911700E+03 -0.29902187793E+02  0.11276352552E+02  0.15159588174E+03  0.00000000000E+00 0.  1.
   -9000007    1    1    2    0  503 -0.28411343439E+02 -0.22207156999E+03 -0.71361045029E+03  0.84815261681E+03  0.40000000000E+03 0. -1.
<mgrwt>
<rscale>  2 0.45878992E+03</rscale>
<asrwt>0</asrwt>
<pdfrwt beam="1">  1       21 0.47617969E-01 0.45892272E+03</pdfrwt>
<pdfrwt beam="2">  1       21 0.15357434E+00 0.45892272E+03</pdfrwt>
<totfact> 0.99598795E+02</totfact>
</mgrwt>
</event>
<event>
 6    1  0.9163926E-004  0.4199868E+03  0.7818608E-02  0.1037106E+00
         21   -1    0    0  501  502  0.00000000000E+00  0.00000000000E+00  0.37614224479E+03  0.37614224479E+03  0.00000000000E+00 0.  1.
         21   -1    0    0  502  503 -0.00000000000E+00 -0.00000000000E+00 -0.93030905742E+03  0.93030905742E+03  0.00000000000E+00 0.  1.
    9000007    2    1    2  501    0 -0.80298901967E+02  0.97852529477E+02  0.18310250604E+03  0.45816533662E+03  0.40045713476E+03 0.  0.
    9000005    1    3    3    0    0 -0.23149425475E+03  0.12773555340E+03  0.97044772873E+02  0.28164631991E+03  0.99999687468E+00 0.  0.
          4    1    3    3  501    0  0.15119535279E+03 -0.29883023919E+02  0.86057733163E+02  0.17651901671E+03  0.00000000000E+00 0.  1.
   -9000007    1    1    2    0  503  0.80298901967E+02 -0.97852529477E+02 -0.73726931866E+03  0.84828596559E+03  0.40000000000E+03 0.  1.
<mgrwt>
<rscale>  2 0.41987784E+03</rscale>
<asrwt>0</asrwt>
<pdfrwt beam="1">  1       21 0.57868039E-01 0.41998684E+03</pdfrwt>
<pdfrwt beam="2">  1       21 0.14312447E+00 0.41998684E+03</pdfrwt>
<totfact> 0.80746643E+02</totfact>
</mgrwt>
</event>
<event>
 6    1  0.9163926E-004  0.4352017E+03  0.7818608E-02  0.1032608E+00
         21   -1    0    0  501  502  0.00000000000E+00  0.00000000000E+00  0.17257928467E+04  0.17257928467E+04  0.00000000000E+00 0.  1.
         21   -1    0    0  502  503 -0.00000000000E+00 -0.00000000000E+00 -0.11310894800E+03  0.11310894800E+03  0.00000000000E+00 0. -1.
    9000007    2    1    2  501    0 -0.41858654738E+02  0.15314612490E+03  0.62564577505E+03  0.76212412959E+03  0.40520941562E+03 0.  0.
    9000005    1    3    3    0    0 -0.16898209652E+03  0.68117628464E+02  0.86466826744E+02  0.20167417379E+03  0.99999687468E+00 0.  0.
          4    1    3    3  501    0  0.12712344178E+03  0.85028496438E+02  0.53917894831E+03  0.56044995580E+03  0.00000000000E+00 0.  1.
   -9000007    1    1    2    0  503  0.41858654738E+02 -0.15314612490E+03  0.98703812365E+03  0.10767776651E+04  0.40000000000E+03 0.  1.
<mgrwt>
<rscale>  2 0.43398509E+03</rscale>
<asrwt>0</asrwt>
<pdfrwt beam="1">  1       21 0.26550657E+00 0.43520174E+03</pdfrwt>
<pdfrwt beam="2">  1       21 0.17401378E-01 0.43520174E+03</pdfrwt>
<totfact> 0.13349166E+03</totfact>
</mgrwt>
</event>
<event>
 6    1  0.9163926E-004  0.4264182E+03  0.7818608E-02  0.1035069E+00
         21   -1    0    0  501  502  0.00000000000E+00  0.00000000000E+00  0.25182697582E+03  0.25182697582E+03  0.00000000000E+00 0.  1.
         21   -1    0    0  502  503 -0.00000000000E+00 -0.00000000000E+00 -0.10451535534E+04  0.10451535534E+04  0.00000000000E+00 0. -1.
    9000007    2    1    2  501    0  0.13393467218E+03 -0.55939863517E+02 -0.35541149594E+02  0.42789680505E+03  0.40095478263E+03 0.  0.
    9000005    1    3    3    0    0  0.25763668507E+03  0.12677647908E+02 -0.94400520980E+02  0.27468134739E+03  0.99999687468E+00 0.  0.
          4    1    3    3  501    0 -0.12370201289E+03 -0.68617511425E+02  0.58859371387E+02  0.15321545766E+03  0.00000000000E+00 0.  1.
   -9000007    1    1    2    0  503 -0.13393467218E+03  0.55939863517E+02 -0.75778542795E+03  0.86908372414E+03  0.40000000000E+03 0. -1.
<mgrwt>
<rscale>  2 0.42619364E+03</rscale>
<asrwt>0</asrwt>
<pdfrwt beam="1">  1       21 0.38742612E-01 0.42641822E+03</pdfrwt>
<pdfrwt beam="2">  1       21 0.16079285E+00 0.42641822E+03</pdfrwt>
<totfact> 0.13663974E+03</totfact>
</mgrwt>
</event>
<event>
 6    1  0.9163926E-004  0.4251599E+03  0.7818608E-02  0.1035621E+00
         21   -1    0    0  501  502  0.00000000000E+00  0.00000000000E+00  0.47669533637E+03  0.47669533637E+03  0.00000000000E+00 0. -1.
         21   -1    0    0  502  503 -0.00000000000E+00 -0.00000000000E+00 -0.93623733284E+03  0.93623733284E+03  0.00000000000E+00 0.  1.
    9000007    2    1    2  501    0 -0.31861043955E+02 -0.14051990586E+03  0.31665432752E+03  0.52792323228E+03  0.39707934469E+03 0.  0.
    9000005    1    3    3    0    0 -0.20443305352E+03 -0.14184467821E+03  0.20479275052E+03  0.32226364481E+03  0.99999687468E+00 0.  0.
          4    1    3    3  501    0  0.17257200957E+03  0.13247723479E+01  0.11186157700E+03  0.20565958747E+03  0.00000000000E+00 0.  1.
   -9000007    1    1    2    0  503  0.31861043955E+02  0.14051990586E+03 -0.77619632400E+03  0.88500943693E+03  0.40000000000E+03 0.  1.
<mgrwt>
<rscale>  2 0.42447160E+03</rscale>
<asrwt>0</asrwt>
<pdfrwt beam="1">  1       21 0.73337744E-01 0.42515993E+03</pdfrwt>
<pdfrwt beam="2">  1       21 0.14403651E+00 0.42515993E+03</pdfrwt>
<totfact> 0.46794842E+02</totfact>
</mgrwt>
</event>
<event>
 6    1  0.9163926E-004  0.4644314E+03  0.7818608E-02  0.1023681E+00
         21   -1    0    0  501  502  0.00000000000E+00  0.00000000000E+00  0.24606912827E+03  0.24606912827E+03  0.00000000000E+00 0. -1.
         21   -1    0    0  502  503 -0.00000000000E+00 -0.00000000000E+00 -0.88811221263E+03  0.88811221263E+03  0.00000000000E+00 0. -1.
    9000007    2    1    2  501    0 -0.16831506874E+03  0.15838273405E+03 -0.39841536683E+03  0.61190792826E+03  0.40284172491E+03 0.  0.
    9000005    1    3    3    0    0 -0.15237842672E+03  0.28697932390E+03 -0.33828257895E+03  0.46905481608E+03  0.99999687468E+00 0.  0.
          4    1    3    3  501    0 -0.15936642026E+02 -0.12859658985E+03 -0.60132787880E+02  0.14285311218E+03  0.00000000000E+00 0.  1.
   -9000007    1    1    2    0  503  0.16831506874E+03 -0.15838273405E+03 -0.24362771752E+03  0.52227341264E+03  0.40000000000E+03 0. -1.
<mgrwt>
<rscale>  2 0.46381448E+03</rscale>
<asrwt>0</asrwt>
<pdfrwt beam="1">  1       21 0.37856789E-01 0.46443138E+03</pdfrwt>
<pdfrwt beam="2">  1       21 0.13663265E+00 0.46443138E+03</pdfrwt>
<totfact> 0.21927731E+03</totfact>
</mgrwt>
</event>
<event>
 6    1  0.9163926E-004  0.4878236E+03  0.7818608E-02  0.1017027E+00
         21   -1    0    0  501  502  0.00000000000E+00  0.00000000000E+00  0.66237507549E+02  0.66237507549E+02  0.00000000000E+00 0. -1.
         21   -1    0    0  502  503 -0.00000000000E+00 -0.00000000000E+00 -0.40370159359E+04  0.40370159359E+04  0.00000000000E+00 0. -1.
    9000007    2    1    2  501    0  0.22484407965E+03  0.16558068622E+03 -0.13025439399E+04  0.13907919950E+04  0.39963712824E+03 0.  0.
    9000005    1    3    3    0    0 -0.14127281795E+02  0.10122107455E+03 -0.49539121793E+02  0.11357997449E+03  0.99999687468E+00 0.  0.
          4    1    3    3  501    0  0.23897136144E+03  0.64359611666E+02 -0.12530048181E+04  0.12772120205E+04  0.00000000000E+00 0.  1.
   -9000007    1    1    2    0  503 -0.22484407965E+03 -0.16558068622E+03 -0.26682344884E+04  0.27124614484E+04  0.40000000000E+03 0. -1.
<mgrwt>
<rscale>  2 0.48774917E+03</rscale>
<asrwt>0</asrwt>
<pdfrwt beam="1">  1       21 0.10190383E-01 0.48782356E+03</pdfrwt>
<pdfrwt beam="2">  1       21 0.62107952E+00 0.48782356E+03</pdfrwt>
<totfact> 0.13165911E+01</totfact>
</mgrwt>
</event>
<event>
 6    1  0.9163926E-004  0.5322920E+03  0.7818608E-02  0.1005694E+00
         21   -1    0    0  501  502  0.00000000000E+00  0.00000000000E+00  0.77170853423E+03  0.77170853423E+03  0.00000000000E+00 0.  1.
         21   -1    0    0  502  503 -0.00000000000E+00 -0.00000000000E+00 -0.48245044367E+03  0.48245044367E+03  0.00000000000E+00 0.  1.
    9000007    2    1    2  501    0  0.11170946575E+03  0.33295016476E+03  0.45140536238E+03  0.69771800645E+03  0.39963583222E+03 0.  0.
    9000005    1    3    3    0    0 -0.10676085736E+03  0.98035997940E+02  0.12557628786E+01  0.14495349078E+03  0.99999687468E+00 0.  0.
          4    1    3    3  501    0  0.21847032311E+03  0.23491416682E+03  0.45014959951E+03  0.55276451567E+03  0.00000000000E+00 0.  1.
   -9000007    1    1    2    0  503 -0.11170946575E+03 -0.33295016476E+03 -0.16214727182E+03  0.55644097145E+03  0.40000000000E+03 0.  1.
<mgrwt>
<rscale>  2 0.53222363E+03</rscale>
<asrwt>0</asrwt>
<pdfrwt beam="1">  1       21 0.11872439E+00 0.53229204E+03</pdfrwt>
<pdfrwt beam="2">  1       21 0.74223145E-01 0.53229204E+03</pdfrwt>
<totfact> 0.72062210E+02</totfact>
</mgrwt>
</event>
<event>
 6    1  0.9163926E-004  0.4871754E+03  0.7818608E-02  0.1017331E+00
         21   -1    0    0  501  502  0.00000000000E+00  0.00000000000E+00  0.74493854683E+03  0.74493854683E+03  0.00000000000E+00 0.  1.
         21   -1    0    0  502  503 -0.00000000000E+00 -0.00000000000E+00 -0.31826891416E+03  0.31826891416E+03  0.00000000000E+00 0.  1.
    9000007    2    1    2  501    0 -0.15897585642E+03 -0.22818100845E+03  0.24429922700E+03  0.54301628420E+03  0.39729671160E+03 0.  0.
    9000005    1    3    3    0    0 -0.11237246726E+03 -0.24764781919E+03  0.33965363747E+03  0.43511217771E+03  0.99999687468E+00 0.  0.
          4    1    3    3  501    0 -0.46603389162E+02  0.19466810742E+02 -0.95354410468E+02  0.10790410649E+03  0.00000000000E+00 0.  1.
   -9000007    1    1    2    0  503  0.15897585642E+03  0.22818100845E+03  0.18237040567E+03  0.52019117679E+03  0.40000000000E+03 0.  1.
<mgrwt>
<rscale>  2 0.48662020E+03</rscale>
<asrwt>0</asrwt>
<pdfrwt beam="1">  1       21 0.11460593E+00 0.48717543E+03</pdfrwt>
<pdfrwt beam="2">  1       21 0.48964448E-01 0.48717543E+03</pdfrwt>
<totfact> 0.19993100E+03</totfact>
</mgrwt>
</event>
<event>
 6    1  0.9163926E-004  0.4069208E+03  0.7818608E-02  0.1041411E+00
         21   -1    0    0  501  502  0.00000000000E+00  0.00000000000E+00  0.34276993966E+03  0.34276993966E+03  0.00000000000E+00 0. -1.
         21   -1    0    0  502  503 -0.00000000000E+00 -0.00000000000E+00 -0.10221547345E+04  0.10221547345E+04  0.00000000000E+00 0. -1.
    9000007    2    1    2  501    0  0.74637070094E+02  0.37185048839E+01  0.15594368087E+03  0.43575397841E+03  0.39997322233E+03 0.  0.
    9000005    1    3    3    0    0  0.13665252551E+03  0.75157850252E+02 -0.84491967161E+02  0.17737673943E+03  0.99999687468E+00 0.  0.
          4    1    3    3  501    0 -0.62015455414E+02 -0.71439345368E+02  0.24043564803E+03  0.25837723898E+03  0.00000000000E+00 0.  1.
   -9000007    1    1    2    0  503 -0.74637070094E+02 -0.37185048839E+01 -0.83532847574E+03  0.92917069578E+03  0.40000000000E+03 0. -1.
<mgrwt>
<rscale>  2 0.40691420E+03</rscale>
<asrwt>0</asrwt>
<pdfrwt beam="1">  1       21 0.52733839E-01 0.40692078E+03</pdfrwt>
<pdfrwt beam="2">  1       21 0.15725457E+00 0.40692078E+03</pdfrwt>
<totfact> 0.76921714E+02</totfact>
</mgrwt>
</event>
<event>
 6    1  0.9163926E-004  0.4947553E+03  0.7818608E-02  0.1015355E+00
         21   -1    0    0  501  502  0.00000000000E+00  0.00000000000E+00  0.32505339996E+03  0.32505339996E+03  0.00000000000E+00 0.  1.
         21   -1    0    0  502  503 -0.00000000000E+00 -0.00000000000E+00 -0.11908431474E+04  0.11908431474E+04  0.00000000000E+00 0.  1.
    9000007    2    1    2  501    0 -0.11424970093E+03 -0.26782418359E+03  0.29865988648E+02  0.49267517098E+03  0.39630046600E+03 0.  0.
    9000005    1    3    3    0    0  0.47146314136E+02 -0.21979353130E+03 -0.13067629872E+03  0.26001781934E+03  0.99999687468E+00 0.  0.
          4    1    3    3  501    0 -0.16139601507E+03 -0.48030652289E+02  0.16054228736E+03  0.23265735164E+03  0.00000000000E+00 0.  1.
   -9000007    1    1    2    0  503  0.11424970093E+03  0.26782418359E+03 -0.89565573607E+03  0.10232213764E+04  0.40000000000E+03 0.  1.
<mgrwt>
<rscale>  2 0.49400704E+03</rscale>
<asrwt>0</asrwt>
<pdfrwt beam="1">  1       21 0.50008214E-01 0.49475528E+03</pdfrwt>
<pdfrwt beam="2">  1       21 0.18320664E+00 0.49475528E+03</pdfrwt>
<totfact> 0.53513285E+02</totfact>
</mgrwt>
</event>
<event>
 6    1  0.9163926E-004  0.4061117E+03  0.7818608E-02  0.1041700E+00
         21   -1    0    0  501  502  0.00000000000E+00  0.00000000000E+00  0.26311489304E+04  0.26311489304E+04  0.00000000000E+00 0. -1.
         21   -1    0    0  502  503 -0.00000000000E+00 -0.00000000000E+00 -0.68002121374E+02  0.68002121374E+02  0.00000000000E+00 0. -1.
    9000007    2    1    2  501    0  0.54269640833E+02 -0.42734262319E+02  0.16603656060E+04  0.17093099980E+04  0.40019409389E+03 0.  0.
    9000005    1    3    3    0    0  0.93734546153E+01 -0.21619319285E+03  0.10969198361E+04  0.11180614854E+04  0.99999687468E+00 0.  0.
          4    1    3    3  501    0  0.44896186218E+02  0.17345893053E+03  0.56344576981E+03  0.59124851259E+03  0.00000000000E+00 0.  1.
   -9000007    1    1    2    0  503 -0.54269640833E+02  0.42734262319E+02  0.90278120310E+03  0.98984105378E+03  0.40000000000E+03 0. -1.
<mgrwt>
<rscale>  2 0.40606389E+03</rscale>
<asrwt>0</asrwt>
<pdfrwt beam="1">  1       21 0.40479207E+00 0.40611171E+03</pdfrwt>
<pdfrwt beam="2">  1       21 0.10461867E-01 0.40611171E+03</pdfrwt>
<totfact> 0.48578978E+02</totfact>
</mgrwt>
</event>
<event>
 6    1  0.9163926E-004  0.4842044E+03  0.7818608E-02  0.1018038E+00
         21   -1    0    0  501  502  0.00000000000E+00  0.00000000000E+00  0.18385230545E+03  0.18385230545E+03  0.00000000000E+00 0. -1.
         21   -1    0    0  502  503 -0.00000000000E+00 -0.00000000000E+00 -0.12768715051E+04  0.12768715051E+04  0.00000000000E+00 0. -1.
    9000007    2    1    2  501    0  0.69701566329E+02 -0.26380981748E+03 -0.50708068034E+03  0.70060679552E+03  0.39908036460E+03 0.  0.
    9000005    1    3    3    0    0  0.90637145760E+02  0.58951928195E+02 -0.29408695101E+03  0.31333457642E+03  0.99999687468E+00 0.  0.
          4    1    3    3  501    0 -0.20935579430E+02 -0.32276174567E+03 -0.21299372933E+03  0.38727221911E+03  0.00000000000E+00 0.  1.
   -9000007    1    1    2    0  503 -0.69701566329E+02  0.26380981748E+03 -0.58593851932E+03  0.76011701505E+03  0.40000000000E+03 0.  1.
<mgrwt>
<rscale>  2 0.48401446E+03</rscale>
<asrwt>0</asrwt>
<pdfrwt beam="1">  1       21 0.28284971E-01 0.48420443E+03</pdfrwt>
<pdfrwt beam="2">  1       21 0.19644177E+00 0.48420443E+03</pdfrwt>
<totfact> 0.14016259E+03</totfact>
</mgrwt>
</event>
<event>
 6    1  0.9163926E-004  0.5447861E+03  0.7818608E-02  0.1002734E+00
         21   -1    0    0  501  502  0.00000000000E+00  0.00000000000E+00  0.40776488876E+03  0.40776488876E+03  0.00000000000E+00 0. -1.
         21   -1    0    0  502  503 -0.00000000000E+00 -0.00000000000E+00 -0.76804877998E+03  0.76804877998E+03  0.00000000000E+00 0.  1.
    9000007    2    1    2  501    0 -0.29127515700E+03 -0.22684895109E+03 -0.44711813537E+02  0.54661783285E+03  0.40061233783E+03 0.  0.
    9000005    1    3    3    0    0  0.56392351517E+02  0.21113934101E+02  0.81487089115E+02  0.10132640924E+03  0.99999687468E+00 0.  0.
          4    1    3    3  501    0 -0.34766750852E+03 -0.24796288519E+03 -0.12619890265E+03  0.44529142361E+03  0.00000000000E+00 0.  1.
   -9000007    1    1    2    0  503  0.29127515700E+03  0.22684895109E+03 -0.31557207768E+03  0.62919583590E+03  0.40000000000E+03 0.  1.
<mgrwt>
<rscale>  2 0.54467355E+03</rscale>
<asrwt>0</asrwt>
<pdfrwt beam="1">  1       21 0.62733060E-01 0.54478611E+03</pdfrwt>
<pdfrwt beam="2">  1       21 0.11816135E+00 0.54478611E+03</pdfrwt>
<totfact> 0.10604601E+03</totfact>
</mgrwt>
</event>
<event>
 6    1  0.9163926E-004  0.4738121E+03  0.7818608E-02  0.1020963E+00
         21   -1    0    0  501  502  0.00000000000E+00  0.00000000000E+00  0.15320302765E+03  0.15320302765E+03  0.00000000000E+00 0. -1.
         21   -1    0    0  502  503 -0.00000000000E+00 -0.00000000000E+00 -0.17970386089E+04  0.17970386089E+04  0.00000000000E+00 0. -1.
    9000007    2    1    2  501    0  0.14009558596E+03  0.20818906094E+03 -0.40099198751E+03  0.62071929496E+03  0.40190597257E+03 0.  0.
    9000005    1    3    3    0    0  0.62875936938E+02  0.32649060412E+03 -0.27738342582E+03  0.43300353686E+03  0.99999687468E+00 0.  0.
          4    1    3    3  501    0  0.77219649022E+02 -0.11830154318E+03 -0.12360856169E+03  0.18771575810E+03  0.00000000000E+00 0.  1.
   -9000007    1    1    2    0  503 -0.14009558596E+03 -0.20818906094E+03 -0.12428435937E+04  0.13295223416E+04  0.40000000000E+03 0. -1.
<mgrwt>
<rscale>  2 0.47340763E+03</rscale>
<asrwt>0</asrwt>
<pdfrwt beam="1">  1       21 0.23569697E-01 0.47381206E+03</pdfrwt>
<pdfrwt beam="2">  1       21 0.27646748E+00 0.47381206E+03</pdfrwt>
<totfact> 0.62990223E+02</totfact>
</mgrwt>
</event>
<event>
 6    1  0.9163926E-004  0.4970969E+03  0.7818608E-02  0.1014912E+00
         21   -1    0    0  501  502  0.00000000000E+00  0.00000000000E+00  0.29951469288E+03  0.29951469288E+03  0.00000000000E+00 0.  1.
         21   -1    0    0  502  503 -0.00000000000E+00 -0.00000000000E+00 -0.89855312830E+03  0.89855312830E+03  0.00000000000E+00 0. -1.
    9000007    2    1    2  501    0  0.25872616601E+03 -0.14200747080E+03 -0.11608358573E+03  0.50499442132E+03  0.39298678852E+03 0.  0.
    9000005    1    3    3    0    0 -0.83493381651E+01 -0.50020966881E+02 -0.20316685873E+03  0.20940291558E+03  0.99999687468E+00 0.  0.
          4    1    3    3  501    0  0.26707550417E+03 -0.91986503916E+02  0.87083272996E+02  0.29559150574E+03  0.00000000000E+00 0.  1.
   -9000007    1    1    2    0  503 -0.25872616601E+03  0.14200747080E+03 -0.48295484969E+03  0.69307339985E+03  0.40000000000E+03 0.  1.
<mgrwt>
<rscale>  2 0.49568449E+03</rscale>
<asrwt>0</asrwt>
<pdfrwt beam="1">  1       21 0.46079184E-01 0.49709692E+03</pdfrwt>
<pdfrwt beam="2">  1       21 0.13823894E+00 0.49709692E+03</pdfrwt>
<totfact> 0.13965277E+03</totfact>
</mgrwt>
</event>
<event>
 6    1  0.9163926E-004  0.4009062E+03  0.7818608E-02  0.1043495E+00
         21   -1    0    0  501  502  0.00000000000E+00  0.00000000000E+00  0.51239896174E+03  0.51239896174E+03  0.00000000000E+00 0. -1.
         21   -1    0    0  502  503 -0.00000000000E+00 -0.00000000000E+00 -0.32917429142E+03  0.32917429142E+03  0.00000000000E+00 0. -1.
    9000007    2    1    2  501    0 -0.47504902360E+00  0.26936399142E+02  0.18365263754E+03  0.44066680719E+03  0.39966629632E+03 0.  0.
    9000005    1    3    3    0    0  0.64734597178E+02  0.84186353722E+02 -0.98880828846E+02  0.14510798921E+03  0.99999687468E+00 0.  0.
          4    1    3    3  501    0 -0.65209646201E+02 -0.57249954580E+02  0.28253346639E+03  0.29555881798E+03  0.00000000000E+00 0.  1.
   -9000007    1    1    2    0  503  0.47504902360E+00 -0.26936399142E+02 -0.42796722230E+00  0.40090644598E+03  0.40000000000E+03 0.  1.
<mgrwt>
<rscale>  2 0.40082295E+03</rscale>
<asrwt>0</asrwt>
<pdfrwt beam="1">  1       21 0.78830609E-01 0.40090622E+03</pdfrwt>
<pdfrwt beam="2">  1       21 0.50642199E-01 0.40090622E+03</pdfrwt>
<totfact> 0.47147956E+03</totfact>
</mgrwt>
</event>
<event>
 6    1  0.9163926E-004  0.4233875E+03  0.7818608E-02  0.1036037E+00
         21   -1    0    0  501  502  0.00000000000E+00  0.00000000000E+00  0.79995281028E+03  0.79995281028E+03  0.00000000000E+00 0. -1.
         21   -1    0    0  502  503 -0.00000000000E+00 -0.00000000000E+00 -0.27199494771E+03  0.27199494771E+03  0.00000000000E+00 0. -1.
    9000007    2    1    2  501    0  0.14578224944E+02 -0.13538999370E+03  0.49018728767E+03  0.64771952771E+03  0.40089154961E+03 0.  0.
    9000005    1    3    3    0    0 -0.13224023692E+03 -0.16293210967E+03  0.44444351219E+03  0.49149301943E+03  0.99999687468E+00 0.  0.
          4    1    3    3  501    0  0.14681846186E+03  0.27542115968E+02  0.45743775481E+02  0.15622650829E+03  0.00000000000E+00 0.  1.
   -9000007    1    1    2    0  503 -0.14578224944E+02  0.13538999370E+03  0.37770574893E+02  0.42422823028E+03  0.40000000000E+03 0. -1.
<mgrwt>
<rscale>  2 0.42317636E+03</rscale>
<asrwt>0</asrwt>
<pdfrwt beam="1">  1       21 0.12306966E+00 0.42338754E+03</pdfrwt>
<pdfrwt beam="2">  1       21 0.41845377E-01 0.42338754E+03</pdfrwt>
<totfact> 0.23770531E+03</totfact>
</mgrwt>
</event>
<event>
 6    1  0.9163926E-004  0.4236057E+03  0.7818608E-02  0.1036018E+00
         21   -1    0    0  501  502  0.00000000000E+00  0.00000000000E+00  0.11372088297E+04  0.11372088297E+04  0.00000000000E+00 0. -1.
         21   -1    0    0  502  503 -0.00000000000E+00 -0.00000000000E+00 -0.16570004201E+03  0.16570004201E+03  0.00000000000E+00 0. -1.
    9000007    2    1    2  501    0 -0.85770069698E+02 -0.10409607315E+03  0.63374528397E+03  0.76228267760E+03  0.40155858640E+03 0.  0.
    9000005    1    3    3    0    0 -0.15238482015E+03  0.29024546523E+01  0.61650789873E+03  0.63506893078E+03  0.99999687468E+00 0.  0.
          4    1    3    3  501    0  0.66614750453E+02 -0.10699852780E+03  0.17237385241E+02  0.12721374682E+03  0.00000000000E+00 0.  1.
   -9000007    1    1    2    0  503  0.85770069698E+02  0.10409607315E+03  0.33776350369E+03  0.54062619408E+03  0.40000000000E+03 0.  1.
<mgrwt>
<rscale>  2 0.42323593E+03</rscale>
<asrwt>0</asrwt>
<pdfrwt beam="1">  1       21 0.17495520E+00 0.42360571E+03</pdfrwt>
<pdfrwt beam="2">  1       21 0.25492315E-01 0.42360571E+03</pdfrwt>
<totfact> 0.24845267E+03</totfact>
</mgrwt>
</event>
<event>
 6    1  0.9163926E-004  0.5203104E+03  0.7818608E-02  0.1008624E+00
         21   -1    0    0  501  502  0.00000000000E+00  0.00000000000E+00  0.74569118259E+03  0.74569118259E+03  0.00000000000E+00 0.  1.
         21   -1    0    0  502  503 -0.00000000000E+00 -0.00000000000E+00 -0.40674876999E+03  0.40674876999E+03  0.00000000000E+00 0.  1.
    9000007    2    1    2  501    0  0.20904861933E+03 -0.25840009509E+03  0.35873908073E+03  0.63199414132E+03  0.40031354242E+03 0.  0.
    9000005    1    3    3    0    0 -0.55540445571E+02 -0.11826981958E+02 -0.57334364402E+02  0.80702217638E+02  0.99999687468E+00 0.  0.
          4    1    3    3  501    0  0.26458906490E+03 -0.24657311313E+03  0.41607344513E+03  0.55129192369E+03  0.00000000000E+00 0.  1.
   -9000007    1    1    2    0  503 -0.20904861933E+03  0.25840009509E+03 -0.19796668134E+02  0.52044581125E+03  0.40000000000E+03 0.  1.
<mgrwt>
<rscale>  2 0.52025005E+03</rscale>
<asrwt>0</asrwt>
<pdfrwt beam="1">  1       21 0.11472172E+00 0.52031036E+03</pdfrwt>
<pdfrwt beam="2">  1       21 0.62576734E-01 0.52031036E+03</pdfrwt>
<totfact> 0.11583423E+03</totfact>
</mgrwt>
</event>
<event>
 6    1  0.9163926E-004  0.4031377E+03  0.7818608E-02  0.1042732E+00
         21   -1    0    0  501  502  0.00000000000E+00  0.00000000000E+00  0.32605644993E+03  0.32605644993E+03  0.00000000000E+00 0.  1.
         21   -1    0    0  502  503 -0.00000000000E+00 -0.00000000000E+00 -0.96779426705E+03  0.96779426705E+03  0.00000000000E+00 0.  1.
    9000007    2    1    2  501    0  0.17199777987E+02  0.47161246058E+02  0.12996411349E+03  0.42319355988E+03  0.39960243097E+03 0.  0.
    9000005    1    3    3    0    0 -0.53503995528E+01  0.22311410621E+03  0.94127534348E+02  0.24221792642E+03  0.99999687468E+00 0.  0.
          4    1    3    3  501    0  0.22550177540E+02 -0.17595286015E+03  0.35836579143E+02  0.18097563346E+03  0.00000000000E+00 0.  1.
   -9000007    1    1    2    0  503 -0.17199777987E+02 -0.47161246058E+02 -0.77170193062E+03  0.87065715710E+03  0.40000000000E+03 0.  1.
<mgrwt>
<rscale>  2 0.40303906E+03</rscale>
<asrwt>0</asrwt>
<pdfrwt beam="1">  1       21 0.50162531E-01 0.40313771E+03</pdfrwt>
<pdfrwt beam="2">  1       21 0.14889142E+00 0.40313771E+03</pdfrwt>
<totfact> 0.99500337E+02</totfact>
</mgrwt>
</event>
<event>
 6    1  0.9163926E-004  0.4519677E+03  0.7818608E-02  0.1027221E+00
         21   -1    0    0  501  502  0.00000000000E+00  0.00000000000E+00  0.30473588620E+03  0.30473588620E+03  0.00000000000E+00 0. -1.
         21   -1    0    0  502  503 -0.00000000000E+00 -0.00000000000E+00 -0.88934122772E+03  0.88934122772E+03  0.00000000000E+00 0.  1.
    9000007    2    1    2  501    0  0.19941112070E+03  0.59056391614E+02  0.48312972180E+01  0.45199355828E+03  0.40127594352E+03 0.  0.
    9000005    1    3    3    0    0  0.24451686170E+03 -0.47035123392E+02 -0.12479208408E+03  0.27852264312E+03  0.99999687468E+00 0.  0.
          4    1    3    3  501    0 -0.45105741008E+02  0.10609151501E+03  0.12962338130E+03  0.17347091516E+03  0.00000000000E+00 0.  1.
   -9000007    1    1    2    0  503 -0.19941112070E+03 -0.59056391614E+02 -0.58943663875E+03  0.74208355564E+03  0.40000000000E+03 0.  1.
<mgrwt>
<rscale>  2 0.45168436E+03</rscale>
<asrwt>0</asrwt>
<pdfrwt beam="1">  1       21 0.46882444E-01 0.45196774E+03</pdfrwt>
<pdfrwt beam="2">  1       21 0.13682173E+00 0.45196774E+03</pdfrwt>
<totfact> 0.14083385E+03</totfact>
</mgrwt>
</event>
<event>
 6    1  0.9163926E-004  0.4328851E+03  0.7818608E-02  0.1032994E+00
         21   -1    0    0  501  502  0.00000000000E+00  0.00000000000E+00  0.93950076909E+03  0.93950076909E+03  0.00000000000E+00 0.  1.
         21   -1    0    0  502  503 -0.00000000000E+00 -0.00000000000E+00 -0.19961093344E+03  0.19961093344E+03  0.00000000000E+00 0.  1.
    9000007    2    1    2  501    0 -0.12237151808E+03 -0.11142120099E+03  0.34420034928E+03  0.55263097642E+03  0.39942163585E+03 0.  0.
    9000005    1    3    3    0    0 -0.22652447199E+02  0.75674557285E+02 -0.57979072842E+02  0.97991555074E+02  0.99999687468E+00 0.  0.
          4    1    3    3  501    0 -0.99719070884E+02 -0.18709575828E+03  0.40217942212E+03  0.45463942134E+03  0.00000000000E+00 0.  1.
   -9000007    1    1    2    0  503  0.12237151808E+03  0.11142120099E+03  0.39568948638E+03  0.58648072611E+03  0.40000000000E+03 0.  1.
<mgrwt>
<rscale>  2 0.43275140E+03</rscale>
<asrwt>0</asrwt>
<pdfrwt beam="1">  1       21 0.14453858E+00 0.43288506E+03</pdfrwt>
<pdfrwt beam="2">  1       21 0.30709375E-01 0.43288506E+03</pdfrwt>
<totfact> 0.29138193E+03</totfact>
</mgrwt>
</event>
<event>
 6    1  0.9163926E-004  0.4051698E+03  0.7818608E-02  0.1042017E+00
         21   -1    0    0  501  502  0.00000000000E+00  0.00000000000E+00  0.40129689567E+03  0.40129689567E+03  0.00000000000E+00 0.  1.
         21   -1    0    0  502  503 -0.00000000000E+00 -0.00000000000E+00 -0.55732369705E+03  0.55732369705E+03  0.00000000000E+00 0.  1.
    9000007    2    1    2  501    0 -0.53420102163E+02 -0.36178600217E+02  0.16932873941E+03  0.43898723510E+03  0.39984368466E+03 0.  0.
    9000005    1    3    3    0    0  0.81302793589E+02  0.15167569306E+03  0.92537329192E+02  0.19539656445E+03  0.99999687468E+00 0.  0.
          4    1    3    3  501    0 -0.13472289575E+03 -0.18785429328E+03  0.76791410216E+02  0.24359067065E+03  0.00000000000E+00 0.  1.
   -9000007    1    1    2    0  503  0.53420102163E+02  0.36178600217E+02 -0.32535554079E+03  0.51963335762E+03  0.40000000000E+03 0.  1.
<mgrwt>
<rscale>  2 0.40513125E+03</rscale>
<asrwt>0</asrwt>
<pdfrwt beam="1">  1       21 0.61737984E-01 0.40516984E+03</pdfrwt>
<pdfrwt beam="2">  1       21 0.85742107E-01 0.40516984E+03</pdfrwt>
<totfact> 0.25250701E+03</totfact>
</mgrwt>
</event>
<event>
 6    1  0.9163926E-004  0.5168913E+03  0.7818608E-02  0.1009579E+00
         21   -1    0    0  501  502  0.00000000000E+00  0.00000000000E+00  0.15036204858E+04  0.15036204858E+04  0.00000000000E+00 0. -1.
         21   -1    0    0  502  503 -0.00000000000E+00 -0.00000000000E+00 -0.19826410311E+03  0.19826410311E+03  0.00000000000E+00 0. -1.
    9000007    2    1    2  501    0  0.16189344835E+03 -0.28454730842E+03  0.93000029485E+03  0.10630819183E+04  0.39757509632E+03 0.  0.
    9000005    1    3    3    0    0  0.50656316801E+02 -0.33244816885E+03  0.41558837673E+03  0.53460503764E+03  0.99999687468E+00 0.  0.
          4    1    3    3  501    0  0.11123713155E+03  0.47900860437E+02  0.51441191812E+03  0.52847688064E+03  0.00000000000E+00 0.  1.
   -9000007    1    1    2    0  503 -0.16189344835E+03  0.28454730842E+03  0.37535608789E+03  0.63880267067E+03  0.40000000000E+03 0. -1.
<mgrwt>
<rscale>  2 0.51642214E+03</rscale>
<asrwt>0</asrwt>
<pdfrwt beam="1">  1       21 0.23132622E+00 0.51689134E+03</pdfrwt>
<pdfrwt beam="2">  1       21 0.30502171E-01 0.51689134E+03</pdfrwt>
<totfact> 0.70550406E+02</totfact>
</mgrwt>
</event>
<event>
 6    1  0.9163926E-004  0.4202284E+03  0.7818608E-02  0.1037001E+00
         21   -1    0    0  501  502  0.00000000000E+00  0.00000000000E+00  0.11947436802E+04  0.11947436802E+04  0.00000000000E+00 0. -1.
         21   -1    0    0  502  503 -0.00000000000E+00 -0.00000000000E+00 -0.14782374846E+03  0.14782374846E+03  0.00000000000E+00 0.  1.
    9000007    2    1    2  501    0 -0.12298593202E+03 -0.37068023264E+02  0.53648105120E+03  0.68147180126E+03  0.40011538309E+03 0.  0.
    9000005    1    3    3    0    0 -0.78793863066E+02  0.17765977118E+03  0.31287913079E+03  0.36832841002E+03  0.99999687468E+00 0.  0.
          4    1    3    3  501    0 -0.44192068955E+02 -0.21472779444E+03  0.22360192041E+03  0.31314339123E+03  0.00000000000E+00 0.  1.
   -9000007    1    1    2    0  503  0.12298593202E+03  0.37068023264E+02  0.51043888058E+03  0.66109562745E+03  0.40000000000E+03 0. -1.
<mgrwt>
<rscale>  2 0.42020092E+03</rscale>
<asrwt>0</asrwt>
<pdfrwt beam="1">  1       21 0.18380671E+00 0.42022839E+03</pdfrwt>
<pdfrwt beam="2">  1       21 0.22742116E-01 0.42022839E+03</pdfrwt>
<totfact> 0.26880976E+03</totfact>
</mgrwt>
</event>
<event>
 6    1  0.9163926E-004  0.5906472E+03  0.7818608E-02  0.9925061E-01
         21   -1    0    0  501  502  0.00000000000E+00  0.00000000000E+00  0.17184619133E+04  0.17184619133E+04  0.00000000000E+00 0. -1.
         21   -1    0    0  502  503 -0.00000000000E+00 -0.00000000000E+00 -0.34302854570E+03  0.34302854570E+03  0.00000000000E+00 0.  1.
    9000007    2    1    2  501    0 -0.43196392191E+03  0.46263215606E+02  0.13463808611E+04  0.14702399512E+04  0.40016368641E+03 0.  0.
    9000005    1    3    3    0    0 -0.44602495764E+03  0.38390508358E+02  0.74863687024E+03  0.87227877279E+03  0.99999687468E+00 0.  0.
          4    1    3    3  501    0  0.14061035737E+02  0.78727072484E+01  0.59774399084E+03  0.59796117837E+03  0.00000000000E+00 0.  1.
   -9000007    1    1    2    0  503  0.43196392191E+03 -0.46263215606E+02  0.29052506558E+02  0.59125050789E+03  0.40000000000E+03 0.  1.
<mgrwt>
<rscale>  2 0.59061946E+03</rscale>
<asrwt>0</asrwt>
<pdfrwt beam="1">  1       21 0.26437875E+00 0.59064718E+03</pdfrwt>
<pdfrwt beam="2">  1       21 0.52773624E-01 0.59064718E+03</pdfrwt>
<totfact> 0.13660651E+02</totfact>
</mgrwt>
</event>
<event>
 6    1  0.9163926E-004  0.4070707E+03  0.7818608E-02  0.1041398E+00
         21   -1    0    0  501  502  0.00000000000E+00  0.00000000000E+00  0.13264568416E+03  0.13264568416E+03  0.00000000000E+00 0.  1.
         21   -1    0    0  502  503 -0.00000000000E+00 -0.00000000000E+00 -0.20434559165E+04  0.20434559165E+04  0.00000000000E+00 0.  1.
    9000007    2    1    2  501    0  0.55817620047E+02 -0.50901178731E+02 -0.27613266807E+03  0.49150156628E+03  0.39952221787E+03 0.  0.
    9000005    1    3    3    0    0 -0.10778591126E+03 -0.99957211671E+02 -0.28477898715E+03  0.32048294548E+03  0.99999687468E+00 0.  0.
          4    1    3    3  501    0  0.16360353131E+03  0.49056032940E+02  0.86463190803E+01  0.17101862079E+03  0.00000000000E+00 0.  1.
   -9000007    1    1    2    0  503 -0.55817620047E+02  0.50901178731E+02 -0.16346775643E+04  0.16846000344E+04  0.40000000000E+03 0.  1.
<mgrwt>
<rscale>  2 0.40695326E+03</rscale>
<asrwt>0</asrwt>
<pdfrwt beam="1">  1       21 0.20407029E-01 0.40707068E+03</pdfrwt>
<pdfrwt beam="2">  1       21 0.31437782E+00 0.40707068E+03</pdfrwt>
<totfact> 0.51058754E+02</totfact>
</mgrwt>
</event>
<event>
 6    1  0.9163926E-004  0.4525087E+03  0.7818608E-02  0.1027060E+00
         21   -1    0    0  501  502  0.00000000000E+00  0.00000000000E+00  0.38317214311E+03  0.38317214311E+03  0.00000000000E+00 0. -1.
         21   -1    0    0  502  503 -0.00000000000E+00 -0.00000000000E+00 -0.59262396217E+03  0.59262396217E+03  0.00000000000E+00 0. -1.
    9000007    2    1    2  501    0 -0.20787292431E+03 -0.23224847163E+02 -0.25951047811E+03  0.52164148895E+03  0.40126501038E+03 0.  0.
    9000005    1    3    3    0    0 -0.47691286582E+01  0.53952374761E+02 -0.29635616549E+03  0.30126662634E+03  0.99999687468E+00 0.  0.
          4    1    3    3  501    0 -0.20310379565E+03 -0.77177221924E+02  0.36845687375E+02  0.22037486261E+03  0.00000000000E+00 0.  1.
   -9000007    1    1    2    0  503  0.20787292431E+03  0.23224847163E+02  0.50058659060E+02  0.45415461633E+03  0.40000000000E+03 0. -1.
<mgrwt>
<rscale>  2 0.45222813E+03</rscale>
<asrwt>0</asrwt>
<pdfrwt beam="1">  1       21 0.58949561E-01 0.45250873E+03</pdfrwt>
<pdfrwt beam="2">  1       21 0.91172917E-01 0.45250873E+03</pdfrwt>
<totfact> 0.23741852E+03</totfact>
</mgrwt>
</event>
<event>
 6    1  0.9163926E-004  0.5199532E+03  0.7818608E-02  0.1008722E+00
         21   -1    0    0  501  502  0.00000000000E+00  0.00000000000E+00  0.51474983095E+03  0.51474983095E+03  0.00000000000E+00 0.  1.
         21   -1    0    0  502  503 -0.00000000000E+00 -0.00000000000E+00 -0.56877974405E+03  0.56877974405E+03  0.00000000000E+00 0.  1.
    9000007    2    1    2  501    0  0.32948834905E+03 -0.42293106265E+02  0.12361678618E+03  0.53406653823E+03  0.39949302677E+03 0.  0.
    9000005    1    3    3    0    0  0.29712006546E+03 -0.12323966033E+03 -0.63285067726E+02  0.32783280338E+03  0.99999687468E+00 0.  0.
          4    1    3    3  501    0  0.32368283589E+02  0.80946554069E+02  0.18690185391E+03  0.20623373485E+03  0.00000000000E+00 0.  1.
   -9000007    1    1    2    0  503 -0.32948834905E+03  0.42293106265E+02 -0.17764669928E+03  0.54946303676E+03  0.40000000000E+03 0.  1.
<mgrwt>
<rscale>  2 0.51985564E+03</rscale>
<asrwt>0</asrwt>
<pdfrwt beam="1">  1       21 0.79192281E-01 0.51995315E+03</pdfrwt>
<pdfrwt beam="2">  1       21 0.87504576E-01 0.51995315E+03</pdfrwt>
<totfact> 0.13163409E+03</totfact>
</mgrwt>
</event>
<event>
 6    1  0.9163926E-004  0.5332642E+03  0.7818608E-02  0.1005509E+00
         21   -1    0    0  501  502  0.00000000000E+00  0.00000000000E+00  0.22390534846E+04  0.22390534846E+04  0.00000000000E+00 0. -1.
         21   -1    0    0  502  503 -0.00000000000E+00 -0.00000000000E+00 -0.17886963857E+03  0.17886963857E+03  0.00000000000E+00 0.  1.
    9000007    2    1    2  501    0  0.33372884966E+03 -0.11399876011E+03  0.37672445349E+03  0.65202216650E+03  0.39854852823E+03 0.  0.
    9000005    1    3    3    0    0 -0.44934435326E+02 -0.10692666399E+03  0.20639469935E+03  0.23675343052E+03  0.99999687468E+00 0.  0.
          4    1    3    3  501    0  0.37866328499E+03 -0.70720961193E+01  0.17032975414E+03  0.41526873599E+03  0.00000000000E+00 0.  1.
   -9000007    1    1    2    0  503 -0.33372884966E+03  0.11399876011E+03  0.16834593925E+04  0.17659009566E+04  0.40000000000E+03 0. -1.
<mgrwt>
<rscale>  2 0.53299198E+03</rscale>
<asrwt>0</asrwt>
<pdfrwt beam="1">  1       21 0.34446975E+00 0.53326416E+03</pdfrwt>
<pdfrwt beam="2">  1       21 0.27518408E-01 0.53326416E+03</pdfrwt>
<totfact> 0.17443846E+02</totfact>
</mgrwt>
</event>
<event>
 6    1  0.9163926E-004  0.5561391E+03  0.7818608E-02  0.1000113E+00
         21   -1    0    0  501  502  0.00000000000E+00  0.00000000000E+00  0.51083497473E+03  0.51083497473E+03  0.00000000000E+00 0. -1.
         21   -1    0    0  502  503 -0.00000000000E+00 -0.00000000000E+00 -0.11901822363E+04  0.11901822363E+04  0.00000000000E+00 0.  1.
    9000007    2    1    2  501    0 -0.22348218115E+03 -0.31427054722E+03  0.25667228989E+03  0.61251233605E+03  0.40072488727E+03 0.  0.
    9000005    1    3    3    0    0 -0.11411981314E+03 -0.98817109559E+02  0.32758984932E+03  0.36069968432E+03  0.99999687468E+00 0.  0.
          4    1    3    3  501    0 -0.10936236801E+03 -0.21545343766E+03 -0.70917559432E+02  0.25181265173E+03  0.00000000000E+00 0.  1.
   -9000007    1    1    2    0  503  0.22348218115E+03  0.31427054722E+03 -0.93601955144E+03  0.10885048750E+04  0.40000000000E+03 0.  1.
<mgrwt>
<rscale>  2 0.55600853E+03</rscale>
<asrwt>0</asrwt>
<pdfrwt beam="1">  1       21 0.78589997E-01 0.55613910E+03</pdfrwt>
<pdfrwt beam="2">  1       21 0.18310496E+00 0.55613910E+03</pdfrwt>
<totfact> 0.19165238E+02</totfact>
</mgrwt>
</event>
<event>
 6    1  0.9163926E-004  0.5332653E+03  0.7818608E-02  0.1005462E+00
         21   -1    0    0  501  502  0.00000000000E+00  0.00000000000E+00  0.89708763345E+03  0.89708763345E+03  0.00000000000E+00 0. -1.
         21   -1    0    0  502  503 -0.00000000000E+00 -0.00000000000E+00 -0.37341171791E+03  0.37341171791E+03  0.00000000000E+00 0.  1.
    9000007    2    1    2  501    0  0.11778166679E+03  0.33241446793E+03  0.50909183668E+03  0.73703464317E+03  0.39959187621E+03 0.  0.
    9000005    1    3    3    0    0  0.23354904940E+03  0.27754196839E+03  0.48666192516E+03  0.60697243107E+03  0.99999687468E+00 0.  0.
          4    1    3    3  501    0 -0.11576738261E+03  0.54872499547E+02  0.22429911520E+02  0.13006221209E+03  0.00000000000E+00 0.  1.
   -9000007    1    1    2    0  503 -0.11778166679E+03 -0.33241446793E+03  0.14584078863E+02  0.53346470818E+03  0.40000000000E+03 0. -1.
<mgrwt>
<rscale>  2 0.53318879E+03</rscale>
<asrwt>0</asrwt>
<pdfrwt beam="1">  1       21 0.13801348E+00 0.53326532E+03</pdfrwt>
<pdfrwt beam="2">  1       21 0.57447957E-01 0.53326532E+03</pdfrwt>
<totfact> 0.86306182E+02</totfact>
</mgrwt>
</event>
<event>
 6    1  0.9163926E-004  0.5446946E+03  0.7818608E-02  0.1002761E+00
         21   -1    0    0  501  502  0.00000000000E+00  0.00000000000E+00  0.18488763427E+04  0.18488763427E+04  0.00000000000E+00 0.  1.
         21   -1    0    0  502  503 -0.00000000000E+00 -0.00000000000E+00 -0.16594887041E+03  0.16594887041E+03  0.00000000000E+00 0. -1.
    9000007    2    1    2  501    0  0.35626052986E+03 -0.95862212360E+02  0.10274905862E+04  0.11629398684E+04  0.40072572150E+03 0.  0.
    9000005    1    3    3    0    0  0.57637472036E+02 -0.17101903900E+03  0.15567354089E+03  0.23833766217E+03  0.99999687468E+00 0.  0.
          4    1    3    3  501    0  0.29862305782E+03  0.75156826641E+02  0.87181704527E+03  0.92460220618E+03  0.00000000000E+00 0.  1.
   -9000007    1    1    2    0  503 -0.35626052986E+03  0.95862212360E+02  0.65543688612E+03  0.85188534474E+03  0.40000000000E+03 0. -1.
<mgrwt>
<rscale>  2 0.54456115E+03</rscale>
<asrwt>0</asrwt>
<pdfrwt beam="1">  1       21 0.28444250E+00 0.54469462E+03</pdfrwt>
<pdfrwt beam="2">  1       21 0.25530597E-01 0.54469462E+03</pdfrwt>
<totfact> 0.46624042E+02</totfact>
</mgrwt>
</event>
<event>
 6    1  0.9163926E-004  0.6043487E+03  0.7818608E-02  0.9896533E-01
         21   -1    0    0  501  502  0.00000000000E+00  0.00000000000E+00  0.20753851696E+04  0.20753851696E+04  0.00000000000E+00 0.  1.
         21   -1    0    0  502  503 -0.00000000000E+00 -0.00000000000E+00 -0.23392294346E+03  0.23392294346E+03  0.00000000000E+00 0. -1.
    9000007    2    1    2  501    0  0.81330410712E+02  0.44567101990E+03  0.14955547996E+04  0.16129682238E+04  0.39968117116E+03 0.  0.
    9000005    1    3    3    0    0 -0.10990608629E+03  0.30285915226E+03  0.11405969074E+04  0.11852279608E+04  0.99999687468E+00 0.  0.
          4    1    3    3  501    0  0.19123649700E+03  0.14281186764E+03  0.35495789222E+03  0.42774026298E+03  0.00000000000E+00 0.  1.
   -9000007    1    1    2    0  503 -0.81330410712E+02 -0.44567101990E+03  0.34590742654E+03  0.69633988929E+03  0.40000000000E+03 0. -1.
<mgrwt>
<rscale>  2 0.60429590E+03</rscale>
<asrwt>0</asrwt>
<pdfrwt beam="1">  1       21 0.31929001E+00 0.60434865E+03</pdfrwt>
<pdfrwt beam="2">  1       21 0.35988147E-01 0.60434865E+03</pdfrwt>
<totfact> 0.14011563E+02</totfact>
</mgrwt>
</event>
<event>
 6    1  0.9163926E-004  0.5135076E+03  0.7818608E-02  0.1010330E+00
         21   -1    0    0  501  502  0.00000000000E+00  0.00000000000E+00  0.12720980624E+04  0.12720980624E+04  0.00000000000E+00 0.  1.
         21   -1    0    0  502  503 -0.00000000000E+00 -0.00000000000E+00 -0.20785597313E+03  0.20785597313E+03  0.00000000000E+00 0.  1.
    9000007    2    1    2  501    0 -0.28541995704E+03  0.14808173758E+03  0.57475998967E+03  0.77073934399E+03  0.40037149970E+03 0.  0.
    9000005    1    3    3    0    0 -0.92457213684E+02  0.57939712320E+02 -0.43010109729E+02  0.11728689679E+03  0.99999687468E+00 0.  0.
          4    1    3    3  501    0 -0.19296274335E+03  0.90142025259E+02  0.61777009940E+03  0.65345244720E+03  0.00000000000E+00 0.  1.
   -9000007    1    1    2    0  503  0.28541995704E+03 -0.14808173758E+03  0.48948209964E+03  0.70921469158E+03  0.40000000000E+03 0.  1.
<mgrwt>
<rscale>  2 0.51343522E+03</rscale>
<asrwt>0</asrwt>
<pdfrwt beam="1">  1       21 0.19570739E+00 0.51350763E+03</pdfrwt>
<pdfrwt beam="2">  1       21 0.31977843E-01 0.51350763E+03</pdfrwt>
<totfact> 0.10974507E+03</totfact>
</mgrwt>
</event>
<event>
 6    1  0.9163926E-004  0.4386000E+03  0.7818608E-02  0.1031216E+00
         21   -1    0    0  501  502  0.00000000000E+00  0.00000000000E+00  0.15089933641E+04  0.15089933641E+04  0.00000000000E+00 0.  1.
         21   -1    0    0  502  503 -0.00000000000E+00 -0.00000000000E+00 -0.14519492759E+03  0.14519492759E+03  0.00000000000E+00 0.  1.
    9000007    2    1    2  501    0 -0.69835866764E+02  0.16446487751E+03  0.97232499438E+03  0.10666704621E+04  0.40055490975E+03 0.  0.
    9000005    1    3    3    0    0 -0.18203005279E+03 -0.39499500007E+02  0.28034827513E+03  0.33658773891E+03  0.99999687468E+00 0.  0.
          4    1    3    3  501    0  0.11219418603E+03  0.20396437751E+03  0.69197671925E+03  0.73008272316E+03  0.00000000000E+00 0.  1.
   -9000007    1    1    2    0  503  0.69835866764E+02 -0.16446487751E+03  0.39147344208E+03  0.58751782958E+03  0.40000000000E+03 0.  1.
<mgrwt>
<rscale>  2 0.43847329E+03</rscale>
<asrwt>0</asrwt>
<pdfrwt beam="1">  1       21 0.23215281E+00 0.43860002E+03</pdfrwt>
<pdfrwt beam="2">  1       21 0.22337682E-01 0.43860002E+03</pdfrwt>
<totfact> 0.13296223E+03</totfact>
</mgrwt>
</event>
<event>
 6    1  0.9163926E-004  0.5850253E+03  0.7818608E-02  0.9937110E-01
         21   -1    0    0  501  502  0.00000000000E+00  0.00000000000E+00  0.47913238395E+03  0.47913238395E+03  0.00000000000E+00 0. -1.
         21   -1    0    0  502  503 -0.00000000000E+00 -0.00000000000E+00 -0.75578020545E+03  0.75578020545E+03  0.00000000000E+00 0.  1.
    9000007    2    1    2  501    0 -0.27230932391E+02 -0.42568405688E+03  0.68189746151E+01  0.58506501924E+03  0.40038249008E+03 0.  0.
    9000005    1    3    3    0    0 -0.10737168220E+03  0.39165563015E+01  0.90056321002E+02  0.14019685623E+03  0.99999687468E+00 0.  0.
          4    1    3    3  501    0  0.80140749805E+02 -0.42960061318E+03 -0.83237346387E+02  0.44486816300E+03  0.00000000000E+00 0.  1.
   -9000007    1    1    2    0  503  0.27230932391E+02  0.42568405688E+03 -0.28346679611E+03  0.64984757017E+03  0.40000000000E+03 0. -1.
<mgrwt>
<rscale>  2 0.58495984E+03</rscale>
<asrwt>0</asrwt>
<pdfrwt beam="1">  1       21 0.73712674E-01 0.58502528E+03</pdfrwt>
<pdfrwt beam="2">  1       21 0.11627388E+00 0.58502528E+03</pdfrwt>
<totfact> 0.75790651E+02</totfact>
</mgrwt>
</event>
<event>
 6    1  0.9163926E-004  0.4799348E+03  0.7818608E-02  0.1019164E+00
         21   -1    0    0  501  502  0.00000000000E+00  0.00000000000E+00  0.10518167263E+04  0.10518167263E+04  0.00000000000E+00 0. -1.
         21   -1    0    0  502  503 -0.00000000000E+00 -0.00000000000E+00 -0.26531696981E+03  0.26531696981E+03  0.00000000000E+00 0.  1.
    9000007    2    1    2  501    0 -0.19715652861E+03 -0.17694598808E+03  0.66871733240E+03  0.82311620764E+03  0.40019600343E+03 0.  0.
    9000005    1    3    3    0    0 -0.21771108183E+03  0.70112490472E+02  0.36921191619E+03  0.43431821919E+03  0.99999687468E+00 0.  0.
          4    1    3    3  501    0  0.20554553221E+02 -0.24705847855E+03  0.29950541621E+03  0.38879798845E+03  0.00000000000E+00 0.  1.
   -9000007    1    1    2    0  503  0.19715652861E+03  0.17694598808E+03  0.11778242406E+03  0.49401748845E+03  0.40000000000E+03 0.  1.
<mgrwt>
<rscale>  2 0.47989395E+03</rscale>
<asrwt>0</asrwt>
<pdfrwt beam="1">  1       21 0.16181796E+00 0.47993481E+03</pdfrwt>
<pdfrwt beam="2">  1       21 0.40817996E-01 0.47993481E+03</pdfrwt>
<totfact> 0.11786886E+03</totfact>
</mgrwt>
</event>
<event>
 6    1  0.9163926E-004  0.5194677E+03  0.7818608E-02  0.1008830E+00
         21   -1    0    0  501  502  0.00000000000E+00  0.00000000000E+00  0.18428274968E+04  0.18428274968E+04  0.00000000000E+00 0. -1.
         21   -1    0    0  502  503 -0.00000000000E+00 -0.00000000000E+00 -0.17889743066E+03  0.17889743066E+03  0.00000000000E+00 0. -1.
    9000007    2    1    2  501    0 -0.30122468975E+03  0.13824039488E+03  0.12628226416E+04  0.13654217304E+04  0.39976087485E+03 0.  0.
    9000005    1    3    3    0    0 -0.13608248270E+03  0.25825016086E+03  0.53435623282E+03  0.60889175658E+03  0.99999687468E+00 0.  0.
          4    1    3    3  501    0 -0.16514220706E+03 -0.12000976598E+03  0.72846640879E+03  0.75652997378E+03  0.00000000000E+00 0.  1.
   -9000007    1    1    2    0  503  0.30122468975E+03 -0.13824039488E+03  0.40110742449E+03  0.65630319706E+03  0.40000000000E+03 0. -1.
<mgrwt>
<rscale>  2 0.51942169E+03</rscale>
<asrwt>0</asrwt>
<pdfrwt beam="1">  1       21 0.28351191E+00 0.51946773E+03</pdfrwt>
<pdfrwt beam="2">  1       21 0.27522683E-01 0.51946773E+03</pdfrwt>
<totfact> 0.41232204E+02</totfact>
</mgrwt>
</event>
<event>
 6    1  0.9163926E-004  0.4160487E+03  0.7818608E-02  0.1038394E+00
         21   -1    0    0  501  502  0.00000000000E+00  0.00000000000E+00  0.16205383303E+04  0.16205383303E+04  0.00000000000E+00 0. -1.
         21   -1    0    0  502  503 -0.00000000000E+00 -0.00000000000E+00 -0.10927095507E+03  0.10927095507E+03  0.00000000000E+00 0. -1.
    9000007    2    1    2  501    0  0.91324309275E+02  0.68966749895E+02  0.88774862933E+03  0.98022795652E+03  0.39956560890E+03 0.  0.
    9000005    1    3    3    0    0 -0.12799365212E+03  0.91326624631E+02  0.18033053430E+03  0.23925515448E+03  0.99999687468E+00 0.  0.
          4    1    3    3  501    0  0.21931796140E+03 -0.22359874736E+02  0.70741809502E+03  0.74097280203E+03  0.00000000000E+00 0.  1.
   -9000007    1    1    2    0  503 -0.91324309275E+02 -0.68966749895E+02  0.62351874589E+03  0.74958132883E+03  0.40000000000E+03 0. -1.
<mgrwt>
<rscale>  2 0.41594428E+03</rscale>
<asrwt>0</asrwt>
<pdfrwt beam="1">  1       21 0.24931357E+00 0.41604873E+03</pdfrwt>
<pdfrwt beam="2">  1       21 0.16810917E-01 0.41604873E+03</pdfrwt>
<totfact> 0.18044355E+03</totfact>
</mgrwt>
</event>
<event>
 6    1  0.9163926E-004  0.4307944E+03  0.7818608E-02  0.1033675E+00
         21   -1    0    0  501  502  0.00000000000E+00  0.00000000000E+00  0.36927609865E+03  0.36927609865E+03  0.00000000000E+00 0.  1.
         21   -1    0    0  502  503 -0.00000000000E+00 -0.00000000000E+00 -0.51568512832E+03  0.51568512832E+03  0.00000000000E+00 0. -1.
    9000007    2    1    2  501    0 -0.12762931885E+03 -0.96408543983E+02  0.10804709218E-01  0.42996384424E+03  0.39910532051E+03 0.  0.
    9000005    1    3    3    0    0 -0.22454334057E+03  0.32399763939E+02 -0.91473121200E+02  0.24461763712E+03  0.99999687468E+00 0.  0.
          4    1    3    3  501    0  0.96914021711E+02 -0.12880830792E+03  0.91483925910E+02  0.18534620712E+03  0.00000000000E+00 0.  1.
   -9000007    1    1    2    0  503  0.12762931885E+03  0.96408543983E+02 -0.14641983438E+03  0.45499738272E+03  0.40000000000E+03 0.  1.
<mgrwt>
<rscale>  2 0.43058664E+03</rscale>
<asrwt>0</asrwt>
<pdfrwt beam="1">  1       21 0.56811707E-01 0.43079444E+03</pdfrwt>
<pdfrwt beam="2">  1       21 0.79336174E-01 0.43079444E+03</pdfrwt>
<totfact> 0.35903566E+03</totfact>
</mgrwt>
</event>
<event>
 6    1  0.9163926E-004  0.4311985E+03  0.7818608E-02  0.1033509E+00
         21   -1    0    0  501  502  0.00000000000E+00  0.00000000000E+00  0.71823525822E+03  0.71823525822E+03  0.00000000000E+00 0.  1.
         21   -1    0    0  502  503 -0.00000000000E+00 -0.00000000000E+00 -0.28043958088E+03  0.28043958088E+03  0.00000000000E+00 0.  1.
    9000007    2    1    2  501    0 -0.16094326785E+03  0.54249882741E+01  0.35795164379E+03  0.56014635010E+03  0.39962781219E+03 0.  0.
    9000005    1    3    3    0    0 -0.19908822071E+02 -0.18275536972E+03  0.93474694102E+02  0.20623870827E+03  0.99999687468E+00 0.  0.
          4    1    3    3  501    0 -0.14103444578E+03  0.18818035799E+03  0.26447694969E+03  0.35390764183E+03  0.00000000000E+00 0.  1.
   -9000007    1    1    2    0  503  0.16094326785E+03 -0.54249882741E+01  0.79844033549E+02  0.43852848899E+03  0.40000000000E+03 0.  1.
<mgrwt>
<rscale>  2 0.43111219E+03</rscale>
<asrwt>0</asrwt>
<pdfrwt beam="1">  1       21 0.11049773E+00 0.43119852E+03</pdfrwt>
<pdfrwt beam="2">  1       21 0.43144551E-01 0.43119852E+03</pdfrwt>
<totfact> 0.29161156E+03</totfact>
</mgrwt>
</event>
<event>
 6    1  0.9163926E-004  0.4489920E+03  0.7818608E-02  0.1028123E+00
         21   -1    0    0  501  502  0.00000000000E+00  0.00000000000E+00  0.22698867242E+03  0.22698867242E+03  0.00000000000E+00 0. -1.
         21   -1    0    0  502  503 -0.00000000000E+00 -0.00000000000E+00 -0.98601403751E+03  0.98601403751E+03  0.00000000000E+00 0. -1.
    9000007    2    1    2  501    0 -0.18389432702E+03  0.81128856706E+02 -0.18636489376E+03  0.48613337482E+03  0.40149068431E+03 0.  0.
    9000005    1    3    3    0    0  0.37869515589E+02  0.15465916743E+02  0.10584024720E+03  0.11347445842E+03  0.99999687468E+00 0.  0.
          4    1    3    3  501    0 -0.22176384261E+03  0.65662939963E+02 -0.29220514096E+03  0.37265891640E+03  0.00000000000E+00 0.  1.
   -9000007    1    1    2    0  503  0.18389432702E+03 -0.81128856706E+02 -0.57266047133E+03  0.72686933511E+03  0.40000000000E+03 0. -1.
<mgrwt>
<rscale>  2 0.44865847E+03</rscale>
<asrwt>0</asrwt>
<pdfrwt beam="1">  1       21 0.34921334E-01 0.44899196E+03</pdfrwt>
<pdfrwt beam="2">  1       21 0.15169447E+00 0.44899196E+03</pdfrwt>
<totfact> 0.19631937E+03</totfact>
</mgrwt>
</event>
<event>
 6    1  0.9163926E-004  0.4390147E+03  0.7818608E-02  0.1031067E+00
         21   -1    0    0  501  502  0.00000000000E+00  0.00000000000E+00  0.66864473088E+03  0.66864473088E+03  0.00000000000E+00 0.  1.
         21   -1    0    0  502  503 -0.00000000000E+00 -0.00000000000E+00 -0.30722121028E+03  0.30722121028E+03  0.00000000000E+00 0.  1.
    9000007    2    1    2  501    0  0.44866712898E+02  0.17471835611E+03  0.30248223921E+03  0.53313170876E+03  0.40024291119E+03 0.  0.
    9000005    1    3    3    0    0 -0.55281502287E+02  0.57150318290E+02 -0.84764033038E+02  0.11622454416E+03  0.99999687468E+00 0.  0.
          4    1    3    3  501    0  0.10014821519E+03  0.11756803782E+03  0.38724627225E+03  0.41690716460E+03  0.00000000000E+00 0.  1.
   -9000007    1    1    2    0  503 -0.44866712898E+02 -0.17471835611E+03  0.58941281384E+02  0.44273423240E+03  0.40000000000E+03 0.  1.
<mgrwt>
<rscale>  2 0.43895934E+03</rscale>
<asrwt>0</asrwt>
<pdfrwt beam="1">  1       21 0.10286842E+00 0.43901471E+03</pdfrwt>
<pdfrwt beam="2">  1       21 0.47264802E-01 0.43901471E+03</pdfrwt>
<totfact> 0.28653796E+03</totfact>
</mgrwt>
</event>
<event>
 6    1  0.9163926E-004  0.4420622E+03  0.7818608E-02  0.1030210E+00
         21   -1    0    0  501  502  0.00000000000E+00  0.00000000000E+00  0.18986007280E+04  0.18986007280E+04  0.00000000000E+00 0. -1.
         21   -1    0    0  502  503 -0.00000000000E+00 -0.00000000000E+00 -0.11331491972E+03  0.11331491972E+03  0.00000000000E+00 0. -1.
    9000007    2    1    2  501    0 -0.92308275443E+02  0.16066701487E+03  0.58504104235E+03  0.73327488288E+03  0.40135311789E+03 0.  0.
    9000005    1    3    3    0    0 -0.24666203245E+03  0.11352763930E+03  0.43571002854E+03  0.51339547339E+03  0.99999687468E+00 0.  0.
          4    1    3    3  501    0  0.15435375700E+03  0.47139375577E+02  0.14933101381E+03  0.21987940949E+03  0.00000000000E+00 0.  1.
   -9000007    1    1    2    0  503  0.92308275443E+02 -0.16066701487E+03  0.12002447660E+04  0.12786407649E+04  0.40000000000E+03 0. -1.
<mgrwt>
<rscale>  2 0.44175489E+03</rscale>
<asrwt>0</asrwt>
<pdfrwt beam="1">  1       21 0.29209240E+00 0.44206225E+03</pdfrwt>
<pdfrwt beam="2">  1       21 0.17433066E-01 0.44206225E+03</pdfrwt>
<totfact> 0.91655181E+02</totfact>
</mgrwt>
</event>
<event>
 6    1  0.9163926E-004  0.5061580E+03  0.7818608E-02  0.1012960E+00
         21   -1    0    0  501  502  0.00000000000E+00  0.00000000000E+00  0.43517693880E+03  0.43517693880E+03  0.00000000000E+00 0.  1.
         21   -1    0    0  502  503 -0.00000000000E+00 -0.00000000000E+00 -0.70668893901E+03  0.70668893901E+03  0.00000000000E+00 0.  1.
    9000007    2    1    2  501    0 -0.25138486055E+03 -0.14517526414E+03  0.10943601826E+03  0.51785337937E+03  0.41463921065E+03 0.  0.
    9000005    1    3    3    0    0  0.60473560764E+02 -0.42294881065E+02  0.16871925638E+03  0.18415508677E+03  0.99999687468E+00 0.  0.
          4    1    3    3  501    0 -0.31185842131E+03 -0.10288038308E+03 -0.59283238120E+02  0.33369829261E+03  0.00000000000E+00 0.  1.
   -9000007    1    1    2    0  503  0.25138486055E+03  0.14517526414E+03 -0.38094801847E+03  0.62401249844E+03  0.40000000000E+03 0.  1.
<mgrwt>
<rscale>  2 0.50315103E+03</rscale>
<asrwt>0</asrwt>
<pdfrwt beam="1">  1       21 0.66950299E-01 0.50615796E+03</pdfrwt>
<pdfrwt beam="2">  1       21 0.10872137E+00 0.50615796E+03</pdfrwt>
<totfact> 0.11452540E+03</totfact>
</mgrwt>
</event>
<event>
 6    1  0.9163926E-004  0.4310785E+03  0.7818608E-02  0.1034151E+00
         21   -1    0    0  501  502  0.00000000000E+00  0.00000000000E+00  0.53676285119E+03  0.53676285119E+03  0.00000000000E+00 0. -1.
         21   -1    0    0  502  503 -0.00000000000E+00 -0.00000000000E+00 -0.53478331368E+03  0.53478331368E+03  0.00000000000E+00 0. -1.
    9000007    2    1    2  501    0  0.12205914608E+03 -0.64424251823E+02  0.32445097006E+03  0.53953418739E+03  0.40838681177E+03 0.  0.
    9000005    1    3    3    0    0 -0.37137537608E+02  0.10622442453E+03 -0.28793959554E+02  0.11615901673E+03  0.99999687468E+00 0.  0.
          4    1    3    3  501    0  0.15919668369E+03 -0.17064867636E+03  0.35324492961E+03  0.42337517066E+03  0.00000000000E+00 0.  1.
   -9000007    1    1    2    0  503 -0.12205914608E+03  0.64424251823E+02 -0.32247143255E+03  0.53201197747E+03  0.40000000000E+03 0.  1.
<mgrwt>
<rscale>  2 0.42908049E+03</rscale>
<asrwt>0</asrwt>
<pdfrwt beam="1">  1       21 0.82578900E-01 0.43107854E+03</pdfrwt>
<pdfrwt beam="2">  1       21 0.82274356E-01 0.43107854E+03</pdfrwt>
<totfact> 0.14266138E+03</totfact>
</mgrwt>
</event>
<event>
 6    1  0.9163926E-004  0.4886283E+03  0.7818608E-02  0.1016826E+00
         21   -1    0    0  501  502  0.00000000000E+00  0.00000000000E+00  0.12602390325E+04  0.12602390325E+04  0.00000000000E+00 0.  1.
         21   -1    0    0  502  503 -0.00000000000E+00 -0.00000000000E+00 -0.21583913900E+03  0.21583913900E+03  0.00000000000E+00 0. -1.
    9000007    2    1    2  501    0  0.20687087307E+03 -0.18963668770E+03  0.26291246302E+03  0.55440565077E+03  0.39935576990E+03 0.  0.
    9000005    1    3    3    0    0  0.57061188971E+02  0.11145031137E+03 -0.36666663325E+01  0.12526609927E+03  0.99999687468E+00 0.  0.
          4    1    3    3  501    0  0.14980968410E+03 -0.30108699907E+03  0.26657912936E+03  0.42913955150E+03  0.00000000000E+00 0.  1.
   -9000007    1    1    2    0  503 -0.20687087307E+03  0.18963668770E+03  0.78148743044E+03  0.92167252069E+03  0.40000000000E+03 0.  1.
<mgrwt>
<rscale>  2 0.48849645E+03</rscale>
<asrwt>0</asrwt>
<pdfrwt beam="1">  1       21 0.19388292E+00 0.48862832E+03</pdfrwt>
<pdfrwt beam="2">  1       21 0.33206022E-01 0.48862832E+03</pdfrwt>
<totfact> 0.10572614E+03</totfact>
</mgrwt>
</event>
<event>
 6    1  0.9163926E-004  0.4224297E+03  0.7818608E-02  0.1036335E+00
         21   -1    0    0  501  502  0.00000000000E+00  0.00000000000E+00  0.10383618878E+04  0.10383618878E+04  0.00000000000E+00 0.  1.
         21   -1    0    0  502  503 -0.00000000000E+00 -0.00000000000E+00 -0.17942967134E+03  0.17942967134E+03  0.00000000000E+00 0.  1.
    9000007    2    1    2  501    0  0.12542658911E+03  0.52106182811E+02  0.55656525842E+03  0.69829886347E+03  0.39926123316E+03 0.  0.
    9000005    1    3    3    0    0 -0.99463815761E+02  0.90618847413E+02  0.51479729670E+02  0.14406938854E+03  0.99999687468E+00 0.  0.
          4    1    3    3  501    0  0.22489040487E+03 -0.38512664602E+02  0.50508552875E+03  0.55422947494E+03  0.00000000000E+00 0.  1.
   -9000007    1    1    2    0  503 -0.12542658911E+03 -0.52106182811E+02  0.30236695806E+03  0.51949269568E+03  0.40000000000E+03 0.  1.
<mgrwt>
<rscale>  2 0.42225476E+03</rscale>
<asrwt>0</asrwt>
<pdfrwt beam="1">  1       21 0.15974798E+00 0.42242974E+03</pdfrwt>
<pdfrwt beam="2">  1       21 0.27604565E-01 0.42242974E+03</pdfrwt>
<totfact> 0.27503922E+03</totfact>
</mgrwt>
</event>
<event>
 6    1  0.9163926E-004  0.5034807E+03  0.7818608E-02  0.1012880E+00
         21   -1    0    0  501  502  0.00000000000E+00  0.00000000000E+00  0.31999412964E+03  0.31999412964E+03  0.00000000000E+00 0.  1.
         21   -1    0    0  502  503 -0.00000000000E+00 -0.00000000000E+00 -0.84548558438E+03  0.84548558438E+03  0.00000000000E+00 0.  1.
    9000007    2    1    2  501    0 -0.23446938177E+03  0.19603488745E+03 -0.11625795735E+03  0.51672889632E+03  0.40010907458E+03 0.  0.
    9000005    1    3    3    0    0 -0.29092774916E+03  0.86125774926E+02  0.52144578887E+02  0.30785818398E+03  0.99999687468E+00 0.  0.
          4    1    3    3  501    0  0.56458367396E+02  0.10990911252E+03 -0.16840253623E+03  0.20887071234E+03  0.00000000000E+00 0.  1.
   -9000007    1    1    2    0  503  0.23446938177E+03 -0.19603488745E+03 -0.40923349740E+03  0.64875081771E+03  0.40000000000E+03 0.  1.
<mgrwt>
<rscale>  2 0.50345905E+03</rscale>
<asrwt>0</asrwt>
<pdfrwt beam="1">  1       21 0.49229867E-01 0.50348072E+03</pdfrwt>
<pdfrwt beam="2">  1       21 0.13007470E+00 0.50348072E+03</pdfrwt>
<totfact> 0.14212480E+03</totfact>
</mgrwt>
</event>
<event>
 6    1  0.9163926E-004  0.4251051E+03  0.7818608E-02  0.1035450E+00
         21   -1    0    0  501  502  0.00000000000E+00  0.00000000000E+00  0.17795494494E+04  0.17795494494E+04  0.00000000000E+00 0.  1.
         21   -1    0    0  502  503 -0.00000000000E+00 -0.00000000000E+00 -0.10993025537E+03  0.10993025537E+03  0.00000000000E+00 0.  1.
    9000007    2    1    2  501    0 -0.14238613300E+03  0.10047924649E+02  0.57285541887E+03  0.71335660314E+03  0.40042420090E+03 0.  0.
    9000005    1    3    3    0    0 -0.23715828428E+03  0.68831296979E+02  0.54510541572E+03  0.59843354977E+03  0.99999687468E+00 0.  0.
          4    1    3    3  501    0  0.94772151286E+02 -0.58783372330E+02  0.27750003143E+02  0.11492305337E+03  0.00000000000E+00 0.  1.
   -9000007    1    1    2    0  503  0.14238613300E+03 -0.10047924649E+02  0.10967637751E+04  0.11761231016E+04  0.40000000000E+03 0. -1.
<mgrwt>
<rscale>  2 0.42500514E+03</rscale>
<asrwt>0</asrwt>
<pdfrwt beam="1">  1       21 0.27377682E+00 0.42510506E+03</pdfrwt>
<pdfrwt beam="2">  1       21 0.16912348E-01 0.42510506E+03</pdfrwt>
<totfact> 0.12617100E+03</totfact>
</mgrwt>
</event>
<event>
 6    1  0.9163926E-004  0.4825205E+03  0.7818608E-02  0.1018553E+00
         21   -1    0    0  501  502  0.00000000000E+00  0.00000000000E+00  0.48542020932E+03  0.48542020932E+03  0.00000000000E+00 0.  1.
         21   -1    0    0  502  503 -0.00000000000E+00 -0.00000000000E+00 -0.90735867876E+03  0.90735867876E+03  0.00000000000E+00 0.  1.
    9000007    2    1    2  501    0 -0.17329309556E+03 -0.20687070681E+03  0.26821937803E+03  0.55067210107E+03  0.39808559612E+03 0.  0.
    9000005    1    3    3    0    0  0.94512238596E+02 -0.17006668215E+03  0.44043001831E+02  0.19948941232E+03  0.99999687468E+00 0.  0.
          4    1    3    3  501    0 -0.26780533416E+03 -0.36804024657E+02  0.22417637620E+03  0.35118268875E+03  0.00000000000E+00 0.  1.
   -9000007    1    1    2    0  503  0.17329309556E+03  0.20687070681E+03 -0.69015784747E+03  0.84210678701E+03  0.40000000000E+03 0.  1.
<mgrwt>
<rscale>  2 0.48212351E+03</rscale>
<asrwt>0</asrwt>
<pdfrwt beam="1">  1       21 0.74680033E-01 0.48252045E+03</pdfrwt>
<pdfrwt beam="2">  1       21 0.13959364E+00 0.48252045E+03</pdfrwt>
<totfact> 0.47550849E+02</totfact>
</mgrwt>
</event>
<event>
 6    1  0.9163926E-004  0.4210008E+03  0.7818608E-02  0.1036911E+00
         21   -1    0    0  501  502  0.00000000000E+00  0.00000000000E+00  0.33689414714E+03  0.33689414714E+03  0.00000000000E+00 0. -1.
         21   -1    0    0  502  503 -0.00000000000E+00 -0.00000000000E+00 -0.76430818111E+03  0.76430818111E+03  0.00000000000E+00 0. -1.
    9000007    2    1    2  501    0  0.44786440884E+02 -0.12343358404E+03  0.95709303335E+02  0.42971167233E+03  0.39780670637E+03 0.  0.
    9000005    1    3    3    0    0  0.20920282337E+03 -0.10135208654E+03  0.12072769041E+03  0.26194320373E+03  0.99999687468E+00 0.  0.
          4    1    3    3  501    0 -0.16441638249E+03 -0.22081497494E+02 -0.25018387079E+02  0.16776846860E+03  0.00000000000E+00 0.  1.
   -9000007    1    1    2    0  503 -0.44786440884E+02  0.12343358404E+03 -0.52312333730E+03  0.67149065592E+03  0.40000000000E+03 0. -1.
<mgrwt>
<rscale>  2 0.42047900E+03</rscale>
<asrwt>0</asrwt>
<pdfrwt beam="1">  1       21 0.51829869E-01 0.42100080E+03</pdfrwt>
<pdfrwt beam="2">  1       21 0.11758587E+00 0.42100080E+03</pdfrwt>
<totfact> 0.17035704E+03</totfact>
</mgrwt>
</event>
<event>
 6    1  0.9163926E-004  0.4299339E+03  0.7818608E-02  0.1033897E+00
         21   -1    0    0  501  502  0.00000000000E+00  0.00000000000E+00  0.13399920558E+04  0.13399920558E+04  0.00000000000E+00 0.  1.
         21   -1    0    0  502  503 -0.00000000000E+00 -0.00000000000E+00 -0.16148404723E+03  0.16148404723E+03  0.00000000000E+00 0.  1.
    9000007    2    1    2  501    0  0.15663310344E+03  0.17585981027E+02  0.30209283434E+03  0.52528618634E+03  0.39977781476E+03 0.  0.
    9000005    1    3    3    0    0  0.59127060857E+02  0.33191112738E+02  0.38831620738E+03  0.39419301896E+03  0.99999687468E+00 0.  0.
          4    1    3    3  501    0  0.97506042587E+02 -0.15605131711E+02 -0.86223373034E+02  0.13109316738E+03  0.00000000000E+00 0.  1.
   -9000007    1    1    2    0  503 -0.15663310344E+03 -0.17585981027E+02  0.87641517426E+03  0.97618991672E+03  0.40000000000E+03 0.  1.
<mgrwt>
<rscale>  2 0.42988226E+03</rscale>
<asrwt>0</asrwt>
<pdfrwt beam="1">  1       21 0.20615262E+00 0.42993394E+03</pdfrwt>
<pdfrwt beam="2">  1       21 0.24843700E-01 0.42993394E+03</pdfrwt>
<totfact> 0.15947007E+03</totfact>
</mgrwt>
</event>
<event>
 6    1  0.9163926E-004  0.5274388E+03  0.7818608E-02  0.1006894E+00
         21   -1    0    0  501  502  0.00000000000E+00  0.00000000000E+00  0.41475204466E+03  0.41475204466E+03  0.00000000000E+00 0.  1.
         21   -1    0    0  502  503 -0.00000000000E+00 -0.00000000000E+00 -0.69484675725E+03  0.69484675725E+03  0.00000000000E+00 0. -1.
    9000007    2    1    2  501    0 -0.13977195344E+03  0.31303580302E+03 -0.35092031679E+02  0.52860488921E+03  0.40082922207E+03 0.  0.
    9000005    1    3    3    0    0  0.12531467663E+03  0.45645013729E+02 -0.69715971743E+02  0.15049435925E+03  0.99999687468E+00 0.  0.
          4    1    3    3  501    0 -0.26508663007E+03  0.26739078929E+03  0.34623940064E+02  0.37811052996E+03  0.00000000000E+00 0.  1.
   -9000007    1    1    2    0  503  0.13977195344E+03 -0.31303580302E+03 -0.24500268091E+03  0.58099391270E+03  0.40000000000E+03 0. -1.
<mgrwt>
<rscale>  2 0.52728125E+03</rscale>
<asrwt>0</asrwt>
<pdfrwt beam="1">  1       21 0.63808007E-01 0.52743879E+03</pdfrwt>
<pdfrwt beam="2">  1       21 0.10689950E+00 0.52743879E+03</pdfrwt>
<totfact> 0.13198301E+03</totfact>
</mgrwt>
</event>
<event>
 6    1  0.9163926E-004  0.6678649E+03  0.7818608E-02  0.9774999E-01
         21   -1    0    0  501  502  0.00000000000E+00  0.00000000000E+00  0.36575260827E+03  0.36575260827E+03  0.00000000000E+00 0. -1.
         21   -1    0    0  502  503 -0.00000000000E+00 -0.00000000000E+00 -0.16186767536E+04  0.16186767536E+04  0.00000000000E+00 0.  1.
    9000007    2    1    2  501    0 -0.49895201759E+03 -0.19258857161E+03 -0.12992734749E+03  0.67784401000E+03  0.39566136088E+03 0.  0.
    9000005    1    3    3    0    0 -0.32235531081E+02  0.75380404516E+02  0.65856246667E+02  0.10516358718E+03  0.99999687468E+00 0.  0.
          4    1    3    3  501    0 -0.46671648651E+03 -0.26796897613E+03 -0.19578359416E+03  0.57268042282E+03  0.00000000000E+00 0.  1.
   -9000007    1    1    2    0  503  0.49895201759E+03  0.19258857161E+03 -0.11229967978E+04  0.13065853519E+04  0.40000000000E+03 0.  1.
<mgrwt>
<rscale>  2 0.66721656E+03</rscale>
<asrwt>0</asrwt>
<pdfrwt beam="1">  1       21 0.56269633E-01 0.66786486E+03</pdfrwt>
<pdfrwt beam="2">  1       21 0.24902719E+00 0.66786486E+03</pdfrwt>
<totfact> 0.14337641E+02</totfact>
</mgrwt>
</event>
<event>
 6    1  0.9163926E-004  0.4493203E+03  0.7818608E-02  0.1027953E+00
         21   -1    0    0  501  502  0.00000000000E+00  0.00000000000E+00  0.20303964711E+03  0.20303964711E+03  0.00000000000E+00 0. -1.
         21   -1    0    0  502  503 -0.00000000000E+00 -0.00000000000E+00 -0.10045624864E+04  0.10045624864E+04  0.00000000000E+00 0. -1.
    9000007    2    1    2  501    0  0.80786772015E+02  0.18714591898E+03 -0.33755791542E+03  0.56199114530E+03  0.40042303082E+03 0.  0.
    9000005    1    3    3    0    0  0.11358044821E+03  0.19436056303E+03 -0.41803193347E+03  0.47479284332E+03  0.99999687468E+00 0.  0.
          4    1    3    3  501    0 -0.32793676195E+02 -0.72146440445E+01  0.80474018049E+02  0.87198301978E+02  0.00000000000E+00 0.  1.
   -9000007    1    1    2    0  503 -0.80786772015E+02 -0.18714591898E+03 -0.46396492390E+03  0.64561098824E+03  0.40000000000E+03 0. -1.
<mgrwt>
<rscale>  2 0.44922600E+03</rscale>
<asrwt>0</asrwt>
<pdfrwt beam="1">  1       21 0.31236869E-01 0.44932027E+03</pdfrwt>
<pdfrwt beam="2">  1       21 0.15454807E+00 0.44932027E+03</pdfrwt>
<totfact> 0.23340126E+03</totfact>
</mgrwt>
</event>
<event>
 6    1  0.9163926E-004  0.5565359E+03  0.7818608E-02  0.1000117E+00
         21   -1    0    0  501  502  0.00000000000E+00  0.00000000000E+00  0.11958993976E+04  0.11958993976E+04  0.00000000000E+00 0. -1.
         21   -1    0    0  502  503 -0.00000000000E+00 -0.00000000000E+00 -0.55480022998E+03  0.55480022998E+03  0.00000000000E+00 0. -1.
    9000007    2    1    2  501    0 -0.35049983701E+03 -0.15638443201E+03  0.96110756632E+03  0.11106124448E+04  0.40302111881E+03 0.  0.
    9000005    1    3    3    0    0 -0.24793618906E+03 -0.25210845950E+03  0.88041227609E+03  0.94876646498E+03  0.99999687468E+00 0.  0.
          4    1    3    3  501    0 -0.10256364794E+03  0.95724027494E+02  0.80695290233E+02  0.16184597982E+03  0.00000000000E+00 0.  1.
   -9000007    1    1    2    0  503  0.35049983701E+03  0.15638443201E+03 -0.32000839870E+03  0.64008718278E+03  0.40000000000E+03 0. -1.
<mgrwt>
<rscale>  2 0.55598917E+03</rscale>
<asrwt>0</asrwt>
<pdfrwt beam="1">  1       21 0.18398452E+00 0.55653594E+03</pdfrwt>
<pdfrwt beam="2">  1       21 0.85353882E-01 0.55653594E+03</pdfrwt>
<totfact> 0.15580838E+02</totfact>
</mgrwt>
</event>
<event>
 6    1  0.9163926E-004  0.4828618E+03  0.7818608E-02  0.1018363E+00
         21   -1    0    0  501  502  0.00000000000E+00  0.00000000000E+00  0.26249134944E+04  0.26249134944E+04  0.00000000000E+00 0.  1.
         21   -1    0    0  502  503 -0.00000000000E+00 -0.00000000000E+00 -0.10225504802E+03  0.10225504802E+03  0.00000000000E+00 0.  1.
    9000007    2    1    2  501    0  0.18574648212E+03 -0.19620022734E+03  0.76676921050E+03  0.90614045545E+03  0.40019897301E+03 0.  0.
    9000005    1    3    3    0    0 -0.69137149460E+02  0.76247937612E+02  0.23492932940E+03  0.25648875849E+03  0.99999687468E+00 0.  0.
          4    1    3    3  501    0  0.25488363158E+03 -0.27244816495E+03  0.53183988110E+03  0.64965169696E+03  0.00000000000E+00 0.  1.
   -9000007    1    1    2    0  503 -0.18574648212E+03  0.19620022734E+03  0.17558892358E+04  0.18210280869E+04  0.40000000000E+03 0.  1.
<mgrwt>
<rscale>  2 0.48282055E+03</rscale>
<asrwt>0</asrwt>
<pdfrwt beam="1">  1       21 0.40383279E+00 0.48286178E+03</pdfrwt>
<pdfrwt beam="2">  1       21 0.15731548E-01 0.48286178E+03</pdfrwt>
<totfact> 0.22184344E+02</totfact>
</mgrwt>
</event>
<event>
 6    1  0.9163926E-004  0.4338380E+03  0.7818608E-02  0.1033060E+00
         21   -1    0    0  501  502  0.00000000000E+00  0.00000000000E+00  0.66258648056E+03  0.66258648056E+03  0.00000000000E+00 0.  1.
         21   -1    0    0  502  503 -0.00000000000E+00 -0.00000000000E+00 -0.39537881402E+03  0.39537881402E+03  0.00000000000E+00 0.  1.
    9000007    2    1    2  501    0 -0.14326322221E+03  0.56939068127E+02  0.41906397271E+03  0.60318320825E+03  0.40552307108E+03 0.  0.
    9000005    1    3    3    0    0 -0.96928834983E+02 -0.17049557510E+03  0.14421488927E+03  0.24343967315E+03  0.99999687468E+00 0.  0.
          4    1    3    3  501    0 -0.46334387226E+02  0.22743464323E+03  0.27484908344E+03  0.35974353510E+03  0.00000000000E+00 0.  1.
   -9000007    1    1    2    0  503  0.14326322221E+03 -0.56939068127E+02 -0.15185630617E+03  0.45478208632E+03  0.40000000000E+03 0.  1.
<mgrwt>
<rscale>  2 0.43254264E+03</rscale>
<asrwt>0</asrwt>
<pdfrwt beam="1">  1       21 0.10193638E+00 0.43383795E+03</pdfrwt>
<pdfrwt beam="2">  1       21 0.60827510E-01 0.43383795E+03</pdfrwt>
<totfact> 0.17067787E+03</totfact>
</mgrwt>
</event>
<event>
 6    1  0.9163926E-004  0.4925352E+03  0.7818608E-02  0.1015833E+00
         21   -1    0    0  501  502  0.00000000000E+00  0.00000000000E+00  0.67022092368E+03  0.67022092368E+03  0.00000000000E+00 0. -1.
         21   -1    0    0  502  503 -0.00000000000E+00 -0.00000000000E+00 -0.43101547288E+03  0.43101547288E+03  0.00000000000E+00 0.  1.
    9000007    2    1    2  501    0 -0.57280040681E+01  0.28732929174E+03  0.34140105515E+03  0.59821067805E+03  0.39838474238E+03 0.  0.
    9000005    1    3    3    0    0  0.14388535500E+03  0.20191922171E+03  0.34624687663E+03  0.42586648970E+03  0.99999687468E+00 0.  0.
          4    1    3    3  501    0 -0.14961335906E+03  0.85410070032E+02 -0.48458214890E+01  0.17234418835E+03  0.00000000000E+00 0.  1.
   -9000007    1    1    2    0  503  0.57280040681E+01 -0.28732929174E+03 -0.10219560435E+03  0.50302571850E+03  0.40000000000E+03 0.  1.
<mgrwt>
<rscale>  2 0.49220716E+03</rscale>
<asrwt>0</asrwt>
<pdfrwt beam="1">  1       21 0.10311091E+00 0.49253521E+03</pdfrwt>
<pdfrwt beam="2">  1       21 0.66310073E-01 0.49253521E+03</pdfrwt>
<totfact> 0.13403683E+03</totfact>
</mgrwt>
</event>
<event>
 6    1  0.9163926E-004  0.4035114E+03  0.7818608E-02  0.1042869E+00
         21   -1    0    0  501  502  0.00000000000E+00  0.00000000000E+00  0.15621989284E+03  0.15621989284E+03  0.00000000000E+00 0.  1.
         21   -1    0    0  502  503 -0.00000000000E+00 -0.00000000000E+00 -0.18053839269E+04  0.18053839269E+04  0.00000000000E+00 0.  1.
    9000007    2    1    2  501    0  0.51747597085E+02  0.11986154254E+02 -0.18114756485E+03  0.43914073789E+03  0.39649548008E+03 0.  0.
    9000005    1    3    3    0    0 -0.15519162997E+03  0.55561460241E+02 -0.15461567868E+03  0.22600558835E+03  0.99999687468E+00 0.  0.
          4    1    3    3  501    0  0.20693922706E+03 -0.43575305987E+02 -0.26531886171E+02  0.21313514954E+03  0.00000000000E+00 0.  1.
   -9000007    1    1    2    0  503 -0.51747597085E+02 -0.11986154254E+02 -0.14680164692E+04  0.15224630818E+04  0.40000000000E+03 0.  1.
<mgrwt>
<rscale>  2 0.40264018E+03</rscale>
<asrwt>0</asrwt>
<pdfrwt beam="1">  1       21 0.24033831E-01 0.40351144E+03</pdfrwt>
<pdfrwt beam="2">  1       21 0.27775135E+00 0.40351144E+03</pdfrwt>
<totfact> 0.61966918E+02</totfact>
</mgrwt>
</event>
<event>
 6    1  0.9163926E-004  0.5988813E+03  0.7818608E-02  0.9908082E-01
         21   -1    0    0  501  502  0.00000000000E+00  0.00000000000E+00  0.13217815618E+04  0.13217815618E+04  0.00000000000E+00 0.  1.
         21   -1    0    0  502  503 -0.00000000000E+00 -0.00000000000E+00 -0.27527734334E+03  0.27527734334E+03  0.00000000000E+00 0.  1.
    9000007    2    1    2  501    0  0.38714352613E+03 -0.22085912344E+03  0.42386243959E+03  0.73314823439E+03  0.39898383886E+03 0.  0.
    9000005    1    3    3    0    0  0.22115246389E+03  0.35812024788E+02  0.35505929054E+03  0.41983212502E+03  0.99999687468E+00 0.  0.
          4    1    3    3  501    0  0.16599106224E+03 -0.25667114822E+03  0.68803149047E+02  0.31331610937E+03  0.00000000000E+00 0.  1.
   -9000007    1    1    2    0  503 -0.38714352613E+03  0.22085912344E+03  0.62264177884E+03  0.86391067072E+03  0.40000000000E+03 0.  1.
<mgrwt>
<rscale>  2 0.59871171E+03</rscale>
<asrwt>0</asrwt>
<pdfrwt beam="1">  1       21 0.20335101E+00 0.59888134E+03</pdfrwt>
<pdfrwt beam="2">  1       21 0.42350361E-01 0.59888134E+03</pdfrwt>
<totfact> 0.53118019E+02</totfact>
</mgrwt>
</event>
<event>
 6    1  0.9163926E-004  0.5126823E+03  0.7818608E-02  0.1010605E+00
         21   -1    0    0  501  502  0.00000000000E+00  0.00000000000E+00  0.43384378132E+03  0.43384378132E+03  0.00000000000E+00 0. -1.
         21   -1    0    0  502  503 -0.00000000000E+00 -0.00000000000E+00 -0.10874778781E+04  0.10874778781E+04  0.00000000000E+00 0.  1.
    9000007    2    1    2  501    0 -0.31697125368E+03  0.31746195298E+02  0.17999096367E+03  0.54335983093E+03  0.40170208151E+03 0.  0.
    9000005    1    3    3    0    0 -0.34487963417E+03 -0.11478628186E+03  0.13046615038E+03  0.38618683167E+03  0.99999687468E+00 0.  0.
          4    1    3    3  501    0  0.27908380484E+02  0.14653247716E+03  0.49524813296E+02  0.15717299926E+03  0.00000000000E+00 0.  1.
   -9000007    1    1    2    0  503  0.31697125368E+03 -0.31746195298E+02 -0.83362506043E+03  0.97796182848E+03  0.40000000000E+03 0.  1.
<mgrwt>
<rscale>  2 0.51234886E+03</rscale>
<asrwt>0</asrwt>
<pdfrwt beam="1">  1       21 0.66745198E-01 0.51268232E+03</pdfrwt>
<pdfrwt beam="2">  1       21 0.16730429E+00 0.51268232E+03</pdfrwt>
<totfact> 0.36789514E+02</totfact>
</mgrwt>
</event>
<event>
 6    1  0.9163926E-004  0.4517746E+03  0.7818608E-02  0.1027364E+00
         21   -1    0    0  501  502  0.00000000000E+00  0.00000000000E+00  0.23355879815E+03  0.23355879815E+03  0.00000000000E+00 0. -1.
         21   -1    0    0  502  503 -0.00000000000E+00 -0.00000000000E+00 -0.95318369517E+03  0.95318369517E+03  0.00000000000E+00 0. -1.
    9000007    2    1    2  501    0  0.89577191704E+02  0.18993734506E+03 -0.18312860888E+03  0.48536632071E+03  0.39742182825E+03 0.  0.
    9000005    1    3    3    0    0 -0.12337614444E+03  0.40274577408E+02  0.46901889507E+02  0.13800181823E+03  0.99999687468E+00 0.  0.
          4    1    3    3  501    0  0.21295333614E+03  0.14966276765E+03 -0.23003049839E+03  0.34736450248E+03  0.00000000000E+00 0.  1.
   -9000007    1    1    2    0  503 -0.89577191704E+02 -0.18993734506E+03 -0.53649628814E+03  0.70137617261E+03  0.40000000000E+03 0. -1.
<mgrwt>
<rscale>  2 0.45120322E+03</rscale>
<asrwt>0</asrwt>
<pdfrwt beam="1">  1       21 0.35932122E-01 0.45177458E+03</pdfrwt>
<pdfrwt beam="2">  1       21 0.14664365E+00 0.45177458E+03</pdfrwt>
<totfact> 0.20287642E+03</totfact>
</mgrwt>
</event>
<event>
 6    1  0.9163926E-004  0.4990560E+03  0.7818608E-02  0.1014026E+00
         21   -1    0    0  501  502  0.00000000000E+00  0.00000000000E+00  0.10871838262E+04  0.10871838262E+04  0.00000000000E+00 0.  1.
         21   -1    0    0  502  503 -0.00000000000E+00 -0.00000000000E+00 -0.28607205189E+03  0.28607205189E+03  0.00000000000E+00 0. -1.
    9000007    2    1    2  501    0 -0.28963709126E+03 -0.71839702653E+02  0.70702586339E+03  0.86541461731E+03  0.40000787597E+03 0.  0.
    9000005    1    3    3    0    0 -0.28409211330E+03  0.10161475593E+02  0.19006439909E+03  0.34196061209E+03  0.99999687468E+00 0.  0.
          4    1    3    3  501    0 -0.55449779602E+01 -0.82001178246E+02  0.51696146429E+03  0.52345400522E+03  0.00000000000E+00 0.  1.
   -9000007    1    1    2    0  503  0.28963709126E+03  0.71839702653E+02  0.94085910911E+02  0.50784126077E+03  0.40000000000E+03 0. -1.
<mgrwt>
<rscale>  2 0.49905442E+03</rscale>
<asrwt>0</asrwt>
<pdfrwt beam="1">  1       21 0.16725905E+00 0.49905600E+03</pdfrwt>
<pdfrwt beam="2">  1       21 0.44011085E-01 0.49905600E+03</pdfrwt>
<totfact> 0.91089072E+02</totfact>
</mgrwt>
</event>
<event>
 6    1  0.9163926E-004  0.5310177E+03  0.7818608E-02  0.1005994E+00
         21   -1    0    0  501  502  0.00000000000E+00  0.00000000000E+00  0.28651481367E+03  0.28651481367E+03  0.00000000000E+00 0.  1.
         21   -1    0    0  502  503 -0.00000000000E+00 -0.00000000000E+00 -0.10257605569E+04  0.10257605569E+04  0.00000000000E+00 0.  1.
    9000007    2    1    2  501    0 -0.40821904973E+02 -0.34665405964E+03 -0.23715143777E+03  0.58156738747E+03  0.40018040525E+03 0.  0.
    9000005    1    3    3    0    0 -0.90986816278E+02  0.56181739889E+02  0.81707149581E+01  0.10725087044E+03  0.99999687468E+00 0.  0.
          4    1    3    3  501    0  0.50164911305E+02 -0.40283579953E+03 -0.24532215273E+03  0.47431651703E+03  0.00000000000E+00 0.  1.
   -9000007    1    1    2    0  503  0.40821904973E+02  0.34665405964E+03 -0.50209430550E+03  0.73070798313E+03  0.40000000000E+03 0.  1.
<mgrwt>
<rscale>  2 0.53098373E+03</rscale>
<asrwt>0</asrwt>
<pdfrwt beam="1">  1       21 0.44079202E-01 0.53101772E+03</pdfrwt>
<pdfrwt beam="2">  1       21 0.15780932E+00 0.53101772E+03</pdfrwt>
<totfact> 0.10567504E+03</totfact>
</mgrwt>
</event>
<event>
 6    1  0.9163926E-004  0.8451453E+03  0.7818608E-02  0.9496903E-01
         21   -1    0    0  501  502  0.00000000000E+00  0.00000000000E+00  0.50364086787E+03  0.50364086787E+03  0.00000000000E+00 0. -1.
         21   -1    0    0  502  503 -0.00000000000E+00 -0.00000000000E+00 -0.16574637105E+04  0.16574637105E+04  0.00000000000E+00 0.  1.
    9000007    2    1    2  501    0  0.69635460330E+03  0.26336447997E+03 -0.16623740318E+03  0.86126013266E+03  0.39982941243E+03 0.  0.
    9000005    1    3    3    0    0  0.50936554879E+03  0.76627579557E+02  0.53102505874E+02  0.51782808379E+03  0.99999687468E+00 0.  0.
          4    1    3    3  501    0  0.18698905451E+03  0.18673690041E+03 -0.21933990906E+03  0.34343204887E+03  0.00000000000E+00 0.  1.
   -9000007    1    1    2    0  503 -0.69635460330E+03 -0.26336447997E+03 -0.98758543945E+03  0.12998444457E+04  0.40000000000E+03 0.  1.
<mgrwt>
<rscale>  2 0.84512512E+03</rscale>
<asrwt>0</asrwt>
<pdfrwt beam="1">  1       21 0.77483210E-01 0.84514530E+03</pdfrwt>
<pdfrwt beam="2">  1       21 0.25499442E+00 0.84514530E+03</pdfrwt>
<totfact> 0.60132520E+01</totfact>
</mgrwt>
</event>
<event>
 6    1  0.9163926E-004  0.4398353E+03  0.7818608E-02  0.1030959E+00
         21   -1    0    0  501  502  0.00000000000E+00  0.00000000000E+00  0.62919412517E+03  0.62919412517E+03  0.00000000000E+00 0.  1.
         21   -1    0    0  502  503 -0.00000000000E+00 -0.00000000000E+00 -0.33551385040E+03  0.33551385040E+03  0.00000000000E+00 0.  1.
    9000007    2    1    2  501    0  0.99267109490E+02  0.15362672160E+03  0.28957951690E+03  0.52485351688E+03  0.39769308386E+03 0.  0.
    9000005    1    3    3    0    0 -0.51894428338E+02 -0.50635943386E+02  0.25893923032E+03  0.26890064233E+03  0.99999687468E+00 0.  0.
          4    1    3    3  501    0  0.15116153783E+03  0.20426266499E+03  0.30640286586E+02  0.25595287455E+03  0.00000000000E+00 0.  1.
   -9000007    1    1    2    0  503 -0.99267109490E+02 -0.15362672160E+03  0.41007578654E+01  0.43985445869E+03  0.40000000000E+03 0. -1.
<mgrwt>
<rscale>  2 0.43931017E+03</rscale>
<asrwt>0</asrwt>
<pdfrwt beam="1">  1       21 0.96799096E-01 0.43983534E+03</pdfrwt>
<pdfrwt beam="2">  1       21 0.51617516E-01 0.43983534E+03</pdfrwt>
<totfact> 0.27540209E+03</totfact>
</mgrwt>
</event>
<event>
 6    1  0.9163926E-004  0.4386332E+03  0.7818608E-02  0.1031193E+00
         21   -1    0    0  501  502  0.00000000000E+00  0.00000000000E+00  0.91257389959E+02  0.91257389959E+02  0.00000000000E+00 0. -1.
         21   -1    0    0  502  503 -0.00000000000E+00 -0.00000000000E+00 -0.24325231011E+04  0.24325231011E+04  0.00000000000E+00 0. -1.
    9000007    2    1    2  501    0  0.68503693553E+02 -0.16556491081E+03 -0.70918791291E+03  0.83387444776E+03  0.40036808449E+03 0.  0.
    9000005    1    3    3    0    0  0.21464337034E+03 -0.19346749249E+03 -0.44260001460E+03  0.52858038178E+03  0.99999687468E+00 0.  0.
          4    1    3    3  501    0 -0.14613967679E+03  0.27902581678E+02 -0.26658789831E+03  0.30529406598E+03  0.00000000000E+00 0.  1.
   -9000007    1    1    2    0  503 -0.68503693553E+02  0.16556491081E+03 -0.16320777982E+04  0.16899060433E+04  0.40000000000E+03 0. -1.
<mgrwt>
<rscale>  2 0.43854921E+03</rscale>
<asrwt>0</asrwt>
<pdfrwt beam="1">  1       21 0.14039599E-01 0.43863322E+03</pdfrwt>
<pdfrwt beam="2">  1       21 0.37423431E+00 0.43863322E+03</pdfrwt>
<totfact> 0.43444357E+02</totfact>
</mgrwt>
</event>
<event>
 6    1  0.9163926E-004  0.4574671E+03  0.7818608E-02  0.1025559E+00
         21   -1    0    0  501  502  0.00000000000E+00  0.00000000000E+00  0.74024836023E+03  0.74024836023E+03  0.00000000000E+00 0. -1.
         21   -1    0    0  502  503 -0.00000000000E+00 -0.00000000000E+00 -0.23749966876E+04  0.23749966876E+04  0.00000000000E+00 0. -1.
    9000007    2    1    2  501    0 -0.16989137001E+02  0.22133132914E+03  0.64478467538E+03  0.79026184388E+03  0.39936238713E+03 0.  0.
    9000005    1    3    3    0    0  0.39883835681E+01  0.32026441580E+03  0.33105212827E+03  0.46063186479E+03  0.99999687468E+00 0.  0.
          4    1    3    3  501    0 -0.20977520569E+02 -0.98933086656E+02  0.31373254711E+03  0.32962997910E+03  0.00000000000E+00 0.  1.
   -9000007    1    1    2    0  503  0.16989137001E+02 -0.22133132914E+03 -0.22795330028E+04  0.23249832040E+04  0.40000000000E+03 0. -1.
<mgrwt>
<rscale>  2 0.45732773E+03</rscale>
<asrwt>0</asrwt>
<pdfrwt beam="1">  1       21 0.11388436E+00 0.45746714E+03</pdfrwt>
<pdfrwt beam="2">  1       21 0.36538410E+00 0.45746714E+03</pdfrwt>
<totfact> 0.60443284E+00</totfact>
</mgrwt>
</event>
<event>
 6    1  0.9163926E-004  0.4118421E+03  0.7818608E-02  0.1039781E+00
         21   -1    0    0  501  502  0.00000000000E+00  0.00000000000E+00  0.13118995806E+04  0.13118995806E+04  0.00000000000E+00 0.  1.
         21   -1    0    0  502  503 -0.00000000000E+00 -0.00000000000E+00 -0.31598804900E+03  0.31598804900E+03  0.00000000000E+00 0.  1.
    9000007    2    1    2  501    0 -0.29001234443E+02 -0.93663274426E+02  0.11236932114E+04  0.11966776595E+04  0.39967124831E+03 0.  0.
    9000005    1    3    3    0    0 -0.12213525271E+03 -0.45196796255E+02  0.91511639912E+02  0.15917019376E+03  0.99999687468E+00 0.  0.
          4    1    3    3  501    0  0.93134018271E+02 -0.48466478170E+02  0.10321815715E+04  0.10375074657E+04  0.00000000000E+00 0.  1.
   -9000007    1    1    2    0  503  0.29001234443E+02  0.93663274426E+02 -0.12778167987E+03  0.43120997007E+03  0.40000000000E+03 0.  1.
<mgrwt>
<rscale>  2 0.41176221E+03</rscale>
<asrwt>0</asrwt>
<pdfrwt beam="1">  1       21 0.20183070E+00 0.41184206E+03</pdfrwt>
<pdfrwt beam="2">  1       21 0.48613547E-01 0.41184206E+03</pdfrwt>
<totfact> 0.44197443E+02</totfact>
</mgrwt>
</event>
<event>
 6    1  0.9163926E-004  0.4153806E+03  0.7818608E-02  0.1038690E+00
         21   -1    0    0  501  502  0.00000000000E+00  0.00000000000E+00  0.11118565365E+04  0.11118565365E+04  0.00000000000E+00 0.  1.
         21   -1    0    0  502  503 -0.00000000000E+00 -0.00000000000E+00 -0.23566404735E+03  0.23566404735E+03  0.00000000000E+00 0.  1.
    9000007    2    1    2  501    0  0.10657015528E+03 -0.93576837050E+01  0.83349600316E+03  0.93126614947E+03  0.40136802267E+03 0.  0.
    9000005    1    3    3    0    0  0.18320823867E+03 -0.41531355459E+01  0.13266413492E+03  0.22623722050E+03  0.99999687468E+00 0.  0.
          4    1    3    3  501    0 -0.76638083385E+02 -0.52045481591E+01  0.70083186824E+03  0.70502892897E+03  0.00000000000E+00 0.  1.
   -9000007    1    1    2    0  503 -0.10657015528E+03  0.93576837050E+01  0.42696486011E+02  0.41625443440E+03  0.40000000000E+03 0.  1.
<mgrwt>
<rscale>  2 0.41504979E+03</rscale>
<asrwt>0</asrwt>
<pdfrwt beam="1">  1       21 0.17105485E+00 0.41538061E+03</pdfrwt>
<pdfrwt beam="2">  1       21 0.36256008E-01 0.41538061E+03</pdfrwt>
<totfact> 0.13207707E+03</totfact>
</mgrwt>
</event>
<event>
 6    1  0.9163926E-004  0.4163940E+03  0.7818608E-02  0.1038674E+00
         21   -1    0    0  501  502  0.00000000000E+00  0.00000000000E+00  0.84042438629E+03  0.84042438629E+03  0.00000000000E+00 0. -1.
         21   -1    0    0  502  503 -0.00000000000E+00 -0.00000000000E+00 -0.54270613278E+03  0.54270613278E+03  0.00000000000E+00 0. -1.
    9000007    2    1    2  501    0  0.10955471052E+03 -0.37172040982E+02  0.69504514410E+03  0.80758499245E+03  0.39461598101E+03 0.  0.
    9000005    1    3    3    0    0 -0.11823896935E+03 -0.15318268090E+02  0.47636302532E+03  0.49105787347E+03  0.99999687468E+00 0.  0.
          4    1    3    3  501    0  0.22779367987E+03 -0.21853772892E+02  0.21868211877E+03  0.31652711898E+03  0.00000000000E+00 0.  1.
   -9000007    1    1    2    0  503 -0.10955471052E+03  0.37172040982E+02 -0.39732689058E+03  0.57554552662E+03  0.40000000000E+03 0. -1.
<mgrwt>
<rscale>  2 0.41509565E+03</rscale>
<asrwt>0</asrwt>
<pdfrwt beam="1">  1       21 0.12929606E+00 0.41639404E+03</pdfrwt>
<pdfrwt beam="2">  1       21 0.83493252E-01 0.41639404E+03</pdfrwt>
<totfact> 0.46345250E+02</totfact>
</mgrwt>
</event>
<event>
 6    1  0.9163926E-004  0.4858226E+03  0.7818608E-02  0.1018365E+00
         21   -1    0    0  501  502  0.00000000000E+00  0.00000000000E+00  0.43382319317E+03  0.43382319317E+03  0.00000000000E+00 0.  1.
         21   -1    0    0  502  503 -0.00000000000E+00 -0.00000000000E+00 -0.69026623002E+03  0.69026623002E+03  0.00000000000E+00 0.  1.
    9000007    2    1    2  501    0 -0.13493960218E+03 -0.21534606598E+03  0.14069397573E+03  0.50578494227E+03  0.41405433055E+03 0.  0.
    9000005    1    3    3    0    0 -0.15628245009E+03 -0.33121662529E+03  0.87674857493E+02  0.37658536576E+03  0.99999687468E+00 0.  0.
          4    1    3    3  501    0  0.21342847908E+02  0.11587055931E+03  0.53019118238E+02  0.12919957651E+03  0.00000000000E+00 0.  1.
   -9000007    1    1    2    0  503  0.13493960218E+03  0.21534606598E+03 -0.39713701257E+03  0.61830448092E+03  0.40000000000E+03 0.  1.
<mgrwt>
<rscale>  2 0.48281451E+03</rscale>
<asrwt>0</asrwt>
<pdfrwt beam="1">  1       21 0.66742030E-01 0.48582261E+03</pdfrwt>
<pdfrwt beam="2">  1       21 0.10619480E+00 0.48582261E+03</pdfrwt>
<totfact> 0.12315508E+03</totfact>
</mgrwt>
</event>
<event>
 6    1  0.9163926E-004  0.4037956E+03  0.7818608E-02  0.1042506E+00
         21   -1    0    0  501  502  0.00000000000E+00  0.00000000000E+00  0.20193059277E+03  0.20193059277E+03  0.00000000000E+00 0. -1.
         21   -1    0    0  502  503 -0.00000000000E+00 -0.00000000000E+00 -0.27323488683E+04  0.27323488683E+04  0.00000000000E+00 0. -1.
    9000007    2    1    2  501    0 -0.51506680680E+02  0.95728042293E+01 -0.33722095371E+02  0.40520129052E+03  0.40038272864E+03 0.  0.
    9000005    1    3    3    0    0  0.16773616325E+03 -0.21784811736E+02  0.36148361127E+02  0.17296734515E+03  0.99999687468E+00 0.  0.
          4    1    3    3  501    0 -0.21924284393E+03  0.31357615965E+02 -0.69870456498E+02  0.23223394537E+03  0.00000000000E+00 0.  1.
   -9000007    1    1    2    0  503  0.51506680680E+02 -0.95728042293E+01 -0.24966961802E+04  0.25290781706E+04  0.40000000000E+03 0. -1.
<mgrwt>
<rscale>  2 0.40370072E+03</rscale>
<asrwt>0</asrwt>
<pdfrwt beam="1">  1       21 0.31066246E-01 0.40379562E+03</pdfrwt>
<pdfrwt beam="2">  1       21 0.42036135E+00 0.40379562E+03</pdfrwt>
<totfact> 0.49555289E+01</totfact>
</mgrwt>
</event>
<event>
 6    1  0.9163926E-004  0.4137470E+03  0.7818608E-02  0.1039128E+00
         21   -1    0    0  501  502  0.00000000000E+00  0.00000000000E+00  0.63928311372E+03  0.63928311372E+03  0.00000000000E+00 0.  1.
         21   -1    0    0  502  503 -0.00000000000E+00 -0.00000000000E+00 -0.41001248521E+03  0.41001248521E+03  0.00000000000E+00 0.  1.
    9000007    2    1    2  501    0 -0.49854091886E+02 -0.93279748220E+02  0.42369320951E+03  0.59214498709E+03  0.39991650134E+03 0.  0.
    9000005    1    3    3    0    0  0.11533515040E+03 -0.45362609354E+02  0.39970763074E+03  0.41848196295E+03  0.99999687468E+00 0.  0.
          4    1    3    3  501    0 -0.16518924228E+03 -0.47917138866E+02  0.23985578766E+02  0.17366302414E+03  0.00000000000E+00 0.  1.
   -9000007    1    1    2    0  503  0.49854091886E+02  0.93279748220E+02 -0.19442258100E+03  0.45715061184E+03  0.40000000000E+03 0. -1.
<mgrwt>
<rscale>  2 0.41372677E+03</rscale>
<asrwt>0</asrwt>
<pdfrwt beam="1">  1       21 0.98351248E-01 0.41374695E+03</pdfrwt>
<pdfrwt beam="2">  1       21 0.63078844E-01 0.41374695E+03</pdfrwt>
<totfact> 0.17328189E+03</totfact>
</mgrwt>
</event>
<event>
 6    1  0.9163926E-004  0.4955782E+03  0.7818608E-02  0.1014943E+00
         21   -1    0    0  501  502  0.00000000000E+00  0.00000000000E+00  0.94668646345E+03  0.94668646345E+03  0.00000000000E+00 0.  1.
         21   -1    0    0  502  503 -0.00000000000E+00 -0.00000000000E+00 -0.45517660112E+03  0.45517660112E+03  0.00000000000E+00 0. -1.
    9000007    2    1    2  501    0  0.16818201885E+03  0.23928309757E+03  0.70545493108E+03  0.86212786590E+03  0.40007025023E+03 0.  0.
    9000005    1    3    3    0    0  0.15821239598E+02  0.36228072629E+02 -0.50814230734E+02  0.64388437686E+02  0.99999687468E+00 0.  0.
          4    1    3    3  501    0  0.15236077926E+03  0.20305502494E+03  0.75626916181E+03  0.79773942821E+03  0.00000000000E+00 0.  1.
   -9000007    1    1    2    0  503 -0.16818201885E+03 -0.23928309757E+03 -0.21394506874E+03  0.53973519867E+03  0.40000000000E+03 0. -1.
<mgrwt>
<rscale>  2 0.49556407E+03</rscale>
<asrwt>0</asrwt>
<pdfrwt beam="1">  1       21 0.14564407E+00 0.49557825E+03</pdfrwt>
<pdfrwt beam="2">  1       21 0.70027170E-01 0.49557825E+03</pdfrwt>
<totfact> 0.48831887E+02</totfact>
</mgrwt>
</event>
<event>
 6    1  0.9163926E-004  0.4013902E+03  0.7818608E-02  0.1043378E+00
         21   -1    0    0  501  502  0.00000000000E+00  0.00000000000E+00  0.10345194422E+04  0.10345194422E+04  0.00000000000E+00 0. -1.
         21   -1    0    0  502  503 -0.00000000000E+00 -0.00000000000E+00 -0.15875592681E+03  0.15875592681E+03  0.00000000000E+00 0. -1.
    9000007    2    1    2  501    0 -0.14154638602E+02  0.13658061188E+02  0.52528806562E+03  0.66109124928E+03  0.40090795896E+03 0.  0.
    9000005    1    3    3    0    0 -0.20704141750E+03 -0.83440922836E+01  0.26649354491E+03  0.33757307640E+03  0.99999687468E+00 0.  0.
          4    1    3    3  501    0  0.19288677890E+03  0.22002153472E+02  0.25879452071E+03  0.32351817288E+03  0.00000000000E+00 0.  1.
   -9000007    1    1    2    0  503  0.14154638602E+02 -0.13658061188E+02  0.35047544981E+03  0.53218411979E+03  0.40000000000E+03 0. -1.
<mgrwt>
<rscale>  2 0.40116329E+03</rscale>
<asrwt>0</asrwt>
<pdfrwt beam="1">  1       21 0.15915683E+00 0.40139019E+03</pdfrwt>
<pdfrwt beam="2">  1       21 0.24423989E-01 0.40139019E+03</pdfrwt>
<totfact> 0.35593184E+03</totfact>
</mgrwt>
</event>
<event>
 6    1  0.9163926E-004  0.4806600E+03  0.7818608E-02  0.1018960E+00
         21   -1    0    0  501  502  0.00000000000E+00  0.00000000000E+00  0.10649028490E+03  0.10649028490E+03  0.00000000000E+00 0.  1.
         21   -1    0    0  502  503 -0.00000000000E+00 -0.00000000000E+00 -0.25510756047E+04  0.25510756047E+04  0.00000000000E+00 0.  1.
    9000007    2    1    2  501    0  0.74907317927E+02  0.25577910369E+03 -0.70806354707E+03  0.85574960503E+03  0.39989916686E+03 0.  0.
    9000005    1    3    3    0    0 -0.15146979460E+03  0.83498794116E+02 -0.40341813899E+03  0.43893318644E+03  0.99999687468E+00 0.  0.
          4    1    3    3  501    0  0.22637711253E+03  0.17228030957E+03 -0.30464540807E+03  0.41681641859E+03  0.00000000000E+00 0.  1.
   -9000007    1    1    2    0  503 -0.74907317927E+02 -0.25577910369E+03 -0.17365217727E+04  0.18018162846E+04  0.40000000000E+03 0.  1.
<mgrwt>
<rscale>  2 0.48063904E+03</rscale>
<asrwt>0</asrwt>
<pdfrwt beam="1">  1       21 0.16383122E-01 0.48066002E+03</pdfrwt>
<pdfrwt beam="2">  1       21 0.39247315E+00 0.48066002E+03</pdfrwt>
<totfact> 0.24357428E+02</totfact>
</mgrwt>
</event>
<event>
 6    1  0.9163926E-004  0.5128198E+03  0.7818608E-02  0.1010498E+00
         21   -1    0    0  501  502  0.00000000000E+00  0.00000000000E+00  0.97686471999E+03  0.97686471999E+03  0.00000000000E+00 0.  1.
         21   -1    0    0  502  503 -0.00000000000E+00 -0.00000000000E+00 -0.62905708359E+03  0.62905708359E+03  0.00000000000E+00 0. -1.
    9000007    2    1    2  501    0 -0.30490001529E+03  0.10010034109E+03  0.78127996658E+03  0.93444406111E+03  0.39975394877E+03 0.  0.
    9000005    1    3    3    0    0 -0.11460720989E+03  0.74025092497E+02  0.69145412561E+01  0.13661382709E+03  0.99999687468E+00 0.  0.
          4    1    3    3  501    0 -0.19029280540E+03  0.26075248590E+02  0.77436542532E+03  0.79783023402E+03  0.00000000000E+00 0.  1.
   -9000007    1    1    2    0  503  0.30490001529E+03 -0.10010034109E+03 -0.43347233018E+03  0.67147774247E+03  0.40000000000E+03 0. -1.
<mgrwt>
<rscale>  2 0.51277177E+03</rscale>
<asrwt>0</asrwt>
<pdfrwt beam="1">  1       21 0.15028688E+00 0.51281975E+03</pdfrwt>
<pdfrwt beam="2">  1       21 0.96778013E-01 0.51281975E+03</pdfrwt>
<totfact> 0.20932276E+02</totfact>
</mgrwt>
</event>
<event>
 6    1  0.9163926E-004  0.4067530E+03  0.7818608E-02  0.1041472E+00
         21   -1    0    0  501  502  0.00000000000E+00  0.00000000000E+00  0.20130811669E+03  0.20130811669E+03  0.00000000000E+00 0.  1.
         21   -1    0    0  502  503 -0.00000000000E+00 -0.00000000000E+00 -0.17566657793E+04  0.17566657793E+04  0.00000000000E+00 0.  1.
    9000007    2    1    2  501    0 -0.68665066131E+02  0.27075380046E+02 -0.63445364033E+02  0.41160709793E+03  0.39993389621E+03 0.  0.
    9000005    1    3    3    0    0 -0.11370160233E+03 -0.23874760367E+02 -0.21561949599E+03  0.24493024640E+03  0.99999687468E+00 0.  0.
          4    1    3    3  501    0  0.45036536201E+02  0.50950140413E+02  0.15217413196E+03  0.16667685154E+03  0.00000000000E+00 0.  1.
   -9000007    1    1    2    0  503  0.68665066131E+02 -0.27075380046E+02 -0.14919122986E+04  0.15463667981E+04  0.40000000000E+03 0.  1.
<mgrwt>
<rscale>  2 0.40673670E+03</rscale>
<asrwt>0</asrwt>
<pdfrwt beam="1">  1       21 0.30970479E-01 0.40675296E+03</pdfrwt>
<pdfrwt beam="2">  1       21 0.27025628E+00 0.40675296E+03</pdfrwt>
<totfact> 0.41723074E+02</totfact>
</mgrwt>
</event>
<event>
 6    1  0.9163926E-004  0.5664742E+03  0.7818608E-02  0.9977990E-01
         21   -1    0    0  501  502  0.00000000000E+00  0.00000000000E+00  0.48724681841E+03  0.48724681841E+03  0.00000000000E+00 0. -1.
         21   -1    0    0  502  503 -0.00000000000E+00 -0.00000000000E+00 -0.77585375402E+03  0.77585375402E+03  0.00000000000E+00 0.  1.
    9000007    2    1    2  501    0 -0.23408352884E+03  0.32572671316E+03  0.10236382620E+03  0.57480475904E+03  0.39878461349E+03 0.  0.
    9000005    1    3    3    0    0 -0.40602879790E+02  0.11787483074E+02  0.19092104622E+03  0.19554893118E+03  0.99999687468E+00 0.  0.
          4    1    3    3  501    0 -0.19348064905E+03  0.31393923009E+03 -0.88557220016E+02  0.37925582785E+03  0.00000000000E+00 0.  1.
   -9000007    1    1    2    0  503  0.23408352884E+03 -0.32572671316E+03 -0.39097076181E+03  0.68829581339E+03  0.40000000000E+03 0. -1.
<mgrwt>
<rscale>  2 0.56625966E+03</rscale>
<asrwt>0</asrwt>
<pdfrwt beam="1">  1       21 0.74961050E-01 0.56647417E+03</pdfrwt>
<pdfrwt beam="2">  1       21 0.11936211E+00 0.56647417E+03</pdfrwt>
<totfact> 0.68661751E+02</totfact>
</mgrwt>
</event>
<event>
 6    1  0.9163926E-004  0.5245065E+03  0.7818608E-02  0.1007574E+00
         21   -1    0    0  501  502  0.00000000000E+00  0.00000000000E+00  0.16609267808E+04  0.16609267808E+04  0.00000000000E+00 0.  1.
         21   -1    0    0  502  503 -0.00000000000E+00 -0.00000000000E+00 -0.16670417016E+03  0.16670417016E+03  0.00000000000E+00 0. -1.
    9000007    2    1    2  501    0  0.32551615678E+01 -0.33922879837E+03  0.67372256540E+03  0.85382034414E+03  0.40002538822E+03 0.  0.
    9000005    1    3    3    0    0 -0.19406751075E+03 -0.20385951390E+03  0.41454351306E+03  0.50106708568E+03  0.99999687468E+00 0.  0.
          4    1    3    3  501    0  0.19732267231E+03 -0.13536928446E+03  0.25917905234E+03  0.35275325846E+03  0.00000000000E+00 0.  1.
   -9000007    1    1    2    0  503 -0.32551615678E+01  0.33922879837E+03  0.82050004523E+03  0.97381060681E+03  0.40000000000E+03 0.  1.
<mgrwt>
<rscale>  2 0.52450167E+03</rscale>
<asrwt>0</asrwt>
<pdfrwt beam="1">  1       21 0.25552719E+00 0.52450652E+03</pdfrwt>
<pdfrwt beam="2">  1       21 0.25646797E-01 0.52450652E+03</pdfrwt>
<totfact> 0.70010770E+02</totfact>
</mgrwt>
</event>
<event>
 6    1  0.9163926E-004  0.4515104E+03  0.7818608E-02  0.1027324E+00
         21   -1    0    0  501  502  0.00000000000E+00  0.00000000000E+00  0.13401300114E+04  0.13401300114E+04  0.00000000000E+00 0. -1.
         21   -1    0    0  502  503 -0.00000000000E+00 -0.00000000000E+00 -0.16698232232E+03  0.16698232232E+03  0.00000000000E+00 0. -1.
    9000007    2    1    2  501    0 -0.68627518656E+02 -0.19628328477E+03  0.81354822006E+03  0.93044202730E+03  0.40078023355E+03 0.  0.
    9000005    1    3    3    0    0 -0.48835432668E+02 -0.30979949375E+03  0.44583205180E+03  0.54509434433E+03  0.99999687468E+00 0.  0.
          4    1    3    3  501    0 -0.19792085988E+02  0.11351620898E+03  0.36771616826E+03  0.38534768297E+03  0.00000000000E+00 0.  1.
   -9000007    1    1    2    0  503  0.68627518656E+02  0.19628328477E+03  0.35959946903E+03  0.57667030643E+03  0.40000000000E+03 0. -1.
<mgrwt>
<rscale>  2 0.45133721E+03</rscale>
<asrwt>0</asrwt>
<pdfrwt beam="1">  1       21 0.20617384E+00 0.45151042E+03</pdfrwt>
<pdfrwt beam="2">  1       21 0.25689589E-01 0.45151042E+03</pdfrwt>
<totfact> 0.14790671E+03</totfact>
</mgrwt>
</event>
<event>
 6    1  0.9163926E-004  0.4171605E+03  0.7818608E-02  0.1038054E+00
         21   -1    0    0  501  502  0.00000000000E+00  0.00000000000E+00  0.35695499072E+03  0.35695499072E+03  0.00000000000E+00 0. -1.
         21   -1    0    0  502  503 -0.00000000000E+00 -0.00000000000E+00 -0.53410857899E+03  0.53410857899E+03  0.00000000000E+00 0. -1.
    9000007    2    1    2  501    0  0.11415054972E+03  0.31504928741E+02  0.44257201287E+02  0.41878648338E+03  0.39924993458E+03 0.  0.
    9000005    1    3    3    0    0 -0.12851635489E+03 -0.65082661876E+02 -0.30214360185E+02  0.14719413680E+03  0.99999687468E+00 0.  0.
          4    1    3    3  501    0  0.24266690462E+03  0.96587590617E+02  0.74471561472E+02  0.27159234659E+03  0.00000000000E+00 0.  1.
   -9000007    1    1    2    0  503 -0.11415054972E+03 -0.31504928741E+02 -0.22141078956E+03  0.47227708633E+03  0.40000000000E+03 0.  1.
<mgrwt>
<rscale>  2 0.41698063E+03</rscale>
<asrwt>0</asrwt>
<pdfrwt beam="1">  1       21 0.54916152E-01 0.41716053E+03</pdfrwt>
<pdfrwt beam="2">  1       21 0.82170551E-01 0.41716053E+03</pdfrwt>
<totfact> 0.35802936E+03</totfact>
</mgrwt>
</event>
<event>
 6    1  0.9163926E-004  0.4149223E+03  0.7818608E-02  0.1038739E+00
         21   -1    0    0  501  502  0.00000000000E+00  0.00000000000E+00  0.11939686802E+04  0.11939686802E+04  0.00000000000E+00 0. -1.
         21   -1    0    0  502  503 -0.00000000000E+00 -0.00000000000E+00 -0.14676764426E+03  0.14676764426E+03  0.00000000000E+00 0. -1.
    9000007    2    1    2  501    0  0.65703443011E+02  0.88170326015E+02  0.43434247407E+03  0.60067783646E+03  0.40008690259E+03 0.  0.
    9000005    1    3    3    0    0  0.70135373852E+02  0.21798196338E+03  0.11565736444E+03  0.25653992471E+03  0.99999687468E+00 0.  0.
          4    1    3    3  501    0 -0.44319308408E+01 -0.12981163737E+03  0.31868510963E+03  0.34413791175E+03  0.00000000000E+00 0.  1.
   -9000007    1    1    2    0  503 -0.65703443011E+02 -0.88170326015E+02  0.61285856190E+03  0.74005848803E+03  0.40000000000E+03 0. -1.
<mgrwt>
<rscale>  2 0.41490131E+03</rscale>
<asrwt>0</asrwt>
<pdfrwt beam="1">  1       21 0.18368748E+00 0.41492226E+03</pdfrwt>
<pdfrwt beam="2">  1       21 0.22579638E-01 0.41492226E+03</pdfrwt>
<totfact> 0.27368702E+03</totfact>
</mgrwt>
</event>
<event>
 6    1  0.9163926E-004  0.5011357E+03  0.7818608E-02  0.1013483E+00
         21   -1    0    0  501  502  0.00000000000E+00  0.00000000000E+00  0.14951581579E+04  0.14951581579E+04  0.00000000000E+00 0.  1.
         21   -1    0    0  502  503 -0.00000000000E+00 -0.00000000000E+00 -0.20623293707E+03  0.20623293707E+03  0.00000000000E+00 0.  1.
    9000007    2    1    2  501    0 -0.30188678276E+03 -0.11679168968E+01  0.27802177861E+03  0.57309026491E+03  0.39999918590E+03 0.  0.
    9000005    1    3    3    0    0 -0.78953442352E+02 -0.19204544895E+03  0.11384348829E+03  0.23680464595E+03  0.99999687468E+00 0.  0.
          4    1    3    3  501    0 -0.22293334040E+03  0.19087753206E+03  0.16417829033E+03  0.33628561896E+03  0.00000000000E+00 0.  1.
   -9000007    1    1    2    0  503  0.30188678276E+03  0.11679168968E+01  0.10109034422E+04  0.11283008301E+04  0.40000000000E+03 0.  1.
<mgrwt>
<rscale>  2 0.50113554E+03</rscale>
<asrwt>0</asrwt>
<pdfrwt beam="1">  1       21 0.23002433E+00 0.50113570E+03</pdfrwt>
<pdfrwt beam="2">  1       21 0.31728145E-01 0.50113570E+03</pdfrwt>
<totfact> 0.66902340E+02</totfact>
</mgrwt>
</event>
<event>
 6    1  0.9163926E-004  0.4593354E+03  0.7818608E-02  0.1025073E+00
         21   -1    0    0  501  502  0.00000000000E+00  0.00000000000E+00  0.12465097728E+04  0.12465097728E+04  0.00000000000E+00 0.  1.
         21   -1    0    0  502  503 -0.00000000000E+00 -0.00000000000E+00 -0.24804251714E+03  0.24804251714E+03  0.00000000000E+00 0.  1.
    9000007    2    1    2  501    0  0.20568925473E+03  0.93171570088E+02  0.92119824923E+03  0.10287631635E+04  0.39844500403E+03 0.  0.
    9000005    1    3    3    0    0 -0.57990783906E+02 -0.29000862438E+02  0.56658281894E+03  0.57028157234E+03  0.99999687468E+00 0.  0.
          4    1    3    3  501    0  0.26368003864E+03  0.12217243253E+03  0.35461543028E+03  0.45848159117E+03  0.00000000000E+00 0.  1.
   -9000007    1    1    2    0  503 -0.20568925473E+03 -0.93171570088E+02  0.77269006480E+02  0.46578912648E+03  0.40000000000E+03 0.  1.
<mgrwt>
<rscale>  2 0.45899665E+03</rscale>
<asrwt>0</asrwt>
<pdfrwt beam="1">  1       21 0.19177073E+00 0.45933540E+03</pdfrwt>
<pdfrwt beam="2">  1       21 0.38160388E-01 0.45933540E+03</pdfrwt>
<totfact> 0.83466397E+02</totfact>
</mgrwt>
</event>
<event>
 6    1  0.9163926E-004  0.4360912E+03  0.7818608E-02  0.1031979E+00
         21   -1    0    0  501  502  0.00000000000E+00  0.00000000000E+00  0.10505858270E+04  0.10505858270E+04  0.00000000000E+00 0. -1.
         21   -1    0    0  502  503 -0.00000000000E+00 -0.00000000000E+00 -0.18986006153E+03  0.18986006153E+03  0.00000000000E+00 0.  1.
    9000007    2    1    2  501    0  0.16508318376E+03  0.51268351497E+02  0.56542168598E+03  0.71405686814E+03  0.40036811379E+03 0.  0.
    9000005    1    3    3    0    0  0.12996248323E+03  0.16803297288E+03  0.55190736955E+03  0.59137811219E+03  0.99999687468E+00 0.  0.
          4    1    3    3  501    0  0.35120700531E+02 -0.11676462138E+03  0.13514316431E+02  0.12267875595E+03  0.00000000000E+00 0.  1.
   -9000007    1    1    2    0  503 -0.16508318376E+03 -0.51268351497E+02  0.29530407951E+03  0.52638902040E+03  0.40000000000E+03 0.  1.
<mgrwt>
<rscale>  2 0.43600668E+03</rscale>
<asrwt>0</asrwt>
<pdfrwt beam="1">  1       21 0.16162858E+00 0.43609119E+03</pdfrwt>
<pdfrwt beam="2">  1       21 0.29209241E-01 0.43609119E+03</pdfrwt>
<totfact> 0.23681258E+03</totfact>
</mgrwt>
</event>
<event>
 6    1  0.9163926E-004  0.4187035E+03  0.7818608E-02  0.1037506E+00
         21   -1    0    0  501  502  0.00000000000E+00  0.00000000000E+00  0.30459303777E+04  0.30459303777E+04  0.00000000000E+00 0.  1.
         21   -1    0    0  502  503 -0.00000000000E+00 -0.00000000000E+00 -0.12851445301E+03  0.12851445301E+03  0.00000000000E+00 0.  1.
    9000007    2    1    2  501    0  0.12353420498E+03 -0.72051512096E+01  0.26381856640E+04  0.26711733806E+04  0.39978871621E+03 0.  0.
    9000005    1    3    3    0    0 -0.64483459992E+02 -0.12105469147E+03  0.41348982109E+03  0.43564571280E+03  0.99999687468E+00 0.  0.
          4    1    3    3  501    0  0.18801766497E+03  0.11384954026E+03  0.22246958429E+04  0.22355276678E+04  0.00000000000E+00 0.  1.
   -9000007    1    1    2    0  503 -0.12353420498E+03  0.72051512096E+01  0.27923026073E+03  0.50327145012E+03  0.40000000000E+03 0.  1.
<mgrwt>
<rscale>  2 0.41865302E+03</rscale>
<asrwt>0</asrwt>
<pdfrwt beam="1">  1       21 0.46860462E+00 0.41870349E+03</pdfrwt>
<pdfrwt beam="2">  1       21 0.19771457E-01 0.41870349E+03</pdfrwt>
<totfact> 0.55840108E+01</totfact>
</mgrwt>
</event>
<event>
 6    1  0.9163926E-004  0.5252804E+03  0.7818608E-02  0.1007386E+00
         21   -1    0    0  501  502  0.00000000000E+00  0.00000000000E+00  0.33221411944E+03  0.33221411944E+03  0.00000000000E+00 0. -1.
         21   -1    0    0  502  503 -0.00000000000E+00 -0.00000000000E+00 -0.10777196774E+04  0.10777196774E+04  0.00000000000E+00 0. -1.
    9000007    2    1    2  501    0 -0.24871330324E+02 -0.33955985834E+03 -0.71039552199E+03  0.88348133450E+03  0.39994748440E+03 0.  0.
    9000005    1    3    3    0    0  0.72032232081E+02 -0.36736982995E+03 -0.68322697410E+03  0.77906952998E+03  0.99999687468E+00 0.  0.
          4    1    3    3  501    0 -0.96903562405E+02  0.27809971610E+02 -0.27168547887E+02  0.10441180451E+03  0.00000000000E+00 0.  1.
   -9000007    1    1    2    0  503  0.24871330324E+02  0.33955985834E+03 -0.35110035954E+02  0.52645246233E+03  0.40000000000E+03 0. -1.
<mgrwt>
<rscale>  2 0.52527039E+03</rscale>
<asrwt>0</asrwt>
<pdfrwt beam="1">  1       21 0.51109865E-01 0.52528038E+03</pdfrwt>
<pdfrwt beam="2">  1       21 0.16580303E+00 0.52528038E+03</pdfrwt>
<totfact> 0.67355656E+02</totfact>
</mgrwt>
</event>
<event>
 6    1  0.9163926E-004  0.4127064E+03  0.7818608E-02  0.1039532E+00
         21   -1    0    0  501  502  0.00000000000E+00  0.00000000000E+00  0.13818125270E+03  0.13818125270E+03  0.00000000000E+00 0.  1.
         21   -1    0    0  502  503 -0.00000000000E+00 -0.00000000000E+00 -0.17831706809E+04  0.17831706809E+04  0.00000000000E+00 0.  1.
    9000007    2    1    2  501    0  0.97268615535E+02 -0.14768930630E+02 -0.28810516027E+03  0.50332012105E+03  0.40080825340E+03 0.  0.
    9000005    1    3    3    0    0  0.10175276471E+03  0.28608080480E+02 -0.38383612950E+03  0.39812463086E+03  0.99999687468E+00 0.  0.
          4    1    3    3  501    0 -0.44841491754E+01 -0.43377011109E+02  0.95730969225E+02  0.10519549019E+03  0.00000000000E+00 0.  1.
   -9000007    1    1    2    0  503 -0.97268615535E+02  0.14768930630E+02 -0.13568842679E+04  0.14180318126E+04  0.40000000000E+03 0.  1.
<mgrwt>
<rscale>  2 0.41251002E+03</rscale>
<asrwt>0</asrwt>
<pdfrwt beam="1">  1       21 0.21258654E-01 0.41270639E+03</pdfrwt>
<pdfrwt beam="2">  1       21 0.27433395E+00 0.41270639E+03</pdfrwt>
<totfact> 0.81794833E+02</totfact>
</mgrwt>
</event>
<event>
 6    1  0.9163926E-004  0.4780407E+03  0.7818608E-02  0.1019680E+00
         21   -1    0    0  501  502  0.00000000000E+00  0.00000000000E+00  0.82002030631E+03  0.82002030631E+03  0.00000000000E+00 0. -1.
         21   -1    0    0  502  503 -0.00000000000E+00 -0.00000000000E+00 -0.28165247368E+03  0.28165247368E+03  0.00000000000E+00 0.  1.
    9000007    2    1    2  501    0 -0.14643380937E+03  0.21682137542E+03  0.21221537269E+03  0.52302798696E+03  0.40008566755E+03 0.  0.
    9000005    1    3    3    0    0  0.12795684587E+03  0.91382375595E+02  0.14507764778E+03  0.21394442469E+03  0.99999687468E+00 0.  0.
          4    1    3    3  501    0 -0.27439065525E+03  0.12543899983E+03  0.67137724902E+02  0.30908356228E+03  0.00000000000E+00 0.  1.
   -9000007    1    1    2    0  503  0.14643380937E+03 -0.21682137542E+03  0.32615245995E+03  0.57864479303E+03  0.40000000000E+03 0.  1.
<mgrwt>
<rscale>  2 0.47802278E+03</rscale>
<asrwt>0</asrwt>
<pdfrwt beam="1">  1       21 0.12615697E+00 0.47804070E+03</pdfrwt>
<pdfrwt beam="2">  1       21 0.43331150E-01 0.47804070E+03</pdfrwt>
<totfact> 0.20316813E+03</totfact>
</mgrwt>
</event>
<event>
 6    1  0.9163926E-004  0.5103357E+03  0.7818608E-02  0.1011129E+00
         21   -1    0    0  501  502  0.00000000000E+00  0.00000000000E+00  0.49365647992E+03  0.49365647992E+03  0.00000000000E+00 0.  1.
         21   -1    0    0  502  503 -0.00000000000E+00 -0.00000000000E+00 -0.11189042369E+04  0.11189042369E+04  0.00000000000E+00 0.  1.
    9000007    2    1    2  501    0 -0.12324813380E+03 -0.29198014252E+03  0.27365009378E+03  0.57889740015E+03  0.39974406808E+03 0.  0.
    9000005    1    3    3    0    0  0.14189526471E+03 -0.15598489933E+03  0.13369332270E+03  0.24968071510E+03  0.99999687468E+00 0.  0.
          4    1    3    3  501    0 -0.26514339851E+03 -0.13599524319E+03  0.13995677109E+03  0.32921668505E+03  0.00000000000E+00 0.  1.
   -9000007    1    1    2    0  503  0.12324813380E+03  0.29198014252E+03 -0.89889785076E+03  0.10336633167E+04  0.40000000000E+03 0.  1.
<mgrwt>
<rscale>  2 0.51028553E+03</rscale>
<asrwt>0</asrwt>
<pdfrwt beam="1">  1       21 0.75947151E-01 0.51033568E+03</pdfrwt>
<pdfrwt beam="2">  1       21 0.17213911E+00 0.51033568E+03</pdfrwt>
<totfact> 0.25333636E+02</totfact>
</mgrwt>
</event>
<event>
 6    1  0.9163926E-004  0.4172359E+03  0.7818608E-02  0.1038097E+00
         21   -1    0    0  501  502  0.00000000000E+00  0.00000000000E+00  0.27446583019E+03  0.27446583019E+03  0.00000000000E+00 0. -1.
         21   -1    0    0  502  503 -0.00000000000E+00 -0.00000000000E+00 -0.69025685866E+03  0.69025685866E+03  0.00000000000E+00 0. -1.
    9000007    2    1    2  501    0 -0.91790095150E+02 -0.66079545014E+02 -0.68011942144E+02  0.42274278081E+03  0.40161412652E+03 0.  0.
    9000005    1    3    3    0    0 -0.88991806551E+02 -0.15182403731E+03 -0.19931966043E+03  0.26589360084E+03  0.99999687468E+00 0.  0.
          4    1    3    3  501    0 -0.27982885997E+01  0.85744492300E+02  0.13130771828E+03  0.15684917998E+03  0.00000000000E+00 0.  1.
   -9000007    1    1    2    0  503  0.91790095150E+02  0.66079545014E+02 -0.34777908633E+03  0.54197990804E+03  0.40000000000E+03 0. -1.
<mgrwt>
<rscale>  2 0.41684704E+03</rscale>
<asrwt>0</asrwt>
<pdfrwt beam="1">  1       21 0.42225512E-01 0.41723595E+03</pdfrwt>
<pdfrwt beam="2">  1       21 0.10619336E+00 0.41723595E+03</pdfrwt>
<totfact> 0.33818633E+03</totfact>
</mgrwt>
</event>
<event>
 6    1  0.9163926E-004  0.6960443E+03  0.7818608E-02  0.9724990E-01
         21   -1    0    0  501  502  0.00000000000E+00  0.00000000000E+00  0.71541300250E+03  0.71541300250E+03  0.00000000000E+00 0. -1.
         21   -1    0    0  502  503 -0.00000000000E+00 -0.00000000000E+00 -0.68269048861E+03  0.68269048861E+03  0.00000000000E+00 0.  1.
    9000007    2    1    2  501    0 -0.25060656954E+03 -0.51154083109E+03 -0.57784203481E+02  0.69619955148E+03  0.39607717270E+03 0.  0.
    9000005    1    3    3    0    0  0.30993845924E+02 -0.11869983619E+03  0.12899601843E+03  0.17802034255E+03  0.99999687468E+00 0.  0.
          4    1    3    3  501    0 -0.28160041547E+03 -0.39284099491E+03 -0.18678022191E+03  0.51817920893E+03  0.00000000000E+00 0.  1.
   -9000007    1    1    2    0  503  0.25060656954E+03  0.51154083109E+03  0.90506717375E+02  0.70190393963E+03  0.40000000000E+03 0. -1.
<mgrwt>
<rscale>  2 0.69548189E+03</rscale>
<asrwt>0</asrwt>
<pdfrwt beam="1">  1       21 0.11006354E+00 0.69604431E+03</pdfrwt>
<pdfrwt beam="2">  1       21 0.10502931E+00 0.69604431E+03</pdfrwt>
<totfact> 0.36202588E+02</totfact>
</mgrwt>
</event>
<event>
 6    1  0.9163926E-004  0.7009274E+03  0.7818608E-02  0.9715776E-01
         21   -1    0    0  501  502  0.00000000000E+00  0.00000000000E+00  0.20489054897E+04  0.20489054897E+04  0.00000000000E+00 0.  1.
         21   -1    0    0  502  503 -0.00000000000E+00 -0.00000000000E+00 -0.24035502534E+03  0.24035502534E+03  0.00000000000E+00 0. -1.
    9000007    2    1    2  501    0  0.20877315641E+03 -0.53638889824E+03  0.84357979570E+03  0.10965880234E+04  0.39947357903E+03 0.  0.
    9000005    1    3    3    0    0 -0.14483019340E+02  0.23026966613E+02 -0.26748781497E+02  0.38164071401E+02  0.99999687468E+00 0.  0.
          4    1    3    3  501    0  0.22325617575E+03 -0.55941586486E+03  0.87032857720E+03  0.10584239520E+04  0.00000000000E+00 0.  1.
   -9000007    1    1    2    0  503 -0.20877315641E+03  0.53638889824E+03  0.96497066869E+03  0.11926724917E+04  0.40000000000E+03 0.  1.
<mgrwt>
<rscale>  2 0.70085236E+03</rscale>
<asrwt>0</asrwt>
<pdfrwt beam="1">  1       21 0.31521622E+00 0.70092744E+03</pdfrwt>
<pdfrwt beam="2">  1       21 0.36977697E-01 0.70092744E+03</pdfrwt>
<totfact> 0.13475358E+02</totfact>
</mgrwt>
</event>
<event>
 6    1  0.9163926E-004  0.4536032E+03  0.7818608E-02  0.1026658E+00
         21   -1    0    0  501  502  0.00000000000E+00  0.00000000000E+00  0.20553749198E+03  0.20553749198E+03  0.00000000000E+00 0.  1.
         21   -1    0    0  502  503 -0.00000000000E+00 -0.00000000000E+00 -0.11432617684E+04  0.11432617684E+04  0.00000000000E+00 0.  1.
    9000007    2    1    2  501    0 -0.77652093362E+02 -0.19914856447E+03 -0.23091649966E+03  0.50899736016E+03  0.40008234715E+03 0.  0.
    9000005    1    3    3    0    0 -0.22122368657E+03 -0.32066231396E+02 -0.16880558102E+03  0.28011513146E+03  0.99999687468E+00 0.  0.
          4    1    3    3  501    0  0.14357159321E+03 -0.16708233307E+03 -0.62110918638E+02  0.22888222870E+03  0.00000000000E+00 0.  1.
   -9000007    1    1    2    0  503  0.77652093362E+02  0.19914856447E+03 -0.70680777674E+03  0.83980190021E+03  0.40000000000E+03 0.  1.
<mgrwt>
<rscale>  2 0.45358506E+03</rscale>
<asrwt>0</asrwt>
<pdfrwt beam="1">  1       21 0.31621153E-01 0.45360322E+03</pdfrwt>
<pdfrwt beam="2">  1       21 0.17588642E+00 0.45360322E+03</pdfrwt>
<totfact> 0.15793040E+03</totfact>
</mgrwt>
</event>
<event>
 6    1  0.9163926E-004  0.5804445E+03  0.7818608E-02  0.9946957E-01
         21   -1    0    0  501  502  0.00000000000E+00  0.00000000000E+00  0.22630299925E+04  0.22630299925E+04  0.00000000000E+00 0.  1.
         21   -1    0    0  502  503 -0.00000000000E+00 -0.00000000000E+00 -0.15445049060E+03  0.15445049060E+03  0.00000000000E+00 0.  1.
    9000007    2    1    2  501    0  0.21370698191E+03 -0.36227767852E+03  0.12849218920E+04  0.14098458029E+04  0.39965626342E+03 0.  0.
    9000005    1    3    3    0    0 -0.72819694695E+02  0.16032347401E+02  0.38811178843E+03  0.39521070887E+03  0.99999687468E+00 0.  0.
          4    1    3    3  501    0  0.28652667661E+03 -0.37831002592E+03  0.89681010355E+03  0.10146350940E+04  0.00000000000E+00 0.  1.
   -9000007    1    1    2    0  503 -0.21370698191E+03  0.36227767852E+03  0.82365760997E+03  0.10076346803E+04  0.40000000000E+03 0.  1.
<mgrwt>
<rscale>  2 0.58038526E+03</rscale>
<asrwt>0</asrwt>
<pdfrwt beam="1">  1       21 0.34815844E+00 0.58044448E+03</pdfrwt>
<pdfrwt beam="2">  1       21 0.23761615E-01 0.58044448E+03</pdfrwt>
<totfact> 0.21540322E+02</totfact>
</mgrwt>
</event>
<event>
 6    1  0.9163926E-004  0.4550470E+03  0.7818608E-02  0.1026742E+00
         21   -1    0    0  501  502  0.00000000000E+00  0.00000000000E+00  0.55938606227E+03  0.55938606227E+03  0.00000000000E+00 0.  1.
         21   -1    0    0  502  503 -0.00000000000E+00 -0.00000000000E+00 -0.37800357152E+03  0.37800357152E+03  0.00000000000E+00 0. -1.
    9000007    2    1    2  501    0 -0.15031108753E+03 -0.13494651591E+03  0.17978449738E+03  0.48927520781E+03  0.40775455642E+03 0.  0.
    9000005    1    3    3    0    0 -0.24436434636E+03 -0.28177476388E+02 -0.16847481202E+02  0.24656184126E+03  0.99999687468E+00 0.  0.
          4    1    3    3  501    0  0.94053258831E+02 -0.10676903952E+03  0.19663197858E+03  0.24271336654E+03  0.00000000000E+00 0.  1.
   -9000007    1    1    2    0  503  0.15031108753E+03  0.13494651591E+03  0.15979933763E+01  0.44811442598E+03  0.40000000000E+03 0. -1.
<mgrwt>
<rscale>  2 0.45330314E+03</rscale>
<asrwt>0</asrwt>
<pdfrwt beam="1">  1       21 0.86059394E-01 0.45504699E+03</pdfrwt>
<pdfrwt beam="2">  1       21 0.58154396E-01 0.45504699E+03</pdfrwt>
<totfact> 0.28001323E+03</totfact>
</mgrwt>
</event>
<event>
 6    1  0.9163926E-004  0.4416248E+03  0.7818608E-02  0.1030306E+00
         21   -1    0    0  501  502  0.00000000000E+00  0.00000000000E+00  0.92562850933E+03  0.92562850933E+03  0.00000000000E+00 0.  1.
         21   -1    0    0  502  503 -0.00000000000E+00 -0.00000000000E+00 -0.35171179370E+03  0.35171179370E+03  0.00000000000E+00 0. -1.
    9000007    2    1    2  501    0  0.87412137958E+02 -0.16550396756E+03  0.69171799951E+03  0.82027401940E+03  0.39917819445E+03 0.  0.
    9000005    1    3    3    0    0 -0.54190789446E+02  0.11451088744E+03  0.18326067266E+03  0.22278882185E+03  0.99999687468E+00 0.  0.
          4    1    3    3  501    0  0.14160292740E+03 -0.28001485500E+03  0.50845732685E+03  0.59748519755E+03  0.00000000000E+00 0.  1.
   -9000007    1    1    2    0  503 -0.87412137958E+02  0.16550396756E+03 -0.11780128388E+03  0.45706628362E+03  0.40000000000E+03 0. -1.
<mgrwt>
<rscale>  2 0.44143861E+03</rscale>
<asrwt>0</asrwt>
<pdfrwt beam="1">  1       21 0.14240439E+00 0.44162478E+03</pdfrwt>
<pdfrwt beam="2">  1       21 0.54109507E-01 0.44162478E+03</pdfrwt>
<totfact> 0.93718551E+02</totfact>
</mgrwt>
</event>
<event>
 6    1  0.9163926E-004  0.4856528E+03  0.7818608E-02  0.1017610E+00
         21   -1    0    0  501  502  0.00000000000E+00  0.00000000000E+00  0.17613912676E+03  0.17613912676E+03  0.00000000000E+00 0.  1.
         21   -1    0    0  502  503 -0.00000000000E+00 -0.00000000000E+00 -0.13723542994E+04  0.13723542994E+04  0.00000000000E+00 0.  1.
    9000007    2    1    2  501    0  0.21193624883E+03  0.17521174924E+03 -0.47639875743E+03  0.68030462051E+03  0.40030297271E+03 0.  0.
    9000005    1    3    3    0    0  0.39064538741E+02  0.65181932652E+02 -0.46914293691E+03  0.47525868512E+03  0.99999687468E+00 0.  0.
          4    1    3    3  501    0  0.17287171009E+03  0.11002981659E+03 -0.72558205183E+01  0.20504593539E+03  0.00000000000E+00 0.  1.
   -9000007    1    1    2    0  503 -0.21193624883E+03 -0.17521174924E+03 -0.71981641516E+03  0.86818880560E+03  0.40000000000E+03 0.  1.
<mgrwt>
<rscale>  2 0.48559032E+03</rscale>
<asrwt>0</asrwt>
<pdfrwt beam="1">  1       21 0.27098326E-01 0.48565276E+03</pdfrwt>
<pdfrwt beam="2">  1       21 0.21113144E+00 0.48565276E+03</pdfrwt>
<totfact> 0.12180096E+03</totfact>
</mgrwt>
</event>
<event>
 6    1  0.9163926E-004  0.4084404E+03  0.7818608E-02  0.1040911E+00
         21   -1    0    0  501  502  0.00000000000E+00  0.00000000000E+00  0.11759058725E+03  0.11759058725E+03  0.00000000000E+00 0.  1.
         21   -1    0    0  502  503 -0.00000000000E+00 -0.00000000000E+00 -0.14553966711E+04  0.14553966711E+04  0.00000000000E+00 0.  1.
    9000007    2    1    2  501    0  0.76762627387E+02  0.28050162209E+02 -0.79500222420E+03  0.89378526880E+03  0.40018028146E+03 0.  0.
    9000005    1    3    3    0    0  0.88265851091E+02  0.98897194179E+02 -0.44459350360E+02  0.13981827246E+03  0.99999687468E+00 0.  0.
          4    1    3    3  501    0 -0.11503223704E+02 -0.70847031970E+02 -0.75054287384E+03  0.75396699634E+03  0.00000000000E+00 0.  1.
   -9000007    1    1    2    0  503 -0.76762627387E+02 -0.28050162209E+02 -0.54280385969E+03  0.67920198958E+03  0.40000000000E+03 0.  1.
<mgrwt>
<rscale>  2 0.40839625E+03</rscale>
<asrwt>0</asrwt>
<pdfrwt beam="1">  1       21 0.18090858E-01 0.40844041E+03</pdfrwt>
<pdfrwt beam="2">  1       21 0.22390720E+00 0.40844041E+03</pdfrwt>
<totfact> 0.22703721E+03</totfact>
</mgrwt>
</event>
<event>
 6    1  0.9163926E-004  0.7363688E+03  0.7818608E-02  0.9657064E-01
         21   -1    0    0  501  502  0.00000000000E+00  0.00000000000E+00  0.17333804077E+04  0.17333804077E+04  0.00000000000E+00 0. -1.
         21   -1    0    0  502  503 -0.00000000000E+00 -0.00000000000E+00 -0.31298937154E+03  0.31298937154E+03  0.00000000000E+00 0.  1.
    9000007    2    1    2  501    0  0.55133738314E+03 -0.27921778675E+03  0.68107781056E+03  0.10030483867E+04  0.40037931968E+03 0.  0.
    9000005    1    3    3    0    0  0.92542219137E+02 -0.25425796802E+03  0.31729363646E+03  0.41699811553E+03  0.99999687468E+00 0.  0.
          4    1    3    3  501    0  0.45879516400E+03 -0.24959818730E+02  0.36378417410E+03  0.58605027122E+03  0.00000000000E+00 0.  1.
   -9000007    1    1    2    0  503 -0.55133738314E+03  0.27921778675E+03  0.73931322557E+03  0.10433213925E+04  0.40000000000E+03 0.  1.
<mgrwt>
<rscale>  2 0.73631730E+03</rscale>
<asrwt>0</asrwt>
<pdfrwt beam="1">  1       21 0.26667390E+00 0.73636885E+03</pdfrwt>
<pdfrwt beam="2">  1       21 0.48152212E-01 0.73636885E+03</pdfrwt>
<totfact> 0.15205060E+02</totfact>
</mgrwt>
</event>
<event>
 6    1  0.9163926E-004  0.4173650E+03  0.7818608E-02  0.1038677E+00
         21   -1    0    0  501  502  0.00000000000E+00  0.00000000000E+00  0.46677942070E+03  0.46677942070E+03  0.00000000000E+00 0. -1.
         21   -1    0    0  502  503 -0.00000000000E+00 -0.00000000000E+00 -0.44634243338E+03  0.44634243338E+03  0.00000000000E+00 0. -1.
    9000007    2    1    2  501    0  0.69457694210E+02  0.96794606024E+02  0.20484522291E+03  0.45683251123E+03  0.39056473334E+03 0.  0.
    9000005    1    3    3    0    0  0.18215831601E+03 -0.67662489439E+02  0.40588555130E+02  0.19851522704E+03  0.99999687468E+00 0.  0.
          4    1    3    3  501    0 -0.11270062180E+03  0.16445709546E+03  0.16425666778E+03  0.25831728419E+03  0.00000000000E+00 0.  1.
   -9000007    1    1    2    0  503 -0.69457694210E+02 -0.96794606024E+02 -0.18440823559E+03  0.45628934284E+03  0.40000000000E+03 0. -1.
<mgrwt>
<rscale>  2 0.41508801E+03</rscale>
<asrwt>0</asrwt>
<pdfrwt beam="1">  1       21 0.71812218E-01 0.41736503E+03</pdfrwt>
<pdfrwt beam="2">  1       21 0.68668067E-01 0.41736503E+03</pdfrwt>
<totfact> 0.29822981E+03</totfact>
</mgrwt>
</event>
<event>
 6    1  0.9163926E-004  0.4203596E+03  0.7818608E-02  0.1037420E+00
         21   -1    0    0  501  502  0.00000000000E+00  0.00000000000E+00  0.13118448103E+04  0.13118448103E+04  0.00000000000E+00 0.  1.
         21   -1    0    0  502  503 -0.00000000000E+00 -0.00000000000E+00 -0.14898408379E+03  0.14898408379E+03  0.00000000000E+00 0. -1.
    9000007    2    1    2  501    0  0.77210580847E+02  0.10363737746E+03  0.81813552473E+03  0.91719515292E+03  0.39395308338E+03 0.  0.
    9000005    1    3    3    0    0  0.82170499828E+02 -0.10631956431E+03  0.59814467875E+03  0.61305293206E+03  0.99999687468E+00 0.  0.
          4    1    3    3  501    0 -0.49599189810E+01  0.20995694177E+03  0.21999084599E+03  0.30414222086E+03  0.00000000000E+00 0.  1.
   -9000007    1    1    2    0  503 -0.77210580847E+02 -0.10363737746E+03  0.34472520180E+03  0.54363374119E+03  0.40000000000E+03 0. -1.
<mgrwt>
<rscale>  2 0.41891468E+03</rscale>
<asrwt>0</asrwt>
<pdfrwt beam="1">  1       21 0.20182227E+00 0.42035958E+03</pdfrwt>
<pdfrwt beam="2">  1       21 0.22920629E-01 0.42035958E+03</pdfrwt>
<totfact> 0.19989212E+03</totfact>
</mgrwt>
</event>
<event>
 6    1  0.9163926E-004  0.4472764E+03  0.7818608E-02  0.1028694E+00
         21   -1    0    0  501  502  0.00000000000E+00  0.00000000000E+00  0.10093824648E+03  0.10093824648E+03  0.00000000000E+00 0. -1.
         21   -1    0    0  502  503 -0.00000000000E+00 -0.00000000000E+00 -0.19835716914E+04  0.19835716914E+04  0.00000000000E+00 0. -1.
    9000007    2    1    2  501    0  0.15652782314E+02  0.19482705198E+03 -0.86659661420E+03  0.97521582396E+03  0.40231035506E+03 0.  0.
    9000005    1    3    3    0    0 -0.17580805868E+02  0.51609488425E+02  0.32963795924E+02  0.63719980115E+02  0.99999687468E+00 0.  0.
          4    1    3    3  501    0  0.33233588182E+02  0.14321756356E+03 -0.89956041012E+03  0.91149584385E+03  0.00000000000E+00 0.  1.
   -9000007    1    1    2    0  503 -0.15652782314E+02 -0.19482705198E+03 -0.10160368308E+04  0.11092941140E+04  0.40000000000E+03 0. -1.
<mgrwt>
<rscale>  2 0.44675630E+03</rscale>
<asrwt>0</asrwt>
<pdfrwt beam="1">  1       21 0.15528961E-01 0.44727644E+03</pdfrwt>
<pdfrwt beam="2">  1       21 0.30516487E+00 0.44727644E+03</pdfrwt>
<totfact> 0.94677016E+02</totfact>
</mgrwt>
</event>
<event>
 6    1  0.9163926E-004  0.4122287E+03  0.7818608E-02  0.1039660E+00
         21   -1    0    0  501  502  0.00000000000E+00  0.00000000000E+00  0.20972600955E+03  0.20972600955E+03  0.00000000000E+00 0. -1.
         21   -1    0    0  502  503 -0.00000000000E+00 -0.00000000000E+00 -0.11720321107E+04  0.11720321107E+04  0.00000000000E+00 0.  1.
    9000007    2    1    2  501    0 -0.97782914857E+02 -0.56101665836E+01 -0.97050107123E+02  0.42349880899E+03  0.40042420695E+03 0.  0.
    9000005    1    3    3    0    0 -0.18149989098E+03  0.60160404275E+02  0.87624641001E+02  0.21033440606E+03  0.99999687468E+00 0.  0.
          4    1    3    3  501    0  0.83716976119E+02 -0.65770570859E+02 -0.18467474812E+03  0.21316440293E+03  0.00000000000E+00 0.  1.
   -9000007    1    1    2    0  503  0.97782914857E+02  0.56101665836E+01 -0.86525599401E+03  0.95825931124E+03  0.40000000000E+03 0.  1.
<mgrwt>
<rscale>  2 0.41212567E+03</rscale>
<asrwt>0</asrwt>
<pdfrwt beam="1">  1       21 0.32265540E-01 0.41222872E+03</pdfrwt>
<pdfrwt beam="2">  1       21 0.18031263E+00 0.41222872E+03</pdfrwt>
<totfact> 0.14371886E+03</totfact>
</mgrwt>
</event>
<event>
 6    1  0.9163926E-004  0.4437293E+03  0.7818608E-02  0.1029616E+00
         21   -1    0    0  501  502  0.00000000000E+00  0.00000000000E+00  0.95990585696E+03  0.95990585696E+03  0.00000000000E+00 0. -1.
         21   -1    0    0  502  503 -0.00000000000E+00 -0.00000000000E+00 -0.31521229327E+03  0.31521229327E+03  0.00000000000E+00 0. -1.
    9000007    2    1    2  501    0  0.87565830932E+01  0.19164946307E+03  0.69923898289E+03  0.82814902691E+03  0.40011181079E+03 0.  0.
    9000005    1    3    3    0    0  0.62304813611E+01  0.22181660759E+03  0.12813653474E+03  0.25624480059E+03  0.99999687468E+00 0.  0.
          4    1    3    3  501    0  0.25261017321E+01 -0.30167144518E+02  0.57110244815E+03  0.57190422632E+03  0.00000000000E+00 0.  1.
   -9000007    1    1    2    0  503 -0.87565830932E+01 -0.19164946307E+03 -0.54545419205E+02  0.44696912332E+03  0.40000000000E+03 0. -1.
<mgrwt>
<rscale>  2 0.44370405E+03</rscale>
<asrwt>0</asrwt>
<pdfrwt beam="1">  1       21 0.14767782E+00 0.44372926E+03</pdfrwt>
<pdfrwt beam="2">  1       21 0.48494200E-01 0.44372926E+03</pdfrwt>
<totfact> 0.10728784E+03</totfact>
</mgrwt>
</event>
<event>
 6    1  0.9163926E-004  0.7336828E+03  0.7818608E-02  0.9662284E-01
         21   -1    0    0  501  502  0.00000000000E+00  0.00000000000E+00  0.86331263127E+03  0.86331263127E+03  0.00000000000E+00 0. -1.
         21   -1    0    0  502  503 -0.00000000000E+00 -0.00000000000E+00 -0.80763701223E+03  0.80763701223E+03  0.00000000000E+00 0. -1.
    9000007    2    1    2  501    0 -0.44186839653E+03  0.42365692198E+03  0.42901087570E+03  0.84990635521E+03  0.40442256831E+03 0.  0.
    9000005    1    3    3    0    0 -0.30326771480E+03  0.22663299715E+03  0.47213783826E+03  0.60518506306E+03  0.99999687468E+00 0.  0.
          4    1    3    3  501    0 -0.13860068173E+03  0.19702392483E+03 -0.43126962559E+02  0.24472129215E+03  0.00000000000E+00 0.  1.
   -9000007    1    1    2    0  503  0.44186839653E+03 -0.42365692198E+03 -0.37333525665E+03  0.82104328829E+03  0.40000000000E+03 0. -1.
<mgrwt>
<rscale>  2 0.73307494E+03</rscale>
<asrwt>0</asrwt>
<pdfrwt beam="1">  1       21 0.13281733E+00 0.73368282E+03</pdfrwt>
<pdfrwt beam="2">  1       21 0.12425185E+00 0.73368282E+03</pdfrwt>
<totfact> 0.14392971E+02</totfact>
</mgrwt>
</event>
<event>
 6    1  0.9163926E-004  0.6720123E+03  0.7818608E-02  0.9766498E-01
         21   -1    0    0  501  502  0.00000000000E+00  0.00000000000E+00  0.56213253567E+03  0.56213253567E+03  0.00000000000E+00 0.  1.
         21   -1    0    0  502  503 -0.00000000000E+00 -0.00000000000E+00 -0.25992453822E+04  0.25992453822E+04  0.00000000000E+00 0. -1.
    9000007    2    1    2  501    0  0.11024642788E+02  0.53988792511E+03  0.29558994951E+03  0.73380652879E+03  0.39937211846E+03 0.  0.
    9000005    1    3    3    0    0 -0.17258649092E+03  0.38339624723E+03  0.24723806325E+03  0.48775653676E+03  0.99999687468E+00 0.  0.
          4    1    3    3  501    0  0.18361113371E+03  0.15649167788E+03  0.48351886263E+02  0.24604999203E+03  0.00000000000E+00 0.  1.
   -9000007    1    1    2    0  503 -0.11024642788E+02 -0.53988792511E+03 -0.23327027961E+04  0.24275713891E+04  0.40000000000E+03 0. -1.
<mgrwt>
<rscale>  2 0.67191888E+03</rscale>
<asrwt>0</asrwt>
<pdfrwt beam="1">  1       21 0.86481927E-01 0.67201229E+03</pdfrwt>
<pdfrwt beam="2">  1       21 0.39988391E+00 0.67201229E+03</pdfrwt>
<totfact> 0.62013403E+00</totfact>
</mgrwt>
</event>
<event>
 6    1  0.9163926E-004  0.4351762E+03  0.7818608E-02  0.1032254E+00
         21   -1    0    0  501  502  0.00000000000E+00  0.00000000000E+00  0.11432741438E+04  0.11432741438E+04  0.00000000000E+00 0. -1.
         21   -1    0    0  502  503 -0.00000000000E+00 -0.00000000000E+00 -0.19659812946E+03  0.19659812946E+03  0.00000000000E+00 0. -1.
    9000007    2    1    2  501    0  0.14477158606E+03  0.91758119202E+02  0.20706700912E+03  0.48173484536E+03  0.39976661992E+03 0.  0.
    9000005    1    3    3    0    0 -0.23508204090E+02 -0.11679135492E+03 -0.31195370518E+02  0.12315440462E+03  0.99999687468E+00 0.  0.
          4    1    3    3  501    0  0.16827979015E+03  0.20854947412E+03  0.23826237964E+03  0.35858044074E+03  0.00000000000E+00 0.  1.
   -9000007    1    1    2    0  503 -0.14477158606E+03 -0.91758119202E+02  0.73960900519E+03  0.85813742788E+03  0.40000000000E+03 0.  1.
<mgrwt>
<rscale>  2 0.43512261E+03</rscale>
<asrwt>0</asrwt>
<pdfrwt beam="1">  1       21 0.17588833E+00 0.43517625E+03</pdfrwt>
<pdfrwt beam="2">  1       21 0.30245867E-01 0.43517625E+03</pdfrwt>
<totfact> 0.17392007E+03</totfact>
</mgrwt>
</event>
<event>
 6    1  0.9163926E-004  0.4920596E+03  0.7818608E-02  0.1015882E+00
         21   -1    0    0  501  502  0.00000000000E+00  0.00000000000E+00  0.65670956222E+03  0.65670956222E+03  0.00000000000E+00 0. -1.
         21   -1    0    0  502  503 -0.00000000000E+00 -0.00000000000E+00 -0.58181024303E+03  0.58181024303E+03  0.00000000000E+00 0. -1.
    9000007    2    1    2  501    0  0.16897792270E+03 -0.23144997762E+03  0.41233153286E+03  0.64187658748E+03  0.39983200230E+03 0.  0.
    9000005    1    3    3    0    0  0.45730832179E+02  0.40318867791E+02  0.32539884840E+03  0.33106242711E+03  0.99999687468E+00 0.  0.
          4    1    3    3  501    0  0.12324709052E+03 -0.27176884541E+03  0.86932684463E+02  0.31081416037E+03  0.00000000000E+00 0.  1.
   -9000007    1    1    2    0  503 -0.16897792270E+03  0.23144997762E+03 -0.33743221367E+03  0.59664321778E+03  0.40000000000E+03 0. -1.
<mgrwt>
<rscale>  2 0.49202544E+03</rscale>
<asrwt>0</asrwt>
<pdfrwt beam="1">  1       21 0.10103224E+00 0.49205958E+03</pdfrwt>
<pdfrwt beam="2">  1       21 0.89509268E-01 0.49205958E+03</pdfrwt>
<totfact> 0.70692590E+02</totfact>
</mgrwt>
</event>
<event>
 6    1  0.9163926E-004  0.4573685E+03  0.7818608E-02  0.1025585E+00
         21   -1    0    0  501  502  0.00000000000E+00  0.00000000000E+00  0.45423094464E+03  0.45423094464E+03  0.00000000000E+00 0.  1.
         21   -1    0    0  502  503 -0.00000000000E+00 -0.00000000000E+00 -0.79786572293E+03  0.79786572293E+03  0.00000000000E+00 0. -1.
    9000007    2    1    2  501    0  0.20195780298E+03 -0.91645850017E+02  0.23562435348E+03  0.51404039752E+03  0.39941554591E+03 0.  0.
    9000005    1    3    3    0    0 -0.21549402937E+02 -0.29818731737E+01 -0.99345061301E+02  0.10170402909E+03  0.99999687468E+00 0.  0.
          4    1    3    3  501    0  0.22350720592E+03 -0.88663976844E+02  0.33496941478E+03  0.41233636843E+03  0.00000000000E+00 0.  1.
   -9000007    1    1    2    0  503 -0.20195780298E+03  0.91645850017E+02 -0.57925913178E+03  0.73805627005E+03  0.40000000000E+03 0. -1.
<mgrwt>
<rscale>  2 0.45724065E+03</rscale>
<asrwt>0</asrwt>
<pdfrwt beam="1">  1       21 0.69881684E-01 0.45736847E+03</pdfrwt>
<pdfrwt beam="2">  1       21 0.12274857E+00 0.45736847E+03</pdfrwt>
<totfact> 0.78123162E+02</totfact>
</mgrwt>
</event>
<event>
 6    1  0.9163926E-004  0.4242541E+03  0.7818608E-02  0.1035768E+00
         21   -1    0    0  501  502  0.00000000000E+00  0.00000000000E+00  0.29401633582E+03  0.29401633582E+03  0.00000000000E+00 0. -1.
         21   -1    0    0  502  503 -0.00000000000E+00 -0.00000000000E+00 -0.61167637138E+03  0.61167637138E+03  0.00000000000E+00 0. -1.
    9000007    2    1    2  501    0 -0.13860886452E+03 -0.27912856280E+02 -0.14153711774E+03  0.44633355899E+03  0.39898539486E+03 0.  0.
    9000005    1    3    3    0    0 -0.15903748742E+03 -0.17789894008E+03 -0.16910921064E+03  0.29247201645E+03  0.99999687468E+00 0.  0.
          4    1    3    3  501    0  0.20428622906E+02  0.14998608380E+03  0.27572092899E+02  0.15386154254E+03  0.00000000000E+00 0.  1.
   -9000007    1    1    2    0  503  0.13860886452E+03  0.27912856280E+02 -0.17612291781E+03  0.45935914821E+03  0.40000000000E+03 0. -1.
<mgrwt>
<rscale>  2 0.42401479E+03</rscale>
<asrwt>0</asrwt>
<pdfrwt beam="1">  1       21 0.45233283E-01 0.42425410E+03</pdfrwt>
<pdfrwt beam="2">  1       21 0.94104056E-01 0.42425410E+03</pdfrwt>
<totfact> 0.39182764E+03</totfact>
</mgrwt>
</event>
<event>
 6    1  0.9163926E-004  0.4787508E+03  0.7818608E-02  0.1019500E+00
         21   -1    0    0  501  502  0.00000000000E+00  0.00000000000E+00  0.87894716142E+03  0.87894716142E+03  0.00000000000E+00 0. -1.
         21   -1    0    0  502  503 -0.00000000000E+00 -0.00000000000E+00 -0.44667688085E+03  0.44667688085E+03  0.00000000000E+00 0.  1.
    9000007    2    1    2  501    0 -0.19711528168E+03  0.17337408478E+03  0.64396879464E+03  0.80243261611E+03  0.40036144592E+03 0.  0.
    9000005    1    3    3    0    0  0.33935811765E+02  0.16054966632E+03  0.60751996531E+02  0.17498468434E+03  0.99999687468E+00 0.  0.
          4    1    3    3  501    0 -0.23105109344E+03  0.12824418463E+02  0.58321679811E+03  0.62744793177E+03  0.00000000000E+00 0.  1.
   -9000007    1    1    2    0  503  0.19711528168E+03 -0.17337408478E+03 -0.21169851407E+03  0.52319142616E+03  0.40000000000E+03 0.  1.
<mgrwt>
<rscale>  2 0.47867519E+03</rscale>
<asrwt>0</asrwt>
<pdfrwt beam="1">  1       21 0.13522264E+00 0.47875076E+03</pdfrwt>
<pdfrwt beam="2">  1       21 0.68719520E-01 0.47875076E+03</pdfrwt>
<totfact> 0.62554992E+02</totfact>
</mgrwt>
</event>
<event>
 6    1  0.9163926E-004  0.4554648E+03  0.7818608E-02  0.1026117E+00
         21   -1    0    0  501  502  0.00000000000E+00  0.00000000000E+00  0.18437434207E+04  0.18437434207E+04  0.00000000000E+00 0.  1.
         21   -1    0    0  502  503 -0.00000000000E+00 -0.00000000000E+00 -0.19849777044E+03  0.19849777044E+03  0.00000000000E+00 0.  1.
    9000007    2    1    2  501    0 -0.13768359846E+03  0.16879406620E+03  0.14947552523E+04  0.15625584106E+04  0.39980909475E+03 0.  0.
    9000005    1    3    3    0    0 -0.45314682091E+02 -0.12893095308E+03  0.33923041865E+03  0.36572515364E+03  0.99999687468E+00 0.  0.
          4    1    3    3  501    0 -0.92368916373E+02  0.29772501928E+03  0.11555248336E+04  0.11968332570E+04  0.00000000000E+00 0.  1.
   -9000007    1    1    2    0  503  0.13768359846E+03 -0.16879406620E+03  0.15049039798E+03  0.47968278055E+03  0.40000000000E+03 0.  1.
<mgrwt>
<rscale>  2 0.45542291E+03</rscale>
<asrwt>0</asrwt>
<pdfrwt beam="1">  1       21 0.28365282E+00 0.45546483E+03</pdfrwt>
<pdfrwt beam="2">  1       21 0.30538120E-01 0.45546483E+03</pdfrwt>
<totfact> 0.34627963E+02</totfact>
</mgrwt>
</event>
<event>
 6    1  0.9163926E-004  0.5622447E+03  0.7818608E-02  0.9987444E-01
         21   -1    0    0  501  502  0.00000000000E+00  0.00000000000E+00  0.64416262216E+03  0.64416262216E+03  0.00000000000E+00 0.  1.
         21   -1    0    0  502  503 -0.00000000000E+00 -0.00000000000E+00 -0.58124664367E+03  0.58124664367E+03  0.00000000000E+00 0.  1.
    9000007    2    1    2  501    0  0.22106784950E+03 -0.32609686274E+03 -0.21123296530E+03  0.60061505863E+03  0.40113454732E+03 0.  0.
    9000005    1    3    3    0    0  0.18136712455E+03  0.46090224885E+02 -0.55298757410E+02  0.19513404434E+03  0.99999687468E+00 0.  0.
          4    1    3    3  501    0  0.39700724952E+02 -0.37218708762E+03 -0.15593420789E+03  0.40548101429E+03  0.00000000000E+00 0.  1.
   -9000007    1    1    2    0  503 -0.22106784950E+03  0.32609686274E+03  0.27414894379E+03  0.62479420720E+03  0.40000000000E+03 0.  1.
<mgrwt>
<rscale>  2 0.56204235E+03</rscale>
<asrwt>0</asrwt>
<pdfrwt beam="1">  1       21 0.99101942E-01 0.56224468E+03</pdfrwt>
<pdfrwt beam="2">  1       21 0.89422561E-01 0.56224468E+03</pdfrwt>
<totfact> 0.72409646E+02</totfact>
</mgrwt>
</event>
<event>
 6    1  0.9163926E-004  0.4912433E+03  0.7818608E-02  0.1016117E+00
         21   -1    0    0  501  502  0.00000000000E+00  0.00000000000E+00  0.25960687430E+04  0.25960687430E+04  0.00000000000E+00 0.  1.
         21   -1    0    0  502  503 -0.00000000000E+00 -0.00000000000E+00 -0.96275445569E+02  0.96275445569E+02  0.00000000000E+00 0.  1.
    9000007    2    1    2  501    0  0.27302062740E+03  0.82339049254E+02  0.99657508151E+03  0.11108939090E+04  0.39950394490E+03 0.  0.
    9000005    1    3    3    0    0  0.16011897379E+02 -0.39697810365E+02  0.69490841839E+03  0.69622626132E+03  0.99999687468E+00 0.  0.
          4    1    3    3  501    0  0.25700873002E+03  0.12203685962E+03  0.30166666312E+03  0.41466764770E+03  0.00000000000E+00 0.  1.
   -9000007    1    1    2    0  503 -0.27302062740E+03 -0.82339049254E+02  0.15032182159E+04  0.15814502796E+04  0.40000000000E+03 0.  1.
<mgrwt>
<rscale>  2 0.49114231E+03</rscale>
<asrwt>0</asrwt>
<pdfrwt beam="1">  1       21 0.39939514E+00 0.49124330E+03</pdfrwt>
<pdfrwt beam="2">  1       21 0.14811609E-01 0.49124330E+03</pdfrwt>
<totfact> 0.26366271E+02</totfact>
</mgrwt>
</event>
<event>
 6    1  0.9163926E-004  0.4737847E+03  0.7818608E-02  0.1020865E+00
         21   -1    0    0  501  502  0.00000000000E+00  0.00000000000E+00  0.85376902314E+03  0.85376902314E+03  0.00000000000E+00 0.  1.
         21   -1    0    0  502  503 -0.00000000000E+00 -0.00000000000E+00 -0.29121196493E+03  0.29121196493E+03  0.00000000000E+00 0.  1.
    9000007    2    1    2  501    0  0.23217967896E+03  0.10226277398E+03  0.45995092240E+03  0.66032327651E+03  0.40013360296E+03 0.  0.
    9000005    1    3    3    0    0 -0.89639898580E+02  0.61968829683E+02  0.15439883668E+02  0.11006742148E+03  0.99999687468E+00 0.  0.
          4    1    3    3  501    0  0.32181957754E+03  0.40293944298E+02  0.44451103874E+03  0.55025585503E+03  0.00000000000E+00 0.  1.
   -9000007    1    1    2    0  503 -0.23217967896E+03 -0.10226277398E+03  0.10260613580E+03  0.48465771156E+03  0.40000000000E+03 0.  1.
<mgrwt>
<rscale>  2 0.47375653E+03</rscale>
<asrwt>0</asrwt>
<pdfrwt beam="1">  1       21 0.13134908E+00 0.47378474E+03</pdfrwt>
<pdfrwt beam="2">  1       21 0.44801841E-01 0.47378474E+03</pdfrwt>
<totfact> 0.17092560E+03</totfact>
</mgrwt>
</event>
<event>
 6    1  0.9163926E-004  0.5268612E+03  0.7818608E-02  0.1007055E+00
         21   -1    0    0  501  502  0.00000000000E+00  0.00000000000E+00  0.10892793279E+04  0.10892793279E+04  0.00000000000E+00 0. -1.
         21   -1    0    0  502  503 -0.00000000000E+00 -0.00000000000E+00 -0.36271650909E+03  0.36271650909E+03  0.00000000000E+00 0. -1.
    9000007    2    1    2  501    0  0.26857569445E+03  0.21081114228E+03 -0.33278109182E+02  0.52791116705E+03  0.40125867765E+03 0.  0.
    9000005    1    3    3    0    0  0.32154902608E+03  0.85678839565E+02 -0.13403359021E+03  0.35874871849E+03  0.99999687468E+00 0.  0.
          4    1    3    3  501    0 -0.52973331627E+02  0.12513230272E+03  0.10075548102E+03  0.16916244856E+03  0.00000000000E+00 0.  1.
   -9000007    1    1    2    0  503 -0.26857569445E+03 -0.21081114228E+03  0.75984092796E+03  0.92408466991E+03  0.40000000000E+03 0. -1.
<mgrwt>
<rscale>  2 0.52662158E+03</rscale>
<asrwt>0</asrwt>
<pdfrwt beam="1">  1       21 0.16758143E+00 0.52686124E+03</pdfrwt>
<pdfrwt beam="2">  1       21 0.55802540E-01 0.52686124E+03</pdfrwt>
<totfact> 0.54035968E+02</totfact>
</mgrwt>
</event>
<event>
 6    1  0.9163926E-004  0.5551630E+03  0.7818608E-02  0.1000325E+00
         21   -1    0    0  501  502  0.00000000000E+00  0.00000000000E+00  0.66594344269E+03  0.66594344269E+03  0.00000000000E+00 0. -1.
         21   -1    0    0  502  503 -0.00000000000E+00 -0.00000000000E+00 -0.46835474919E+03  0.46835474919E+03  0.00000000000E+00 0. -1.
    9000007    2    1    2  501    0 -0.35541420304E+03  0.14794153839E+03  0.35555061340E+02  0.55597228683E+03  0.39954357314E+03 0.  0.
    9000005    1    3    3    0    0  0.46903122440E+02  0.12713316721E+03  0.68369100456E+02  0.15178299967E+03  0.99999687468E+00 0.  0.
          4    1    3    3  501    0 -0.40231732548E+03  0.20808371186E+02 -0.32814039116E+02  0.40418928716E+03  0.00000000000E+00 0.  1.
   -9000007    1    1    2    0  503  0.35541420304E+03 -0.14794153839E+03  0.16203363215E+03  0.57832590505E+03  0.40000000000E+03 0. -1.
<mgrwt>
<rscale>  2 0.55508079E+03</rscale>
<asrwt>0</asrwt>
<pdfrwt beam="1">  1       21 0.10245284E+00 0.55516300E+03</pdfrwt>
<pdfrwt beam="2">  1       21 0.72054577E-01 0.55516300E+03</pdfrwt>
<totfact> 0.11052279E+03</totfact>
</mgrwt>
</event>
<event>
 6    1  0.9163926E-004  0.4270029E+03  0.7818608E-02  0.1034827E+00
         21   -1    0    0  501  502  0.00000000000E+00  0.00000000000E+00  0.12524294180E+04  0.12524294180E+04  0.00000000000E+00 0.  1.
         21   -1    0    0  502  503 -0.00000000000E+00 -0.00000000000E+00 -0.50310540117E+03  0.50310540117E+03  0.00000000000E+00 0.  1.
    9000007    2    1    2  501    0  0.14837686127E+03 -0.12065800070E+02  0.11147070735E+04  0.11936931558E+04  0.40021271088E+03 0.  0.
    9000005    1    3    3    0    0  0.21535979455E+03  0.19811301550E+02  0.27094473602E+03  0.34667618717E+03  0.99999687468E+00 0.  0.
          4    1    3    3  501    0 -0.66982933280E+02 -0.31877101620E+02  0.84376233752E+03  0.84701696865E+03  0.00000000000E+00 0.  1.
   -9000007    1    1    2    0  503 -0.14837686127E+03  0.12065800070E+02 -0.36538305675E+03  0.56184166333E+03  0.40000000000E+03 0.  1.
<mgrwt>
<rscale>  2 0.42695307E+03</rscale>
<asrwt>0</asrwt>
<pdfrwt beam="1">  1       21 0.19268145E+00 0.42700292E+03</pdfrwt>
<pdfrwt beam="2">  1       21 0.77400831E-01 0.42700292E+03</pdfrwt>
<totfact> 0.18155895E+02</totfact>
</mgrwt>
</event>
<event>
 6    1  0.9163926E-004  0.4483341E+03  0.7818608E-02  0.1029010E+00
         21   -1    0    0  501  502  0.00000000000E+00  0.00000000000E+00  0.66307683574E+03  0.66307683574E+03  0.00000000000E+00 0.  1.
         21   -1    0    0  502  503 -0.00000000000E+00 -0.00000000000E+00 -0.35303736610E+03  0.35303736610E+03  0.00000000000E+00 0.  1.
    9000007    2    1    2  501    0 -0.84583828617E+02  0.15688535039E+03  0.36051275511E+03  0.57530246223E+03  0.41138308086E+03 0.  0.
    9000005    1    3    3    0    0 -0.73059806207E+01  0.20615546527E+03  0.30833646234E+01  0.20631034958E+03  0.99999687468E+00 0.  0.
          4    1    3    3  501    0 -0.77277847996E+02 -0.49270114878E+02  0.35742939049E+03  0.36899211265E+03  0.00000000000E+00 0.  1.
   -9000007    1    1    2    0  503  0.84583828617E+02 -0.15688535039E+03 -0.50473285468E+02  0.44081173961E+03  0.40000000000E+03 0.  1.
<mgrwt>
<rscale>  2 0.44570571E+03</rscale>
<asrwt>0</asrwt>
<pdfrwt beam="1">  1       21 0.10201182E+00 0.44833411E+03</pdfrwt>
<pdfrwt beam="2">  1       21 0.54313441E-01 0.44833411E+03</pdfrwt>
<totfact> 0.21672969E+03</totfact>
</mgrwt>
</event>
<event>
 6    1  0.9163926E-004  0.4245509E+03  0.7818608E-02  0.1035822E+00
         21   -1    0    0  501  502  0.00000000000E+00  0.00000000000E+00  0.77953892262E+03  0.77953892262E+03  0.00000000000E+00 0.  1.
         21   -1    0    0  502  503 -0.00000000000E+00 -0.00000000000E+00 -0.22976525036E+03  0.22976525036E+03  0.00000000000E+00 0.  1.
    9000007    2    1    2  501    0 -0.91868468093E+02  0.97047350669E+02  0.28520633228E+03  0.51145491760E+03  0.40297081415E+03 0.  0.
    9000005    1    3    3    0    0 -0.18776659743E+03 -0.35184836957E+02  0.29088832703E+03  0.34801046918E+03  0.99999687468E+00 0.  0.
          4    1    3    3  501    0  0.95898129334E+02  0.13223218763E+03 -0.56819947513E+01  0.16344444842E+03  0.00000000000E+00 0.  1.
   -9000007    1    1    2    0  503  0.91868468093E+02 -0.97047350669E+02  0.26456733997E+03  0.49784925538E+03  0.40000000000E+03 0.  1.
<mgrwt>
<rscale>  2 0.42384446E+03</rscale>
<asrwt>0</asrwt>
<pdfrwt beam="1">  1       21 0.11992906E+00 0.42455092E+03</pdfrwt>
<pdfrwt beam="2">  1       21 0.35348500E-01 0.42455092E+03</pdfrwt>
<totfact> 0.35845581E+03</totfact>
</mgrwt>
</event>
<event>
 6    1  0.9163926E-004  0.4358004E+03  0.7818608E-02  0.1032066E+00
         21   -1    0    0  501  502  0.00000000000E+00  0.00000000000E+00  0.13645571066E+04  0.13645571066E+04  0.00000000000E+00 0. -1.
         21   -1    0    0  502  503 -0.00000000000E+00 -0.00000000000E+00 -0.59492008159E+03  0.59492008159E+03  0.00000000000E+00 0. -1.
    9000007    2    1    2  501    0  0.14243335253E+03 -0.96846423771E+02  0.12424454711E+04  0.13166597053E+04  0.40031929922E+03 0.  0.
    9000005    1    3    3    0    0  0.32033238941E+02 -0.18028815197E+03  0.22616687599E+03  0.29100240880E+03  0.99999687468E+00 0.  0.
          4    1    3    3  501    0  0.11040011359E+03  0.83441728204E+02  0.10162785951E+04  0.10256572965E+04  0.00000000000E+00 0.  1.
   -9000007    1    1    2    0  503 -0.14243335253E+03  0.96846423771E+02 -0.47280844601E+03  0.64281748291E+03  0.40000000000E+03 0. -1.
<mgrwt>
<rscale>  2 0.43572711E+03</rscale>
<asrwt>0</asrwt>
<pdfrwt beam="1">  1       21 0.20993186E+00 0.43580045E+03</pdfrwt>
<pdfrwt beam="2">  1       21 0.91526167E-01 0.43580045E+03</pdfrwt>
<totfact> 0.93846643E+01</totfact>
</mgrwt>
</event>
<event>
 6    1  0.9163926E-004  0.4418095E+03  0.7818608E-02  0.1030227E+00
         21   -1    0    0  501  502  0.00000000000E+00  0.00000000000E+00  0.17568206358E+03  0.17568206358E+03  0.00000000000E+00 0.  1.
         21   -1    0    0  502  503 -0.00000000000E+00 -0.00000000000E+00 -0.12288063685E+04  0.12288063685E+04  0.00000000000E+00 0.  1.
    9000007    2    1    2  501    0  0.14126056621E+03  0.12185942188E+03 -0.30840669173E+03  0.53880454655E+03  0.40048893319E+03 0.  0.
    9000005    1    3    3    0    0  0.12650168331E+03 -0.10069596409E+02  0.64941708477E+02  0.14255699964E+03  0.99999687468E+00 0.  0.
          4    1    3    3  501    0  0.14758882899E+02  0.13192901829E+03 -0.37334840021E+03  0.39624754691E+03  0.00000000000E+00 0.  1.
   -9000007    1    1    2    0  503 -0.14126056621E+03 -0.12185942188E+03 -0.74471761317E+03  0.86568388551E+03  0.40000000000E+03 0.  1.
<mgrwt>
<rscale>  2 0.44169869E+03</rscale>
<asrwt>0</asrwt>
<pdfrwt beam="1">  1       21 0.27028010E-01 0.44180952E+03</pdfrwt>
<pdfrwt beam="2">  1       21 0.18904713E+00 0.44180952E+03</pdfrwt>
<totfact> 0.17522945E+03</totfact>
</mgrwt>
</event>
<event>
 6    1  0.9163926E-004  0.4967279E+03  0.7818608E-02  0.1014648E+00
         21   -1    0    0  501  502  0.00000000000E+00  0.00000000000E+00  0.67754010267E+03  0.67754010267E+03  0.00000000000E+00 0. -1.
         21   -1    0    0  502  503 -0.00000000000E+00 -0.00000000000E+00 -0.59358839659E+03  0.59358839659E+03  0.00000000000E+00 0. -1.
    9000007    2    1    2  501    0 -0.16082804347E+03  0.24636928257E+03  0.43721490370E+03  0.66173669610E+03  0.40021881514E+03 0.  0.
    9000005    1    3    3    0    0 -0.27903275436E+03  0.20133834556E+03  0.21410257666E+03  0.40526203958E+03  0.99999687468E+00 0.  0.
          4    1    3    3  501    0  0.11820471088E+03  0.45030937004E+02  0.22311232704E+03  0.25647465652E+03  0.00000000000E+00 0.  1.
   -9000007    1    1    2    0  503  0.16082804347E+03 -0.24636928257E+03 -0.35326319762E+03  0.60939180316E+03  0.40000000000E+03 0. -1.
<mgrwt>
<rscale>  2 0.49668380E+03</rscale>
<asrwt>0</asrwt>
<pdfrwt beam="1">  1       21 0.10423694E+00 0.49672788E+03</pdfrwt>
<pdfrwt beam="2">  1       21 0.91321292E-01 0.49672788E+03</pdfrwt>
<totfact> 0.62313112E+02</totfact>
</mgrwt>
</event>
<event>
 6    1  0.9163926E-004  0.6807173E+03  0.7818608E-02  0.9750913E-01
         21   -1    0    0  501  502  0.00000000000E+00  0.00000000000E+00  0.21518245977E+03  0.21518245977E+03  0.00000000000E+00 0. -1.
         21   -1    0    0  502  503 -0.00000000000E+00 -0.00000000000E+00 -0.26968588007E+04  0.26968588007E+04  0.00000000000E+00 0. -1.
    9000007    2    1    2  501    0  0.31869820759E+03 -0.44922988886E+03 -0.18947770044E+04  0.20132493647E+04  0.39952104799E+03 0.  0.
    9000005    1    3    3    0    0  0.39131787305E+03 -0.43848083155E+03 -0.17990700004E+04  0.18926301762E+04  0.99999687468E+00 0.  0.
          4    1    3    3  501    0 -0.72619665454E+02 -0.10749057301E+02 -0.95707003961E+02  0.12061918857E+03  0.00000000000E+00 0.  1.
   -9000007    1    1    2    0  503 -0.31869820759E+03  0.44922988886E+03 -0.58689933658E+03  0.89879189573E+03  0.40000000000E+03 0. -1.
<mgrwt>
<rscale>  2 0.68064696E+03</rscale>
<asrwt>0</asrwt>
<pdfrwt beam="1">  1       21 0.33104993E-01 0.68071730E+03</pdfrwt>
<pdfrwt beam="2">  1       21 0.41490136E+00 0.68071730E+03</pdfrwt>
<totfact> 0.39905231E+01</totfact>
</mgrwt>
</event>
<event>
 6    1  0.9163926E-004  0.4506588E+03  0.7818608E-02  0.1027633E+00
         21   -1    0    0  501  502  0.00000000000E+00  0.00000000000E+00  0.11317969671E+04  0.11317969671E+04  0.00000000000E+00 0. -1.
         21   -1    0    0  502  503 -0.00000000000E+00 -0.00000000000E+00 -0.22368696701E+03  0.22368696701E+03  0.00000000000E+00 0. -1.
    9000007    2    1    2  501    0 -0.87149581897E+02  0.18841004715E+03  0.75683160727E+03  0.88011192441E+03  0.39838363700E+03 0.  0.
    9000005    1    3    3    0    0 -0.17047662079E+03  0.14549689504E+03  0.75371452875E+03  0.78633212801E+03  0.99999687468E+00 0.  0.
          4    1    3    3  501    0  0.83327038891E+02  0.42913152107E+02  0.31170785258E+01  0.93779796399E+02  0.00000000000E+00 0.  1.
   -9000007    1    1    2    0  503  0.87149581897E+02 -0.18841004715E+03  0.15127839283E+03  0.47537200972E+03  0.40000000000E+03 0. -1.
<mgrwt>
<rscale>  2 0.45029991E+03</rscale>
<asrwt>0</asrwt>
<pdfrwt beam="1">  1       21 0.17412261E+00 0.45065885E+03</pdfrwt>
<pdfrwt beam="2">  1       21 0.34413380E-01 0.45065885E+03</pdfrwt>
<totfact> 0.13734389E+03</totfact>
</mgrwt>
</event>
<event>
 6    1  0.9163926E-004  0.4528809E+03  0.7818608E-02  0.1026932E+00
         21   -1    0    0  501  502  0.00000000000E+00  0.00000000000E+00  0.13720352699E+03  0.13720352699E+03  0.00000000000E+00 0.  1.
         21   -1    0    0  502  503 -0.00000000000E+00 -0.00000000000E+00 -0.20787909540E+04  0.20787909540E+04  0.00000000000E+00 0.  1.
    9000007    2    1    2  501    0 -0.18654515044E+03  0.10149889364E+03 -0.38141549213E+03  0.59142143402E+03  0.39899926870E+03 0.  0.
    9000005    1    3    3    0    0  0.39824005517E+02 -0.11288913608E+03 -0.19306463438E+03  0.22716703436E+03  0.99999687468E+00 0.  0.
          4    1    3    3  501    0 -0.22636915596E+03  0.21438802972E+03 -0.18835085776E+03  0.36425439966E+03  0.00000000000E+00 0.  1.
   -9000007    1    1    2    0  503  0.18654515044E+03 -0.10149889364E+03 -0.15601719349E+04  0.16245730470E+04  0.40000000000E+03 0.  1.
<mgrwt>
<rscale>  2 0.45265984E+03</rscale>
<asrwt>0</asrwt>
<pdfrwt beam="1">  1       21 0.21108235E-01 0.45288091E+03</pdfrwt>
<pdfrwt beam="2">  1       21 0.31981399E+00 0.45288091E+03</pdfrwt>
<totfact> 0.43173739E+02</totfact>
</mgrwt>
</event>
<event>
 6    1  0.9163926E-004  0.4278951E+03  0.7818608E-02  0.1034587E+00
         21   -1    0    0  501  502  0.00000000000E+00  0.00000000000E+00  0.24528005040E+03  0.24528005040E+03  0.00000000000E+00 0. -1.
         21   -1    0    0  502  503 -0.00000000000E+00 -0.00000000000E+00 -0.11268019199E+04  0.11268019199E+04  0.00000000000E+00 0. -1.
    9000007    2    1    2  501    0 -0.14542601596E+03  0.44107520380E+02 -0.41235680079E+02  0.42912116538E+03  0.39918716637E+03 0.  0.
    9000005    1    3    3    0    0 -0.59892549334E+02  0.69305727327E+02  0.17372681215E+03  0.19639859103E+03  0.99999687468E+00 0.  0.
          4    1    3    3  501    0 -0.85533466629E+02 -0.25198206948E+02 -0.21496249223E+03  0.23272257435E+03  0.00000000000E+00 0.  1.
   -9000007    1    1    2    0  503  0.14542601596E+03 -0.44107520380E+02 -0.84028618941E+03  0.94296080490E+03  0.40000000000E+03 0. -1.
<mgrwt>
<rscale>  2 0.42770502E+03</rscale>
<asrwt>0</asrwt>
<pdfrwt beam="1">  1       21 0.37735392E-01 0.42789508E+03</pdfrwt>
<pdfrwt beam="2">  1       21 0.17335414E+00 0.42789508E+03</pdfrwt>
<totfact> 0.11653262E+03</totfact>
</mgrwt>
</event>
<event>
 6    1  0.9163926E-004  0.9370340E+03  0.7818608E-02  0.9380517E-01
         21   -1    0    0  501  502  0.00000000000E+00  0.00000000000E+00  0.13825333825E+04  0.13825333825E+04  0.00000000000E+00 0.  1.
         21   -1    0    0  502  503 -0.00000000000E+00 -0.00000000000E+00 -0.10803717442E+04  0.10803717442E+04  0.00000000000E+00 0. -1.
    9000007    2    1    2  501    0  0.81717483489E+03  0.22302951328E+03  0.94184466931E+03  0.13285721709E+04  0.40064417819E+03 0.  0.
    9000005    1    3    3    0    0  0.30735588093E+03  0.21380879428E+03  0.18928831531E+03  0.41953891877E+03  0.99999687468E+00 0.  0.
          4    1    3    3  501    0  0.50981895396E+03  0.92207190041E+01  0.75255635400E+03  0.90903325209E+03  0.00000000000E+00 0.  1.
   -9000007    1    1    2    0  503 -0.81717483489E+03 -0.22302951328E+03 -0.63968303098E+03  0.11343329558E+04  0.40000000000E+03 0. -1.
<mgrwt>
<rscale>  2 0.93696514E+03</rscale>
<asrwt>0</asrwt>
<pdfrwt beam="1">  1       21 0.21269744E+00 0.93703395E+03</pdfrwt>
<pdfrwt beam="2">  1       21 0.16621104E+00 0.93703395E+03</pdfrwt>
<totfact> 0.15424051E+01</totfact>
</mgrwt>
</event>
<event>
 6    1  0.9163926E-004  0.4167108E+03  0.7818608E-02  0.1038276E+00
         21   -1    0    0  501  502  0.00000000000E+00  0.00000000000E+00  0.75672662964E+03  0.75672662964E+03  0.00000000000E+00 0. -1.
         21   -1    0    0  502  503 -0.00000000000E+00 -0.00000000000E+00 -0.26359577794E+03  0.26359577794E+03  0.00000000000E+00 0.  1.
    9000007    2    1    2  501    0  0.67700989764E+02 -0.87802257303E+02  0.61035390178E+02  0.42115703119E+03  0.40169050980E+03 0.  0.
    9000005    1    3    3    0    0  0.60045353117E+01 -0.83631428702E+02  0.22809519310E+03  0.24301993214E+03  0.99999687468E+00 0.  0.
          4    1    3    3  501    0  0.61696454452E+02 -0.41708286015E+01 -0.16705980292E+03  0.17813709904E+03  0.00000000000E+00 0.  1.
   -9000007    1    1    2    0  503 -0.67700989764E+02  0.87802257303E+02  0.43209546152E+03  0.59916537640E+03  0.40000000000E+03 0. -1.
<mgrwt>
<rscale>  2 0.41630291E+03</rscale>
<asrwt>0</asrwt>
<pdfrwt beam="1">  1       21 0.11641948E+00 0.41671084E+03</pdfrwt>
<pdfrwt beam="2">  1       21 0.40553197E-01 0.41671084E+03</pdfrwt>
<totfact> 0.29272492E+03</totfact>
</mgrwt>
</event>
<event>
 6    1  0.9163926E-004  0.4862868E+03  0.7818608E-02  0.1017452E+00
         21   -1    0    0  501  502  0.00000000000E+00  0.00000000000E+00  0.57616670101E+03  0.57616670101E+03  0.00000000000E+00 0.  1.
         21   -1    0    0  502  503 -0.00000000000E+00 -0.00000000000E+00 -0.12514881037E+04  0.12514881037E+04  0.00000000000E+00 0. -1.
    9000007    2    1    2  501    0 -0.25035857004E+03 -0.11556557174E+03  0.41160023750E+03  0.63709465634E+03  0.40054966068E+03 0.  0.
    9000005    1    3    3    0    0 -0.29958610427E+03 -0.96357419293E+02  0.11380556055E+03  0.33464801169E+03  0.99999687468E+00 0.  0.
          4    1    3    3  501    0  0.49227534228E+02 -0.19208152445E+02  0.29779467694E+03  0.30244664465E+03  0.00000000000E+00 0.  1.
   -9000007    1    1    2    0  503  0.25035857004E+03  0.11556557174E+03 -0.10869216402E+04  0.11905601483E+04  0.40000000000E+03 0. -1.
<mgrwt>
<rscale>  2 0.48617359E+03</rscale>
<asrwt>0</asrwt>
<pdfrwt beam="1">  1       21 0.88641032E-01 0.48628679E+03</pdfrwt>
<pdfrwt beam="2">  1       21 0.19253663E+00 0.48628679E+03</pdfrwt>
<totfact> 0.12851709E+02</totfact>
</mgrwt>
</event>
<event>
 6    1  0.9163926E-004  0.4317121E+03  0.7818608E-02  0.1033323E+00
         21   -1    0    0  501  502  0.00000000000E+00  0.00000000000E+00  0.33660433072E+03  0.33660433072E+03  0.00000000000E+00 0. -1.
         21   -1    0    0  502  503 -0.00000000000E+00 -0.00000000000E+00 -0.81761182262E+03  0.81761182262E+03  0.00000000000E+00 0. -1.
    9000007    2    1    2  501    0  0.19035240411E+02  0.16128534470E+03  0.87416155742E+02  0.44043695359E+03  0.39995977674E+03 0.  0.
    9000005    1    3    3    0    0  0.45671240529E+02 -0.31826026233E+02  0.20523931799E+03  0.21265684987E+03  0.99999687468E+00 0.  0.
          4    1    3    3  501    0 -0.26636000118E+02  0.19311137094E+03 -0.11782316224E+03  0.22778010372E+03  0.00000000000E+00 0.  1.
   -9000007    1    1    2    0  503 -0.19035240411E+02 -0.16128534470E+03 -0.56842364764E+03  0.71377919974E+03  0.40000000000E+03 0. -1.
<mgrwt>
<rscale>  2 0.43170274E+03</rscale>
<asrwt>0</asrwt>
<pdfrwt beam="1">  1       21 0.51785282E-01 0.43171206E+03</pdfrwt>
<pdfrwt beam="2">  1       21 0.12578643E+00 0.43171206E+03</pdfrwt>
<totfact> 0.14308258E+03</totfact>
</mgrwt>
</event>
<event>
 6    1  0.9163926E-004  0.5698091E+03  0.7818608E-02  0.9970175E-01
         21   -1    0    0  501  502  0.00000000000E+00  0.00000000000E+00  0.19061443235E+04  0.19061443235E+04  0.00000000000E+00 0. -1.
         21   -1    0    0  502  503 -0.00000000000E+00 -0.00000000000E+00 -0.27283267448E+03  0.27283267448E+03  0.00000000000E+00 0.  1.
    9000007    2    1    2  501    0  0.24219462807E+03  0.32561347295E+03  0.14845037941E+04  0.15900575219E+04  0.39981125112E+03 0.  0.
    9000005    1    3    3    0    0  0.21650988083E+03  0.41962868396E+03  0.12250454165E+04  0.13128983333E+04  0.99999687468E+00 0.  0.
          4    1    3    3  501    0  0.25684747244E+02 -0.94015211016E+02  0.25945837757E+03  0.27715918861E+03  0.00000000000E+00 0.  1.
   -9000007    1    1    2    0  503 -0.24219462807E+03 -0.32561347295E+03  0.14880785489E+03  0.58891947608E+03  0.40000000000E+03 0.  1.
<mgrwt>
<rscale>  2 0.56977594E+03</rscale>
<asrwt>0</asrwt>
<pdfrwt beam="1">  1       21 0.29325296E+00 0.56980907E+03</pdfrwt>
<pdfrwt beam="2">  1       21 0.41974259E-01 0.56980907E+03</pdfrwt>
<totfact> 0.14936962E+02</totfact>
</mgrwt>
</event>
<event>
 6    1  0.9163926E-004  0.4113578E+03  0.7818608E-02  0.1039981E+00
         21   -1    0    0  501  502  0.00000000000E+00  0.00000000000E+00  0.13393950347E+04  0.13393950347E+04  0.00000000000E+00 0.  1.
         21   -1    0    0  502  503 -0.00000000000E+00 -0.00000000000E+00 -0.12610272013E+03  0.12610272013E+03  0.00000000000E+00 0.  1.
    9000007    2    1    2  501    0  0.58255568739E+01 -0.95819204323E+02  0.60925171566E+03  0.73468977584E+03  0.39920690959E+03 0.  0.
    9000005    1    3    3    0    0  0.17431039721E+03 -0.65696641835E+02  0.49503182158E+03  0.52892123015E+03  0.99999687468E+00 0.  0.
          4    1    3    3  501    0 -0.16848484034E+03 -0.30122562489E+02  0.11421989407E+03  0.20576854569E+03  0.00000000000E+00 0.  1.
   -9000007    1    1    2    0  503 -0.58255568739E+01  0.95819204323E+02  0.60404059896E+03  0.73080797904E+03  0.40000000000E+03 0.  1.
<mgrwt>
<rscale>  2 0.41116490E+03</rscale>
<asrwt>0</asrwt>
<pdfrwt beam="1">  1       21 0.20606076E+00 0.41135782E+03</pdfrwt>
<pdfrwt beam="2">  1       21 0.19400419E-01 0.41135782E+03</pdfrwt>
<totfact> 0.25881787E+03</totfact>
</mgrwt>
</event>
<event>
 6    1  0.9163926E-004  0.8229687E+03  0.7818608E-02  0.9527439E-01
         21   -1    0    0  501  502  0.00000000000E+00  0.00000000000E+00  0.43184455897E+03  0.43184455897E+03  0.00000000000E+00 0. -1.
         21   -1    0    0  502  503 -0.00000000000E+00 -0.00000000000E+00 -0.15810020020E+04  0.15810020020E+04  0.00000000000E+00 0.  1.
    9000007    2    1    2  501    0  0.45743941206E+03  0.55500154462E+03 -0.48277056688E+03  0.95390888624E+03  0.39949619869E+03 0.  0.
    9000005    1    3    3    0    0  0.24933202507E+03  0.48646460144E+03 -0.17083318643E+03  0.57271218318E+03  0.99999687468E+00 0.  0.
          4    1    3    3  501    0  0.20810738699E+03  0.68536943172E+02 -0.31193738045E+03  0.38119670306E+03  0.00000000000E+00 0.  1.
   -9000007    1    1    2    0  503 -0.45743941206E+03 -0.55500154462E+03 -0.66638687612E+03  0.10589376747E+04  0.40000000000E+03 0.  1.
<mgrwt>
<rscale>  2 0.82290753E+03</rscale>
<asrwt>0</asrwt>
<pdfrwt beam="1">  1       21 0.66437624E-01 0.82296873E+03</pdfrwt>
<pdfrwt beam="2">  1       21 0.24323108E+00 0.82296873E+03</pdfrwt>
<totfact> 0.10224724E+02</totfact>
</mgrwt>
</event>
<event>
 6    1  0.9163926E-004  0.4706026E+03  0.7818608E-02  0.1021754E+00
         21   -1    0    0  501  502  0.00000000000E+00  0.00000000000E+00  0.23642442376E+04  0.23642442376E+04  0.00000000000E+00 0. -1.
         21   -1    0    0  502  503 -0.00000000000E+00 -0.00000000000E+00 -0.94324175211E+02  0.94324175211E+02  0.00000000000E+00 0. -1.
    9000007    2    1    2  501    0 -0.10644381358E+03 -0.22379529018E+03  0.10320571339E+04  0.11342877601E+04  0.40006521690E+03 0.  0.
    9000005    1    3    3    0    0  0.26620209940E+02 -0.28672968828E+03  0.45272073430E+03  0.53654413889E+03  0.99999687468E+00 0.  0.
          4    1    3    3  501    0 -0.13306402352E+03  0.62934398103E+02  0.57933639959E+03  0.59774362122E+03  0.00000000000E+00 0.  1.
   -9000007    1    1    2    0  503  0.10644381358E+03  0.22379529018E+03  0.12378629285E+04  0.13242806527E+04  0.40000000000E+03 0. -1.
<mgrwt>
<rscale>  2 0.47058873E+03</rscale>
<asrwt>0</asrwt>
<pdfrwt beam="1">  1       21 0.36372984E+00 0.47060259E+03</pdfrwt>
<pdfrwt beam="2">  1       21 0.14511413E-01 0.47060259E+03</pdfrwt>
<totfact> 0.46590114E+02</totfact>
</mgrwt>
</event>
<event>
 6    1  0.9163926E-004  0.4209801E+03  0.7818608E-02  0.1036748E+00
         21   -1    0    0  501  502  0.00000000000E+00  0.00000000000E+00  0.42590498794E+03  0.42590498794E+03  0.00000000000E+00 0.  1.
         21   -1    0    0  502  503 -0.00000000000E+00 -0.00000000000E+00 -0.73747354620E+03  0.73747354620E+03  0.00000000000E+00 0.  1.
    9000007    2    1    2  501    0 -0.95930292838E+02  0.89563439696E+02  0.22820242043E+03  0.47885173389E+03  0.39999800942E+03 0.  0.
    9000005    1    3    3    0    0 -0.86669729248E+01  0.24322024708E+03  0.11672839553E+03  0.26992169851E+03  0.99999687468E+00 0.  0.
          4    1    3    3  501    0 -0.87263319913E+02 -0.15365680738E+03  0.11147402490E+03  0.20893003538E+03  0.00000000000E+00 0.  1.
   -9000007    1    1    2    0  503  0.95930292838E+02 -0.89563439696E+02 -0.53977097870E+03  0.68452680025E+03  0.40000000000E+03 0.  1.
<mgrwt>
<rscale>  2 0.42097961E+03</rscale>
<asrwt>0</asrwt>
<pdfrwt beam="1">  1       21 0.65523845E-01 0.42098008E+03</pdfrwt>
<pdfrwt beam="2">  1       21 0.11345747E+00 0.42098008E+03</pdfrwt>
<totfact> 0.11179183E+03</totfact>
</mgrwt>
</event>
<event>
 6    1  0.9163926E-004  0.5276200E+03  0.7818608E-02  0.1006828E+00
         21   -1    0    0  501  502  0.00000000000E+00  0.00000000000E+00  0.19433743059E+03  0.19433743059E+03  0.00000000000E+00 0. -1.
         21   -1    0    0  502  503 -0.00000000000E+00 -0.00000000000E+00 -0.14335676686E+04  0.14335676686E+04  0.00000000000E+00 0. -1.
    9000007    2    1    2  501    0 -0.34300829954E+03 -0.20988917563E+02 -0.64890553856E+03  0.83633799592E+03  0.40035936012E+03 0.  0.
    9000005    1    3    3    0    0 -0.33156392642E+03 -0.15422137133E+03 -0.33827279003E+03  0.49814490778E+03  0.99999687468E+00 0.  0.
          4    1    3    3  501    0 -0.11444373130E+02  0.13323245377E+03 -0.31063274852E+03  0.33819308814E+03  0.00000000000E+00 0.  1.
   -9000007    1    1    2    0  503  0.34300829954E+03  0.20988917563E+02 -0.59032469949E+03  0.79156710331E+03  0.40000000000E+03 0.  1.
<mgrwt>
<rscale>  2 0.52755181E+03</rscale>
<asrwt>0</asrwt>
<pdfrwt beam="1">  1       21 0.29898067E-01 0.52761998E+03</pdfrwt>
<pdfrwt beam="2">  1       21 0.22054887E+00 0.52761998E+03</pdfrwt>
<totfact> 0.85621811E+02</totfact>
</mgrwt>
</event>
<event>
 6    1  0.9163926E-004  0.5542288E+03  0.7818608E-02  0.1000526E+00
         21   -1    0    0  501  502  0.00000000000E+00  0.00000000000E+00  0.83162389676E+03  0.83162389676E+03  0.00000000000E+00 0. -1.
         21   -1    0    0  502  503 -0.00000000000E+00 -0.00000000000E+00 -0.54678740281E+03  0.54678740281E+03  0.00000000000E+00 0. -1.
    9000007    2    1    2  501    0  0.17028274223E+03  0.34376350238E+03  0.53508219459E+03  0.77030566026E+03  0.39986034736E+03 0.  0.
    9000005    1    3    3    0    0 -0.10809152605E+03  0.19841916585E+03  0.31145604265E+03  0.38478540757E+03  0.99999687468E+00 0.  0.
          4    1    3    3  501    0  0.27837426828E+03  0.14534433653E+03  0.22362615194E+03  0.38552025269E+03  0.00000000000E+00 0.  1.
   -9000007    1    1    2    0  503 -0.17028274223E+03 -0.34376350238E+03 -0.25024570063E+03  0.60810563931E+03  0.40000000000E+03 0. -1.
<mgrwt>
<rscale>  2 0.55420360E+03</rscale>
<asrwt>0</asrwt>
<pdfrwt beam="1">  1       21 0.12794214E+00 0.55422880E+03</pdfrwt>
<pdfrwt beam="2">  1       21 0.84121139E-01 0.55422880E+03</pdfrwt>
<totfact> 0.44122870E+02</totfact>
</mgrwt>
</event>
<event>
 6    1  0.9163926E-004  0.5856312E+03  0.7818608E-02  0.9935678E-01
         21   -1    0    0  501  502  0.00000000000E+00  0.00000000000E+00  0.47274188067E+03  0.47274188067E+03  0.00000000000E+00 0.  1.
         21   -1    0    0  502  503 -0.00000000000E+00 -0.00000000000E+00 -0.95623680998E+03  0.95623680998E+03  0.00000000000E+00 0. -1.
    9000007    2    1    2  501    0  0.31185753572E+02  0.42659212944E+03  0.10924741240E+03  0.59573390082E+03  0.40001310896E+03 0.  0.
    9000005    1    3    3    0    0  0.13788940707E+03  0.19318464842E+02 -0.46546631207E+02  0.14681376140E+03  0.99999687468E+00 0.  0.
          4    1    3    3  501    0 -0.10670365350E+03  0.40727366460E+03  0.15579404361E+03  0.44892013941E+03  0.00000000000E+00 0.  1.
   -9000007    1    1    2    0  503 -0.31185753572E+02 -0.42659212944E+03 -0.59274234170E+03  0.83324478983E+03  0.40000000000E+03 0. -1.
<mgrwt>
<rscale>  2 0.58562895E+03</rscale>
<asrwt>0</asrwt>
<pdfrwt beam="1">  1       21 0.72729520E-01 0.58563118E+03</pdfrwt>
<pdfrwt beam="2">  1       21 0.14711335E+00 0.58563118E+03</pdfrwt>
<totfact> 0.42130431E+02</totfact>
</mgrwt>
</event>
<event>
 6    1  0.9163926E-004  0.4014703E+03  0.7818608E-02  0.1043477E+00
         21   -1    0    0  501  502  0.00000000000E+00  0.00000000000E+00  0.11474877220E+04  0.11474877220E+04  0.00000000000E+00 0.  1.
         21   -1    0    0  502  503 -0.00000000000E+00 -0.00000000000E+00 -0.78338172383E+03  0.78338172383E+03  0.00000000000E+00 0.  1.
    9000007    2    1    2  501    0 -0.33466443594E+02  0.76422584909E+01  0.10571313355E+04  0.11299558893E+04  0.39761192688E+03 0.  0.
    9000005    1    3    3    0    0 -0.12664896979E+03 -0.13189113046E+03  0.27648669047E+03  0.33148321503E+03  0.99999687468E+00 0.  0.
          4    1    3    3  501    0  0.93182526193E+02  0.13953338895E+03  0.78064464501E+03  0.79847267430E+03  0.00000000000E+00 0.  1.
   -9000007    1    1    2    0  503  0.33466443594E+02 -0.76422584909E+01 -0.69302533728E+03  0.80091355655E+03  0.40000000000E+03 0.  1.
<mgrwt>
<rscale>  2 0.40087416E+03</rscale>
<asrwt>0</asrwt>
<pdfrwt beam="1">  1       21 0.17653657E+00 0.40147031E+03</pdfrwt>
<pdfrwt beam="2">  1       21 0.12052026E+00 0.40147031E+03</pdfrwt>
<totfact> 0.82235729E+01</totfact>
</mgrwt>
</event>
<event>
 6    1  0.9163926E-004  0.4486878E+03  0.7818608E-02  0.1028586E+00
         21   -1    0    0  501  502  0.00000000000E+00  0.00000000000E+00  0.16590845254E+04  0.16590845254E+04  0.00000000000E+00 0. -1.
         21   -1    0    0  502  503 -0.00000000000E+00 -0.00000000000E+00 -0.13312569604E+03  0.13312569604E+03  0.00000000000E+00 0.  1.
    9000007    2    1    2  501    0 -0.80590927435E+01 -0.18887758822E+03  0.10528273178E+04  0.11444501427E+04  0.40691654652E+03 0.  0.
    9000005    1    3    3    0    0  0.44370798963E+02 -0.24861955094E+03  0.10317605130E+04  0.10622199420E+04  0.99999687468E+00 0.  0.
          4    1    3    3  501    0 -0.52429891706E+02  0.59741962724E+02  0.21066804767E+02  0.82230200763E+02  0.00000000000E+00 0.  1.
   -9000007    1    1    2    0  503  0.80590927435E+01  0.18887758822E+03  0.47313151159E+03  0.64776007870E+03  0.40000000000E+03 0.  1.
<mgrwt>
<rscale>  2 0.44711381E+03</rscale>
<asrwt>0</asrwt>
<pdfrwt beam="1">  1       21 0.25524376E+00 0.44868783E+03</pdfrwt>
<pdfrwt beam="2">  1       21 0.20480877E-01 0.44868783E+03</pdfrwt>
<totfact> 0.11246602E+03</totfact>
</mgrwt>
</event>
<event>
 6    1  0.9163926E-004  0.5822136E+03  0.7818608E-02  0.9943050E-01
         21   -1    0    0  501  502  0.00000000000E+00  0.00000000000E+00  0.10115642015E+04  0.10115642015E+04  0.00000000000E+00 0.  1.
         21   -1    0    0  502  503 -0.00000000000E+00 -0.00000000000E+00 -0.43765063833E+03  0.43765063833E+03  0.00000000000E+00 0. -1.
    9000007    2    1    2  501    0 -0.33130704942E+03 -0.26307482799E+03 -0.63892262757E+02  0.58563566123E+03  0.39989271104E+03 0.  0.
    9000005    1    3    3    0    0 -0.32237532969E+03 -0.24111315879E+02  0.38390731923E+02  0.32554885507E+03  0.99999687468E+00 0.  0.
          4    1    3    3  501    0 -0.89317197334E+01 -0.23896351211E+03 -0.10228299468E+03  0.26008680616E+03  0.00000000000E+00 0.  1.
   -9000007    1    1    2    0  503  0.33130704942E+03  0.26307482799E+03  0.63780582594E+03  0.86357917861E+03  0.40000000000E+03 0.  1.
<mgrwt>
<rscale>  2 0.58219522E+03</rscale>
<asrwt>0</asrwt>
<pdfrwt beam="1">  1       21 0.15562526E+00 0.58221364E+03</pdfrwt>
<pdfrwt beam="2">  1       21 0.67330868E-01 0.58221364E+03</pdfrwt>
<totfact> 0.43043337E+02</totfact>
</mgrwt>
</event>
<event>
 6    1  0.9163926E-004  0.4085661E+03  0.7818608E-02  0.1040870E+00
         21   -1    0    0  501  502  0.00000000000E+00  0.00000000000E+00  0.23830341876E+04  0.23830341876E+04  0.00000000000E+00 0.  1.
         21   -1    0    0  502  503 -0.00000000000E+00 -0.00000000000E+00 -0.95221429197E+02  0.95221429197E+02  0.00000000000E+00 0.  1.
    9000007    2    1    2  501    0 -0.80423329638E+02  0.17334699035E+02  0.17816452507E+04  0.18278911424E+04  0.40019723299E+03 0.  0.
    9000005    1    3    3    0    0 -0.18688850607E+02 -0.14968556059E+03  0.30209813628E+03  0.33766747567E+03  0.99999687468E+00 0.  0.
          4    1    3    3  501    0 -0.61734479031E+02  0.16702025963E+03  0.14795471144E+04  0.14902236667E+04  0.00000000000E+00 0.  1.
   -9000007    1    1    2    0  503  0.80423329638E+02 -0.17334699035E+02  0.50616750773E+03  0.65036447444E+03  0.40000000000E+03 0.  1.
<mgrwt>
<rscale>  2 0.40851776E+03</rscale>
<asrwt>0</asrwt>
<pdfrwt beam="1">  1       21 0.36662060E+00 0.40856606E+03</pdfrwt>
<pdfrwt beam="2">  1       21 0.14649452E-01 0.40856606E+03</pdfrwt>
<totfact> 0.45683706E+02</totfact>
</mgrwt>
</event>
<event>
 6    1  0.9163926E-004  0.4189187E+03  0.7818608E-02  0.1037441E+00
         21   -1    0    0  501  502  0.00000000000E+00  0.00000000000E+00  0.85077988798E+03  0.85077988798E+03  0.00000000000E+00 0. -1.
         21   -1    0    0  502  503 -0.00000000000E+00 -0.00000000000E+00 -0.28527771272E+03  0.28527771272E+03  0.00000000000E+00 0. -1.
    9000007    2    1    2  501    0 -0.80887884338E+02 -0.93390810753E+02  0.58199673443E+03  0.71708652312E+03  0.40028513511E+03 0.  0.
    9000005    1    3    3    0    0  0.23755521998E+02 -0.23663550058E+03  0.37963040871E+03  0.44797425392E+03  0.99999687468E+00 0.  0.
          4    1    3    3  501    0 -0.10464340634E+03  0.14324468982E+03  0.20236632572E+03  0.26911226920E+03  0.00000000000E+00 0.  1.
   -9000007    1    1    2    0  503  0.80887884338E+02  0.93390810753E+02 -0.16494559162E+02  0.41897107758E+03  0.40000000000E+03 0. -1.
<mgrwt>
<rscale>  2 0.41885058E+03</rscale>
<asrwt>0</asrwt>
<pdfrwt beam="1">  1       21 0.13088921E+00 0.41891871E+03</pdfrwt>
<pdfrwt beam="2">  1       21 0.43888879E-01 0.41891871E+03</pdfrwt>
<totfact> 0.18404003E+03</totfact>
</mgrwt>
</event>
<event>
 6    1  0.9163926E-004  0.5232197E+03  0.7818608E-02  0.1007930E+00
         21   -1    0    0  501  502  0.00000000000E+00  0.00000000000E+00  0.14418555476E+04  0.14418555476E+04  0.00000000000E+00 0. -1.
         21   -1    0    0  502  503 -0.00000000000E+00 -0.00000000000E+00 -0.26330056277E+03  0.26330056277E+03  0.00000000000E+00 0.  1.
    9000007    2    1    2  501    0  0.33112515424E+03 -0.58579319285E+02  0.10405248591E+04  0.11646677016E+04  0.40085342483E+03 0.  0.
    9000005    1    3    3    0    0 -0.74197149201E+02 -0.35138566831E+02  0.38453717009E+03  0.39320449006E+03  0.99999687468E+00 0.  0.
          4    1    3    3  501    0  0.40532230344E+03 -0.23440752454E+02  0.65598768906E+03  0.77146321153E+03  0.00000000000E+00 0.  1.
   -9000007    1    1    2    0  503 -0.33112515424E+03  0.58579319285E+02  0.13803012567E+03  0.54048840877E+03  0.40000000000E+03 0.  1.
<mgrwt>
<rscale>  2 0.52305625E+03</rscale>
<asrwt>0</asrwt>
<pdfrwt beam="1">  1       21 0.22182393E+00 0.52321972E+03</pdfrwt>
<pdfrwt beam="2">  1       21 0.40507780E-01 0.52321972E+03</pdfrwt>
<totfact> 0.45444553E+02</totfact>
</mgrwt>
</event>
<event>
 6    1  0.9163926E-004  0.4171791E+03  0.7818608E-02  0.1038119E+00
         21   -1    0    0  501  502  0.00000000000E+00  0.00000000000E+00  0.97835853248E+03  0.97835853248E+03  0.00000000000E+00 0.  1.
         21   -1    0    0  502  503 -0.00000000000E+00 -0.00000000000E+00 -0.34884475012E+03  0.34884475012E+03  0.00000000000E+00 0.  1.
    9000007    2    1    2  501    0 -0.28871612676E+02 -0.11491210336E+03  0.77992257527E+03  0.88373832738E+03  0.39834136911E+03 0.  0.
    9000005    1    3    3    0    0  0.64249813398E+02 -0.24139607566E+03  0.38737780339E+03  0.46093672713E+03  0.99999687468E+00 0.  0.
          4    1    3    3  501    0 -0.93121426074E+02  0.12648397230E+03  0.39254477189E+03  0.42280160025E+03  0.00000000000E+00 0.  1.
   -9000007    1    1    2    0  503  0.28871612676E+02  0.11491210336E+03 -0.15040879291E+03  0.44346495521E+03  0.40000000000E+03 0.  1.
<mgrwt>
<rscale>  2 0.41678097E+03</rscale>
<asrwt>0</asrwt>
<pdfrwt beam="1">  1       21 0.15051670E+00 0.41717905E+03</pdfrwt>
<pdfrwt beam="2">  1       21 0.53668423E-01 0.41717905E+03</pdfrwt>
<totfact> 0.83082021E+02</totfact>
</mgrwt>
</event>
<event>
 6    1  0.9163926E-004  0.5493419E+03  0.7818608E-02  0.1001688E+00
         21   -1    0    0  501  502  0.00000000000E+00  0.00000000000E+00  0.43238050028E+03  0.43238050028E+03  0.00000000000E+00 0. -1.
         21   -1    0    0  502  503 -0.00000000000E+00 -0.00000000000E+00 -0.69717134290E+03  0.69717134290E+03  0.00000000000E+00 0.  1.
    9000007    2    1    2  501    0 -0.15575821795E+03  0.34280596097E+03 -0.12456011885E+03  0.56259399182E+03  0.39902409337E+03 0.  0.
    9000005    1    3    3    0    0  0.30208431101E+02  0.13435867582E+02  0.11178861630E+03  0.11657944319E+03  0.99999687468E+00 0.  0.
          4    1    3    3  501    0 -0.18596664905E+03  0.32937009338E+03 -0.23634873515E+03  0.44601454862E+03  0.00000000000E+00 0.  1.
   -9000007    1    1    2    0  503  0.15575821795E+03 -0.34280596097E+03 -0.14023072376E+03  0.56695785136E+03  0.40000000000E+03 0. -1.
<mgrwt>
<rscale>  2 0.54916429E+03</rscale>
<asrwt>0</asrwt>
<pdfrwt beam="1">  1       21 0.66520078E-01 0.54934192E+03</pdfrwt>
<pdfrwt beam="2">  1       21 0.10725713E+00 0.54934192E+03</pdfrwt>
<totfact> 0.11841773E+03</totfact>
</mgrwt>
</event>
<event>
 6    1  0.9163926E-004  0.4741818E+03  0.7818608E-02  0.1020846E+00
         21   -1    0    0  501  502  0.00000000000E+00  0.00000000000E+00  0.13107070517E+04  0.13107070517E+04  0.00000000000E+00 0. -1.
         21   -1    0    0  502  503 -0.00000000000E+00 -0.00000000000E+00 -0.18205468654E+03  0.18205468654E+03  0.00000000000E+00 0. -1.
    9000007    2    1    2  501    0 -0.18755513746E+03  0.17225411518E+03  0.74719139152E+03  0.88418891253E+03  0.39830471715E+03 0.  0.
    9000005    1    3    3    0    0  0.41898580335E+00 -0.11786044008E+03  0.12101657162E+03  0.16892977679E+03  0.99999687468E+00 0.  0.
          4    1    3    3  501    0 -0.18797412326E+03  0.29011455527E+03  0.62617481990E+03  0.71525913575E+03  0.00000000000E+00 0.  1.
   -9000007    1    1    2    0  503  0.18755513746E+03 -0.17225411518E+03  0.38146097369E+03  0.60857282574E+03  0.40000000000E+03 0. -1.
<mgrwt>
<rscale>  2 0.47382413E+03</rscale>
<asrwt>0</asrwt>
<pdfrwt beam="1">  1       21 0.20164723E+00 0.47418183E+03</pdfrwt>
<pdfrwt beam="2">  1       21 0.28008414E-01 0.47418183E+03</pdfrwt>
<totfact> 0.13243045E+03</totfact>
</mgrwt>
</event>
<event>
 6    1  0.9163926E-004  0.4382500E+03  0.7818608E-02  0.1031306E+00
         21   -1    0    0  501  502  0.00000000000E+00  0.00000000000E+00  0.35197671951E+03  0.35197671951E+03  0.00000000000E+00 0. -1.
         21   -1    0    0  502  503 -0.00000000000E+00 -0.00000000000E+00 -0.57469501096E+03  0.57469501096E+03  0.00000000000E+00 0. -1.
    9000007    2    1    2  501    0 -0.15777747231E+03  0.83273767880E+02 -0.66673533115E+01  0.43830070445E+03  0.40029339582E+03 0.  0.
    9000005    1    3    3    0    0 -0.16038525019E+03  0.93526626203E+02  0.17570335079E+03  0.25562340613E+03  0.99999687468E+00 0.  0.
          4    1    3    3  501    0  0.26077778825E+01 -0.10252858323E+02 -0.18237070410E+03  0.18267729832E+03  0.00000000000E+00 0.  1.
   -9000007    1    1    2    0  503  0.15777747231E+03 -0.83273767880E+02 -0.21605093814E+03  0.48837102602E+03  0.40000000000E+03 0. -1.
<mgrwt>
<rscale>  2 0.43818298E+03</rscale>
<asrwt>0</asrwt>
<pdfrwt beam="1">  1       21 0.54150265E-01 0.43824999E+03</pdfrwt>
<pdfrwt beam="2">  1       21 0.88414617E-01 0.43824999E+03</pdfrwt>
<totfact> 0.30854205E+03</totfact>
</mgrwt>
</event>
<event>
 6    1  0.9163926E-004  0.4725212E+03  0.7818608E-02  0.1021216E+00
         21   -1    0    0  501  502  0.00000000000E+00  0.00000000000E+00  0.11730931755E+03  0.11730931755E+03  0.00000000000E+00 0. -1.
         21   -1    0    0  502  503 -0.00000000000E+00 -0.00000000000E+00 -0.26807723449E+04  0.26807723449E+04  0.00000000000E+00 0. -1.
    9000007    2    1    2  501    0  0.24850217738E+03 -0.39025481646E+02 -0.20352191699E+04  0.20893377783E+04  0.39992369525E+03 0.  0.
    9000005    1    3    3    0    0  0.59093180027E+00 -0.38999035357E+02 -0.14887817801E+04  0.14892929406E+04  0.99999687468E+00 0.  0.
          4    1    3    3  501    0  0.24791124558E+03 -0.26446288407E-01 -0.54643738972E+03  0.60004483772E+03  0.00000000000E+00 0.  1.
   -9000007    1    1    2    0  503 -0.24850217738E+03  0.39025481646E+02 -0.52824385751E+03  0.70874388419E+03  0.40000000000E+03 0. -1.
<mgrwt>
<rscale>  2 0.47250509E+03</rscale>
<asrwt>0</asrwt>
<pdfrwt beam="1">  1       21 0.18047589E-01 0.47252124E+03</pdfrwt>
<pdfrwt beam="2">  1       21 0.41242647E+00 0.47252124E+03</pdfrwt>
<totfact> 0.15184975E+02</totfact>
</mgrwt>
</event>
<event>
 6    1  0.9163926E-004  0.4021396E+03  0.7818608E-02  0.1043212E+00
         21   -1    0    0  501  502  0.00000000000E+00  0.00000000000E+00  0.59781182805E+03  0.59781182805E+03  0.00000000000E+00 0.  1.
         21   -1    0    0  502  503 -0.00000000000E+00 -0.00000000000E+00 -0.54615395274E+03  0.54615395274E+03  0.00000000000E+00 0.  1.
    9000007    2    1    2  501    0 -0.91548725854E+01  0.63162512261E+01  0.43318847462E+03  0.59107401477E+03  0.40198573316E+03 0.  0.
    9000005    1    3    3    0    0 -0.10826350714E+03  0.17491709593E+03  0.20280786773E+03  0.28887542061E+03  0.99999687468E+00 0.  0.
          4    1    3    3  501    0  0.99108634553E+02 -0.16860084470E+03  0.23038060689E+03  0.30219859416E+03  0.00000000000E+00 0.  1.
   -9000007    1    1    2    0  503  0.91548725854E+01 -0.63162512261E+01 -0.38153059932E+03  0.55289176603E+03  0.40000000000E+03 0.  1.
<mgrwt>
<rscale>  2 0.40164241E+03</rscale>
<asrwt>0</asrwt>
<pdfrwt beam="1">  1       21 0.91971050E-01 0.40213957E+03</pdfrwt>
<pdfrwt beam="2">  1       21 0.84023686E-01 0.40213957E+03</pdfrwt>
<totfact> 0.10682953E+03</totfact>
</mgrwt>
</event>
<event>
 6    1  0.9163926E-004  0.4419872E+03  0.7818608E-02  0.1030155E+00
         21   -1    0    0  501  502  0.00000000000E+00  0.00000000000E+00  0.63048817218E+03  0.63048817218E+03  0.00000000000E+00 0.  1.
         21   -1    0    0  502  503 -0.00000000000E+00 -0.00000000000E+00 -0.38560696631E+03  0.38560696631E+03  0.00000000000E+00 0.  1.
    9000007    2    1    2  501    0 -0.18777428410E+03  0.96700278408E+01  0.34784025264E+03  0.56227440678E+03  0.39975864714E+03 0.  0.
    9000005    1    3    3    0    0  0.26778206139E+02  0.51737544247E+02  0.33845687070E+03  0.34343543662E+03  0.99999687468E+00 0.  0.
          4    1    3    3  501    0 -0.21455249024E+03 -0.42067516407E+02  0.93833819366E+01  0.21883897016E+03  0.00000000000E+00 0.  1.
   -9000007    1    1    2    0  503  0.18777428410E+03 -0.96700278408E+01 -0.10295904677E+03  0.45382073170E+03  0.40000000000E+03 0.  1.
<mgrwt>
<rscale>  2 0.44193259E+03</rscale>
<asrwt>0</asrwt>
<pdfrwt beam="1">  1       21 0.96998180E-01 0.44198721E+03</pdfrwt>
<pdfrwt beam="2">  1       21 0.59324149E-01 0.44198721E+03</pdfrwt>
<totfact> 0.20271880E+03</totfact>
</mgrwt>
</event>
<event>
 6    1  0.9163926E-004  0.5305772E+03  0.7818608E-02  0.1006127E+00
         21   -1    0    0  501  502  0.00000000000E+00  0.00000000000E+00  0.16093701663E+04  0.16093701663E+04  0.00000000000E+00 0.  1.
         21   -1    0    0  502  503 -0.00000000000E+00 -0.00000000000E+00 -0.37859027816E+03  0.37859027816E+03  0.00000000000E+00 0.  1.
    9000007    2    1    2  501    0  0.34773861490E+03  0.24289581791E+02  0.13446244038E+04  0.14453070543E+04  0.39923121846E+03 0.  0.
    9000005    1    3    3    0    0  0.40692813305E+02  0.95516037279E+02  0.54551054411E+02  0.11728612861E+03  0.99999687468E+00 0.  0.
          4    1    3    3  501    0  0.30704580159E+03 -0.71226455488E+02  0.12900733494E+04  0.13280209257E+04  0.00000000000E+00 0.  1.
   -9000007    1    1    2    0  503 -0.34773861490E+03 -0.24289581791E+02 -0.11384451570E+03  0.54265339014E+03  0.40000000000E+03 0.  1.
<mgrwt>
<rscale>  2 0.53043227E+03</rscale>
<asrwt>0</asrwt>
<pdfrwt beam="1">  1       21 0.24759541E+00 0.53057717E+03</pdfrwt>
<pdfrwt beam="2">  1       21 0.58244659E-01 0.53057717E+03</pdfrwt>
<totfact> 0.14397435E+02</totfact>
</mgrwt>
</event>
<event>
 6    1  0.9163926E-004  0.4634391E+03  0.7818608E-02  0.1023819E+00
         21   -1    0    0  501  502  0.00000000000E+00  0.00000000000E+00  0.12851015288E+04  0.12851015288E+04  0.00000000000E+00 0. -1.
         21   -1    0    0  502  503 -0.00000000000E+00 -0.00000000000E+00 -0.33989549473E+03  0.33989549473E+03  0.00000000000E+00 0. -1.
    9000007    2    1    2  501    0 -0.11367356924E+02 -0.23376616727E+03  0.10520248859E+04  0.11494067536E+04  0.39950430129E+03 0.  0.
    9000005    1    3    3    0    0  0.15853056732E+03 -0.23507419457E+03  0.53973943365E+03  0.60968145286E+03  0.99999687468E+00 0.  0.
          4    1    3    3  501    0 -0.16989792425E+03  0.13080272994E+01  0.51228545230E+03  0.53972530072E+03  0.00000000000E+00 0.  1.
   -9000007    1    1    2    0  503  0.11367356924E+02  0.23376616727E+03 -0.10681885188E+03  0.47559026996E+03  0.40000000000E+03 0.  1.
<mgrwt>
<rscale>  2 0.46333216E+03</rscale>
<asrwt>0</asrwt>
<pdfrwt beam="1">  1       21 0.19770793E+00 0.46343914E+03</pdfrwt>
<pdfrwt beam="2">  1       21 0.52291615E-01 0.46343914E+03</pdfrwt>
<totfact> 0.39258424E+02</totfact>
</mgrwt>
</event>
<event>
 6    1  0.9163926E-004  0.4093466E+03  0.7818608E-02  0.1040800E+00
         21   -1    0    0  501  502  0.00000000000E+00  0.00000000000E+00  0.12847582202E+04  0.12847582202E+04  0.00000000000E+00 0.  1.
         21   -1    0    0  502  503 -0.00000000000E+00 -0.00000000000E+00 -0.14977925634E+03  0.14977925634E+03  0.00000000000E+00 0.  1.
    9000007    2    1    2  501    0 -0.27013829983E+02  0.82673645687E+02  0.82904768509E+03  0.92350066177E+03  0.39745280153E+03 0.  0.
    9000005    1    3    3    0    0 -0.27678572135E+02  0.22750237606E+02 -0.39241052865E+02  0.53146372315E+02  0.99999687468E+00 0.  0.
          4    1    3    3  501    0  0.66474215149E+00  0.59923408081E+02  0.86828873796E+03  0.87035428946E+03  0.00000000000E+00 0.  1.
   -9000007    1    1    2    0  503  0.27013829983E+02 -0.82673645687E+02  0.30593127872E+03  0.51103681472E+03  0.40000000000E+03 0.  1.
<mgrwt>
<rscale>  2 0.40872306E+03</rscale>
<asrwt>0</asrwt>
<pdfrwt beam="1">  1       21 0.19765510E+00 0.40934665E+03</pdfrwt>
<pdfrwt beam="2">  1       21 0.23042963E-01 0.40934665E+03</pdfrwt>
<totfact> 0.21196226E+03</totfact>
</mgrwt>
</event>
<event>
 6    1  0.9163926E-004  0.4329925E+03  0.7818608E-02  0.1032923E+00
         21   -1    0    0  501  502  0.00000000000E+00  0.00000000000E+00  0.34532561555E+03  0.34532561555E+03  0.00000000000E+00 0.  1.
         21   -1    0    0  502  503 -0.00000000000E+00 -0.00000000000E+00 -0.11534172060E+04  0.11534172060E+04  0.00000000000E+00 0. -1.
    9000007    2    1    2  501    0  0.13417047808E+03 -0.97106165103E+02  0.14116384251E+03  0.45542254403E+03  0.40006391826E+03 0.  0.
    9000005    1    3    3    0    0  0.29470909438E+02  0.62539942399E+02 -0.11605685201E+03  0.13509245646E+03  0.99999687468E+00 0.  0.
          4    1    3    3  501    0  0.10469956864E+03 -0.15964610750E+03  0.25722069452E+03  0.32033008757E+03  0.00000000000E+00 0.  1.
   -9000007    1    1    2    0  503 -0.13417047808E+03  0.97106165103E+02 -0.94925543294E+03  0.10433202775E+04  0.40000000000E+03 0. -1.
<mgrwt>
<rscale>  2 0.43297769E+03</rscale>
<asrwt>0</asrwt>
<pdfrwt beam="1">  1       21 0.53127018E-01 0.43299245E+03</pdfrwt>
<pdfrwt beam="2">  1       21 0.17744880E+00 0.43299245E+03</pdfrwt>
<totfact> 0.53130558E+02</totfact>
</mgrwt>
</event>
<event>
 6    1  0.9163926E-004  0.7368531E+03  0.7818608E-02  0.9656267E-01
         21   -1    0    0  501  502  0.00000000000E+00  0.00000000000E+00  0.51646265724E+03  0.51646265724E+03  0.00000000000E+00 0. -1.
         21   -1    0    0  502  503 -0.00000000000E+00 -0.00000000000E+00 -0.10759137206E+04  0.10759137206E+04  0.00000000000E+00 0. -1.
    9000007    2    1    2  501    0 -0.57225128079E+03 -0.23505935945E+03 -0.15876853353E+03  0.75376388061E+03  0.40028503550E+03 0.  0.
    9000005    1    3    3    0    0 -0.31677351278E+03  0.99932523629E+01 -0.23135708099E+03  0.39239319873E+03  0.99999687468E+00 0.  0.
          4    1    3    3  501    0 -0.25547776801E+03 -0.24505261181E+03  0.72588547460E+02  0.36137068188E+03  0.00000000000E+00 0.  1.
   -9000007    1    1    2    0  503  0.57225128079E+03  0.23505935945E+03 -0.40068252984E+03  0.83861249725E+03  0.40000000000E+03 0. -1.
<mgrwt>
<rscale>  2 0.73681443E+03</rscale>
<asrwt>0</asrwt>
<pdfrwt beam="1">  1       21 0.79455794E-01 0.73685313E+03</pdfrwt>
<pdfrwt beam="2">  1       21 0.16552519E+00 0.73685313E+03</pdfrwt>
<totfact> 0.23533902E+02</totfact>
</mgrwt>
</event>
<event>
 6    1  0.9163926E-004  0.4210386E+03  0.7818608E-02  0.1036764E+00
         21   -1    0    0  501  502  0.00000000000E+00  0.00000000000E+00  0.25367673811E+03  0.25367673811E+03  0.00000000000E+00 0. -1.
         21   -1    0    0  502  503 -0.00000000000E+00 -0.00000000000E+00 -0.74577127010E+03  0.74577127010E+03  0.00000000000E+00 0. -1.
    9000007    2    1    2  501    0 -0.12539149663E+03 -0.39375790568E+02 -0.11959231003E+03  0.43728131970E+03  0.39954868493E+03 0.  0.
    9000005    1    3    3    0    0  0.13080096936E+03 -0.28110271896E+02  0.34419066998E+02  0.13814757739E+03  0.99999687468E+00 0.  0.
          4    1    3    3  501    0 -0.25619246598E+03 -0.11265518671E+02 -0.15401137703E+03  0.29913374231E+03  0.00000000000E+00 0.  1.
   -9000007    1    1    2    0  503  0.12539149663E+03  0.39375790568E+02 -0.37250222196E+03  0.56216668851E+03  0.40000000000E+03 0. -1.
<mgrwt>
<rscale>  2 0.42093135E+03</rscale>
<asrwt>0</asrwt>
<pdfrwt beam="1">  1       21 0.39027190E-01 0.42103857E+03</pdfrwt>
<pdfrwt beam="2">  1       21 0.11473404E+00 0.42103857E+03</pdfrwt>
<totfact> 0.32794307E+03</totfact>
</mgrwt>
</event>
<event>
 6    1  0.9163926E-004  0.5947290E+03  0.7818608E-02  0.9917674E-01
         21   -1    0    0  501  502  0.00000000000E+00  0.00000000000E+00  0.18532817114E+04  0.18532817114E+04  0.00000000000E+00 0. -1.
         21   -1    0    0  502  503 -0.00000000000E+00 -0.00000000000E+00 -0.19084774225E+03  0.19084774225E+03  0.00000000000E+00 0.  1.
    9000007    2    1    2  501    0  0.27701035765E+03  0.33778230774E+03  0.89786823555E+03  0.10769725963E+04  0.40357276814E+03 0.  0.
    9000005    1    3    3    0    0  0.33628780810E+03  0.21943780622E+03  0.84288197773E+03  0.93364525868E+03  0.99999687468E+00 0.  0.
          4    1    3    3  501    0 -0.59277450450E+02  0.11834450152E+03  0.54986257823E+02  0.14332733766E+03  0.00000000000E+00 0.  1.
   -9000007    1    1    2    0  503 -0.27701035765E+03 -0.33778230774E+03  0.76456573363E+03  0.96715685734E+03  0.40000000000E+03 0. -1.
<mgrwt>
<rscale>  2 0.59412344E+03</rscale>
<asrwt>0</asrwt>
<pdfrwt beam="1">  1       21 0.28512025E+00 0.59472902E+03</pdfrwt>
<pdfrwt beam="2">  1       21 0.29361192E-01 0.59472902E+03</pdfrwt>
<totfact> 0.34270766E+02</totfact>
</mgrwt>
</event>
<event>
 6    1  0.9163926E-004  0.4536441E+03  0.7818608E-02  0.1026664E+00
         21   -1    0    0  501  502  0.00000000000E+00  0.00000000000E+00  0.99699468904E+03  0.99699468904E+03  0.00000000000E+00 0.  1.
         21   -1    0    0  502  503 -0.00000000000E+00 -0.00000000000E+00 -0.68445312852E+03  0.68445312852E+03  0.00000000000E+00 0.  1.
    9000007    2    1    2  501    0  0.49860668286E+02 -0.20810306036E+03  0.85896945710E+03  0.97125318499E+03  0.39963890095E+03 0.  0.
    9000005    1    3    3    0    0  0.19353148229E+02 -0.19314494910E+03  0.11320051403E+03  0.22471064078E+03  0.99999687468E+00 0.  0.
          4    1    3    3  501    0  0.30507520057E+02 -0.14958111263E+02  0.74576894307E+03  0.74654254422E+03  0.00000000000E+00 0.  1.
   -9000007    1    1    2    0  503 -0.49860668286E+02  0.20810306036E+03 -0.54642789658E+03  0.71019463257E+03  0.40000000000E+03 0.  1.
<mgrwt>
<rscale>  2 0.45356449E+03</rscale>
<asrwt>0</asrwt>
<pdfrwt beam="1">  1       21 0.15338380E+00 0.45364410E+03</pdfrwt>
<pdfrwt beam="2">  1       21 0.10530048E+00 0.45364410E+03</pdfrwt>
<totfact> 0.16577469E+02</totfact>
</mgrwt>
</event>
<event>
 6    1  0.9163926E-004  0.4107712E+03  0.7818608E-02  0.1040153E+00
         21   -1    0    0  501  502  0.00000000000E+00  0.00000000000E+00  0.53169112614E+03  0.53169112614E+03  0.00000000000E+00 0. -1.
         21   -1    0    0  502  503 -0.00000000000E+00 -0.00000000000E+00 -0.57685461777E+03  0.57685461777E+03  0.00000000000E+00 0. -1.
    9000007    2    1    2  501    0 -0.15044761807E+02 -0.90038349059E+02  0.34943929576E+03  0.53929658144E+03  0.40049935352E+03 0.  0.
    9000005    1    3    3    0    0  0.11947739407E+03  0.96471182253E+02  0.23926245685E+03  0.28430451975E+03  0.99999687468E+00 0.  0.
          4    1    3    3  501    0 -0.13452215588E+03 -0.18650953131E+03  0.11017683892E+03  0.25499206169E+03  0.00000000000E+00 0.  1.
   -9000007    1    1    2    0  503  0.15044761807E+02  0.90038349059E+02 -0.39460278739E+03  0.56924916247E+03  0.40000000000E+03 0. -1.
<mgrwt>
<rscale>  2 0.41064944E+03</rscale>
<asrwt>0</asrwt>
<pdfrwt beam="1">  1       21 0.81798635E-01 0.41077120E+03</pdfrwt>
<pdfrwt beam="2">  1       21 0.88746864E-01 0.41077120E+03</pdfrwt>
<totfact> 0.12321993E+03</totfact>
</mgrwt>
</event>
<event>
 6    1  0.9163926E-004  0.4213731E+03  0.7818608E-02  0.1036783E+00
         21   -1    0    0  501  502  0.00000000000E+00  0.00000000000E+00  0.16204373778E+03  0.16204373778E+03  0.00000000000E+00 0.  1.
         21   -1    0    0  502  503 -0.00000000000E+00 -0.00000000000E+00 -0.12021723214E+04  0.12021723214E+04  0.00000000000E+00 0.  1.
    9000007    2    1    2  501    0 -0.77565000562E+01 -0.12575674000E+03 -0.31332309719E+03  0.52509679707E+03  0.40209496654E+03 0.  0.
    9000005    1    3    3    0    0 -0.81456261384E+02 -0.11496525319E+03 -0.39212000080E+03  0.41666680571E+03  0.99999687468E+00 0.  0.
          4    1    3    3  501    0  0.73699761328E+02 -0.10791486815E+02  0.78796903615E+02  0.10842999136E+03  0.00000000000E+00 0.  1.
   -9000007    1    1    2    0  503  0.77565000562E+01  0.12575674000E+03 -0.72680548648E+03  0.83911926216E+03  0.40000000000E+03 0.  1.
<mgrwt>
<rscale>  2 0.42087254E+03</rscale>
<asrwt>0</asrwt>
<pdfrwt beam="1">  1       21 0.24929805E-01 0.42137309E+03</pdfrwt>
<pdfrwt beam="2">  1       21 0.18494960E+00 0.42137309E+03</pdfrwt>
<totfact> 0.22089299E+03</totfact>
</mgrwt>
</event>
<event>
 6    1  0.9163926E-004  0.4263854E+03  0.7818608E-02  0.1035204E+00
         21   -1    0    0  501  502  0.00000000000E+00  0.00000000000E+00  0.26211243282E+03  0.26211243282E+03  0.00000000000E+00 0.  1.
         21   -1    0    0  502  503 -0.00000000000E+00 -0.00000000000E+00 -0.18548218395E+04  0.18548218395E+04  0.00000000000E+00 0.  1.
    9000007    2    1    2  501    0 -0.18732703591E+02 -0.14647036420E+03  0.43426137893E+02  0.42615220418E+03  0.39738569413E+03 0.  0.
    9000005    1    3    3    0    0  0.56676197043E+02  0.12762730276E+03  0.15049062013E+02  0.14045780143E+03  0.99999687468E+00 0.  0.
          4    1    3    3  501    0 -0.75408900634E+02 -0.27409766696E+03  0.28377075880E+02  0.28569440275E+03  0.00000000000E+00 0.  1.
   -9000007    1    1    2    0  503  0.18732703591E+02  0.14647036420E+03 -0.16361355446E+04  0.16907820682E+04  0.40000000000E+03 0.  1.
<mgrwt>
<rscale>  2 0.42577115E+03</rscale>
<asrwt>0</asrwt>
<pdfrwt beam="1">  1       21 0.40324989E-01 0.42638537E+03</pdfrwt>
<pdfrwt beam="2">  1       21 0.28535721E+00 0.42638537E+03</pdfrwt>
<totfact> 0.19604036E+02</totfact>
</mgrwt>
</event>
<event>
 6    1  0.9163926E-004  0.5584281E+03  0.7818608E-02  0.9995910E-01
         21   -1    0    0  501  502  0.00000000000E+00  0.00000000000E+00  0.62549177937E+03  0.62549177937E+03  0.00000000000E+00 0.  1.
         21   -1    0    0  502  503 -0.00000000000E+00 -0.00000000000E+00 -0.51651854507E+03  0.51651854507E+03  0.00000000000E+00 0.  1.
    9000007    2    1    2  501    0  0.18289897353E+03 -0.34324204850E+03 -0.53329356602E+02  0.56096878600E+03  0.40071788107E+03 0.  0.
    9000005    1    3    3    0    0  0.12566464020E+02  0.22083551870E+02 -0.14531506503E+03  0.14752310802E+03  0.99999687468E+00 0.  0.
          4    1    3    3  501    0  0.17033250951E+03 -0.36532560037E+03  0.91985708430E+02  0.41344567798E+03  0.00000000000E+00 0.  1.
   -9000007    1    1    2    0  503 -0.18289897353E+03  0.34324204850E+03  0.16230259090E+03  0.58104153844E+03  0.40000000000E+03 0.  1.
<mgrwt>
<rscale>  2 0.55829934E+03</rscale>
<asrwt>0</asrwt>
<pdfrwt beam="1">  1       21 0.96229505E-01 0.55842811E+03</pdfrwt>
<pdfrwt beam="2">  1       21 0.79464392E-01 0.55842811E+03</pdfrwt>
<totfact> 0.10274033E+03</totfact>
</mgrwt>
</event>
<event>
 6    1  0.9163926E-004  0.4236118E+03  0.7818608E-02  0.1035974E+00
         21   -1    0    0  501  502  0.00000000000E+00  0.00000000000E+00  0.39661991159E+03  0.39661991159E+03  0.00000000000E+00 0. -1.
         21   -1    0    0  502  503 -0.00000000000E+00 -0.00000000000E+00 -0.46187041018E+03  0.46187041018E+03  0.00000000000E+00 0.  1.
    9000007    2    1    2  501    0  0.13715876020E+03  0.25187605782E+02  0.31972978475E+02  0.42386479850E+03  0.39898891597E+03 0.  0.
    9000005    1    3    3    0    0  0.35798358756E+02 -0.17151364735E+03  0.87321784765E+02  0.19576656457E+03  0.99999687468E+00 0.  0.
          4    1    3    3  501    0  0.10136040144E+03  0.19670125313E+03 -0.55348806290E+02  0.22809823393E+03  0.00000000000E+00 0.  1.
   -9000007    1    1    2    0  503 -0.13715876020E+03 -0.25187605782E+02 -0.97223477062E+02  0.43462552327E+03  0.40000000000E+03 0.  1.
<mgrwt>
<rscale>  2 0.42337293E+03</rscale>
<asrwt>0</asrwt>
<pdfrwt beam="1">  1       21 0.61018448E-01 0.42361178E+03</pdfrwt>
<pdfrwt beam="2">  1       21 0.71056986E-01 0.42361178E+03</pdfrwt>
<totfact> 0.39595489E+03</totfact>
</mgrwt>
</event>
<event>
 6    1  0.9163926E-004  0.5413762E+03  0.7818608E-02  0.1003515E+00
         21   -1    0    0  501  502  0.00000000000E+00  0.00000000000E+00  0.12798582389E+04  0.12798582389E+04  0.00000000000E+00 0.  1.
         21   -1    0    0  502  503 -0.00000000000E+00 -0.00000000000E+00 -0.55845062821E+03  0.55845062821E+03  0.00000000000E+00 0. -1.
    9000007    2    1    2  501    0  0.45095616657E+02 -0.36188065826E+03  0.10667342227E+04  0.11962483603E+04  0.40012124704E+03 0.  0.
    9000005    1    3    3    0    0 -0.49852578080E+02 -0.28936096318E+03  0.29824922240E+03  0.41853153431E+03  0.99999687468E+00 0.  0.
          4    1    3    3  501    0  0.94948194737E+02 -0.72519695087E+02  0.76848500025E+03  0.77771682602E+03  0.00000000000E+00 0.  1.
   -9000007    1    1    2    0  503 -0.45095616657E+02  0.36188065826E+03 -0.34532661195E+03  0.64206050680E+03  0.40000000000E+03 0. -1.
<mgrwt>
<rscale>  2 0.54135384E+03</rscale>
<asrwt>0</asrwt>
<pdfrwt beam="1">  1       21 0.19690127E+00 0.54137624E+03</pdfrwt>
<pdfrwt beam="2">  1       21 0.85915482E-01 0.54137624E+03</pdfrwt>
<totfact> 0.12583659E+02</totfact>
</mgrwt>
</event>
<event>
 6    1  0.9163926E-004  0.5922065E+03  0.7818608E-02  0.9921724E-01
         21   -1    0    0  501  502  0.00000000000E+00  0.00000000000E+00  0.13003531068E+04  0.13003531068E+04  0.00000000000E+00 0.  1.
         21   -1    0    0  502  503 -0.00000000000E+00 -0.00000000000E+00 -0.30484177541E+03  0.30484177541E+03  0.00000000000E+00 0.  1.
    9000007    2    1    2  501    0 -0.41266451614E+03 -0.14276701249E+03  0.77031110879E+03  0.97164175656E+03  0.40004259277E+03 0.  0.
    9000005    1    3    3    0    0 -0.52492659510E+02 -0.20628384387E+03  0.38808924375E+03  0.44263163539E+03  0.99999687468E+00 0.  0.
          4    1    3    3  501    0 -0.36017185663E+03  0.63516831386E+02  0.38222186504E+03  0.52901012117E+03  0.00000000000E+00 0.  1.
   -9000007    1    1    2    0  503  0.41266451614E+03  0.14276701249E+03  0.22520022257E+03  0.63355312562E+03  0.40000000000E+03 0.  1.
<mgrwt>
<rscale>  2 0.59219927E+03</rscale>
<asrwt>0</asrwt>
<pdfrwt beam="1">  1       21 0.20005432E+00 0.59220647E+03</pdfrwt>
<pdfrwt beam="2">  1       21 0.46898736E-01 0.59220647E+03</pdfrwt>
<totfact> 0.45207761E+02</totfact>
</mgrwt>
</event>
<event>
 6    1  0.9163926E-004  0.5397984E+03  0.7818608E-02  0.1003912E+00
         21   -1    0    0  501  502  0.00000000000E+00  0.00000000000E+00  0.12783442281E+04  0.12783442281E+04  0.00000000000E+00 0. -1.
         21   -1    0    0  502  503 -0.00000000000E+00 -0.00000000000E+00 -0.25011433678E+03  0.25011433678E+03  0.00000000000E+00 0. -1.
    9000007    2    1    2  501    0 -0.36084972277E+03  0.25433925114E+02  0.74293770319E+03  0.91833477453E+03  0.40065311720E+03 0.  0.
    9000005    1    3    3    0    0 -0.31634114185E+03  0.18045345435E+03  0.60476588760E+03  0.70595888409E+03  0.99999687468E+00 0.  0.
          4    1    3    3  501    0 -0.44508580919E+02 -0.15501952924E+03  0.13817181559E+03  0.21237589045E+03  0.00000000000E+00 0.  1.
   -9000007    1    1    2    0  503  0.36084972277E+03 -0.25433925114E+02  0.28529218818E+03  0.61012379040E+03  0.40000000000E+03 0. -1.
<mgrwt>
<rscale>  2 0.53967723E+03</rscale>
<asrwt>0</asrwt>
<pdfrwt beam="1">  1       21 0.19666834E+00 0.53979841E+03</pdfrwt>
<pdfrwt beam="2">  1       21 0.38479129E-01 0.53979841E+03</pdfrwt>
<totfact> 0.73484658E+02</totfact>
</mgrwt>
</event>
<event>
 6    1  0.9163926E-004  0.4768528E+03  0.7818608E-02  0.1020018E+00
         21   -1    0    0  501  502  0.00000000000E+00  0.00000000000E+00  0.32062184019E+03  0.32062184019E+03  0.00000000000E+00 0. -1.
         21   -1    0    0  502  503 -0.00000000000E+00 -0.00000000000E+00 -0.12338894786E+04  0.12338894786E+04  0.00000000000E+00 0. -1.
    9000007    2    1    2  501    0  0.12493976389E+03  0.22712177099E+03  0.50298184986E+02  0.47949813772E+03  0.40024281781E+03 0.  0.
    9000005    1    3    3    0    0  0.21939355444E+02  0.15810887034E+03  0.21846403166E+03  0.27056844480E+03  0.99999687468E+00 0.  0.
          4    1    3    3  501    0  0.10300040844E+03  0.69012900651E+02 -0.16816584668E+03  0.20892969292E+03  0.00000000000E+00 0.  1.
   -9000007    1    1    2    0  503 -0.12493976389E+03 -0.22712177099E+03 -0.96356582342E+03  0.10750131811E+04  0.40000000000E+03 0. -1.
<mgrwt>
<rscale>  2 0.47680181E+03</rscale>
<asrwt>0</asrwt>
<pdfrwt beam="1">  1       21 0.49326437E-01 0.47685276E+03</pdfrwt>
<pdfrwt beam="2">  1       21 0.18982915E+00 0.47685276E+03</pdfrwt>
<totfact> 0.49976782E+02</totfact>
</mgrwt>
</event>
<event>
 6    1  0.9163926E-004  0.4554465E+03  0.7818608E-02  0.1026146E+00
         21   -1    0    0  501  502  0.00000000000E+00  0.00000000000E+00  0.47740159301E+03  0.47740159301E+03  0.00000000000E+00 0.  1.
         21   -1    0    0  502  503 -0.00000000000E+00 -0.00000000000E+00 -0.46283354525E+03  0.46283354525E+03  0.00000000000E+00 0.  1.
    9000007    2    1    2  501    0 -0.21369168191E+03 -0.36355752142E+02  0.12455710659E+03  0.47217160765E+03  0.40055671089E+03 0.  0.
    9000005    1    3    3    0    0 -0.85760989777E+00 -0.14560912909E+03 -0.72093461642E+02  0.16248452596E+03  0.99999687468E+00 0.  0.
          4    1    3    3  501    0 -0.21283407201E+03  0.10925337695E+03  0.19665056823E+03  0.30968708169E+03  0.00000000000E+00 0.  1.
   -9000007    1    1    2    0  503  0.21369168191E+03  0.36355752142E+02 -0.10998905882E+03  0.46806353061E+03  0.40000000000E+03 0.  1.
<mgrwt>
<rscale>  2 0.45532411E+03</rscale>
<asrwt>0</asrwt>
<pdfrwt beam="1">  1       21 0.73446399E-01 0.45544654E+03</pdfrwt>
<pdfrwt beam="2">  1       21 0.71205161E-01 0.45544654E+03</pdfrwt>
<totfact> 0.25755215E+03</totfact>
</mgrwt>
</event>
<event>
 6    1  0.9163926E-004  0.5003704E+03  0.7818608E-02  0.1013704E+00
         21   -1    0    0  501  502  0.00000000000E+00  0.00000000000E+00  0.35349702425E+03  0.35349702425E+03  0.00000000000E+00 0. -1.
         21   -1    0    0  502  503 -0.00000000000E+00 -0.00000000000E+00 -0.77810125568E+03  0.77810125568E+03  0.00000000000E+00 0.  1.
    9000007    2    1    2  501    0  0.23893515894E+03 -0.18150003996E+03 -0.42285054377E+02  0.50215389968E+03  0.40042257487E+03 0.  0.
    9000005    1    3    3    0    0  0.63607992202E+02  0.78720151716E+02 -0.14068783012E+03  0.17331158212E+03  0.99999687468E+00 0.  0.
          4    1    3    3  501    0  0.17532716673E+03 -0.26022019167E+03  0.98402775742E+02  0.32884231757E+03  0.00000000000E+00 0.  1.
   -9000007    1    1    2    0  503 -0.23893515894E+03  0.18150003996E+03 -0.38231917705E+03  0.62944438024E+03  0.40000000000E+03 0.  1.
<mgrwt>
<rscale>  2 0.50028583E+03</rscale>
<asrwt>0</asrwt>
<pdfrwt beam="1">  1       21 0.54384158E-01 0.50037038E+03</pdfrwt>
<pdfrwt beam="2">  1       21 0.11970788E+00 0.50037038E+03</pdfrwt>
<totfact> 0.14239045E+03</totfact>
</mgrwt>
</event>
<event>
 6    1  0.9163926E-004  0.5491581E+03  0.7818608E-02  0.1001698E+00
         21   -1    0    0  501  502  0.00000000000E+00  0.00000000000E+00  0.50306063841E+03  0.50306063841E+03  0.00000000000E+00 0. -1.
         21   -1    0    0  502  503 -0.00000000000E+00 -0.00000000000E+00 -0.60389222315E+03  0.60389222315E+03  0.00000000000E+00 0.  1.
    9000007    2    1    2  501    0  0.19249485576E+03 -0.32304002264E+03 -0.22373652424E+01  0.54916262694E+03  0.40020677069E+03 0.  0.
    9000005    1    3    3    0    0  0.88800628196E+02 -0.21904633442E+03  0.19279553056E+03  0.30502125301E+03  0.99999687468E+00 0.  0.
          4    1    3    3  501    0  0.10369422757E+03 -0.10399368822E+03 -0.19503289580E+03  0.24414137393E+03  0.00000000000E+00 0.  1.
   -9000007    1    1    2    0  503 -0.19249485576E+03  0.32304002264E+03 -0.98594219501E+02  0.55779023462E+03  0.40000000000E+03 0. -1.
<mgrwt>
<rscale>  2 0.54912040E+03</rscale>
<asrwt>0</asrwt>
<pdfrwt beam="1">  1       21 0.77393945E-01 0.54915807E+03</pdfrwt>
<pdfrwt beam="2">  1       21 0.92906496E-01 0.54915807E+03</pdfrwt>
<totfact> 0.11920686E+03</totfact>
</mgrwt>
</event>
<event>
 6    1  0.9163926E-004  0.4183708E+03  0.7818608E-02  0.1037605E+00
         21   -1    0    0  501  502  0.00000000000E+00  0.00000000000E+00  0.42744881512E+03  0.42744881512E+03  0.00000000000E+00 0.  1.
         21   -1    0    0  502  503 -0.00000000000E+00 -0.00000000000E+00 -0.45058610636E+03  0.45058610636E+03  0.00000000000E+00 0.  1.
    9000007    2    1    2  501    0 -0.15306628069E+02  0.12135187864E+03  0.12116079768E+03  0.43556174741E+03  0.40009189644E+03 0.  0.
    9000005    1    3    3    0    0  0.14274807705E+03 -0.39956732006E+02  0.14636974251E+03  0.20832343951E+03  0.99999687468E+00 0.  0.
          4    1    3    3  501    0 -0.15805470512E+03  0.16130861064E+03 -0.25208944829E+02  0.22723830790E+03  0.00000000000E+00 0.  1.
   -9000007    1    1    2    0  503  0.15306628069E+02 -0.12135187864E+03 -0.14429808891E+03  0.44247317407E+03  0.40000000000E+03 0.  1.
<mgrwt>
<rscale>  2 0.41834879E+03</rscale>
<asrwt>0</asrwt>
<pdfrwt beam="1">  1       21 0.65761356E-01 0.41837076E+03</pdfrwt>
<pdfrwt beam="2">  1       21 0.69320940E-01 0.41837076E+03</pdfrwt>
<totfact> 0.35549029E+03</totfact>
</mgrwt>
</event>
<event>
 6    1  0.9163926E-004  0.4929598E+03  0.7818608E-02  0.1015768E+00
         21   -1    0    0  501  502  0.00000000000E+00  0.00000000000E+00  0.55724717199E+03  0.55724717199E+03  0.00000000000E+00 0. -1.
         21   -1    0    0  502  503 -0.00000000000E+00 -0.00000000000E+00 -0.91098168600E+03  0.91098168600E+03  0.00000000000E+00 0. -1.
    9000007    2    1    2  501    0  0.26328104661E+03 -0.10815348401E+03  0.35399517711E+03  0.60689535621E+03  0.40248640022E+03 0.  0.
    9000005    1    3    3    0    0  0.15572705346E+03 -0.15895097807E+03  0.41672877513E+03  0.47241951762E+03  0.99999687468E+00 0.  0.
          4    1    3    3  501    0  0.10755399315E+03  0.50797494055E+02 -0.62733598018E+02  0.13447583859E+03  0.00000000000E+00 0.  1.
   -9000007    1    1    2    0  503 -0.26328104661E+03  0.10815348401E+03 -0.70772969112E+03  0.86133350179E+03  0.40000000000E+03 0. -1.
<mgrwt>
<rscale>  2 0.49245205E+03</rscale>
<asrwt>0</asrwt>
<pdfrwt beam="1">  1       21 0.85730334E-01 0.49295982E+03</pdfrwt>
<pdfrwt beam="2">  1       21 0.14015103E+00 0.49295982E+03</pdfrwt>
<totfact> 0.34024749E+02</totfact>
</mgrwt>
</event>
<event>
 6    1  0.9163926E-004  0.4483774E+03  0.7818608E-02  0.1028244E+00
         21   -1    0    0  501  502  0.00000000000E+00  0.00000000000E+00  0.13919018022E+04  0.13919018022E+04  0.00000000000E+00 0.  1.
         21   -1    0    0  502  503 -0.00000000000E+00 -0.00000000000E+00 -0.18024426805E+03  0.18024426805E+03  0.00000000000E+00 0.  1.
    9000007    2    1    2  501    0  0.18571688621E+03  0.78191677208E+02  0.95722328555E+03  0.10570329884E+04  0.40054665146E+03 0.  0.
    9000005    1    3    3    0    0  0.98774381510E+02  0.11063514803E+03  0.68312601037E+02  0.16329153645E+03  0.99999687468E+00 0.  0.
          4    1    3    3  501    0  0.86942504701E+02 -0.32443470820E+02  0.88891068451E+03  0.89374145197E+03  0.00000000000E+00 0.  1.
   -9000007    1    1    2    0  503 -0.18571688621E+03 -0.78191677208E+02  0.25443424857E+03  0.51511308181E+03  0.40000000000E+03 0.  1.
<mgrwt>
<rscale>  2 0.44825531E+03</rscale>
<asrwt>0</asrwt>
<pdfrwt beam="1">  1       21 0.21413873E+00 0.44837743E+03</pdfrwt>
<pdfrwt beam="2">  1       21 0.27729888E-01 0.44837743E+03</pdfrwt>
<totfact> 0.11314681E+03</totfact>
</mgrwt>
</event>
<event>
 6    1  0.9163926E-004  0.5665630E+03  0.7818608E-02  0.9977694E-01
         21   -1    0    0  501  502  0.00000000000E+00  0.00000000000E+00  0.98634939949E+03  0.98634939949E+03  0.00000000000E+00 0. -1.
         21   -1    0    0  502  503 -0.00000000000E+00 -0.00000000000E+00 -0.48319057806E+03  0.48319057806E+03  0.00000000000E+00 0.  1.
    9000007    2    1    2  501    0 -0.26107093381E+03 -0.30468926287E+03  0.67183799185E+03  0.87840019551E+03  0.39903262622E+03 0.  0.
    9000005    1    3    3    0    0  0.24850724390E+02 -0.14522090452E+03  0.47287788555E+03  0.49529906546E+03  0.99999687468E+00 0.  0.
          4    1    3    3  501    0 -0.28592165820E+03 -0.15946835835E+03  0.19896010630E+03  0.38310113004E+03  0.00000000000E+00 0.  1.
   -9000007    1    1    2    0  503  0.26107093381E+03  0.30468926287E+03 -0.16867917042E+03  0.59113978205E+03  0.40000000000E+03 0.  1.
<mgrwt>
<rscale>  2 0.56639223E+03</rscale>
<asrwt>0</asrwt>
<pdfrwt beam="1">  1       21 0.15174606E+00 0.56656295E+03</pdfrwt>
<pdfrwt beam="2">  1       21 0.74337012E-01 0.56656295E+03</pdfrwt>
<totfact> 0.37077990E+02</totfact>
</mgrwt>
</event>
<event>
 6    1  0.9163926E-004  0.4424367E+03  0.7818608E-02  0.1030787E+00
         21   -1    0    0  501  502  0.00000000000E+00  0.00000000000E+00  0.59416619706E+03  0.59416619706E+03  0.00000000000E+00 0.  1.
         21   -1    0    0  502  503 -0.00000000000E+00 -0.00000000000E+00 -0.37311216034E+03  0.37311216034E+03  0.00000000000E+00 0.  1.
    9000007    2    1    2  501    0 -0.16434007662E+03 -0.93501729909E+02  0.28855769120E+03  0.51972168206E+03  0.38870921184E+03 0.  0.
    9000005    1    3    3    0    0 -0.76844224459E+02 -0.90821848630E+01 -0.91997335066E+02  0.12021659855E+03  0.99999687468E+00 0.  0.
          4    1    3    3  501    0 -0.87495852162E+02 -0.84419545046E+02  0.38055502626E+03  0.39950508350E+03  0.00000000000E+00 0.  1.
   -9000007    1    1    2    0  503  0.16434007662E+03  0.93501729909E+02 -0.67503654471E+02  0.44755667535E+03  0.40000000000E+03 0.  1.
<mgrwt>
<rscale>  2 0.43986922E+03</rscale>
<asrwt>0</asrwt>
<pdfrwt beam="1">  1       21 0.91410184E-01 0.44243670E+03</pdfrwt>
<pdfrwt beam="2">  1       21 0.57401871E-01 0.44243670E+03</pdfrwt>
<totfact> 0.25097778E+03</totfact>
</mgrwt>
</event>
<event>
 6    1  0.9163926E-004  0.5760893E+03  0.7818608E-02  0.9961293E-01
         21   -1    0    0  501  502  0.00000000000E+00  0.00000000000E+00  0.43665067143E+03  0.43665067143E+03  0.00000000000E+00 0. -1.
         21   -1    0    0  502  503 -0.00000000000E+00 -0.00000000000E+00 -0.74967347506E+03  0.74967347506E+03  0.00000000000E+00 0.  1.
    9000007    2    1    2  501    0 -0.44019614607E+02 -0.39944887510E+03 -0.18474776334E+03  0.60498808512E+03  0.41277320260E+03 0.  0.
    9000005    1    3    3    0    0  0.17923227579E+01  0.47783419541E+02  0.72623544289E+02  0.86957729862E+02  0.99999687468E+00 0.  0.
          4    1    3    3  501    0 -0.45811937364E+02 -0.44723229464E+03 -0.25737130763E+03  0.51803035526E+03  0.00000000000E+00 0.  1.
   -9000007    1    1    2    0  503  0.44019614607E+02  0.39944887510E+03 -0.12827504028E+03  0.58133606137E+03  0.40000000000E+03 0. -1.
<mgrwt>
<rscale>  2 0.57380520E+03</rscale>
<asrwt>0</asrwt>
<pdfrwt beam="1">  1       21 0.67177027E-01 0.57608927E+03</pdfrwt>
<pdfrwt beam="2">  1       21 0.11533438E+00 0.57608927E+03</pdfrwt>
<totfact> 0.95760382E+02</totfact>
</mgrwt>
</event>
<event>
 6    1  0.9163926E-004  0.4366052E+03  0.7818608E-02  0.1031800E+00
         21   -1    0    0  501  502  0.00000000000E+00  0.00000000000E+00  0.19576493800E+04  0.19576493800E+04  0.00000000000E+00 0.  1.
         21   -1    0    0  502  503 -0.00000000000E+00 -0.00000000000E+00 -0.15741298253E+03  0.15741298253E+03  0.00000000000E+00 0.  1.
    9000007    2    1    2  501    0 -0.13328296199E+03 -0.11340074549E+03  0.15532814985E+04  0.16134541497E+04  0.39990849276E+03 0.  0.
    9000005    1    3    3    0    0  0.93781623218E+02  0.28920101908E+02  0.92788918906E+03  0.93306522404E+03  0.99999687468E+00 0.  0.
          4    1    3    3  501    0 -0.22706458521E+03 -0.14232084739E+03  0.62539230946E+03  0.68038892568E+03  0.00000000000E+00 0.  1.
   -9000007    1    1    2    0  503  0.13328296199E+03  0.11340074549E+03  0.24695489892E+03  0.50160821279E+03  0.40000000000E+03 0.  1.
<mgrwt>
<rscale>  2 0.43658421E+03</rscale>
<asrwt>0</asrwt>
<pdfrwt beam="1">  1       21 0.30117681E+00 0.43660517E+03</pdfrwt>
<pdfrwt beam="2">  1       21 0.24217383E-01 0.43660517E+03</pdfrwt>
<totfact> 0.43315274E+02</totfact>
</mgrwt>
</event>
<event>
 6    1  0.9163926E-004  0.4194590E+03  0.7818608E-02  0.1037259E+00
         21   -1    0    0  501  502  0.00000000000E+00  0.00000000000E+00  0.11768570849E+04  0.11768570849E+04  0.00000000000E+00 0. -1.
         21   -1    0    0  502  503 -0.00000000000E+00 -0.00000000000E+00 -0.16613128704E+03  0.16613128704E+03  0.00000000000E+00 0. -1.
    9000007    2    1    2  501    0 -0.74402692809E+02  0.10202974372E+03  0.29236117132E+03  0.51112686546E+03  0.39978717939E+03 0.  0.
    9000005    1    3    3    0    0  0.42163622504E+02  0.21770183465E+03  0.26350085012E+03  0.34439157638E+03  0.99999687468E+00 0.  0.
          4    1    3    3  501    0 -0.11656631531E+03 -0.11567209093E+03  0.28860321197E+02  0.16673528908E+03  0.00000000000E+00 0.  1.
   -9000007    1    1    2    0  503  0.74402692809E+02 -0.10202974372E+03  0.71836462651E+03  0.83186150645E+03  0.40000000000E+03 0.  1.
<mgrwt>
<rscale>  2 0.41940823E+03</rscale>
<asrwt>0</asrwt>
<pdfrwt beam="1">  1       21 0.18105493E+00 0.41945897E+03</pdfrwt>
<pdfrwt beam="2">  1       21 0.25558660E-01 0.41945897E+03</pdfrwt>
<totfact> 0.22419568E+03</totfact>
</mgrwt>
</event>
<event>
 6    1  0.9163926E-004  0.5413218E+03  0.7818608E-02  0.1003534E+00
         21   -1    0    0  501  502  0.00000000000E+00  0.00000000000E+00  0.40141572233E+03  0.40141572233E+03  0.00000000000E+00 0. -1.
         21   -1    0    0  502  503 -0.00000000000E+00 -0.00000000000E+00 -0.96547690745E+03  0.96547690745E+03  0.00000000000E+00 0. -1.
    9000007    2    1    2  501    0 -0.64636134184E+02  0.35895891996E+03  0.55722554084E+02  0.54399456839E+03  0.39974460766E+03 0.  0.
    9000005    1    3    3    0    0 -0.13734188748E+03  0.42268027368E+03  0.47589552319E+02  0.44697558468E+03  0.99999687468E+00 0.  0.
          4    1    3    3  501    0  0.72705753297E+02 -0.63721353726E+02  0.81330017648E+01  0.97018983713E+02  0.00000000000E+00 0.  1.
   -9000007    1    1    2    0  503  0.64636134184E+02 -0.35895891996E+03 -0.61978373920E+03  0.82289806139E+03  0.40000000000E+03 0. -1.
<mgrwt>
<rscale>  2 0.54127466E+03</rscale>
<asrwt>0</asrwt>
<pdfrwt beam="1">  1       21 0.61756266E-01 0.54132184E+03</pdfrwt>
<pdfrwt beam="2">  1       21 0.14853491E+00 0.54132184E+03</pdfrwt>
<totfact> 0.60222865E+02</totfact>
</mgrwt>
</event>
<event>
 6    1  0.9163926E-004  0.5535659E+03  0.7818608E-02  0.1000748E+00
         21   -1    0    0  501  502  0.00000000000E+00  0.00000000000E+00  0.46791794945E+03  0.46791794945E+03  0.00000000000E+00 0. -1.
         21   -1    0    0  502  503 -0.00000000000E+00 -0.00000000000E+00 -0.65948789839E+03  0.65948789839E+03  0.00000000000E+00 0. -1.
    9000007    2    1    2  501    0  0.33214807739E+03  0.19003379533E+03 -0.41171208671E+02  0.55377271617E+03  0.39816323796E+03 0.  0.
    9000005    1    3    3    0    0  0.30385175643E+03  0.29843001072E+03  0.19553638661E+02  0.42634458594E+03  0.99999687468E+00 0.  0.
          4    1    3    3  501    0  0.28296320959E+02 -0.10839621538E+03 -0.60724847332E+02  0.12742813023E+03  0.00000000000E+00 0.  1.
   -9000007    1    1    2    0  503 -0.33214807739E+03 -0.19003379533E+03 -0.15039874027E+03  0.57363313168E+03  0.40000000000E+03 0. -1.
<mgrwt>
<rscale>  2 0.55323415E+03</rscale>
<asrwt>0</asrwt>
<pdfrwt beam="1">  1       21 0.71987377E-01 0.55356588E+03</pdfrwt>
<pdfrwt beam="2">  1       21 0.10145968E+00 0.55356588E+03</pdfrwt>
<totfact> 0.11350332E+03</totfact>
</mgrwt>
</event>
<event>
 6    1  0.9163926E-004  0.5072383E+03  0.7818608E-02  0.1011949E+00
         21   -1    0    0  501  502  0.00000000000E+00  0.00000000000E+00  0.31856808766E+03  0.31856808766E+03  0.00000000000E+00 0. -1.
         21   -1    0    0  502  503 -0.00000000000E+00 -0.00000000000E+00 -0.86899073473E+03  0.86899073473E+03  0.00000000000E+00 0. -1.
    9000007    2    1    2  501    0  0.21109045366E+03  0.22963353093E+03 -0.43416117262E+03  0.66716717316E+03  0.39915582793E+03 0.  0.
    9000005    1    3    3    0    0 -0.10348730908E+03  0.14894631450E+03 -0.14234717569E+03  0.23056093808E+03  0.99999687468E+00 0.  0.
          4    1    3    3  501    0  0.31457776275E+03  0.80687216424E+02 -0.29181399693E+03  0.43660623508E+03  0.00000000000E+00 0.  1.
   -9000007    1    1    2    0  503 -0.21109045366E+03 -0.22963353093E+03 -0.11626147444E+03  0.52039164924E+03  0.40000000000E+03 0. -1.
<mgrwt>
<rscale>  2 0.50707190E+03</rscale>
<asrwt>0</asrwt>
<pdfrwt beam="1">  1       21 0.49010475E-01 0.50723834E+03</pdfrwt>
<pdfrwt beam="2">  1       21 0.13369088E+00 0.50723834E+03</pdfrwt>
<totfact> 0.13338562E+03</totfact>
</mgrwt>
</event>
<event>
 6    1  0.9163926E-004  0.4800515E+03  0.7818608E-02  0.1019134E+00
         21   -1    0    0  501  502  0.00000000000E+00  0.00000000000E+00  0.29544115850E+03  0.29544115850E+03  0.00000000000E+00 0.  1.
         21   -1    0    0  502  503 -0.00000000000E+00 -0.00000000000E+00 -0.10411659942E+04  0.10411659942E+04  0.00000000000E+00 0.  1.
    9000007    2    1    2  501    0  0.18313757513E+03 -0.19211991108E+03 -0.37916868770E+02  0.48136359107E+03  0.39977967208E+03 0.  0.
    9000005    1    3    3    0    0 -0.11833268701E+02  0.10745297295E+03 -0.59280690260E+02  0.12329382740E+03  0.99999687468E+00 0.  0.
          4    1    3    3  501    0  0.19497084383E+03 -0.29957288402E+03  0.21363821490E+02  0.35806976367E+03  0.00000000000E+00 0.  1.
   -9000007    1    1    2    0  503 -0.18313757513E+03  0.19211991108E+03 -0.70780796695E+03  0.85524356165E+03  0.40000000000E+03 0.  1.
<mgrwt>
<rscale>  2 0.48000559E+03</rscale>
<asrwt>0</asrwt>
<pdfrwt beam="1">  1       21 0.45452486E-01 0.48005149E+03</pdfrwt>
<pdfrwt beam="2">  1       21 0.16017938E+00 0.48005149E+03</pdfrwt>
<totfact> 0.96911073E+02</totfact>
</mgrwt>
</event>
<event>
 6    1  0.9163926E-004  0.4571532E+03  0.7818608E-02  0.1025697E+00
         21   -1    0    0  501  502  0.00000000000E+00  0.00000000000E+00  0.27971570241E+03  0.27971570241E+03  0.00000000000E+00 0. -1.
         21   -1    0    0  502  503 -0.00000000000E+00 -0.00000000000E+00 -0.74666341209E+03  0.74666341209E+03  0.00000000000E+00 0. -1.
    9000007    2    1    2  501    0 -0.21127363446E+03  0.57219827890E+02 -0.25634478082E+03  0.52411996727E+03  0.40134578124E+03 0.  0.
    9000005    1    3    3    0    0 -0.28471649208E+03  0.25270383787E+02 -0.34075925263E+02  0.28786149766E+03  0.99999687468E+00 0.  0.
          4    1    3    3  501    0  0.73442857619E+02  0.31949444103E+02 -0.22226885555E+03  0.23625846961E+03  0.00000000000E+00 0.  1.
   -9000007    1    1    2    0  503  0.21127363446E+03 -0.57219827890E+02 -0.21060292886E+03  0.50225914722E+03  0.40000000000E+03 0. -1.
<mgrwt>
<rscale>  2 0.45685770E+03</rscale>
<asrwt>0</asrwt>
<pdfrwt beam="1">  1       21 0.43033184E-01 0.45715325E+03</pdfrwt>
<pdfrwt beam="2">  1       21 0.11487130E+00 0.45715325E+03</pdfrwt>
<totfact> 0.26362058E+03</totfact>
</mgrwt>
</event>
<event>
 6    1  0.9163926E-004  0.4009667E+03  0.7818608E-02  0.1043453E+00
         21   -1    0    0  501  502  0.00000000000E+00  0.00000000000E+00  0.25097394485E+03  0.25097394485E+03  0.00000000000E+00 0.  1.
         21   -1    0    0  502  503 -0.00000000000E+00 -0.00000000000E+00 -0.70120368622E+03  0.70120368622E+03  0.00000000000E+00 0.  1.
    9000007    2    1    2  501    0  0.27247711580E+02 -0.56410230625E+01 -0.84962227704E+02  0.40978052979E+03  0.39990904408E+03 0.  0.
    9000005    1    3    3    0    0 -0.13888187716E+03 -0.15521255204E+02 -0.17228580821E+03  0.22183887141E+03  0.99999687468E+00 0.  0.
          4    1    3    3  501    0  0.16612958874E+03  0.98802321414E+01  0.87323580503E+02  0.18794165838E+03  0.00000000000E+00 0.  1.
   -9000007    1    1    2    0  503 -0.27247711580E+02  0.56410230625E+01 -0.36526751367E+03  0.54239710128E+03  0.40000000000E+03 0.  1.
<mgrwt>
<rscale>  2 0.40094397E+03</rscale>
<asrwt>0</asrwt>
<pdfrwt beam="1">  1       21 0.38611376E-01 0.40096666E+03</pdfrwt>
<pdfrwt beam="2">  1       21 0.10787749E+00 0.40096666E+03</pdfrwt>
<totfact> 0.39361923E+03</totfact>
</mgrwt>
</event>
<event>
 6    1  0.9163926E-004  0.4125476E+03  0.7818608E-02  0.1039534E+00
         21   -1    0    0  501  502  0.00000000000E+00  0.00000000000E+00  0.50296968081E+03  0.50296968081E+03  0.00000000000E+00 0.  1.
         21   -1    0    0  502  503 -0.00000000000E+00 -0.00000000000E+00 -0.33892944304E+03  0.33892944304E+03  0.00000000000E+00 0.  1.
    9000007    2    1    2  501    0 -0.49105895814E+02 -0.88227946930E+02  0.62977463492E+02  0.41715303032E+03  0.39981862159E+03 0.  0.
    9000005    1    3    3    0    0  0.13730008524E+03 -0.13058626370E+03  0.11159976141E+03  0.21990814540E+03  0.99999687468E+00 0.  0.
          4    1    3    3  501    0 -0.18640598105E+03  0.42358316765E+02 -0.48622297920E+02  0.19724488492E+03  0.00000000000E+00 0.  1.
   -9000007    1    1    2    0  503  0.49105895814E+02  0.88227946930E+02  0.10106277427E+03  0.42474609353E+03  0.40000000000E+03 0.  1.
<mgrwt>
<rscale>  2 0.41250367E+03</rscale>
<asrwt>0</asrwt>
<pdfrwt beam="1">  1       21 0.77379951E-01 0.41254765E+03</pdfrwt>
<pdfrwt beam="2">  1       21 0.52142991E-01 0.41254765E+03</pdfrwt>
<totfact> 0.46030914E+03</totfact>
</mgrwt>
</event>
<event>
 6    1  0.9163926E-004  0.4060990E+03  0.7818608E-02  0.1041713E+00
         21   -1    0    0  501  502  0.00000000000E+00  0.00000000000E+00  0.14824485915E+04  0.14824485915E+04  0.00000000000E+00 0.  1.
         21   -1    0    0  502  503 -0.00000000000E+00 -0.00000000000E+00 -0.15745382919E+03  0.15745382919E+03  0.00000000000E+00 0.  1.
    9000007    2    1    2  501    0  0.55745019041E+02 -0.42531210937E+02  0.11069082642E+04  0.11789489179E+04  0.39969767907E+03 0.  0.
    9000005    1    3    3    0    0  0.98399499513E+02 -0.29492518690E+02  0.38648975295E+02  0.10975888779E+03  0.99999687468E+00 0.  0.
          4    1    3    3  501    0 -0.42654480471E+02 -0.13038692247E+02  0.10682592889E+04  0.10691900301E+04  0.00000000000E+00 0.  1.
   -9000007    1    1    2    0  503 -0.55745019041E+02  0.42531210937E+02  0.21808649810E+03  0.46095350276E+03  0.40000000000E+03 0.  1.
<mgrwt>
<rscale>  2 0.40602455E+03</rscale>
<asrwt>0</asrwt>
<pdfrwt beam="1">  1       21 0.22806900E+00 0.40609902E+03</pdfrwt>
<pdfrwt beam="2">  1       21 0.24223667E-01 0.40609902E+03</pdfrwt>
<totfact> 0.12260639E+03</totfact>
</mgrwt>
</event>
<event>
 6    1  0.9163926E-004  0.4079322E+03  0.7818608E-02  0.1041074E+00
         21   -1    0    0  501  502  0.00000000000E+00  0.00000000000E+00  0.15197583017E+04  0.15197583017E+04  0.00000000000E+00 0. -1.
         21   -1    0    0  502  503 -0.00000000000E+00 -0.00000000000E+00 -0.13912457630E+03  0.13912457630E+03  0.00000000000E+00 0. -1.
    9000007    2    1    2  501    0 -0.36814842401E+01  0.79578754368E+02  0.10732661827E+04  0.11481763695E+04  0.40007792389E+03 0.  0.
    9000005    1    3    3    0    0 -0.12936097110E+03 -0.48185857941E+02  0.85353132174E+03  0.86462295536E+03  0.99999687468E+00 0.  0.
          4    1    3    3  501    0  0.12567948686E+03  0.12776461231E+03  0.21973486096E+03  0.28355341418E+03  0.00000000000E+00 0.  1.
   -9000007    1    1    2    0  503  0.36814842401E+01 -0.79578754368E+02  0.30736754271E+03  0.51070650846E+03  0.40000000000E+03 0. -1.
<mgrwt>
<rscale>  2 0.40791309E+03</rscale>
<asrwt>0</asrwt>
<pdfrwt beam="1">  1       21 0.23380896E+00 0.40793220E+03</pdfrwt>
<pdfrwt beam="2">  1       21 0.21403782E-01 0.40793220E+03</pdfrwt>
<totfact> 0.14307073E+03</totfact>
</mgrwt>
</event>
<event>
 6    1  0.9163926E-004  0.6012400E+03  0.7818608E-02  0.9903253E-01
         21   -1    0    0  501  502  0.00000000000E+00  0.00000000000E+00  0.11359656857E+04  0.11359656857E+04  0.00000000000E+00 0. -1.
         21   -1    0    0  502  503 -0.00000000000E+00 -0.00000000000E+00 -0.37705157548E+03  0.37705157548E+03  0.00000000000E+00 0.  1.
    9000007    2    1    2  501    0  0.39918489830E+03  0.20528268974E+03  0.67914298710E+03  0.90650840072E+03  0.39878906443E+03 0.  0.
    9000005    1    3    3    0    0  0.48074528721E+03  0.16073203036E+03  0.55882906974E+03  0.75448111039E+03  0.99999687468E+00 0.  0.
          4    1    3    3  501    0 -0.81560388918E+02  0.44550659380E+02  0.12031391736E+03  0.15202729032E+03  0.00000000000E+00 0.  1.
   -9000007    1    1    2    0  503 -0.39918489830E+03 -0.20528268974E+03  0.79771123113E+02  0.60650886046E+03  0.40000000000E+03 0.  1.
<mgrwt>
<rscale>  2 0.60103869E+03</rscale>
<asrwt>0</asrwt>
<pdfrwt beam="1">  1       21 0.17476395E+00 0.60124002E+03</pdfrwt>
<pdfrwt beam="2">  1       21 0.58007935E-01 0.60124002E+03</pdfrwt>
<totfact> 0.42794545E+02</totfact>
</mgrwt>
</event>
<event>
 6    1  0.9163926E-004  0.4602002E+03  0.7818608E-02  0.1024929E+00
         21   -1    0    0  501  502  0.00000000000E+00  0.00000000000E+00  0.14597886962E+03  0.14597886962E+03  0.00000000000E+00 0.  1.
         21   -1    0    0  502  503 -0.00000000000E+00 -0.00000000000E+00 -0.18531731789E+04  0.18531731789E+04  0.00000000000E+00 0.  1.
    9000007    2    1    2  501    0 -0.11640160163E+03 -0.18878801060E+03 -0.38474455839E+03  0.59984379461E+03  0.40322940978E+03 0.  0.
    9000005    1    3    3    0    0 -0.10432497035E+03  0.55828628394E+02  0.26439901707E+02  0.12124604564E+03  0.99999687468E+00 0.  0.
          4    1    3    3  501    0 -0.12076631276E+02 -0.24461663899E+03 -0.41118446009E+03  0.47859774897E+03  0.00000000000E+00 0.  1.
   -9000007    1    1    2    0  503  0.11640160163E+03  0.18878801060E+03 -0.13224497508E+04  0.13993082539E+04  0.40000000000E+03 0.  1.
<mgrwt>
<rscale>  2 0.45949180E+03</rscale>
<asrwt>0</asrwt>
<pdfrwt beam="1">  1       21 0.22458287E-01 0.46020018E+03</pdfrwt>
<pdfrwt beam="2">  1       21 0.28510357E+00 0.46020018E+03</pdfrwt>
<totfact> 0.61769854E+02</totfact>
</mgrwt>
</event>
<event>
 6    1  0.9163926E-004  0.4595099E+03  0.7818608E-02  0.1024939E+00
         21   -1    0    0  501  502  0.00000000000E+00  0.00000000000E+00  0.19704496634E+04  0.19704496634E+04  0.00000000000E+00 0. -1.
         21   -1    0    0  502  503 -0.00000000000E+00 -0.00000000000E+00 -0.11719671984E+03  0.11719671984E+03  0.00000000000E+00 0. -1.
    9000007    2    1    2  501    0 -0.12834785403E+03 -0.18568092033E+03  0.12330911038E+04  0.13159266911E+04  0.40024843557E+03 0.  0.
    9000005    1    3    3    0    0 -0.25353160829E+03 -0.14795214556E+03  0.10544750206E+04  0.10945714609E+04  0.99999687468E+00 0.  0.
          4    1    3    3  501    0  0.12518375426E+03 -0.37728774774E+02  0.17861608318E+03  0.22135523023E+03  0.00000000000E+00 0.  1.
   -9000007    1    1    2    0  503  0.12834785403E+03  0.18568092033E+03  0.62016183977E+03  0.77171969219E+03  0.40000000000E+03 0. -1.
<mgrwt>
<rscale>  2 0.45945584E+03</rscale>
<asrwt>0</asrwt>
<pdfrwt beam="1">  1       21 0.30314608E+00 0.45950994E+03</pdfrwt>
<pdfrwt beam="2">  1       21 0.18030266E-01 0.45950994E+03</pdfrwt>
<totfact> 0.73122317E+02</totfact>
</mgrwt>
</event>
<event>
 6    1  0.9163926E-004  0.4587882E+03  0.7818608E-02  0.1025137E+00
         21   -1    0    0  501  502  0.00000000000E+00  0.00000000000E+00  0.85347084465E+02  0.85347084465E+02  0.00000000000E+00 0.  1.
         21   -1    0    0  502  503 -0.00000000000E+00 -0.00000000000E+00 -0.31169249658E+04  0.31169249658E+04  0.00000000000E+00 0.  1.
    9000007    2    1    2  501    0 -0.10335024898E+03 -0.19940904967E+03 -0.78415245648E+03  0.90850521744E+03  0.40005176174E+03 0.  0.
    9000005    1    3    3    0    0  0.19761246372E+02  0.11631082777E+03 -0.16759442156E+03  0.20495757036E+03  0.99999687468E+00 0.  0.
          4    1    3    3  501    0 -0.12311149535E+03 -0.31571987744E+03 -0.61655803492E+03  0.70354764709E+03  0.00000000000E+00 0.  1.
   -9000007    1    1    2    0  503  0.10335024898E+03  0.19940904967E+03 -0.22474254249E+04  0.22937668328E+04  0.40000000000E+03 0.  1.
<mgrwt>
<rscale>  2 0.45877696E+03</rscale>
<asrwt>0</asrwt>
<pdfrwt beam="1">  1       21 0.13130319E-01 0.45878825E+03</pdfrwt>
<pdfrwt beam="2">  1       21 0.47952697E+00 0.45878825E+03</pdfrwt>
<totfact> 0.97698983E+01</totfact>
</mgrwt>
</event>
<event>
 6    1  0.9163926E-004  0.4208400E+03  0.7818608E-02  0.1036820E+00
         21   -1    0    0  501  502  0.00000000000E+00  0.00000000000E+00  0.60511267547E+03  0.60511267547E+03  0.00000000000E+00 0. -1.
         21   -1    0    0  502  503 -0.00000000000E+00 -0.00000000000E+00 -0.30662137344E+03  0.30662137344E+03  0.00000000000E+00 0. -1.
    9000007    2    1    2  501    0  0.35869556070E+02  0.12577633507E+03  0.24716929558E+03  0.48777619739E+03  0.39965816212E+03 0.  0.
    9000005    1    3    3    0    0  0.10541506938E+03  0.92114185342E+02 -0.73370665122E+02  0.15805573222E+03  0.99999687468E+00 0.  0.
          4    1    3    3  501    0 -0.69545513309E+02  0.33662149724E+02  0.32053996070E+03  0.32972046517E+03  0.00000000000E+00 0.  1.
   -9000007    1    1    2    0  503 -0.35869556070E+02 -0.12577633507E+03  0.51322006456E+02  0.42395785152E+03  0.40000000000E+03 0. -1.
<mgrwt>
<rscale>  2 0.42075876E+03</rscale>
<asrwt>0</asrwt>
<pdfrwt beam="1">  1       21 0.93094258E-01 0.42084001E+03</pdfrwt>
<pdfrwt beam="2">  1       21 0.47172519E-01 0.42084001E+03</pdfrwt>
<totfact> 0.36858000E+03</totfact>
</mgrwt>
</event>
<event>
 6    1  0.9163926E-004  0.4980318E+03  0.7818608E-02  0.1014373E+00
         21   -1    0    0  501  502  0.00000000000E+00  0.00000000000E+00  0.12886520927E+04  0.12886520927E+04  0.00000000000E+00 0. -1.
         21   -1    0    0  502  503 -0.00000000000E+00 -0.00000000000E+00 -0.19932712590E+03  0.19932712590E+03  0.00000000000E+00 0.  1.
    9000007    2    1    2  501    0  0.18204909356E+03  0.23429421247E+03  0.40150908699E+03  0.63878764129E+03  0.39850276444E+03 0.  0.
    9000005    1    3    3    0    0 -0.10692983803E+03  0.88787680708E+02  0.23064501500E+02  0.14089078653E+03  0.99999687468E+00 0.  0.
          4    1    3    3  501    0  0.28897893159E+03  0.14550653176E+03  0.37844458549E+03  0.49789685475E+03  0.00000000000E+00 0.  1.
   -9000007    1    1    2    0  503 -0.18204909356E+03 -0.23429421247E+03  0.68781587977E+03  0.84919157728E+03  0.40000000000E+03 0. -1.
<mgrwt>
<rscale>  2 0.49773107E+03</rscale>
<asrwt>0</asrwt>
<pdfrwt beam="1">  1       21 0.19825416E+00 0.49803178E+03</pdfrwt>
<pdfrwt beam="2">  1       21 0.30665713E-01 0.49803178E+03</pdfrwt>
<totfact> 0.11540853E+03</totfact>
</mgrwt>
</event>
<event>
 6    1  0.9163926E-004  0.4446691E+03  0.7818608E-02  0.1029358E+00
         21   -1    0    0  501  502  0.00000000000E+00  0.00000000000E+00  0.33732063964E+03  0.33732063964E+03  0.00000000000E+00 0.  1.
         21   -1    0    0  502  503 -0.00000000000E+00 -0.00000000000E+00 -0.78386609259E+03  0.78386609259E+03  0.00000000000E+00 0.  1.
    9000007    2    1    2  501    0  0.61320859171E+02 -0.18431057489E+03  0.58762298320E+02  0.44808454142E+03  0.39949482195E+03 0.  0.
    9000005    1    3    3    0    0  0.21542827133E+03 -0.17267412858E+02  0.15031247661E+02  0.21664358295E+03  0.99999687468E+00 0.  0.
          4    1    3    3  501    0 -0.15410741216E+03 -0.16704316204E+03  0.43731050659E+02  0.23144095847E+03  0.00000000000E+00 0.  1.
   -9000007    1    1    2    0  503 -0.61320859171E+02  0.18431057489E+03 -0.50530775127E+03  0.67310219081E+03  0.40000000000E+03 0.  1.
<mgrwt>
<rscale>  2 0.44455549E+03</rscale>
<asrwt>0</asrwt>
<pdfrwt beam="1">  1       21 0.51895484E-01 0.44466913E+03</pdfrwt>
<pdfrwt beam="2">  1       21 0.12059478E+00 0.44466913E+03</pdfrwt>
<totfact> 0.15783214E+03</totfact>
</mgrwt>
</event>
<event>
 6    1  0.9163926E-004  0.5468056E+03  0.7818608E-02  0.1002259E+00
         21   -1    0    0  501  502  0.00000000000E+00  0.00000000000E+00  0.79964310573E+03  0.79964310573E+03  0.00000000000E+00 0.  1.
         21   -1    0    0  502  503 -0.00000000000E+00 -0.00000000000E+00 -0.46627402127E+03  0.46627402127E+03  0.00000000000E+00 0. -1.
    9000007    2    1    2  501    0 -0.37060405255E+03  0.40607338654E+02  0.44876236267E+03  0.70706837432E+03  0.39945175941E+03 0.  0.
    9000005    1    3    3    0    0 -0.30237780891E+03 -0.13200198681E+03  0.16732566387E+03  0.36994018655E+03  0.99999687468E+00 0.  0.
          4    1    3    3  501    0 -0.68226243637E+02  0.17260932546E+03  0.28143669879E+03  0.33712818776E+03  0.00000000000E+00 0.  1.
   -9000007    1    1    2    0  503  0.37060405255E+03 -0.40607338654E+02 -0.11539327821E+03  0.55884875268E+03  0.40000000000E+03 0. -1.
<mgrwt>
<rscale>  2 0.54670530E+03</rscale>
<asrwt>0</asrwt>
<pdfrwt beam="1">  1       21 0.12302202E+00 0.54680556E+03</pdfrwt>
<pdfrwt beam="2">  1       21 0.71734464E-01 0.54680556E+03</pdfrwt>
<totfact> 0.70729343E+02</totfact>
</mgrwt>
</event>
<event>
 6    1  0.9163926E-004  0.4695668E+03  0.7818608E-02  0.1022165E+00
         21   -1    0    0  501  502  0.00000000000E+00  0.00000000000E+00  0.10852555618E+04  0.10852555618E+04  0.00000000000E+00 0.  1.
         21   -1    0    0  502  503 -0.00000000000E+00 -0.00000000000E+00 -0.67484267671E+03  0.67484267671E+03  0.00000000000E+00 0.  1.
    9000007    2    1    2  501    0  0.16681504947E+03  0.17617687323E+03  0.94164677934E+03  0.10522317243E+04  0.40202909507E+03 0.  0.
    9000005    1    3    3    0    0  0.12629435169E+03  0.16030741220E+03  0.13563054864E+03  0.24504157891E+03  0.99999687468E+00 0.  0.
          4    1    3    3  501    0  0.40520697778E+02  0.15869461035E+02  0.80601623070E+03  0.80719014544E+03  0.00000000000E+00 0.  1.
   -9000007    1    1    2    0  503 -0.16681504947E+03 -0.17617687323E+03 -0.53123389429E+03  0.70786651413E+03  0.40000000000E+03 0.  1.
<mgrwt>
<rscale>  2 0.46913214E+03</rscale>
<asrwt>0</asrwt>
<pdfrwt beam="1">  1       21 0.16696239E+00 0.46956676E+03</pdfrwt>
<pdfrwt beam="2">  1       21 0.10382195E+00 0.46956676E+03</pdfrwt>
<totfact> 0.13437432E+02</totfact>
</mgrwt>
</event>
<event>
 6    1  0.9163926E-004  0.4304495E+03  0.7818608E-02  0.1033746E+00
         21   -1    0    0  501  502  0.00000000000E+00  0.00000000000E+00  0.40527408048E+03  0.40527408048E+03  0.00000000000E+00 0.  1.
         21   -1    0    0  502  503 -0.00000000000E+00 -0.00000000000E+00 -0.82795688735E+03  0.82795688735E+03  0.00000000000E+00 0.  1.
    9000007    2    1    2  501    0 -0.62007196520E+01 -0.15792068121E+03 -0.62423336563E+03  0.75825726518E+03  0.40038655690E+03 0.  0.
    9000005    1    3    3    0    0 -0.59550826285E+02 -0.16061693597E+03 -0.45743676335E+02  0.17730647183E+03  0.99999687468E+00 0.  0.
          4    1    3    3  501    0  0.53350106633E+02  0.26962547663E+01 -0.57848968930E+03  0.58095079335E+03  0.00000000000E+00 0.  1.
   -9000007    1    1    2    0  503  0.62007196520E+01  0.15792068121E+03  0.20155055877E+03  0.47497370266E+03  0.40000000000E+03 0.  1.
<mgrwt>
<rscale>  2 0.43035960E+03</rscale>
<asrwt>0</asrwt>
<pdfrwt beam="1">  1       21 0.62349859E-01 0.43044952E+03</pdfrwt>
<pdfrwt beam="2">  1       21 0.12737798E+00 0.43044952E+03</pdfrwt>
<totfact> 0.92649289E+02</totfact>
</mgrwt>
</event>
<event>
 6    1  0.9163926E-004  0.4075976E+03  0.7818608E-02  0.1041345E+00
         21   -1    0    0  501  502  0.00000000000E+00  0.00000000000E+00  0.56069681593E+03  0.56069681593E+03  0.00000000000E+00 0. -1.
         21   -1    0    0  502  503 -0.00000000000E+00 -0.00000000000E+00 -0.36923798438E+03  0.36923798438E+03  0.00000000000E+00 0. -1.
    9000007    2    1    2  501    0 -0.77201075879E+02  0.13258179937E+02  0.30418424725E+03  0.50703669817E+03  0.39802307918E+03 0.  0.
    9000005    1    3    3    0    0 -0.62745472443E+02  0.42380678216E+02 -0.86522565132E+02  0.11497943498E+03  0.99999687468E+00 0.  0.
          4    1    3    3  501    0 -0.14455603437E+02 -0.29122498280E+02  0.39070681238E+03  0.39205726318E+03  0.00000000000E+00 0.  1.
   -9000007    1    1    2    0  503  0.77201075879E+02 -0.13258179937E+02 -0.11272541570E+03  0.42289810215E+03  0.40000000000E+03 0. -1.
<mgrwt>
<rscale>  2 0.40711174E+03</rscale>
<asrwt>0</asrwt>
<pdfrwt beam="1">  1       21 0.86261049E-01 0.40759758E+03</pdfrwt>
<pdfrwt beam="2">  1       21 0.56805844E-01 0.40759758E+03</pdfrwt>
<totfact> 0.29827080E+03</totfact>
</mgrwt>
</event>
<event>
 6    1  0.9163926E-004  0.4431524E+03  0.7818608E-02  0.1029799E+00
         21   -1    0    0  501  502  0.00000000000E+00  0.00000000000E+00  0.21241392317E+03  0.21241392317E+03  0.00000000000E+00 0. -1.
         21   -1    0    0  502  503 -0.00000000000E+00 -0.00000000000E+00 -0.96327405676E+03  0.96327405676E+03  0.00000000000E+00 0. -1.
    9000007    2    1    2  501    0 -0.19267129309E+02 -0.18930428578E+03 -0.49402860837E+03  0.66366281723E+03  0.40022085677E+03 0.  0.
    9000005    1    3    3    0    0 -0.14092269421E+03 -0.16731941922E+03 -0.82224820272E+02  0.23370262056E+03  0.99999687468E+00 0.  0.
          4    1    3    3  501    0  0.12165556490E+03 -0.21984866562E+02 -0.41180378810E+03  0.42996019667E+03  0.00000000000E+00 0.  1.
   -9000007    1    1    2    0  503  0.19267129309E+02  0.18930428578E+03 -0.25683152522E+03  0.51202516270E+03  0.40000000000E+03 0. -1.
<mgrwt>
<rscale>  2 0.44310255E+03</rscale>
<asrwt>0</asrwt>
<pdfrwt beam="1">  1       21 0.32679065E-01 0.44315242E+03</pdfrwt>
<pdfrwt beam="2">  1       21 0.14819601E+00 0.44315242E+03</pdfrwt>
<totfact> 0.23962451E+03</totfact>
</mgrwt>
</event>
<event>
 6    1  0.9163926E-004  0.4024448E+03  0.7818608E-02  0.1042979E+00
         21   -1    0    0  501  502  0.00000000000E+00  0.00000000000E+00  0.69280689633E+03  0.69280689633E+03  0.00000000000E+00 0. -1.
         21   -1    0    0  502  503 -0.00000000000E+00 -0.00000000000E+00 -0.37134456887E+03  0.37134456887E+03  0.00000000000E+00 0. -1.
    9000007    2    1    2  501    0  0.13053595577E+02  0.37327341262E+02  0.48498155596E+03  0.63021337646E+03  0.40049727025E+03 0.  0.
    9000005    1    3    3    0    0 -0.89119174465E+02  0.49000555864E+02 -0.29226490946E+02  0.10582282126E+03  0.99999687468E+00 0.  0.
          4    1    3    3  501    0  0.10217277004E+03 -0.11673214602E+02  0.51420804691E+03  0.52439055520E+03  0.00000000000E+00 0.  1.
   -9000007    1    1    2    0  503 -0.13053595577E+02 -0.37327341262E+02 -0.16351922850E+03  0.43393808873E+03  0.40000000000E+03 0. -1.
<mgrwt>
<rscale>  2 0.40232099E+03</rscale>
<asrwt>0</asrwt>
<pdfrwt beam="1">  1       21 0.10658568E+00 0.40244477E+03</pdfrwt>
<pdfrwt beam="2">  1       21 0.57129934E-01 0.40244477E+03</pdfrwt>
<totfact> 0.17773214E+03</totfact>
</mgrwt>
</event>
<event>
 6    1  0.9163926E-004  0.5641021E+03  0.7818608E-02  0.9982931E-01
         21   -1    0    0  501  502  0.00000000000E+00  0.00000000000E+00  0.19136671024E+04  0.19136671024E+04  0.00000000000E+00 0. -1.
         21   -1    0    0  502  503 -0.00000000000E+00 -0.00000000000E+00 -0.16641848961E+03  0.16641848961E+03  0.00000000000E+00 0. -1.
    9000007    2    1    2  501    0 -0.39306132625E+03 -0.59004770538E+02  0.83811333494E+03  0.10102698497E+04  0.40029044179E+03 0.  0.
    9000005    1    3    3    0    0 -0.33438600738E+03 -0.11588541092E+03  0.29409562380E+03  0.46014852638E+03  0.99999687468E+00 0.  0.
          4    1    3    3  501    0 -0.58675318871E+02  0.56880640386E+02  0.54401771114E+03  0.55012132328E+03  0.00000000000E+00 0.  1.
   -9000007    1    1    2    0  503  0.39306132625E+03  0.59004770538E+02  0.90913527788E+03  0.10698157424E+04  0.40000000000E+03 0. -1.
<mgrwt>
<rscale>  2 0.56405060E+03</rscale>
<asrwt>0</asrwt>
<pdfrwt beam="1">  1       21 0.29441031E+00 0.56410212E+03</pdfrwt>
<pdfrwt beam="2">  1       21 0.25602846E-01 0.56410212E+03</pdfrwt>
<totfact> 0.39979594E+02</totfact>
</mgrwt>
</event>
<event>
 6    1  0.9163926E-004  0.4263576E+03  0.7818608E-02  0.1035150E+00
         21   -1    0    0  501  502  0.00000000000E+00  0.00000000000E+00  0.11414837951E+03  0.11414837951E+03  0.00000000000E+00 0. -1.
         21   -1    0    0  502  503 -0.00000000000E+00 -0.00000000000E+00 -0.15946019895E+04  0.15946019895E+04  0.00000000000E+00 0. -1.
    9000007    2    1    2  501    0 -0.38406772385E+02  0.14249817114E+03 -0.67703212802E+03  0.79920823880E+03  0.39822166898E+03 0.  0.
    9000005    1    3    3    0    0 -0.43563455079E+02  0.17138716595E+03 -0.67990243839E+02  0.18945978075E+03  0.99999687468E+00 0.  0.
          4    1    3    3  501    0  0.51566826945E+01 -0.28888994813E+02 -0.60904188419E+03  0.60974845805E+03  0.00000000000E+00 0.  1.
   -9000007    1    1    2    0  503  0.38406772385E+02 -0.14249817114E+03 -0.80342148201E+03  0.90954213025E+03  0.40000000000E+03 0. -1.
<mgrwt>
<rscale>  2 0.42594001E+03</rscale>
<asrwt>0</asrwt>
<pdfrwt beam="1">  1       21 0.17561289E-01 0.42635761E+03</pdfrwt>
<pdfrwt beam="2">  1       21 0.24532339E+00 0.42635761E+03</pdfrwt>
<totfact> 0.17501770E+03</totfact>
</mgrwt>
</event>
<event>
 6    1  0.9163926E-004  0.4793256E+03  0.7818608E-02  0.1019347E+00
         21   -1    0    0  501  502  0.00000000000E+00  0.00000000000E+00  0.72711412715E+03  0.72711412715E+03  0.00000000000E+00 0. -1.
         21   -1    0    0  502  503 -0.00000000000E+00 -0.00000000000E+00 -0.31927487371E+03  0.31927487371E+03  0.00000000000E+00 0. -1.
    9000007    2    1    2  501    0  0.14012691161E+03 -0.22305793352E+03  0.14886954964E+03  0.50191154445E+03  0.40045307163E+03 0.  0.
    9000005    1    3    3    0    0  0.25561317376E+03 -0.11867351870E+03 -0.66072429120E+01  0.28189741803E+03  0.99999687468E+00 0.  0.
          4    1    3    3  501    0 -0.11548626215E+03 -0.10438441482E+03  0.15547679255E+03  0.22001412642E+03  0.00000000000E+00 0.  1.
   -9000007    1    1    2    0  503 -0.14012691161E+03  0.22305793352E+03  0.25896970380E+03  0.54447745642E+03  0.40000000000E+03 0. -1.
<mgrwt>
<rscale>  2 0.47923098E+03</rscale>
<asrwt>0</asrwt>
<pdfrwt beam="1">  1       21 0.11186371E+00 0.47932563E+03</pdfrwt>
<pdfrwt beam="2">  1       21 0.49119211E-01 0.47932563E+03</pdfrwt>
<totfact> 0.21157487E+03</totfact>
</mgrwt>
</event>
<event>
 6    1  0.9163926E-004  0.4113410E+03  0.7818608E-02  0.1039939E+00
         21   -1    0    0  501  502  0.00000000000E+00  0.00000000000E+00  0.39775460440E+03  0.39775460440E+03  0.00000000000E+00 0.  1.
         21   -1    0    0  502  503 -0.00000000000E+00 -0.00000000000E+00 -0.42568274767E+03  0.42568274767E+03  0.00000000000E+00 0.  1.
    9000007    2    1    2  501    0 -0.94108268220E+02  0.13311024969E+02 -0.28110614239E+02  0.41230041280E+03  0.40020978778E+03 0.  0.
    9000005    1    3    3    0    0  0.11359734967E+03  0.43309749370E+02  0.10762363084E+03  0.16236975751E+03  0.99999687468E+00 0.  0.
          4    1    3    3  501    0 -0.20770561789E+03 -0.29998724401E+02 -0.13573424508E+03  0.24993065530E+03  0.00000000000E+00 0.  1.
   -9000007    1    1    2    0  503  0.94108268220E+02 -0.13311024969E+02  0.18247096779E+00  0.41113693927E+03  0.40000000000E+03 0.  1.
<mgrwt>
<rscale>  2 0.41128997E+03</rscale>
<asrwt>0</asrwt>
<pdfrwt beam="1">  1       21 0.61193016E-01 0.41134101E+03</pdfrwt>
<pdfrwt beam="2">  1       21 0.65489654E-01 0.41134101E+03</pdfrwt>
<totfact> 0.47438100E+03</totfact>
</mgrwt>
</event>
<event>
 6    1  0.9163926E-004  0.6181841E+03  0.7818608E-02  0.9868431E-01
         21   -1    0    0  501  502  0.00000000000E+00  0.00000000000E+00  0.70605655344E+03  0.70605655344E+03  0.00000000000E+00 0.  1.
         21   -1    0    0  502  503 -0.00000000000E+00 -0.00000000000E+00 -0.10590716165E+04  0.10590716165E+04  0.00000000000E+00 0. -1.
    9000007    2    1    2  501    0 -0.46548440875E+03  0.73998625737E+02  0.44067785100E+03  0.75909637461E+03  0.39984847904E+03 0.  0.
    9000005    1    3    3    0    0  0.47305463987E+02  0.48973773693E+02  0.16021021695E+03  0.17408202389E+03  0.99999687468E+00 0.  0.
          4    1    3    3  501    0 -0.51278987273E+03  0.25024852044E+02  0.28046763404E+03  0.58501435072E+03  0.00000000000E+00 0.  1.
   -9000007    1    1    2    0  503  0.46548440875E+03 -0.73998625737E+02 -0.79369291404E+03  0.10060317953E+04  0.40000000000E+03 0. -1.
<mgrwt>
<rscale>  2 0.61815955E+03</rscale>
<asrwt>0</asrwt>
<pdfrwt beam="1">  1       21 0.10862408E+00 0.61818406E+03</pdfrwt>
<pdfrwt beam="2">  1       21 0.16293410E+00 0.61818406E+03</pdfrwt>
<totfact> 0.12048337E+02</totfact>
</mgrwt>
</event>
<event>
 6    1  0.9163926E-004  0.5485206E+03  0.7818608E-02  0.1001862E+00
         21   -1    0    0  501  502  0.00000000000E+00  0.00000000000E+00  0.21228918261E+03  0.21228918261E+03  0.00000000000E+00 0. -1.
         21   -1    0    0  502  503 -0.00000000000E+00 -0.00000000000E+00 -0.20326714358E+04  0.20326714358E+04  0.00000000000E+00 0. -1.
    9000007    2    1    2  501    0  0.36068348700E+03 -0.10383768362E+03 -0.29177362291E+03  0.62091653437E+03  0.39941288574E+03 0.  0.
    9000005    1    3    3    0    0  0.32337808272E+03  0.96850879221E+02 -0.13512865489E+03  0.36361274807E+03  0.99999687468E+00 0.  0.
          4    1    3    3  501    0  0.37305404278E+02 -0.20068856284E+03 -0.15664496802E+03  0.25730378631E+03  0.00000000000E+00 0.  1.
   -9000007    1    1    2    0  503 -0.36068348700E+03  0.10383768362E+03 -0.15286086303E+04  0.16240440841E+04  0.40000000000E+03 0. -1.
<mgrwt>
<rscale>  2 0.54841356E+03</rscale>
<asrwt>0</asrwt>
<pdfrwt beam="1">  1       21 0.32659875E-01 0.54852059E+03</pdfrwt>
<pdfrwt beam="2">  1       21 0.31271868E+00 0.54852059E+03</pdfrwt>
<totfact> 0.19221790E+02</totfact>
</mgrwt>
</event>
<event>
 6    1  0.9163926E-004  0.4036531E+03  0.7818608E-02  0.1042580E+00
         21   -1    0    0  501  502  0.00000000000E+00  0.00000000000E+00  0.26913025286E+03  0.26913025286E+03  0.00000000000E+00 0. -1.
         21   -1    0    0  502  503 -0.00000000000E+00 -0.00000000000E+00 -0.84683234467E+03  0.84683234467E+03  0.00000000000E+00 0. -1.
    9000007    2    1    2  501    0 -0.44494998969E+02 -0.20348690535E+02  0.95210535318E+01  0.40376536603E+03  0.40067686008E+03 0.  0.
    9000005    1    3    3    0    0 -0.17332542018E+03  0.27411336664E+02  0.13209129573E+03  0.21964105504E+03  0.99999687468E+00 0.  0.
          4    1    3    3  501    0  0.12883042121E+03 -0.47760027199E+02 -0.12257024219E+03  0.18412431099E+03  0.00000000000E+00 0.  1.
   -9000007    1    1    2    0  503  0.44494998969E+02  0.20348690535E+02 -0.58722314534E+03  0.71219723150E+03  0.40000000000E+03 0. -1.
<mgrwt>
<rscale>  2 0.40348502E+03</rscale>
<asrwt>0</asrwt>
<pdfrwt beam="1">  1       21 0.41404655E-01 0.40365309E+03</pdfrwt>
<pdfrwt beam="2">  1       21 0.13028190E+00 0.40365309E+03</pdfrwt>
<totfact> 0.21158256E+03</totfact>
</mgrwt>
</event>
<event>
 6    1  0.9163926E-004  0.4665475E+03  0.7818608E-02  0.1022924E+00
         21   -1    0    0  501  502  0.00000000000E+00  0.00000000000E+00  0.91308595527E+03  0.91308595527E+03  0.00000000000E+00 0.  1.
         21   -1    0    0  502  503 -0.00000000000E+00 -0.00000000000E+00 -0.23936354603E+03  0.23936354603E+03  0.00000000000E+00 0. -1.
    9000007    2    1    2  501    0 -0.10348957995E+03  0.21595834703E+03  0.29700291597E+03  0.55306174916E+03  0.40039788396E+03 0.  0.
    9000005    1    3    3    0    0  0.53687319636E+02  0.13511539638E+03  0.34118632748E+03  0.37087411433E+03  0.99999687468E+00 0.  0.
          4    1    3    3  501    0 -0.15717689958E+03  0.80842950650E+02 -0.44183411509E+02  0.18218763483E+03  0.00000000000E+00 0.  1.
   -9000007    1    1    2    0  503  0.10348957995E+03 -0.21595834703E+03  0.37671949328E+03  0.59938775215E+03  0.40000000000E+03 0. -1.
<mgrwt>
<rscale>  2 0.46646212E+03</rscale>
<asrwt>0</asrwt>
<pdfrwt beam="1">  1       21 0.14047476E+00 0.46654750E+03</pdfrwt>
<pdfrwt beam="2">  1       21 0.36825161E-01 0.46654750E+03</pdfrwt>
<totfact> 0.21535350E+03</totfact>
</mgrwt>
</event>
<event>
 6    1  0.9163926E-004  0.5058365E+03  0.7818608E-02  0.1012290E+00
         21   -1    0    0  501  502  0.00000000000E+00  0.00000000000E+00  0.53123939814E+03  0.53123939814E+03  0.00000000000E+00 0.  1.
         21   -1    0    0  502  503 -0.00000000000E+00 -0.00000000000E+00 -0.50034995930E+03  0.50034995930E+03  0.00000000000E+00 0.  1.
    9000007    2    1    2  501    0  0.65693911611E+02  0.30258037675E+03  0.11606518232E+03  0.51863177470E+03  0.39954626361E+03 0.  0.
    9000005    1    3    3    0    0  0.75180614546E+02 -0.72850960143E+02  0.96802035603E+02  0.14258689031E+03  0.99999687468E+00 0.  0.
          4    1    3    3  501    0 -0.94867029348E+01  0.37543133689E+03  0.19263146714E+02  0.37604488439E+03  0.00000000000E+00 0.  1.
   -9000007    1    1    2    0  503 -0.65693911611E+02 -0.30258037675E+03 -0.85175743471E+02  0.51295758274E+03  0.40000000000E+03 0.  1.
<mgrwt>
<rscale>  2 0.50574680E+03</rscale>
<asrwt>0</asrwt>
<pdfrwt beam="1">  1       21 0.81729138E-01 0.50583651E+03</pdfrwt>
<pdfrwt beam="2">  1       21 0.76976917E-01 0.50583651E+03</pdfrwt>
<totfact> 0.16572264E+03</totfact>
</mgrwt>
</event>
<event>
 6    1  0.9163926E-004  0.4070110E+03  0.7818608E-02  0.1041684E+00
         21   -1    0    0  501  502  0.00000000000E+00  0.00000000000E+00  0.15569122338E+04  0.15569122338E+04  0.00000000000E+00 0. -1.
         21   -1    0    0  502  503 -0.00000000000E+00 -0.00000000000E+00 -0.12106895342E+03  0.12106895342E+03  0.00000000000E+00 0. -1.
    9000007    2    1    2  501    0  0.22166021288E+02  0.71879410072E+02  0.10163459353E+04  0.10934848188E+04  0.39634834021E+03 0.  0.
    9000005    1    3    3    0    0 -0.13565537387E+03 -0.77960747050E+02  0.23442526307E+03  0.28184474893E+03  0.99999687468E+00 0.  0.
          4    1    3    3  501    0  0.15782139516E+03  0.14984015712E+03  0.78192067221E+03  0.81164006992E+03  0.00000000000E+00 0.  1.
   -9000007    1    1    2    0  503 -0.22166021288E+02 -0.71879410072E+02  0.41949734508E+03  0.58449636836E+03  0.40000000000E+03 0. -1.
<mgrwt>
<rscale>  2 0.40611101E+03</rscale>
<asrwt>0</asrwt>
<pdfrwt beam="1">  1       21 0.23952494E+00 0.40701103E+03</pdfrwt>
<pdfrwt beam="2">  1       21 0.18625994E-01 0.40701103E+03</pdfrwt>
<totfact> 0.17177073E+03</totfact>
</mgrwt>
</event>
<event>
 6    1  0.9163926E-004  0.5480497E+03  0.7818608E-02  0.1002101E+00
         21   -1    0    0  501  502  0.00000000000E+00  0.00000000000E+00  0.17876914243E+04  0.17876914243E+04  0.00000000000E+00 0. -1.
         21   -1    0    0  502  503 -0.00000000000E+00 -0.00000000000E+00 -0.16758284544E+03  0.16758284544E+03  0.00000000000E+00 0. -1.
    9000007    2    1    2  501    0 -0.20280743312E+03  0.31500413775E+03  0.85474775677E+03  0.10139264861E+04  0.39635177540E+03 0.  0.
    9000005    1    3    3    0    0 -0.20860238645E+03  0.38680827366E+03  0.56742132492E+03  0.71770715210E+03  0.99999687468E+00 0.  0.
          4    1    3    3  501    0  0.57949533329E+01 -0.71804135913E+02  0.28732643185E+03  0.29621933404E+03  0.00000000000E+00 0.  1.
   -9000007    1    1    2    0  503  0.20280743312E+03 -0.31500413775E+03  0.76536082213E+03  0.94134778365E+03  0.40000000000E+03 0. -1.
<mgrwt>
<rscale>  2 0.54738423E+03</rscale>
<asrwt>0</asrwt>
<pdfrwt beam="1">  1       21 0.27502944E+00 0.54804969E+03</pdfrwt>
<pdfrwt beam="2">  1       21 0.25781977E-01 0.54804969E+03</pdfrwt>
<totfact> 0.52102909E+02</totfact>
</mgrwt>
</event>
<event>
 6    1  0.9163926E-004  0.4539376E+03  0.7818608E-02  0.1026562E+00
         21   -1    0    0  501  502  0.00000000000E+00  0.00000000000E+00  0.91921115804E+02  0.91921115804E+02  0.00000000000E+00 0.  1.
         21   -1    0    0  502  503 -0.00000000000E+00 -0.00000000000E+00 -0.23287877170E+04  0.23287877170E+04  0.00000000000E+00 0. -1.
    9000007    2    1    2  501    0 -0.84867183997E+02  0.19688326196E+03 -0.13533040926E+04  0.14274071846E+04  0.40011729004E+03 0.  0.
    9000005    1    3    3    0    0  0.49655430967E+02  0.16476261797E+03 -0.12304260213E+04  0.12424015357E+04  0.99999687468E+00 0.  0.
          4    1    3    3  501    0 -0.13452261496E+03  0.32120643988E+02 -0.12287807136E+03  0.18500564891E+03  0.00000000000E+00 0.  1.
   -9000007    1    1    2    0  503  0.84867183997E+02 -0.19688326196E+03 -0.88356250856E+03  0.99330164819E+03  0.40000000000E+03 0.  1.
<mgrwt>
<rscale>  2 0.45391171E+03</rscale>
<asrwt>0</asrwt>
<pdfrwt beam="1">  1       21 0.14141711E-01 0.45393755E+03</pdfrwt>
<pdfrwt beam="2">  1       21 0.35827500E+00 0.45393755E+03</pdfrwt>
<totfact> 0.53353423E+02</totfact>
</mgrwt>
</event>
<event>
 6    1  0.9163926E-004  0.4529341E+03  0.7818608E-02  0.1026872E+00
         21   -1    0    0  501  502  0.00000000000E+00  0.00000000000E+00  0.45319018484E+03  0.45319018484E+03  0.00000000000E+00 0.  1.
         21   -1    0    0  502  503 -0.00000000000E+00 -0.00000000000E+00 -0.10422961534E+04  0.10422961534E+04  0.00000000000E+00 0. -1.
    9000007    2    1    2  501    0 -0.96275227386E+02  0.18942108516E+03  0.26801912774E+03  0.52604696540E+03  0.39967723235E+03 0.  0.
    9000005    1    3    3    0    0 -0.17977923314E+03  0.15113275128E+03 -0.81411812870E+01  0.23500842539E+03  0.99999687468E+00 0.  0.
          4    1    3    3  501    0  0.83504005750E+02  0.38288333880E+02  0.27616030903E+03  0.29103854001E+03  0.00000000000E+00 0.  1.
   -9000007    1    1    2    0  503  0.96275227386E+02 -0.18942108516E+03 -0.85712509635E+03  0.96943937289E+03  0.40000000000E+03 0. -1.
<mgrwt>
<rscale>  2 0.45286279E+03</rscale>
<asrwt>0</asrwt>
<pdfrwt beam="1">  1       21 0.69721568E-01 0.45293406E+03</pdfrwt>
<pdfrwt beam="2">  1       21 0.16035325E+00 0.45293406E+03</pdfrwt>
<totfact> 0.38618067E+02</totfact>
</mgrwt>
</event>
<event>
 6    1  0.9163926E-004  0.4918837E+03  0.7818608E-02  0.1015954E+00
         21   -1    0    0  501  502  0.00000000000E+00  0.00000000000E+00  0.78361356985E+03  0.78361356985E+03  0.00000000000E+00 0.  1.
         21   -1    0    0  502  503 -0.00000000000E+00 -0.00000000000E+00 -0.50330254523E+03  0.50330254523E+03  0.00000000000E+00 0. -1.
    9000007    2    1    2  501    0  0.25033717586E+03 -0.13699266763E+03  0.54058564831E+03  0.73087783192E+03  0.40064182186E+03 0.  0.
    9000005    1    3    3    0    0  0.20248755529E+03 -0.11292955967E+03  0.49750969324E+02  0.23712961526E+03  0.99999687468E+00 0.  0.
          4    1    3    3  501    0  0.47849620578E+02 -0.24063107963E+02  0.49083467899E+03  0.49374821666E+03  0.00000000000E+00 0.  1.
   -9000007    1    1    2    0  503 -0.25033717586E+03  0.13699266763E+03 -0.26027462369E+03  0.55603828316E+03  0.40000000000E+03 0. -1.
<mgrwt>
<rscale>  2 0.49175298E+03</rscale>
<asrwt>0</asrwt>
<pdfrwt beam="1">  1       21 0.12055593E+00 0.49188369E+03</pdfrwt>
<pdfrwt beam="2">  1       21 0.77431161E-01 0.49188369E+03</pdfrwt>
<totfact> 0.63855767E+02</totfact>
</mgrwt>
</event>
<event>
 6    1  0.9163926E-004  0.4104798E+03  0.7818608E-02  0.1040214E+00
         21   -1    0    0  501  502  0.00000000000E+00  0.00000000000E+00  0.25022479107E+03  0.25022479107E+03  0.00000000000E+00 0. -1.
         21   -1    0    0  502  503 -0.00000000000E+00 -0.00000000000E+00 -0.67776714103E+03  0.67776714103E+03  0.00000000000E+00 0. -1.
    9000007    2    1    2  501    0  0.31808311228E+02  0.86498169158E+02 -0.17608034706E+03  0.44661179039E+03  0.39995512343E+03 0.  0.
    9000005    1    3    3    0    0  0.11751441499E+03  0.20406874006E+03 -0.18700533382E+03  0.30070863518E+03  0.99999687468E+00 0.  0.
          4    1    3    3  501    0 -0.85706103758E+02 -0.11757057091E+03  0.10924986757E+02  0.14590315521E+03  0.00000000000E+00 0.  1.
   -9000007    1    1    2    0  503 -0.31808311228E+02 -0.86498169158E+02 -0.25146200290E+03  0.48138014171E+03  0.40000000000E+03 0. -1.
<mgrwt>
<rscale>  2 0.41046891E+03</rscale>
<asrwt>0</asrwt>
<pdfrwt beam="1">  1       21 0.38496122E-01 0.41047984E+03</pdfrwt>
<pdfrwt beam="2">  1       21 0.10427187E+00 0.41047984E+03</pdfrwt>
<totfact> 0.42896510E+03</totfact>
</mgrwt>
</event>
<event>
 6    1  0.9163926E-004  0.4073216E+03  0.7818608E-02  0.1041584E+00
         21   -1    0    0  501  502  0.00000000000E+00  0.00000000000E+00  0.49304487842E+03  0.49304487842E+03  0.00000000000E+00 0. -1.
         21   -1    0    0  502  503 -0.00000000000E+00 -0.00000000000E+00 -0.53009435876E+03  0.53009435876E+03  0.00000000000E+00 0. -1.
    9000007    2    1    2  501    0  0.23627714966E+02 -0.48890421890E+02  0.29296725550E+03  0.50173767581E+03  0.40368594261E+03 0.  0.
    9000005    1    3    3    0    0 -0.63417892641E+02 -0.82049342150E+02  0.36787098710E+03  0.38220934944E+03  0.99999687468E+00 0.  0.
          4    1    3    3  501    0  0.87045607607E+02  0.33158920260E+02 -0.74903731601E+02  0.11952832637E+03  0.00000000000E+00 0.  1.
   -9000007    1    1    2    0  503 -0.23627714966E+02  0.48890421890E+02 -0.33001673583E+03  0.52140156137E+03  0.40000000000E+03 0. -1.
<mgrwt>
<rscale>  2 0.40640532E+03</rscale>
<asrwt>0</asrwt>
<pdfrwt beam="1">  1       21 0.75853059E-01 0.40732160E+03</pdfrwt>
<pdfrwt beam="2">  1       21 0.81552978E-01 0.40732160E+03</pdfrwt>
<totfact> 0.17879702E+03</totfact>
</mgrwt>
</event>
<event>
 6    1  0.9163926E-004  0.5099496E+03  0.7818608E-02  0.1011362E+00
         21   -1    0    0  501  502  0.00000000000E+00  0.00000000000E+00  0.88973735168E+03  0.88973735168E+03  0.00000000000E+00 0. -1.
         21   -1    0    0  502  503 -0.00000000000E+00 -0.00000000000E+00 -0.29346907904E+03  0.29346907904E+03  0.00000000000E+00 0.  1.
    9000007    2    1    2  501    0  0.31168945131E+03 -0.23277586326E+02  0.35361858109E+03  0.62055997611E+03  0.40293476268E+03 0.  0.
    9000005    1    3    3    0    0  0.38368328449E+03  0.56058294346E+02  0.33372950165E+03  0.51159727855E+03  0.99999687468E+00 0.  0.
          4    1    3    3  501    0 -0.71993833178E+02 -0.79335880672E+02  0.19889079442E+02  0.10896269756E+03  0.00000000000E+00 0.  1.
   -9000007    1    1    2    0  503 -0.31168945131E+03  0.23277586326E+02  0.24264969155E+03  0.56264645462E+03  0.40000000000E+03 0.  1.
<mgrwt>
<rscale>  2 0.50936967E+03</rscale>
<asrwt>0</asrwt>
<pdfrwt beam="1">  1       21 0.13688267E+00 0.50994959E+03</pdfrwt>
<pdfrwt beam="2">  1       21 0.45149089E-01 0.50994959E+03</pdfrwt>
<totfact> 0.14896461E+03</totfact>
</mgrwt>
</event>
<event>
 6    1  0.9163926E-004  0.4682559E+03  0.7818608E-02  0.1022418E+00
         21   -1    0    0  501  502  0.00000000000E+00  0.00000000000E+00  0.28849825643E+03  0.28849825643E+03  0.00000000000E+00 0.  1.
         21   -1    0    0  502  503 -0.00000000000E+00 -0.00000000000E+00 -0.75991979661E+03  0.75991979661E+03  0.00000000000E+00 0.  1.
    9000007    2    1    2  501    0  0.14053917991E+02  0.24303504167E+03 -0.23681681885E+03  0.52467869099E+03  0.39992746718E+03 0.  0.
    9000005    1    3    3    0    0 -0.16654789210E+03  0.22450588681E+03 -0.98293070188E+02  0.29631675824E+03  0.99999687468E+00 0.  0.
          4    1    3    3  501    0  0.18060181009E+03  0.18529154862E+02 -0.13852374866E+03  0.22836193275E+03  0.00000000000E+00 0.  1.
   -9000007    1    1    2    0  503 -0.14053917991E+02 -0.24303504167E+03 -0.23460472133E+03  0.52373936205E+03  0.40000000000E+03 0.  1.
<mgrwt>
<rscale>  2 0.46824036E+03</rscale>
<asrwt>0</asrwt>
<pdfrwt beam="1">  1       21 0.44384347E-01 0.46825585E+03</pdfrwt>
<pdfrwt beam="2">  1       21 0.11691074E+00 0.46825585E+03</pdfrwt>
<totfact> 0.23553229E+03</totfact>
</mgrwt>
</event>
<event>
 6    1  0.9163926E-004  0.6029125E+03  0.7818608E-02  0.9899492E-01
         21   -1    0    0  501  502  0.00000000000E+00  0.00000000000E+00  0.74530555715E+03  0.74530555715E+03  0.00000000000E+00 0.  1.
         21   -1    0    0  502  503 -0.00000000000E+00 -0.00000000000E+00 -0.48923958958E+03  0.48923958958E+03  0.00000000000E+00 0. -1.
    9000007    2    1    2  501    0 -0.36886596475E+03  0.25920112176E+03  0.91804129904E+02  0.60986180872E+03  0.40032000449E+03 0.  0.
    9000005    1    3    3    0    0 -0.42201171665E+03  0.10506513391E+03  0.31530626768E+02  0.43603641106E+03  0.99999687468E+00 0.  0.
          4    1    3    3  501    0  0.53145751893E+02  0.15413598784E+03  0.60273503136E+02  0.17382539766E+03  0.00000000000E+00 0.  1.
   -9000007    1    1    2    0  503  0.36886596475E+03 -0.25920112176E+03  0.16426183767E+03  0.62468333801E+03  0.40000000000E+03 0.  1.
<mgrwt>
<rscale>  2 0.60285934E+03</rscale>
<asrwt>0</asrwt>
<pdfrwt beam="1">  1       21 0.11466239E+00 0.60291245E+03</pdfrwt>
<pdfrwt beam="2">  1       21 0.75267629E-01 0.60291245E+03</pdfrwt>
<totfact> 0.74410186E+02</totfact>
</mgrwt>
</event>
<event>
 6    1  0.9163926E-004  0.6319657E+03  0.7818608E-02  0.9845727E-01
         21   -1    0    0  501  502  0.00000000000E+00  0.00000000000E+00  0.36818781174E+03  0.36818781174E+03  0.00000000000E+00 0. -1.
         21   -1    0    0  502  503 -0.00000000000E+00 -0.00000000000E+00 -0.22220298455E+04  0.22220298455E+04  0.00000000000E+00 0.  1.
    9000007    2    1    2  501    0  0.17239392530E+03 -0.45788753769E+03  0.92787898235E+01  0.62283364135E+03  0.38529856762E+03 0.  0.
    9000005    1    3    3    0    0  0.29182914790E+03 -0.32844743507E+03 -0.36433375073E+02  0.44087453996E+03  0.99999687468E+00 0.  0.
          4    1    3    3  501    0 -0.11943522260E+03 -0.12944010262E+03  0.45712164896E+02  0.18195910140E+03  0.00000000000E+00 0.  1.
   -9000007    1    1    2    0  503 -0.17239392530E+03  0.45788753769E+03 -0.18631208236E+04  0.19673840159E+04  0.40000000000E+03 0.  1.
<mgrwt>
<rscale>  2 0.62965275E+03</rscale>
<asrwt>0</asrwt>
<pdfrwt beam="1">  1       21 0.56644280E-01 0.63196571E+03</pdfrwt>
<pdfrwt beam="2">  1       21 0.34185074E+00 0.63196571E+03</pdfrwt>
<totfact> 0.38577767E+01</totfact>
</mgrwt>
</event>
<event>
 6    1  0.9163926E-004  0.5259942E+03  0.7818608E-02  0.1007223E+00
         21   -1    0    0  501  502  0.00000000000E+00  0.00000000000E+00  0.46513069619E+03  0.46513069619E+03  0.00000000000E+00 0.  1.
         21   -1    0    0  502  503 -0.00000000000E+00 -0.00000000000E+00 -0.80052995382E+03  0.80052995382E+03  0.00000000000E+00 0. -1.
    9000007    2    1    2  501    0 -0.33796505543E+03  0.49492619162E+02  0.15333389317E+03  0.54765647820E+03  0.39968292092E+03 0.  0.
    9000005    1    3    3    0    0 -0.18661732302E+03  0.78418569351E+02 -0.11895587269E+03  0.23479139020E+03  0.99999687468E+00 0.  0.
          4    1    3    3  501    0 -0.15134773241E+03 -0.28925950189E+02  0.27228976585E+03  0.31286508800E+03  0.00000000000E+00 0.  1.
   -9000007    1    1    2    0  503  0.33796505543E+03 -0.49492619162E+02 -0.48873315080E+03  0.71800417181E+03  0.40000000000E+03 0.  1.
<mgrwt>
<rscale>  2 0.52593392E+03</rscale>
<asrwt>0</asrwt>
<pdfrwt beam="1">  1       21 0.71558570E-01 0.52599420E+03</pdfrwt>
<pdfrwt beam="2">  1       21 0.12315845E+00 0.52599420E+03</pdfrwt>
<totfact> 0.71453925E+02</totfact>
</mgrwt>
</event>
<event>
 6    1  0.9163926E-004  0.4041145E+03  0.7818608E-02  0.1042385E+00
         21   -1    0    0  501  502  0.00000000000E+00  0.00000000000E+00  0.61367106116E+03  0.61367106116E+03  0.00000000000E+00 0.  1.
         21   -1    0    0  502  503 -0.00000000000E+00 -0.00000000000E+00 -0.39654136811E+03  0.39654136811E+03  0.00000000000E+00 0.  1.
    9000007    2    1    2  501    0 -0.52931952072E+02 -0.22510366558E+02  0.39840188737E+03  0.56730372921E+03  0.39975110901E+03 0.  0.
    9000005    1    3    3    0    0  0.14991990138E+03 -0.35957803929E+02  0.30877621804E+03  0.34512706836E+03  0.99999687468E+00 0.  0.
          4    1    3    3  501    0 -0.20285185345E+03  0.13447437371E+02  0.89625669331E+02  0.22217666084E+03  0.00000000000E+00 0.  1.
   -9000007    1    1    2    0  503  0.52931952072E+02  0.22510366558E+02 -0.18127219433E+03  0.44290870006E+03  0.40000000000E+03 0.  1.
<mgrwt>
<rscale>  2 0.40405287E+03</rscale>
<asrwt>0</asrwt>
<pdfrwt beam="1">  1       21 0.94410932E-01 0.40411447E+03</pdfrwt>
<pdfrwt beam="2">  1       21 0.61006364E-01 0.40411447E+03</pdfrwt>
<totfact> 0.20655042E+03</totfact>
</mgrwt>
</event>
<event>
 6    1  0.9163926E-004  0.4486408E+03  0.7818608E-02  0.1028134E+00
         21   -1    0    0  501  502  0.00000000000E+00  0.00000000000E+00  0.17702789000E+04  0.17702789000E+04  0.00000000000E+00 0. -1.
         21   -1    0    0  502  503 -0.00000000000E+00 -0.00000000000E+00 -0.11848305672E+03  0.11848305672E+03  0.00000000000E+00 0. -1.
    9000007    2    1    2  501    0 -0.10973576212E+03 -0.17079245177E+03  0.63582147314E+03  0.77816935823E+03  0.40008324796E+03 0.  0.
    9000005    1    3    3    0    0 -0.16974761721E+02 -0.26315169872E+03  0.22384430837E+03  0.34589627557E+03  0.99999687468E+00 0.  0.
          4    1    3    3  501    0 -0.92761000395E+02  0.92359246941E+02  0.41197716478E+03  0.43227308265E+03  0.00000000000E+00 0.  1.
   -9000007    1    1    2    0  503  0.10973576212E+03  0.17079245177E+03  0.10159743702E+04  0.11105925985E+04  0.40000000000E+03 0. -1.
<mgrwt>
<rscale>  2 0.44862228E+03</rscale>
<asrwt>0</asrwt>
<pdfrwt beam="1">  1       21 0.27235058E+00 0.44864084E+03</pdfrwt>
<pdfrwt beam="2">  1       21 0.18228164E-01 0.44864084E+03</pdfrwt>
<totfact> 0.11043434E+03</totfact>
</mgrwt>
</event>
<event>
 6    1  0.9163926E-004  0.4492363E+03  0.7818608E-02  0.1027954E+00
         21   -1    0    0  501  502  0.00000000000E+00  0.00000000000E+00  0.36771266253E+03  0.36771266253E+03  0.00000000000E+00 0.  1.
         21   -1    0    0  502  503 -0.00000000000E+00 -0.00000000000E+00 -0.28517142084E+04  0.28517142084E+04  0.00000000000E+00 0.  1.
    9000007    2    1    2  501    0 -0.18092951618E+03 -0.95018899099E+02  0.20454830777E+03  0.49361242447E+03  0.40006141325E+03 0.  0.
    9000005    1    3    3    0    0  0.11465338809E+03 -0.51896154651E+02 -0.93683564590E+01  0.12620370979E+03  0.99999687468E+00 0.  0.
          4    1    3    3  501    0 -0.29558290428E+03 -0.43122744448E+02  0.21391666423E+03  0.36740871468E+03  0.00000000000E+00 0.  1.
   -9000007    1    1    2    0  503  0.18092951618E+03  0.95018899099E+02 -0.26885498537E+04  0.27258144465E+04  0.40000000000E+03 0.  1.
<mgrwt>
<rscale>  2 0.44922258E+03</rscale>
<asrwt>0</asrwt>
<pdfrwt beam="1">  1       21 0.56571181E-01 0.44923626E+03</pdfrwt>
<pdfrwt beam="2">  1       21 0.43872525E+00 0.44923626E+03</pdfrwt>
<totfact> 0.10415449E+01</totfact>
</mgrwt>
</event>
<event>
 6    1  0.9163926E-004  0.4164503E+03  0.7818608E-02  0.1038264E+00
         21   -1    0    0  501  502  0.00000000000E+00  0.00000000000E+00  0.23335861432E+03  0.23335861432E+03  0.00000000000E+00 0.  1.
         21   -1    0    0  502  503 -0.00000000000E+00 -0.00000000000E+00 -0.74698892736E+03  0.74698892736E+03  0.00000000000E+00 0.  1.
    9000007    2    1    2  501    0 -0.11204425199E+03 -0.22716594987E+02 -0.29527874766E+03  0.51050994825E+03  0.40045088382E+03 0.  0.
    9000005    1    3    3    0    0 -0.13696095554E+03  0.17211154813E+03 -0.16088336818E+03  0.27251632336E+03  0.99999687468E+00 0.  0.
          4    1    3    3  501    0  0.24916703545E+02 -0.19482814312E+03 -0.13439537948E+03  0.23799362490E+03  0.00000000000E+00 0.  1.
   -9000007    1    1    2    0  503  0.11204425199E+03  0.22716594987E+02 -0.21835156538E+03  0.46983759343E+03  0.40000000000E+03 0.  1.
<mgrwt>
<rscale>  2 0.41634189E+03</rscale>
<asrwt>0</asrwt>
<pdfrwt beam="1">  1       21 0.35901326E-01 0.41645032E+03</pdfrwt>
<pdfrwt beam="2">  1       21 0.11492137E+00 0.41645032E+03</pdfrwt>
<totfact> 0.38785695E+03</totfact>
</mgrwt>
</event>
<event>
 6    1  0.9163926E-004  0.4743874E+03  0.7818608E-02  0.1020698E+00
         21   -1    0    0  501  502  0.00000000000E+00  0.00000000000E+00  0.45955260739E+03  0.45955260739E+03  0.00000000000E+00 0. -1.
         21   -1    0    0  502  503 -0.00000000000E+00 -0.00000000000E+00 -0.49007242613E+03  0.49007242613E+03  0.00000000000E+00 0. -1.
    9000007    2    1    2  501    0 -0.25141463354E+03 -0.41447360085E+02 -0.30394978003E+02  0.47536011051E+03  0.40014519659E+03 0.  0.
    9000005    1    3    3    0    0 -0.23367714220E+03 -0.19160753138E+03 -0.86105921515E+02  0.31421916330E+03  0.99999687468E+00 0.  0.
          4    1    3    3  501    0 -0.17737491339E+02  0.15016017129E+03  0.55710943512E+02  0.16114094721E+03  0.00000000000E+00 0.  1.
   -9000007    1    1    2    0  503  0.25141463354E+03  0.41447360085E+02 -0.12484073557E+00  0.47426492301E+03  0.40000000000E+03 0. -1.
<mgrwt>
<rscale>  2 0.47435675E+03</rscale>
<asrwt>0</asrwt>
<pdfrwt beam="1">  1       21 0.70700402E-01 0.47438737E+03</pdfrwt>
<pdfrwt beam="2">  1       21 0.75395757E-01 0.47438737E+03</pdfrwt>
<totfact> 0.24491590E+03</totfact>
</mgrwt>
</event>
<event>
 6    1  0.9163926E-004  0.4669571E+03  0.7818608E-02  0.1022898E+00
         21   -1    0    0  501  502  0.00000000000E+00  0.00000000000E+00  0.83953002462E+02  0.83953002462E+02  0.00000000000E+00 0.  1.
         21   -1    0    0  502  503 -0.00000000000E+00 -0.00000000000E+00 -0.40810005304E+04  0.40810005304E+04  0.00000000000E+00 0. -1.
    9000007    2    1    2  501    0 -0.15202503716E+03 -0.18281619142E+03 -0.74125309984E+03  0.87607367343E+03  0.40188997435E+03 0.  0.
    9000005    1    3    3    0    0 -0.18179246779E+03  0.50542128252E+01 -0.62997498240E+03  0.65570078912E+03  0.99999687468E+00 0.  0.
          4    1    3    3  501    0  0.29767430634E+02 -0.18787040424E+03 -0.11127811744E+03  0.22037288431E+03  0.00000000000E+00 0.  1.
   -9000007    1    1    2    0  503  0.15202503716E+03  0.18281619142E+03 -0.32557944281E+04  0.32888798594E+04  0.40000000000E+03 0. -1.
<mgrwt>
<rscale>  2 0.46655015E+03</rscale>
<asrwt>0</asrwt>
<pdfrwt beam="1">  1       21 0.12915850E-01 0.46695709E+03</pdfrwt>
<pdfrwt beam="2">  1       21 0.62784606E+00 0.46695709E+03</pdfrwt>
<totfact> 0.76549291E+00</totfact>
</mgrwt>
</event>
<event>
 6    1  0.9163926E-004  0.4331884E+03  0.7818608E-02  0.1032874E+00
         21   -1    0    0  501  502  0.00000000000E+00  0.00000000000E+00  0.14817911997E+04  0.14817911997E+04  0.00000000000E+00 0.  1.
         21   -1    0    0  502  503 -0.00000000000E+00 -0.00000000000E+00 -0.19005936440E+03  0.19005936440E+03  0.00000000000E+00 0.  1.
    9000007    2    1    2  501    0 -0.99646258993E+02 -0.13245786789E+03  0.11290747753E+04  0.12093229618E+04  0.40022208097E+03 0.  0.
    9000005    1    3    3    0    0  0.13856997213E+03 -0.10073905982E+03  0.66502103698E+03  0.68673428265E+03  0.99999687468E+00 0.  0.
          4    1    3    3  501    0 -0.23821623112E+03 -0.31718808071E+02  0.46405373832E+03  0.52258867918E+03  0.00000000000E+00 0.  1.
   -9000007    1    1    2    0  503  0.99646258993E+02  0.13245786789E+03  0.16265706000E+03  0.46252760227E+03  0.40000000000E+03 0.  1.
<mgrwt>
<rscale>  2 0.43313708E+03</rscale>
<asrwt>0</asrwt>
<pdfrwt beam="1">  1       21 0.22796787E+00 0.43318839E+03</pdfrwt>
<pdfrwt beam="2">  1       21 0.29239903E-01 0.43318839E+03</pdfrwt>
<totfact> 0.83786440E+02</totfact>
</mgrwt>
</event>
<event>
 6    1  0.9163926E-004  0.4243891E+03  0.7818608E-02  0.1035738E+00
         21   -1    0    0  501  502  0.00000000000E+00  0.00000000000E+00  0.39106322370E+03  0.39106322370E+03  0.00000000000E+00 0.  1.
         21   -1    0    0  502  503 -0.00000000000E+00 -0.00000000000E+00 -0.47762509550E+03  0.47762509550E+03  0.00000000000E+00 0.  1.
    9000007    2    1    2  501    0  0.12470411935E+03  0.67490655062E+02  0.41775398556E+02  0.42531876581E+03  0.39880416588E+03 0.  0.
    9000005    1    3    3    0    0 -0.28252157831E+02  0.20908185792E+03 -0.75909685967E+01  0.21112089080E+03  0.99999687468E+00 0.  0.
          4    1    3    3  501    0  0.15295627719E+03 -0.14159120286E+03  0.49366367153E+02  0.21419787502E+03  0.00000000000E+00 0.  1.
   -9000007    1    1    2    0  503 -0.12470411935E+03 -0.67490655062E+02 -0.12833727035E+03  0.44336955338E+03  0.40000000000E+03 0.  1.
<mgrwt>
<rscale>  2 0.42410709E+03</rscale>
<asrwt>0</asrwt>
<pdfrwt beam="1">  1       21 0.60163573E-01 0.42438910E+03</pdfrwt>
<pdfrwt beam="2">  1       21 0.73480784E-01 0.42438910E+03</pdfrwt>
<totfact> 0.37844904E+03</totfact>
</mgrwt>
</event>
<event>
 6    1  0.9163926E-004  0.6297582E+03  0.7818608E-02  0.9845576E-01
         21   -1    0    0  501  502  0.00000000000E+00  0.00000000000E+00  0.25470050862E+04  0.25470050862E+04  0.00000000000E+00 0.  1.
         21   -1    0    0  502  503 -0.00000000000E+00 -0.00000000000E+00 -0.10323618046E+04  0.10323618046E+04  0.00000000000E+00 0.  1.
    9000007    2    1    2  501    0 -0.13997958305E+03 -0.46568023454E+03  0.24065597801E+04  0.24875942932E+04  0.40017874478E+03 0.  0.
    9000005    1    3    3    0    0 -0.41232364629E+02  0.20285608688E+02  0.20116753867E+02  0.50172677751E+02  0.99999687468E+00 0.  0.
          4    1    3    3  501    0 -0.98747218423E+02 -0.48596584323E+03  0.23864430262E+04  0.24374216154E+04  0.00000000000E+00 0.  1.
   -9000007    1    1    2    0  503  0.13997958305E+03  0.46568023454E+03 -0.89191649847E+03  0.10917725975E+04  0.40000000000E+03 0.  1.
<mgrwt>
<rscale>  2 0.62972981E+03</rscale>
<asrwt>0</asrwt>
<pdfrwt beam="1">  1       21 0.39184693E+00 0.62975820E+03</pdfrwt>
<pdfrwt beam="2">  1       21 0.15882489E+00 0.62975820E+03</pdfrwt>
<totfact> 0.15081708E+00</totfact>
</mgrwt>
</event>
<event>
 6    1  0.9163926E-004  0.4431610E+03  0.7818608E-02  0.1029789E+00
         21   -1    0    0  501  502  0.00000000000E+00  0.00000000000E+00  0.23512790783E+03  0.23512790783E+03  0.00000000000E+00 0. -1.
         21   -1    0    0  502  503 -0.00000000000E+00 -0.00000000000E+00 -0.12203341113E+04  0.12203341113E+04  0.00000000000E+00 0. -1.
    9000007    2    1    2  501    0 -0.84069987385E+02  0.17097096009E+03 -0.83742052217E+02  0.45100373331E+03  0.40011598840E+03 0.  0.
    9000005    1    3    3    0    0 -0.20526171085E+03 -0.23148664319E+02  0.21350830264E+01  0.20657635192E+03  0.99999687468E+00 0.  0.
          4    1    3    3  501    0  0.12119172346E+03  0.19411962441E+03 -0.85877135244E+02  0.24442738139E+03  0.00000000000E+00 0.  1.
   -9000007    1    1    2    0  503  0.84069987385E+02 -0.17097096009E+03 -0.90146415122E+03  0.10044582858E+04  0.40000000000E+03 0. -1.
<mgrwt>
<rscale>  2 0.44313478E+03</rscale>
<asrwt>0</asrwt>
<pdfrwt beam="1">  1       21 0.36173524E-01 0.44316096E+03</pdfrwt>
<pdfrwt beam="2">  1       21 0.18774371E+00 0.44316096E+03</pdfrwt>
<totfact> 0.99911058E+02</totfact>
</mgrwt>
</event>
<event>
 6    1  0.9163926E-004  0.4655188E+03  0.7818608E-02  0.1023321E+00
         21   -1    0    0  501  502  0.00000000000E+00  0.00000000000E+00  0.42700819984E+03  0.42700819984E+03  0.00000000000E+00 0. -1.
         21   -1    0    0  502  503 -0.00000000000E+00 -0.00000000000E+00 -0.81545509283E+03  0.81545509283E+03  0.00000000000E+00 0.  1.
    9000007    2    1    2  501    0  0.17775063924E+03 -0.15846918822E+03  0.18898404781E+03  0.50075292821E+03  0.39790796853E+03 0.  0.
    9000005    1    3    3    0    0  0.26601717457E+03 -0.11505958726E+03  0.25188819994E+03  0.38399545706E+03  0.99999687468E+00 0.  0.
          4    1    3    3  501    0 -0.88266535324E+02 -0.43409600963E+02 -0.62904152124E+02  0.11675747115E+03  0.00000000000E+00 0.  1.
   -9000007    1    1    2    0  503 -0.17775063924E+03  0.15846918822E+03 -0.57743094080E+03  0.74171036447E+03  0.40000000000E+03 0.  1.
<mgrwt>
<rscale>  2 0.46506908E+03</rscale>
<asrwt>0</asrwt>
<pdfrwt beam="1">  1       21 0.65693569E-01 0.46551882E+03</pdfrwt>
<pdfrwt beam="2">  1       21 0.12545463E+00 0.46551882E+03</pdfrwt>
<totfact> 0.84544067E+02</totfact>
</mgrwt>
</event>
<event>
 6    1  0.9163926E-004  0.4575311E+03  0.7818608E-02  0.1025646E+00
         21   -1    0    0  501  502  0.00000000000E+00  0.00000000000E+00  0.56808760119E+03  0.56808760119E+03  0.00000000000E+00 0. -1.
         21   -1    0    0  502  503 -0.00000000000E+00 -0.00000000000E+00 -0.10371695124E+04  0.10371695124E+04  0.00000000000E+00 0. -1.
    9000007    2    1    2  501    0 -0.97130154976E+02  0.19511447340E+03  0.41051719923E+03  0.61470246097E+03  0.40228201541E+03 0.  0.
    9000005    1    3    3    0    0  0.25703659033E+02  0.16122805049E+03 -0.21140795254E+02  0.16463017819E+03  0.99999687468E+00 0.  0.
          4    1    3    3  501    0 -0.12283381401E+03  0.33886422908E+02  0.43165799449E+03  0.45007228278E+03  0.00000000000E+00 0.  1.
   -9000007    1    1    2    0  503  0.97130154976E+02 -0.19511447340E+03 -0.87959911044E+03  0.99055465262E+03  0.40000000000E+03 0. -1.
<mgrwt>
<rscale>  2 0.45702903E+03</rscale>
<asrwt>0</asrwt>
<pdfrwt beam="1">  1       21 0.87398093E-01 0.45753114E+03</pdfrwt>
<pdfrwt beam="2">  1       21 0.15956454E+00 0.45753114E+03</pdfrwt>
<totfact> 0.23227647E+02</totfact>
</mgrwt>
</event>
<event>
 6    1  0.9163926E-004  0.4663044E+03  0.7818608E-02  0.1023269E+00
         21   -1    0    0  501  502  0.00000000000E+00  0.00000000000E+00  0.20496032955E+03  0.20496032955E+03  0.00000000000E+00 0.  1.
         21   -1    0    0  502  503 -0.00000000000E+00 -0.00000000000E+00 -0.10860617803E+04  0.10860617803E+04  0.00000000000E+00 0.  1.
    9000007    2    1    2  501    0  0.22974570983E+03  0.27475224686E+02 -0.32707544110E+03  0.56957717187E+03  0.40484791143E+03 0.  0.
    9000005    1    3    3    0    0  0.23378009855E+03 -0.27952464337E+02  0.23879294244E+01  0.23545950170E+03  0.99999687468E+00 0.  0.
          4    1    3    3  501    0 -0.40343887232E+01  0.55427689023E+02 -0.32946337052E+03  0.33411767017E+03  0.00000000000E+00 0.  1.
   -9000007    1    1    2    0  503 -0.22974570983E+03 -0.27475224686E+02 -0.55402600961E+03  0.72144493794E+03  0.40000000000E+03 0.  1.
<mgrwt>
<rscale>  2 0.46525017E+03</rscale>
<asrwt>0</asrwt>
<pdfrwt beam="1">  1       21 0.31532358E-01 0.46630442E+03</pdfrwt>
<pdfrwt beam="2">  1       21 0.16708643E+00 0.46630442E+03</pdfrwt>
<totfact> 0.18299225E+03</totfact>
</mgrwt>
</event>
<event>
 6    1  0.9163926E-004  0.4235940E+03  0.7818608E-02  0.1035943E+00
         21   -1    0    0  501  502  0.00000000000E+00  0.00000000000E+00  0.37909736386E+03  0.37909736386E+03  0.00000000000E+00 0. -1.
         21   -1    0    0  502  503 -0.00000000000E+00 -0.00000000000E+00 -0.49906583096E+03  0.49906583096E+03  0.00000000000E+00 0. -1.
    9000007    2    1    2  501    0  0.12145899608E+03  0.65229141991E+02 -0.16083853339E+03  0.45310144517E+03  0.40053059446E+03 0.  0.
    9000005    1    3    3    0    0 -0.15247247336E+02 -0.13807421493E+03  0.30523823353E+02  0.14223104853E+03  0.99999687468E+00 0.  0.
          4    1    3    3  501    0  0.13670624341E+03  0.20330335693E+03 -0.19136235674E+03  0.31087039664E+03  0.00000000000E+00 0.  1.
   -9000007    1    1    2    0  503 -0.12145899608E+03 -0.65229141991E+02  0.40870066291E+02  0.42506174965E+03  0.40000000000E+03 0.  1.
<mgrwt>
<rscale>  2 0.42346854E+03</rscale>
<asrwt>0</asrwt>
<pdfrwt beam="1">  1       21 0.58322671E-01 0.42359401E+03</pdfrwt>
<pdfrwt beam="2">  1       21 0.76779359E-01 0.42359401E+03</pdfrwt>
<totfact> 0.36656911E+03</totfact>
</mgrwt>
</event>
<event>
 6    1  0.9163926E-004  0.4752887E+03  0.7818608E-02  0.1020456E+00
         21   -1    0    0  501  502  0.00000000000E+00  0.00000000000E+00  0.16077467154E+04  0.16077467154E+04  0.00000000000E+00 0.  1.
         21   -1    0    0  502  503 -0.00000000000E+00 -0.00000000000E+00 -0.60100673830E+03  0.60100673830E+03  0.00000000000E+00 0.  1.
    9000007    2    1    2  501    0 -0.19768495789E+03 -0.16376827478E+03  0.14701186225E+04  0.15449619507E+04  0.39969897983E+03 0.  0.
    9000005    1    3    3    0    0  0.66091591006E+02  0.80526977174E+02  0.49078297813E+03  0.50171867024E+03  0.99999687468E+00 0.  0.
          4    1    3    3  501    0 -0.26377654890E+03 -0.24429525195E+03  0.97933564439E+03  0.10432432805E+04  0.00000000000E+00 0.  1.
   -9000007    1    1    2    0  503  0.19768495789E+03  0.16376827478E+03 -0.46337864543E+03  0.66379150299E+03  0.40000000000E+03 0.  1.
<mgrwt>
<rscale>  2 0.47522540E+03</rscale>
<asrwt>0</asrwt>
<pdfrwt beam="1">  1       21 0.24734565E+00 0.47528874E+03</pdfrwt>
<pdfrwt beam="2">  1       21 0.92462576E-01 0.47528874E+03</pdfrwt>
<totfact> 0.51883101E+01</totfact>
</mgrwt>
</event>
<event>
 6    1  0.9163926E-004  0.5682873E+03  0.7818608E-02  0.9973700E-01
         21   -1    0    0  501  502  0.00000000000E+00  0.00000000000E+00  0.27508899990E+03  0.27508899990E+03  0.00000000000E+00 0.  1.
         21   -1    0    0  502  503 -0.00000000000E+00 -0.00000000000E+00 -0.24054410003E+04  0.24054410003E+04  0.00000000000E+00 0.  1.
    9000007    2    1    2  501    0  0.27275236145E+03 -0.29758468204E+03 -0.10570150721E+03  0.57763672824E+03  0.39942569713E+03 0.  0.
    9000005    1    3    3    0    0  0.35623534553E+03 -0.17725261418E+03 -0.14905288602E+03  0.42489983933E+03  0.99999687468E+00 0.  0.
          4    1    3    3  501    0 -0.83482984087E+02 -0.12033206787E+03  0.43351378812E+02  0.15273688891E+03  0.00000000000E+00 0.  1.
   -9000007    1    1    2    0  503 -0.27275236145E+03  0.29758468204E+03 -0.20246504932E+04  0.21028932720E+04  0.40000000000E+03 0.  1.
<mgrwt>
<rscale>  2 0.56818628E+03</rscale>
<asrwt>0</asrwt>
<pdfrwt beam="1">  1       21 0.42321385E-01 0.56828733E+03</pdfrwt>
<pdfrwt beam="2">  1       21 0.37006785E+00 0.56828733E+03</pdfrwt>
<totfact> 0.49553298E+01</totfact>
</mgrwt>
</event>
<event>
 6    1  0.9163926E-004  0.4576100E+03  0.7818608E-02  0.1025534E+00
         21   -1    0    0  501  502  0.00000000000E+00  0.00000000000E+00  0.18947799561E+04  0.18947799561E+04  0.00000000000E+00 0.  1.
         21   -1    0    0  502  503 -0.00000000000E+00 -0.00000000000E+00 -0.29181079472E+03  0.29181079472E+03  0.00000000000E+00 0.  1.
    9000007    2    1    2  501    0  0.16801515913E+03 -0.14305498479E+03  0.16639323397E+04  0.17257107974E+04  0.40089038756E+03 0.  0.
    9000005    1    3    3    0    0 -0.58293554477E+02  0.30249508806E+02  0.10127085630E+04  0.10148363439E+04  0.99999687468E+00 0.  0.
          4    1    3    3  501    0  0.22630871361E+03 -0.17330449360E+03  0.65122377667E+03  0.71087445351E+03  0.00000000000E+00 0.  1.
   -9000007    1    1    2    0  503 -0.16801515913E+03  0.14305498479E+03 -0.60963178293E+02  0.46087995343E+03  0.40000000000E+03 0.  1.
<mgrwt>
<rscale>  2 0.45741493E+03</rscale>
<asrwt>0</asrwt>
<pdfrwt beam="1">  1       21 0.29150460E+00 0.45761001E+03</pdfrwt>
<pdfrwt beam="2">  1       21 0.44893969E-01 0.45761001E+03</pdfrwt>
<totfact> 0.14128577E+02</totfact>
</mgrwt>
</event>
<event>
 6    1  0.9163926E-004  0.6459224E+03  0.7818608E-02  0.9814579E-01
         21   -1    0    0  501  502  0.00000000000E+00  0.00000000000E+00  0.42992385268E+03  0.42992385268E+03  0.00000000000E+00 0.  1.
         21   -1    0    0  502  503 -0.00000000000E+00 -0.00000000000E+00 -0.17839137164E+04  0.17839137164E+04  0.00000000000E+00 0. -1.
    9000007    2    1    2  501    0 -0.48353076807E+03  0.15301533296E+03  0.70729152570E+02  0.64953581713E+03  0.39959788403E+03 0.  0.
    9000005    1    3    3    0    0 -0.69680486490E+02  0.88802921359E+02 -0.14070409542E+03  0.18038839070E+03  0.99999687468E+00 0.  0.
          4    1    3    3  501    0 -0.41385028158E+03  0.64212411599E+02  0.21143324799E+03  0.46914742642E+03  0.00000000000E+00 0.  1.
   -9000007    1    1    2    0  503  0.48353076807E+03 -0.15301533296E+03 -0.14247190162E+04  0.15643017519E+04  0.40000000000E+03 0. -1.
<mgrwt>
<rscale>  2 0.64586012E+03</rscale>
<asrwt>0</asrwt>
<pdfrwt beam="1">  1       21 0.66142131E-01 0.64592236E+03</pdfrwt>
<pdfrwt beam="2">  1       21 0.27444826E+00 0.64592236E+03</pdfrwt>
<totfact> 0.70363775E+01</totfact>
</mgrwt>
</event>
<event>
 6    1  0.9163926E-004  0.5144874E+03  0.7818608E-02  0.1010100E+00
         21   -1    0    0  501  502  0.00000000000E+00  0.00000000000E+00  0.14682094308E+04  0.14682094308E+04  0.00000000000E+00 0.  1.
         21   -1    0    0  502  503 -0.00000000000E+00 -0.00000000000E+00 -0.69348684874E+03  0.69348684874E+03  0.00000000000E+00 0.  1.
    9000007    2    1    2  501    0 -0.31952506280E+03  0.45082778873E+02  0.13173903379E+04  0.14142894184E+04  0.40071003713E+03 0.  0.
    9000005    1    3    3    0    0 -0.14382399697E+03  0.16005228684E+03  0.26600899035E+03  0.34214596237E+03  0.99999687468E+00 0.  0.
          4    1    3    3  501    0 -0.17570106584E+03 -0.11496950796E+03  0.10513813476E+04  0.10721434561E+04  0.00000000000E+00 0.  1.
   -9000007    1    1    2    0  503  0.31952506280E+03 -0.45082778873E+02 -0.54266775591E+03  0.74740686109E+03  0.40000000000E+03 0.  1.
<mgrwt>
<rscale>  2 0.51434911E+03</rscale>
<asrwt>0</asrwt>
<pdfrwt beam="1">  1       21 0.22587837E+00 0.51448737E+03</pdfrwt>
<pdfrwt beam="2">  1       21 0.10669028E+00 0.51448737E+03</pdfrwt>
<totfact> 0.48817393E+01</totfact>
</mgrwt>
</event>
<event>
 6    1  0.9163926E-004  0.4956515E+03  0.7818608E-02  0.1014977E+00
         21   -1    0    0  501  502  0.00000000000E+00  0.00000000000E+00  0.82007560983E+03  0.82007560983E+03  0.00000000000E+00 0. -1.
         21   -1    0    0  502  503 -0.00000000000E+00 -0.00000000000E+00 -0.29919975561E+03  0.29919975561E+03  0.00000000000E+00 0.  1.
    9000007    2    1    2  501    0  0.40248574058E+02 -0.28991452155E+03  0.24760104620E+03  0.55328110910E+03  0.39892772540E+03 0.  0.
    9000005    1    3    3    0    0  0.15626290085E+03 -0.23677595312E+03  0.30219126593E+03  0.41448945385E+03  0.99999687468E+00 0.  0.
          4    1    3    3  501    0 -0.11601432679E+03 -0.53138568427E+02 -0.54590219730E+02  0.13879165525E+03  0.00000000000E+00 0.  1.
   -9000007    1    1    2    0  503 -0.40248574058E+02  0.28991452155E+03  0.27327480802E+03  0.56599425635E+03  0.40000000000E+03 0. -1.
<mgrwt>
<rscale>  2 0.49543509E+03</rscale>
<asrwt>0</asrwt>
<pdfrwt beam="1">  1       21 0.12616548E+00 0.49565147E+03</pdfrwt>
<pdfrwt beam="2">  1       21 0.46030732E-01 0.49565147E+03</pdfrwt>
<totfact> 0.17783045E+03</totfact>
</mgrwt>
</event>
<event>
 6    1  0.9163926E-004  0.4854831E+03  0.7818608E-02  0.1017694E+00
         21   -1    0    0  501  502  0.00000000000E+00  0.00000000000E+00  0.35121823675E+03  0.35121823675E+03  0.00000000000E+00 0.  1.
         21   -1    0    0  502  503 -0.00000000000E+00 -0.00000000000E+00 -0.83080385917E+03  0.83080385917E+03  0.00000000000E+00 0.  1.
    9000007    2    1    2  501    0  0.19468186953E+03 -0.19236763361E+03 -0.50000475197E+03  0.69692078935E+03  0.40098316404E+03 0.  0.
    9000005    1    3    3    0    0  0.12825591346E+03 -0.27507181556E+03 -0.16486042605E+03  0.34538969748E+03  0.99999687468E+00 0.  0.
          4    1    3    3  501    0  0.66425956066E+02  0.82704181951E+02 -0.33514432592E+03  0.35153109187E+03  0.00000000000E+00 0.  1.
   -9000007    1    1    2    0  503 -0.19468186953E+03  0.19236763361E+03  0.20419129559E+02  0.48510130657E+03  0.40000000000E+03 0.  1.
<mgrwt>
<rscale>  2 0.48528004E+03</rscale>
<asrwt>0</asrwt>
<pdfrwt beam="1">  1       21 0.54033576E-01 0.48548309E+03</pdfrwt>
<pdfrwt beam="2">  1       21 0.12781598E+00 0.48548309E+03</pdfrwt>
<totfact> 0.12265862E+03</totfact>
</mgrwt>
</event>
<event>
 6    1  0.9163926E-004  0.4394052E+03  0.7818608E-02  0.1030939E+00
         21   -1    0    0  501  502  0.00000000000E+00  0.00000000000E+00  0.10957016239E+03  0.10957016239E+03  0.00000000000E+00 0.  1.
         21   -1    0    0  502  503 -0.00000000000E+00 -0.00000000000E+00 -0.17708188995E+04  0.17708188995E+04  0.00000000000E+00 0.  1.
    9000007    2    1    2  501    0  0.11679857616E+03 -0.13900609560E+03 -0.89851668114E+03  0.10002045408E+04  0.40014034427E+03 0.  0.
    9000005    1    3    3    0    0 -0.72962185466E+02 -0.21136250673E+03 -0.35032712413E+03  0.41560520166E+03  0.99999687468E+00 0.  0.
          4    1    3    3  501    0  0.18976076163E+03  0.72356411121E+02 -0.54818955701E+03  0.58459933912E+03  0.00000000000E+00 0.  1.
   -9000007    1    1    2    0  503 -0.11679857616E+03  0.13900609560E+03 -0.76273205600E+03  0.88018452115E+03  0.40000000000E+03 0.  1.
<mgrwt>
<rscale>  2 0.43937321E+03</rscale>
<asrwt>0</asrwt>
<pdfrwt beam="1">  1       21 0.16856949E-01 0.43940516E+03</pdfrwt>
<pdfrwt beam="2">  1       21 0.27243366E+00 0.43940516E+03</pdfrwt>
<totfact> 0.12837528E+03</totfact>
</mgrwt>
</event>
<event>
 6    1  0.9163926E-004  0.5480471E+03  0.7818608E-02  0.1001950E+00
         21   -1    0    0  501  502  0.00000000000E+00  0.00000000000E+00  0.39409367174E+03  0.39409367174E+03  0.00000000000E+00 0. -1.
         21   -1    0    0  502  503 -0.00000000000E+00 -0.00000000000E+00 -0.10156584281E+04  0.10156584281E+04  0.00000000000E+00 0.  1.
    9000007    2    1    2  501    0 -0.18799277319E+03  0.32397633734E+03  0.41415627593E+02  0.54960970498E+03  0.40006702397E+03 0.  0.
    9000005    1    3    3    0    0  0.60068592192E+02  0.22170899357E+03  0.13380418389E+03  0.26583392036E+03  0.99999687468E+00 0.  0.
          4    1    3    3  501    0 -0.24806136539E+03  0.10226734377E+03 -0.92388556298E+02  0.28377578462E+03  0.00000000000E+00 0.  1.
   -9000007    1    1    2    0  503  0.18799277319E+03 -0.32397633734E+03 -0.66298038392E+03  0.86014239483E+03  0.40000000000E+03 0.  1.
<mgrwt>
<rscale>  2 0.54803482E+03</rscale>
<asrwt>0</asrwt>
<pdfrwt beam="1">  1       21 0.60629797E-01 0.54804705E+03</pdfrwt>
<pdfrwt beam="2">  1       21 0.15625514E+00 0.54804705E+03</pdfrwt>
<totfact> 0.54433841E+02</totfact>
</mgrwt>
</event>
<event>
 6    1  0.9163926E-004  0.4371419E+03  0.7818608E-02  0.1031647E+00
         21   -1    0    0  501  502  0.00000000000E+00  0.00000000000E+00  0.92105734958E+03  0.92105734958E+03  0.00000000000E+00 0. -1.
         21   -1    0    0  502  503 -0.00000000000E+00 -0.00000000000E+00 -0.21087725715E+03  0.21087725715E+03  0.00000000000E+00 0. -1.
    9000007    2    1    2  501    0  0.12660410505E+02 -0.17524884937E+03  0.28201031630E+03  0.52021424383E+03  0.40027564976E+03 0.  0.
    9000005    1    3    3    0    0 -0.11497507060E+03  0.18435540935E+02  0.26282208992E+03  0.28746406206E+03  0.99999687468E+00 0.  0.
          4    1    3    3  501    0  0.12763548110E+03 -0.19368439031E+03  0.19188226377E+02  0.23275018178E+03  0.00000000000E+00 0.  1.
   -9000007    1    1    2    0  503 -0.12660410505E+02  0.17524884937E+03  0.42816977612E+03  0.61172036290E+03  0.40000000000E+03 0. -1.
<mgrwt>
<rscale>  2 0.43707879E+03</rscale>
<asrwt>0</asrwt>
<pdfrwt beam="1">  1       21 0.14170113E+00 0.43714190E+03</pdfrwt>
<pdfrwt beam="2">  1       21 0.32442655E-01 0.43714190E+03</pdfrwt>
<totfact> 0.27488936E+03</totfact>
</mgrwt>
</event>
<event>
 6    1  0.9163926E-004  0.6719419E+03  0.7818608E-02  0.9766570E-01
         21   -1    0    0  501  502  0.00000000000E+00  0.00000000000E+00  0.84421111368E+03  0.84421111368E+03  0.00000000000E+00 0.  1.
         21   -1    0    0  502  503 -0.00000000000E+00 -0.00000000000E+00 -0.74799658371E+03  0.74799658371E+03  0.00000000000E+00 0. -1.
    9000007    2    1    2  501    0  0.11559703347E+03  0.52707051338E+03 -0.37708184353E+03  0.77051708811E+03  0.40042460731E+03 0.  0.
    9000005    1    3    3    0    0 -0.21392751376E+02  0.49557477018E+03 -0.38766833077E+03  0.62955519005E+03  0.99999687468E+00 0.  0.
          4    1    3    3  501    0  0.13698978485E+03  0.31495743201E+02  0.10586487243E+02  0.14096189806E+03  0.00000000000E+00 0.  1.
   -9000007    1    1    2    0  503 -0.11559703347E+03 -0.52707051338E+03  0.47329637349E+03  0.82169060928E+03  0.40000000000E+03 0.  1.
<mgrwt>
<rscale>  2 0.67187862E+03</rscale>
<asrwt>0</asrwt>
<pdfrwt beam="1">  1       21 0.12987863E+00 0.67194186E+03</pdfrwt>
<pdfrwt beam="2">  1       21 0.11507640E+00 0.67194186E+03</pdfrwt>
<totfact> 0.18964449E+02</totfact>
</mgrwt>
</event>
<event>
 6    1  0.9163926E-004  0.5418001E+03  0.7818608E-02  0.1003453E+00
         21   -1    0    0  501  502  0.00000000000E+00  0.00000000000E+00  0.22864015502E+03  0.22864015502E+03  0.00000000000E+00 0. -1.
         21   -1    0    0  502  503 -0.00000000000E+00 -0.00000000000E+00 -0.20990173921E+04  0.20990173921E+04  0.00000000000E+00 0. -1.
    9000007    2    1    2  501    0  0.27169057526E+03 -0.24278956002E+03 -0.20954464106E+03  0.58090986897E+03  0.40097977522E+03 0.  0.
    9000005    1    3    3    0    0  0.60106904030E+01 -0.22669543975E+03  0.22374316546E+02  0.22787839045E+03  0.99999687468E+00 0.  0.
          4    1    3    3  501    0  0.26567988486E+03 -0.16094120271E+02 -0.23191895761E+03  0.35303147852E+03  0.00000000000E+00 0.  1.
   -9000007    1    1    2    0  503 -0.27169057526E+03  0.24278956002E+03 -0.16608325961E+04  0.17467476782E+04  0.40000000000E+03 0. -1.
<mgrwt>
<rscale>  2 0.54161880E+03</rscale>
<asrwt>0</asrwt>
<pdfrwt beam="1">  1       21 0.35175408E-01 0.54180007E+03</pdfrwt>
<pdfrwt beam="2">  1       21 0.32292576E+00 0.54180007E+03</pdfrwt>
<totfact> 0.14387579E+02</totfact>
</mgrwt>
</event>
<event>
 6    1  0.9163926E-004  0.4038796E+03  0.7818608E-02  0.1042701E+00
         21   -1    0    0  501  502  0.00000000000E+00  0.00000000000E+00  0.15844431004E+03  0.15844431004E+03  0.00000000000E+00 0.  1.
         21   -1    0    0  502  503 -0.00000000000E+00 -0.00000000000E+00 -0.12668602401E+04  0.12668602401E+04  0.00000000000E+00 0.  1.
    9000007    2    1    2  501    0 -0.26520171444E+02 -0.37320576685E+01 -0.86923039205E+03  0.95847806276E+03  0.40299066314E+03 0.  0.
    9000005    1    3    3    0    0  0.14822484780E+03  0.72992772716E+02 -0.63602442621E+03  0.65713516197E+03  0.99999687468E+00 0.  0.
          4    1    3    3  501    0 -0.17474501925E+03 -0.76724830384E+02 -0.23320596584E+03  0.30134290078E+03  0.00000000000E+00 0.  1.
   -9000007    1    1    2    0  503  0.26520171444E+02  0.37320576685E+01 -0.23918553806E+03  0.46682648743E+03  0.40000000000E+03 0.  1.
<mgrwt>
<rscale>  2 0.40313151E+03</rscale>
<asrwt>0</asrwt>
<pdfrwt beam="1">  1       21 0.24376048E-01 0.40387959E+03</pdfrwt>
<pdfrwt beam="2">  1       21 0.19490157E+00 0.40387959E+03</pdfrwt>
<totfact> 0.19893284E+03</totfact>
</mgrwt>
</event>
<event>
 6    1  0.9163926E-004  0.5344787E+03  0.7818608E-02  0.1005192E+00
         21   -1    0    0  501  502  0.00000000000E+00  0.00000000000E+00  0.73486105122E+03  0.73486105122E+03  0.00000000000E+00 0.  1.
         21   -1    0    0  502  503 -0.00000000000E+00 -0.00000000000E+00 -0.58990649225E+03  0.58990649225E+03  0.00000000000E+00 0. -1.
    9000007    2    1    2  501    0  0.31437424084E+03 -0.16161959272E+03  0.45978658130E+03  0.70503271443E+03  0.40089321773E+03 0.  0.
    9000005    1    3    3    0    0  0.32308546611E+03 -0.20456380606E+03  0.18144969461E+03  0.42326771768E+03  0.99999687468E+00 0.  0.
          4    1    3    3  501    0 -0.87112252719E+01  0.42944213343E+02  0.27833688668E+03  0.28176499675E+03  0.00000000000E+00 0.  1.
   -9000007    1    1    2    0  503 -0.31437424084E+03  0.16161959272E+03 -0.31483202232E+03  0.61973482904E+03  0.40000000000E+03 0. -1.
<mgrwt>
<rscale>  2 0.53431116E+03</rscale>
<asrwt>0</asrwt>
<pdfrwt beam="1">  1       21 0.11305555E+00 0.53447865E+03</pdfrwt>
<pdfrwt beam="2">  1       21 0.90754845E-01 0.53447865E+03</pdfrwt>
<totfact> 0.50948597E+02</totfact>
</mgrwt>
</event>
<event>
 6    1  0.9163926E-004  0.4914314E+03  0.7818608E-02  0.1016098E+00
         21   -1    0    0  501  502  0.00000000000E+00  0.00000000000E+00  0.12607598548E+04  0.12607598548E+04  0.00000000000E+00 0.  1.
         21   -1    0    0  502  503 -0.00000000000E+00 -0.00000000000E+00 -0.19367344080E+03  0.19367344080E+03  0.00000000000E+00 0. -1.
    9000007    2    1    2  501    0  0.20740201369E+03  0.19618664821E+03  0.61499240684E+03  0.78668050638E+03  0.39893077398E+03 0.  0.
    9000005    1    3    3    0    0  0.16185132876E+02 -0.10857974778E+03  0.59555125567E+02  0.12489729032E+03  0.99999687468E+00 0.  0.
          4    1    3    3  501    0  0.19121688081E+03  0.30476639599E+03  0.55543728128E+03  0.66178321606E+03  0.00000000000E+00 0.  1.
   -9000007    1    1    2    0  503 -0.20740201369E+03 -0.19618664821E+03  0.45209400718E+03  0.66775278925E+03  0.40000000000E+03 0. -1.
<mgrwt>
<rscale>  2 0.49121375E+03</rscale>
<asrwt>0</asrwt>
<pdfrwt beam="1">  1       21 0.19396305E+00 0.49143137E+03</pdfrwt>
<pdfrwt beam="2">  1       21 0.29795915E-01 0.49143137E+03</pdfrwt>
<totfact> 0.13101657E+03</totfact>
</mgrwt>
</event>
<event>
 6    1  0.9163926E-004  0.4163626E+03  0.7818608E-02  0.1038299E+00
         21   -1    0    0  501  502  0.00000000000E+00  0.00000000000E+00  0.63714915477E+03  0.63714915477E+03  0.00000000000E+00 0.  1.
         21   -1    0    0  502  503 -0.00000000000E+00 -0.00000000000E+00 -0.71201189744E+03  0.71201189744E+03  0.00000000000E+00 0.  1.
    9000007    2    1    2  501    0  0.53421606437E+02 -0.10037691875E+03  0.49301294198E+03  0.64530582061E+03  0.40053520107E+03 0.  0.
    9000005    1    3    3    0    0 -0.10851728334E+03 -0.14047965454E+03  0.43305889505E+03  0.46802942290E+03  0.99999687468E+00 0.  0.
          4    1    3    3  501    0  0.16193888978E+03  0.40102735790E+02  0.59954046927E+02  0.17727639771E+03  0.00000000000E+00 0.  1.
   -9000007    1    1    2    0  503 -0.53421606437E+02  0.10037691875E+03 -0.56787568464E+03  0.70385523161E+03  0.40000000000E+03 0.  1.
<mgrwt>
<rscale>  2 0.41623386E+03</rscale>
<asrwt>0</asrwt>
<pdfrwt beam="1">  1       21 0.98022947E-01 0.41636263E+03</pdfrwt>
<pdfrwt beam="2">  1       21 0.10954029E+00 0.41636263E+03</pdfrwt>
<totfact> 0.48207299E+02</totfact>
</mgrwt>
</event>
<event>
 6    1  0.9163926E-004  0.4683543E+03  0.7818608E-02  0.1022440E+00
         21   -1    0    0  501  502  0.00000000000E+00  0.00000000000E+00  0.12767979647E+04  0.12767979647E+04  0.00000000000E+00 0. -1.
         21   -1    0    0  502  503 -0.00000000000E+00 -0.00000000000E+00 -0.17673085700E+03  0.17673085700E+03  0.00000000000E+00 0. -1.
    9000007    2    1    2  501    0 -0.24068491536E+03 -0.37769621201E+02  0.42480638330E+03  0.63174246341E+03  0.39910187172E+03 0.  0.
    9000005    1    3    3    0    0 -0.13235080853E+03 -0.20055885249E+03  0.11746538779E+03  0.26746907700E+03  0.99999687468E+00 0.  0.
          4    1    3    3  501    0 -0.10833410683E+03  0.16278923128E+03  0.30734099551E+03  0.36427338641E+03  0.00000000000E+00 0.  1.
   -9000007    1    1    2    0  503  0.24068491536E+03  0.37769621201E+02  0.67526072442E+03  0.82178635832E+03  0.40000000000E+03 0. -1.
<mgrwt>
<rscale>  2 0.46816250E+03</rscale>
<asrwt>0</asrwt>
<pdfrwt beam="1">  1       21 0.19643045E+00 0.46835432E+03</pdfrwt>
<pdfrwt beam="2">  1       21 0.27189363E-01 0.46835432E+03</pdfrwt>
<totfact> 0.15255064E+03</totfact>
</mgrwt>
</event>
<event>
 6    1  0.9163926E-004  0.4264184E+03  0.7818608E-02  0.1035015E+00
         21   -1    0    0  501  502  0.00000000000E+00  0.00000000000E+00  0.85040863466E+03  0.85040863466E+03  0.00000000000E+00 0.  1.
         21   -1    0    0  502  503 -0.00000000000E+00 -0.00000000000E+00 -0.34475785380E+03  0.34475785380E+03  0.00000000000E+00 0.  1.
    9000007    2    1    2  501    0  0.11653118816E+03 -0.90846929028E+02  0.62122224344E+03  0.75336399267E+03  0.39975936184E+03 0.  0.
    9000005    1    3    3    0    0  0.12907582424E+03  0.12298880220E+03  0.14022855491E+03  0.22683002772E+03  0.99999687468E+00 0.  0.
          4    1    3    3  501    0 -0.12544636076E+02 -0.21383573123E+03  0.48099368853E+03  0.52653396495E+03  0.00000000000E+00 0.  1.
   -9000007    1    1    2    0  503 -0.11653118816E+03  0.90846929028E+02 -0.11557146257E+03  0.44180249579E+03  0.40000000000E+03 0.  1.
<mgrwt>
<rscale>  2 0.42636199E+03</rscale>
<asrwt>0</asrwt>
<pdfrwt beam="1">  1       21 0.13083210E+00 0.42641844E+03</pdfrwt>
<pdfrwt beam="2">  1       21 0.53039670E-01 0.42641844E+03</pdfrwt>
<totfact> 0.12308281E+03</totfact>
</mgrwt>
</event>
<event>
 6    1  0.9163926E-004  0.5713093E+03  0.7818608E-02  0.9966923E-01
         21   -1    0    0  501  502  0.00000000000E+00  0.00000000000E+00  0.68391165829E+03  0.68391165829E+03  0.00000000000E+00 0. -1.
         21   -1    0    0  502  503 -0.00000000000E+00 -0.00000000000E+00 -0.48312161680E+03  0.48312161680E+03  0.00000000000E+00 0.  1.
    9000007    2    1    2  501    0  0.37422680938E+03 -0.16144401912E+03  0.16589452186E+03  0.59490778758E+03  0.40035535112E+03 0.  0.
    9000005    1    3    3    0    0  0.41439960877E+03 -0.24264137863E+03  0.13030890162E+03  0.49757741529E+03  0.99999687468E+00 0.  0.
          4    1    3    3  501    0 -0.40172799395E+02  0.81197359502E+02  0.35585620238E+02  0.97330372285E+02  0.00000000000E+00 0.  1.
   -9000007    1    1    2    0  503 -0.37422680938E+03  0.16144401912E+03  0.34895519632E+02  0.57212548751E+03  0.40000000000E+03 0.  1.
<mgrwt>
<rscale>  2 0.57124702E+03</rscale>
<asrwt>0</asrwt>
<pdfrwt beam="1">  1       21 0.10521718E+00 0.57130927E+03</pdfrwt>
<pdfrwt beam="2">  1       21 0.74326403E-01 0.57130927E+03</pdfrwt>
<totfact> 0.95904583E+02</totfact>
</mgrwt>
</event>
<event>
 6    1  0.9163926E-004  0.5021816E+03  0.7818608E-02  0.1013253E+00
         21   -1    0    0  501  502  0.00000000000E+00  0.00000000000E+00  0.36839904788E+03  0.36839904788E+03  0.00000000000E+00 0.  1.
         21   -1    0    0  502  503 -0.00000000000E+00 -0.00000000000E+00 -0.70194045284E+03  0.70194045284E+03  0.00000000000E+00 0.  1.
    9000007    2    1    2  501    0 -0.16924467200E+03  0.25207649294E+03 -0.80320995244E+02  0.50792782481E+03  0.39919030004E+03 0.  0.
    9000005    1    3    3    0    0 -0.48236205336E+02 -0.10860277614E+03  0.12496506729E+01  0.11884383076E+03  0.99999687468E+00 0.  0.
          4    1    3    3  501    0 -0.12100846667E+03  0.36067926908E+03 -0.81570645917E+02  0.38908399405E+03  0.00000000000E+00 0.  1.
   -9000007    1    1    2    0  503  0.16924467200E+03 -0.25207649294E+03 -0.25322040972E+03  0.56241167591E+03  0.40000000000E+03 0.  1.
<mgrwt>
<rscale>  2 0.50202030E+03</rscale>
<asrwt>0</asrwt>
<pdfrwt beam="1">  1       21 0.56676777E-01 0.50218156E+03</pdfrwt>
<pdfrwt beam="2">  1       21 0.10799084E+00 0.50218156E+03</pdfrwt>
<totfact> 0.16845270E+03</totfact>
</mgrwt>
</event>
<event>
 6    1  0.9163926E-004  0.4312770E+03  0.7818608E-02  0.1033464E+00
         21   -1    0    0  501  502  0.00000000000E+00  0.00000000000E+00  0.36302943709E+03  0.36302943709E+03  0.00000000000E+00 0.  1.
         21   -1    0    0  502  503 -0.00000000000E+00 -0.00000000000E+00 -0.61772269573E+03  0.61772269573E+03  0.00000000000E+00 0.  1.
    9000007    2    1    2  501    0 -0.15277809437E+03  0.51562681309E+02  0.75291835351E+02  0.43771436389E+03  0.39990642363E+03 0.  0.
    9000005    1    3    3    0    0 -0.68344028721E+02  0.18998986832E+03  0.15735439461E+03  0.25598527657E+03  0.99999687468E+00 0.  0.
          4    1    3    3  501    0 -0.84434065646E+02 -0.13842718701E+03 -0.82062559256E+02  0.18172908732E+03  0.00000000000E+00 0.  1.
   -9000007    1    1    2    0  503  0.15277809437E+03 -0.51562681309E+02 -0.32998509399E+03  0.54303776893E+03  0.40000000000E+03 0.  1.
<mgrwt>
<rscale>  2 0.43125531E+03</rscale>
<asrwt>0</asrwt>
<pdfrwt beam="1">  1       21 0.55850683E-01 0.43127701E+03</pdfrwt>
<pdfrwt beam="2">  1       21 0.95034260E-01 0.43127701E+03</pdfrwt>
<totfact> 0.24376801E+03</totfact>
</mgrwt>
</event>
<event>
 6    1  0.9163926E-004  0.5471922E+03  0.7818608E-02  0.1002176E+00
         21   -1    0    0  501  502  0.00000000000E+00  0.00000000000E+00  0.74237113468E+03  0.74237113468E+03  0.00000000000E+00 0.  1.
         21   -1    0    0  502  503 -0.00000000000E+00 -0.00000000000E+00 -0.41903910255E+03  0.41903910255E+03  0.00000000000E+00 0.  1.
    9000007    2    1    2  501    0  0.25447601159E+03  0.27221451058E+03  0.27552373377E+03  0.61264397220E+03  0.40070004812E+03 0.  0.
    9000005    1    3    3    0    0  0.28382374601E+02  0.57563470284E+02  0.29343292806E+03  0.30037142934E+03  0.99999687468E+00 0.  0.
          4    1    3    3  501    0  0.22609363698E+03  0.21465104029E+03 -0.17909194293E+02  0.31227254286E+03  0.00000000000E+00 0.  1.
   -9000007    1    1    2    0  503 -0.25447601159E+03 -0.27221451058E+03  0.47808298366E+02  0.54876626503E+03  0.40000000000E+03 0.  1.
<mgrwt>
<rscale>  2 0.54706405E+03</rscale>
<asrwt>0</asrwt>
<pdfrwt beam="1">  1       21 0.11421094E+00 0.54719220E+03</pdfrwt>
<pdfrwt beam="2">  1       21 0.64467554E-01 0.54719220E+03</pdfrwt>
<totfact> 0.10864549E+03</totfact>
</mgrwt>
</event>
<event>
 6    1  0.9163926E-004  0.5594808E+03  0.7818608E-02  0.9993570E-01
         21   -1    0    0  501  502  0.00000000000E+00  0.00000000000E+00  0.83645453089E+03  0.83645453089E+03  0.00000000000E+00 0. -1.
         21   -1    0    0  502  503 -0.00000000000E+00 -0.00000000000E+00 -0.74041908878E+03  0.74041908878E+03  0.00000000000E+00 0. -1.
    9000007    2    1    2  501    0 -0.26500000526E+03 -0.28657061611E+03  0.60281474138E+03  0.82243808301E+03  0.40083795623E+03 0.  0.
    9000005    1    3    3    0    0 -0.24113425389E+03 -0.10720324143E+03  0.58357764512E+03  0.64047024228E+03  0.99999687468E+00 0.  0.
          4    1    3    3  501    0 -0.23865751362E+02 -0.17936737467E+03  0.19237096261E+02  0.18196784072E+03  0.00000000000E+00 0.  1.
   -9000007    1    1    2    0  503  0.26500000526E+03  0.28657061611E+03 -0.50677929927E+03  0.75443553666E+03  0.40000000000E+03 0. -1.
<mgrwt>
<rscale>  2 0.55933075E+03</rscale>
<asrwt>0</asrwt>
<pdfrwt beam="1">  1       21 0.12868531E+00 0.55948082E+03</pdfrwt>
<pdfrwt beam="2">  1       21 0.11391063E+00 0.55948082E+03</pdfrwt>
<totfact> 0.20760599E+02</totfact>
</mgrwt>
</event>
<event>
 6    1  0.9163926E-004  0.4495843E+03  0.7818608E-02  0.1027909E+00
         21   -1    0    0  501  502  0.00000000000E+00  0.00000000000E+00  0.53607303239E+03  0.53607303239E+03  0.00000000000E+00 0. -1.
         21   -1    0    0  502  503 -0.00000000000E+00 -0.00000000000E+00 -0.55595885337E+03  0.55595885337E+03  0.00000000000E+00 0. -1.
    9000007    2    1    2  501    0 -0.20347126371E+03  0.26934092534E+02  0.30041669686E+03  0.54001766182E+03  0.39905248129E+03 0.  0.
    9000005    1    3    3    0    0 -0.17350916572E+03 -0.36123233298E+02  0.38885749810E+03  0.42734233630E+03  0.99999687468E+00 0.  0.
          4    1    3    3  501    0 -0.29962097992E+02  0.63057325832E+02 -0.88440801239E+02  0.11267532552E+03  0.00000000000E+00 0.  1.
   -9000007    1    1    2    0  503  0.20347126371E+03 -0.26934092534E+02 -0.32030251784E+03  0.55201422394E+03  0.40000000000E+03 0. -1.
<mgrwt>
<rscale>  2 0.44937340E+03</rscale>
<asrwt>0</asrwt>
<pdfrwt beam="1">  1       21 0.82472775E-01 0.44958425E+03</pdfrwt>
<pdfrwt beam="2">  1       21 0.85532131E-01 0.44958425E+03</pdfrwt>
<totfact> 0.12972664E+03</totfact>
</mgrwt>
</event>
<event>
 6    1  0.9163926E-004  0.5993390E+03  0.7818608E-02  0.9906846E-01
         21   -1    0    0  501  502  0.00000000000E+00  0.00000000000E+00  0.22760826828E+03  0.22760826828E+03  0.00000000000E+00 0. -1.
         21   -1    0    0  502  503 -0.00000000000E+00 -0.00000000000E+00 -0.16193626743E+04  0.16193626743E+04  0.00000000000E+00 0.  1.
    9000007    2    1    2  501    0 -0.42358845930E+03  0.14064140717E+03 -0.54792414077E+03  0.81195562635E+03  0.39980481096E+03 0.  0.
    9000005    1    3    3    0    0 -0.39122362064E+03  0.23641199884E+03 -0.54432452388E+03  0.71080007163E+03  0.99999687468E+00 0.  0.
          4    1    3    3  501    0 -0.32364838660E+02 -0.95770591664E+02 -0.35996168879E+01  0.10115555472E+03  0.00000000000E+00 0.  1.
   -9000007    1    1    2    0  503  0.42358845930E+03 -0.14064140717E+03 -0.84383026528E+03  0.10350153162E+04  0.40000000000E+03 0.  1.
<mgrwt>
<rscale>  2 0.59930639E+03</rscale>
<asrwt>0</asrwt>
<pdfrwt beam="1">  1       21 0.35016658E-01 0.59933896E+03</pdfrwt>
<pdfrwt beam="2">  1       21 0.24913271E+00 0.59933896E+03</pdfrwt>
<totfact> 0.39927145E+02</totfact>
</mgrwt>
</event>
<event>
 6    1  0.9163926E-004  0.4532102E+03  0.7818608E-02  0.1026769E+00
         21   -1    0    0  501  502  0.00000000000E+00  0.00000000000E+00  0.14911651990E+04  0.14911651990E+04  0.00000000000E+00 0. -1.
         21   -1    0    0  502  503 -0.00000000000E+00 -0.00000000000E+00 -0.13787139785E+03  0.13787139785E+03  0.00000000000E+00 0. -1.
    9000007    2    1    2  501    0  0.20241766607E+03  0.66505507389E+02  0.70149925148E+03  0.83516505242E+03  0.40000446361E+03 0.  0.
    9000005    1    3    3    0    0  0.22046769648E+03 -0.58846578481E+02  0.15910176573E+03  0.27817853411E+03  0.99999687468E+00 0.  0.
          4    1    3    3  501    0 -0.18050030402E+02  0.12535208587E+03  0.54239748575E+03  0.55698651831E+03  0.00000000000E+00 0.  1.
   -9000007    1    1    2    0  503 -0.20241766607E+03 -0.66505507389E+02  0.65179454964E+03  0.79387154439E+03  0.40000000000E+03 0. -1.
<mgrwt>
<rscale>  2 0.45320919E+03</rscale>
<asrwt>0</asrwt>
<pdfrwt beam="1">  1       21 0.22941002E+00 0.45321018E+03</pdfrwt>
<pdfrwt beam="2">  1       21 0.21210985E-01 0.45321018E+03</pdfrwt>
<totfact> 0.15174487E+03</totfact>
</mgrwt>
</event>
<event>
 6    1  0.9163926E-004  0.4684509E+03  0.7818608E-02  0.1022608E+00
         21   -1    0    0  501  502  0.00000000000E+00  0.00000000000E+00  0.74828203063E+03  0.74828203063E+03  0.00000000000E+00 0.  1.
         21   -1    0    0  502  503 -0.00000000000E+00 -0.00000000000E+00 -0.33704572452E+03  0.33704572452E+03  0.00000000000E+00 0. -1.
    9000007    2    1    2  501    0  0.22160069992E+03  0.84025983413E+02  0.40670629420E+03  0.62036780301E+03  0.40407791969E+03 0.  0.
    9000005    1    3    3    0    0  0.36383239146E+02 -0.53890061462E+02  0.38271431215E+03  0.38819984999E+03  0.99999687468E+00 0.  0.
          4    1    3    3  501    0  0.18521746077E+03  0.13791604487E+03  0.23991982047E+02  0.23216795302E+03  0.00000000000E+00 0.  1.
   -9000007    1    1    2    0  503 -0.22160069992E+03 -0.84025983413E+02  0.45300119125E+01  0.46495995215E+03  0.40000000000E+03 0. -1.
<mgrwt>
<rscale>  2 0.46757013E+03</rscale>
<asrwt>0</asrwt>
<pdfrwt beam="1">  1       21 0.11512031E+00 0.46845085E+03</pdfrwt>
<pdfrwt beam="2">  1       21 0.51853189E-01 0.46845085E+03</pdfrwt>
<totfact> 0.17614987E+03</totfact>
</mgrwt>
</event>
<event>
 6    1  0.9163926E-004  0.4632104E+03  0.7818608E-02  0.1023875E+00
         21   -1    0    0  501  502  0.00000000000E+00  0.00000000000E+00  0.11537197125E+04  0.11537197125E+04  0.00000000000E+00 0. -1.
         21   -1    0    0  502  503 -0.00000000000E+00 -0.00000000000E+00 -0.67446792058E+03  0.67446792058E+03  0.00000000000E+00 0. -1.
    9000007    2    1    2  501    0 -0.65443276936E+02 -0.22423446478E+03  0.10176235497E+04  0.11179707175E+04  0.39967101287E+03 0.  0.
    9000005    1    3    3    0    0  0.15157340280E+03 -0.97181849604E+02  0.23570298528E+03  0.29660698844E+03  0.99999687468E+00 0.  0.
          4    1    3    3  501    0 -0.21701667973E+03 -0.12705261517E+03  0.78192056444E+03  0.82136372905E+03  0.00000000000E+00 0.  1.
   -9000007    1    1    2    0  503  0.65443276936E+02  0.22423446478E+03 -0.53837175776E+03  0.71021691563E+03  0.40000000000E+03 0. -1.
<mgrwt>
<rscale>  2 0.46313941E+03</rscale>
<asrwt>0</asrwt>
<pdfrwt beam="1">  1       21 0.17749534E+00 0.46321045E+03</pdfrwt>
<pdfrwt beam="2">  1       21 0.10376430E+00 0.46321045E+03</pdfrwt>
<totfact> 0.11328473E+02</totfact>
</mgrwt>
</event>
<event>
 6    1  0.9163926E-004  0.4316079E+03  0.7818608E-02  0.1033385E+00
         21   -1    0    0  501  502  0.00000000000E+00  0.00000000000E+00  0.10931987520E+03  0.10931987520E+03  0.00000000000E+00 0. -1.
         21   -1    0    0  502  503 -0.00000000000E+00 -0.00000000000E+00 -0.17071466263E+04  0.17071466263E+04  0.00000000000E+00 0. -1.
    9000007    2    1    2  501    0  0.16202668686E+03  0.57220755270E+01 -0.84617436913E+03  0.94971008087E+03  0.39956574594E+03 0.  0.
    9000005    1    3    3    0    0  0.17603156596E+03  0.18199284064E+03 -0.46325554783E+03  0.52793485284E+03  0.99999687468E+00 0.  0.
          4    1    3    3  501    0 -0.14004879097E+02 -0.17627076511E+03 -0.38291882130E+03  0.42177522803E+03  0.00000000000E+00 0.  1.
   -9000007    1    1    2    0  503 -0.16202668686E+03 -0.57220755270E+01 -0.75165238200E+03  0.86675642067E+03  0.40000000000E+03 0. -1.
<mgrwt>
<rscale>  2 0.43150727E+03</rscale>
<asrwt>0</asrwt>
<pdfrwt beam="1">  1       21 0.16818442E-01 0.43160791E+03</pdfrwt>
<pdfrwt beam="2">  1       21 0.26263794E+00 0.43160791E+03</pdfrwt>
<totfact> 0.14837653E+03</totfact>
</mgrwt>
</event>
<event>
 6    1  0.9163926E-004  0.4201561E+03  0.7818608E-02  0.1037027E+00
         21   -1    0    0  501  502  0.00000000000E+00  0.00000000000E+00  0.37367674108E+03  0.37367674108E+03  0.00000000000E+00 0.  1.
         21   -1    0    0  502  503 -0.00000000000E+00 -0.00000000000E+00 -0.47696208187E+03  0.47696208187E+03  0.00000000000E+00 0.  1.
    9000007    2    1    2  501    0 -0.11450180145E+03  0.58485164398E+02 -0.93846317334E+02  0.43037667600E+03  0.39985719323E+03 0.  0.
    9000005    1    3    3    0    0 -0.11241971273E+03 -0.10446171403E+03 -0.18759832300E+03  0.24237279611E+03  0.99999687468E+00 0.  0.
          4    1    3    3  501    0 -0.20820887208E+01  0.16294687843E+03  0.93752005670E+02  0.18800387988E+03  0.00000000000E+00 0.  1.
   -9000007    1    1    2    0  503  0.11450180145E+03 -0.58485164398E+02 -0.94390234570E+01  0.42026214694E+03  0.40000000000E+03 0.  1.
<mgrwt>
<rscale>  2 0.42012214E+03</rscale>
<asrwt>0</asrwt>
<pdfrwt beam="1">  1       21 0.57488730E-01 0.42015613E+03</pdfrwt>
<pdfrwt beam="2">  1       21 0.73378782E-01 0.42015613E+03</pdfrwt>
<totfact> 0.41987861E+03</totfact>
</mgrwt>
</event>
<event>
 6    1  0.9163926E-004  0.4914571E+03  0.7818608E-02  0.1016083E+00
         21   -1    0    0  501  502  0.00000000000E+00  0.00000000000E+00  0.18223361780E+03  0.18223361780E+03  0.00000000000E+00 0.  1.
         21   -1    0    0  502  503 -0.00000000000E+00 -0.00000000000E+00 -0.14032039836E+04  0.14032039836E+04  0.00000000000E+00 0.  1.
    9000007    2    1    2  501    0 -0.28541220859E+03  0.83625257409E+01 -0.42096125799E+03  0.64653151812E+03  0.39907964436E+03 0.  0.
    9000005    1    3    3    0    0  0.27739376617E+02  0.10796347218E+03 -0.25519282558E+03  0.27847793909E+03  0.99999687468E+00 0.  0.
          4    1    3    3  501    0 -0.31315158521E+03 -0.99600946436E+02 -0.16576843241E+03  0.36805357903E+03  0.00000000000E+00 0.  1.
   -9000007    1    1    2    0  503  0.28541220859E+03 -0.83625257409E+01 -0.80000910783E+03  0.93890608331E+03  0.40000000000E+03 0.  1.
<mgrwt>
<rscale>  2 0.49126977E+03</rscale>
<asrwt>0</asrwt>
<pdfrwt beam="1">  1       21 0.28035941E-01 0.49145708E+03</pdfrwt>
<pdfrwt beam="2">  1       21 0.21587754E+00 0.49145708E+03</pdfrwt>
<totfact> 0.10582310E+03</totfact>
</mgrwt>
</event>
<event>
 6    1  0.9163926E-004  0.4189286E+03  0.7818608E-02  0.1037463E+00
         21   -1    0    0  501  502  0.00000000000E+00  0.00000000000E+00  0.70811057805E+03  0.70811057805E+03  0.00000000000E+00 0. -1.
         21   -1    0    0  502  503 -0.00000000000E+00 -0.00000000000E+00 -0.29832847476E+03  0.29832847476E+03  0.00000000000E+00 0.  1.
    9000007    2    1    2  501    0 -0.11664964327E+03 -0.43520646471E+02 -0.29438167271E+01  0.41835413463E+03  0.39938744342E+03 0.  0.
    9000005    1    3    3    0    0 -0.13169491259E+03 -0.21179014313E+03 -0.80270596911E+00  0.24939979763E+03  0.99999687468E+00 0.  0.
          4    1    3    3  501    0  0.15045269323E+02  0.16826949666E+03 -0.21411107580E+01  0.16895433700E+03  0.00000000000E+00 0.  1.
   -9000007    1    1    2    0  503  0.11664964327E+03  0.43520646471E+02  0.41272592002E+03  0.58808491818E+03  0.40000000000E+03 0. -1.
<mgrwt>
<rscale>  2 0.41878233E+03</rscale>
<asrwt>0</asrwt>
<pdfrwt beam="1">  1       21 0.10894009E+00 0.41892862E+03</pdfrwt>
<pdfrwt beam="2">  1       21 0.45896689E-01 0.41892862E+03</pdfrwt>
<totfact> 0.26669985E+03</totfact>
</mgrwt>
</event>
<event>
 6    1  0.9163926E-004  0.5434515E+03  0.7818608E-02  0.1003024E+00
         21   -1    0    0  501  502  0.00000000000E+00  0.00000000000E+00  0.11756412703E+04  0.11756412703E+04  0.00000000000E+00 0. -1.
         21   -1    0    0  502  503 -0.00000000000E+00 -0.00000000000E+00 -0.30940545570E+03  0.30940545570E+03  0.00000000000E+00 0.  1.
    9000007    2    1    2  501    0  0.33448203337E+03 -0.15296951210E+03  0.75521887340E+03  0.93042733983E+03  0.40007697471E+03 0.  0.
    9000005    1    3    3    0    0  0.76284466587E+02 -0.25472244541E+03  0.37402964240E+03  0.45891395427E+03  0.99999687468E+00 0.  0.
          4    1    3    3  501    0  0.25819756678E+03  0.10175293331E+03  0.38118923100E+03  0.47151338556E+03  0.00000000000E+00 0.  1.
   -9000007    1    1    2    0  503 -0.33448203337E+03  0.15296951210E+03  0.11101694120E+03  0.55461938617E+03  0.40000000000E+03 0.  1.
<mgrwt>
<rscale>  2 0.54343729E+03</rscale>
<asrwt>0</asrwt>
<pdfrwt beam="1">  1       21 0.18086788E+00 0.54345146E+03</pdfrwt>
<pdfrwt beam="2">  1       21 0.47600840E-01 0.54345146E+03</pdfrwt>
<totfact> 0.60530869E+02</totfact>
</mgrwt>
</event>
<event>
 6    1  0.9163926E-004  0.5902643E+03  0.7818608E-02  0.9925944E-01
         21   -1    0    0  501  502  0.00000000000E+00  0.00000000000E+00  0.60412435252E+03  0.60412435252E+03  0.00000000000E+00 0.  1.
         21   -1    0    0  502  503 -0.00000000000E+00 -0.00000000000E+00 -0.69740049520E+03  0.69740049520E+03  0.00000000000E+00 0. -1.
    9000007    2    1    2  501    0 -0.13020612611E+03 -0.41407520056E+03  0.22434590780E+03  0.63122963369E+03  0.39963465454E+03 0.  0.
    9000005    1    3    3    0    0 -0.26241994872E+03 -0.20468925125E+03  0.72078302523E+02  0.34052635838E+03  0.99999687468E+00 0.  0.
          4    1    3    3  501    0  0.13221382261E+03 -0.20938594931E+03  0.15226760528E+03  0.29070327531E+03  0.00000000000E+00 0.  1.
   -9000007    1    1    2    0  503  0.13020612611E+03  0.41407520056E+03 -0.31762205048E+03  0.67029521403E+03  0.40000000000E+03 0. -1.
<mgrwt>
<rscale>  2 0.59020238E+03</rscale>
<asrwt>0</asrwt>
<pdfrwt beam="1">  1       21 0.92942208E-01 0.59026427E+03</pdfrwt>
<pdfrwt beam="2">  1       21 0.10729238E+00 0.59026427E+03</pdfrwt>
<totfact> 0.53768729E+02</totfact>
</mgrwt>
</event>
<event>
 6    1  0.9163926E-004  0.4780279E+03  0.7818608E-02  0.1019839E+00
         21   -1    0    0  501  502  0.00000000000E+00  0.00000000000E+00  0.32471270585E+03  0.32471270585E+03  0.00000000000E+00 0.  1.
         21   -1    0    0  502  503 -0.00000000000E+00 -0.00000000000E+00 -0.76676666133E+03  0.76676666133E+03  0.00000000000E+00 0.  1.
    9000007    2    1    2  501    0 -0.10172060783E+03 -0.23653786985E+03 -0.60864404789E+02  0.48188711042E+03  0.40275732828E+03 0.  0.
    9000005    1    3    3    0    0  0.10672126545E+03 -0.23382482212E+03  0.21095277170E+02  0.25789433234E+03  0.99999687468E+00 0.  0.
          4    1    3    3  501    0 -0.20844187329E+03 -0.27130477359E+01 -0.81959681958E+02  0.22399277808E+03  0.00000000000E+00 0.  1.
   -9000007    1    1    2    0  503  0.10172060783E+03  0.23653786985E+03 -0.38118955069E+03  0.60959225675E+03  0.40000000000E+03 0.  1.
<mgrwt>
<rscale>  2 0.47744667E+03</rscale>
<asrwt>0</asrwt>
<pdfrwt beam="1">  1       21 0.49955802E-01 0.47802794E+03</pdfrwt>
<pdfrwt beam="2">  1       21 0.11796410E+00 0.47802794E+03</pdfrwt>
<totfact> 0.17877289E+03</totfact>
</mgrwt>
</event>
<event>
 6    1  0.9163926E-004  0.4097335E+03  0.7818608E-02  0.1040468E+00
         21   -1    0    0  501  502  0.00000000000E+00  0.00000000000E+00  0.10395167185E+04  0.10395167185E+04  0.00000000000E+00 0.  1.
         21   -1    0    0  502  503 -0.00000000000E+00 -0.00000000000E+00 -0.45752259292E+03  0.45752259292E+03  0.00000000000E+00 0.  1.
    9000007    2    1    2  501    0 -0.21111879836E+02 -0.86231349813E+02  0.89311065948E+03  0.98257351591E+03  0.39990312193E+03 0.  0.
    9000005    1    3    3    0    0  0.16070472108E+03  0.58896684015E+02  0.29875021268E+03  0.34430729928E+03  0.99999687468E+00 0.  0.
          4    1    3    3  501    0 -0.18181660092E+03 -0.14512803383E+03  0.59436044680E+03  0.63826621663E+03  0.00000000000E+00 0.  1.
   -9000007    1    1    2    0  503  0.21111879836E+02  0.86231349813E+02 -0.31111653385E+03  0.51446579555E+03  0.40000000000E+03 0.  1.
<mgrwt>
<rscale>  2 0.40970987E+03</rscale>
<asrwt>0</asrwt>
<pdfrwt beam="1">  1       21 0.15992565E+00 0.40973352E+03</pdfrwt>
<pdfrwt beam="2">  1       21 0.70388092E-01 0.40973352E+03</pdfrwt>
<totfact> 0.38915648E+02</totfact>
</mgrwt>
</event>
<event>
 6    1  0.9163926E-004  0.4238480E+03  0.7818608E-02  0.1036037E+00
         21   -1    0    0  501  502  0.00000000000E+00  0.00000000000E+00  0.45361028987E+03  0.45361028987E+03  0.00000000000E+00 0.  1.
         21   -1    0    0  502  503 -0.00000000000E+00 -0.00000000000E+00 -0.15377680210E+04  0.15377680210E+04  0.00000000000E+00 0.  1.
    9000007    2    1    2  501    0 -0.13933986591E+03  0.15216022646E+02  0.31724509895E+03  0.52728233800E+03  0.39715876622E+03 0.  0.
    9000005    1    3    3    0    0  0.39152150983E+01  0.18843695629E+03  0.94558601591E+02  0.21086997068E+03  0.99999687468E+00 0.  0.
          4    1    3    3  501    0 -0.14325508101E+03 -0.17322093365E+03  0.22268649736E+03  0.31641236732E+03  0.00000000000E+00 0.  1.
   -9000007    1    1    2    0  503  0.13933986591E+03 -0.15216022646E+02 -0.14014028300E+04  0.14640959728E+04  0.40000000000E+03 0.  1.
<mgrwt>
<rscale>  2 0.42317632E+03</rscale>
<asrwt>0</asrwt>
<pdfrwt beam="1">  1       21 0.69786199E-01 0.42384800E+03</pdfrwt>
<pdfrwt beam="2">  1       21 0.23657969E+00 0.42384800E+03</pdfrwt>
<totfact> 0.11972667E+02</totfact>
</mgrwt>
</event>
<event>
 6    1  0.9163926E-004  0.4135963E+03  0.7818608E-02  0.1039175E+00
         21   -1    0    0  501  502  0.00000000000E+00  0.00000000000E+00  0.42733131196E+03  0.42733131196E+03  0.00000000000E+00 0. -1.
         21   -1    0    0  502  503 -0.00000000000E+00 -0.00000000000E+00 -0.40050031665E+03  0.40050031665E+03  0.00000000000E+00 0. -1.
    9000007    2    1    2  501    0 -0.79937162974E+02 -0.68351431547E+02  0.31309391286E+01  0.41355688779E+03  0.39994703205E+03 0.  0.
    9000005    1    3    3    0    0  0.66070658469E+02  0.13827904633E+03 -0.36288496104E+02  0.15749375069E+03  0.99999687468E+00 0.  0.
          4    1    3    3  501    0 -0.14600782144E+03 -0.20663047787E+03  0.39419435232E+02  0.25606313710E+03  0.00000000000E+00 0.  1.
   -9000007    1    1    2    0  503  0.79937162974E+02  0.68351431547E+02  0.23700056180E+02  0.41427474082E+03  0.40000000000E+03 0.  1.
<mgrwt>
<rscale>  2 0.41358346E+03</rscale>
<asrwt>0</asrwt>
<pdfrwt beam="1">  1       21 0.65743279E-01 0.41359626E+03</pdfrwt>
<pdfrwt beam="2">  1       21 0.61615433E-01 0.41359626E+03</pdfrwt>
<totfact> 0.46289735E+03</totfact>
</mgrwt>
</event>
<event>
 6    1  0.9163926E-004  0.4150710E+03  0.7818608E-02  0.1038751E+00
         21   -1    0    0  501  502  0.00000000000E+00  0.00000000000E+00  0.35721456459E+03  0.35721456459E+03  0.00000000000E+00 0. -1.
         21   -1    0    0  502  503 -0.00000000000E+00 -0.00000000000E+00 -0.56923185931E+03  0.56923185931E+03  0.00000000000E+00 0. -1.
    9000007    2    1    2  501    0  0.71258100768E+02  0.84889547712E+02  0.76107037995E+02  0.42117463235E+03  0.39913886990E+03 0.  0.
    9000005    1    3    3    0    0 -0.93929483091E+02  0.79224539909E+02 -0.11514295743E+03  0.16839886032E+03  0.99999687468E+00 0.  0.
          4    1    3    3  501    0  0.16518758386E+03  0.56650078028E+01  0.19124999543E+03  0.25277577203E+03  0.00000000000E+00 0.  1.
   -9000007    1    1    2    0  503 -0.71258100768E+02 -0.84889547712E+02 -0.28812433271E+03  0.50527179155E+03  0.40000000000E+03 0.  1.
<mgrwt>
<rscale>  2 0.41486342E+03</rscale>
<asrwt>0</asrwt>
<pdfrwt beam="1">  1       21 0.54956088E-01 0.41507102E+03</pdfrwt>
<pdfrwt beam="2">  1       21 0.87574131E-01 0.41507102E+03</pdfrwt>
<totfact> 0.30832730E+03</totfact>
</mgrwt>
</event>
<event>
 6    1  0.9163926E-004  0.5497404E+03  0.7818608E-02  0.1001565E+00
         21   -1    0    0  501  502  0.00000000000E+00  0.00000000000E+00  0.71322418910E+03  0.71322418910E+03  0.00000000000E+00 0. -1.
         21   -1    0    0  502  503 -0.00000000000E+00 -0.00000000000E+00 -0.61404758643E+03  0.61404758643E+03  0.00000000000E+00 0. -1.
    9000007    2    1    2  501    0 -0.11540536992E+03 -0.35902099986E+03  0.41918373025E+03  0.69117505376E+03  0.39974176351E+03 0.  0.
    9000005    1    3    3    0    0 -0.27268937245E+02 -0.43281845468E+03  0.34724776755E+03  0.55556945714E+03  0.99999687468E+00 0.  0.
          4    1    3    3  501    0 -0.88136432677E+02  0.73797454825E+02  0.71935962701E+02  0.13560559662E+03  0.00000000000E+00 0.  1.
   -9000007    1    1    2    0  503  0.11540536992E+03  0.35902099986E+03 -0.32000712757E+03  0.63609672177E+03  0.40000000000E+03 0. -1.
<mgrwt>
<rscale>  2 0.54969340E+03</rscale>
<asrwt>0</asrwt>
<pdfrwt beam="1">  1       21 0.10972680E+00 0.54974037E+03</pdfrwt>
<pdfrwt beam="2">  1       21 0.94468859E-01 0.54974037E+03</pdfrwt>
<totfact> 0.49592792E+02</totfact>
</mgrwt>
</event>
<event>
 6    1  0.9163926E-004  0.4341749E+03  0.7818608E-02  0.1032604E+00
         21   -1    0    0  501  502  0.00000000000E+00  0.00000000000E+00  0.25028345660E+04  0.25028345660E+04  0.00000000000E+00 0.  1.
         21   -1    0    0  502  503 -0.00000000000E+00 -0.00000000000E+00 -0.20798447878E+03  0.20798447878E+03  0.00000000000E+00 0.  1.
    9000007    2    1    2  501    0  0.95615524231E+02 -0.13916008993E+03  0.22301069179E+04  0.22718434907E+04  0.39923441985E+03 0.  0.
    9000005    1    3    3    0    0 -0.87857990596E+02 -0.21700259734E+03  0.11873511631E+04  0.12102119394E+04  0.99999687468E+00 0.  0.
          4    1    3    3  501    0  0.18347351483E+03  0.77842507409E+02  0.10427557548E+04  0.10616315513E+04  0.00000000000E+00 0.  1.
   -9000007    1    1    2    0  503 -0.95615524231E+02  0.13916008993E+03  0.64743169347E+02  0.43897555408E+03  0.40000000000E+03 0.  1.
<mgrwt>
<rscale>  2 0.43399851E+03</rscale>
<asrwt>0</asrwt>
<pdfrwt beam="1">  1       21 0.38505145E+00 0.43417492E+03</pdfrwt>
<pdfrwt beam="2">  1       21 0.31997614E-01 0.43417492E+03</pdfrwt>
<totfact> 0.76896424E+01</totfact>
</mgrwt>
</event>
<event>
 6    1  0.9163926E-004  0.4808548E+03  0.7818608E-02  0.1019091E+00
         21   -1    0    0  501  502  0.00000000000E+00  0.00000000000E+00  0.50734249070E+03  0.50734249070E+03  0.00000000000E+00 0. -1.
         21   -1    0    0  502  503 -0.00000000000E+00 -0.00000000000E+00 -0.51171395287E+03  0.51171395287E+03  0.00000000000E+00 0. -1.
    9000007    2    1    2  501    0 -0.23128743334E+03  0.12276803861E+03  0.17021186363E+03  0.51009160610E+03  0.40330571528E+03 0.  0.
    9000005    1    3    3    0    0 -0.15861412966E+03 -0.10072533213E+03 -0.43023371578E+02  0.19275903392E+03  0.99999687468E+00 0.  0.
          4    1    3    3  501    0 -0.72673303673E+02  0.22349337074E+03  0.21323523521E+03  0.31733257218E+03  0.00000000000E+00 0.  1.
   -9000007    1    1    2    0  503  0.23128743334E+03 -0.12276803861E+03 -0.17458332580E+03  0.50896483746E+03  0.40000000000E+03 0. -1.
<mgrwt>
<rscale>  2 0.48016103E+03</rscale>
<asrwt>0</asrwt>
<pdfrwt beam="1">  1       21 0.78052691E-01 0.48085483E+03</pdfrwt>
<pdfrwt beam="2">  1       21 0.78725224E-01 0.48085483E+03</pdfrwt>
<totfact> 0.17658464E+03</totfact>
</mgrwt>
</event>
<event>
 6    1  0.9163926E-004  0.4673208E+03  0.7818608E-02  0.1022702E+00
         21   -1    0    0  501  502  0.00000000000E+00  0.00000000000E+00  0.25300526629E+03  0.25300526629E+03  0.00000000000E+00 0. -1.
         21   -1    0    0  502  503 -0.00000000000E+00 -0.00000000000E+00 -0.13931184065E+04  0.13931184065E+04  0.00000000000E+00 0. -1.
    9000007    2    1    2  501    0 -0.48447823715E+02  0.23610036919E+03 -0.10780944974E+04  0.11750218918E+04  0.40037248285E+03 0.  0.
    9000005    1    3    3    0    0 -0.54864832402E+02  0.20600592735E+03 -0.11102397158E+04  0.11305228076E+04  0.99999687468E+00 0.  0.
          4    1    3    3  501    0  0.64170086867E+01  0.30094441840E+02  0.32145218423E+02  0.44499084233E+02  0.00000000000E+00 0.  1.
   -9000007    1    1    2    0  503  0.48447823715E+02 -0.23610036919E+03 -0.62018642812E+02  0.47110178095E+03  0.40000000000E+03 0. -1.
<mgrwt>
<rscale>  2 0.46724098E+03</rscale>
<asrwt>0</asrwt>
<pdfrwt beam="1">  1       21 0.38923886E-01 0.46732077E+03</pdfrwt>
<pdfrwt beam="2">  1       21 0.21432591E+00 0.46732077E+03</pdfrwt>
<totfact> 0.56569050E+02</totfact>
</mgrwt>
</event>
<event>
 6    1  0.9163926E-004  0.4025945E+03  0.7818608E-02  0.1042895E+00
         21   -1    0    0  501  502  0.00000000000E+00  0.00000000000E+00  0.17673681499E+03  0.17673681499E+03  0.00000000000E+00 0. -1.
         21   -1    0    0  502  503 -0.00000000000E+00 -0.00000000000E+00 -0.15049612662E+04  0.15049612662E+04  0.00000000000E+00 0. -1.
    9000007    2    1    2  501    0  0.45124419990E+02  0.67883018593E+01 -0.13840909204E+03  0.42561572592E+03  0.39988670279E+03 0.  0.
    9000005    1    3    3    0    0 -0.12085353969E+03  0.67261691404E+02  0.67841170720E+02  0.15405563159E+03  0.99999687468E+00 0.  0.
          4    1    3    3  501    0  0.16597795968E+03 -0.60473389544E+02 -0.20625026276E+03  0.27156009433E+03  0.00000000000E+00 0.  1.
   -9000007    1    1    2    0  503 -0.45124419990E+02 -0.67883018593E+01 -0.11898153591E+04  0.12560823552E+04  0.40000000000E+03 0. -1.
<mgrwt>
<rscale>  2 0.40256631E+03</rscale>
<asrwt>0</asrwt>
<pdfrwt beam="1">  1       21 0.27190279E-01 0.40259445E+03</pdfrwt>
<pdfrwt beam="2">  1       21 0.23153251E+00 0.40259445E+03</pdfrwt>
<totfact> 0.93316992E+02</totfact>
</mgrwt>
</event>
<event>
 6    1  0.9163926E-004  0.6436536E+03  0.7818608E-02  0.9818838E-01
         21   -1    0    0  501  502  0.00000000000E+00  0.00000000000E+00  0.45043181171E+03  0.45043181171E+03  0.00000000000E+00 0. -1.
         21   -1    0    0  502  503 -0.00000000000E+00 -0.00000000000E+00 -0.92111522529E+03  0.92111522529E+03  0.00000000000E+00 0. -1.
    9000007    2    1    2  501    0 -0.43909513255E+03 -0.24796257951E+03 -0.20685840182E+03  0.67592241618E+03  0.39973833695E+03 0.  0.
    9000005    1    3    3    0    0 -0.27253204952E+03 -0.13968326610E+03  0.89573203724E+02  0.31907599668E+03  0.99999687468E+00 0.  0.
          4    1    3    3  501    0 -0.16656308303E+03 -0.10827931341E+03 -0.29643160554E+03  0.35684641949E+03  0.00000000000E+00 0.  1.
   -9000007    1    1    2    0  503  0.43909513255E+03  0.24796257951E+03 -0.26382501176E+03  0.69562462082E+03  0.40000000000E+03 0. -1.
<mgrwt>
<rscale>  2 0.64361297E+03</rscale>
<asrwt>0</asrwt>
<pdfrwt beam="1">  1       21 0.69297203E-01 0.64365362E+03</pdfrwt>
<pdfrwt beam="2">  1       21 0.14171003E+00 0.64365362E+03</pdfrwt>
<totfact> 0.51065279E+02</totfact>
</mgrwt>
</event>
<event>
 6    1  0.9163926E-004  0.6750482E+03  0.7818608E-02  0.9761282E-01
         21   -1    0    0  501  502  0.00000000000E+00  0.00000000000E+00  0.94577788344E+03  0.94577788344E+03  0.00000000000E+00 0. -1.
         21   -1    0    0  502  503 -0.00000000000E+00 -0.00000000000E+00 -0.59914803050E+03  0.59914803050E+03  0.00000000000E+00 0.  1.
    9000007    2    1    2  501    0  0.47092192805E+03  0.27188724062E+03  0.51598966234E+03  0.84895689238E+03  0.39848756511E+03 0.  0.
    9000005    1    3    3    0    0  0.32945103193E+03 -0.38969827387E+02  0.27579625306E+03  0.43141766663E+03  0.99999687468E+00 0.  0.
          4    1    3    3  501    0  0.14147089612E+03  0.31085706800E+03  0.24019340928E+03  0.41753922575E+03  0.00000000000E+00 0.  1.
   -9000007    1    1    2    0  503 -0.47092192805E+03 -0.27188724062E+03 -0.16935980940E+03  0.69596902156E+03  0.40000000000E+03 0.  1.
<mgrwt>
<rscale>  2 0.67482436E+03</rscale>
<asrwt>0</asrwt>
<pdfrwt beam="1">  1       21 0.14550429E+00 0.67504825E+03</pdfrwt>
<pdfrwt beam="2">  1       21 0.92176620E-01 0.67504825E+03</pdfrwt>
<totfact> 0.24192483E+02</totfact>
</mgrwt>
</event>
<event>
 6    1  0.9163926E-004  0.4236553E+03  0.7818608E-02  0.1035981E+00
         21   -1    0    0  501  502  0.00000000000E+00  0.00000000000E+00  0.37238474810E+03  0.37238474810E+03  0.00000000000E+00 0. -1.
         21   -1    0    0  502  503 -0.00000000000E+00 -0.00000000000E+00 -0.49416655743E+03  0.49416655743E+03  0.00000000000E+00 0. -1.
    9000007    2    1    2  501    0 -0.19516702966E+02  0.13445121225E+03  0.10796639219E+02  0.42379282149E+03  0.40128014897E+03 0.  0.
    9000005    1    3    3    0    0 -0.61035057713E+02  0.26791550955E+03  0.48488021114E+02  0.27902703581E+03  0.99999687468E+00 0.  0.
          4    1    3    3  501    0  0.41518354747E+02 -0.13346429730E+03 -0.37691381895E+02  0.14476578568E+03  0.00000000000E+00 0.  1.
   -9000007    1    1    2    0  503  0.19516702966E+02 -0.13445121225E+03 -0.13257844856E+03  0.44275848404E+03  0.40000000000E+03 0. -1.
<mgrwt>
<rscale>  2 0.42335186E+03</rscale>
<asrwt>0</asrwt>
<pdfrwt beam="1">  1       21 0.57289961E-01 0.42365527E+03</pdfrwt>
<pdfrwt beam="2">  1       21 0.76025624E-01 0.42365527E+03</pdfrwt>
<totfact> 0.38977928E+03</totfact>
</mgrwt>
</event>
<event>
 6    1  0.9163926E-004  0.4414978E+03  0.7818608E-02  0.1030294E+00
         21   -1    0    0  501  502  0.00000000000E+00  0.00000000000E+00  0.26918551485E+03  0.26918551485E+03  0.00000000000E+00 0. -1.
         21   -1    0    0  502  503 -0.00000000000E+00 -0.00000000000E+00 -0.74175085102E+03  0.74175085102E+03  0.00000000000E+00 0. -1.
    9000007    2    1    2  501    0  0.88412208594E+02  0.16463160194E+03 -0.31449314249E+03  0.54199383059E+03  0.39991385664E+03 0.  0.
    9000005    1    3    3    0    0  0.20775228570E+03  0.22583587153E+03 -0.20760132608E+03  0.37048908711E+03  0.99999687468E+00 0.  0.
          4    1    3    3  501    0 -0.11934007711E+03 -0.61204269588E+02 -0.10689181641E+03  0.17150474348E+03  0.00000000000E+00 0.  1.
   -9000007    1    1    2    0  503 -0.88412208594E+02 -0.16463160194E+03 -0.15807219367E+03  0.46894253528E+03  0.40000000000E+03 0. -1.
<mgrwt>
<rscale>  2 0.44147826E+03</rscale>
<asrwt>0</asrwt>
<pdfrwt beam="1">  1       21 0.41413157E-01 0.44149777E+03</pdfrwt>
<pdfrwt beam="2">  1       21 0.11411551E+00 0.44149777E+03</pdfrwt>
<totfact> 0.29189893E+03</totfact>
</mgrwt>
</event>
<event>
 6    1  0.9163926E-004  0.4049661E+03  0.7818608E-02  0.1042138E+00
         21   -1    0    0  501  502  0.00000000000E+00  0.00000000000E+00  0.40478101213E+03  0.40478101213E+03  0.00000000000E+00 0. -1.
         21   -1    0    0  502  503 -0.00000000000E+00 -0.00000000000E+00 -0.41284569447E+03  0.41284569447E+03  0.00000000000E+00 0. -1.
    9000007    2    1    2  501    0 -0.36773079778E+02  0.51432600733E+02  0.54456065538E+02  0.40786285298E+03  0.39923560958E+03 0.  0.
    9000005    1    3    3    0    0 -0.18375223644E+03  0.12160636814E+03  0.95100814424E+02  0.23999616261E+03  0.99999687468E+00 0.  0.
          4    1    3    3  501    0  0.14697915666E+03 -0.70173767403E+02 -0.40644748887E+02  0.16786669037E+03  0.00000000000E+00 0.  1.
   -9000007    1    1    2    0  503  0.36773079778E+02 -0.51432600733E+02 -0.62520747880E+02  0.40976385362E+03  0.40000000000E+03 0. -1.
<mgrwt>
<rscale>  2 0.40477725E+03</rscale>
<asrwt>0</asrwt>
<pdfrwt beam="1">  1       21 0.62274002E-01 0.40496614E+03</pdfrwt>
<pdfrwt beam="2">  1       21 0.63514722E-01 0.40496614E+03</pdfrwt>
<totfact> 0.48964232E+03</totfact>
</mgrwt>
</event>
<event>
 6    1  0.9163926E-004  0.4431729E+03  0.7818608E-02  0.1029835E+00
         21   -1    0    0  501  502  0.00000000000E+00  0.00000000000E+00  0.76108623427E+03  0.76108623427E+03  0.00000000000E+00 0.  1.
         21   -1    0    0  502  503 -0.00000000000E+00 -0.00000000000E+00 -0.54575211517E+03  0.54575211517E+03  0.00000000000E+00 0.  1.
    9000007    2    1    2  501    0  0.14425235086E+03  0.12487373330E+03  0.58240569696E+03  0.73138745382E+03  0.39916039603E+03 0.  0.
    9000005    1    3    3    0    0 -0.78316501393E+02 -0.89487965710E+02  0.25397633390E+03  0.28043991972E+03  0.99999687468E+00 0.  0.
          4    1    3    3  501    0  0.22256885225E+03  0.21436169901E+03  0.32842936307E+03  0.45094753411E+03  0.00000000000E+00 0.  1.
   -9000007    1    1    2    0  503 -0.14425235086E+03 -0.12487373330E+03 -0.36707157786E+03  0.57545089562E+03  0.40000000000E+03 0.  1.
<mgrwt>
<rscale>  2 0.44298333E+03</rscale>
<asrwt>0</asrwt>
<pdfrwt beam="1">  1       21 0.11709019E+00 0.44317287E+03</pdfrwt>
<pdfrwt beam="2">  1       21 0.83961864E-01 0.44317287E+03</pdfrwt>
<totfact> 0.58200472E+02</totfact>
</mgrwt>
</event>
<event>
 6    1  0.9163926E-004  0.4072684E+03  0.7818608E-02  0.1041308E+00
         21   -1    0    0  501  502  0.00000000000E+00  0.00000000000E+00  0.16209391555E+03  0.16209391555E+03  0.00000000000E+00 0. -1.
         21   -1    0    0  502  503 -0.00000000000E+00 -0.00000000000E+00 -0.14671873297E+04  0.14671873297E+04  0.00000000000E+00 0. -1.
    9000007    2    1    2  501    0 -0.72564343823E+02 -0.24534749585E+02 -0.20409005511E+03  0.45536645508E+03  0.39979784878E+03 0.  0.
    9000005    1    3    3    0    0 -0.28732677801E+02 -0.21222045983E+03 -0.11407703049E+03  0.24264719084E+03  0.99999687468E+00 0.  0.
          4    1    3    3  501    0 -0.43831666022E+02  0.18768571025E+03 -0.90013024617E+02  0.21271926424E+03  0.00000000000E+00 0.  1.
   -9000007    1    1    2    0  503  0.72564343823E+02  0.24534749585E+02 -0.11010033590E+04  0.11739147901E+04  0.40000000000E+03 0. -1.
<mgrwt>
<rscale>  2 0.40721874E+03</rscale>
<asrwt>0</asrwt>
<pdfrwt beam="1">  1       21 0.24937526E-01 0.40726839E+03</pdfrwt>
<pdfrwt beam="2">  1       21 0.22572112E+00 0.40726839E+03</pdfrwt>
<totfact> 0.11982673E+03</totfact>
</mgrwt>
</event>
<event>
 6    1  0.9163926E-004  0.4082621E+03  0.7818608E-02  0.1041011E+00
         21   -1    0    0  501  502  0.00000000000E+00  0.00000000000E+00  0.44209904620E+03  0.44209904620E+03  0.00000000000E+00 0.  1.
         21   -1    0    0  502  503 -0.00000000000E+00 -0.00000000000E+00 -0.39974544084E+03  0.39974544084E+03  0.00000000000E+00 0. -1.
    9000007    2    1    2  501    0 -0.40332506472E+02 -0.67234302488E+02  0.12288235086E+03  0.42635436518E+03  0.40066296315E+03 0.  0.
    9000005    1    3    3    0    0  0.14515216071E+03  0.29960150227E+02 -0.48296195009E+02  0.15588547978E+03  0.99999687468E+00 0.  0.
          4    1    3    3  501    0 -0.18548466719E+03 -0.97194452715E+02  0.17117854587E+03  0.27046888539E+03  0.00000000000E+00 0.  1.
   -9000007    1    1    2    0  503  0.40332506472E+02  0.67234302488E+02 -0.80528745501E+02  0.41549012186E+03  0.40000000000E+03 0. -1.
<mgrwt>
<rscale>  2 0.40809939E+03</rscale>
<asrwt>0</asrwt>
<pdfrwt beam="1">  1       21 0.68015238E-01 0.40826214E+03</pdfrwt>
<pdfrwt beam="2">  1       21 0.61499298E-01 0.40826214E+03</pdfrwt>
<totfact> 0.43176349E+03</totfact>
</mgrwt>
</event>
<event>
 6    1  0.9163926E-004  0.4979748E+03  0.7818608E-02  0.1014334E+00
         21   -1    0    0  501  502  0.00000000000E+00  0.00000000000E+00  0.30539870107E+03  0.30539870107E+03  0.00000000000E+00 0. -1.
         21   -1    0    0  502  503 -0.00000000000E+00 -0.00000000000E+00 -0.11876699973E+04  0.11876699973E+04  0.00000000000E+00 0. -1.
    9000007    2    1    2  501    0 -0.29512611186E+03 -0.29656049305E+02 -0.86123886795E+03  0.99464993250E+03  0.39952121018E+03 0.  0.
    9000005    1    3    3    0    0 -0.37729423896E+03  0.50990855406E+02 -0.62460696477E+03  0.73149563944E+03  0.99999687468E+00 0.  0.
          4    1    3    3  501    0  0.82168127099E+02 -0.80646904710E+02 -0.23663190318E+03  0.26315429305E+03  0.00000000000E+00 0.  1.
   -9000007    1    1    2    0  503  0.29512611186E+03  0.29656049305E+02 -0.21032428305E+02  0.49841876590E+03  0.40000000000E+03 0. -1.
<mgrwt>
<rscale>  2 0.49787865E+03</rscale>
<asrwt>0</asrwt>
<pdfrwt beam="1">  1       21 0.46984416E-01 0.49797480E+03</pdfrwt>
<pdfrwt beam="2">  1       21 0.18271846E+00 0.49797480E+03</pdfrwt>
<totfact> 0.61486408E+02</totfact>
</mgrwt>
</event>
<event>
 6    1  0.9163926E-004  0.5216892E+03  0.7818608E-02  0.1008281E+00
         21   -1    0    0  501  502  0.00000000000E+00  0.00000000000E+00  0.56693528168E+03  0.56693528168E+03  0.00000000000E+00 0.  1.
         21   -1    0    0  502  503 -0.00000000000E+00 -0.00000000000E+00 -0.55112680128E+03  0.55112680128E+03  0.00000000000E+00 0.  1.
    9000007    2    1    2  501    0  0.32522845886E+03 -0.78493967145E+02  0.20893819618E+03  0.56197401400E+03  0.40028086297E+03 0.  0.
    9000005    1    3    3    0    0  0.88617677211E+02 -0.18545259377E+03  0.22128695138E+03  0.30201766852E+03  0.99999687468E+00 0.  0.
          4    1    3    3  501    0  0.23661078165E+03  0.10695862663E+03 -0.12348755201E+02  0.25995634548E+03  0.00000000000E+00 0.  1.
   -9000007    1    1    2    0  503 -0.32522845886E+03  0.78493967145E+02 -0.19312971578E+03  0.55608806897E+03  0.40000000000E+03 0.  1.
<mgrwt>
<rscale>  2 0.52163533E+03</rscale>
<asrwt>0</asrwt>
<pdfrwt beam="1">  1       21 0.87220813E-01 0.52168920E+03</pdfrwt>
<pdfrwt beam="2">  1       21 0.84788738E-01 0.52168920E+03</pdfrwt>
<totfact> 0.11307003E+03</totfact>
</mgrwt>
</event>
<event>
 6    1  0.9163926E-004  0.5072657E+03  0.7818608E-02  0.1011941E+00
         21   -1    0    0  501  502  0.00000000000E+00  0.00000000000E+00  0.67362725070E+03  0.67362725070E+03  0.00000000000E+00 0.  1.
         21   -1    0    0  502  503 -0.00000000000E+00 -0.00000000000E+00 -0.38196137796E+03  0.38196137796E+03  0.00000000000E+00 0.  1.
    9000007    2    1    2  501    0  0.27721216250E+03  0.14075077083E+03  0.12755433396E+03  0.52305697731E+03  0.40082556166E+03 0.  0.
    9000005    1    3    3    0    0 -0.39422751163E+02 -0.66243395281E+02 -0.62927857105E+02  0.99515103985E+02  0.99999687468E+00 0.  0.
          4    1    3    3  501    0  0.31663491366E+03  0.20699416611E+03  0.19048219106E+03  0.42354187333E+03  0.00000000000E+00 0.  1.
   -9000007    1    1    2    0  503 -0.27721216250E+03 -0.14075077083E+03  0.16411153877E+03  0.53253165134E+03  0.40000000000E+03 0.  1.
<mgrwt>
<rscale>  2 0.50710260E+03</rscale>
<asrwt>0</asrwt>
<pdfrwt beam="1">  1       21 0.10363496E+00 0.50726570E+03</pdfrwt>
<pdfrwt beam="2">  1       21 0.58763289E-01 0.50726570E+03</pdfrwt>
<totfact> 0.17205406E+03</totfact>
</mgrwt>
</event>
<event>
 6    1  0.9163926E-004  0.5912073E+03  0.7818608E-02  0.9924258E-01
         21   -1    0    0  501  502  0.00000000000E+00  0.00000000000E+00  0.16850600542E+04  0.16850600542E+04  0.00000000000E+00 0. -1.
         21   -1    0    0  502  503 -0.00000000000E+00 -0.00000000000E+00 -0.39524240726E+03  0.39524240726E+03  0.00000000000E+00 0. -1.
    9000007    2    1    2  501    0  0.43529234338E+03 -0.68326123340E+01  0.13622469970E+04  0.14846749608E+04  0.39876904310E+03 0.  0.
    9000005    1    3    3    0    0  0.46786072842E+03 -0.28407113602E+02  0.84778354429E+03  0.96873038729E+03  0.99999687468E+00 0.  0.
          4    1    3    3  501    0 -0.32568385040E+02  0.21574501268E+02  0.51446345267E+03  0.51594457352E+03  0.00000000000E+00 0.  1.
   -9000007    1    1    2    0  503 -0.43529234338E+03  0.68326123340E+01 -0.72429350019E+02  0.59562750066E+03  0.40000000000E+03 0. -1.
<mgrwt>
<rscale>  2 0.59099918E+03</rscale>
<asrwt>0</asrwt>
<pdfrwt beam="1">  1       21 0.25924000E+00 0.59120733E+03</pdfrwt>
<pdfrwt beam="2">  1       21 0.60806525E-01 0.59120733E+03</pdfrwt>
<totfact> 0.10781104E+02</totfact>
</mgrwt>
</event>
<event>
 6    1  0.9163926E-004  0.4458849E+03  0.7818608E-02  0.1029390E+00
         21   -1    0    0  501  502  0.00000000000E+00  0.00000000000E+00  0.25258126047E+03  0.25258126047E+03  0.00000000000E+00 0. -1.
         21   -1    0    0  502  503 -0.00000000000E+00 -0.00000000000E+00 -0.86605535915E+03  0.86605535915E+03  0.00000000000E+00 0. -1.
    9000007    2    1    2  501    0 -0.17167558096E+03 -0.96647977786E+02 -0.12568537448E+03  0.45776509188E+03  0.39362257212E+03 0.  0.
    9000005    1    3    3    0    0  0.11620306920E+03 -0.40928011905E+02  0.28527834866E+02  0.12646380038E+03  0.99999687468E+00 0.  0.
          4    1    3    3  501    0 -0.28787865016E+03 -0.55719965880E+02 -0.15421320935E+03  0.33130129151E+03  0.00000000000E+00 0.  1.
   -9000007    1    1    2    0  503  0.17167558096E+03  0.96647977786E+02 -0.48778872421E+03  0.66087152774E+03  0.40000000000E+03 0.  1.
<mgrwt>
<rscale>  2 0.44444995E+03</rscale>
<asrwt>0</asrwt>
<pdfrwt beam="1">  1       21 0.38858655E-01 0.44588489E+03</pdfrwt>
<pdfrwt beam="2">  1       21 0.13323929E+00 0.44588489E+03</pdfrwt>
<totfact> 0.22357650E+03</totfact>
</mgrwt>
</event>
<event>
 6    1  0.9163926E-004  0.4253290E+03  0.7818608E-02  0.1035362E+00
         21   -1    0    0  501  502  0.00000000000E+00  0.00000000000E+00  0.48424706227E+03  0.48424706227E+03  0.00000000000E+00 0. -1.
         21   -1    0    0  502  503 -0.00000000000E+00 -0.00000000000E+00 -0.37522650674E+03  0.37522650674E+03  0.00000000000E+00 0. -1.
    9000007    2    1    2  501    0 -0.14458238636E+03  0.84057775701E+00  0.84480805971E+02  0.43343721807E+03  0.39978249388E+03 0.  0.
    9000005    1    3    3    0    0 -0.88635055273E+02 -0.18258523448E+03 -0.37167372798E+02  0.20633941569E+03  0.99999687468E+00 0.  0.
          4    1    3    3  501    0 -0.55947331086E+02  0.18342581223E+03  0.12164817877E+03  0.22709780238E+03  0.00000000000E+00 0.  1.
   -9000007    1    1    2    0  503  0.14458238636E+03 -0.84057775701E+00  0.24539749550E+02  0.42603635094E+03  0.40000000000E+03 0. -1.
<mgrwt>
<rscale>  2 0.42527787E+03</rscale>
<asrwt>0</asrwt>
<pdfrwt beam="1">  1       21 0.74499549E-01 0.42532902E+03</pdfrwt>
<pdfrwt beam="2">  1       21 0.57727154E-01 0.42532902E+03</pdfrwt>
<totfact> 0.40128772E+03</totfact>
</mgrwt>
</event>
<event>
 6    1  0.9163926E-004  0.4156058E+03  0.7818608E-02  0.1038516E+00
         21   -1    0    0  501  502  0.00000000000E+00  0.00000000000E+00  0.18143172938E+03  0.18143172938E+03  0.00000000000E+00 0.  1.
         21   -1    0    0  502  503 -0.00000000000E+00 -0.00000000000E+00 -0.17586957535E+04  0.17586957535E+04  0.00000000000E+00 0. -1.
    9000007    2    1    2  501    0 -0.51565191838E+02  0.10034543075E+03 -0.13148370937E+03  0.43579743499E+03  0.39987906176E+03 0.  0.
    9000005    1    3    3    0    0 -0.23764895132E+02 -0.70847652993E+02 -0.22617058234E+03  0.23819801108E+03  0.99999687468E+00 0.  0.
          4    1    3    3  501    0 -0.27800296706E+02  0.17119308375E+03  0.94686872964E+02  0.19759942391E+03  0.00000000000E+00 0.  1.
   -9000007    1    1    2    0  503  0.51565191838E+02 -0.10034543075E+03 -0.14457803147E+04  0.15043300479E+04  0.40000000000E+03 0. -1.
<mgrwt>
<rscale>  2 0.41557669E+03</rscale>
<asrwt>0</asrwt>
<pdfrwt beam="1">  1       21 0.27912574E-01 0.41560579E+03</pdfrwt>
<pdfrwt beam="2">  1       21 0.27056857E+00 0.41560579E+03</pdfrwt>
<totfact> 0.50758115E+02</totfact>
</mgrwt>
</event>
<event>
 6    1  0.9163926E-004  0.4098388E+03  0.7818608E-02  0.1040435E+00
         21   -1    0    0  501  502  0.00000000000E+00  0.00000000000E+00  0.66790964852E+03  0.66790964852E+03  0.00000000000E+00 0. -1.
         21   -1    0    0  502  503 -0.00000000000E+00 -0.00000000000E+00 -0.37215998151E+03  0.37215998151E+03  0.00000000000E+00 0. -1.
    9000007    2    1    2  501    0 -0.85240105589E+02 -0.26495191364E+02  0.44407523004E+03  0.60421604978E+03  0.39988292550E+03 0.  0.
    9000005    1    3    3    0    0 -0.15495041714E+03 -0.75621322310E+02  0.48123455257E+03  0.51119067943E+03  0.99999687468E+00 0.  0.
          4    1    3    3  501    0  0.69710311551E+02  0.49126130946E+02 -0.37159322522E+02  0.93025370349E+02  0.00000000000E+00 0.  1.
   -9000007    1    1    2    0  503  0.85240105589E+02  0.26495191364E+02 -0.14832556303E+03  0.43585358025E+03  0.40000000000E+03 0. -1.
<mgrwt>
<rscale>  2 0.40981027E+03</rscale>
<asrwt>0</asrwt>
<pdfrwt beam="1">  1       21 0.10275533E+00 0.40983884E+03</pdfrwt>
<pdfrwt beam="2">  1       21 0.57255382E-01 0.40983884E+03</pdfrwt>
<totfact> 0.19288281E+03</totfact>
</mgrwt>
</event>
<event>
 6    1  0.9163926E-004  0.6657018E+03  0.7818608E-02  0.9777989E-01
         21   -1    0    0  501  502  0.00000000000E+00  0.00000000000E+00  0.40321866395E+03  0.40321866395E+03  0.00000000000E+00 0. -1.
         21   -1    0    0  502  503 -0.00000000000E+00 -0.00000000000E+00 -0.11767523596E+04  0.11767523596E+04  0.00000000000E+00 0.  1.
    9000007    2    1    2  501    0 -0.32483653031E+03 -0.42065816926E+03 -0.59101083563E+03  0.89019811802E+03  0.40085759903E+03 0.  0.
    9000005    1    3    3    0    0 -0.12482181852E+03  0.52775441867E+02 -0.51256853377E+02  0.14489305938E+03  0.99999687468E+00 0.  0.
          4    1    3    3  501    0 -0.20001471178E+03 -0.47343361112E+03 -0.53975398226E+03  0.74530505864E+03  0.00000000000E+00 0.  1.
   -9000007    1    1    2    0  503  0.32483653031E+03  0.42065816926E+03 -0.18252286003E+03  0.68977290554E+03  0.40000000000E+03 0. -1.
<mgrwt>
<rscale>  2 0.66557274E+03</rscale>
<asrwt>0</asrwt>
<pdfrwt beam="1">  1       21 0.62033641E-01 0.66570180E+03</pdfrwt>
<pdfrwt beam="2">  1       21 0.18103882E+00 0.66570180E+03</pdfrwt>
<totfact> 0.32545864E+02</totfact>
</mgrwt>
</event>
<event>
 6    1  0.9163926E-004  0.5192296E+03  0.7818608E-02  0.1008911E+00
         21   -1    0    0  501  502  0.00000000000E+00  0.00000000000E+00  0.94338465273E+03  0.94338465273E+03  0.00000000000E+00 0.  1.
         21   -1    0    0  502  503 -0.00000000000E+00 -0.00000000000E+00 -0.67930069884E+03  0.67930069884E+03  0.00000000000E+00 0.  1.
    9000007    2    1    2  501    0 -0.30137219137E+03 -0.13497341012E+03  0.74983149422E+03  0.91205626963E+03  0.40069483408E+03 0.  0.
    9000005    1    3    3    0    0 -0.39351235718E+02 -0.19664691030E+03  0.13746469238E+03  0.24313796234E+03  0.99999687468E+00 0.  0.
          4    1    3    3  501    0 -0.26202095566E+03  0.61673500184E+02  0.61236680184E+03  0.66891830729E+03  0.00000000000E+00 0.  1.
   -9000007    1    1    2    0  503  0.30137219137E+03  0.13497341012E+03 -0.48574754033E+03  0.71062908195E+03  0.40000000000E+03 0.  1.
<mgrwt>
<rscale>  2 0.51909553E+03</rscale>
<asrwt>0</asrwt>
<pdfrwt beam="1">  1       21 0.14513610E+00 0.51922959E+03</pdfrwt>
<pdfrwt beam="2">  1       21 0.10450780E+00 0.51922959E+03</pdfrwt>
<totfact> 0.19018918E+02</totfact>
</mgrwt>
</event>
<event>
 6    1  0.9163926E-004  0.5591544E+03  0.7818608E-02  0.9993987E-01
         21   -1    0    0  501  502  0.00000000000E+00  0.00000000000E+00  0.13322232260E+04  0.13322232260E+04  0.00000000000E+00 0.  1.
         21   -1    0    0  502  503 -0.00000000000E+00 -0.00000000000E+00 -0.28028965854E+03  0.28028965854E+03  0.00000000000E+00 0. -1.
    9000007    2    1    2  501    0  0.39032801245E+03 -0.17253151155E+02  0.85121649683E+03  0.10184245317E+04  0.39995671486E+03 0.  0.
    9000005    1    3    3    0    0 -0.56236540710E+02 -0.86409783098E+02  0.11377294605E+03  0.15353983969E+03  0.99999687468E+00 0.  0.
          4    1    3    3  501    0  0.44656455316E+03  0.69156631942E+02  0.73744355078E+03  0.86488469201E+03  0.00000000000E+00 0.  1.
   -9000007    1    1    2    0  503 -0.39032801245E+03  0.17253151155E+02  0.20071707061E+03  0.59408835282E+03  0.40000000000E+03 0. -1.
<mgrwt>
<rscale>  2 0.55914665E+03</rscale>
<asrwt>0</asrwt>
<pdfrwt beam="1">  1       21 0.20495742E+00 0.55915439E+03</pdfrwt>
<pdfrwt beam="2">  1       21 0.43121487E-01 0.55915439E+03</pdfrwt>
<totfact> 0.50660755E+02</totfact>
</mgrwt>
</event>
<event>
 6    1  0.9163926E-004  0.4747137E+03  0.7818608E-02  0.1020666E+00
         21   -1    0    0  501  502  0.00000000000E+00  0.00000000000E+00  0.61296702025E+03  0.61296702025E+03  0.00000000000E+00 0.  1.
         21   -1    0    0  502  503 -0.00000000000E+00 -0.00000000000E+00 -0.16553494412E+04  0.16553494412E+04  0.00000000000E+00 0.  1.
    9000007    2    1    2  501    0 -0.23085853405E+03 -0.10980647228E+03  0.47953737325E+03  0.67407903118E+03  0.39883997272E+03 0.  0.
    9000005    1    3    3    0    0 -0.17010530563E+03 -0.18063448304E+03  0.75427879391E+02  0.25933568295E+03  0.99999687468E+00 0.  0.
          4    1    3    3  501    0 -0.60753228415E+02  0.70828010767E+02  0.40410949386E+03  0.41474334823E+03  0.00000000000E+00 0.  1.
   -9000007    1    1    2    0  503  0.23085853405E+03  0.10980647228E+03 -0.15219197942E+04  0.15942374303E+04  0.40000000000E+03 0.  1.
<mgrwt>
<rscale>  2 0.47446928E+03</rscale>
<asrwt>0</asrwt>
<pdfrwt beam="1">  1       21 0.94302620E-01 0.47471373E+03</pdfrwt>
<pdfrwt beam="2">  1       21 0.25466914E+00 0.47471373E+03</pdfrwt>
<totfact> 0.44631726E+01</totfact>
</mgrwt>
</event>
<event>
 6    1  0.9163926E-004  0.4495697E+03  0.7818608E-02  0.1027890E+00
         21   -1    0    0  501  502  0.00000000000E+00  0.00000000000E+00  0.46374563387E+03  0.46374563387E+03  0.00000000000E+00 0. -1.
         21   -1    0    0  502  503 -0.00000000000E+00 -0.00000000000E+00 -0.81038419134E+03  0.81038419134E+03  0.00000000000E+00 0. -1.
    9000007    2    1    2  501    0 -0.15918095605E+02 -0.20341571160E+03  0.26003437834E+03  0.51935609187E+03  0.40060146623E+03 0.  0.
    9000005    1    3    3    0    0 -0.62945904148E+02 -0.94927747813E+02  0.35173728318E+03  0.36972094954E+03  0.99999687468E+00 0.  0.
          4    1    3    3  501    0  0.47027808543E+02 -0.10848796379E+03 -0.91702904840E+02  0.14963514233E+03  0.00000000000E+00 0.  1.
   -9000007    1    1    2    0  503  0.15918095605E+02  0.20341571160E+03 -0.60667293582E+03  0.75477373334E+03  0.40000000000E+03 0. -1.
<mgrwt>
<rscale>  2 0.44943562E+03</rscale>
<asrwt>0</asrwt>
<pdfrwt beam="1">  1       21 0.71345483E-01 0.44956965E+03</pdfrwt>
<pdfrwt beam="2">  1       21 0.12467449E+00 0.44956965E+03</pdfrwt>
<totfact> 0.71874761E+02</totfact>
</mgrwt>
</event>
<event>
 6    1  0.9163926E-004  0.4444138E+03  0.7818608E-02  0.1029409E+00
         21   -1    0    0  501  502  0.00000000000E+00  0.00000000000E+00  0.77542034609E+03  0.77542034609E+03  0.00000000000E+00 0. -1.
         21   -1    0    0  502  503 -0.00000000000E+00 -0.00000000000E+00 -0.26029515226E+03  0.26029515226E+03  0.00000000000E+00 0.  1.
    9000007    2    1    2  501    0 -0.92898777532E+02  0.16992177201E+03  0.18121607480E+03  0.47983881127E+03  0.39987801585E+03 0.  0.
    9000005    1    3    3    0    0  0.15257374766E+03  0.13375386689E+02  0.62382477652E+02  0.16537902816E+03  0.99999687468E+00 0.  0.
          4    1    3    3  501    0 -0.24547252519E+03  0.15654638532E+03  0.11883359715E+03  0.31445978311E+03  0.00000000000E+00 0.  1.
   -9000007    1    1    2    0  503  0.92898777532E+02 -0.16992177201E+03  0.33390911903E+03  0.55587668708E+03  0.40000000000E+03 0.  1.
<mgrwt>
<rscale>  2 0.44438631E+03</rscale>
<asrwt>0</asrwt>
<pdfrwt beam="1">  1       21 0.11929544E+00 0.44441376E+03</pdfrwt>
<pdfrwt beam="2">  1       21 0.40045408E-01 0.44441376E+03</pdfrwt>
<totfact> 0.27955899E+03</totfact>
</mgrwt>
</event>
<event>
 6    1  0.9163926E-004  0.4436389E+03  0.7818608E-02  0.1029722E+00
         21   -1    0    0  501  502  0.00000000000E+00  0.00000000000E+00  0.82866357243E+03  0.82866357243E+03  0.00000000000E+00 0.  1.
         21   -1    0    0  502  503 -0.00000000000E+00 -0.00000000000E+00 -0.23740768324E+03  0.23740768324E+03  0.00000000000E+00 0. -1.
    9000007    2    1    2  501    0  0.16860239598E+03 -0.85926431365E+02  0.32059451688E+03  0.54735389718E+03  0.40125468840E+03 0.  0.
    9000005    1    3    3    0    0  0.14750696640E+03 -0.12405068986E+02 -0.59572714133E+02  0.15956847789E+03  0.99999687468E+00 0.  0.
          4    1    3    3  501    0  0.21095429582E+02 -0.73521362380E+02  0.38016723102E+03  0.38778541929E+03  0.00000000000E+00 0.  1.
   -9000007    1    1    2    0  503 -0.16860239598E+03  0.85926431365E+02  0.27066137231E+03  0.51871735849E+03  0.40000000000E+03 0. -1.
<mgrwt>
<rscale>  2 0.44335497E+03</rscale>
<asrwt>0</asrwt>
<pdfrwt beam="1">  1       21 0.12748670E+00 0.44363887E+03</pdfrwt>
<pdfrwt beam="2">  1       21 0.36524259E-01 0.44363887E+03</pdfrwt>
<totfact> 0.28476348E+03</totfact>
</mgrwt>
</event>
<event>
 6    1  0.9163926E-004  0.4139258E+03  0.7818608E-02  0.1039397E+00
         21   -1    0    0  501  502  0.00000000000E+00  0.00000000000E+00  0.25069859860E+03  0.25069859860E+03  0.00000000000E+00 0.  1.
         21   -1    0    0  502  503 -0.00000000000E+00 -0.00000000000E+00 -0.12254827485E+04  0.12254827485E+04  0.00000000000E+00 0.  1.
    9000007    2    1    2  501    0  0.18398127319E+02  0.87647509505E+02  0.51637193372E+01  0.41395801680E+03  0.40412126727E+03 0.  0.
    9000005    1    3    3    0    0  0.93706602105E+02  0.11565174964E+03 -0.16715637481E+03  0.22382696019E+03  0.99999687468E+00 0.  0.
          4    1    3    3  501    0 -0.75308474786E+02 -0.28004240140E+02  0.17232009415E+03  0.19013105661E+03  0.00000000000E+00 0.  1.
   -9000007    1    1    2    0  503 -0.18398127319E+02 -0.87647509505E+02 -0.97994786920E+03  0.10622233303E+04  0.40000000000E+03 0.  1.
<mgrwt>
<rscale>  2 0.41291645E+03</rscale>
<asrwt>0</asrwt>
<pdfrwt beam="1">  1       21 0.38569015E-01 0.41392581E+03</pdfrwt>
<pdfrwt beam="2">  1       21 0.18853581E+00 0.41392581E+03</pdfrwt>
<totfact> 0.87791739E+02</totfact>
</mgrwt>
</event>
<event>
 6    1  0.9163926E-004  0.4327104E+03  0.7818608E-02  0.1033012E+00
         21   -1    0    0  501  502  0.00000000000E+00  0.00000000000E+00  0.11644329558E+04  0.11644329558E+04  0.00000000000E+00 0. -1.
         21   -1    0    0  502  503 -0.00000000000E+00 -0.00000000000E+00 -0.18366820368E+03  0.18366820368E+03  0.00000000000E+00 0. -1.
    9000007    2    1    2  501    0  0.48035870045E+02 -0.15789494848E+03  0.72832966802E+03  0.84714035138E+03  0.39993050654E+03 0.  0.
    9000005    1    3    3    0    0 -0.36083241707E+02 -0.11024719228E+02 -0.43141298407E+02  0.57321168761E+02  0.99999687468E+00 0.  0.
          4    1    3    3  501    0  0.84119111752E+02 -0.14687022926E+03  0.77147096642E+03  0.78981918262E+03  0.00000000000E+00 0.  1.
   -9000007    1    1    2    0  503 -0.48035870045E+02  0.15789494848E+03  0.25243508412E+03  0.50096080811E+03  0.40000000000E+03 0.  1.
<mgrwt>
<rscale>  2 0.43269430E+03</rscale>
<asrwt>0</asrwt>
<pdfrwt beam="1">  1       21 0.17914353E+00 0.43271036E+03</pdfrwt>
<pdfrwt beam="2">  1       21 0.28256647E-01 0.43271036E+03</pdfrwt>
<totfact> 0.18888053E+03</totfact>
</mgrwt>
</event>
<event>
 6    1  0.9163926E-004  0.4559292E+03  0.7818608E-02  0.1026001E+00
         21   -1    0    0  501  502  0.00000000000E+00  0.00000000000E+00  0.60290642760E+03  0.60290642760E+03  0.00000000000E+00 0.  1.
         21   -1    0    0  502  503 -0.00000000000E+00 -0.00000000000E+00 -0.46755359139E+03  0.46755359139E+03  0.00000000000E+00 0. -1.
    9000007    2    1    2  501    0  0.19667545690E+03 -0.95865511619E+02  0.34229067441E+03  0.56976580039E+03  0.39949809742E+03 0.  0.
    9000005    1    3    3    0    0  0.26376882039E+03  0.34184056451E+02  0.95023543505E+02  0.28244116934E+03  0.99999687468E+00 0.  0.
          4    1    3    3  501    0 -0.67093363491E+02 -0.13004956807E+03  0.24726713091E+03  0.28732463105E+03  0.00000000000E+00 0.  1.
   -9000007    1    1    2    0  503 -0.19667545690E+03  0.95865511619E+02 -0.20693783819E+03  0.50069421860E+03  0.40000000000E+03 0. -1.
<mgrwt>
<rscale>  2 0.45581909E+03</rscale>
<asrwt>0</asrwt>
<pdfrwt beam="1">  1       21 0.92754835E-01 0.45592920E+03</pdfrwt>
<pdfrwt beam="2">  1       21 0.71931322E-01 0.45592920E+03</pdfrwt>
<totfact> 0.14620007E+03</totfact>
</mgrwt>
</event>
<event>
 6    1  0.9163926E-004  0.5201985E+03  0.7818608E-02  0.1008873E+00
         21   -1    0    0  501  502  0.00000000000E+00  0.00000000000E+00  0.95427855772E+03  0.95427855772E+03  0.00000000000E+00 0. -1.
         21   -1    0    0  502  503 -0.00000000000E+00 -0.00000000000E+00 -0.30588427131E+03  0.30588427131E+03  0.00000000000E+00 0. -1.
    9000007    2    1    2  501    0 -0.95864431660E+02 -0.31845958142E+03  0.50094464247E+03  0.71947078012E+03  0.39507742833E+03 0.  0.
    9000005    1    3    3    0    0 -0.21878039976E+03 -0.32466278877E+03  0.40619426097E+03  0.56415030565E+03  0.99999687468E+00 0.  0.
          4    1    3    3  501    0  0.12291596810E+03  0.62032073562E+01  0.94750381501E+02  0.15532047447E+03  0.00000000000E+00 0.  1.
   -9000007    1    1    2    0  503  0.95864431660E+02  0.31845958142E+03  0.14744964394E+03  0.54069204891E+03  0.40000000000E+03 0. -1.
<mgrwt>
<rscale>  2 0.51925204E+03</rscale>
<asrwt>0</asrwt>
<pdfrwt beam="1">  1       21 0.14681208E+00 0.52019851E+03</pdfrwt>
<pdfrwt beam="2">  1       21 0.47059119E-01 0.52019851E+03</pdfrwt>
<totfact> 0.11270981E+03</totfact>
</mgrwt>
</event>
<event>
 6    1  0.9163926E-004  0.4054767E+03  0.7818608E-02  0.1041964E+00
         21   -1    0    0  501  502  0.00000000000E+00  0.00000000000E+00  0.68180268408E+03  0.68180268408E+03  0.00000000000E+00 0.  1.
         21   -1    0    0  502  503 -0.00000000000E+00 -0.00000000000E+00 -0.80180124966E+03  0.80180124966E+03  0.00000000000E+00 0.  1.
    9000007    2    1    2  501    0 -0.36628529616E+02 -0.49580062926E+02  0.56053526050E+03  0.69181727039E+03  0.40076367790E+03 0.  0.
    9000005    1    3    3    0    0  0.98994620879E+02  0.79280886436E+02  0.31510140643E+02  0.13068773039E+03  0.99999687468E+00 0.  0.
          4    1    3    3  501    0 -0.13562315049E+03 -0.12886094936E+03  0.52902511986E+03  0.56112954000E+03  0.00000000000E+00 0.  1.
   -9000007    1    1    2    0  503  0.36628529616E+02  0.49580062926E+02 -0.68053382608E+03  0.79178666335E+03  0.40000000000E+03 0.  1.
<mgrwt>
<rscale>  2 0.40528788E+03</rscale>
<asrwt>0</asrwt>
<pdfrwt beam="1">  1       21 0.10489272E+00 0.40547670E+03</pdfrwt>
<pdfrwt beam="2">  1       21 0.12335404E+00 0.40547670E+03</pdfrwt>
<totfact> 0.30514926E+02</totfact>
</mgrwt>
</event>
<event>
 6    1  0.9163926E-004  0.5639036E+03  0.7818608E-02  0.9983874E-01
         21   -1    0    0  501  502  0.00000000000E+00  0.00000000000E+00  0.86679314527E+03  0.86679314527E+03  0.00000000000E+00 0.  1.
         21   -1    0    0  502  503 -0.00000000000E+00 -0.00000000000E+00 -0.40041690768E+03  0.40041690768E+03  0.00000000000E+00 0. -1.
    9000007    2    1    2  501    0 -0.18183185502E+03 -0.35344660543E+03  0.47611385712E+02  0.56482032669E+03  0.39845681196E+03 0.  0.
    9000005    1    3    3    0    0 -0.22673755457E+03 -0.33854383401E+03 -0.91737149007E+02  0.41765841389E+03  0.99999687468E+00 0.  0.
          4    1    3    3  501    0  0.44905699548E+02 -0.14902771425E+02  0.13934853472E+03  0.14716191279E+03  0.00000000000E+00 0.  1.
   -9000007    1    1    2    0  503  0.18183185502E+03  0.35344660543E+03  0.41876485188E+03  0.70238972627E+03  0.40000000000E+03 0. -1.
<mgrwt>
<rscale>  2 0.56363005E+03</rscale>
<asrwt>0</asrwt>
<pdfrwt beam="1">  1       21 0.13335279E+00 0.56390365E+03</pdfrwt>
<pdfrwt beam="2">  1       21 0.61602601E-01 0.56390365E+03</pdfrwt>
<totfact> 0.80196314E+02</totfact>
</mgrwt>
</event>
<event>
 6    1  0.9163926E-004  0.4525982E+03  0.7818608E-02  0.1026968E+00
         21   -1    0    0  501  502  0.00000000000E+00  0.00000000000E+00  0.43591185823E+03  0.43591185823E+03  0.00000000000E+00 0.  1.
         21   -1    0    0  502  503 -0.00000000000E+00 -0.00000000000E+00 -0.67610047640E+03  0.67610047640E+03  0.00000000000E+00 0.  1.
    9000007    2    1    2  501    0  0.78869614021E+02  0.19598109922E+03 -0.42734038392E+03  0.62246684063E+03  0.40027010467E+03 0.  0.
    9000005    1    3    3    0    0  0.18331810537E+03  0.18446764806E+03 -0.99926972073E+02  0.27860409307E+03  0.99999687468E+00 0.  0.
          4    1    3    3  501    0 -0.10444849135E+03  0.11513451158E+02 -0.32741341185E+03  0.34386274756E+03  0.00000000000E+00 0.  1.
   -9000007    1    1    2    0  503 -0.78869614021E+02 -0.19598109922E+03  0.18715176575E+03  0.48954549399E+03  0.40000000000E+03 0.  1.
<mgrwt>
<rscale>  2 0.45253851E+03</rscale>
<asrwt>0</asrwt>
<pdfrwt beam="1">  1       21 0.67063363E-01 0.45259824E+03</pdfrwt>
<pdfrwt beam="2">  1       21 0.10401546E+00 0.45259824E+03</pdfrwt>
<totfact> 0.12988627E+03</totfact>
</mgrwt>
</event>
<event>
 6    1  0.9163926E-004  0.4453635E+03  0.7818608E-02  0.1029120E+00
         21   -1    0    0  501  502  0.00000000000E+00  0.00000000000E+00  0.28992009297E+03  0.28992009297E+03  0.00000000000E+00 0. -1.
         21   -1    0    0  502  503 -0.00000000000E+00 -0.00000000000E+00 -0.79235061149E+03  0.79235061149E+03  0.00000000000E+00 0. -1.
    9000007    2    1    2  501    0  0.17798356187E+03  0.81198241957E+02 -0.51143928521E+02  0.44829050831E+03  0.40009670784E+03 0.  0.
    9000005    1    3    3    0    0  0.87924044568E+02 -0.22365384618E+02  0.16729512236E+03  0.19031422964E+03  0.99999687468E+00 0.  0.
          4    1    3    3  501    0  0.90059517302E+02  0.10356362658E+03 -0.21843905088E+03  0.25797627867E+03  0.00000000000E+00 0.  1.
   -9000007    1    1    2    0  503 -0.17798356187E+03 -0.81198241957E+02 -0.45128659001E+03  0.63398019615E+03  0.40000000000E+03 0. -1.
<mgrwt>
<rscale>  2 0.44534181E+03</rscale>
<asrwt>0</asrwt>
<pdfrwt beam="1">  1       21 0.44603091E-01 0.44536354E+03</pdfrwt>
<pdfrwt beam="2">  1       21 0.12190009E+00 0.44536354E+03</pdfrwt>
<totfact> 0.21145582E+03</totfact>
</mgrwt>
</event>
<event>
 6    1  0.9163926E-004  0.4023190E+03  0.7818608E-02  0.1043004E+00
         21   -1    0    0  501  502  0.00000000000E+00  0.00000000000E+00  0.59424545701E+03  0.59424545701E+03  0.00000000000E+00 0. -1.
         21   -1    0    0  502  503 -0.00000000000E+00 -0.00000000000E+00 -0.48997838218E+03  0.48997838218E+03  0.00000000000E+00 0. -1.
    9000007    2    1    2  501    0 -0.18190715719E+02 -0.39111381391E+02  0.41354869882E+03  0.57676376664E+03  0.39971654197E+03 0.  0.
    9000005    1    3    3    0    0 -0.57942048154E+02 -0.16707341906E+03  0.40567003493E+03  0.44253811761E+03  0.99999687468E+00 0.  0.
          4    1    3    3  501    0  0.39751332435E+02  0.12796203767E+03  0.78786638842E+01  0.13422564903E+03  0.00000000000E+00 0.  1.
   -9000007    1    1    2    0  503  0.18190715719E+02  0.39111381391E+02 -0.30928162399E+03  0.50746007255E+03  0.40000000000E+03 0. -1.
<mgrwt>
<rscale>  2 0.40224856E+03</rscale>
<asrwt>0</asrwt>
<pdfrwt beam="1">  1       21 0.91422378E-01 0.40231903E+03</pdfrwt>
<pdfrwt beam="2">  1       21 0.75381290E-01 0.40231903E+03</pdfrwt>
<totfact> 0.13909850E+03</totfact>
</mgrwt>
</event>
<event>
 6    1  0.9163926E-004  0.4913124E+03  0.7818608E-02  0.1016111E+00
         21   -1    0    0  501  502  0.00000000000E+00  0.00000000000E+00  0.24543740505E+03  0.24543740505E+03  0.00000000000E+00 0. -1.
         21   -1    0    0  502  503 -0.00000000000E+00 -0.00000000000E+00 -0.12437934472E+04  0.12437934472E+04  0.00000000000E+00 0.  1.
    9000007    2    1    2  501    0 -0.22593389029E+03 -0.17418887264E+03 -0.15754211504E+03  0.51539516480E+03  0.39928031726E+03 0.  0.
    9000005    1    3    3    0    0 -0.20364606027E+03 -0.25618262225E+03  0.10131209767E+02  0.32742158635E+03  0.99999687468E+00 0.  0.
          4    1    3    3  501    0 -0.22287830025E+02  0.81993749611E+02 -0.16767332481E+03  0.18797357845E+03  0.00000000000E+00 0.  1.
   -9000007    1    1    2    0  503  0.22593389029E+03  0.17418887264E+03 -0.84081392715E+03  0.97383568749E+03  0.40000000000E+03 0. -1.
<mgrwt>
<rscale>  2 0.49116591E+03</rscale>
<asrwt>0</asrwt>
<pdfrwt beam="1">  1       21 0.37759602E-01 0.49131241E+03</pdfrwt>
<pdfrwt beam="2">  1       21 0.19135283E+00 0.49131241E+03</pdfrwt>
<totfact> 0.84651077E+02</totfact>
</mgrwt>
</event>
<event>
 6    1  0.9163926E-004  0.4294819E+03  0.7818608E-02  0.1034269E+00
         21   -1    0    0  501  502  0.00000000000E+00  0.00000000000E+00  0.69228772594E+03  0.69228772594E+03  0.00000000000E+00 0. -1.
         21   -1    0    0  502  503 -0.00000000000E+00 -0.00000000000E+00 -0.27751519788E+03  0.27751519788E+03  0.00000000000E+00 0. -1.
    9000007    2    1    2  501    0 -0.15316251699E+03 -0.31558730710E+02  0.31155031938E+03  0.52809087456E+03  0.39668836660E+03 0.  0.
    9000005    1    3    3    0    0 -0.39824378677E+02  0.49289638162E+02  0.37124336328E+03  0.37661397257E+03  0.99999687468E+00 0.  0.
          4    1    3    3  501    0 -0.11333813831E+03 -0.80848368871E+02 -0.59693043897E+02  0.15147690199E+03  0.00000000000E+00 0.  1.
   -9000007    1    1    2    0  503  0.15316251699E+03  0.31558730710E+02  0.10322220869E+03  0.44171204926E+03  0.40000000000E+03 0. -1.
<mgrwt>
<rscale>  2 0.42870918E+03</rscale>
<asrwt>0</asrwt>
<pdfrwt beam="1">  1       21 0.10650580E+00 0.42948191E+03</pdfrwt>
<pdfrwt beam="2">  1       21 0.42694646E-01 0.42948191E+03</pdfrwt>
<totfact> 0.32663187E+03</totfact>
</mgrwt>
</event>
<event>
 6    1  0.9163926E-004  0.4015117E+03  0.7818608E-02  0.1043286E+00
         21   -1    0    0  501  502  0.00000000000E+00  0.00000000000E+00  0.12295385571E+04  0.12295385571E+04  0.00000000000E+00 0.  1.
         21   -1    0    0  502  503 -0.00000000000E+00 -0.00000000000E+00 -0.16281922705E+03  0.16281922705E+03  0.00000000000E+00 0.  1.
    9000007    2    1    2  501    0 -0.80631860979E+00 -0.34798780243E+02  0.84090302646E+03  0.93170107009E+03  0.39967158875E+03 0.  0.
    9000005    1    3    3    0    0 -0.74799228140E+02 -0.19901494120E+03  0.54863024543E+03  0.58838594268E+03  0.99999687468E+00 0.  0.
          4    1    3    3  501    0  0.73992909531E+02  0.16421616096E+03  0.29227278102E+03  0.34331512741E+03  0.00000000000E+00 0.  1.
   -9000007    1    1    2    0  503  0.80631860979E+00  0.34798780243E+02  0.22581630364E+03  0.46065671410E+03  0.40000000000E+03 0. -1.
<mgrwt>
<rscale>  2 0.40142983E+03</rscale>
<asrwt>0</asrwt>
<pdfrwt beam="1">  1       21 0.18915977E+00 0.40151165E+03</pdfrwt>
<pdfrwt beam="2">  1       21 0.25049113E-01 0.40151165E+03</pdfrwt>
<totfact> 0.20661929E+03</totfact>
</mgrwt>
</event>
<event>
 6    1  0.9163926E-004  0.4829927E+03  0.7818608E-02  0.1018406E+00
         21   -1    0    0  501  502  0.00000000000E+00  0.00000000000E+00  0.32921865666E+03  0.32921865666E+03  0.00000000000E+00 0. -1.
         21   -1    0    0  502  503 -0.00000000000E+00 -0.00000000000E+00 -0.13969276171E+04  0.13969276171E+04  0.00000000000E+00 0. -1.
    9000007    2    1    2  501    0 -0.18200514442E+03  0.19717246930E+03  0.72472497896E+02  0.48839968694E+03  0.40159573704E+03 0.  0.
    9000005    1    3    3    0    0 -0.15752343063E+03  0.14017954764E+03  0.23422554375E+03  0.31516113675E+03  0.99999687468E+00 0.  0.
          4    1    3    3  501    0 -0.24481713785E+02  0.56992921660E+02 -0.16175304586E+03  0.17323855019E+03  0.00000000000E+00 0.  1.
   -9000007    1    1    2    0  503  0.18200514442E+03 -0.19717246930E+03 -0.11401814583E+04  0.12377465868E+04  0.40000000000E+03 0. -1.
<mgrwt>
<rscale>  2 0.48266090E+03</rscale>
<asrwt>0</asrwt>
<pdfrwt beam="1">  1       21 0.50649023E-01 0.48299274E+03</pdfrwt>
<pdfrwt beam="2">  1       21 0.21491195E+00 0.48299274E+03</pdfrwt>
<totfact> 0.32065976E+02</totfact>
</mgrwt>
</event>
<event>
 6    1  0.9163926E-004  0.5813406E+03  0.7818608E-02  0.9944917E-01
         21   -1    0    0  501  502  0.00000000000E+00  0.00000000000E+00  0.19523375810E+03  0.19523375810E+03  0.00000000000E+00 0.  1.
         21   -1    0    0  502  503 -0.00000000000E+00 -0.00000000000E+00 -0.17313856738E+04  0.17313856738E+04  0.00000000000E+00 0. -1.
    9000007    2    1    2  501    0 -0.26793583091E+02  0.42099757478E+03 -0.75195689624E+03  0.95044389308E+03  0.39993445216E+03 0.  0.
    9000005    1    3    3    0    0  0.75779429631E+02  0.13658309637E+03 -0.58410606817E+03  0.60463076587E+03  0.99999687468E+00 0.  0.
          4    1    3    3  501    0 -0.10257301272E+03  0.28441447841E+03 -0.16785082807E+03  0.34581312721E+03  0.00000000000E+00 0.  1.
   -9000007    1    1    2    0  503  0.26793583091E+02 -0.42099757478E+03 -0.78419501951E+03  0.97617553887E+03  0.40000000000E+03 0.  1.
<mgrwt>
<rscale>  2 0.58132929E+03</rscale>
<asrwt>0</asrwt>
<pdfrwt beam="1">  1       21 0.30035964E-01 0.58134057E+03</pdfrwt>
<pdfrwt beam="2">  1       21 0.26636702E+00 0.58134057E+03</pdfrwt>
<totfact> 0.42890017E+02</totfact>
</mgrwt>
</event>
<event>
 6    1  0.9163926E-004  0.4190420E+03  0.7818608E-02  0.1037413E+00
         21   -1    0    0  501  502  0.00000000000E+00  0.00000000000E+00  0.15208914459E+04  0.15208914459E+04  0.00000000000E+00 0. -1.
         21   -1    0    0  502  503 -0.00000000000E+00 -0.00000000000E+00 -0.28492479598E+03  0.28492479598E+03  0.00000000000E+00 0. -1.
    9000007    2    1    2  501    0  0.99658042255E+02 -0.75262505832E+02  0.13144384954E+04  0.13794900748E+04  0.39955993079E+03 0.  0.
    9000005    1    3    3    0    0  0.21391283147E+03  0.72483561121E+02  0.83347014206E+03  0.86353114813E+03  0.99999687468E+00 0.  0.
          4    1    3    3  501    0 -0.11425478921E+03 -0.14774606695E+03  0.48096835331E+03  0.51595892670E+03  0.00000000000E+00 0.  1.
   -9000007    1    1    2    0  503 -0.99658042255E+02  0.75262505832E+02 -0.78471845451E+02  0.42632616703E+03  0.40000000000E+03 0. -1.
<mgrwt>
<rscale>  2 0.41893691E+03</rscale>
<asrwt>0</asrwt>
<pdfrwt beam="1">  1       21 0.23398329E+00 0.41904197E+03</pdfrwt>
<pdfrwt beam="2">  1       21 0.43834585E-01 0.41904197E+03</pdfrwt>
<totfact> 0.34040650E+02</totfact>
</mgrwt>
</event>
<event>
 6    1  0.9163926E-004  0.4341172E+03  0.7818608E-02  0.1032576E+00
         21   -1    0    0  501  502  0.00000000000E+00  0.00000000000E+00  0.30191315665E+03  0.30191315665E+03  0.00000000000E+00 0.  1.
         21   -1    0    0  502  503 -0.00000000000E+00 -0.00000000000E+00 -0.11179884834E+04  0.11179884834E+04  0.00000000000E+00 0.  1.
    9000007    2    1    2  501    0 -0.16829375290E+03  0.11616301731E+02  0.63883833227E+02  0.43868512524E+03  0.39988219419E+03 0.  0.
    9000005    1    3    3    0    0  0.32015397855E+02  0.16160434288E+03  0.88889679841E+02  0.18719862316E+03  0.99999687468E+00 0.  0.
          4    1    3    3  501    0 -0.20030915075E+03 -0.14998804115E+03 -0.25005846614E+02  0.25148650208E+03  0.00000000000E+00 0.  1.
   -9000007    1    1    2    0  503  0.16829375290E+03 -0.11616301731E+02 -0.87995915996E+03  0.98121651480E+03  0.40000000000E+03 0.  1.
<mgrwt>
<rscale>  2 0.43409004E+03</rscale>
<asrwt>0</asrwt>
<pdfrwt beam="1">  1       21 0.46448178E-01 0.43411718E+03</pdfrwt>
<pdfrwt beam="2">  1       21 0.17199823E+00 0.43411718E+03</pdfrwt>
<totfact> 0.77275538E+02</totfact>
</mgrwt>
</event>
<event>
 6    1  0.9163926E-004  0.4971125E+03  0.7818608E-02  0.1014620E+00
         21   -1    0    0  501  502  0.00000000000E+00  0.00000000000E+00  0.60358853855E+03  0.60358853855E+03  0.00000000000E+00 0.  1.
         21   -1    0    0  502  503 -0.00000000000E+00 -0.00000000000E+00 -0.56595951955E+03  0.56595951955E+03  0.00000000000E+00 0. -1.
    9000007    2    1    2  501    0 -0.21604275412E+03  0.19790423874E+03  0.32741740108E+03  0.59525034287E+03  0.40159713250E+03 0.  0.
    9000005    1    3    3    0    0  0.92641147645E+02 -0.40499053212E+02  0.10713784734E+03  0.14731623765E+03  0.99999687468E+00 0.  0.
          4    1    3    3  501    0 -0.30868390177E+03  0.23840329196E+03  0.22027955374E+03  0.44793410522E+03  0.00000000000E+00 0.  1.
   -9000007    1    1    2    0  503  0.21604275412E+03 -0.19790423874E+03 -0.28978838208E+03  0.57429771522E+03  0.40000000000E+03 0. -1.
<mgrwt>
<rscale>  2 0.49678982E+03</rscale>
<asrwt>0</asrwt>
<pdfrwt beam="1">  1       21 0.92859776E-01 0.49711248E+03</pdfrwt>
<pdfrwt beam="2">  1       21 0.87070695E-01 0.49711248E+03</pdfrwt>
<totfact> 0.92334652E+02</totfact>
</mgrwt>
</event>
<event>
 6    1  0.9163926E-004  0.4399010E+03  0.7818608E-02  0.1030782E+00
         21   -1    0    0  501  502  0.00000000000E+00  0.00000000000E+00  0.11472012654E+04  0.11472012654E+04  0.00000000000E+00 0.  1.
         21   -1    0    0  502  503 -0.00000000000E+00 -0.00000000000E+00 -0.32680819501E+03  0.32680819501E+03  0.00000000000E+00 0. -1.
    9000007    2    1    2  501    0  0.12523430233E+03  0.13331273541E+03  0.92290702270E+03  0.10223845870E+04  0.40007118775E+03 0.  0.
    9000005    1    3    3    0    0 -0.14328073423E+03  0.86406716876E+01  0.28359209267E+03  0.31785138827E+03  0.99999687468E+00 0.  0.
          4    1    3    3  501    0  0.26851503657E+03  0.12467206372E+03  0.63931493003E+03  0.70453319872E+03  0.00000000000E+00 0.  1.
   -9000007    1    1    2    0  503 -0.12523430233E+03 -0.13331273541E+03 -0.10251395229E+03  0.45162487345E+03  0.40000000000E+03 0. -1.
<mgrwt>
<rscale>  2 0.43988479E+03</rscale>
<asrwt>0</asrwt>
<pdfrwt beam="1">  1       21 0.17649250E+00 0.43990098E+03</pdfrwt>
<pdfrwt beam="2">  1       21 0.50278184E-01 0.43990098E+03</pdfrwt>
<totfact> 0.60510591E+02</totfact>
</mgrwt>
</event>
<event>
 6    1  0.9163926E-004  0.4620278E+03  0.7818608E-02  0.1024320E+00
         21   -1    0    0  501  502  0.00000000000E+00  0.00000000000E+00  0.41910891415E+03  0.41910891415E+03  0.00000000000E+00 0. -1.
         21   -1    0    0  502  503 -0.00000000000E+00 -0.00000000000E+00 -0.96159632846E+03  0.96159632846E+03  0.00000000000E+00 0. -1.
    9000007    2    1    2  501    0 -0.13552278317E+03 -0.18735862987E+03  0.20346114040E+03  0.50326069893E+03  0.39800152573E+03 0.  0.
    9000005    1    3    3    0    0  0.12740717820E+03 -0.30396665419E+02  0.13772315695E+03  0.19006634179E+03  0.99999687468E+00 0.  0.
          4    1    3    3  501    0 -0.26292996138E+03 -0.15696196445E+03  0.65737983448E+02  0.31319435714E+03  0.00000000000E+00 0.  1.
   -9000007    1    1    2    0  503  0.13552278317E+03  0.18735862987E+03 -0.74594855472E+03  0.87744454368E+03  0.40000000000E+03 0. -1.
<mgrwt>
<rscale>  2 0.46159491E+03</rscale>
<asrwt>0</asrwt>
<pdfrwt beam="1">  1       21 0.64478295E-01 0.46202779E+03</pdfrwt>
<pdfrwt beam="2">  1       21 0.14793789E+00 0.46202779E+03</pdfrwt>
<totfact> 0.57140292E+02</totfact>
</mgrwt>
</event>
<event>
 6    1  0.9163926E-004  0.4563747E+03  0.7818608E-02  0.1025848E+00
         21   -1    0    0  501  502  0.00000000000E+00  0.00000000000E+00  0.92884317808E+02  0.92884317808E+02  0.00000000000E+00 0.  1.
         21   -1    0    0  502  503 -0.00000000000E+00 -0.00000000000E+00 -0.25181922953E+04  0.25181922953E+04  0.00000000000E+00 0.  1.
    9000007    2    1    2  501    0 -0.20881233220E+03 -0.68376158067E+02 -0.77987157985E+03  0.90352315048E+03  0.39984561185E+03 0.  0.
    9000005    1    3    3    0    0 -0.12954890385E+03  0.14190158801E+03 -0.18137605790E+03  0.26422954706E+03  0.99999687468E+00 0.  0.
          4    1    3    3  501    0 -0.79263428349E+02 -0.21027774607E+03 -0.59849552196E+03  0.63929360342E+03  0.00000000000E+00 0.  1.
   -9000007    1    1    2    0  503  0.20881233220E+03  0.68376158067E+02 -0.16454363976E+04  0.17075534626E+04  0.40000000000E+03 0.  1.
<mgrwt>
<rscale>  2 0.45634089E+03</rscale>
<asrwt>0</asrwt>
<pdfrwt beam="1">  1       21 0.14289896E-01 0.45637472E+03</pdfrwt>
<pdfrwt beam="2">  1       21 0.38741417E+00 0.45637472E+03</pdfrwt>
<totfact> 0.34346027E+02</totfact>
</mgrwt>
</event>
<event>
 6    1  0.9163926E-004  0.4439421E+03  0.7818608E-02  0.1029569E+00
         21   -1    0    0  501  502  0.00000000000E+00  0.00000000000E+00  0.11724985954E+03  0.11724985954E+03  0.00000000000E+00 0. -1.
         21   -1    0    0  502  503 -0.00000000000E+00 -0.00000000000E+00 -0.22649986476E+04  0.22649986476E+04  0.00000000000E+00 0. -1.
    9000007    2    1    2  501    0 -0.13931722527E+03  0.13185013718E+03 -0.46864747401E+03  0.64553466464E+03  0.40036333551E+03 0.  0.
    9000005    1    3    3    0    0  0.74275106830E+02 -0.35287157880E+02 -0.33163215389E+03  0.34167654367E+03  0.99999687468E+00 0.  0.
          4    1    3    3  501    0 -0.21359233210E+03  0.16713729506E+03 -0.13701532013E+03  0.30385812097E+03  0.00000000000E+00 0.  1.
   -9000007    1    1    2    0  503  0.13931722527E+03 -0.13185013718E+03 -0.16791013140E+04  0.17367138425E+04  0.40000000000E+03 0.  1.
<mgrwt>
<rscale>  2 0.44386012E+03</rscale>
<asrwt>0</asrwt>
<pdfrwt beam="1">  1       21 0.18038441E-01 0.44394206E+03</pdfrwt>
<pdfrwt beam="2">  1       21 0.34846131E+00 0.44394206E+03</pdfrwt>
<totfact> 0.39181200E+02</totfact>
</mgrwt>
</event>
<event>
 6    1  0.9163926E-004  0.4278193E+03  0.7818608E-02  0.1034553E+00
         21   -1    0    0  501  502  0.00000000000E+00  0.00000000000E+00  0.12591884682E+04  0.12591884682E+04  0.00000000000E+00 0. -1.
         21   -1    0    0  502  503 -0.00000000000E+00 -0.00000000000E+00 -0.16267829080E+03  0.16267829080E+03  0.00000000000E+00 0. -1.
    9000007    2    1    2  501    0  0.14149078941E+03 -0.54627381276E+02  0.78033539410E+03  0.88991724270E+03  0.40003197036E+03 0.  0.
    9000005    1    3    3    0    0  0.19861341394E+03  0.61666019905E+02  0.71535115039E+03  0.74496862656E+03  0.99999687468E+00 0.  0.
          4    1    3    3  501    0 -0.57122624529E+02 -0.11629340118E+03  0.64984243710E+02  0.14494861614E+03  0.00000000000E+00 0.  1.
   -9000007    1    1    2    0  503 -0.14149078941E+03  0.54627381276E+02  0.31617478328E+03  0.53194951627E+03  0.40000000000E+03 0. -1.
<mgrwt>
<rscale>  2 0.42781185E+03</rscale>
<asrwt>0</asrwt>
<pdfrwt beam="1">  1       21 0.19372130E+00 0.42781932E+03</pdfrwt>
<pdfrwt beam="2">  1       21 0.25027430E-01 0.42781932E+03</pdfrwt>
<totfact> 0.19040165E+03</totfact>
</mgrwt>
</event>
<event>
 6    1  0.9163926E-004  0.4430094E+03  0.7818608E-02  0.1029839E+00
         21   -1    0    0  501  502  0.00000000000E+00  0.00000000000E+00  0.14652847367E+03  0.14652847367E+03  0.00000000000E+00 0.  1.
         21   -1    0    0  502  503 -0.00000000000E+00 -0.00000000000E+00 -0.15492823437E+04  0.15492823437E+04  0.00000000000E+00 0. -1.
    9000007    2    1    2  501    0 -0.14337618489E+03 -0.12530208071E+03 -0.38881601225E+03  0.58931756332E+03  0.39982490821E+03 0.  0.
    9000005    1    3    3    0    0 -0.15253926259E+03  0.11386212979E+03 -0.10268090895E+03  0.21628032802E+03  0.99999687468E+00 0.  0.
          4    1    3    3  501    0  0.91630776947E+01 -0.23916421050E+03 -0.28613510330E+03  0.37303723529E+03  0.00000000000E+00 0.  1.
   -9000007    1    1    2    0  503  0.14337618489E+03  0.12530208071E+03 -0.10139378578E+04  0.11064932541E+04  0.40000000000E+03 0. -1.
<mgrwt>
<rscale>  2 0.44296989E+03</rscale>
<asrwt>0</asrwt>
<pdfrwt beam="1">  1       21 0.22542841E-01 0.44300942E+03</pdfrwt>
<pdfrwt beam="2">  1       21 0.23835114E+00 0.44300942E+03</pdfrwt>
<totfact> 0.11925317E+03</totfact>
</mgrwt>
</event>
<event>
 6    1  0.9163926E-004  0.4322385E+03  0.7818608E-02  0.1033260E+00
         21   -1    0    0  501  502  0.00000000000E+00  0.00000000000E+00  0.83780893709E+03  0.83780893709E+03  0.00000000000E+00 0. -1.
         21   -1    0    0  502  503 -0.00000000000E+00 -0.00000000000E+00 -0.23778602852E+03  0.23778602852E+03  0.00000000000E+00 0. -1.
    9000007    2    1    2  501    0  0.11382329027E+03  0.11280480236E+03  0.43763571859E+03  0.61510580797E+03  0.40143426356E+03 0.  0.
    9000005    1    3    3    0    0  0.66357348089E+02  0.21772684400E+03  0.44487110186E+03  0.49971949483E+03  0.99999687468E+00 0.  0.
          4    1    3    3  501    0  0.47465942182E+02 -0.10492204164E+03 -0.72353832669E+01  0.11538631314E+03  0.00000000000E+00 0.  1.
   -9000007    1    1    2    0  503 -0.11382329027E+03 -0.11280480236E+03  0.16238718998E+03  0.46048915765E+03  0.40000000000E+03 0. -1.
<mgrwt>
<rscale>  2 0.43190520E+03</rscale>
<asrwt>0</asrwt>
<pdfrwt beam="1">  1       21 0.12889368E+00 0.43223851E+03</pdfrwt>
<pdfrwt beam="2">  1       21 0.36582466E-01 0.43223851E+03</pdfrwt>
<totfact> 0.27710282E+03</totfact>
</mgrwt>
</event>
<event>
 6    1  0.9163926E-004  0.4738124E+03  0.7818608E-02  0.1020889E+00
         21   -1    0    0  501  502  0.00000000000E+00  0.00000000000E+00  0.95659732840E+03  0.95659732840E+03  0.00000000000E+00 0.  1.
         21   -1    0    0  502  503 -0.00000000000E+00 -0.00000000000E+00 -0.24186501329E+03  0.24186501329E+03  0.00000000000E+00 0.  1.
    9000007    2    1    2  501    0  0.24044156427E+03  0.81768017341E+02  0.25191809773E+03  0.53612167835E+03  0.39933140566E+03 0.  0.
    9000005    1    3    3    0    0  0.21620664996E+02  0.34963222642E+02  0.30367265451E+03  0.30644405882E+03  0.99999687468E+00 0.  0.
          4    1    3    3  501    0  0.21882089928E+03  0.46804794700E+02 -0.51754556786E+02  0.22967761954E+03  0.00000000000E+00 0.  1.
   -9000007    1    1    2    0  503 -0.24044156427E+03 -0.81768017341E+02  0.46281421738E+03  0.66234066333E+03  0.40000000000E+03 0.  1.
<mgrwt>
<rscale>  2 0.47367122E+03</rscale>
<asrwt>0</asrwt>
<pdfrwt beam="1">  1       21 0.14716882E+00 0.47381236E+03</pdfrwt>
<pdfrwt beam="2">  1       21 0.37210003E-01 0.47381236E+03</pdfrwt>
<totfact> 0.18554012E+03</totfact>
</mgrwt>
</event>
<event>
 6    1  0.9163926E-004  0.4497305E+03  0.7818608E-02  0.1028734E+00
         21   -1    0    0  501  502  0.00000000000E+00  0.00000000000E+00  0.57802961518E+03  0.57802961518E+03  0.00000000000E+00 0.  1.
         21   -1    0    0  502  503 -0.00000000000E+00 -0.00000000000E+00 -0.34203682729E+03  0.34203682729E+03  0.00000000000E+00 0.  1.
    9000007    2    1    2  501    0 -0.67728712957E+02 -0.16357829370E+03  0.87840559871E+02  0.45822867941E+03  0.41341567694E+03 0.  0.
    9000005    1    3    3    0    0  0.15517334113E+03  0.25605313112E+02  0.26280596696E+02  0.15945553491E+03  0.99999687468E+00 0.  0.
          4    1    3    3  501    0 -0.22290205409E+03 -0.18918360681E+03  0.61559963175E+02  0.29877314449E+03  0.00000000000E+00 0.  1.
   -9000007    1    1    2    0  503  0.67728712957E+02  0.16357829370E+03  0.14815222801E+03  0.46183776307E+03  0.40000000000E+03 0.  1.
<mgrwt>
<rscale>  2 0.44662336E+03</rscale>
<asrwt>0</asrwt>
<pdfrwt beam="1">  1       21 0.88927633E-01 0.44973054E+03</pdfrwt>
<pdfrwt beam="2">  1       21 0.52621050E-01 0.44973054E+03</pdfrwt>
<totfact> 0.32234741E+03</totfact>
</mgrwt>
</event>
<event>
 6    1  0.9163926E-004  0.4287848E+03  0.7818608E-02  0.1034320E+00
         21   -1    0    0  501  502  0.00000000000E+00  0.00000000000E+00  0.30788302291E+03  0.30788302291E+03  0.00000000000E+00 0. -1.
         21   -1    0    0  502  503 -0.00000000000E+00 -0.00000000000E+00 -0.60535213775E+03  0.60535213775E+03  0.00000000000E+00 0. -1.
    9000007    2    1    2  501    0 -0.33793405920E+02  0.15071287632E+03 -0.91347417221E+02  0.43748047639E+03  0.39898427440E+03 0.  0.
    9000005    1    3    3    0    0 -0.17271832622E+03  0.41395446184E+02 -0.16829449009E+03  0.24468191303E+03  0.99999687468E+00 0.  0.
          4    1    3    3  501    0  0.13892492030E+03  0.10931743014E+03  0.76947072864E+02  0.19279856336E+03  0.00000000000E+00 0.  1.
   -9000007    1    1    2    0  503  0.33793405920E+02 -0.15071287632E+03 -0.20612169762E+03  0.47575468427E+03  0.40000000000E+03 0. -1.
<mgrwt>
<rscale>  2 0.42854771E+03</rscale>
<asrwt>0</asrwt>
<pdfrwt beam="1">  1       21 0.47366619E-01 0.42878475E+03</pdfrwt>
<pdfrwt beam="2">  1       21 0.93131097E-01 0.42878475E+03</pdfrwt>
<totfact> 0.36400057E+03</totfact>
</mgrwt>
</event>
<event>
 6    1  0.9163926E-004  0.4005320E+03  0.7818608E-02  0.1043683E+00
         21   -1    0    0  501  502  0.00000000000E+00  0.00000000000E+00  0.11344568256E+04  0.11344568256E+04  0.00000000000E+00 0. -1.
         21   -1    0    0  502  503 -0.00000000000E+00 -0.00000000000E+00 -0.18336505584E+03  0.18336505584E+03  0.00000000000E+00 0. -1.
    9000007    2    1    2  501    0 -0.15577310112E+02 -0.13536183049E+02  0.15857246994E+03  0.42983949343E+03  0.39898731941E+03 0.  0.
    9000005    1    3    3    0    0 -0.85989025997E+01 -0.12775827500E+03  0.25163353483E+03  0.28234120103E+03  0.99999687468E+00 0.  0.
          4    1    3    3  501    0 -0.69784075122E+01  0.11422209195E+03 -0.93061064890E+02  0.14749829240E+03  0.00000000000E+00 0.  1.
   -9000007    1    1    2    0  503  0.15577310112E+02  0.13536183049E+02  0.79251929984E+03  0.88798238803E+03  0.40000000000E+03 0.  1.
<mgrwt>
<rscale>  2 0.40027892E+03</rscale>
<asrwt>0</asrwt>
<pdfrwt beam="1">  1       21 0.17453181E+00 0.40053200E+03</pdfrwt>
<pdfrwt beam="2">  1       21 0.28210009E-01 0.40053200E+03</pdfrwt>
<totfact> 0.20730565E+03</totfact>
</mgrwt>
</event>
<event>
 6    1  0.9163926E-004  0.5410063E+03  0.7818608E-02  0.1003619E+00
         21   -1    0    0  501  502  0.00000000000E+00  0.00000000000E+00  0.10191627324E+04  0.10191627324E+04  0.00000000000E+00 0. -1.
         21   -1    0    0  502  503 -0.00000000000E+00 -0.00000000000E+00 -0.28713538796E+03  0.28713538796E+03  0.00000000000E+00 0.  1.
    9000007    2    1    2  501    0 -0.28606417038E+03  0.22462254399E+03  0.38091782144E+03  0.66165411472E+03  0.40049941822E+03 0.  0.
    9000005    1    3    3    0    0 -0.32911073664E+03  0.24155720515E+03  0.43087890860E+03  0.59356667208E+03  0.99999687468E+00 0.  0.
          4    1    3    3  501    0  0.43046566258E+02 -0.16934661158E+02 -0.49961087163E+02  0.68087442642E+02  0.00000000000E+00 0.  1.
   -9000007    1    1    2    0  503  0.28606417038E+03 -0.22462254399E+03  0.35110952297E+03  0.64464400561E+03  0.40000000000E+03 0.  1.
<mgrwt>
<rscale>  2 0.54091384E+03</rscale>
<asrwt>0</asrwt>
<pdfrwt beam="1">  1       21 0.15679426E+00 0.54100627E+03</pdfrwt>
<pdfrwt beam="2">  1       21 0.44174676E-01 0.54100627E+03</pdfrwt>
<totfact> 0.10672698E+03</totfact>
</mgrwt>
</event>
<event>
 6    1  0.9163926E-004  0.6204223E+03  0.7818608E-02  0.9863929E-01
         21   -1    0    0  501  502  0.00000000000E+00  0.00000000000E+00  0.10266535395E+04  0.10266535395E+04  0.00000000000E+00 0.  1.
         21   -1    0    0  502  503 -0.00000000000E+00 -0.00000000000E+00 -0.56789837020E+03  0.56789837020E+03  0.00000000000E+00 0. -1.
    9000007    2    1    2  501    0  0.40062266989E+03 -0.25377428778E+03  0.69414007882E+03  0.93099635941E+03  0.40002982320E+03 0.  0.
    9000005    1    3    3    0    0  0.23503115845E+03 -0.12090478134E+03  0.72455563547E+02  0.27405915470E+03  0.99999687468E+00 0.  0.
          4    1    3    3  501    0  0.16559151144E+03 -0.13286950644E+03  0.62168451527E+03  0.65693720471E+03  0.00000000000E+00 0.  1.
   -9000007    1    1    2    0  503 -0.40062266989E+03  0.25377428778E+03 -0.23538490947E+03  0.66355555033E+03  0.40000000000E+03 0. -1.
<mgrwt>
<rscale>  2 0.62041745E+03</rscale>
<asrwt>0</asrwt>
<pdfrwt beam="1">  1       21 0.15794670E+00 0.62042225E+03</pdfrwt>
<pdfrwt beam="2">  1       21 0.87368980E-01 0.62042225E+03</pdfrwt>
<totfact> 0.22329924E+02</totfact>
</mgrwt>
</event>
<event>
 6    1  0.9163926E-004  0.5053101E+03  0.7818608E-02  0.1012403E+00
         21   -1    0    0  501  502  0.00000000000E+00  0.00000000000E+00  0.11603844422E+04  0.11603844422E+04  0.00000000000E+00 0.  1.
         21   -1    0    0  502  503 -0.00000000000E+00 -0.00000000000E+00 -0.29810379918E+03  0.29810379918E+03  0.00000000000E+00 0. -1.
    9000007    2    1    2  501    0 -0.41243491426E+02 -0.30600214273E+03  0.80430932291E+03  0.94986361467E+03  0.39998632804E+03 0.  0.
    9000005    1    3    3    0    0  0.13571617616E+03 -0.23472628624E+03  0.27053520984E+03  0.38302168305E+03  0.99999687468E+00 0.  0.
          4    1    3    3  501    0 -0.17695966759E+03 -0.71275856487E+02  0.53377411306E+03  0.56684193162E+03  0.00000000000E+00 0.  1.
   -9000007    1    1    2    0  503  0.41243491426E+02  0.30600214273E+03  0.57971320100E+02  0.50862462671E+03  0.40000000000E+03 0. -1.
<mgrwt>
<rscale>  2 0.50530743E+03</rscale>
<asrwt>0</asrwt>
<pdfrwt beam="1">  1       21 0.17852068E+00 0.50531014E+03</pdfrwt>
<pdfrwt beam="2">  1       21 0.45862124E-01 0.50531014E+03</pdfrwt>
<totfact> 0.69069986E+02</totfact>
</mgrwt>
</event>
<event>
 6    1  0.9163926E-004  0.6654818E+03  0.7818608E-02  0.9780158E-01
         21   -1    0    0  501  502  0.00000000000E+00  0.00000000000E+00  0.52675236895E+03  0.52675236895E+03  0.00000000000E+00 0. -1.
         21   -1    0    0  502  503 -0.00000000000E+00 -0.00000000000E+00 -0.15335850051E+04  0.15335850051E+04  0.00000000000E+00 0.  1.
    9000007    2    1    2  501    0 -0.47512165983E+03 -0.23900939248E+03  0.19266441131E+03  0.68860152185E+03  0.39266576013E+03 0.  0.
    9000005    1    3    3    0    0 -0.92040866332E+02 -0.20314276902E+01  0.21880766629E+03  0.23738880048E+03  0.99999687468E+00 0.  0.
          4    1    3    3  501    0 -0.38308079350E+03 -0.23697796479E+03 -0.26143254980E+02  0.45121272137E+03  0.00000000000E+00 0.  1.
   -9000007    1    1    2    0  503  0.47512165983E+03  0.23900939248E+03 -0.11994970475E+04  0.13717358522E+04  0.40000000000E+03 0.  1.
<mgrwt>
<rscale>  2 0.66438353E+03</rscale>
<asrwt>0</asrwt>
<pdfrwt beam="1">  1       21 0.81038826E-01 0.66548184E+03</pdfrwt>
<pdfrwt beam="2">  1       21 0.23593615E+00 0.66548184E+03</pdfrwt>
<totfact> 0.76123093E+01</totfact>
</mgrwt>
</event>
<event>
 6    1  0.9163926E-004  0.5633586E+03  0.7818608E-02  0.9984589E-01
         21   -1    0    0  501  502  0.00000000000E+00  0.00000000000E+00  0.63254435696E+03  0.63254435696E+03  0.00000000000E+00 0.  1.
         21   -1    0    0  502  503 -0.00000000000E+00 -0.00000000000E+00 -0.77787509877E+03  0.77787509877E+03  0.00000000000E+00 0. -1.
    9000007    2    1    2  501    0 -0.37671231854E+03 -0.12348475691E+03  0.34762341794E+03  0.66197810215E+03  0.40026530065E+03 0.  0.
    9000005    1    3    3    0    0 -0.21697931929E+03 -0.18653277496E+03  0.13677447064E+02  0.28646565883E+03  0.99999687468E+00 0.  0.
          4    1    3    3  501    0 -0.15973299925E+03  0.63048018053E+02  0.33394597087E+03  0.37551244333E+03  0.00000000000E+00 0.  1.
   -9000007    1    1    2    0  503  0.37671231854E+03  0.12348475691E+03 -0.49295415975E+03  0.74844135358E+03  0.40000000000E+03 0. -1.
<mgrwt>
<rscale>  2 0.56331153E+03</rscale>
<asrwt>0</asrwt>
<pdfrwt beam="1">  1       21 0.97314516E-01 0.56335865E+03</pdfrwt>
<pdfrwt beam="2">  1       21 0.11967309E+00 0.56335865E+03</pdfrwt>
<totfact> 0.36918720E+02</totfact>
</mgrwt>
</event>
<event>
 6    1  0.9163926E-004  0.4264035E+03  0.7818608E-02  0.1035153E+00
         21   -1    0    0  501  502  0.00000000000E+00  0.00000000000E+00  0.49735204492E+03  0.49735204492E+03  0.00000000000E+00 0.  1.
         21   -1    0    0  502  503 -0.00000000000E+00 -0.00000000000E+00 -0.63025445009E+03  0.63025445009E+03  0.00000000000E+00 0.  1.
    9000007    2    1    2  501    0 -0.14704110836E+01 -0.14770841541E+03  0.30011416338E+03  0.51988675144E+03  0.39798716709E+03 0.  0.
    9000005    1    3    3    0    0 -0.12080189281E+03  0.58283597981E+02  0.23906614478E+03  0.27412350625E+03  0.99999687468E+00 0.  0.
          4    1    3    3  501    0  0.11933148173E+03 -0.20599201339E+03  0.61048018598E+02  0.24576324519E+03  0.00000000000E+00 0.  1.
   -9000007    1    1    2    0  503  0.14704110836E+01  0.14770841541E+03 -0.43301656855E+03  0.60771974357E+03  0.40000000000E+03 0.  1.
<mgrwt>
<rscale>  2 0.42593080E+03</rscale>
<asrwt>0</asrwt>
<pdfrwt beam="1">  1       21 0.76515700E-01 0.42640349E+03</pdfrwt>
<pdfrwt beam="2">  1       21 0.96962222E-01 0.42640349E+03</pdfrwt>
<totfact> 0.11560248E+03</totfact>
</mgrwt>
</event>
<event>
 6    1  0.9163926E-004  0.5715660E+03  0.7818608E-02  0.9966773E-01
         21   -1    0    0  501  502  0.00000000000E+00  0.00000000000E+00  0.23304263933E+03  0.23304263933E+03  0.00000000000E+00 0.  1.
         21   -1    0    0  502  503 -0.00000000000E+00 -0.00000000000E+00 -0.23985319424E+04  0.23985319424E+04  0.00000000000E+00 0.  1.
    9000007    2    1    2  501    0  0.16281397960E+01  0.40827078430E+03 -0.23295163011E+03  0.61628563432E+03  0.39856472114E+03 0.  0.
    9000005    1    3    3    0    0 -0.10177398369E+03  0.62146606188E+02 -0.22535908745E+03  0.25496639525E+03  0.99999687468E+00 0.  0.
          4    1    3    3  501    0  0.10340212348E+03  0.34612417811E+03 -0.75925426597E+01  0.36131923907E+03  0.00000000000E+00 0.  1.
   -9000007    1    1    2    0  503 -0.16281397960E+01 -0.40827078430E+03 -0.19325376730E+04  0.20152889474E+04  0.40000000000E+03 0.  1.
<mgrwt>
<rscale>  2 0.57131494E+03</rscale>
<asrwt>0</asrwt>
<pdfrwt beam="1">  1       21 0.35852712E-01 0.57156599E+03</pdfrwt>
<pdfrwt beam="2">  1       21 0.36900493E+00 0.57156599E+03</pdfrwt>
<totfact> 0.70723578E+01</totfact>
</mgrwt>
</event>
<event>
 6    1  0.9163926E-004  0.4675082E+03  0.7818608E-02  0.1022685E+00
         21   -1    0    0  501  502  0.00000000000E+00  0.00000000000E+00  0.17848699681E+04  0.17848699681E+04  0.00000000000E+00 0. -1.
         21   -1    0    0  502  503 -0.00000000000E+00 -0.00000000000E+00 -0.12443621520E+03  0.12443621520E+03  0.00000000000E+00 0.  1.
    9000007    2    1    2  501    0  0.18995076289E+03  0.14994207697E+03  0.95639430531E+03  0.10641816584E+04  0.39903460517E+03 0.  0.
    9000005    1    3    3    0    0  0.24773978537E+03  0.24477510415E+03  0.79849417922E+03  0.87113937295E+03  0.99999687468E+00 0.  0.
          4    1    3    3  501    0 -0.57789022475E+02 -0.94833027171E+02  0.15790012609E+03  0.19304228547E+03  0.00000000000E+00 0.  1.
   -9000007    1    1    2    0  503 -0.18995076289E+03 -0.14994207697E+03  0.70403944758E+03  0.84512452486E+03  0.40000000000E+03 0.  1.
<mgrwt>
<rscale>  2 0.46730163E+03</rscale>
<asrwt>0</asrwt>
<pdfrwt beam="1">  1       21 0.27459536E+00 0.46750820E+03</pdfrwt>
<pdfrwt beam="2">  1       21 0.19144034E-01 0.46750820E+03</pdfrwt>
<totfact> 0.96625524E+02</totfact>
</mgrwt>
</event>
<event>
 6    1  0.9163926E-004  0.4713939E+03  0.7818608E-02  0.1021534E+00
         21   -1    0    0  501  502  0.00000000000E+00  0.00000000000E+00  0.47355179910E+03  0.47355179910E+03  0.00000000000E+00 0. -1.
         21   -1    0    0  502  503 -0.00000000000E+00 -0.00000000000E+00 -0.47397184759E+03  0.47397184759E+03  0.00000000000E+00 0. -1.
    9000007    2    1    2  501    0  0.22614523959E+03  0.10521654982E+03  0.47545304755E+02  0.47369575931E+03  0.39989364165E+03 0.  0.
    9000005    1    3    3    0    0  0.21536164309E+03  0.23677940512E+03 -0.28526806560E+02  0.32134078903E+03  0.99999687468E+00 0.  0.
          4    1    3    3  501    0  0.10783596500E+02 -0.13156285530E+03  0.76072111315E+02  0.15235497028E+03  0.00000000000E+00 0.  1.
   -9000007    1    1    2    0  503 -0.22614523959E+03 -0.10521654982E+03 -0.47965353251E+02  0.47382788738E+03  0.40000000000E+03 0. -1.
<mgrwt>
<rscale>  2 0.47137132E+03</rscale>
<asrwt>0</asrwt>
<pdfrwt beam="1">  1       21 0.72854123E-01 0.47139388E+03</pdfrwt>
<pdfrwt beam="2">  1       21 0.72918746E-01 0.47139388E+03</pdfrwt>
<totfact> 0.24717958E+03</totfact>
</mgrwt>
</event>
<event>
 6    1  0.9163926E-004  0.4131141E+03  0.7818608E-02  0.1039363E+00
         21   -1    0    0  501  502  0.00000000000E+00  0.00000000000E+00  0.90620933127E+03  0.90620933127E+03  0.00000000000E+00 0.  1.
         21   -1    0    0  502  503 -0.00000000000E+00 -0.00000000000E+00 -0.18817372464E+03  0.18817372464E+03  0.00000000000E+00 0.  1.
    9000007    2    1    2  501    0  0.81332060820E+02  0.61040509328E+02  0.36551304144E+03  0.55160040431E+03  0.40040276557E+03 0.  0.
    9000005    1    3    3    0    0 -0.67718056816E+02 -0.93210114705E+02 -0.13597065526E+02  0.11601612339E+03  0.99999687468E+00 0.  0.
          4    1    3    3  501    0  0.14905011764E+03  0.15425062403E+03  0.37911010696E+03  0.43558428092E+03  0.00000000000E+00 0.  1.
   -9000007    1    1    2    0  503 -0.81332060820E+02 -0.61040509328E+02  0.35252256520E+03  0.54278265159E+03  0.40000000000E+03 0.  1.
<mgrwt>
<rscale>  2 0.41301643E+03</rscale>
<asrwt>0</asrwt>
<pdfrwt beam="1">  1       21 0.13941682E+00 0.41311406E+03</pdfrwt>
<pdfrwt beam="2">  1       21 0.28949805E-01 0.41311406E+03</pdfrwt>
<totfact> 0.36343917E+03</totfact>
</mgrwt>
</event>
<event>
 6    1  0.9163926E-004  0.5115273E+03  0.7818608E-02  0.1010837E+00
         21   -1    0    0  501  502  0.00000000000E+00  0.00000000000E+00  0.13551890402E+04  0.13551890402E+04  0.00000000000E+00 0. -1.
         21   -1    0    0  502  503 -0.00000000000E+00 -0.00000000000E+00 -0.19317962501E+03  0.19317962501E+03  0.00000000000E+00 0.  1.
    9000007    2    1    2  501    0  0.24871166225E+03 -0.19852205562E+03  0.60873410988E+03  0.79512098951E+03  0.40048929313E+03 0.  0.
    9000005    1    3    3    0    0 -0.38425116782E+02 -0.42005618736E+02  0.40681936366E+03  0.41078456184E+03  0.99999687468E+00 0.  0.
          4    1    3    3  501    0  0.28713677903E+03 -0.15651643689E+03  0.20191474622E+03  0.38433642767E+03  0.00000000000E+00 0.  1.
   -9000007    1    1    2    0  503 -0.24871166225E+03  0.19852205562E+03  0.55327530534E+03  0.75324767574E+03  0.40000000000E+03 0. -1.
<mgrwt>
<rscale>  2 0.51143152E+03</rscale>
<asrwt>0</asrwt>
<pdfrwt beam="1">  1       21 0.20849062E+00 0.51152729E+03</pdfrwt>
<pdfrwt beam="2">  1       21 0.29719943E-01 0.51152729E+03</pdfrwt>
<totfact> 0.10446722E+03</totfact>
</mgrwt>
</event>
<event>
 6    1  0.9163926E-004  0.5929307E+03  0.7818608E-02  0.9921993E-01
         21   -1    0    0  501  502  0.00000000000E+00  0.00000000000E+00  0.85805806052E+03  0.85805806052E+03  0.00000000000E+00 0. -1.
         21   -1    0    0  502  503 -0.00000000000E+00 -0.00000000000E+00 -0.59526956002E+03  0.59526956002E+03  0.00000000000E+00 0. -1.
    9000007    2    1    2  501    0  0.25487313927E+03  0.35581804122E+03  0.53940893095E+03  0.79904506833E+03  0.39489774733E+03 0.  0.
    9000005    1    3    3    0    0  0.31384717656E+03  0.38829097687E+03  0.53470105369E+03  0.73155734550E+03  0.99999687468E+00 0.  0.
          4    1    3    3  501    0 -0.58974037287E+02 -0.32472935648E+02  0.47078772687E+01  0.67487722824E+02  0.00000000000E+00 0.  1.
   -9000007    1    1    2    0  503 -0.25487313927E+03 -0.35581804122E+03 -0.27662043046E+03  0.65428255221E+03  0.40000000000E+03 0. -1.
<mgrwt>
<rscale>  2 0.59207131E+03</rscale>
<asrwt>0</asrwt>
<pdfrwt beam="1">  1       21 0.13200893E+00 0.59293068E+03</pdfrwt>
<pdfrwt beam="2">  1       21 0.91579932E-01 0.59293068E+03</pdfrwt>
<totfact> 0.32777150E+02</totfact>
</mgrwt>
</event>
<event>
 6    1  0.9163926E-004  0.5210371E+03  0.7818608E-02  0.1008430E+00
         21   -1    0    0  501  502  0.00000000000E+00  0.00000000000E+00  0.12146513972E+04  0.12146513972E+04  0.00000000000E+00 0. -1.
         21   -1    0    0  502  503 -0.00000000000E+00 -0.00000000000E+00 -0.47946404588E+03  0.47946404588E+03  0.00000000000E+00 0.  1.
    9000007    2    1    2  501    0  0.14493184511E+03  0.30078960498E+03  0.98649958288E+03  0.11156368662E+04  0.39998070447E+03 0.  0.
    9000005    1    3    3    0    0 -0.78602422672E+02  0.13488522706E+03  0.69598706532E+03  0.71328210437E+03  0.99999687468E+00 0.  0.
          4    1    3    3  501    0  0.22353426778E+03  0.16590437793E+03  0.29051251755E+03  0.40235476180E+03  0.00000000000E+00 0.  1.
   -9000007    1    1    2    0  503 -0.14493184511E+03 -0.30078960498E+03 -0.25131223157E+03  0.57847857690E+03  0.40000000000E+03 0.  1.
<mgrwt>
<rscale>  2 0.52103336E+03</rscale>
<asrwt>0</asrwt>
<pdfrwt beam="1">  1       21 0.18686944E+00 0.52103707E+03</pdfrwt>
<pdfrwt beam="2">  1       21 0.73763700E-01 0.52103707E+03</pdfrwt>
<totfact> 0.21185783E+02</totfact>
</mgrwt>
</event>
<event>
 6    1  0.9163926E-004  0.7159724E+03  0.7818608E-02  0.9690445E-01
         21   -1    0    0  501  502  0.00000000000E+00  0.00000000000E+00  0.32674843485E+03  0.32674843485E+03  0.00000000000E+00 0.  1.
         21   -1    0    0  502  503 -0.00000000000E+00 -0.00000000000E+00 -0.17758041994E+04  0.17758041994E+04  0.00000000000E+00 0. -1.
    9000007    2    1    2  501    0  0.19827029854E+03 -0.55973687874E+03 -0.10839260298E+04  0.12988510678E+04  0.39937698170E+03 0.  0.
    9000005    1    3    3    0    0 -0.40888395090E+02 -0.39428491209E+03 -0.79794783142E+03  0.89098495746E+03  0.99999687468E+00 0.  0.
          4    1    3    3  501    0  0.23915869363E+03 -0.16545196666E+03 -0.28597819838E+03  0.40786611034E+03  0.00000000000E+00 0.  1.
   -9000007    1    1    2    0  503 -0.19827029854E+03  0.55973687874E+03 -0.36512973473E+03  0.80370156644E+03  0.40000000000E+03 0.  1.
<mgrwt>
<rscale>  2 0.71588542E+03</rscale>
<asrwt>0</asrwt>
<pdfrwt beam="1">  1       21 0.50268991E-01 0.71597240E+03</pdfrwt>
<pdfrwt beam="2">  1       21 0.27320064E+00 0.71597240E+03</pdfrwt>
<totfact> 0.12725506E+02</totfact>
</mgrwt>
</event>
<event>
 6    1  0.9163926E-004  0.4039030E+03  0.7818608E-02  0.1042477E+00
         21   -1    0    0  501  502  0.00000000000E+00  0.00000000000E+00  0.21206393329E+03  0.21206393329E+03  0.00000000000E+00 0. -1.
         21   -1    0    0  502  503 -0.00000000000E+00 -0.00000000000E+00 -0.21420521557E+04  0.21420521557E+04  0.00000000000E+00 0. -1.
    9000007    2    1    2  501    0  0.52101775323E+02  0.67134066689E+01 -0.22606207024E+02  0.40453515519E+03  0.40047220424E+03 0.  0.
    9000005    1    3    3    0    0 -0.11950668585E+03  0.88082530720E+02  0.99522514105E+02  0.17873475037E+03  0.99999687468E+00 0.  0.
          4    1    3    3  501    0  0.17160846118E+03 -0.81369124051E+02 -0.12212872113E+03  0.22580040483E+03  0.00000000000E+00 0.  1.
   -9000007    1    1    2    0  503 -0.52101775323E+02 -0.67134066689E+01 -0.19073820154E+04  0.19495809338E+04  0.40000000000E+03 0. -1.
<mgrwt>
<rscale>  2 0.40378592E+03</rscale>
<asrwt>0</asrwt>
<pdfrwt beam="1">  1       21 0.32625220E-01 0.40390302E+03</pdfrwt>
<pdfrwt beam="2">  1       21 0.32954649E+00 0.40390302E+03</pdfrwt>
<totfact> 0.16613239E+02</totfact>
</mgrwt>
</event>
<event>
 6    1  0.9163926E-004  0.9233689E+03  0.7818608E-02  0.9396883E-01
         21   -1    0    0  501  502  0.00000000000E+00  0.00000000000E+00  0.14090042837E+04  0.14090042837E+04  0.00000000000E+00 0. -1.
         21   -1    0    0  502  503 -0.00000000000E+00 -0.00000000000E+00 -0.12595381093E+04  0.12595381093E+04  0.00000000000E+00 0.  1.
    9000007    2    1    2  501    0  0.17851458242E+03  0.81286083754E+03  0.10365739401E+04  0.13880852929E+04  0.39960611833E+03 0.  0.
    9000005    1    3    3    0    0  0.29859099558E+03  0.63080237106E+03  0.85948337979E+03  0.11071498969E+04  0.99999687468E+00 0.  0.
          4    1    3    3  501    0 -0.12007641317E+03  0.18205846648E+03  0.17709056031E+03  0.28093539607E+03  0.00000000000E+00 0.  1.
   -9000007    1    1    2    0  503 -0.17851458242E+03 -0.81286083754E+03 -0.88710776563E+03  0.12804571001E+04  0.40000000000E+03 0.  1.
<mgrwt>
<rscale>  2 0.92332630E+03</rscale>
<asrwt>0</asrwt>
<pdfrwt beam="1">  1       21 0.21676989E+00 0.92336894E+03</pdfrwt>
<pdfrwt beam="2">  1       21 0.19377509E+00 0.92336894E+03</pdfrwt>
<totfact> 0.91904501E+00</totfact>
</mgrwt>
</event>
<event>
 6    1  0.9163926E-004  0.7055662E+03  0.7818608E-02  0.9707805E-01
         21   -1    0    0  501  502  0.00000000000E+00  0.00000000000E+00  0.40199977787E+03  0.40199977787E+03  0.00000000000E+00 0.  1.
         21   -1    0    0  502  503 -0.00000000000E+00 -0.00000000000E+00 -0.12641083937E+04  0.12641083937E+04  0.00000000000E+00 0. -1.
    9000007    2    1    2  501    0  0.56985916704E+03 -0.11373718039E+03 -0.55038470228E+03  0.89484465320E+03  0.40018497773E+03 0.  0.
    9000005    1    3    3    0    0  0.68606527749E+02 -0.90391198354E+02 -0.32595796853E+03  0.34514782576E+03  0.99999687468E+00 0.  0.
          4    1    3    3  501    0  0.50125263929E+03 -0.23345982035E+02 -0.22442673375E+03  0.54969682744E+03  0.00000000000E+00 0.  1.
   -9000007    1    1    2    0  503 -0.56985916704E+03  0.11373718039E+03 -0.31172391352E+03  0.77126351834E+03  0.40000000000E+03 0.  1.
<mgrwt>
<rscale>  2 0.70553995E+03</rscale>
<asrwt>0</asrwt>
<pdfrwt beam="1">  1       21 0.61846121E-01 0.70556618E+03</pdfrwt>
<pdfrwt beam="2">  1       21 0.19447821E+00 0.70556618E+03</pdfrwt>
<totfact> 0.26046214E+02</totfact>
</mgrwt>
</event>
<event>
 6    1  0.9163926E-004  0.4085196E+03  0.7818608E-02  0.1040905E+00
         21   -1    0    0  501  502  0.00000000000E+00  0.00000000000E+00  0.66598134287E+03  0.66598134287E+03  0.00000000000E+00 0. -1.
         21   -1    0    0  502  503 -0.00000000000E+00 -0.00000000000E+00 -0.56730753906E+03  0.56730753906E+03  0.00000000000E+00 0. -1.
    9000007    2    1    2  501    0  0.41090271454E+02 -0.72109767303E+02  0.51026377877E+03  0.65337980592E+03  0.39955952987E+03 0.  0.
    9000005    1    3    3    0    0  0.67225897360E+02 -0.50384139507E+02  0.57455113494E+03  0.58066159632E+03  0.99999687468E+00 0.  0.
          4    1    3    3  501    0 -0.26135625906E+02 -0.21725627796E+02 -0.64287356165E+02  0.72718209599E+02  0.00000000000E+00 0.  1.
   -9000007    1    1    2    0  503 -0.41090271454E+02  0.72109767303E+02 -0.41158997497E+03  0.57990907601E+03  0.40000000000E+03 0. -1.
<mgrwt>
<rscale>  2 0.40841170E+03</rscale>
<asrwt>0</asrwt>
<pdfrwt beam="1">  1       21 0.10245867E+00 0.40851956E+03</pdfrwt>
<pdfrwt beam="2">  1       21 0.87278083E-01 0.40851956E+03</pdfrwt>
<totfact> 0.75164931E+02</totfact>
</mgrwt>
</event>
<event>
 6    1  0.9163926E-004  0.4892543E+03  0.7818608E-02  0.1016749E+00
         21   -1    0    0  501  502  0.00000000000E+00  0.00000000000E+00  0.81200225385E+03  0.81200225385E+03  0.00000000000E+00 0.  1.
         21   -1    0    0  502  503 -0.00000000000E+00 -0.00000000000E+00 -0.40968297781E+03  0.40968297781E+03  0.00000000000E+00 0. -1.
    9000007    2    1    2  501    0  0.19296572303E+03 -0.20526565851E+03  0.52595508127E+03  0.71705113336E+03  0.39769815126E+03 0.  0.
    9000005    1    3    3    0    0  0.19893226814E+03 -0.28211357982E+01  0.58139176424E+02  0.20727558936E+03  0.99999687468E+00 0.  0.
          4    1    3    3  501    0 -0.59665451081E+01 -0.20244452271E+03  0.46781590485E+03  0.50977554400E+03  0.00000000000E+00 0.  1.
   -9000007    1    1    2    0  503 -0.19296572303E+03  0.20526565851E+03 -0.12363580523E+03  0.50463409830E+03  0.40000000000E+03 0. -1.
<mgrwt>
<rscale>  2 0.48878358E+03</rscale>
<asrwt>0</asrwt>
<pdfrwt beam="1">  1       21 0.12492342E+00 0.48925429E+03</pdfrwt>
<pdfrwt beam="2">  1       21 0.63028151E-01 0.48925429E+03</pdfrwt>
<totfact> 0.92818741E+02</totfact>
</mgrwt>
</event>
<event>
 6    1  0.9163926E-004  0.4148776E+03  0.7818608E-02  0.1038779E+00
         21   -1    0    0  501  502  0.00000000000E+00  0.00000000000E+00  0.12112877654E+04  0.12112877654E+04  0.00000000000E+00 0. -1.
         21   -1    0    0  502  503 -0.00000000000E+00 -0.00000000000E+00 -0.43623891636E+03  0.43623891636E+03  0.00000000000E+00 0. -1.
    9000007    2    1    2  501    0 -0.10856253704E+03 -0.39269252894E+01  0.10641570476E+04  0.11421705740E+04  0.40040248879E+03 0.  0.
    9000005    1    3    3    0    0  0.11734962258E+02 -0.15565062178E+03  0.79747878097E+03  0.81261198089E+03  0.99999687468E+00 0.  0.
          4    1    3    3  501    0 -0.12029749930E+03  0.15172369649E+03  0.26667826661E+03  0.32955859312E+03  0.00000000000E+00 0.  1.
   -9000007    1    1    2    0  503  0.10856253704E+03  0.39269252894E+01 -0.28910819853E+03  0.50535610776E+03  0.40000000000E+03 0. -1.
<mgrwt>
<rscale>  2 0.41478043E+03</rscale>
<asrwt>0</asrwt>
<pdfrwt beam="1">  1       21 0.18635196E+00 0.41487757E+03</pdfrwt>
<pdfrwt beam="2">  1       21 0.67113680E-01 0.41487757E+03</pdfrwt>
<totfact> 0.27874717E+02</totfact>
</mgrwt>
</event>
<event>
 6    1  0.9163926E-004  0.4307950E+03  0.7818608E-02  0.1033772E+00
         21   -1    0    0  501  502  0.00000000000E+00  0.00000000000E+00  0.51930448400E+03  0.51930448400E+03  0.00000000000E+00 0. -1.
         21   -1    0    0  502  503 -0.00000000000E+00 -0.00000000000E+00 -0.43854347429E+03  0.43854347429E+03  0.00000000000E+00 0. -1.
    9000007    2    1    2  501    0 -0.14745558887E+02  0.15362027232E+03  0.24865613209E+03  0.49740752599E+03  0.40220362420E+03 0.  0.
    9000005    1    3    3    0    0 -0.34809962129E+02  0.27429208707E+03  0.25331568902E+03  0.37499029426E+03  0.99999687468E+00 0.  0.
          4    1    3    3  501    0  0.20064403242E+02 -0.12067181475E+03 -0.46595569324E+01  0.12241723173E+03  0.00000000000E+00 0.  1.
   -9000007    1    1    2    0  503  0.14745558887E+02 -0.15362027232E+03 -0.16789512238E+03  0.46044043230E+03  0.40000000000E+03 0. -1.
<mgrwt>
<rscale>  2 0.43027997E+03</rscale>
<asrwt>0</asrwt>
<pdfrwt beam="1">  1       21 0.79892998E-01 0.43079505E+03</pdfrwt>
<pdfrwt beam="2">  1       21 0.67468226E-01 0.43079505E+03</pdfrwt>
<totfact> 0.24196872E+03</totfact>
</mgrwt>
</event>
<event>
 6    1  0.9163926E-004  0.4357231E+03  0.7818608E-02  0.1032073E+00
         21   -1    0    0  501  502  0.00000000000E+00  0.00000000000E+00  0.34097404542E+03  0.34097404542E+03  0.00000000000E+00 0. -1.
         21   -1    0    0  502  503 -0.00000000000E+00 -0.00000000000E+00 -0.94117016865E+03  0.94117016865E+03  0.00000000000E+00 0. -1.
    9000007    2    1    2  501    0 -0.11855531534E+03 -0.12543776255E+03  0.10961960239E+03  0.44930067570E+03  0.40008079795E+03 0.  0.
    9000005    1    3    3    0    0 -0.17362554226E+03 -0.52985584284E+02  0.23338778803E+03  0.29567576949E+03  0.99999687468E+00 0.  0.
          4    1    3    3  501    0  0.55070226928E+02 -0.72452178266E+02 -0.12376818564E+03  0.15362490621E+03  0.00000000000E+00 0.  1.
   -9000007    1    1    2    0  503  0.11855531534E+03  0.12543776255E+03 -0.70981572562E+03  0.83284353837E+03  0.40000000000E+03 0. -1.
<mgrwt>
<rscale>  2 0.43570457E+03</rscale>
<asrwt>0</asrwt>
<pdfrwt beam="1">  1       21 0.52457546E-01 0.43572312E+03</pdfrwt>
<pdfrwt beam="2">  1       21 0.14479541E+00 0.43572312E+03</pdfrwt>
<totfact> 0.96047198E+02</totfact>
</mgrwt>
</event>
<event>
 6    1  0.9163926E-004  0.4925978E+03  0.7818608E-02  0.1015807E+00
         21   -1    0    0  501  502  0.00000000000E+00  0.00000000000E+00  0.50185307156E+03  0.50185307156E+03  0.00000000000E+00 0.  1.
         21   -1    0    0  502  503 -0.00000000000E+00 -0.00000000000E+00 -0.49195668986E+03  0.49195668986E+03  0.00000000000E+00 0.  1.
    9000007    2    1    2  501    0  0.37109902353E+02 -0.28306944273E+03  0.74320680983E+02  0.49817285339E+03  0.40143140631E+03 0.  0.
    9000005    1    3    3    0    0  0.15078170202E+03 -0.28986231371E+01 -0.66271632457E+02  0.16473145705E+03  0.99999687468E+00 0.  0.
          4    1    3    3  501    0 -0.11367179967E+03 -0.28017081960E+03  0.14059231344E+03  0.33344139634E+03  0.00000000000E+00 0.  1.
   -9000007    1    1    2    0  503 -0.37109902353E+02  0.28306944273E+03 -0.64424299279E+02  0.49563690803E+03  0.40000000000E+03 0.  1.
<mgrwt>
<rscale>  2 0.49230613E+03</rscale>
<asrwt>0</asrwt>
<pdfrwt beam="1">  1       21 0.77208165E-01 0.49259784E+03</pdfrwt>
<pdfrwt beam="2">  1       21 0.75685645E-01 0.49259784E+03</pdfrwt>
<totfact> 0.19739239E+03</totfact>
</mgrwt>
</event>
<event>
 6    1  0.9163926E-004  0.4370162E+03  0.7818608E-02  0.1031697E+00
         21   -1    0    0  501  502  0.00000000000E+00  0.00000000000E+00  0.38392455429E+03  0.38392455429E+03  0.00000000000E+00 0.  1.
         21   -1    0    0  502  503 -0.00000000000E+00 -0.00000000000E+00 -0.54391284124E+03  0.54391284124E+03  0.00000000000E+00 0.  1.
    9000007    2    1    2  501    0  0.16650692002E+03 -0.57084335167E+02  0.56281128728E+02  0.44023547194E+03  0.39957043130E+03 0.  0.
    9000005    1    3    3    0    0  0.11890275622E+02  0.11864435573E+03 -0.10262648916E+03  0.15732468997E+03  0.99999687468E+00 0.  0.
          4    1    3    3  501    0  0.15461664440E+03 -0.17572869090E+03  0.15890761789E+03  0.28291078197E+03  0.00000000000E+00 0.  1.
   -9000007    1    1    2    0  503 -0.16650692002E+03  0.57084335167E+02 -0.21626941567E+03  0.48760192359E+03  0.40000000000E+03 0.  1.
<mgrwt>
<rscale>  2 0.43691790E+03</rscale>
<asrwt>0</asrwt>
<pdfrwt beam="1">  1       21 0.59065316E-01 0.43701622E+03</pdfrwt>
<pdfrwt beam="2">  1       21 0.83678899E-01 0.43701622E+03</pdfrwt>
<totfact> 0.29090854E+03</totfact>
</mgrwt>
</event>
<event>
 6    1  0.9163926E-004  0.4902899E+03  0.7818608E-02  0.1016354E+00
         21   -1    0    0  501  502  0.00000000000E+00  0.00000000000E+00  0.11091512181E+04  0.11091512181E+04  0.00000000000E+00 0.  1.
         21   -1    0    0  502  503 -0.00000000000E+00 -0.00000000000E+00 -0.27353892696E+03  0.27353892696E+03  0.00000000000E+00 0.  1.
    9000007    2    1    2  501    0  0.28190022537E+03  0.27858908626E+02  0.73309544560E+03  0.88193715258E+03  0.40017540264E+03 0.  0.
    9000005    1    3    3    0    0 -0.91305941442E+02  0.63818297506E+02  0.12399323769E+03  0.16668795105E+03  0.99999687468E+00 0.  0.
          4    1    3    3  501    0  0.37320616682E+03 -0.35959388880E+02  0.60910220791E+03  0.71524920153E+03  0.00000000000E+00 0.  1.
   -9000007    1    1    2    0  503 -0.28190022537E+03 -0.27858908626E+02  0.10251684552E+03  0.50075299247E+03  0.40000000000E+03 0.  1.
<mgrwt>
<rscale>  2 0.49025413E+03</rscale>
<asrwt>0</asrwt>
<pdfrwt beam="1">  1       21 0.17063865E+00 0.49028992E+03</pdfrwt>
<pdfrwt beam="2">  1       21 0.42082912E-01 0.49028992E+03</pdfrwt>
<totfact> 0.94800245E+02</totfact>
</mgrwt>
</event>
<event>
 6    1  0.9163926E-004  0.4368999E+03  0.7818608E-02  0.1031709E+00
         21   -1    0    0  501  502  0.00000000000E+00  0.00000000000E+00  0.79746213518E+03  0.79746213518E+03  0.00000000000E+00 0.  1.
         21   -1    0    0  502  503 -0.00000000000E+00 -0.00000000000E+00 -0.25689063899E+03  0.25689063899E+03  0.00000000000E+00 0.  1.
    9000007    2    1    2  501    0 -0.12994998719E+03 -0.11829848640E+03  0.40815029911E+03  0.59782577114E+03  0.39990930837E+03 0.  0.
    9000005    1    3    3    0    0 -0.24629120720E+03 -0.73923511440E+01  0.13518340690E+03  0.28105081230E+03  0.99999687468E+00 0.  0.
          4    1    3    3  501    0  0.11634122000E+03 -0.11090613526E+03  0.27296689221E+03  0.31677495884E+03  0.00000000000E+00 0.  1.
   -9000007    1    1    2    0  503  0.12994998719E+03  0.11829848640E+03  0.13242119708E+03  0.45652700303E+03  0.40000000000E+03 0. -1.
<mgrwt>
<rscale>  2 0.43687915E+03</rscale>
<asrwt>0</asrwt>
<pdfrwt beam="1">  1       21 0.12268648E+00 0.43689991E+03</pdfrwt>
<pdfrwt beam="2">  1       21 0.39521637E-01 0.43689991E+03</pdfrwt>
<totfact> 0.26817556E+03</totfact>
</mgrwt>
</event>
<event>
 6    1  0.9163926E-004  0.8319414E+03  0.7818608E-02  0.9515108E-01
         21   -1    0    0  501  502  0.00000000000E+00  0.00000000000E+00  0.55381185164E+03  0.55381185164E+03  0.00000000000E+00 0.  1.
         21   -1    0    0  502  503 -0.00000000000E+00 -0.00000000000E+00 -0.18723704181E+04  0.18723704181E+04  0.00000000000E+00 0. -1.
    9000007    2    1    2  501    0 -0.68197781109E+03 -0.25890691745E+03  0.40922696168E+02  0.83234544304E+03  0.39874521033E+03 0.  0.
    9000005    1    3    3    0    0 -0.11692754318E+03  0.95293321663E+02  0.66760578017E+02  0.16495709223E+03  0.99999687468E+00 0.  0.
          4    1    3    3  501    0 -0.56505026791E+03 -0.35420023911E+03 -0.25837881849E+02  0.66738835081E+03  0.00000000000E+00 0.  1.
   -9000007    1    1    2    0  503  0.68197781109E+03  0.25890691745E+03 -0.13594812627E+04  0.15938368267E+04  0.40000000000E+03 0. -1.
<mgrwt>
<rscale>  2 0.83179073E+03</rscale>
<asrwt>0</asrwt>
<pdfrwt beam="1">  1       21 0.85201824E-01 0.83194142E+03</pdfrwt>
<pdfrwt beam="2">  1       21 0.28805699E+00 0.83194142E+03</pdfrwt>
<totfact> 0.30089666E+01</totfact>
</mgrwt>
</event>
<event>
 6    1  0.9163926E-004  0.5033381E+03  0.7818608E-02  0.1012946E+00
         21   -1    0    0  501  502  0.00000000000E+00  0.00000000000E+00  0.31828781914E+03  0.31828781914E+03  0.00000000000E+00 0.  1.
         21   -1    0    0  502  503 -0.00000000000E+00 -0.00000000000E+00 -0.93141444627E+03  0.93141444627E+03  0.00000000000E+00 0. -1.
    9000007    2    1    2  501    0 -0.18755922747E+03  0.24007928219E+03 -0.54571043597E+03  0.74239420478E+03  0.40066538386E+03 0.  0.
    9000005    1    3    3    0    0  0.90485564436E+02 -0.45798611889E+02 -0.14597699261E+03  0.17775104103E+03  0.99999687468E+00 0.  0.
          4    1    3    3  501    0 -0.27804479190E+03  0.28587789408E+03 -0.39973344336E+03  0.56464316375E+03  0.00000000000E+00 0.  1.
   -9000007    1    1    2    0  503  0.18755922747E+03 -0.24007928219E+03 -0.67416191161E+02  0.50730806063E+03  0.40000000000E+03 0.  1.
<mgrwt>
<rscale>  2 0.50320571E+03</rscale>
<asrwt>0</asrwt>
<pdfrwt beam="1">  1       21 0.48967358E-01 0.50333813E+03</pdfrwt>
<pdfrwt beam="2">  1       21 0.14329453E+00 0.50333813E+03</pdfrwt>
<totfact> 0.11129044E+03</totfact>
</mgrwt>
</event>
<event>
 6    1  0.9163926E-004  0.4272855E+03  0.7818608E-02  0.1034760E+00
         21   -1    0    0  501  502  0.00000000000E+00  0.00000000000E+00  0.17431924922E+04  0.17431924922E+04  0.00000000000E+00 0. -1.
         21   -1    0    0  502  503 -0.00000000000E+00 -0.00000000000E+00 -0.16932449861E+03  0.16932449861E+03  0.00000000000E+00 0. -1.
    9000007    2    1    2  501    0 -0.14880578957E+03  0.37645542705E+01  0.13783607360E+04  0.14430700581E+04  0.40051908716E+03 0.  0.
    9000005    1    3    3    0    0 -0.17402603926E+03  0.15153031047E+03  0.11271960205E+04  0.11505730598E+04  0.99999687468E+00 0.  0.
          4    1    3    3  501    0  0.25220249682E+02 -0.14776575620E+03  0.25116471545E+03  0.29249699825E+03  0.00000000000E+00 0.  1.
   -9000007    1    1    2    0  503  0.14880578957E+03 -0.37645542705E+01  0.19550725765E+03  0.46944693275E+03  0.40000000000E+03 0. -1.
<mgrwt>
<rscale>  2 0.42716379E+03</rscale>
<asrwt>0</asrwt>
<pdfrwt beam="1">  1       21 0.26818345E+00 0.42728547E+03</pdfrwt>
<pdfrwt beam="2">  1       21 0.26049924E-01 0.42728547E+03</pdfrwt>
<totfact> 0.59673302E+02</totfact>
</mgrwt>
</event>
<event>
 6    1  0.9163926E-004  0.5196650E+03  0.7818608E-02  0.1008771E+00
         21   -1    0    0  501  502  0.00000000000E+00  0.00000000000E+00  0.48572944662E+03  0.48572944662E+03  0.00000000000E+00 0. -1.
         21   -1    0    0  502  503 -0.00000000000E+00 -0.00000000000E+00 -0.63768085302E+03  0.63768085302E+03  0.00000000000E+00 0. -1.
    9000007    2    1    2  501    0  0.22888796055E+03  0.24009892317E+03 -0.27706282299E+03  0.58891047929E+03  0.40001819126E+03 0.  0.
    9000005    1    3    3    0    0  0.31510903527E+03  0.26297834274E+03 -0.15721862095E+03  0.43951110068E+03  0.99999687468E+00 0.  0.
          4    1    3    3  501    0 -0.86221074715E+02 -0.22879419569E+02 -0.11984420204E+03  0.14939937861E+03  0.00000000000E+00 0.  1.
   -9000007    1    1    2    0  503 -0.22888796055E+03 -0.24009892317E+03  0.12511141659E+03  0.53449982035E+03  0.40000000000E+03 0. -1.
<mgrwt>
<rscale>  2 0.51966153E+03</rscale>
<asrwt>0</asrwt>
<pdfrwt beam="1">  1       21 0.74727607E-01 0.51966503E+03</pdfrwt>
<pdfrwt beam="2">  1       21 0.98104746E-01 0.51966503E+03</pdfrwt>
<totfact> 0.11443668E+03</totfact>
</mgrwt>
</event>
<event>
 6    1  0.9163926E-004  0.7351597E+03  0.7818608E-02  0.9659210E-01
         21   -1    0    0  501  502  0.00000000000E+00  0.00000000000E+00  0.44036044104E+03  0.44036044104E+03  0.00000000000E+00 0. -1.
         21   -1    0    0  502  503 -0.00000000000E+00 -0.00000000000E+00 -0.16624689891E+04  0.16624689891E+04  0.00000000000E+00 0.  1.
    9000007    2    1    2  501    0  0.46023762854E+03  0.40938733565E+03 -0.72617234674E+02  0.73873744466E+03  0.40130173693E+03 0.  0.
    9000005    1    3    3    0    0  0.35913918573E+02  0.29133423616E+03 -0.85784557302E+01  0.29366653981E+03  0.99999687468E+00 0.  0.
          4    1    3    3  501    0  0.42432370997E+03  0.11805309949E+03 -0.64038778944E+02  0.44507090485E+03  0.00000000000E+00 0.  1.
   -9000007    1    1    2    0  503 -0.46023762854E+03 -0.40938733565E+03 -0.11494913134E+04  0.13640919855E+04  0.40000000000E+03 0.  1.
<mgrwt>
<rscale>  2 0.73498217E+03</rscale>
<asrwt>0</asrwt>
<pdfrwt beam="1">  1       21 0.67747760E-01 0.73515968E+03</pdfrwt>
<pdfrwt beam="2">  1       21 0.25576446E+00 0.73515968E+03</pdfrwt>
<totfact> 0.83980638E+01</totfact>
</mgrwt>
</event>
<event>
 6    1  0.9163926E-004  0.6024641E+03  0.7818608E-02  0.9900642E-01
         21   -1    0    0  501  502  0.00000000000E+00  0.00000000000E+00  0.96949857205E+03  0.96949857205E+03  0.00000000000E+00 0.  1.
         21   -1    0    0  502  503 -0.00000000000E+00 -0.00000000000E+00 -0.37460543323E+03  0.37460543323E+03  0.00000000000E+00 0.  1.
    9000007    2    1    2  501    0  0.15618753739E+03 -0.42164894147E+03  0.32507839987E+03  0.68457207274E+03  0.40097453790E+03 0.  0.
    9000005    1    3    3    0    0 -0.12637485973E+03 -0.50749131996E+02  0.72218462834E+02  0.15415117884E+03  0.99999687468E+00 0.  0.
          4    1    3    3  501    0  0.28256239712E+03 -0.37089980947E+03  0.25285993703E+03  0.53042089390E+03  0.00000000000E+00 0.  1.
   -9000007    1    1    2    0  503 -0.15618753739E+03  0.42164894147E+03  0.26981473895E+03  0.65953193253E+03  0.40000000000E+03 0.  1.
<mgrwt>
<rscale>  2 0.60230196E+03</rscale>
<asrwt>0</asrwt>
<pdfrwt beam="1">  1       21 0.14915363E+00 0.60246407E+03</pdfrwt>
<pdfrwt beam="2">  1       21 0.57631605E-01 0.60246407E+03</pdfrwt>
<totfact> 0.67864185E+02</totfact>
</mgrwt>
</event>
<event>
 6    1  0.9163926E-004  0.4399412E+03  0.7818608E-02  0.1030813E+00
         21   -1    0    0  501  502  0.00000000000E+00  0.00000000000E+00  0.91655546803E+03  0.91655546803E+03  0.00000000000E+00 0. -1.
         21   -1    0    0  502  503 -0.00000000000E+00 -0.00000000000E+00 -0.37047154017E+03  0.37047154017E+03  0.00000000000E+00 0.  1.
    9000007    2    1    2  501    0 -0.48650696313E+02  0.17658253066E+03  0.69531032952E+03  0.82246614100E+03  0.39930667207E+03 0.  0.
    9000005    1    3    3    0    0 -0.11602425019E+03  0.71376243315E+02  0.68354058887E+03  0.69698273391E+03  0.99999687468E+00 0.  0.
          4    1    3    3  501    0  0.67373553876E+02  0.10520628735E+03  0.11769740651E+02  0.12548340709E+03  0.00000000000E+00 0.  1.
   -9000007    1    1    2    0  503  0.48650696313E+02 -0.17658253066E+03 -0.14922640165E+03  0.46456086720E+03  0.40000000000E+03 0.  1.
<mgrwt>
<rscale>  2 0.43978357E+03</rscale>
<asrwt>0</asrwt>
<pdfrwt beam="1">  1       21 0.14100853E+00 0.43994122E+03</pdfrwt>
<pdfrwt beam="2">  1       21 0.56995622E-01 0.43994122E+03</pdfrwt>
<totfact> 0.86059178E+02</totfact>
</mgrwt>
</event>
<event>
 6    1  0.9163926E-004  0.4787069E+03  0.7818608E-02  0.1019538E+00
         21   -1    0    0  501  502  0.00000000000E+00  0.00000000000E+00  0.88999702002E+03  0.88999702002E+03  0.00000000000E+00 0. -1.
         21   -1    0    0  502  503 -0.00000000000E+00 -0.00000000000E+00 -0.35614510450E+03  0.35614510450E+03  0.00000000000E+00 0.  1.
    9000007    2    1    2  501    0 -0.25477777173E+03 -0.65181171167E+02  0.59533755193E+03  0.76350273374E+03  0.39918582847E+03 0.  0.
    9000005    1    3    3    0    0 -0.31606641978E+03  0.21555980250E+02  0.57333871990E+03  0.65504269305E+03  0.99999687468E+00 0.  0.
          4    1    3    3  501    0  0.61288648046E+02 -0.86737151417E+02  0.21998832031E+02  0.10846004069E+03  0.00000000000E+00 0.  1.
   -9000007    1    1    2    0  503  0.25477777173E+03  0.65181171167E+02 -0.61485636407E+02  0.48263939077E+03  0.40000000000E+03 0.  1.
<mgrwt>
<rscale>  2 0.47853679E+03</rscale>
<asrwt>0</asrwt>
<pdfrwt beam="1">  1       21 0.13692262E+00 0.47870690E+03</pdfrwt>
<pdfrwt beam="2">  1       21 0.54791555E-01 0.47870690E+03</pdfrwt>
<totfact> 0.99711358E+02</totfact>
</mgrwt>
</event>
<event>
 6    1  0.9163926E-004  0.4184574E+03  0.7818608E-02  0.1037636E+00
         21   -1    0    0  501  502  0.00000000000E+00  0.00000000000E+00  0.51282059786E+03  0.51282059786E+03  0.00000000000E+00 0.  1.
         21   -1    0    0  502  503 -0.00000000000E+00 -0.00000000000E+00 -0.40742993470E+03  0.40742993470E+03  0.00000000000E+00 0. -1.
    9000007    2    1    2  501    0  0.13057301593E+01 -0.12009969365E+03  0.23882058193E+03  0.48181104465E+03  0.40085031003E+03 0.  0.
    9000005    1    3    3    0    0 -0.18340509442E+03 -0.23653253037E+01  0.43910920952E+02  0.18860591825E+03  0.99999687468E+00 0.  0.
          4    1    3    3  501    0  0.18471082458E+03 -0.11773436834E+03  0.19490966098E+03  0.29320512640E+03  0.00000000000E+00 0.  1.
   -9000007    1    1    2    0  503 -0.13057301593E+01  0.12009969365E+03 -0.13342991877E+03  0.43843948792E+03  0.40000000000E+03 0. -1.
<mgrwt>
<rscale>  2 0.41825366E+03</rscale>
<asrwt>0</asrwt>
<pdfrwt beam="1">  1       21 0.78895477E-01 0.41845742E+03</pdfrwt>
<pdfrwt beam="2">  1       21 0.62681528E-01 0.41845742E+03</pdfrwt>
<totfact> 0.29464673E+03</totfact>
</mgrwt>
</event>
<event>
 6    1  0.9163926E-004  0.8853325E+03  0.7818608E-02  0.9444122E-01
         21   -1    0    0  501  502  0.00000000000E+00  0.00000000000E+00  0.88275467106E+03  0.88275467106E+03  0.00000000000E+00 0.  1.
         21   -1    0    0  502  503 -0.00000000000E+00 -0.00000000000E+00 -0.13342064075E+04  0.13342064075E+04  0.00000000000E+00 0.  1.
    9000007    2    1    2  501    0 -0.66948206956E+03  0.41905528361E+03  0.41541644621E+03  0.97789932938E+03  0.39987835956E+03 0.  0.
    9000005    1    3    3    0    0 -0.11292910926E+01  0.43354773101E+02 -0.61278023310E+02  0.75079343255E+02  0.99999687468E+00 0.  0.
          4    1    3    3  501    0 -0.66835277846E+03  0.37570051051E+03  0.47669446952E+03  0.90281998613E+03  0.00000000000E+00 0.  1.
   -9000007    1    1    2    0  503  0.66948206956E+03 -0.41905528361E+03 -0.86686818263E+03  0.12390617492E+04  0.40000000000E+03 0.  1.
<mgrwt>
<rscale>  2 0.88531873E+03</rscale>
<asrwt>0</asrwt>
<pdfrwt beam="1">  1       21 0.13580841E+00 0.88533246E+03</pdfrwt>
<pdfrwt beam="2">  1       21 0.20526252E+00 0.88533246E+03</pdfrwt>
<totfact> 0.30863534E+01</totfact>
</mgrwt>
</event>
<event>
 6    1  0.9163926E-004  0.4210514E+03  0.7818608E-02  0.1036852E+00
         21   -1    0    0  501  502  0.00000000000E+00  0.00000000000E+00  0.34765471172E+03  0.34765471172E+03  0.00000000000E+00 0.  1.
         21   -1    0    0  502  503 -0.00000000000E+00 -0.00000000000E+00 -0.53324670885E+03  0.53324670885E+03  0.00000000000E+00 0.  1.
    9000007    2    1    2  501    0  0.12841623316E+03  0.28170499649E+02  0.31138795710E+01  0.41949681083E+03  0.39835106635E+03 0.  0.
    9000005    1    3    3    0    0 -0.12792327323E+02 -0.16270090654E+03 -0.59897519198E+02  0.17385034204E+03  0.99999687468E+00 0.  0.
          4    1    3    3  501    0  0.14120856048E+03  0.19087140619E+03  0.63011398768E+02  0.24564646879E+03  0.00000000000E+00 0.  1.
   -9000007    1    1    2    0  503 -0.12841623316E+03 -0.28170499649E+02 -0.18870587670E+03  0.46140460974E+03  0.40000000000E+03 0.  1.
<mgrwt>
<rscale>  2 0.42065934E+03</rscale>
<asrwt>0</asrwt>
<pdfrwt beam="1">  1       21 0.53485341E-01 0.42105143E+03</pdfrwt>
<pdfrwt beam="2">  1       21 0.82037955E-01 0.42105143E+03</pdfrwt>
<totfact> 0.37981907E+03</totfact>
</mgrwt>
</event>
<event>
 6    1  0.9163926E-004  0.5377032E+03  0.7818608E-02  0.1004388E+00
         21   -1    0    0  501  502  0.00000000000E+00  0.00000000000E+00  0.77859036150E+03  0.77859036150E+03  0.00000000000E+00 0.  1.
         21   -1    0    0  502  503 -0.00000000000E+00 -0.00000000000E+00 -0.13845442369E+04  0.13845442369E+04  0.00000000000E+00 0. -1.
    9000007    2    1    2  501    0  0.27360584126E+03 -0.23294750387E+03  0.62229648907E+03  0.82234242444E+03  0.39983677518E+03 0.  0.
    9000005    1    3    3    0    0  0.14545526847E+03 -0.15372354487E+03  0.33123420864E+02  0.21421093431E+03  0.99999687468E+00 0.  0.
          4    1    3    3  501    0  0.12815057279E+03 -0.79223959003E+02  0.58917306821E+03  0.60813149013E+03  0.00000000000E+00 0.  1.
   -9000007    1    1    2    0  503 -0.27360584126E+03  0.23294750387E+03 -0.12282503645E+04  0.13407921740E+04  0.40000000000E+03 0.  1.
<mgrwt>
<rscale>  2 0.53767281E+03</rscale>
<asrwt>0</asrwt>
<pdfrwt beam="1">  1       21 0.11978313E+00 0.53770317E+03</pdfrwt>
<pdfrwt beam="2">  1       21 0.21300680E+00 0.53770317E+03</pdfrwt>
<totfact> 0.43672860E+01</totfact>
</mgrwt>
</event>
<event>
 6    1  0.9163926E-004  0.4841601E+03  0.7818608E-02  0.1018033E+00
         21   -1    0    0  501  502  0.00000000000E+00  0.00000000000E+00  0.29785802486E+03  0.29785802486E+03  0.00000000000E+00 0.  1.
         21   -1    0    0  502  503 -0.00000000000E+00 -0.00000000000E+00 -0.13328896369E+04  0.13328896369E+04  0.00000000000E+00 0. -1.
    9000007    2    1    2  501    0  0.25235769756E+03  0.10112377648E+03  0.45374888800E+01  0.48418133517E+03  0.40062519996E+03 0.  0.
    9000005    1    3    3    0    0  0.33668156121E+03  0.29739602076E+02  0.83776325569E+02  0.34822175450E+03  0.99999687468E+00 0.  0.
          4    1    3    3  501    0 -0.84323863653E+02  0.71384174400E+02 -0.79238836689E+02  0.13595958067E+03  0.00000000000E+00 0.  1.
   -9000007    1    1    2    0  503 -0.25235769756E+03 -0.10112377648E+03 -0.10395691009E+04  0.11465663266E+04  0.40000000000E+03 0. -1.
<mgrwt>
<rscale>  2 0.48403072E+03</rscale>
<asrwt>0</asrwt>
<pdfrwt beam="1">  1       21 0.45824312E-01 0.48416007E+03</pdfrwt>
<pdfrwt beam="2">  1       21 0.20505994E+00 0.48416007E+03</pdfrwt>
<totfact> 0.45958650E+02</totfact>
</mgrwt>
</event>
<event>
 6    1  0.9163926E-004  0.4493511E+03  0.7818608E-02  0.1027917E+00
         21   -1    0    0  501  502  0.00000000000E+00  0.00000000000E+00  0.12372326858E+04  0.12372326858E+04  0.00000000000E+00 0.  1.
         21   -1    0    0  502  503 -0.00000000000E+00 -0.00000000000E+00 -0.21095632667E+03  0.21095632667E+03  0.00000000000E+00 0.  1.
    9000007    2    1    2  501    0 -0.12961105529E+03 -0.15843993621E+03  0.85768571417E+03  0.96826709733E+03  0.40001768516E+03 0.  0.
    9000005    1    3    3    0    0 -0.23614022024E+03 -0.16732754047E+03  0.79097334693E+03  0.84225919109E+03  0.99999687468E+00 0.  0.
          4    1    3    3  501    0  0.10652916495E+03  0.88876042593E+01  0.66712367234E+02  0.12600790624E+03  0.00000000000E+00 0.  1.
   -9000007    1    1    2    0  503  0.12961105529E+03  0.15843993621E+03  0.16859064492E+03  0.47992191510E+03  0.40000000000E+03 0. -1.
<mgrwt>
<rscale>  2 0.44934714E+03</rscale>
<asrwt>0</asrwt>
<pdfrwt beam="1">  1       21 0.19034349E+00 0.44935107E+03</pdfrwt>
<pdfrwt beam="2">  1       21 0.32454820E-01 0.44935107E+03</pdfrwt>
<totfact> 0.11903266E+03</totfact>
</mgrwt>
</event>
<event>
 6    1  0.9163926E-004  0.4401829E+03  0.7818608E-02  0.1030777E+00
         21   -1    0    0  501  502  0.00000000000E+00  0.00000000000E+00  0.80462086468E+03  0.80462086468E+03  0.00000000000E+00 0.  1.
         21   -1    0    0  502  503 -0.00000000000E+00 -0.00000000000E+00 -0.24364413894E+03  0.24364413894E+03  0.00000000000E+00 0.  1.
    9000007    2    1    2  501    0 -0.21677402009E+02  0.18245835948E+03  0.34246060012E+03  0.55682806987E+03  0.39876970052E+03 0.  0.
    9000005    1    3    3    0    0 -0.91859549046E+02  0.18094531492E+03 -0.43581620594E+01  0.20297629742E+03  0.99999687468E+00 0.  0.
          4    1    3    3  501    0  0.70182147037E+02  0.15130445580E+01  0.34681876218E+03  0.35385177245E+03  0.00000000000E+00 0.  1.
   -9000007    1    1    2    0  503  0.21677402009E+02 -0.18245835948E+03  0.21851612562E+03  0.49143693375E+03  0.40000000000E+03 0.  1.
<mgrwt>
<rscale>  2 0.43990319E+03</rscale>
<asrwt>0</asrwt>
<pdfrwt beam="1">  1       21 0.12378782E+00 0.44018287E+03</pdfrwt>
<pdfrwt beam="2">  1       21 0.37483714E-01 0.44018287E+03</pdfrwt>
<totfact> 0.29174958E+03</totfact>
</mgrwt>
</event>
<event>
 6    1  0.9163926E-004  0.4570186E+03  0.7818608E-02  0.1025721E+00
         21   -1    0    0  501  502  0.00000000000E+00  0.00000000000E+00  0.11804740009E+04  0.11804740009E+04  0.00000000000E+00 0.  1.
         21   -1    0    0  502  503 -0.00000000000E+00 -0.00000000000E+00 -0.22332586099E+03  0.22332586099E+03  0.00000000000E+00 0.  1.
    9000007    2    1    2  501    0  0.62882034032E+02 -0.21192425819E+03  0.79937781297E+03  0.92031509741E+03  0.39888463147E+03 0.  0.
    9000005    1    3    3    0    0  0.23305512372E+03 -0.12639189484E+03  0.44467918618E+03  0.51771631265E+03  0.99999687468E+00 0.  0.
          4    1    3    3  501    0 -0.17017308969E+03 -0.85532363351E+02  0.35469862680E+03  0.40259878476E+03  0.00000000000E+00 0.  1.
   -9000007    1    1    2    0  503 -0.62882034032E+02  0.21192425819E+03  0.15777032692E+03  0.48348476447E+03  0.40000000000E+03 0.  1.
<mgrwt>
<rscale>  2 0.45677448E+03</rscale>
<asrwt>0</asrwt>
<pdfrwt beam="1">  1       21 0.18161138E+00 0.45701864E+03</pdfrwt>
<pdfrwt beam="2">  1       21 0.34357826E-01 0.45701864E+03</pdfrwt>
<totfact> 0.12157292E+03</totfact>
</mgrwt>
</event>
<event>
 6    1  0.9163926E-004  0.4095550E+03  0.7818608E-02  0.1040532E+00
         21   -1    0    0  501  502  0.00000000000E+00  0.00000000000E+00  0.64062759091E+03  0.64062759091E+03  0.00000000000E+00 0. -1.
         21   -1    0    0  502  503 -0.00000000000E+00 -0.00000000000E+00 -0.68852553834E+03  0.68852553834E+03  0.00000000000E+00 0. -1.
    9000007    2    1    2  501    0 -0.18433307934E+02  0.85997358341E+02  0.49927737497E+03  0.64567952630E+03  0.39986100215E+03 0.  0.
    9000005    1    3    3    0    0  0.13871927499E+03 -0.37467532930E+02  0.39486283603E+03  0.42019580263E+03  0.99999687468E+00 0.  0.
          4    1    3    3  501    0 -0.15715258293E+03  0.12346489127E+03  0.10441453894E+03  0.22548372367E+03  0.00000000000E+00 0.  1.
   -9000007    1    1    2    0  503  0.18433307934E+02 -0.85997358341E+02 -0.54717532241E+03  0.68347360295E+03  0.40000000000E+03 0. -1.
<mgrwt>
<rscale>  2 0.40952110E+03</rscale>
<asrwt>0</asrwt>
<pdfrwt beam="1">  1       21 0.98558092E-01 0.40955504E+03</pdfrwt>
<pdfrwt beam="2">  1       21 0.10592700E+00 0.40955504E+03</pdfrwt>
<totfact> 0.51855658E+02</totfact>
</mgrwt>
</event>
<event>
 6    1  0.9163926E-004  0.4880776E+03  0.7818608E-02  0.1017195E+00
         21   -1    0    0  501  502  0.00000000000E+00  0.00000000000E+00  0.47331928078E+03  0.47331928078E+03  0.00000000000E+00 0.  1.
         21   -1    0    0  502  503 -0.00000000000E+00 -0.00000000000E+00 -0.50651877088E+03  0.50651877088E+03  0.00000000000E+00 0.  1.
    9000007    2    1    2  501    0  0.15903164249E+03  0.23006234764E+03  0.41609425308E+02  0.48606065147E+03  0.39535283674E+03 0.  0.
    9000005    1    3    3    0    0  0.24298129363E+02  0.16520554053E+03 -0.16252346286E+03  0.23301962511E+03  0.99999687468E+00 0.  0.
          4    1    3    3  501    0  0.13473351312E+03  0.64856807111E+02  0.20413288817E+03  0.25304102636E+03  0.00000000000E+00 0.  1.
   -9000007    1    1    2    0  503 -0.15903164249E+03 -0.23006234764E+03 -0.74808915406E+02  0.49377740019E+03  0.40000000000E+03 0.  1.
<mgrwt>
<rscale>  2 0.48712451E+03</rscale>
<asrwt>0</asrwt>
<pdfrwt beam="1">  1       21 0.72818351E-01 0.48807760E+03</pdfrwt>
<pdfrwt beam="2">  1       21 0.77925965E-01 0.48807760E+03</pdfrwt>
<totfact> 0.21136134E+03</totfact>
</mgrwt>
</event>
<event>
 6    1  0.9163926E-004  0.4106393E+03  0.7818608E-02  0.1040168E+00
         21   -1    0    0  501  502  0.00000000000E+00  0.00000000000E+00  0.19281480100E+03  0.19281480100E+03  0.00000000000E+00 0.  1.
         21   -1    0    0  502  503 -0.00000000000E+00 -0.00000000000E+00 -0.94004335744E+03  0.94004335744E+03  0.00000000000E+00 0.  1.
    9000007    2    1    2  501    0 -0.72890415788E+01 -0.92582314676E+02 -0.22371829624E+03  0.46751042406E+03  0.39986435876E+03 0.  0.
    9000005    1    3    3    0    0 -0.16648670398E+03  0.13689844375E+02  0.76528169723E+01  0.16722679224E+03  0.99999687468E+00 0.  0.
          4    1    3    3  501    0  0.15919766241E+03 -0.10627215905E+03 -0.23137111322E+03  0.30028363182E+03  0.00000000000E+00 0.  1.
   -9000007    1    1    2    0  503  0.72890415788E+01  0.92582314676E+02 -0.52351026020E+03  0.66534773439E+03  0.40000000000E+03 0.  1.
<mgrwt>
<rscale>  2 0.41060624E+03</rscale>
<asrwt>0</asrwt>
<pdfrwt beam="1">  1       21 0.29663816E-01 0.41063928E+03</pdfrwt>
<pdfrwt beam="2">  1       21 0.14462205E+00 0.41063928E+03</pdfrwt>
<totfact> 0.31441372E+03</totfact>
</mgrwt>
</event>
<event>
 6    1  0.9163926E-004  0.5198966E+03  0.7818608E-02  0.1008719E+00
         21   -1    0    0  501  502  0.00000000000E+00  0.00000000000E+00  0.87959220334E+03  0.87959220334E+03  0.00000000000E+00 0. -1.
         21   -1    0    0  502  503 -0.00000000000E+00 -0.00000000000E+00 -0.79875026127E+03  0.79875026127E+03  0.00000000000E+00 0. -1.
    9000007    2    1    2  501    0  0.83256198381E+02  0.32133054002E+03  0.69870911392E+03  0.87091150622E+03  0.40013437152E+03 0.  0.
    9000005    1    3    3    0    0  0.18678991545E+03  0.64601762685E+02  0.47674558014E+03  0.51609224799E+03  0.99999687468E+00 0.  0.
          4    1    3    3  501    0 -0.10353371707E+03  0.25672877734E+03  0.22196353379E+03  0.35481925824E+03  0.00000000000E+00 0.  1.
   -9000007    1    1    2    0  503 -0.83256198381E+02 -0.32133054002E+03 -0.61786717185E+03  0.80743095839E+03  0.40000000000E+03 0. -1.
<mgrwt>
<rscale>  2 0.51987070E+03</rscale>
<asrwt>0</asrwt>
<pdfrwt beam="1">  1       21 0.13532188E+00 0.51989655E+03</pdfrwt>
<pdfrwt beam="2">  1       21 0.12288466E+00 0.51989655E+03</pdfrwt>
<totfact> 0.15263763E+02</totfact>
</mgrwt>
</event>
<event>
 6    1  0.9163926E-004  0.4129341E+03  0.7818608E-02  0.1039409E+00
         21   -1    0    0  501  502  0.00000000000E+00  0.00000000000E+00  0.72788466323E+03  0.72788466323E+03  0.00000000000E+00 0.  1.
         21   -1    0    0  502  503 -0.00000000000E+00 -0.00000000000E+00 -0.35778373231E+03  0.35778373231E+03  0.00000000000E+00 0.  1.
    9000007    2    1    2  501    0 -0.17757500289E+02 -0.10011176125E+03  0.50419512849E+03  0.65171108499E+03  0.40022108535E+03 0.  0.
    9000005    1    3    3    0    0 -0.79183129884E+02 -0.54453572008E+02 -0.38585027129E+02  0.10356140147E+03  0.99999687468E+00 0.  0.
          4    1    3    3  501    0  0.61425629595E+02 -0.45658189246E+02  0.54278015561E+03  0.54814968352E+03  0.00000000000E+00 0.  1.
   -9000007    1    1    2    0  503  0.17757500289E+02  0.10011176125E+03 -0.13409419757E+03  0.43395731055E+03  0.40000000000E+03 0.  1.
<mgrwt>
<rscale>  2 0.41288057E+03</rscale>
<asrwt>0</asrwt>
<pdfrwt beam="1">  1       21 0.11198226E+00 0.41293415E+03</pdfrwt>
<pdfrwt beam="2">  1       21 0.55043651E-01 0.41293415E+03</pdfrwt>
<totfact> 0.16969947E+03</totfact>
</mgrwt>
</event>
<event>
 6    1  0.9163926E-004  0.4175728E+03  0.7818608E-02  0.1038005E+00
         21   -1    0    0  501  502  0.00000000000E+00  0.00000000000E+00  0.43536622933E+03  0.43536622933E+03  0.00000000000E+00 0. -1.
         21   -1    0    0  502  503 -0.00000000000E+00 -0.00000000000E+00 -0.40624320557E+03  0.40624320557E+03  0.00000000000E+00 0. -1.
    9000007    2    1    2  501    0 -0.20663366537E+01  0.11984466009E+03  0.71486039838E+02  0.42189329578E+03  0.39814154120E+03 0.  0.
    9000005    1    3    3    0    0  0.94996400574E+02  0.24154140969E+03  0.55411195016E+02  0.26540152457E+03  0.99999687468E+00 0.  0.
          4    1    3    3  501    0 -0.97062737227E+02 -0.12169674960E+03  0.16074844822E+02  0.15649177121E+03  0.00000000000E+00 0.  1.
   -9000007    1    1    2    0  503  0.20663366537E+01 -0.11984466009E+03 -0.42363016078E+02  0.41971613911E+03  0.40000000000E+03 0. -1.
<mgrwt>
<rscale>  2 0.41712707E+03</rscale>
<asrwt>0</asrwt>
<pdfrwt beam="1">  1       21 0.66979420E-01 0.41757276E+03</pdfrwt>
<pdfrwt beam="2">  1       21 0.62498954E-01 0.41757276E+03</pdfrwt>
<totfact> 0.42978042E+03</totfact>
</mgrwt>
</event>
<event>
 6    1  0.9163926E-004  0.5283750E+03  0.7818608E-02  0.1006628E+00
         21   -1    0    0  501  502  0.00000000000E+00  0.00000000000E+00  0.13649454552E+04  0.13649454552E+04  0.00000000000E+00 0.  1.
         21   -1    0    0  502  503 -0.00000000000E+00 -0.00000000000E+00 -0.21698255305E+03  0.21698255305E+03  0.00000000000E+00 0.  1.
    9000007    2    1    2  501    0  0.19685771320E+02 -0.34464316928E+03  0.76346699704E+03  0.92847292583E+03  0.40001709302E+03 0.  0.
    9000005    1    3    3    0    0  0.14751454895E+03 -0.11306900613E+03  0.93248756116E+02  0.20794584105E+03  0.99999687468E+00 0.  0.
          4    1    3    3  501    0 -0.12782877763E+03 -0.23157416314E+03  0.67021824092E+03  0.72052708477E+03  0.00000000000E+00 0.  1.
   -9000007    1    1    2    0  503 -0.19685771320E+02  0.34464316928E+03  0.38449590516E+03  0.65345508247E+03  0.40000000000E+03 0.  1.
<mgrwt>
<rscale>  2 0.52837174E+03</rscale>
<asrwt>0</asrwt>
<pdfrwt beam="1">  1       21 0.20999160E+00 0.52837498E+03</pdfrwt>
<pdfrwt beam="2">  1       21 0.33381932E-01 0.52837498E+03</pdfrwt>
<totfact> 0.80366163E+02</totfact>
</mgrwt>
</event>
<event>
 6    1  0.9163926E-004  0.5548294E+03  0.7818608E-02  0.1000411E+00
         21   -1    0    0  501  502  0.00000000000E+00  0.00000000000E+00  0.53276293508E+03  0.53276293508E+03  0.00000000000E+00 0.  1.
         21   -1    0    0  502  503 -0.00000000000E+00 -0.00000000000E+00 -0.66979412945E+03  0.66979412945E+03  0.00000000000E+00 0. -1.
    9000007    2    1    2  501    0  0.23280371672E+03 -0.30510155982E+03 -0.29199174134E+03  0.62697274974E+03  0.40068830727E+03 0.  0.
    9000005    1    3    3    0    0  0.40818027340E+02 -0.70422538978E+02 -0.31264247034E+03  0.32306618456E+03  0.99999687468E+00 0.  0.
          4    1    3    3  501    0  0.19198568938E+03 -0.23467902085E+03  0.20650728999E+02  0.30390656518E+03  0.00000000000E+00 0.  1.
   -9000007    1    1    2    0  503 -0.23280371672E+03  0.30510155982E+03  0.15496054697E+03  0.57558431480E+03  0.40000000000E+03 0.  1.
<mgrwt>
<rscale>  2 0.55470513E+03</rscale>
<asrwt>0</asrwt>
<pdfrwt beam="1">  1       21 0.81963529E-01 0.55482939E+03</pdfrwt>
<pdfrwt beam="2">  1       21 0.10304525E+00 0.55482939E+03</pdfrwt>
<totfact> 0.80989527E+02</totfact>
</mgrwt>
</event>
<event>
 6    1  0.9163926E-004  0.4929713E+03  0.7818608E-02  0.1015638E+00
         21   -1    0    0  501  502  0.00000000000E+00  0.00000000000E+00  0.57437608057E+03  0.57437608057E+03  0.00000000000E+00 0. -1.
         21   -1    0    0  502  503 -0.00000000000E+00 -0.00000000000E+00 -0.60826751279E+03  0.60826751279E+03  0.00000000000E+00 0. -1.
    9000007    2    1    2  501    0  0.25316526828E+03 -0.13716247873E+03  0.30939368897E+03  0.58201819174E+03  0.40014312703E+03 0.  0.
    9000005    1    3    3    0    0  0.30170119554E+03 -0.23548222381E+03  0.25225105144E+03  0.45837439072E+03  0.99999687468E+00 0.  0.
          4    1    3    3  501    0 -0.48535927259E+02  0.98319745081E+02  0.57142637527E+02  0.12364380102E+03  0.00000000000E+00 0.  1.
   -9000007    1    1    2    0  503 -0.25316526828E+03  0.13716247873E+03 -0.34328512119E+03  0.60062540161E+03  0.40000000000E+03 0. -1.
<mgrwt>
<rscale>  2 0.49294227E+03</rscale>
<asrwt>0</asrwt>
<pdfrwt beam="1">  1       21 0.88365551E-01 0.49297132E+03</pdfrwt>
<pdfrwt beam="2">  1       21 0.93579617E-01 0.49297132E+03</pdfrwt>
<totfact> 0.87675231E+02</totfact>
</mgrwt>
</event>
<event>
 6    1  0.9163926E-004  0.6147421E+03  0.7818608E-02  0.9875368E-01
         21   -1    0    0  501  502  0.00000000000E+00  0.00000000000E+00  0.68232842881E+03  0.68232842881E+03  0.00000000000E+00 0.  1.
         21   -1    0    0  502  503 -0.00000000000E+00 -0.00000000000E+00 -0.59238495723E+03  0.59238495723E+03  0.00000000000E+00 0. -1.
    9000007    2    1    2  501    0  0.46585266528E+03 -0.26144547671E+02  0.20785204006E+03  0.64893013791E+03  0.40025693025E+03 0.  0.
    9000005    1    3    3    0    0  0.22288131813E+03 -0.11678390348E+03 -0.77552247359E+02  0.26330574082E+03  0.99999687468E+00 0.  0.
          4    1    3    3  501    0  0.24297134714E+03  0.90639355811E+02  0.28540428742E+03  0.38562439709E+03  0.00000000000E+00 0.  1.
   -9000007    1    1    2    0  503 -0.46585266528E+03  0.26144547671E+02 -0.11790856848E+03  0.62578324813E+03  0.40000000000E+03 0. -1.
<mgrwt>
<rscale>  2 0.61470028E+03</rscale>
<asrwt>0</asrwt>
<pdfrwt beam="1">  1       21 0.10497360E+00 0.61474210E+03</pdfrwt>
<pdfrwt beam="2">  1       21 0.91136147E-01 0.61474210E+03</pdfrwt>
<totfact> 0.59037346E+02</totfact>
</mgrwt>
</event>
<event>
 6    1  0.9163926E-004  0.5362824E+03  0.7818608E-02  0.1004902E+00
         21   -1    0    0  501  502  0.00000000000E+00  0.00000000000E+00  0.21401461704E+04  0.21401461704E+04  0.00000000000E+00 0.  1.
         21   -1    0    0  502  503 -0.00000000000E+00 -0.00000000000E+00 -0.34739243223E+03  0.34739243223E+03  0.00000000000E+00 0.  1.
    9000007    2    1    2  501    0  0.14511579416E+03 -0.32640491942E+03  0.18710665029E+04  0.19455684427E+04  0.39591405864E+03 0.  0.
    9000005    1    3    3    0    0  0.25481391243E+03 -0.16185573953E+03  0.77334986635E+03  0.83017975533E+03  0.99999687468E+00 0.  0.
          4    1    3    3  501    0 -0.10969811827E+03 -0.16454917989E+03  0.10977166365E+04  0.11153886873E+04  0.00000000000E+00 0.  1.
   -9000007    1    1    2    0  503 -0.14511579416E+03  0.32640491942E+03 -0.78312764724E+02  0.54197015993E+03  0.40000000000E+03 0.  1.
<mgrwt>
<rscale>  2 0.53552057E+03</rscale>
<asrwt>0</asrwt>
<pdfrwt beam="1">  1       21 0.32925325E+00 0.53628236E+03</pdfrwt>
<pdfrwt beam="2">  1       21 0.53444991E-01 0.53628236E+03</pdfrwt>
<totfact> 0.55022325E+01</totfact>
</mgrwt>
</event>
<event>
 6    1  0.9163926E-004  0.4152184E+03  0.7818608E-02  0.1038696E+00
         21   -1    0    0  501  502  0.00000000000E+00  0.00000000000E+00  0.26442659570E+03  0.26442659570E+03  0.00000000000E+00 0. -1.
         21   -1    0    0  502  503 -0.00000000000E+00 -0.00000000000E+00 -0.12720695562E+04  0.12720695562E+04  0.00000000000E+00 0. -1.
    9000007    2    1    2  501    0 -0.34077338229E+02 -0.10604255395E+03  0.33298073011E+02  0.41579792156E+03  0.39921530742E+03 0.  0.
    9000005    1    3    3    0    0 -0.17583444074E+03  0.46539841662E+02  0.85649954071E+02  0.20104880512E+03  0.99999687468E+00 0.  0.
          4    1    3    3  501    0  0.14175710251E+03 -0.15258239561E+03 -0.52351881060E+02  0.21474911645E+03  0.00000000000E+00 0.  1.
   -9000007    1    1    2    0  503  0.34077338229E+02  0.10604255395E+03 -0.10409410335E+04  0.11206982303E+04  0.40000000000E+03 0. -1.
<mgrwt>
<rscale>  2 0.41502926E+03</rscale>
<asrwt>0</asrwt>
<pdfrwt beam="1">  1       21 0.40681015E-01 0.41521836E+03</pdfrwt>
<pdfrwt beam="2">  1       21 0.19570301E+00 0.41521836E+03</pdfrwt>
<totfact> 0.70309100E+02</totfact>
</mgrwt>
</event>
<event>
 6    1  0.9163926E-004  0.7005897E+03  0.7818608E-02  0.9716319E-01
         21   -1    0    0  501  502  0.00000000000E+00  0.00000000000E+00  0.70623593207E+03  0.70623593207E+03  0.00000000000E+00 0. -1.
         21   -1    0    0  502  503 -0.00000000000E+00 -0.00000000000E+00 -0.79777025537E+03  0.79777025537E+03  0.00000000000E+00 0.  1.
    9000007    2    1    2  501    0  0.42972023298E+03  0.38190963395E+03  0.22443804806E+03  0.73566187231E+03  0.40038919293E+03 0.  0.
    9000005    1    3    3    0    0  0.34671093587E+03  0.41170042256E+03  0.30289796752E+03  0.61761953475E+03  0.99999687468E+00 0.  0.
          4    1    3    3  501    0  0.83009297116E+02 -0.29790788609E+02 -0.78459919466E+02  0.11804233756E+03  0.00000000000E+00 0.  1.
   -9000007    1    1    2    0  503 -0.42972023298E+03 -0.38190963395E+03 -0.31597237135E+03  0.76834431513E+03  0.40000000000E+03 0.  1.
<mgrwt>
<rscale>  2 0.70053412E+03</rscale>
<asrwt>0</asrwt>
<pdfrwt beam="1">  1       21 0.10865168E+00 0.70058972E+03</pdfrwt>
<pdfrwt beam="2">  1       21 0.12273389E+00 0.70058972E+03</pdfrwt>
<totfact> 0.25170623E+02</totfact>
</mgrwt>
</event>
<event>
 6    1  0.9163926E-004  0.4337087E+03  0.7818608E-02  0.1032713E+00
         21   -1    0    0  501  502  0.00000000000E+00  0.00000000000E+00  0.19655570433E+03  0.19655570433E+03  0.00000000000E+00 0. -1.
         21   -1    0    0  502  503 -0.00000000000E+00 -0.00000000000E+00 -0.95649764834E+03  0.95649764834E+03  0.00000000000E+00 0. -1.
    9000007    2    1    2  501    0 -0.10372996630E+03  0.13090685107E+03 -0.37704398502E+03  0.57468724322E+03  0.40025835571E+03 0.  0.
    9000005    1    3    3    0    0 -0.21407420388E+03  0.17956773708E+03 -0.35552484188E+03  0.45218497338E+03  0.99999687468E+00 0.  0.
          4    1    3    3  501    0  0.11034423758E+03 -0.48660886008E+02 -0.21519143136E+02  0.12250226984E+03  0.00000000000E+00 0.  1.
   -9000007    1    1    2    0  503  0.10372996630E+03 -0.13090685107E+03 -0.38289795899E+03  0.57836610945E+03  0.40000000000E+03 0. -1.
<mgrwt>
<rscale>  2 0.43364911E+03</rscale>
<asrwt>0</asrwt>
<pdfrwt beam="1">  1       21 0.30239339E-01 0.43370873E+03</pdfrwt>
<pdfrwt beam="2">  1       21 0.14715349E+00 0.43370873E+03</pdfrwt>
<totfact> 0.28622115E+03</totfact>
</mgrwt>
</event>
<event>
 6    1  0.9163926E-004  0.4067531E+03  0.7818608E-02  0.1041625E+00
         21   -1    0    0  501  502  0.00000000000E+00  0.00000000000E+00  0.58422693874E+02  0.58422693874E+02  0.00000000000E+00 0.  1.
         21   -1    0    0  502  503 -0.00000000000E+00 -0.00000000000E+00 -0.28716962475E+04  0.28716962475E+04  0.00000000000E+00 0.  1.
    9000007    2    1    2  501    0 -0.59897408519E+02  0.43132419619E+02 -0.16020524600E+04  0.16524238906E+04  0.39810114845E+03 0.  0.
    9000005    1    3    3    0    0 -0.10751009285E+02  0.91064788688E+02 -0.61665642882E+02  0.11050806054E+03  0.99999687468E+00 0.  0.
          4    1    3    3  501    0 -0.49146399234E+02 -0.47932369068E+02 -0.15403868172E+04  0.15419158301E+04  0.00000000000E+00 0.  1.
   -9000007    1    1    2    0  503  0.59897408519E+02 -0.43132419619E+02 -0.12112210935E+04  0.12776950507E+04  0.40000000000E+03 0. -1.
<mgrwt>
<rscale>  2 0.40628553E+03</rscale>
<asrwt>0</asrwt>
<pdfrwt beam="1">  1       21 0.89881050E-02 0.40675313E+03</pdfrwt>
<pdfrwt beam="2">  1       21 0.44179951E+00 0.40675313E+03</pdfrwt>
<totfact> 0.36450521E+02</totfact>
</mgrwt>
</event>
<event>
 6    1  0.9163926E-004  0.4202915E+03  0.7818608E-02  0.1036976E+00
         21   -1    0    0  501  502  0.00000000000E+00  0.00000000000E+00  0.53026543083E+03  0.53026543083E+03  0.00000000000E+00 0.  1.
         21   -1    0    0  502  503 -0.00000000000E+00 -0.00000000000E+00 -0.33939271134E+03  0.33939271134E+03  0.00000000000E+00 0.  1.
    9000007    2    1    2  501    0 -0.62112226742E+02  0.11307978526E+03  0.15470918538E+03  0.44781365928E+03  0.39994646498E+03 0.  0.
    9000005    1    3    3    0    0  0.12927900268E+03 -0.21838013975E+02  0.16819343292E+03  0.21326038136E+03  0.99999687468E+00 0.  0.
          4    1    3    3  501    0 -0.19139122942E+03  0.13491779924E+03 -0.13484247541E+02  0.23455327792E+03  0.00000000000E+00 0.  1.
   -9000007    1    1    2    0  503  0.62112226742E+02 -0.11307978526E+03  0.36163534108E+02  0.42184448289E+03  0.40000000000E+03 0. -1.
<mgrwt>
<rscale>  2 0.42027879E+03</rscale>
<asrwt>0</asrwt>
<pdfrwt beam="1">  1       21 0.81579297E-01 0.42029153E+03</pdfrwt>
<pdfrwt beam="2">  1       21 0.52214263E-01 0.42029153E+03</pdfrwt>
<totfact> 0.40524079E+03</totfact>
</mgrwt>
</event>
<event>
 6    1  0.9163926E-004  0.4986471E+03  0.7818608E-02  0.1014312E+00
         21   -1    0    0  501  502  0.00000000000E+00  0.00000000000E+00  0.39240373118E+03  0.39240373118E+03  0.00000000000E+00 0. -1.
         21   -1    0    0  502  503 -0.00000000000E+00 -0.00000000000E+00 -0.12930263555E+04  0.12930263555E+04  0.00000000000E+00 0.  1.
    9000007    2    1    2  501    0  0.28152817289E+03  0.81695998221E+02  0.15245011285E+03  0.52143071468E+03  0.40338146344E+03 0.  0.
    9000005    1    3    3    0    0  0.47459754018E+01 -0.14224976635E+03  0.51481294551E+02  0.15135667805E+03  0.99999687468E+00 0.  0.
          4    1    3    3  501    0  0.27678219749E+03  0.22394576457E+03  0.10096881830E+03  0.37007403663E+03  0.00000000000E+00 0.  1.
   -9000007    1    1    2    0  503 -0.28152817289E+03 -0.81695998221E+02 -0.10530727372E+04  0.11639993720E+04  0.40000000000E+03 0.  1.
<mgrwt>
<rscale>  2 0.49796285E+03</rscale>
<asrwt>0</asrwt>
<pdfrwt beam="1">  1       21 0.60369805E-01 0.49864712E+03</pdfrwt>
<pdfrwt beam="2">  1       21 0.19892713E+00 0.49864712E+03</pdfrwt>
<totfact> 0.27733010E+02</totfact>
</mgrwt>
</event>
<event>
 6    1  0.9163926E-004  0.5301265E+03  0.7818608E-02  0.1006207E+00
         21   -1    0    0  501  502  0.00000000000E+00  0.00000000000E+00  0.28944861366E+03  0.28944861366E+03  0.00000000000E+00 0.  1.
         21   -1    0    0  502  503 -0.00000000000E+00 -0.00000000000E+00 -0.98760202251E+03  0.98760202251E+03  0.00000000000E+00 0. -1.
    9000007    2    1    2  501    0 -0.33746997741E+03 -0.84546314961E+02 -0.26568907951E+03  0.59290192341E+03  0.39988490692E+03 0.  0.
    9000005    1    3    3    0    0 -0.15806746532E+03 -0.59465507440E+02 -0.35336719474E+03  0.39165143237E+03  0.99999687468E+00 0.  0.
          4    1    3    3  501    0 -0.17940251209E+03 -0.25080807521E+02  0.87678115234E+02  0.20125049104E+03  0.00000000000E+00 0.  1.
   -9000007    1    1    2    0  503  0.33746997741E+03  0.84546314961E+02 -0.43246432934E+03  0.68414871277E+03  0.40000000000E+03 0. -1.
<mgrwt>
<rscale>  2 0.53010475E+03</rscale>
<asrwt>0</asrwt>
<pdfrwt beam="1">  1       21 0.44530557E-01 0.53012646E+03</pdfrwt>
<pdfrwt beam="2">  1       21 0.15193877E+00 0.53012646E+03</pdfrwt>
<totfact> 0.11490377E+03</totfact>
</mgrwt>
</event>
<event>
 6    1  0.9163926E-004  0.4046754E+03  0.7818608E-02  0.1042247E+00
         21   -1    0    0  501  502  0.00000000000E+00  0.00000000000E+00  0.31390381460E+03  0.31390381460E+03  0.00000000000E+00 0. -1.
         21   -1    0    0  502  503 -0.00000000000E+00 -0.00000000000E+00 -0.62459255530E+03  0.62459255530E+03  0.00000000000E+00 0. -1.
    9000007    2    1    2  501    0  0.54534041659E+02 -0.93094165911E+01  0.36009467868E+02  0.40627435348E+03  0.40087596783E+03 0.  0.
    9000005    1    3    3    0    0 -0.92657824965E+02 -0.12994106326E+03 -0.84930783093E+02  0.18078824729E+03  0.99999687468E+00 0.  0.
          4    1    3    3  501    0  0.14719186662E+03  0.12063164667E+03  0.12094025096E+03  0.22548610618E+03  0.00000000000E+00 0.  1.
   -9000007    1    1    2    0  503 -0.54534041659E+02  0.93094165911E+01 -0.34669820857E+03  0.53222201642E+03  0.40000000000E+03 0. -1.
<mgrwt>
<rscale>  2 0.40445828E+03</rscale>
<asrwt>0</asrwt>
<pdfrwt beam="1">  1       21 0.48292895E-01 0.40467539E+03</pdfrwt>
<pdfrwt beam="2">  1       21 0.96091161E-01 0.40467539E+03</pdfrwt>
<totfact> 0.32722224E+03</totfact>
</mgrwt>
</event>
<event>
 6    1  0.9163926E-004  0.4782005E+03  0.7818608E-02  0.1019736E+00
         21   -1    0    0  501  502  0.00000000000E+00  0.00000000000E+00  0.11272514504E+04  0.11272514504E+04  0.00000000000E+00 0. -1.
         21   -1    0    0  502  503 -0.00000000000E+00 -0.00000000000E+00 -0.21208994201E+03  0.21208994201E+03  0.00000000000E+00 0. -1.
    9000007    2    1    2  501    0 -0.20021585470E+03 -0.16908365599E+03  0.60136742776E+03  0.76737776049E+03  0.39818359198E+03 0.  0.
    9000005    1    3    3    0    0 -0.41899614691E+02 -0.14633258686E+03  0.75565291422E+01  0.15240375590E+03  0.99999687468E+00 0.  0.
          4    1    3    3  501    0 -0.15831624001E+03 -0.22751069136E+02  0.59381089862E+03  0.61497400459E+03  0.00000000000E+00 0.  1.
   -9000007    1    1    2    0  503  0.20021585470E+03  0.16908365599E+03  0.31379408061E+03  0.57196363190E+03  0.40000000000E+03 0.  1.
<mgrwt>
<rscale>  2 0.47782042E+03</rscale>
<asrwt>0</asrwt>
<pdfrwt beam="1">  1       21 0.17342330E+00 0.47820045E+03</pdfrwt>
<pdfrwt beam="2">  1       21 0.32629222E-01 0.47820045E+03</pdfrwt>
<totfact> 0.15292478E+03</totfact>
</mgrwt>
</event>
<event>
 6    1  0.9163926E-004  0.6225717E+03  0.7818608E-02  0.9859901E-01
         21   -1    0    0  501  502  0.00000000000E+00  0.00000000000E+00  0.30951361288E+04  0.30951361288E+04  0.00000000000E+00 0.  1.
         21   -1    0    0  502  503 -0.00000000000E+00 -0.00000000000E+00 -0.17715700596E+03  0.17715700596E+03  0.00000000000E+00 0. -1.
    9000007    2    1    2  501    0  0.44617581220E+03 -0.16702655271E+03  0.23460969829E+04  0.24272961485E+04  0.40078025780E+03 0.  0.
    9000005    1    3    3    0    0  0.37300941721E+02 -0.12477519895E+03  0.17788240833E+03  0.22046170124E+03  0.99999687468E+00 0.  0.
          4    1    3    3  501    0  0.40887487047E+03 -0.42251353759E+02  0.21682145745E+04  0.22068344473E+04  0.00000000000E+00 0.  1.
   -9000007    1    1    2    0  503 -0.44617581220E+03  0.16702655271E+03  0.57188214002E+03  0.84499698625E+03  0.40000000000E+03 0.  1.
<mgrwt>
<rscale>  2 0.62244618E+03</rscale>
<asrwt>0</asrwt>
<pdfrwt beam="1">  1       21 0.47617475E+00 0.62257171E+03</pdfrwt>
<pdfrwt beam="2">  1       21 0.27254926E-01 0.62257171E+03</pdfrwt>
<totfact> 0.23266716E+01</totfact>
</mgrwt>
</event>
<event>
 6    1  0.9163926E-004  0.4058740E+03  0.7818608E-02  0.1042179E+00
         21   -1    0    0  501  502  0.00000000000E+00  0.00000000000E+00  0.88293578094E+02  0.88293578094E+02  0.00000000000E+00 0. -1.
         21   -1    0    0  502  503 -0.00000000000E+00 -0.00000000000E+00 -0.21052079912E+04  0.21052079912E+04  0.00000000000E+00 0. -1.
    9000007    2    1    2  501    0 -0.16270745956E+02 -0.23610570745E+02 -0.62709734457E+03  0.74698379193E+03  0.40485986418E+03 0.  0.
    9000005    1    3    3    0    0 -0.10567483417E+03 -0.17990402199E+03 -0.44191529194E+03  0.48869494876E+03  0.99999687468E+00 0.  0.
          4    1    3    3  501    0  0.89404088213E+02  0.15629345124E+03 -0.18518205263E+03  0.25828884317E+03  0.00000000000E+00 0.  1.
   -9000007    1    1    2    0  503  0.16270745956E+02  0.23610570745E+02 -0.13898170685E+04  0.14465177774E+04  0.40000000000E+03 0.  1.
<mgrwt>
<rscale>  2 0.40465664E+03</rscale>
<asrwt>0</asrwt>
<pdfrwt beam="1">  1       21 0.13583628E-01 0.40587400E+03</pdfrwt>
<pdfrwt beam="2">  1       21 0.32387813E+00 0.40587400E+03</pdfrwt>
<totfact> 0.95847029E+02</totfact>
</mgrwt>
</event>
<event>
 6    1  0.9163926E-004  0.4035298E+03  0.7818608E-02  0.1042630E+00
         21   -1    0    0  501  502  0.00000000000E+00  0.00000000000E+00  0.65232559516E+03  0.65232559516E+03  0.00000000000E+00 0. -1.
         21   -1    0    0  502  503 -0.00000000000E+00 -0.00000000000E+00 -0.34521468534E+03  0.34521468534E+03  0.00000000000E+00 0. -1.
    9000007    2    1    2  501    0  0.43364753048E+02  0.18302297761E+02  0.41677388153E+03  0.58011790056E+03  0.40077529155E+03 0.  0.
    9000005    1    3    3    0    0  0.16047649289E+03 -0.53042066750E+01  0.43087555475E+03  0.45982125120E+03  0.99999687468E+00 0.  0.
          4    1    3    3  501    0 -0.11711173985E+03  0.23606504437E+02 -0.14101673213E+02  0.12029664937E+03  0.00000000000E+00 0.  1.
   -9000007    1    1    2    0  503 -0.43364753048E+02 -0.18302297761E+02 -0.10966297171E+03  0.41742237994E+03  0.40000000000E+03 0. -1.
<mgrwt>
<rscale>  2 0.40333718E+03</rscale>
<asrwt>0</asrwt>
<pdfrwt beam="1">  1       21 0.10035778E+00 0.40352981E+03</pdfrwt>
<pdfrwt beam="2">  1       21 0.53109952E-01 0.40352981E+03</pdfrwt>
<totfact> 0.24087209E+03</totfact>
</mgrwt>
</event>
<event>
 6    1  0.9163926E-004  0.4114365E+03  0.7818608E-02  0.1039905E+00
         21   -1    0    0  501  502  0.00000000000E+00  0.00000000000E+00  0.57846677844E+03  0.57846677844E+03  0.00000000000E+00 0.  1.
         21   -1    0    0  502  503 -0.00000000000E+00 -0.00000000000E+00 -0.42461943466E+03  0.42461943466E+03  0.00000000000E+00 0.  1.
    9000007    2    1    2  501    0 -0.87130644943E+01 -0.95152279633E+02  0.35669311420E+03  0.54452729607E+03  0.40018761180E+03 0.  0.
    9000005    1    3    3    0    0 -0.80549589477E+02  0.12897016852E+03  0.23412041951E+03  0.27916824955E+03  0.99999687468E+00 0.  0.
          4    1    3    3  501    0  0.71836524982E+02 -0.22412244815E+03  0.12257269469E+03  0.26535904652E+03  0.00000000000E+00 0.  1.
   -9000007    1    1    2    0  503  0.87130644943E+01  0.95152279633E+02 -0.20284577043E+03  0.45855891703E+03  0.40000000000E+03 0.  1.
<mgrwt>
<rscale>  2 0.41139088E+03</rscale>
<asrwt>0</asrwt>
<pdfrwt beam="1">  1       21 0.88994889E-01 0.41143651E+03</pdfrwt>
<pdfrwt beam="2">  1       21 0.65326067E-01 0.41143651E+03</pdfrwt>
<totfact> 0.20370684E+03</totfact>
</mgrwt>
</event>
<event>
 6    1  0.9163926E-004  0.4553794E+03  0.7818608E-02  0.1026232E+00
         21   -1    0    0  501  502  0.00000000000E+00  0.00000000000E+00  0.89201195343E+03  0.89201195343E+03  0.00000000000E+00 0. -1.
         21   -1    0    0  502  503 -0.00000000000E+00 -0.00000000000E+00 -0.24176186659E+03  0.24176186659E+03  0.00000000000E+00 0.  1.
    9000007    2    1    2  501    0  0.19045854367E+03  0.99189888890E+02  0.21035092234E+03  0.50161532261E+03  0.40156858745E+03 0.  0.
    9000005    1    3    3    0    0 -0.25146011856E+02 -0.25498576372E+02  0.24725127243E+03  0.24983332649E+03  0.99999687468E+00 0.  0.
          4    1    3    3  501    0  0.21560455553E+03  0.12468846526E+03 -0.36900350092E+02  0.25178199612E+03  0.00000000000E+00 0.  1.
   -9000007    1    1    2    0  503 -0.19045854367E+03 -0.99189888890E+02  0.43989916450E+03  0.63215849741E+03  0.40000000000E+03 0. -1.
<mgrwt>
<rscale>  2 0.45503337E+03</rscale>
<asrwt>0</asrwt>
<pdfrwt beam="1">  1       21 0.13723261E+00 0.45537943E+03</pdfrwt>
<pdfrwt beam="2">  1       21 0.37194134E-01 0.45537943E+03</pdfrwt>
<totfact> 0.22548191E+03</totfact>
</mgrwt>
</event>
<event>
 6    1  0.9163926E-004  0.7530288E+03  0.7818608E-02  0.9630812E-01
         21   -1    0    0  501  502  0.00000000000E+00  0.00000000000E+00  0.13478136323E+04  0.13478136323E+04  0.00000000000E+00 0. -1.
         21   -1    0    0  502  503 -0.00000000000E+00 -0.00000000000E+00 -0.47467013896E+03  0.47467013896E+03  0.00000000000E+00 0.  1.
    9000007    2    1    2  501    0  0.44412523370E+03  0.45804497723E+03  0.74446611834E+03  0.10585398655E+04  0.39902934857E+03 0.  0.
    9000005    1    3    3    0    0  0.39398584855E+03  0.18847255490E+03  0.61758179236E+03  0.75640929599E+03  0.99999687468E+00 0.  0.
          4    1    3    3  501    0  0.50139385148E+02  0.26957242233E+03  0.12688432598E+03  0.30213056946E+03  0.00000000000E+00 0.  1.
   -9000007    1    1    2    0  503 -0.44412523370E+03 -0.45804497723E+03  0.12867737499E+03  0.76394390580E+03  0.40000000000E+03 0. -1.
<mgrwt>
<rscale>  2 0.75290001E+03</rscale>
<asrwt>0</asrwt>
<pdfrwt beam="1">  1       21 0.20735594E+00 0.75302883E+03</pdfrwt>
<pdfrwt beam="2">  1       21 0.73026176E-01 0.75302883E+03</pdfrwt>
<totfact> 0.14413734E+02</totfact>
</mgrwt>
</event>
<event>
 6    1  0.9163926E-004  0.4448780E+03  0.7818608E-02  0.1029275E+00
         21   -1    0    0  501  502  0.00000000000E+00  0.00000000000E+00  0.32741768051E+03  0.32741768051E+03  0.00000000000E+00 0. -1.
         21   -1    0    0  502  503 -0.00000000000E+00 -0.00000000000E+00 -0.71241607325E+03  0.71241607325E+03  0.00000000000E+00 0. -1.
    9000007    2    1    2  501    0  0.19345225693E+03 -0.18123576625E+02  0.10076678576E+02  0.44499213474E+03  0.40020522334E+03 0.  0.
    9000005    1    3    3    0    0  0.19847613225E+03 -0.14533205350E+03  0.12280551023E+03  0.27494794814E+03  0.99999687468E+00 0.  0.
          4    1    3    3  501    0 -0.50238753181E+01  0.12720847688E+03 -0.11272883165E+03  0.17004418660E+03  0.00000000000E+00 0.  1.
   -9000007    1    1    2    0  503 -0.19345225693E+03  0.18123576625E+02 -0.39507507132E+03  0.59484161902E+03  0.40000000000E+03 0. -1.
<mgrwt>
<rscale>  2 0.44483187E+03</rscale>
<asrwt>0</asrwt>
<pdfrwt beam="1">  1       21 0.50371951E-01 0.44487803E+03</pdfrwt>
<pdfrwt beam="2">  1       21 0.10960247E+00 0.44487803E+03</pdfrwt>
<totfact> 0.21368131E+03</totfact>
</mgrwt>
</event>
<event>
 6    1  0.9163926E-004  0.4195432E+03  0.7818608E-02  0.1037256E+00
         21   -1    0    0  501  502  0.00000000000E+00  0.00000000000E+00  0.67293680037E+03  0.67293680037E+03  0.00000000000E+00 0.  1.
         21   -1    0    0  502  503 -0.00000000000E+00 -0.00000000000E+00 -0.29886539281E+03  0.29886539281E+03  0.00000000000E+00 0.  1.
    9000007    2    1    2  501    0  0.87110221214E+02 -0.91805810377E+02  0.35932274580E+03  0.55199983435E+03  0.39946775090E+03 0.  0.
    9000005    1    3    3    0    0  0.16877540897E+03  0.83115660264E+02  0.63115448605E+02  0.19843868448E+03  0.99999687468E+00 0.  0.
          4    1    3    3  501    0 -0.81665187752E+02 -0.17492147064E+03  0.29620729720E+03  0.35356114987E+03  0.00000000000E+00 0.  1.
   -9000007    1    1    2    0  503 -0.87110221214E+02  0.91805810377E+02  0.14748661754E+02  0.41980235883E+03  0.40000000000E+03 0.  1.
<mgrwt>
<rscale>  2 0.41941629E+03</rscale>
<asrwt>0</asrwt>
<pdfrwt beam="1">  1       21 0.10352874E+00 0.41954320E+03</pdfrwt>
<pdfrwt beam="2">  1       21 0.45979291E-01 0.41954320E+03</pdfrwt>
<totfact> 0.30112286E+03</totfact>
</mgrwt>
</event>
<event>
 6    1  0.9163926E-004  0.4312445E+03  0.7818608E-02  0.1033478E+00
         21   -1    0    0  501  502  0.00000000000E+00  0.00000000000E+00  0.33457279801E+03  0.33457279801E+03  0.00000000000E+00 0.  1.
         21   -1    0    0  502  503 -0.00000000000E+00 -0.00000000000E+00 -0.89438226377E+03  0.89438226377E+03  0.00000000000E+00 0.  1.
    9000007    2    1    2  501    0 -0.99230256254E+02 -0.12698493236E+03  0.98268712955E+02  0.44216493341E+03  0.39985156194E+03 0.  0.
    9000005    1    3    3    0    0  0.74972923310E+02 -0.16838869345E+03 -0.69305265928E+02  0.19692615670E+03  0.99999687468E+00 0.  0.
          4    1    3    3  501    0 -0.17420317956E+03  0.41403761093E+02  0.16757397888E+03  0.24523877671E+03  0.00000000000E+00 0.  1.
   -9000007    1    1    2    0  503  0.99230256254E+02  0.12698493236E+03 -0.65807817872E+03  0.78679012837E+03  0.40000000000E+03 0.  1.
<mgrwt>
<rscale>  2 0.43121007E+03</rscale>
<asrwt>0</asrwt>
<pdfrwt beam="1">  1       21 0.51472738E-01 0.43124450E+03</pdfrwt>
<pdfrwt beam="2">  1       21 0.13759727E+00 0.43124450E+03</pdfrwt>
<totfact> 0.11480302E+03</totfact>
</mgrwt>
</event>
<event>
 6    1  0.9163926E-004  0.5279386E+03  0.7818608E-02  0.1006740E+00
         21   -1    0    0  501  502  0.00000000000E+00  0.00000000000E+00  0.75485151667E+03  0.75485151667E+03  0.00000000000E+00 0.  1.
         21   -1    0    0  502  503 -0.00000000000E+00 -0.00000000000E+00 -0.46179697436E+03  0.46179697436E+03  0.00000000000E+00 0.  1.
    9000007    2    1    2  501    0 -0.27449535419E+03  0.20796833352E+03 -0.12592365393E+03  0.54274845680E+03  0.40015071351E+03 0.  0.
    9000005    1    3    3    0    0  0.98546509703E+02  0.59117424205E+02 -0.76546432303E+02  0.13808200720E+03  0.99999687468E+00 0.  0.
          4    1    3    3  501    0 -0.37304186389E+03  0.14885090931E+03 -0.49377221625E+02  0.40466644960E+03  0.00000000000E+00 0.  1.
   -9000007    1    1    2    0  503  0.27449535419E+03 -0.20796833352E+03  0.41897819624E+03  0.67390003423E+03  0.40000000000E+03 0.  1.
<mgrwt>
<rscale>  2 0.52791000E+03</rscale>
<asrwt>0</asrwt>
<pdfrwt beam="1">  1       21 0.11613100E+00 0.52793856E+03</pdfrwt>
<pdfrwt beam="2">  1       21 0.71045688E-01 0.52793856E+03</pdfrwt>
<totfact> 0.84305748E+02</totfact>
</mgrwt>
</event>
<event>
 6    1  0.9163926E-004  0.5060741E+03  0.7818608E-02  0.1012308E+00
         21   -1    0    0  501  502  0.00000000000E+00  0.00000000000E+00  0.15256160608E+04  0.15256160608E+04  0.00000000000E+00 0.  1.
         21   -1    0    0  502  503 -0.00000000000E+00 -0.00000000000E+00 -0.94737136988E+03  0.94737136988E+03  0.00000000000E+00 0. -1.
    9000007    2    1    2  501    0 -0.27064071506E+03  0.14579476335E+03  0.14111850286E+04  0.14991845164E+04  0.40200562153E+03 0.  0.
    9000005    1    3    3    0    0 -0.81983426121E+02 -0.13849739161E+03  0.36907896748E+03  0.40264512150E+03  0.99999687468E+00 0.  0.
          4    1    3    3  501    0 -0.18865728894E+03  0.28429215495E+03  0.10421060611E+04  0.10965393949E+04  0.00000000000E+00 0.  1.
   -9000007    1    1    2    0  503  0.27064071506E+03 -0.14579476335E+03 -0.83294033767E+03  0.97380291425E+03  0.40000000000E+03 0. -1.
<mgrwt>
<rscale>  2 0.50567573E+03</rscale>
<asrwt>0</asrwt>
<pdfrwt beam="1">  1       21 0.23471016E+00 0.50607413E+03</pdfrwt>
<pdfrwt beam="2">  1       21 0.14574944E+00 0.50607413E+03</pdfrwt>
<totfact> 0.19291080E+01</totfact>
</mgrwt>
</event>
<event>
 6    1  0.9163926E-004  0.4866545E+03  0.7818608E-02  0.1017335E+00
         21   -1    0    0  501  502  0.00000000000E+00  0.00000000000E+00  0.17092912103E+03  0.17092912103E+03  0.00000000000E+00 0.  1.
         21   -1    0    0  502  503 -0.00000000000E+00 -0.00000000000E+00 -0.17923762271E+04  0.17923762271E+04  0.00000000000E+00 0. -1.
    9000007    2    1    2  501    0 -0.23564265593E+03 -0.14533984394E+03 -0.12788215642E+04  0.13682898916E+04  0.40022681440E+03 0.  0.
    9000005    1    3    3    0    0 -0.19811730279E+03 -0.10068299865E+03 -0.12899109722E+04  0.13089151417E+04  0.99999687468E+00 0.  0.
          4    1    3    3  501    0 -0.37525353144E+02 -0.44656845296E+02  0.11089408034E+02  0.59374749944E+02  0.00000000000E+00 0.  1.
   -9000007    1    1    2    0  503  0.23564265593E+03  0.14533984394E+03 -0.34262554188E+03  0.59501545650E+03  0.40000000000E+03 0. -1.
<mgrwt>
<rscale>  2 0.48660790E+03</rscale>
<asrwt>0</asrwt>
<pdfrwt beam="1">  1       21 0.26296788E-01 0.48665453E+03</pdfrwt>
<pdfrwt beam="2">  1       21 0.27575018E+00 0.48665453E+03</pdfrwt>
<totfact> 0.51065214E+02</totfact>
</mgrwt>
</event>
<event>
 6    1  0.9163926E-004  0.4682786E+03  0.7818608E-02  0.1022701E+00
         21   -1    0    0  501  502  0.00000000000E+00  0.00000000000E+00  0.54041658876E+03  0.54041658876E+03  0.00000000000E+00 0.  1.
         21   -1    0    0  502  503 -0.00000000000E+00 -0.00000000000E+00 -0.41580072715E+03  0.41580072715E+03  0.00000000000E+00 0. -1.
    9000007    2    1    2  501    0 -0.22762072373E+03 -0.60214933701E+02  0.14903718430E+03  0.49142334746E+03  0.40478116558E+03 0.  0.
    9000005    1    3    3    0    0  0.10661059671E+03  0.42268839524E+02  0.97354756366E+01  0.11510105823E+03  0.99999687468E+00 0.  0.
          4    1    3    3  501    0 -0.33423132044E+03 -0.10248377322E+03  0.13930170866E+03  0.37632228923E+03  0.00000000000E+00 0.  1.
   -9000007    1    1    2    0  503  0.22762072373E+03  0.60214933701E+02 -0.24421322686E+02  0.46479396846E+03  0.40000000000E+03 0. -1.
<mgrwt>
<rscale>  2 0.46724349E+03</rscale>
<asrwt>0</asrwt>
<pdfrwt beam="1">  1       21 0.83141014E-01 0.46827858E+03</pdfrwt>
<pdfrwt beam="2">  1       21 0.63969342E-01 0.46827858E+03</pdfrwt>
<totfact> 0.24500154E+03</totfact>
</mgrwt>
</event>
<event>
 6    1  0.9163926E-004  0.4199195E+03  0.7818608E-02  0.1037105E+00
         21   -1    0    0  501  502  0.00000000000E+00  0.00000000000E+00  0.27906510001E+03  0.27906510001E+03  0.00000000000E+00 0.  1.
         21   -1    0    0  502  503 -0.00000000000E+00 -0.00000000000E+00 -0.63207753226E+03  0.63207753226E+03  0.00000000000E+00 0.  1.
    9000007    2    1    2  501    0  0.92439263175E+02  0.87526429472E+02 -0.16457396114E+03  0.45101770290E+03  0.40015807678E+03 0.  0.
    9000005    1    3    3    0    0  0.13423040405E+02 -0.13785226972E+03  0.31462654237E+02  0.14203635058E+03  0.99999687468E+00 0.  0.
          4    1    3    3  501    0  0.79016222769E+02  0.22537869920E+03 -0.19603661538E+03  0.30898135232E+03  0.00000000000E+00 0.  1.
   -9000007    1    1    2    0  503 -0.92439263175E+02 -0.87526429472E+02 -0.18843847111E+03  0.46012492937E+03  0.40000000000E+03 0.  1.
<mgrwt>
<rscale>  2 0.41988183E+03</rscale>
<asrwt>0</asrwt>
<pdfrwt beam="1">  1       21 0.42933092E-01 0.41991949E+03</pdfrwt>
<pdfrwt beam="2">  1       21 0.97242697E-01 0.41991949E+03</pdfrwt>
<totfact> 0.40448920E+03</totfact>
</mgrwt>
</event>
<event>
 6    1  0.9163926E-004  0.4085049E+03  0.7818608E-02  0.1040914E+00
         21   -1    0    0  501  502  0.00000000000E+00  0.00000000000E+00  0.32667716944E+03  0.32667716944E+03  0.00000000000E+00 0.  1.
         21   -1    0    0  502  503 -0.00000000000E+00 -0.00000000000E+00 -0.51455272053E+03  0.51455272053E+03  0.00000000000E+00 0.  1.
    9000007    2    1    2  501    0 -0.67802207593E+02 -0.43483835817E+02 -0.55461255400E+02  0.41225258401E+03  0.40048502948E+03 0.  0.
    9000005    1    3    3    0    0 -0.26082637085E+02 -0.89598264293E+02 -0.21858737643E+03  0.23767539639E+03  0.99999687468E+00 0.  0.
          4    1    3    3  501    0 -0.41719570507E+02  0.46114428476E+02  0.16312612102E+03  0.17457718762E+03  0.00000000000E+00 0.  1.
   -9000007    1    1    2    0  503  0.67802207593E+02  0.43483835817E+02 -0.13241429569E+03  0.42897730597E+03  0.40000000000E+03 0. -1.
<mgrwt>
<rscale>  2 0.40838596E+03</rscale>
<asrwt>0</asrwt>
<pdfrwt beam="1">  1       21 0.50258026E-01 0.40850489E+03</pdfrwt>
<pdfrwt beam="2">  1       21 0.79161957E-01 0.40850489E+03</pdfrwt>
<totfact> 0.47322073E+03</totfact>
</mgrwt>
</event>
<event>
 6    1  0.9163926E-004  0.5070571E+03  0.7818608E-02  0.1011995E+00
         21   -1    0    0  501  502  0.00000000000E+00  0.00000000000E+00  0.20268789164E+04  0.20268789164E+04  0.00000000000E+00 0. -1.
         21   -1    0    0  502  503 -0.00000000000E+00 -0.00000000000E+00 -0.25208425605E+03  0.25208425605E+03  0.00000000000E+00 0. -1.
    9000007    2    1    2  501    0 -0.11863304334E+03  0.28701246738E+03  0.16913552150E+04  0.17657262911E+04  0.40082030440E+03 0.  0.
    9000005    1    3    3    0    0 -0.25201054936E+02  0.25954413325E+03  0.16297735038E+04  0.16505032335E+04  0.99999687468E+00 0.  0.
          4    1    3    3  501    0 -0.93431988402E+02  0.27468334131E+02  0.61581711165E+02  0.11522305753E+03  0.00000000000E+00 0.  1.
   -9000007    1    1    2    0  503  0.11863304334E+03 -0.28701246738E+03  0.83439445435E+02  0.51323688143E+03  0.40000000000E+03 0. -1.
<mgrwt>
<rscale>  2 0.50689494E+03</rscale>
<asrwt>0</asrwt>
<pdfrwt beam="1">  1       21 0.31182752E+00 0.50705707E+03</pdfrwt>
<pdfrwt beam="2">  1       21 0.38782195E-01 0.50705707E+03</pdfrwt>
<totfact> 0.14021092E+02</totfact>
</mgrwt>
</event>
<event>
 6    1  0.9163926E-004  0.4023294E+03  0.7818608E-02  0.1043015E+00
         21   -1    0    0  501  502  0.00000000000E+00  0.00000000000E+00  0.12765271911E+04  0.12765271911E+04  0.00000000000E+00 0. -1.
         21   -1    0    0  502  503 -0.00000000000E+00 -0.00000000000E+00 -0.17095381574E+03  0.17095381574E+03  0.00000000000E+00 0. -1.
    9000007    2    1    2  501    0 -0.37358070379E+02  0.21755492290E+02  0.92094658098E+03  0.10048118527E+04  0.39954389919E+03 0.  0.
    9000005    1    3    3    0    0 -0.17934698144E+02  0.14843767086E+03  0.84005173964E+03  0.85325454631E+03  0.99999687468E+00 0.  0.
          4    1    3    3  501    0 -0.19423372235E+02 -0.12668217857E+03  0.80894841336E+02  0.15155730636E+03  0.00000000000E+00 0.  1.
   -9000007    1    1    2    0  503  0.37358070379E+02 -0.21755492290E+02  0.18462679442E+03  0.44266915420E+03  0.40000000000E+03 0. -1.
<mgrwt>
<rscale>  2 0.40221596E+03</rscale>
<asrwt>0</asrwt>
<pdfrwt beam="1">  1       21 0.19638879E+00 0.40232938E+03</pdfrwt>
<pdfrwt beam="2">  1       21 0.26300588E-01 0.40232938E+03</pdfrwt>
<totfact> 0.16783872E+03</totfact>
</mgrwt>
</event>
<event>
 6    1  0.9163926E-004  0.5409745E+03  0.7818608E-02  0.1003606E+00
         21   -1    0    0  501  502  0.00000000000E+00  0.00000000000E+00  0.36619546262E+03  0.36619546262E+03  0.00000000000E+00 0.  1.
         21   -1    0    0  502  503 -0.00000000000E+00 -0.00000000000E+00 -0.15543443066E+04  0.15543443066E+04  0.00000000000E+00 0. -1.
    9000007    2    1    2  501    0  0.29127719566E+03 -0.21859872998E+03  0.75267796976E+02  0.54618558704E+03  0.40003205467E+03 0.  0.
    9000005    1    3    3    0    0  0.30945799049E+02 -0.24331282126E+03 -0.58937391190E+02  0.25225659068E+03  0.99999687468E+00 0.  0.
          4    1    3    3  501    0  0.26033139661E+03  0.24714091278E+02  0.13420518817E+03  0.29392899635E+03  0.00000000000E+00 0.  1.
   -9000007    1    1    2    0  503 -0.29127719566E+03  0.21859872998E+03 -0.12634166410E+04  0.13743541822E+04  0.40000000000E+03 0. -1.
<mgrwt>
<rscale>  2 0.54096862E+03</rscale>
<asrwt>0</asrwt>
<pdfrwt beam="1">  1       21 0.56337764E-01 0.54097454E+03</pdfrwt>
<pdfrwt beam="2">  1       21 0.23912989E+00 0.54097454E+03</pdfrwt>
<totfact> 0.17395277E+02</totfact>
</mgrwt>
</event>
<event>
 6    1  0.9163926E-004  0.4376332E+03  0.7818608E-02  0.1031498E+00
         21   -1    0    0  501  502  0.00000000000E+00  0.00000000000E+00  0.16038400738E+03  0.16038400738E+03  0.00000000000E+00 0. -1.
         21   -1    0    0  502  503 -0.00000000000E+00 -0.00000000000E+00 -0.14073662722E+04  0.14073662722E+04  0.00000000000E+00 0. -1.
    9000007    2    1    2  501    0 -0.13160715677E+03 -0.11917382371E+03 -0.92899181090E+03  0.10267874594E+04  0.39967969449E+03 0.  0.
    9000005    1    3    3    0    0 -0.18981674487E+03  0.37882422138E+02 -0.77653836688E+03  0.80029888777E+03  0.99999687468E+00 0.  0.
          4    1    3    3  501    0  0.58209588101E+02 -0.15705624584E+03 -0.15245344402E+03  0.22648857167E+03  0.00000000000E+00 0.  1.
   -9000007    1    1    2    0  503  0.13160715677E+03  0.11917382371E+03 -0.31799045391E+03  0.54096282011E+03  0.40000000000E+03 0. -1.
<mgrwt>
<rscale>  2 0.43756003E+03</rscale>
<asrwt>0</asrwt>
<pdfrwt beam="1">  1       21 0.24674462E-01 0.43763323E+03</pdfrwt>
<pdfrwt beam="2">  1       21 0.21651789E+00 0.43763323E+03</pdfrwt>
<totfact> 0.13790679E+03</totfact>
</mgrwt>
</event>
<event>
 6    1  0.9163926E-004  0.4630129E+03  0.7818608E-02  0.1023936E+00
         21   -1    0    0  501  502  0.00000000000E+00  0.00000000000E+00  0.37435092790E+03  0.37435092790E+03  0.00000000000E+00 0.  1.
         21   -1    0    0  502  503 -0.00000000000E+00 -0.00000000000E+00 -0.57260760299E+03  0.57260760299E+03  0.00000000000E+00 0. -1.
    9000007    2    1    2  501    0 -0.18266688272E+03 -0.14382688872E+03 -0.11122695939E+03  0.47618519331E+03  0.40040921302E+03 0.  0.
    9000005    1    3    3    0    0 -0.23102810243E+03 -0.56631743089E+02 -0.22324329078E+03  0.32622033245E+03  0.99999687468E+00 0.  0.
          4    1    3    3  501    0  0.48361219707E+02 -0.87195145635E+02  0.11201633139E+03  0.14996486085E+03  0.00000000000E+00 0.  1.
   -9000007    1    1    2    0  503  0.18266688272E+03  0.14382688872E+03 -0.87029715707E+02  0.47077333758E+03  0.40000000000E+03 0.  1.
<mgrwt>
<rscale>  2 0.46292437E+03</rscale>
<asrwt>0</asrwt>
<pdfrwt beam="1">  1       21 0.57592451E-01 0.46301285E+03</pdfrwt>
<pdfrwt beam="2">  1       21 0.88093477E-01 0.46301285E+03</pdfrwt>
<totfact> 0.26994620E+03</totfact>
</mgrwt>
</event>
<event>
 6    1  0.9163926E-004  0.4208427E+03  0.7818608E-02  0.1036824E+00
         21   -1    0    0  501  502  0.00000000000E+00  0.00000000000E+00  0.39105944892E+03  0.39105944892E+03  0.00000000000E+00 0.  1.
         21   -1    0    0  502  503 -0.00000000000E+00 -0.00000000000E+00 -0.48400057058E+03  0.48400057058E+03  0.00000000000E+00 0.  1.
    9000007    2    1    2  501    0 -0.80559984475E+02  0.10142677729E+03  0.65181759993E+02  0.42586056719E+03  0.40041385916E+03 0.  0.
    9000005    1    3    3    0    0  0.31646689948E+01  0.73387539953E+02 -0.16430164752E+03  0.17997715833E+03  0.99999687468E+00 0.  0.
          4    1    3    3  501    0 -0.83724653470E+02  0.28039237339E+02  0.22948340751E+03  0.24588340886E+03  0.00000000000E+00 0.  1.
   -9000007    1    1    2    0  503  0.80559984475E+02 -0.10142677729E+03 -0.15812288165E+03  0.44919945230E+03  0.40000000000E+03 0.  1.
<mgrwt>
<rscale>  2 0.42074421E+03</rscale>
<asrwt>0</asrwt>
<pdfrwt beam="1">  1       21 0.60162993E-01 0.42084268E+03</pdfrwt>
<pdfrwt beam="2">  1       21 0.74461626E-01 0.42084268E+03</pdfrwt>
<totfact> 0.36770025E+03</totfact>
</mgrwt>
</event>
<event>
 6    1  0.9163926E-004  0.1342583E+04  0.7818608E-02  0.8996493E-01
         21   -1    0    0  501  502  0.00000000000E+00  0.00000000000E+00  0.10331965915E+04  0.10331965915E+04  0.00000000000E+00 0. -1.
         21   -1    0    0  502  503 -0.00000000000E+00 -0.00000000000E+00 -0.17448936401E+04  0.17448936401E+04  0.00000000000E+00 0.  1.
    9000007    2    1    2  501    0  0.89711020554E+03 -0.91502761877E+03 -0.37927827710E+03  0.13951280110E+04  0.40055947316E+03 0.  0.
    9000005    1    3    3    0    0  0.79085431716E+03 -0.65103423387E+03 -0.16198894535E+03  0.10370812615E+04  0.99999687468E+00 0.  0.
          4    1    3    3  501    0  0.10625588838E+03 -0.26399338490E+03 -0.21728933175E+03  0.35804674943E+03  0.00000000000E+00 0.  1.
   -9000007    1    1    2    0  503 -0.89711020554E+03  0.91502761877E+03 -0.33241877147E+03  0.13829622206E+04  0.40000000000E+03 0.  1.
<mgrwt>
<rscale>  2 0.13425417E+04</rscale>
<asrwt>0</asrwt>
<pdfrwt beam="1">  1       21 0.15895332E+00 0.13425834E+04</pdfrwt>
<pdfrwt beam="2">  1       21 0.26844517E+00 0.13425834E+04</pdfrwt>
<totfact> 0.68701156E+00</totfact>
</mgrwt>
</event>
<event>
 6    1  0.9163926E-004  0.4900807E+03  0.7818608E-02  0.1016464E+00
         21   -1    0    0  501  502  0.00000000000E+00  0.00000000000E+00  0.16688823224E+04  0.16688823224E+04  0.00000000000E+00 0.  1.
         21   -1    0    0  502  503 -0.00000000000E+00 -0.00000000000E+00 -0.19249615511E+03  0.19249615511E+03  0.00000000000E+00 0.  1.
    9000007    2    1    2  501    0 -0.22880126889E+03  0.16682057710E+03  0.12065315710E+04  0.13019138864E+04  0.39885111272E+03 0.  0.
    9000005    1    3    3    0    0 -0.16379017500E+03 -0.19972827521E+02  0.13763611136E+03  0.21487399658E+03  0.99999687468E+00 0.  0.
          4    1    3    3  501    0 -0.65011093888E+02  0.18679340463E+03  0.10688954597E+04  0.10870398898E+04  0.00000000000E+00 0.  1.
   -9000007    1    1    2    0  503  0.22880126889E+03 -0.16682057710E+03  0.26985459628E+03  0.55946459112E+03  0.40000000000E+03 0.  1.
<mgrwt>
<rscale>  2 0.48984625E+03</rscale>
<asrwt>0</asrwt>
<pdfrwt beam="1">  1       21 0.25675112E+00 0.49008073E+03</pdfrwt>
<pdfrwt beam="2">  1       21 0.29614794E-01 0.49008073E+03</pdfrwt>
<totfact> 0.52630754E+02</totfact>
</mgrwt>
</event>
<event>
 6    1  0.9163926E-004  0.4037798E+03  0.7818608E-02  0.1042529E+00
         21   -1    0    0  501  502  0.00000000000E+00  0.00000000000E+00  0.64532367604E+03  0.64532367604E+03  0.00000000000E+00 0.  1.
         21   -1    0    0  502  503 -0.00000000000E+00 -0.00000000000E+00 -0.41668197861E+03  0.41668197861E+03  0.00000000000E+00 0.  1.
    9000007    2    1    2  501    0  0.27590791431E+02  0.47717015581E+02  0.44781388260E+03  0.60257708338E+03  0.39940418452E+03 0.  0.
    9000005    1    3    3    0    0 -0.44275559337E+02 -0.13456078867E+03  0.36189444238E+03  0.38863288387E+03  0.99999687468E+00 0.  0.
          4    1    3    3  501    0  0.71866350768E+02  0.18227780425E+03  0.85919440223E+02  0.21394419951E+03  0.00000000000E+00 0.  1.
   -9000007    1    1    2    0  503 -0.27590791431E+02 -0.47717015581E+02 -0.21917218517E+03  0.45942857127E+03  0.40000000000E+03 0. -1.
<mgrwt>
<rscale>  2 0.40363221E+03</rscale>
<asrwt>0</asrwt>
<pdfrwt beam="1">  1       21 0.99280565E-01 0.40377985E+03</pdfrwt>
<pdfrwt beam="2">  1       21 0.64104920E-01 0.40377985E+03</pdfrwt>
<totfact> 0.16416489E+03</totfact>
</mgrwt>
</event>
<event>
 6    1  0.9163926E-004  0.4608104E+03  0.7818608E-02  0.1024583E+00
         21   -1    0    0  501  502  0.00000000000E+00  0.00000000000E+00  0.34731439711E+03  0.34731439711E+03  0.00000000000E+00 0. -1.
         21   -1    0    0  502  503 -0.00000000000E+00 -0.00000000000E+00 -0.61938931899E+03  0.61938931899E+03  0.00000000000E+00 0. -1.
    9000007    2    1    2  501    0 -0.61302532455E+02 -0.22042731268E+03 -0.19311014076E+03  0.49917656468E+03  0.39942397974E+03 0.  0.
    9000005    1    3    3    0    0 -0.84638912517E+02  0.67196485619E+02 -0.18043951597E+03  0.21032957973E+03  0.99999687468E+00 0.  0.
          4    1    3    3  501    0  0.23336380062E+02 -0.28762379830E+03 -0.12670624796E+02  0.28884698495E+03  0.00000000000E+00 0.  1.
   -9000007    1    1    2    0  503  0.61302532455E+02  0.22042731268E+03 -0.78964781127E+02  0.46752715142E+03  0.40000000000E+03 0. -1.
<mgrwt>
<rscale>  2 0.46068534E+03</rscale>
<asrwt>0</asrwt>
<pdfrwt beam="1">  1       21 0.53432984E-01 0.46081037E+03</pdfrwt>
<pdfrwt beam="2">  1       21 0.95290664E-01 0.46081037E+03</pdfrwt>
<totfact> 0.26356265E+03</totfact>
</mgrwt>
</event>
<event>
 6    1  0.9163926E-004  0.4091593E+03  0.7818608E-02  0.1040731E+00
         21   -1    0    0  501  502  0.00000000000E+00  0.00000000000E+00  0.46947449922E+03  0.46947449922E+03  0.00000000000E+00 0. -1.
         21   -1    0    0  502  503 -0.00000000000E+00 -0.00000000000E+00 -0.41754376609E+03  0.41754376609E+03  0.00000000000E+00 0. -1.
    9000007    2    1    2  501    0  0.80489259438E+02  0.13513089691E+02  0.19654755100E+03  0.45391879812E+03  0.40093666707E+03 0.  0.
    9000005    1    3    3    0    0 -0.12889899063E+03  0.91237253835E+02  0.16492520087E+03  0.22834296168E+03  0.99999687468E+00 0.  0.
          4    1    3    3  501    0  0.20938825007E+03 -0.77724164144E+02  0.31622350126E+02  0.22557583644E+03  0.00000000000E+00 0.  1.
   -9000007    1    1    2    0  503 -0.80489259438E+02 -0.13513089691E+02 -0.14461681787E+03  0.43309946720E+03  0.40000000000E+03 0. -1.
<mgrwt>
<rscale>  2 0.40892966E+03</rscale>
<asrwt>0</asrwt>
<pdfrwt beam="1">  1       21 0.72226846E-01 0.40915930E+03</pdfrwt>
<pdfrwt beam="2">  1       21 0.64237503E-01 0.40915930E+03</pdfrwt>
<totfact> 0.34256893E+03</totfact>
</mgrwt>
</event>
<event>
 6    1  0.9163926E-004  0.4109876E+03  0.7818608E-02  0.1040113E+00
         21   -1    0    0  501  502  0.00000000000E+00  0.00000000000E+00  0.15310585839E+04  0.15310585839E+04  0.00000000000E+00 0.  1.
         21   -1    0    0  502  503 -0.00000000000E+00 -0.00000000000E+00 -0.11394292710E+03  0.11394292710E+03  0.00000000000E+00 0.  1.
    9000007    2    1    2  501    0 -0.85322045663E+02 -0.40385324040E+02  0.85910233998E+03  0.95197215547E+03  0.39910315503E+03 0.  0.
    9000005    1    3    3    0    0 -0.65132230989E+02  0.12158357094E+03  0.87616107638E+02  0.16340855102E+03  0.99999687468E+00 0.  0.
          4    1    3    3  501    0 -0.20189814674E+02 -0.16196889498E+03  0.77148623234E+03  0.78856360444E+03  0.00000000000E+00 0.  1.
   -9000007    1    1    2    0  503  0.85322045663E+02  0.40385324040E+02  0.55801331680E+03  0.69302935551E+03  0.40000000000E+03 0.  1.
<mgrwt>
<rscale>  2 0.41076924E+03</rscale>
<asrwt>0</asrwt>
<pdfrwt beam="1">  1       21 0.23554746E+00 0.41098762E+03</pdfrwt>
<pdfrwt beam="2">  1       21 0.17529682E-01 0.41098762E+03</pdfrwt>
<totfact> 0.20336586E+03</totfact>
</mgrwt>
</event>
<event>
 6    1  0.9163926E-004  0.4874198E+03  0.7818608E-02  0.1017134E+00
         21   -1    0    0  501  502  0.00000000000E+00  0.00000000000E+00  0.13332729117E+03  0.13332729117E+03  0.00000000000E+00 0. -1.
         21   -1    0    0  502  503 -0.00000000000E+00 -0.00000000000E+00 -0.23499939804E+04  0.23499939804E+04  0.00000000000E+00 0. -1.
    9000007    2    1    2  501    0  0.27484726924E+03  0.42046806611E+02 -0.49754653330E+03  0.69651320524E+03  0.40033627979E+03 0.  0.
    9000005    1    3    3    0    0  0.21174750377E+03 -0.41292745407E+02 -0.54166843701E+03  0.58305041962E+03  0.99999687468E+00 0.  0.
          4    1    3    3  501    0  0.63099765470E+02  0.83339552018E+02  0.44121903710E+02  0.11346278562E+03  0.00000000000E+00 0.  1.
   -9000007    1    1    2    0  503 -0.27484726924E+03 -0.42046806611E+02 -0.17191201559E+04  0.17868080663E+04  0.40000000000E+03 0. -1.
<mgrwt>
<rscale>  2 0.48735078E+03</rscale>
<asrwt>0</asrwt>
<pdfrwt beam="1">  1       21 0.20511892E-01 0.48741983E+03</pdfrwt>
<pdfrwt beam="2">  1       21 0.36153751E+00 0.48741983E+03</pdfrwt>
<totfact> 0.24827767E+02</totfact>
</mgrwt>
</event>
<event>
 6    1  0.9163926E-004  0.4032093E+03  0.7818608E-02  0.1042688E+00
         21   -1    0    0  501  502  0.00000000000E+00  0.00000000000E+00  0.63779236102E+03  0.63779236102E+03  0.00000000000E+00 0. -1.
         21   -1    0    0  502  503 -0.00000000000E+00 -0.00000000000E+00 -0.51402913774E+03  0.51402913774E+03  0.00000000000E+00 0.  1.
    9000007    2    1    2  501    0  0.31167960822E+02  0.40078641461E+02  0.47085166488E+03  0.61979882483E+03  0.39983940983E+03 0.  0.
    9000005    1    3    3    0    0  0.19246663568E+03  0.11534747649E+03  0.28018016338E+03  0.35895733748E+03  0.99999687468E+00 0.  0.
          4    1    3    3  501    0 -0.16129867486E+03 -0.75268835030E+02  0.19067150151E+03  0.26084148735E+03  0.00000000000E+00 0.  1.
   -9000007    1    1    2    0  503 -0.31167960822E+02 -0.40078641461E+02 -0.34708844160E+03  0.53202267393E+03  0.40000000000E+03 0.  1.
<mgrwt>
<rscale>  2 0.40316947E+03</rscale>
<asrwt>0</asrwt>
<pdfrwt beam="1">  1       21 0.98121901E-01 0.40320930E+03</pdfrwt>
<pdfrwt beam="2">  1       21 0.79081406E-01 0.40320930E+03</pdfrwt>
<totfact> 0.10523765E+03</totfact>
</mgrwt>
</event>
<event>
 6    1  0.9163926E-004  0.4254083E+03  0.7818608E-02  0.1035340E+00
         21   -1    0    0  501  502  0.00000000000E+00  0.00000000000E+00  0.11928454648E+03  0.11928454648E+03  0.00000000000E+00 0.  1.
         21   -1    0    0  502  503 -0.00000000000E+00 -0.00000000000E+00 -0.17787664848E+04  0.17787664848E+04  0.00000000000E+00 0.  1.
    9000007    2    1    2  501    0 -0.86136461540E+02 -0.11550177895E+03 -0.46537085955E+03  0.63050954501E+03  0.40026503530E+03 0.  0.
    9000005    1    3    3    0    0 -0.16727724470E+03 -0.93206267200E+01 -0.23875195537E+02  0.16923231262E+03  0.99999687468E+00 0.  0.
          4    1    3    3  501    0  0.81140783165E+02 -0.10618115223E+03 -0.44149566401E+03  0.46127723239E+03  0.00000000000E+00 0.  1.
   -9000007    1    1    2    0  503  0.86136461540E+02  0.11550177895E+03 -0.11941110787E+04  0.12675414862E+04  0.40000000000E+03 0. -1.
<mgrwt>
<rscale>  2 0.42534598E+03</rscale>
<asrwt>0</asrwt>
<pdfrwt beam="1">  1       21 0.18351470E-01 0.42540833E+03</pdfrwt>
<pdfrwt beam="2">  1       21 0.27365637E+00 0.42540833E+03</pdfrwt>
<totfact> 0.10839348E+03</totfact>
</mgrwt>
</event>
<event>
 6    1  0.9163926E-004  0.4934367E+03  0.7818608E-02  0.1015561E+00
         21   -1    0    0  501  502  0.00000000000E+00  0.00000000000E+00  0.58716097335E+03  0.58716097335E+03  0.00000000000E+00 0. -1.
         21   -1    0    0  502  503 -0.00000000000E+00 -0.00000000000E+00 -0.74191809107E+03  0.74191809107E+03  0.00000000000E+00 0.  1.
    9000007    2    1    2  501    0  0.87381225391E+02  0.27539844267E+03  0.36447187442E+03  0.61278406439E+03  0.39897967561E+03 0.  0.
    9000005    1    3    3    0    0  0.15549031584E+03 -0.31022235589E+02  0.20943556048E+03  0.26268587972E+03  0.99999687468E+00 0.  0.
          4    1    3    3  501    0 -0.68109090445E+02  0.30642067826E+03  0.15503631394E+03  0.35009818467E+03  0.00000000000E+00 0.  1.
   -9000007    1    1    2    0  503 -0.87381225391E+02 -0.27539844267E+03 -0.51922899215E+03  0.71629500003E+03  0.40000000000E+03 0.  1.
<mgrwt>
<rscale>  2 0.49322989E+03</rscale>
<asrwt>0</asrwt>
<pdfrwt beam="1">  1       21 0.90332458E-01 0.49343670E+03</pdfrwt>
<pdfrwt beam="2">  1       21 0.11414124E+00 0.49343670E+03</pdfrwt>
<totfact> 0.51104853E+02</totfact>
</mgrwt>
</event>
<event>
 6    1  0.9163926E-004  0.4103107E+03  0.7818608E-02  0.1040273E+00
         21   -1    0    0  501  502  0.00000000000E+00  0.00000000000E+00  0.12723942561E+04  0.12723942561E+04  0.00000000000E+00 0.  1.
         21   -1    0    0  502  503 -0.00000000000E+00 -0.00000000000E+00 -0.13288573407E+03  0.13288573407E+03  0.00000000000E+00 0.  1.
    9000007    2    1    2  501    0  0.34333698904E+02  0.84365362297E+02  0.61683244142E+03  0.74083540823E+03  0.40007314840E+03 0.  0.
    9000005    1    3    3    0    0  0.18642389996E+03  0.10927687008E+03  0.50833147978E+03  0.55235604291E+03  0.99999687468E+00 0.  0.
          4    1    3    3  501    0 -0.15209020105E+03 -0.24911507783E+02  0.10850096164E+03  0.18847936532E+03  0.00000000000E+00 0.  1.
   -9000007    1    1    2    0  503 -0.34333698904E+02 -0.84365362297E+02  0.52267608063E+03  0.66444458197E+03  0.40000000000E+03 0. -1.
<mgrwt>
<rscale>  2 0.41029283E+03</rscale>
<asrwt>0</asrwt>
<pdfrwt beam="1">  1       21 0.19575295E+00 0.41031066E+03</pdfrwt>
<pdfrwt beam="2">  1       21 0.20443960E-01 0.41031066E+03</pdfrwt>
<totfact> 0.27437141E+03</totfact>
</mgrwt>
</event>
<event>
 6    1  0.9163926E-004  0.4124995E+03  0.7818608E-02  0.1039539E+00
         21   -1    0    0  501  502  0.00000000000E+00  0.00000000000E+00  0.50801468061E+03  0.50801468061E+03  0.00000000000E+00 0. -1.
         21   -1    0    0  502  503 -0.00000000000E+00 -0.00000000000E+00 -0.35611521469E+03  0.35611521469E+03  0.00000000000E+00 0. -1.
    9000007    2    1    2  501    0  0.51494592096E+02  0.86626543018E+02  0.18137607375E+03  0.45057854252E+03  0.39995986284E+03 0.  0.
    9000005    1    3    3    0    0  0.39627667589E+02  0.24772176949E+03  0.11393854322E+03  0.27553478681E+03  0.99999687468E+00 0.  0.
          4    1    3    3  501    0  0.11866924507E+02 -0.16109522647E+03  0.67437530527E+02  0.17504375571E+03  0.00000000000E+00 0.  1.
   -9000007    1    1    2    0  503 -0.51494592096E+02 -0.86626543018E+02 -0.29476607832E+02  0.41355135277E+03  0.40000000000E+03 0. -1.
<mgrwt>
<rscale>  2 0.41248979E+03</rscale>
<asrwt>0</asrwt>
<pdfrwt beam="1">  1       21 0.78156105E-01 0.41249952E+03</pdfrwt>
<pdfrwt beam="2">  1       21 0.54786956E-01 0.41249952E+03</pdfrwt>
<totfact> 0.40461736E+03</totfact>
</mgrwt>
</event>
<event>
 6    1  0.9163926E-004  0.4077138E+03  0.7818608E-02  0.1041178E+00
         21   -1    0    0  501  502  0.00000000000E+00  0.00000000000E+00  0.16808690788E+03  0.16808690788E+03  0.00000000000E+00 0. -1.
         21   -1    0    0  502  503 -0.00000000000E+00 -0.00000000000E+00 -0.10491203489E+04  0.10491203489E+04  0.00000000000E+00 0. -1.
    9000007    2    1    2  501    0  0.36836105053E+02  0.67184655509E+02 -0.29370606550E+03  0.50248764560E+03  0.40044962791E+03 0.  0.
    9000005    1    3    3    0    0  0.12487704082E+03  0.14509631602E+03 -0.32821332824E+03  0.37996342597E+03  0.99999687468E+00 0.  0.
          4    1    3    3  501    0 -0.88040935762E+02 -0.77911660507E+02  0.34507262744E+02  0.12252421963E+03  0.00000000000E+00 0.  1.
   -9000007    1    1    2    0  503 -0.36836105053E+02 -0.67184655509E+02 -0.58732737554E+03  0.71471961120E+03  0.40000000000E+03 0. -1.
<mgrwt>
<rscale>  2 0.40760340E+03</rscale>
<asrwt>0</asrwt>
<pdfrwt beam="1">  1       21 0.25859524E-01 0.40771385E+03</pdfrwt>
<pdfrwt beam="2">  1       21 0.16140313E+00 0.40771385E+03</pdfrwt>
<totfact> 0.30555604E+03</totfact>
</mgrwt>
</event>
<event>
 6    1  0.9163926E-004  0.4350511E+03  0.7818608E-02  0.1032359E+00
         21   -1    0    0  501  502  0.00000000000E+00  0.00000000000E+00  0.28671934656E+03  0.28671934656E+03  0.00000000000E+00 0.  1.
         21   -1    0    0  502  503 -0.00000000000E+00 -0.00000000000E+00 -0.83339409023E+03  0.83339409023E+03  0.00000000000E+00 0.  1.
    9000007    2    1    2  501    0 -0.15874456235E+03  0.56036230951E+02 -0.17039351505E+02  0.43538462632E+03  0.40116023990E+03 0.  0.
    9000005    1    3    3    0    0 -0.11831728075E+03 -0.16889528829E+03 -0.36896402346E-01  0.20621735787E+03  0.99999687468E+00 0.  0.
          4    1    3    3  501    0 -0.40427281594E+02  0.22493151925E+03 -0.17002455102E+02  0.22916726845E+03  0.00000000000E+00 0.  1.
   -9000007    1    1    2    0  503  0.15874456235E+03 -0.56036230951E+02 -0.52963539216E+03  0.68472881047E+03  0.40000000000E+03 0.  1.
<mgrwt>
<rscale>  2 0.43478342E+03</rscale>
<asrwt>0</asrwt>
<pdfrwt beam="1">  1       21 0.44110668E-01 0.43505107E+03</pdfrwt>
<pdfrwt beam="2">  1       21 0.12821448E+00 0.43505107E+03</pdfrwt>
<totfact> 0.19084635E+03</totfact>
</mgrwt>
</event>
<event>
 6    1  0.9163926E-004  0.4233415E+03  0.7818608E-02  0.1036123E+00
         21   -1    0    0  501  502  0.00000000000E+00  0.00000000000E+00  0.27514266274E+03  0.27514266274E+03  0.00000000000E+00 0. -1.
         21   -1    0    0  502  503 -0.00000000000E+00 -0.00000000000E+00 -0.80724088813E+03  0.80724088813E+03  0.00000000000E+00 0. -1.
    9000007    2    1    2  501    0  0.10882345865E+03  0.85880806533E+02 -0.25799550254E+02  0.42241657705E+03  0.39818599886E+03 0.  0.
    9000005    1    3    3    0    0  0.24858305598E+03 -0.28569556848E+01  0.23424222781E+02  0.24970260737E+03  0.99999687468E+00 0.  0.
          4    1    3    3  501    0 -0.13975959734E+03  0.88737762218E+02 -0.49223773035E+02  0.17271396968E+03  0.00000000000E+00 0.  1.
   -9000007    1    1    2    0  503 -0.10882345865E+03 -0.85880806533E+02 -0.50629867514E+03  0.65996697382E+03  0.40000000000E+03 0. -1.
<mgrwt>
<rscale>  2 0.42291250E+03</rscale>
<asrwt>0</asrwt>
<pdfrwt beam="1">  1       21 0.42329641E-01 0.42334154E+03</pdfrwt>
<pdfrwt beam="2">  1       21 0.12419090E+00 0.42334154E+03</pdfrwt>
<totfact> 0.22677967E+03</totfact>
</mgrwt>
</event>
<event>
 6    1  0.9163926E-004  0.4392101E+03  0.7818608E-02  0.1030990E+00
         21   -1    0    0  501  502  0.00000000000E+00  0.00000000000E+00  0.15825270577E+03  0.15825270577E+03  0.00000000000E+00 0.  1.
         21   -1    0    0  502  503 -0.00000000000E+00 -0.00000000000E+00 -0.12742376302E+04  0.12742376302E+04  0.00000000000E+00 0.  1.
    9000007    2    1    2  501    0  0.17772879206E+03 -0.36303709244E+02 -0.40881592091E+03  0.60002803510E+03  0.39999712860E+03 0.  0.
    9000005    1    3    3    0    0  0.11023160576E+03  0.16301665930E+03 -0.31084621595E+03  0.36790190007E+03  0.99999687468E+00 0.  0.
          4    1    3    3  501    0  0.67497186298E+02 -0.19932036854E+03 -0.97969704963E+02  0.23212613503E+03  0.00000000000E+00 0.  1.
   -9000007    1    1    2    0  503 -0.17772879206E+03  0.36303709244E+02 -0.70716900355E+03  0.83246230089E+03  0.40000000000E+03 0. -1.
<mgrwt>
<rscale>  2 0.43920941E+03</rscale>
<asrwt>0</asrwt>
<pdfrwt beam="1">  1       21 0.24346570E-01 0.43921007E+03</pdfrwt>
<pdfrwt beam="2">  1       21 0.19603656E+00 0.43921007E+03</pdfrwt>
<totfact> 0.19280610E+03</totfact>
</mgrwt>
</event>
<event>
 6    1  0.9163926E-004  0.4639487E+03  0.7818608E-02  0.1023699E+00
         21   -1    0    0  501  502  0.00000000000E+00  0.00000000000E+00  0.86769652346E+03  0.86769652346E+03  0.00000000000E+00 0.  1.
         21   -1    0    0  502  503 -0.00000000000E+00 -0.00000000000E+00 -0.25269648874E+03  0.25269648874E+03  0.00000000000E+00 0.  1.
    9000007    2    1    2  501    0  0.46680365551E+02 -0.23036773729E+03  0.38643997804E+03  0.60320054279E+03  0.39908230639E+03 0.  0.
    9000005    1    3    3    0    0 -0.11399649020E+03 -0.38120111773E+02  0.32314397054E+03  0.34477727360E+03  0.99999687468E+00 0.  0.
          4    1    3    3  501    0  0.16067685575E+03 -0.19224762552E+03  0.63296007500E+02  0.25842326919E+03  0.00000000000E+00 0.  1.
   -9000007    1    1    2    0  503 -0.46680365551E+02  0.23036773729E+03  0.22856005667E+03  0.51719246942E+03  0.40000000000E+03 0.  1.
<mgrwt>
<rscale>  2 0.46375078E+03</rscale>
<asrwt>0</asrwt>
<pdfrwt beam="1">  1       21 0.13349177E+00 0.46394865E+03</pdfrwt>
<pdfrwt beam="2">  1       21 0.38876383E-01 0.46394865E+03</pdfrwt>
<totfact> 0.22074590E+03</totfact>
</mgrwt>
</event>
<event>
 6    1  0.9163926E-004  0.4935563E+03  0.7818608E-02  0.1015487E+00
         21   -1    0    0  501  502  0.00000000000E+00  0.00000000000E+00  0.64524950401E+03  0.64524950401E+03  0.00000000000E+00 0. -1.
         21   -1    0    0  502  503 -0.00000000000E+00 -0.00000000000E+00 -0.39542136346E+03  0.39542136346E+03  0.00000000000E+00 0.  1.
    9000007    2    1    2  501    0  0.16646530184E+03  0.23640465387E+03  0.23604111184E+03  0.54692200494E+03  0.39976294966E+03 0.  0.
    9000005    1    3    3    0    0 -0.10315877820E+03 -0.14137806273E+02  0.12455523721E+03  0.16234721493E+03  0.99999687468E+00 0.  0.
          4    1    3    3  501    0  0.26962408003E+03  0.25054246015E+03  0.11148587463E+03  0.38457479001E+03  0.00000000000E+00 0.  1.
   -9000007    1    1    2    0  503 -0.16646530184E+03 -0.23640465387E+03  0.13787028712E+02  0.49374886253E+03  0.40000000000E+03 0. -1.
<mgrwt>
<rscale>  2 0.49350831E+03</rscale>
<asrwt>0</asrwt>
<pdfrwt beam="1">  1       21 0.99269154E-01 0.49355634E+03</pdfrwt>
<pdfrwt beam="2">  1       21 0.60834056E-01 0.49355634E+03</pdfrwt>
<totfact> 0.17800652E+03</totfact>
</mgrwt>
</event>
<event>
 6    1  0.9163926E-004  0.4485469E+03  0.7818608E-02  0.1028156E+00
         21   -1    0    0  501  502  0.00000000000E+00  0.00000000000E+00  0.93961226228E+03  0.93961226228E+03  0.00000000000E+00 0. -1.
         21   -1    0    0  502  503 -0.00000000000E+00 -0.00000000000E+00 -0.28537845188E+03  0.28537845188E+03  0.00000000000E+00 0.  1.
    9000007    2    1    2  501    0 -0.87858960921E+02 -0.18296201589E+03  0.63317051223E+03  0.77594955925E+03  0.39999815584E+03 0.  0.
    9000005    1    3    3    0    0 -0.20483024433E+03 -0.22946521012E+02  0.48956623782E+03  0.53118553540E+03  0.99999687468E+00 0.  0.
          4    1    3    3  501    0  0.11697128340E+03 -0.16001549488E+03  0.14360427442E+03  0.24476402385E+03  0.00000000000E+00 0.  1.
   -9000007    1    1    2    0  503  0.87858960921E+02  0.18296201589E+03  0.21063298173E+02  0.44904115491E+03  0.40000000000E+03 0.  1.
<mgrwt>
<rscale>  2 0.44854646E+03</rscale>
<asrwt>0</asrwt>
<pdfrwt beam="1">  1       21 0.14455573E+00 0.44854687E+03</pdfrwt>
<pdfrwt beam="2">  1       21 0.43904378E-01 0.44854687E+03</pdfrwt>
<totfact> 0.13977685E+03</totfact>
</mgrwt>
</event>
<event>
 6    1  0.9163926E-004  0.5617385E+03  0.7818608E-02  0.9988463E-01
         21   -1    0    0  501  502  0.00000000000E+00  0.00000000000E+00  0.41932433027E+03  0.41932433027E+03  0.00000000000E+00 0.  1.
         21   -1    0    0  502  503 -0.00000000000E+00 -0.00000000000E+00 -0.10940475057E+04  0.10940475057E+04  0.00000000000E+00 0. -1.
    9000007    2    1    2  501    0 -0.34185001986E+03 -0.19499435637E+03  0.85783064692E+02  0.56825069222E+03  0.40083148570E+03 0.  0.
    9000005    1    3    3    0    0 -0.36316343564E+03 -0.19074786912E+03 -0.65505915163E+02  0.41540878117E+03  0.99999687468E+00 0.  0.
          4    1    3    3  501    0  0.21313415783E+02 -0.42464872487E+01  0.15128897985E+03  0.15284191104E+03  0.00000000000E+00 0.  1.
   -9000007    1    1    2    0  503  0.34185001986E+03  0.19499435637E+03 -0.76050624012E+03  0.94512114375E+03  0.40000000000E+03 0. -1.
<mgrwt>
<rscale>  2 0.56159016E+03</rscale>
<asrwt>0</asrwt>
<pdfrwt beam="1">  1       21 0.64511437E-01 0.56173848E+03</pdfrwt>
<pdfrwt beam="2">  1       21 0.16831500E+00 0.56173848E+03</pdfrwt>
<totfact> 0.38262489E+02</totfact>
</mgrwt>
</event>
<event>
 6    1  0.9163926E-004  0.4722148E+03  0.7818608E-02  0.1021328E+00
         21   -1    0    0  501  502  0.00000000000E+00  0.00000000000E+00  0.81224899212E+03  0.81224899212E+03  0.00000000000E+00 0.  1.
         21   -1    0    0  502  503 -0.00000000000E+00 -0.00000000000E+00 -0.67526314747E+03  0.67526314747E+03  0.00000000000E+00 0.  1.
    9000007    2    1    2  501    0 -0.31922622967E+02  0.24893324085E+03  0.64161879484E+03  0.79639621106E+03  0.39948145745E+03 0.  0.
    9000005    1    3    3    0    0 -0.58861056586E+02 -0.75737609980E+02  0.25199739922E+02  0.99180826946E+02  0.99999687468E+00 0.  0.
          4    1    3    3  501    0  0.26938433618E+02  0.32467085083E+03  0.61641905491E+03  0.69721538411E+03  0.00000000000E+00 0.  1.
   -9000007    1    1    2    0  503  0.31922622967E+02 -0.24893324085E+03 -0.50463295019E+03  0.69111592853E+03  0.40000000000E+03 0.  1.
<mgrwt>
<rscale>  2 0.47210497E+03</rscale>
<asrwt>0</asrwt>
<pdfrwt beam="1">  1       21 0.12496138E+00 0.47221479E+03</pdfrwt>
<pdfrwt beam="2">  1       21 0.10388664E+00 0.47221479E+03</pdfrwt>
<totfact> 0.29236891E+02</totfact>
</mgrwt>
</event>
<event>
 6    1  0.9163926E-004  0.4444291E+03  0.7818608E-02  0.1029433E+00
         21   -1    0    0  501  502  0.00000000000E+00  0.00000000000E+00  0.71873175721E+03  0.71873175721E+03  0.00000000000E+00 0. -1.
         21   -1    0    0  502  503 -0.00000000000E+00 -0.00000000000E+00 -0.33530700173E+03  0.33530700173E+03  0.00000000000E+00 0. -1.
    9000007    2    1    2  501    0 -0.19096803953E+03 -0.32379444062E+02  0.41602407075E+03  0.60841567171E+03  0.39947012606E+03 0.  0.
    9000005    1    3    3    0    0 -0.31096893997E+03 -0.66455323217E+02  0.31855655539E+03  0.45010806546E+03  0.99999687468E+00 0.  0.
          4    1    3    3  501    0  0.12000090044E+03  0.34075879155E+02  0.97467515359E+02  0.15830760625E+03  0.00000000000E+00 0.  1.
   -9000007    1    1    2    0  503  0.19096803953E+03  0.32379444062E+02 -0.32599315267E+02  0.44562308723E+03  0.40000000000E+03 0. -1.
<mgrwt>
<rscale>  2 0.44430984E+03</rscale>
<asrwt>0</asrwt>
<pdfrwt beam="1">  1       21 0.11057412E+00 0.44442910E+03</pdfrwt>
<pdfrwt beam="2">  1       21 0.51585693E-01 0.44442910E+03</pdfrwt>
<totfact> 0.19873591E+03</totfact>
</mgrwt>
</event>
<event>
 6    1  0.9163926E-004  0.7685451E+03  0.7818608E-02  0.9607006E-01
         21   -1    0    0  501  502  0.00000000000E+00  0.00000000000E+00  0.42002712061E+03  0.42002712061E+03  0.00000000000E+00 0. -1.
         21   -1    0    0  502  503 -0.00000000000E+00 -0.00000000000E+00 -0.15967436774E+04  0.15967436774E+04  0.00000000000E+00 0. -1.
    9000007    2    1    2  501    0  0.20407856963E+02  0.65593072316E+03 -0.23842780002E+03  0.80390337520E+03  0.39843597557E+03 0.  0.
    9000005    1    3    3    0    0 -0.27620307201E+02  0.67242978714E+03 -0.28882626630E+03  0.73235668366E+03  0.99999687468E+00 0.  0.
          4    1    3    3  501    0  0.48028164164E+02 -0.16499063985E+02  0.50398466286E+02  0.71546691534E+02  0.00000000000E+00 0.  1.
   -9000007    1    1    2    0  503 -0.20407856963E+02 -0.65593072316E+03 -0.93828875674E+03  0.12128674228E+04  0.40000000000E+03 0. -1.
<mgrwt>
<rscale>  2 0.76834182E+03</rscale>
<asrwt>0</asrwt>
<pdfrwt beam="1">  1       21 0.64619556E-01 0.76854512E+03</pdfrwt>
<pdfrwt beam="2">  1       21 0.24565288E+00 0.76854512E+03</pdfrwt>
<totfact> 0.10691317E+02</totfact>
</mgrwt>
</event>
<event>
 6    1  0.9163926E-004  0.4747479E+03  0.7818608E-02  0.1020592E+00
         21   -1    0    0  501  502  0.00000000000E+00  0.00000000000E+00  0.12615917076E+04  0.12615917076E+04  0.00000000000E+00 0. -1.
         21   -1    0    0  502  503 -0.00000000000E+00 -0.00000000000E+00 -0.29358685462E+03  0.29358685462E+03  0.00000000000E+00 0.  1.
    9000007    2    1    2  501    0  0.17151163579E+03  0.18965570184E+03  0.97055266517E+03  0.10804238700E+04  0.39994716720E+03 0.  0.
    9000005    1    3    3    0    0 -0.65633104628E+02  0.66427054007E+02  0.67711690600E+03  0.68352656299E+03  0.99999687468E+00 0.  0.
          4    1    3    3  501    0  0.23714474042E+03  0.12322864783E+03  0.29343575916E+03  0.39689730701E+03  0.00000000000E+00 0.  1.
   -9000007    1    1    2    0  503 -0.17151163579E+03 -0.18965570184E+03 -0.25478121770E+01  0.47475469224E+03  0.40000000000E+03 0.  1.
<mgrwt>
<rscale>  2 0.47473673E+03</rscale>
<asrwt>0</asrwt>
<pdfrwt beam="1">  1       21 0.19409103E+00 0.47474786E+03</pdfrwt>
<pdfrwt beam="2">  1       21 0.45167209E-01 0.47474786E+03</pdfrwt>
<totfact> 0.56351486E+02</totfact>
</mgrwt>
</event>
<event>
 6    1  0.9163926E-004  0.4094144E+03  0.7818608E-02  0.1040606E+00
         21   -1    0    0  501  502  0.00000000000E+00  0.00000000000E+00  0.87041379138E+03  0.87041379138E+03  0.00000000000E+00 0. -1.
         21   -1    0    0  502  503 -0.00000000000E+00 -0.00000000000E+00 -0.32128309428E+03  0.32128309428E+03  0.00000000000E+00 0.  1.
    9000007    2    1    2  501    0 -0.13133802743E+02  0.86299775670E+02  0.65192056121E+03  0.76957616334E+03  0.39953335906E+03 0.  0.
    9000005    1    3    3    0    0  0.85793961777E+02 -0.11903731210E+03  0.41785416624E+03  0.44286972101E+03  0.99999687468E+00 0.  0.
          4    1    3    3  501    0 -0.98927764520E+02  0.20533708777E+03  0.23406639497E+03  0.32670644233E+03  0.00000000000E+00 0.  1.
   -9000007    1    1    2    0  503  0.13133802743E+02 -0.86299775670E+02 -0.10278986411E+03  0.42212072233E+03  0.40000000000E+03 0.  1.
<mgrwt>
<rscale>  2 0.40930037E+03</rscale>
<asrwt>0</asrwt>
<pdfrwt beam="1">  1       21 0.13390981E+00 0.40941440E+03</pdfrwt>
<pdfrwt beam="2">  1       21 0.49428169E-01 0.40941440E+03</pdfrwt>
<totfact> 0.13566442E+03</totfact>
</mgrwt>
</event>
<event>
 6    1  0.9163926E-004  0.5139167E+03  0.7818608E-02  0.1010292E+00
         21   -1    0    0  501  502  0.00000000000E+00  0.00000000000E+00  0.14468749862E+04  0.14468749862E+04  0.00000000000E+00 0.  1.
         21   -1    0    0  502  503 -0.00000000000E+00 -0.00000000000E+00 -0.20831583878E+03  0.20831583878E+03  0.00000000000E+00 0. -1.
    9000007    2    1    2  501    0  0.24461854649E+03 -0.21040951206E+03  0.91233583871E+03  0.10464773923E+04  0.39830623126E+03 0.  0.
    9000005    1    3    3    0    0 -0.10039154628E+03 -0.83187267502E+02  0.14141336210E+03  0.19234688200E+03  0.99999687468E+00 0.  0.
          4    1    3    3  501    0  0.34501009277E+03 -0.12722224455E+03  0.77092247661E+03  0.85413051026E+03  0.00000000000E+00 0.  1.
   -9000007    1    1    2    0  503 -0.24461854649E+03  0.21040951206E+03  0.32622330874E+03  0.60871343275E+03  0.40000000000E+03 0. -1.
<mgrwt>
<rscale>  2 0.51358710E+03</rscale>
<asrwt>0</asrwt>
<pdfrwt beam="1">  1       21 0.22259615E+00 0.51391672E+03</pdfrwt>
<pdfrwt beam="2">  1       21 0.32048591E-01 0.51391672E+03</pdfrwt>
<totfact> 0.72702596E+02</totfact>
</mgrwt>
</event>
<event>
 6    1  0.9163926E-004  0.5890553E+03  0.7818608E-02  0.9928767E-01
         21   -1    0    0  501  502  0.00000000000E+00  0.00000000000E+00  0.18303120469E+04  0.18303120469E+04  0.00000000000E+00 0.  1.
         21   -1    0    0  502  503 -0.00000000000E+00 -0.00000000000E+00 -0.25474783267E+03  0.25474783267E+03  0.00000000000E+00 0. -1.
    9000007    2    1    2  501    0  0.39531568182E+03 -0.17524738189E+03  0.13156725240E+04  0.14412199742E+04  0.39891689637E+03 0.  0.
    9000005    1    3    3    0    0  0.44418103422E+03 -0.23761656405E+03  0.10611143292E+04  0.11746161255E+04  0.99999687468E+00 0.  0.
          4    1    3    3  501    0 -0.48865352401E+02  0.62369182164E+02  0.25455819483E+03  0.26660384863E+03  0.00000000000E+00 0.  1.
   -9000007    1    1    2    0  503 -0.39531568182E+03  0.17524738189E+03  0.25989169015E+03  0.64383990538E+03  0.40000000000E+03 0. -1.
<mgrwt>
<rscale>  2 0.58887147E+03</rscale>
<asrwt>0</asrwt>
<pdfrwt beam="1">  1       21 0.28158646E+00 0.58905529E+03</pdfrwt>
<pdfrwt beam="2">  1       21 0.39191975E-01 0.58905529E+03</pdfrwt>
<totfact> 0.20100209E+02</totfact>
</mgrwt>
</event>
<event>
 6    1  0.9163926E-004  0.4058726E+03  0.7818608E-02  0.1041770E+00
         21   -1    0    0  501  502  0.00000000000E+00  0.00000000000E+00  0.29906831593E+03  0.29906831593E+03  0.00000000000E+00 0. -1.
         21   -1    0    0  502  503 -0.00000000000E+00 -0.00000000000E+00 -0.12545810856E+04  0.12545810856E+04  0.00000000000E+00 0. -1.
    9000007    2    1    2  501    0 -0.62821827882E+02  0.28035596616E+02  0.10410701792E+03  0.41895707717E+03  0.39994272664E+03 0.  0.
    9000005    1    3    3    0    0 -0.17309681855E+03 -0.48674802232E+02  0.18834552755E+03  0.26039735541E+03  0.99999687468E+00 0.  0.
          4    1    3    3  501    0  0.11027499067E+03  0.76710398847E+02 -0.84238509630E+02  0.15855972175E+03  0.00000000000E+00 0.  1.
   -9000007    1    1    2    0  503  0.62821827882E+02 -0.28035596616E+02 -0.10596197876E+04  0.11346923244E+04  0.40000000000E+03 0. -1.
<mgrwt>
<rscale>  2 0.40585850E+03</rscale>
<asrwt>0</asrwt>
<pdfrwt beam="1">  1       21 0.46010511E-01 0.40587261E+03</pdfrwt>
<pdfrwt beam="2">  1       21 0.19301247E+00 0.40587261E+03</pdfrwt>
<totfact> 0.57034144E+02</totfact>
</mgrwt>
</event>
<event>
 6    1  0.9163926E-004  0.4610236E+03  0.7818608E-02  0.1024573E+00
         21   -1    0    0  501  502  0.00000000000E+00  0.00000000000E+00  0.28901324689E+03  0.28901324689E+03  0.00000000000E+00 0.  1.
         21   -1    0    0  502  503 -0.00000000000E+00 -0.00000000000E+00 -0.11297050455E+04  0.11297050455E+04  0.00000000000E+00 0.  1.
    9000007    2    1    2  501    0 -0.12653702537E+03  0.18818297684E+03 -0.84081147139E+03  0.95890912995E+03  0.40139548766E+03 0.  0.
    9000005    1    3    3    0    0  0.12595978194E+03  0.16480782961E+03 -0.37460433924E+03  0.42820193640E+03  0.99999687468E+00 0.  0.
          4    1    3    3  501    0 -0.25249680732E+03  0.23375147230E+02 -0.46620713216E+03  0.53070719355E+03  0.00000000000E+00 0.  1.
   -9000007    1    1    2    0  503  0.12653702537E+03 -0.18818297684E+03  0.11967276434E+00  0.45980916246E+03  0.40000000000E+03 0.  1.
<mgrwt>
<rscale>  2 0.46071971E+03</rscale>
<asrwt>0</asrwt>
<pdfrwt beam="1">  1       21 0.44463577E-01 0.46102363E+03</pdfrwt>
<pdfrwt beam="2">  1       21 0.17380078E+00 0.46102363E+03</pdfrwt>
<totfact> 0.81192762E+02</totfact>
</mgrwt>
</event>
<event>
 6    1  0.9163926E-004  0.4809123E+03  0.7818608E-02  0.1019052E+00
         21   -1    0    0  501  502  0.00000000000E+00  0.00000000000E+00  0.47896931823E+03  0.47896931823E+03  0.00000000000E+00 0.  1.
         21   -1    0    0  502  503 -0.00000000000E+00 -0.00000000000E+00 -0.14072137366E+04  0.14072137366E+04  0.00000000000E+00 0.  1.
    9000007    2    1    2  501    0  0.87148653933E+02 -0.25235247219E+03  0.30164015664E+03  0.56561774939E+03  0.39706422178E+03 0.  0.
    9000005    1    3    3    0    0  0.68749662387E+02  0.16729226753E+02  0.28690806330E+03  0.29550570195E+03  0.99999687468E+00 0.  0.
          4    1    3    3  501    0  0.18398991546E+02 -0.26908169895E+03  0.14732093347E+02  0.27011204744E+03  0.00000000000E+00 0.  1.
   -9000007    1    1    2    0  503 -0.87148653933E+02  0.25235247219E+03 -0.12298845750E+04  0.13205653055E+04  0.40000000000E+03 0.  1.
<mgrwt>
<rscale>  2 0.48030139E+03</rscale>
<asrwt>0</asrwt>
<pdfrwt beam="1">  1       21 0.73687589E-01 0.48091232E+03</pdfrwt>
<pdfrwt beam="2">  1       21 0.21649442E+00 0.48091232E+03</pdfrwt>
<totfact> 0.13727402E+02</totfact>
</mgrwt>
</event>
<event>
 6    1  0.9163926E-004  0.4340506E+03  0.7818608E-02  0.1032638E+00
         21   -1    0    0  501  502  0.00000000000E+00  0.00000000000E+00  0.57752535432E+03  0.57752535432E+03  0.00000000000E+00 0.  1.
         21   -1    0    0  502  503 -0.00000000000E+00 -0.00000000000E+00 -0.47172943038E+03  0.47172943038E+03  0.00000000000E+00 0.  1.
    9000007    2    1    2  501    0  0.12958344779E+03  0.10512547471E+03  0.34478146181E+03  0.55432315034E+03  0.40069522485E+03 0.  0.
    9000005    1    3    3    0    0 -0.12617519862E+02  0.22779347754E+03  0.10887229643E+03  0.25279091586E+03  0.99999687468E+00 0.  0.
          4    1    3    3  501    0  0.14220096765E+03 -0.12266800283E+03  0.23590916538E+03  0.30153223448E+03  0.00000000000E+00 0.  1.
   -9000007    1    1    2    0  503 -0.12958344779E+03 -0.10512547471E+03 -0.23898553788E+03  0.49493163436E+03  0.40000000000E+03 0.  1.
<mgrwt>
<rscale>  2 0.43389005E+03</rscale>
<asrwt>0</asrwt>
<pdfrwt beam="1">  1       21 0.88850054E-01 0.43405057E+03</pdfrwt>
<pdfrwt beam="2">  1       21 0.72573759E-01 0.43405057E+03</pdfrwt>
<totfact> 0.16005088E+03</totfact>
</mgrwt>
</event>
<event>
 6    1  0.9163926E-004  0.5436394E+03  0.7818608E-02  0.1003071E+00
         21   -1    0    0  501  502  0.00000000000E+00  0.00000000000E+00  0.41857091407E+03  0.41857091407E+03  0.00000000000E+00 0. -1.
         21   -1    0    0  502  503 -0.00000000000E+00 -0.00000000000E+00 -0.78891334183E+03  0.78891334183E+03  0.00000000000E+00 0.  1.
    9000007    2    1    2  501    0 -0.23451669003E+02  0.36504411829E+03  0.12655395962E+02  0.54378664248E+03  0.40216484731E+03 0.  0.
    9000005    1    3    3    0    0 -0.16549723501E+03  0.33346199636E+03 -0.66455024276E+02  0.37815804640E+03  0.99999687468E+00 0.  0.
          4    1    3    3  501    0  0.14204556601E+03  0.31582121936E+02  0.79110420238E+02  0.16562859608E+03  0.00000000000E+00 0.  1.
   -9000007    1    1    2    0  503  0.23451669003E+02 -0.36504411829E+03 -0.38299782372E+03  0.66369761342E+03  0.40000000000E+03 0.  1.
<mgrwt>
<rscale>  2 0.54323904E+03</rscale>
<asrwt>0</asrwt>
<pdfrwt beam="1">  1       21 0.64395526E-01 0.54363936E+03</pdfrwt>
<pdfrwt beam="2">  1       21 0.12137128E+00 0.54363936E+03</pdfrwt>
<totfact> 0.93460516E+02</totfact>
</mgrwt>
</event>
<event>
 6    1  0.9163926E-004  0.4588752E+03  0.7818608E-02  0.1025119E+00
         21   -1    0    0  501  502  0.00000000000E+00  0.00000000000E+00  0.15614809090E+04  0.15614809090E+04  0.00000000000E+00 0.  1.
         21   -1    0    0  502  503 -0.00000000000E+00 -0.00000000000E+00 -0.18004218925E+03  0.18004218925E+03  0.00000000000E+00 0.  1.
    9000007    2    1    2  501    0  0.20398905877E+03  0.94630310120E+02  0.11271076983E+04  0.12168796953E+04  0.39982245783E+03 0.  0.
    9000005    1    3    3    0    0  0.89460461362E+02 -0.77746864695E+02  0.65769619206E+02  0.13555217417E+03  0.99999687468E+00 0.  0.
          4    1    3    3  501    0  0.11452859741E+03  0.17237717481E+03  0.10613380790E+04  0.10813275212E+04  0.00000000000E+00 0.  1.
   -9000007    1    1    2    0  503 -0.20398905877E+03 -0.94630310120E+02  0.25433102146E+03  0.52464340287E+03  0.40000000000E+03 0.  1.
<mgrwt>
<rscale>  2 0.45883649E+03</rscale>
<asrwt>0</asrwt>
<pdfrwt beam="1">  1       21 0.24022782E+00 0.45887518E+03</pdfrwt>
<pdfrwt beam="2">  1       21 0.27698799E-01 0.45887518E+03</pdfrwt>
<totfact> 0.77150231E+02</totfact>
</mgrwt>
</event>
<event>
 6    1  0.9163926E-004  0.4804774E+03  0.7818608E-02  0.1019006E+00
         21   -1    0    0  501  502  0.00000000000E+00  0.00000000000E+00  0.96160439341E+03  0.96160439341E+03  0.00000000000E+00 0. -1.
         21   -1    0    0  502  503 -0.00000000000E+00 -0.00000000000E+00 -0.25495934383E+03  0.25495934383E+03  0.00000000000E+00 0.  1.
    9000007    2    1    2  501    0  0.12572123124E+03 -0.23463309162E+03  0.50035008593E+03  0.69367165689E+03  0.39996455271E+03 0.  0.
    9000005    1    3    3    0    0 -0.19347185005E+02 -0.85701087593E+02  0.47634753646E+03  0.48438307719E+03  0.99999687468E+00 0.  0.
          4    1    3    3  501    0  0.14506841625E+03 -0.14893200403E+03  0.24002549470E+02  0.20928857971E+03  0.00000000000E+00 0.  1.
   -9000007    1    1    2    0  503 -0.12572123124E+03  0.23463309162E+03  0.20629496365E+03  0.52289208035E+03  0.40000000000E+03 0.  1.
<mgrwt>
<rscale>  2 0.48047001E+03</rscale>
<asrwt>0</asrwt>
<pdfrwt beam="1">  1       21 0.14793914E+00 0.48047738E+03</pdfrwt>
<pdfrwt beam="2">  1       21 0.39224515E-01 0.48047738E+03</pdfrwt>
<totfact> 0.16378791E+03</totfact>
</mgrwt>
</event>
<event>
 6    1  0.9163926E-004  0.4071659E+03  0.7818608E-02  0.1041694E+00
         21   -1    0    0  501  502  0.00000000000E+00  0.00000000000E+00  0.66051991345E+03  0.66051991345E+03  0.00000000000E+00 0. -1.
         21   -1    0    0  502  503 -0.00000000000E+00 -0.00000000000E+00 -0.24834716896E+03  0.24834716896E+03  0.00000000000E+00 0. -1.
    9000007    2    1    2  501    0 -0.18299228449E+02  0.73818516687E+02  0.20808717303E+03  0.45341680451E+03  0.39560395835E+03 0.  0.
    9000005    1    3    3    0    0  0.13997142141E+02  0.23317885446E+03  0.16245052455E+03  0.28453377844E+03  0.99999687468E+00 0.  0.
          4    1    3    3  501    0 -0.32296370589E+02 -0.15936033777E+03  0.45636648482E+02  0.16888302606E+03  0.00000000000E+00 0.  1.
   -9000007    1    1    2    0  503  0.18299228449E+02 -0.73818516687E+02  0.20408557146E+03  0.45545027791E+03  0.40000000000E+03 0. -1.
<mgrwt>
<rscale>  2 0.40608208E+03</rscale>
<asrwt>0</asrwt>
<pdfrwt beam="1">  1       21 0.10161845E+00 0.40716586E+03</pdfrwt>
<pdfrwt beam="2">  1       21 0.38207257E-01 0.40716586E+03</pdfrwt>
<totfact> 0.46454132E+03</totfact>
</mgrwt>
</event>
<event>
 6    1  0.9163926E-004  0.4590311E+03  0.7818608E-02  0.1025079E+00
         21   -1    0    0  501  502  0.00000000000E+00  0.00000000000E+00  0.14067046537E+04  0.14067046537E+04  0.00000000000E+00 0.  1.
         21   -1    0    0  502  503 -0.00000000000E+00 -0.00000000000E+00 -0.16593525058E+03  0.16593525058E+03  0.00000000000E+00 0. -1.
    9000007    2    1    2  501    0  0.20654387864E+03  0.88558046399E+02  0.86635777884E+03  0.98045161854E+03  0.40025825906E+03 0.  0.
    9000005    1    3    3    0    0 -0.58202680144E+02 -0.51027365860E+02  0.16113854807E+02  0.79069591835E+02  0.99999687468E+00 0.  0.
          4    1    3    3  501    0  0.26474655879E+03  0.13958541226E+03  0.85024392404E+03  0.90138202671E+03  0.00000000000E+00 0.  1.
   -9000007    1    1    2    0  503 -0.20654387864E+03 -0.88558046399E+02  0.37441162432E+03  0.59218828578E+03  0.40000000000E+03 0. -1.
<mgrwt>
<rscale>  2 0.45897482E+03</rscale>
<asrwt>0</asrwt>
<pdfrwt beam="1">  1       21 0.21641609E+00 0.45903113E+03</pdfrwt>
<pdfrwt beam="2">  1       21 0.25528501E-01 0.45903113E+03</pdfrwt>
<totfact> 0.12799748E+03</totfact>
</mgrwt>
</event>
<event>
 6    1  0.9163926E-004  0.4472531E+03  0.7818608E-02  0.1028554E+00
         21   -1    0    0  501  502  0.00000000000E+00  0.00000000000E+00  0.10209071912E+03  0.10209071912E+03  0.00000000000E+00 0.  1.
         21   -1    0    0  502  503 -0.00000000000E+00 -0.00000000000E+00 -0.20306418125E+04  0.20306418125E+04  0.00000000000E+00 0.  1.
    9000007    2    1    2  501    0 -0.89249022451E+02  0.17908075551E+03 -0.76360337923E+03  0.88487898184E+03  0.39985670774E+03 0.  0.
    9000005    1    3    3    0    0 -0.39626390445E+02  0.22273030824E+03 -0.15862242465E+03  0.27629895878E+03  0.99999687468E+00 0.  0.
          4    1    3    3  501    0 -0.49622632006E+02 -0.43649552723E+02 -0.60498095458E+03  0.60858002306E+03  0.00000000000E+00 0.  1.
   -9000007    1    1    2    0  503  0.89249022451E+02 -0.17908075551E+03 -0.11649477142E+04  0.12478535498E+04  0.40000000000E+03 0.  1.
<mgrwt>
<rscale>  2 0.44722103E+03</rscale>
<asrwt>0</asrwt>
<pdfrwt beam="1">  1       21 0.15706266E-01 0.44725307E+03</pdfrwt>
<pdfrwt beam="2">  1       21 0.31240641E+00 0.44725307E+03</pdfrwt>
<totfact> 0.83848649E+02</totfact>
</mgrwt>
</event>
<event>
 6    1  0.9163926E-004  0.4539436E+03  0.7818608E-02  0.1026584E+00
         21   -1    0    0  501  502  0.00000000000E+00  0.00000000000E+00  0.25740393274E+03  0.25740393274E+03  0.00000000000E+00 0.  1.
         21   -1    0    0  502  503 -0.00000000000E+00 -0.00000000000E+00 -0.98106938989E+03  0.98106938989E+03  0.00000000000E+00 0. -1.
    9000007    2    1    2  501    0 -0.19735117503E+03 -0.84364309601E+02 -0.95519404197E+02  0.46346862145E+03  0.39951768856E+03 0.  0.
    9000005    1    3    3    0    0  0.43299294740E+02  0.98174247266E+02  0.60837881980E+02  0.12335015050E+03  0.99999687468E+00 0.  0.
          4    1    3    3  501    0 -0.24065046977E+03 -0.18253855687E+03 -0.15635728618E+03  0.34011847095E+03  0.00000000000E+00 0.  1.
   -9000007    1    1    2    0  503  0.19735117503E+03  0.84364309601E+02 -0.62814605295E+03  0.77500470118E+03  0.40000000000E+03 0.  1.
<mgrwt>
<rscale>  2 0.45383736E+03</rscale>
<asrwt>0</asrwt>
<pdfrwt beam="1">  1       21 0.39600605E-01 0.45394363E+03</pdfrwt>
<pdfrwt beam="2">  1       21 0.15093375E+00 0.45394363E+03</pdfrwt>
<totfact> 0.15369505E+03</totfact>
</mgrwt>
</event>
<event>
 6    1  0.9163926E-004  0.4486610E+03  0.7818608E-02  0.1028142E+00
         21   -1    0    0  501  502  0.00000000000E+00  0.00000000000E+00  0.21620345986E+03  0.21620345986E+03  0.00000000000E+00 0. -1.
         21   -1    0    0  502  503 -0.00000000000E+00 -0.00000000000E+00 -0.96554721136E+03  0.96554721136E+03  0.00000000000E+00 0. -1.
    9000007    2    1    2  501    0  0.20237952032E+03  0.10013675283E+02 -0.26220488667E+03  0.51966154008E+03  0.40029860069E+03 0.  0.
    9000005    1    3    3    0    0  0.15692694838E+03  0.16448452346E+03 -0.19194477348E+02  0.22814612322E+03  0.99999687468E+00 0.  0.
          4    1    3    3  501    0  0.45452571944E+02 -0.15447084818E+03 -0.24301040932E+03  0.29151541687E+03  0.00000000000E+00 0.  1.
   -9000007    1    1    2    0  503 -0.20237952032E+03 -0.10013675283E+02 -0.48713886484E+03  0.66208913114E+03  0.40000000000E+03 0. -1.
<mgrwt>
<rscale>  2 0.44859441E+03</rscale>
<asrwt>0</asrwt>
<pdfrwt beam="1">  1       21 0.33262071E-01 0.44866102E+03</pdfrwt>
<pdfrwt beam="2">  1       21 0.14854572E+00 0.44866102E+03</pdfrwt>
<totfact> 0.22929725E+03</totfact>
</mgrwt>
</event>
<event>
 6    1  0.9163926E-004  0.4871177E+03  0.7818608E-02  0.1017219E+00
         21   -1    0    0  501  502  0.00000000000E+00  0.00000000000E+00  0.77869529825E+03  0.77869529825E+03  0.00000000000E+00 0. -1.
         21   -1    0    0  502  503 -0.00000000000E+00 -0.00000000000E+00 -0.60037054015E+03  0.60037054015E+03  0.00000000000E+00 0. -1.
    9000007    2    1    2  501    0  0.27742297147E+03  0.13171534995E+01 -0.39486676347E+03  0.62705934880E+03  0.40039783469E+03 0.  0.
    9000005    1    3    3    0    0 -0.70588097013E+02 -0.19842156401E+02 -0.22996836188E+03  0.24137696259E+03  0.99999687468E+00 0.  0.
          4    1    3    3  501    0  0.34801106848E+03  0.21159309901E+02 -0.16489840159E+03  0.38568238621E+03  0.00000000000E+00 0.  1.
   -9000007    1    1    2    0  503 -0.27742297147E+03 -0.13171534995E+01  0.57319152158E+03  0.75200648960E+03  0.40000000000E+03 0. -1.
<mgrwt>
<rscale>  2 0.48703595E+03</rscale>
<asrwt>0</asrwt>
<pdfrwt beam="1">  1       21 0.11979928E+00 0.48711771E+03</pdfrwt>
<pdfrwt beam="2">  1       21 0.92364698E-01 0.48711771E+03</pdfrwt>
<totfact> 0.43016597E+02</totfact>
</mgrwt>
</event>
<event>
 6    1  0.9163926E-004  0.4909123E+03  0.7818608E-02  0.1016183E+00
         21   -1    0    0  501  502  0.00000000000E+00  0.00000000000E+00  0.85396212914E+03  0.85396212914E+03  0.00000000000E+00 0. -1.
         21   -1    0    0  502  503 -0.00000000000E+00 -0.00000000000E+00 -0.34355006661E+03  0.34355006661E+03  0.00000000000E+00 0.  1.
    9000007    2    1    2  501    0  0.19811579474E+03  0.20431604704E+03  0.50827827271E+03  0.70659522897E+03  0.39991886663E+03 0.  0.
    9000005    1    3    3    0    0  0.41217262030E+02  0.19784974706E+03  0.51102760108E+03  0.54953943822E+03  0.99999687468E+00 0.  0.
          4    1    3    3  501    0  0.15689853271E+03  0.64662999880E+01 -0.27493283680E+01  0.15705579075E+03  0.00000000000E+00 0.  1.
   -9000007    1    1    2    0  503 -0.19811579474E+03 -0.20431604704E+03  0.21337898183E+01  0.49091696677E+03  0.40000000000E+03 0.  1.
<mgrwt>
<rscale>  2 0.49089580E+03</rscale>
<asrwt>0</asrwt>
<pdfrwt beam="1">  1       21 0.13137879E+00 0.49091233E+03</pdfrwt>
<pdfrwt beam="2">  1       21 0.52853857E-01 0.49091233E+03</pdfrwt>
<totfact> 0.11950981E+03</totfact>
</mgrwt>
</event>
<event>
 6    1  0.9163926E-004  0.4341764E+03  0.7818608E-02  0.1032552E+00
         21   -1    0    0  501  502  0.00000000000E+00  0.00000000000E+00  0.61709950808E+03  0.61709950808E+03  0.00000000000E+00 0.  1.
         21   -1    0    0  502  503 -0.00000000000E+00 -0.00000000000E+00 -0.83829553676E+03  0.83829553676E+03  0.00000000000E+00 0. -1.
    9000007    2    1    2  501    0  0.16883985270E+03  0.15069988717E+01  0.46957030183E+03  0.63951068399E+03  0.39996059765E+03 0.  0.
    9000005    1    3    3    0    0  0.19862792435E+03  0.10592977944E+03  0.86187873716E+02  0.24104671761E+03  0.99999687468E+00 0.  0.
          4    1    3    3  501    0 -0.29788071645E+02 -0.10442278057E+03  0.38338242812E+03  0.39846396638E+03  0.00000000000E+00 0.  1.
   -9000007    1    1    2    0  503 -0.16883985270E+03 -0.15069988717E+01 -0.69076633051E+03  0.81588436084E+03  0.40000000000E+03 0. -1.
<mgrwt>
<rscale>  2 0.43416735E+03</rscale>
<asrwt>0</asrwt>
<pdfrwt beam="1">  1       21 0.94938386E-01 0.43417642E+03</pdfrwt>
<pdfrwt beam="2">  1       21 0.12896854E+00 0.43417642E+03</pdfrwt>
<totfact> 0.34148830E+02</totfact>
</mgrwt>
</event>
<event>
 6    1  0.9163926E-004  0.5956035E+03  0.7818608E-02  0.9914596E-01
         21   -1    0    0  501  502  0.00000000000E+00  0.00000000000E+00  0.40310050792E+03  0.40310050792E+03  0.00000000000E+00 0. -1.
         21   -1    0    0  502  503 -0.00000000000E+00 -0.00000000000E+00 -0.10703717795E+04  0.10703717795E+04  0.00000000000E+00 0.  1.
    9000007    2    1    2  501    0 -0.20309192822E+03  0.39171090787E+03 -0.22913883641E+02  0.59604410801E+03  0.40007470049E+03 0.  0.
    9000005    1    3    3    0    0 -0.18972457425E+03  0.47049359435E+03 -0.54273695064E+02  0.51020218577E+03  0.99999687468E+00 0.  0.
          4    1    3    3  501    0 -0.13367353967E+02 -0.78782686476E+02  0.31359811423E+02  0.85841922235E+02  0.00000000000E+00 0.  1.
   -9000007    1    1    2    0  503  0.20309192822E+03 -0.39171090787E+03 -0.64435738794E+03  0.87742817942E+03  0.40000000000E+03 0.  1.
<mgrwt>
<rscale>  2 0.59559096E+03</rscale>
<asrwt>0</asrwt>
<pdfrwt beam="1">  1       21 0.62015463E-01 0.59560350E+03</pdfrwt>
<pdfrwt beam="2">  1       21 0.16467258E+00 0.59560350E+03</pdfrwt>
<totfact> 0.43906605E+02</totfact>
</mgrwt>
</event>
<event>
 6    1  0.9163926E-004  0.4759900E+03  0.7818608E-02  0.1020260E+00
         21   -1    0    0  501  502  0.00000000000E+00  0.00000000000E+00  0.64894126406E+03  0.64894126406E+03  0.00000000000E+00 0.  1.
         21   -1    0    0  502  503 -0.00000000000E+00 -0.00000000000E+00 -0.35033622086E+03  0.35033622086E+03  0.00000000000E+00 0. -1.
    9000007    2    1    2  501    0  0.37967035463E+02 -0.25519601802E+03  0.18065671515E+03  0.50889160474E+03  0.39970903573E+03 0.  0.
    9000005    1    3    3    0    0 -0.14833192978E+03 -0.24699972053E+03  0.12683715250E+03  0.31480134463E+03  0.99999687468E+00 0.  0.
          4    1    3    3  501    0  0.18629896524E+03 -0.81962974880E+01  0.53819562652E+02  0.19409026010E+03  0.00000000000E+00 0.  1.
   -9000007    1    1    2    0  503 -0.37967035463E+02  0.25519601802E+03  0.11794832806E+03  0.49038588019E+03  0.40000000000E+03 0. -1.
<mgrwt>
<rscale>  2 0.47592889E+03</rscale>
<asrwt>0</asrwt>
<pdfrwt beam="1">  1       21 0.99837117E-01 0.47599002E+03</pdfrwt>
<pdfrwt beam="2">  1       21 0.53897880E-01 0.47599002E+03</pdfrwt>
<totfact> 0.22992976E+03</totfact>
</mgrwt>
</event>
<event>
 6    1  0.9163926E-004  0.4540281E+03  0.7818608E-02  0.1026551E+00
         21   -1    0    0  501  502  0.00000000000E+00  0.00000000000E+00  0.73601930147E+03  0.73601930147E+03  0.00000000000E+00 0.  1.
         21   -1    0    0  502  503 -0.00000000000E+00 -0.00000000000E+00 -0.32680809710E+03  0.32680809710E+03  0.00000000000E+00 0.  1.
    9000007    2    1    2  501    0  0.15813536795E+03 -0.14537785841E+03  0.40591549755E+03  0.60878733647E+03  0.39964123108E+03 0.  0.
    9000005    1    3    3    0    0  0.75748035031E+02 -0.12032470498E+03  0.47661409884E+03  0.49737088641E+03  0.99999687468E+00 0.  0.
          4    1    3    3  501    0  0.82387332916E+02 -0.25053153426E+02 -0.70698601283E+02  0.11141645006E+03  0.00000000000E+00 0.  1.
   -9000007    1    1    2    0  503 -0.15813536795E+03  0.14537785841E+03  0.32957068181E+01  0.45404006210E+03  0.40000000000E+03 0.  1.
<mgrwt>
<rscale>  2 0.45394907E+03</rscale>
<asrwt>0</asrwt>
<pdfrwt beam="1">  1       21 0.11323374E+00 0.45402810E+03</pdfrwt>
<pdfrwt beam="2">  1       21 0.50278169E-01 0.45402810E+03</pdfrwt>
<totfact> 0.19714129E+03</totfact>
</mgrwt>
</event>
<event>
 6    1  0.9163926E-004  0.4370265E+03  0.7818608E-02  0.1031733E+00
         21   -1    0    0  501  502  0.00000000000E+00  0.00000000000E+00  0.10738133112E+04  0.10738133112E+04  0.00000000000E+00 0.  1.
         21   -1    0    0  502  503 -0.00000000000E+00 -0.00000000000E+00 -0.17912694567E+03  0.17912694567E+03  0.00000000000E+00 0. -1.
    9000007    2    1    2  501    0 -0.12390950991E+03  0.12505447582E+03  0.50663058604E+03  0.66849224673E+03  0.39901772475E+03 0.  0.
    9000005    1    3    3    0    0 -0.57421160733E+02  0.14299486580E+03 -0.31029934891E+01  0.15412770649E+03  0.99999687468E+00 0.  0.
          4    1    3    3  501    0 -0.66488349176E+02 -0.17940389976E+02  0.50973357952E+03  0.51436454025E+03  0.00000000000E+00 0.  1.
   -9000007    1    1    2    0  503  0.12390950991E+03 -0.12505447582E+03  0.38805577952E+03  0.58444801017E+03  0.40000000000E+03 0. -1.
<mgrwt>
<rscale>  2 0.43680164E+03</rscale>
<asrwt>0</asrwt>
<pdfrwt beam="1">  1       21 0.16520204E+00 0.43702653E+03</pdfrwt>
<pdfrwt beam="2">  1       21 0.27557992E-01 0.43702653E+03</pdfrwt>
<totfact> 0.24973349E+03</totfact>
</mgrwt>
</event>
<event>
 6    1  0.9163926E-004  0.4104530E+03  0.7818608E-02  0.1040228E+00
         21   -1    0    0  501  502  0.00000000000E+00  0.00000000000E+00  0.23733895794E+04  0.23733895794E+04  0.00000000000E+00 0. -1.
         21   -1    0    0  502  503 -0.00000000000E+00 -0.00000000000E+00 -0.15377903552E+03  0.15377903552E+03  0.00000000000E+00 0. -1.
    9000007    2    1    2  501    0  0.64968444592E+02  0.64507432375E+02  0.20371480576E+04  0.20780865884E+04  0.40011192549E+03 0.  0.
    9000005    1    3    3    0    0  0.19449710801E+03 -0.30482913107E+02  0.16054095853E+04  0.16174360171E+04  0.99999687468E+00 0.  0.
          4    1    3    3  501    0 -0.12952866341E+03  0.94990345482E+02  0.43173847229E+03  0.46065057130E+03  0.00000000000E+00 0.  1.
   -9000007    1    1    2    0  503 -0.64968444592E+02 -0.64507432375E+02  0.18246248635E+03  0.44908202653E+03  0.40000000000E+03 0. -1.
<mgrwt>
<rscale>  2 0.41042572E+03</rscale>
<asrwt>0</asrwt>
<pdfrwt beam="1">  1       21 0.36513683E+00 0.41045299E+03</pdfrwt>
<pdfrwt beam="2">  1       21 0.23658315E-01 0.41045299E+03</pdfrwt>
<totfact> 0.18855170E+02</totfact>
</mgrwt>
</event>
<event>
 6    1  0.9163926E-004  0.7813610E+03  0.7818608E-02  0.9587425E-01
         21   -1    0    0  501  502  0.00000000000E+00  0.00000000000E+00  0.74906423594E+03  0.74906423594E+03  0.00000000000E+00 0.  1.
         21   -1    0    0  502  503 -0.00000000000E+00 -0.00000000000E+00 -0.14086506409E+04  0.14086506409E+04  0.00000000000E+00 0. -1.
    9000007    2    1    2  501    0 -0.39613244314E+03  0.54185245557E+03  0.37060768260E+03  0.86472421400E+03  0.39984111313E+03 0.  0.
    9000005    1    3    3    0    0  0.54716586579E+02  0.36033014893E+02  0.13019845928E+03  0.14575637826E+03  0.99999687468E+00 0.  0.
          4    1    3    3  501    0 -0.45084902972E+03  0.50581944068E+03  0.24040922332E+03  0.71896783574E+03  0.00000000000E+00 0.  1.
   -9000007    1    1    2    0  503  0.39613244314E+03 -0.54185245557E+03 -0.10301940875E+04  0.12929906628E+04  0.40000000000E+03 0. -1.
<mgrwt>
<rscale>  2 0.78134066E+03</rscale>
<asrwt>0</asrwt>
<pdfrwt beam="1">  1       21 0.11524065E+00 0.78136099E+03</pdfrwt>
<pdfrwt beam="2">  1       21 0.21671548E+00 0.78136099E+03</pdfrwt>
<totfact> 0.41129698E+01</totfact>
</mgrwt>
</event>
<event>
 6    1  0.9163926E-004  0.4724049E+03  0.7818608E-02  0.1021305E+00
         21   -1    0    0  501  502  0.00000000000E+00  0.00000000000E+00  0.26358789835E+03  0.26358789835E+03  0.00000000000E+00 0. -1.
         21   -1    0    0  502  503 -0.00000000000E+00 -0.00000000000E+00 -0.84571542917E+03  0.84571542917E+03  0.00000000000E+00 0. -1.
    9000007    2    1    2  501    0 -0.67033304810E+02 -0.24050167470E+03 -0.30665604828E+03  0.56320896097E+03  0.40103850474E+03 0.  0.
    9000005    1    3    3    0    0  0.99087666604E+02 -0.23864060023E+03 -0.59089316489E+02  0.26506649934E+03  0.99999687468E+00 0.  0.
          4    1    3    3  501    0 -0.16612097141E+03 -0.18610744711E+01 -0.24756673179E+03  0.29814246163E+03  0.00000000000E+00 0.  1.
   -9000007    1    1    2    0  503  0.67033304810E+02  0.24050167470E+03 -0.27547148254E+03  0.54609436656E+03  0.40000000000E+03 0. -1.
<mgrwt>
<rscale>  2 0.47218443E+03</rscale>
<asrwt>0</asrwt>
<pdfrwt beam="1">  1       21 0.40551983E-01 0.47240491E+03</pdfrwt>
<pdfrwt beam="2">  1       21 0.13011007E+00 0.47240491E+03</pdfrwt>
<totfact> 0.21568570E+03</totfact>
</mgrwt>
</event>
<event>
 6    1  0.9163926E-004  0.4006979E+03  0.7818608E-02  0.1043557E+00
         21   -1    0    0  501  502  0.00000000000E+00  0.00000000000E+00  0.46548371175E+03  0.46548371175E+03  0.00000000000E+00 0.  1.
         21   -1    0    0  502  503 -0.00000000000E+00 -0.00000000000E+00 -0.47268907705E+03  0.47268907705E+03  0.00000000000E+00 0.  1.
    9000007    2    1    2  501    0 -0.14859252012E+02 -0.12954891500E+02  0.24044348500E+03  0.46730276465E+03  0.40021266571E+03 0.  0.
    9000005    1    3    3    0    0  0.10888377832E+03 -0.16440447039E+03  0.74445648600E+02  0.21077870304E+03  0.99999687468E+00 0.  0.
          4    1    3    3  501    0 -0.12374303033E+03  0.15144957889E+03  0.16599783640E+03  0.25652406162E+03  0.00000000000E+00 0.  1.
   -9000007    1    1    2    0  503  0.14859252012E+02  0.12954891500E+02 -0.24764885030E+03  0.47087002414E+03  0.40000000000E+03 0.  1.
<mgrwt>
<rscale>  2 0.40064478E+03</rscale>
<asrwt>0</asrwt>
<pdfrwt beam="1">  1       21 0.71612879E-01 0.40069790E+03</pdfrwt>
<pdfrwt beam="2">  1       21 0.72721397E-01 0.40069790E+03</pdfrwt>
<totfact> 0.26550992E+03</totfact>
</mgrwt>
</event>
<event>
 6    1  0.9163926E-004  0.4548571E+03  0.7818608E-02  0.1026285E+00
         21   -1    0    0  501  502  0.00000000000E+00  0.00000000000E+00  0.56780490759E+03  0.56780490759E+03  0.00000000000E+00 0.  1.
         21   -1    0    0  502  503 -0.00000000000E+00 -0.00000000000E+00 -0.36439028878E+03  0.36439028878E+03  0.00000000000E+00 0. -1.
    9000007    2    1    2  501    0  0.19298833412E+03  0.98113717744E+02  0.10625862589E+03  0.46710371540E+03  0.40003023216E+03 0.  0.
    9000005    1    3    3    0    0  0.31003911513E+03  0.11462992378E+03  0.11129484531E+03  0.34878620231E+03  0.99999687468E+00 0.  0.
          4    1    3    3  501    0 -0.11705078101E+03 -0.16516206040E+02 -0.50362194221E+01  0.11831751308E+03  0.00000000000E+00 0.  1.
   -9000007    1    1    2    0  503 -0.19298833412E+03 -0.98113717744E+02  0.97155992919E+02  0.46509148098E+03  0.40000000000E+03 0.  1.
<mgrwt>
<rscale>  2 0.45485046E+03</rscale>
<asrwt>0</asrwt>
<pdfrwt beam="1">  1       21 0.87354601E-01 0.45485710E+03</pdfrwt>
<pdfrwt beam="2">  1       21 0.56060045E-01 0.45485710E+03</pdfrwt>
<totfact> 0.29280382E+03</totfact>
</mgrwt>
</event>
<event>
 6    1  0.9163926E-004  0.5978398E+03  0.7818608E-02  0.9910027E-01
         21   -1    0    0  501  502  0.00000000000E+00  0.00000000000E+00  0.56460661701E+03  0.56460661701E+03  0.00000000000E+00 0.  1.
         21   -1    0    0  502  503 -0.00000000000E+00 -0.00000000000E+00 -0.13234286262E+04  0.13234286262E+04  0.00000000000E+00 0. -1.
    9000007    2    1    2  501    0  0.68679793300E+02  0.43863468887E+03  0.30251681338E+03  0.67002153206E+03  0.40036873849E+03 0.  0.
    9000005    1    3    3    0    0  0.14725248123E+03  0.34377848839E+03  0.35138259253E+02  0.37563631289E+03  0.99999687468E+00 0.  0.
          4    1    3    3  501    0 -0.78572687929E+02  0.94856200481E+02  0.26737855413E+03  0.29438521917E+03  0.00000000000E+00 0.  1.
   -9000007    1    1    2    0  503 -0.68679793300E+02 -0.43863468887E+03 -0.10613388226E+04  0.12180137112E+04  0.40000000000E+03 0. -1.
<mgrwt>
<rscale>  2 0.59777807E+03</rscale>
<asrwt>0</asrwt>
<pdfrwt beam="1">  1       21 0.86862557E-01 0.59783980E+03</pdfrwt>
<pdfrwt beam="2">  1       21 0.20360440E+00 0.59783980E+03</pdfrwt>
<totfact> 0.10780279E+02</totfact>
</mgrwt>
</event>
<event>
 6    1  0.9163926E-004  0.4931794E+03  0.7818608E-02  0.1015655E+00
         21   -1    0    0  501  502  0.00000000000E+00  0.00000000000E+00  0.61808347930E+03  0.61808347930E+03  0.00000000000E+00 0. -1.
         21   -1    0    0  502  503 -0.00000000000E+00 -0.00000000000E+00 -0.39787508377E+03  0.39787508377E+03  0.00000000000E+00 0. -1.
    9000007    2    1    2  501    0 -0.27535981303E+03  0.86040212439E+02  0.16871964943E+03  0.52009866777E+03  0.39851017468E+03 0.  0.
    9000005    1    3    3    0    0 -0.19395407993E+03  0.24168043625E+03  0.66719822948E+02  0.31698604568E+03  0.99999687468E+00 0.  0.
          4    1    3    3  501    0 -0.81405733097E+02 -0.15564022381E+03  0.10199982648E+03  0.20311262209E+03  0.00000000000E+00 0.  1.
   -9000007    1    1    2    0  503  0.27535981303E+03 -0.86040212439E+02  0.51488746101E+02  0.49585989530E+03  0.40000000000E+03 0. -1.
<mgrwt>
<rscale>  2 0.49287725E+03</rscale>
<asrwt>0</asrwt>
<pdfrwt beam="1">  1       21 0.95089766E-01 0.49317942E+03</pdfrwt>
<pdfrwt beam="2">  1       21 0.61211551E-01 0.49317942E+03</pdfrwt>
<totfact> 0.19484484E+03</totfact>
</mgrwt>
</event>
<event>
 6    1  0.9163926E-004  0.5032751E+03  0.7818608E-02  0.1012929E+00
         21   -1    0    0  501  502  0.00000000000E+00  0.00000000000E+00  0.12367274551E+03  0.12367274551E+03  0.00000000000E+00 0.  1.
         21   -1    0    0  502  503 -0.00000000000E+00 -0.00000000000E+00 -0.21360488370E+04  0.21360488370E+04  0.00000000000E+00 0.  1.
    9000007    2    1    2  501    0  0.16154330160E+03 -0.25920953575E+03 -0.77673653995E+03  0.92552110168E+03  0.39997979380E+03 0.  0.
    9000005    1    3    3    0    0 -0.12078160353E+02 -0.30430100823E+03 -0.35819627954E+03  0.47016014318E+03  0.99999687468E+00 0.  0.
          4    1    3    3  501    0  0.17362146195E+03  0.45091472482E+02 -0.41854026040E+03  0.45536095849E+03  0.00000000000E+00 0.  1.
   -9000007    1    1    2    0  503 -0.16154330160E+03  0.25920953575E+03 -0.12356395515E+04  0.13342004808E+04  0.40000000000E+03 0.  1.
<mgrwt>
<rscale>  2 0.50327108E+03</rscale>
<asrwt>0</asrwt>
<pdfrwt beam="1">  1       21 0.19026579E-01 0.50327510E+03</pdfrwt>
<pdfrwt beam="2">  1       21 0.32862286E+00 0.50327510E+03</pdfrwt>
<totfact> 0.45237279E+02</totfact>
</mgrwt>
</event>
<event>
 6    1  0.9163926E-004  0.4294102E+03  0.7818608E-02  0.1034053E+00
         21   -1    0    0  501  502  0.00000000000E+00  0.00000000000E+00  0.32382573062E+03  0.32382573062E+03  0.00000000000E+00 0. -1.
         21   -1    0    0  502  503 -0.00000000000E+00 -0.00000000000E+00 -0.65680207911E+03  0.65680207911E+03  0.00000000000E+00 0. -1.
    9000007    2    1    2  501    0 -0.11268233121E+03  0.10780207089E+03  0.12455556064E+02  0.42959079197E+03  0.40009313093E+03 0.  0.
    9000005    1    3    3    0    0 -0.62940840143E+02  0.46021182744E+02  0.20608592364E+03  0.22034497166E+03  0.99999687468E+00 0.  0.
          4    1    3    3  501    0 -0.49741491067E+02  0.61780888146E+02 -0.19363036757E+03  0.20924582032E+03  0.00000000000E+00 0.  1.
   -9000007    1    1    2    0  503  0.11268233121E+03 -0.10780207089E+03 -0.34543190456E+03  0.55103701776E+03  0.40000000000E+03 0. -1.
<mgrwt>
<rscale>  2 0.42938849E+03</rscale>
<asrwt>0</asrwt>
<pdfrwt beam="1">  1       21 0.49819343E-01 0.42941019E+03</pdfrwt>
<pdfrwt beam="2">  1       21 0.10104647E+00 0.42941019E+03</pdfrwt>
<totfact> 0.26874512E+03</totfact>
</mgrwt>
</event>
<event>
 6    1  0.9163926E-004  0.4388454E+03  0.7818608E-02  0.1031135E+00
         21   -1    0    0  501  502  0.00000000000E+00  0.00000000000E+00  0.22754534811E+03  0.22754534811E+03  0.00000000000E+00 0.  1.
         21   -1    0    0  502  503 -0.00000000000E+00 -0.00000000000E+00 -0.87855544686E+03  0.87855544686E+03  0.00000000000E+00 0. -1.
    9000007    2    1    2  501    0  0.16065906142E+03 -0.79968273182E+02 -0.43289132623E+03  0.61642533341E+03  0.40047351050E+03 0.  0.
    9000005    1    3    3    0    0  0.23072445747E+02  0.14515425744E+03 -0.26695973862E+03  0.30474677725E+03  0.99999687468E+00 0.  0.
          4    1    3    3  501    0  0.13758661567E+03 -0.22512253062E+03 -0.16593158761E+03  0.31167855616E+03  0.00000000000E+00 0.  1.
   -9000007    1    1    2    0  503 -0.16065906142E+03  0.79968273182E+02 -0.21811877252E+03  0.48967546156E+03  0.40000000000E+03 0.  1.
<mgrwt>
<rscale>  2 0.43873735E+03</rscale>
<asrwt>0</asrwt>
<pdfrwt beam="1">  1       21 0.35006977E-01 0.43884541E+03</pdfrwt>
<pdfrwt beam="2">  1       21 0.13516237E+00 0.43884541E+03</pdfrwt>
<totfact> 0.26709358E+03</totfact>
</mgrwt>
</event>
<event>
 6    1  0.9163926E-004  0.4419260E+03  0.7818608E-02  0.1030185E+00
         21   -1    0    0  501  502  0.00000000000E+00  0.00000000000E+00  0.15695212866E+03  0.15695212866E+03  0.00000000000E+00 0. -1.
         21   -1    0    0  502  503 -0.00000000000E+00 -0.00000000000E+00 -0.18504236782E+04  0.18504236782E+04  0.00000000000E+00 0. -1.
    9000007    2    1    2  501    0 -0.15633481450E+03 -0.10420184472E+03 -0.27159087172E+03  0.51840191165E+03  0.39960022739E+03 0.  0.
    9000005    1    3    3    0    0  0.21751721438E+02  0.12288490419E+03 -0.17324800480E+03  0.21351746585E+03  0.99999687468E+00 0.  0.
          4    1    3    3  501    0 -0.17808653594E+03 -0.22708674891E+03 -0.98342866921E+02  0.30488444580E+03  0.00000000000E+00 0.  1.
   -9000007    1    1    2    0  503  0.15633481450E+03  0.10420184472E+03 -0.14218806779E+04  0.14889738952E+04  0.40000000000E+03 0. -1.
<mgrwt>
<rscale>  2 0.44183553E+03</rscale>
<asrwt>0</asrwt>
<pdfrwt beam="1">  1       21 0.24146481E-01 0.44192601E+03</pdfrwt>
<pdfrwt beam="2">  1       21 0.28468057E+00 0.44192601E+03</pdfrwt>
<totfact> 0.54560880E+02</totfact>
</mgrwt>
</event>
<event>
 6    1  0.9163926E-004  0.4874564E+03  0.7818608E-02  0.1017117E+00
         21   -1    0    0  501  502  0.00000000000E+00  0.00000000000E+00  0.66422306871E+03  0.66422306871E+03  0.00000000000E+00 0. -1.
         21   -1    0    0  502  503 -0.00000000000E+00 -0.00000000000E+00 -0.36507115179E+03  0.36507115179E+03  0.00000000000E+00 0.  1.
    9000007    2    1    2  501    0  0.27744783475E+03  0.25226886869E+02  0.22311538671E+03  0.53594317839E+03  0.39980109785E+03 0.  0.
    9000005    1    3    3    0    0  0.36846661082E+03  0.80732344013E+02  0.14649239436E+03  0.40465587387E+03  0.99999687468E+00 0.  0.
          4    1    3    3  501    0 -0.91018776070E+02 -0.55505457145E+02  0.76622992351E+02  0.13128730452E+03  0.00000000000E+00 0.  1.
   -9000007    1    1    2    0  503 -0.27744783475E+03 -0.25226886869E+02  0.76036530206E+02  0.49335104212E+03  0.40000000000E+03 0. -1.
<mgrwt>
<rscale>  2 0.48741555E+03</rscale>
<asrwt>0</asrwt>
<pdfrwt beam="1">  1       21 0.10218816E+00 0.48745635E+03</pdfrwt>
<pdfrwt beam="2">  1       21 0.56164793E-01 0.48745635E+03</pdfrwt>
<totfact> 0.19789542E+03</totfact>
</mgrwt>
</event>
<event>
 6    1  0.9163926E-004  0.5489935E+03  0.7818608E-02  0.1001797E+00
         21   -1    0    0  501  502  0.00000000000E+00  0.00000000000E+00  0.52180653775E+03  0.52180653775E+03  0.00000000000E+00 0. -1.
         21   -1    0    0  502  503 -0.00000000000E+00 -0.00000000000E+00 -0.12843078995E+04  0.12843078995E+04  0.00000000000E+00 0.  1.
    9000007    2    1    2  501    0  0.23895007523E+03  0.28806489632E+03  0.28904655611E+03  0.62043676330E+03  0.40164081306E+03 0.  0.
    9000005    1    3    3    0    0 -0.52574317389E+02  0.22931123231E+03  0.20330593656E+03  0.31093729906E+03  0.99999687468E+00 0.  0.
          4    1    3    3  501    0  0.29152439262E+03  0.58753664013E+02  0.85740619547E+02  0.30949946424E+03  0.00000000000E+00 0.  1.
   -9000007    1    1    2    0  503 -0.23895007523E+03 -0.28806489632E+03 -0.10515479178E+04  0.11856776739E+04  0.40000000000E+03 0.  1.
<mgrwt>
<rscale>  2 0.54869344E+03</rscale>
<asrwt>0</asrwt>
<pdfrwt beam="1">  1       21 0.80277929E-01 0.54899350E+03</pdfrwt>
<pdfrwt beam="2">  1       21 0.19758583E+00 0.54899350E+03</pdfrwt>
<totfact> 0.14542141E+02</totfact>
</mgrwt>
</event>
<event>
 6    1  0.9163926E-004  0.4387970E+03  0.7818608E-02  0.1031229E+00
         21   -1    0    0  501  502  0.00000000000E+00  0.00000000000E+00  0.78798671516E+03  0.78798671516E+03  0.00000000000E+00 0.  1.
         21   -1    0    0  502  503 -0.00000000000E+00 -0.00000000000E+00 -0.26547046745E+03  0.26547046745E+03  0.00000000000E+00 0.  1.
    9000007    2    1    2  501    0  0.82841689567E+02 -0.16024994114E+03  0.10944337089E+03  0.45081965413E+03  0.39839392559E+03 0.  0.
    9000005    1    3    3    0    0 -0.82413365567E+02 -0.10033501925E+03 -0.10963313438E+03  0.16993970419E+03  0.99999687468E+00 0.  0.
          4    1    3    3  501    0  0.16525505513E+03 -0.59914921893E+02  0.21907650528E+03  0.28087994994E+03  0.00000000000E+00 0.  1.
   -9000007    1    1    2    0  503 -0.82841689567E+02  0.16024994114E+03  0.41307287682E+03  0.60263752848E+03  0.40000000000E+03 0.  1.
<mgrwt>
<rscale>  2 0.43843063E+03</rscale>
<asrwt>0</asrwt>
<pdfrwt beam="1">  1       21 0.12122872E+00 0.43879698E+03</pdfrwt>
<pdfrwt beam="2">  1       21 0.40841611E-01 0.43879698E+03</pdfrwt>
<totfact> 0.25820579E+03</totfact>
</mgrwt>
</event>
<event>
 6    1  0.9163926E-004  0.4474591E+03  0.7818608E-02  0.1028738E+00
         21   -1    0    0  501  502  0.00000000000E+00  0.00000000000E+00  0.33036043548E+04  0.33036043548E+04  0.00000000000E+00 0.  1.
         21   -1    0    0  502  503 -0.00000000000E+00 -0.00000000000E+00 -0.38050350872E+03  0.38050350872E+03  0.00000000000E+00 0. -1.
    9000007    2    1    2  501    0  0.18128424412E+03  0.65840849181E+02  0.31526294444E+04  0.31842255054E+04  0.40375817158E+03 0.  0.
    9000005    1    3    3    0    0 -0.27814395598E+02 -0.97360387772E+02  0.25333434377E+03  0.27282224146E+03  0.99999687468E+00 0.  0.
          4    1    3    3  501    0  0.20909863972E+03  0.16320123695E+03  0.28992951006E+04  0.29114032639E+04  0.00000000000E+00 0.  1.
   -9000007    1    1    2    0  503 -0.18128424412E+03 -0.65840849181E+02 -0.22952859825E+03  0.49988235816E+03  0.40000000000E+03 0. -1.
<mgrwt>
<rscale>  2 0.44660965E+03</rscale>
<asrwt>0</asrwt>
<pdfrwt beam="1">  1       21 0.50824681E+00 0.44745911E+03</pdfrwt>
<pdfrwt beam="2">  1       21 0.58539003E-01 0.44745911E+03</pdfrwt>
<totfact> 0.31873889E+00</totfact>
</mgrwt>
</event>
<event>
 6    1  0.9163926E-004  0.7216727E+03  0.7818608E-02  0.9681064E-01
         21   -1    0    0  501  502  0.00000000000E+00  0.00000000000E+00  0.69570520053E+03  0.69570520053E+03  0.00000000000E+00 0.  1.
         21   -1    0    0  502  503 -0.00000000000E+00 -0.00000000000E+00 -0.74887656515E+03  0.74887656515E+03  0.00000000000E+00 0. -1.
    9000007    2    1    2  501    0 -0.55451669027E+03 -0.22944640097E+03 -0.49510948673E+02  0.72336903052E+03  0.40084536866E+03 0.  0.
    9000005    1    3    3    0    0 -0.47930052814E+03 -0.12874740956E+03 -0.19310484611E+03  0.53253673425E+03  0.99999687468E+00 0.  0.
          4    1    3    3  501    0 -0.75216162130E+02 -0.10069899142E+03  0.14359389744E+03  0.19083229627E+03  0.00000000000E+00 0.  1.
   -9000007    1    1    2    0  503  0.55451669027E+03  0.22944640097E+03 -0.36604159545E+01  0.72121273516E+03  0.40000000000E+03 0. -1.
<mgrwt>
<rscale>  2 0.72155532E+03</rscale>
<asrwt>0</asrwt>
<pdfrwt beam="1">  1       21 0.10703157E+00 0.72167265E+03</pdfrwt>
<pdfrwt beam="2">  1       21 0.11521178E+00 0.72167265E+03</pdfrwt>
<totfact> 0.30545286E+02</totfact>
</mgrwt>
</event>
<event>
 6    1  0.9163926E-004  0.5050582E+03  0.7818608E-02  0.1012491E+00
         21   -1    0    0  501  502  0.00000000000E+00  0.00000000000E+00  0.71840954612E+03  0.71840954612E+03  0.00000000000E+00 0.  1.
         21   -1    0    0  502  503 -0.00000000000E+00 -0.00000000000E+00 -0.35534114197E+03  0.35534114197E+03  0.00000000000E+00 0.  1.
    9000007    2    1    2  501    0 -0.29591439871E+03 -0.84508624636E+02  0.20245305011E+03  0.54412409230E+03  0.40047066224E+03 0.  0.
    9000005    1    3    3    0    0 -0.12506129930E+02 -0.12675957149E+03  0.22303415660E+03  0.25684553189E+03  0.99999687468E+00 0.  0.
          4    1    3    3  501    0 -0.28340826878E+03  0.42250946858E+02 -0.20581106485E+02  0.28727856041E+03  0.00000000000E+00 0.  1.
   -9000007    1    1    2    0  503  0.29591439871E+03  0.84508624636E+02  0.16061535404E+03  0.52962659578E+03  0.40000000000E+03 0.  1.
<mgrwt>
<rscale>  2 0.50496490E+03</rscale>
<asrwt>0</asrwt>
<pdfrwt beam="1">  1       21 0.11052455E+00 0.50505820E+03</pdfrwt>
<pdfrwt beam="2">  1       21 0.54667868E-01 0.50505820E+03</pdfrwt>
<totfact> 0.17178876E+03</totfact>
</mgrwt>
</event>
<event>
 6    1  0.9163926E-004  0.6641898E+03  0.7818608E-02  0.9780871E-01
         21   -1    0    0  501  502  0.00000000000E+00  0.00000000000E+00  0.32821418597E+03  0.32821418597E+03  0.00000000000E+00 0. -1.
         21   -1    0    0  502  503 -0.00000000000E+00 -0.00000000000E+00 -0.13635191954E+04  0.13635191954E+04  0.00000000000E+00 0.  1.
    9000007    2    1    2  501    0  0.52117334185E+03  0.97603343726E+02 -0.41231243174E+03  0.78109194983E+03  0.39869164496E+03 0.  0.
    9000005    1    3    3    0    0  0.29116784890E+03 -0.14786146670E+03 -0.21756177824E+03  0.39239757506E+03  0.99999687468E+00 0.  0.
          4    1    3    3  501    0  0.23000549295E+03  0.24546481042E+03 -0.19475065350E+03  0.38869437477E+03  0.00000000000E+00 0.  1.
   -9000007    1    1    2    0  503 -0.52117334185E+03 -0.97603343726E+02 -0.62299257768E+03  0.91064143152E+03  0.40000000000E+03 0.  1.
<mgrwt>
<rscale>  2 0.66399291E+03</rscale>
<asrwt>0</asrwt>
<pdfrwt beam="1">  1       21 0.50494491E-01 0.66418978E+03</pdfrwt>
<pdfrwt beam="2">  1       21 0.20977218E+00 0.66418978E+03</pdfrwt>
<totfact> 0.32425405E+02</totfact>
</mgrwt>
</event>
<event>
 6    1  0.9163926E-004  0.4049335E+03  0.7818608E-02  0.1042520E+00
         21   -1    0    0  501  502  0.00000000000E+00  0.00000000000E+00  0.11080124340E+04  0.11080124340E+04  0.00000000000E+00 0.  1.
         21   -1    0    0  502  503 -0.00000000000E+00 -0.00000000000E+00 -0.43103993269E+03  0.43103993269E+03  0.00000000000E+00 0.  1.
    9000007    2    1    2  501    0  0.59028886387E+02  0.22062104945E+02  0.96337982564E+03  0.10430681923E+04  0.39486633097E+03 0.  0.
    9000005    1    3    3    0    0  0.35855876681E+02 -0.18506589834E+03  0.52085428410E+03  0.55391805881E+03  0.99999687468E+00 0.  0.
          4    1    3    3  501    0  0.23173009706E+02  0.20712800329E+03  0.44252554155E+03  0.48915013344E+03  0.00000000000E+00 0.  1.
   -9000007    1    1    2    0  503 -0.59028886387E+02 -0.22062104945E+02 -0.28640732431E+03  0.49598417447E+03  0.40000000000E+03 0.  1.
<mgrwt>
<rscale>  2 0.40365993E+03</rscale>
<asrwt>0</asrwt>
<pdfrwt beam="1">  1       21 0.17046345E+00 0.40493351E+03</pdfrwt>
<pdfrwt beam="2">  1       21 0.66313836E-01 0.40493351E+03</pdfrwt>
<totfact> 0.37273420E+02</totfact>
</mgrwt>
</event>
<event>
 6    1  0.9163926E-004  0.4004946E+03  0.7818608E-02  0.1043613E+00
         21   -1    0    0  501  502  0.00000000000E+00  0.00000000000E+00  0.82898506513E+03  0.82898506513E+03  0.00000000000E+00 0. -1.
         21   -1    0    0  502  503 -0.00000000000E+00 -0.00000000000E+00 -0.72737847686E+03  0.72737847686E+03  0.00000000000E+00 0. -1.
    9000007    2    1    2  501    0  0.19222351413E+01  0.19804441354E+02  0.71751325120E+03  0.82169563856E+03  0.39995317963E+03 0.  0.
    9000005    1    3    3    0    0  0.68143589961E+02 -0.70407632473E+02  0.70189588502E+03  0.70870277053E+03  0.99999687468E+00 0.  0.
          4    1    3    3  501    0 -0.66221354820E+02  0.90212073827E+02  0.15617366182E+02  0.11299286803E+03  0.00000000000E+00 0.  1.
   -9000007    1    1    2    0  503 -0.19222351413E+01 -0.19804441354E+02 -0.61590666293E+03  0.73466790342E+03  0.40000000000E+03 0. -1.
<mgrwt>
<rscale>  2 0.40048289E+03</rscale>
<asrwt>0</asrwt>
<pdfrwt beam="1">  1       21 0.12753616E+00 0.40049458E+03</pdfrwt>
<pdfrwt beam="2">  1       21 0.11190438E+00 0.40049458E+03</pdfrwt>
<totfact> 0.23946849E+02</totfact>
</mgrwt>
</event>
<event>
 6    1  0.9163926E-004  0.4090271E+03  0.7818608E-02  0.1040708E+00
         21   -1    0    0  501  502  0.00000000000E+00  0.00000000000E+00  0.22324306269E+03  0.22324306269E+03  0.00000000000E+00 0.  1.
         21   -1    0    0  502  503 -0.00000000000E+00 -0.00000000000E+00 -0.13336163282E+04  0.13336163282E+04  0.00000000000E+00 0.  1.
    9000007    2    1    2  501    0 -0.84583712525E+02 -0.69808824611E+01 -0.39926219816E+02  0.41097108273E+03  0.40012496881E+03 0.  0.
    9000005    1    3    3    0    0  0.56450780720E+02 -0.16034093416E+03 -0.95975187025E+02  0.19521306905E+03  0.99999687468E+00 0.  0.
          4    1    3    3  501    0 -0.14103449325E+03  0.15336005169E+03  0.56048967210E+02  0.21575801368E+03  0.00000000000E+00 0.  1.
   -9000007    1    1    2    0  503  0.84583712525E+02  0.69808824611E+01 -0.10704470457E+04  0.11458883082E+04  0.40000000000E+03 0.  1.
<mgrwt>
<rscale>  2 0.40899648E+03</rscale>
<asrwt>0</asrwt>
<pdfrwt beam="1">  1       21 0.34345086E-01 0.40902705E+03</pdfrwt>
<pdfrwt beam="2">  1       21 0.20517175E+00 0.40902705E+03</pdfrwt>
<totfact> 0.86161876E+02</totfact>
</mgrwt>
</event>
<event>
 6    1  0.9163926E-004  0.4111565E+03  0.7818608E-02  0.1040045E+00
         21   -1    0    0  501  502  0.00000000000E+00  0.00000000000E+00  0.90666183293E+03  0.90666183293E+03  0.00000000000E+00 0.  1.
         21   -1    0    0  502  503 -0.00000000000E+00 -0.00000000000E+00 -0.37133015324E+03  0.37133015324E+03  0.00000000000E+00 0.  1.
    9000007    2    1    2  501    0  0.56677553550E+02  0.76402228119E+02  0.71883097528E+03  0.82774579016E+03  0.39924363059E+03 0.  0.
    9000005    1    3    3    0    0  0.88312740801E+02  0.10436789882E+03  0.33041293521E+02  0.14065747603E+03  0.99999687468E+00 0.  0.
          4    1    3    3  501    0 -0.31635187251E+02 -0.27965670697E+02  0.68578968176E+03  0.68708831413E+03  0.00000000000E+00 0.  1.
   -9000007    1    1    2    0  503 -0.56677553550E+02 -0.76402228119E+02 -0.18349929559E+03  0.45024619601E+03  0.40000000000E+03 0.  1.
<mgrwt>
<rscale>  2 0.41097240E+03</rscale>
<asrwt>0</asrwt>
<pdfrwt beam="1">  1       21 0.13948644E+00 0.41115647E+03</pdfrwt>
<pdfrwt beam="2">  1       21 0.57127716E-01 0.41115647E+03</pdfrwt>
<totfact> 0.89295670E+02</totfact>
</mgrwt>
</event>
<event>
 6    1  0.9163926E-004  0.7852214E+03  0.7818608E-02  0.9581824E-01
         21   -1    0    0  501  502  0.00000000000E+00  0.00000000000E+00  0.86328362681E+03  0.86328362681E+03  0.00000000000E+00 0.  1.
         21   -1    0    0  502  503 -0.00000000000E+00 -0.00000000000E+00 -0.99158755814E+03  0.99158755814E+03  0.00000000000E+00 0.  1.
    9000007    2    1    2  501    0 -0.41445562713E+03  0.53300894295E+03  0.42670345448E+03  0.89367131061E+03  0.40087476000E+03 0.  0.
    9000005    1    3    3    0    0  0.37404209572E+02  0.22189212005E+03  0.57041395265E+02  0.23214200094E+03  0.99999687468E+00 0.  0.
          4    1    3    3  501    0 -0.45185983670E+03  0.31111682290E+03  0.36966205921E+03  0.66152930966E+03  0.00000000000E+00 0.  1.
   -9000007    1    1    2    0  503  0.41445562713E+03 -0.53300894295E+03 -0.55500738582E+03  0.96119987435E+03  0.40000000000E+03 0.  1.
<mgrwt>
<rscale>  2 0.78510977E+03</rscale>
<asrwt>0</asrwt>
<pdfrwt beam="1">  1       21 0.13281287E+00 0.78522135E+03</pdfrwt>
<pdfrwt beam="2">  1       21 0.15255193E+00 0.78522135E+03</pdfrwt>
<totfact> 0.81637355E+01</totfact>
</mgrwt>
</event>
<event>
 6    1  0.9163926E-004  0.4729403E+03  0.7818608E-02  0.1021178E+00
         21   -1    0    0  501  502  0.00000000000E+00  0.00000000000E+00  0.14140580394E+03  0.14140580394E+03  0.00000000000E+00 0.  1.
         21   -1    0    0  502  503 -0.00000000000E+00 -0.00000000000E+00 -0.20476916127E+04  0.20476916127E+04  0.00000000000E+00 0.  1.
    9000007    2    1    2  501    0  0.15213052781E+03  0.20131774422E+03 -0.42786124436E+03  0.63686942943E+03  0.39857859212E+03 0.  0.
    9000005    1    3    3    0    0  0.21156714092E+03  0.12945798775E+03 -0.57048885158E+02  0.25451051256E+03  0.99999687468E+00 0.  0.
          4    1    3    3  501    0 -0.59436613114E+02  0.71859756469E+02 -0.37081235920E+03  0.38235891688E+03  0.00000000000E+00 0.  1.
   -9000007    1    1    2    0  503 -0.15213052781E+03 -0.20131774422E+03 -0.14784245644E+04  0.15522279872E+04  0.40000000000E+03 0.  1.
<mgrwt>
<rscale>  2 0.47263962E+03</rscale>
<asrwt>0</asrwt>
<pdfrwt beam="1">  1       21 0.21754740E-01 0.47294030E+03</pdfrwt>
<pdfrwt beam="2">  1       21 0.31502946E+00 0.47294030E+03</pdfrwt>
<totfact> 0.43048548E+02</totfact>
</mgrwt>
</event>
<event>
 6    1  0.9163926E-004  0.4100835E+03  0.7818608E-02  0.1040346E+00
         21   -1    0    0  501  502  0.00000000000E+00  0.00000000000E+00  0.91920212223E+02  0.91920212223E+02  0.00000000000E+00 0.  1.
         21   -1    0    0  502  503 -0.00000000000E+00 -0.00000000000E+00 -0.23665299461E+04  0.23665299461E+04  0.00000000000E+00 0.  1.
    9000007    2    1    2  501    0  0.19447269948E+02 -0.88115912994E+02 -0.55170017576E+03  0.68741657426E+03  0.40003231395E+03 0.  0.
    9000005    1    3    3    0    0 -0.12609304855E+03  0.37250709289E+02 -0.45251535438E+03  0.47123053613E+03  0.99999687468E+00 0.  0.
          4    1    3    3  501    0  0.14554031850E+03 -0.12536662228E+03 -0.99184821376E+02  0.21618603813E+03  0.00000000000E+00 0.  1.
   -9000007    1    1    2    0  503 -0.19447269948E+02  0.88115912994E+02 -0.17229095581E+04  0.17710335841E+04  0.40000000000E+03 0.  1.
<mgrwt>
<rscale>  2 0.41007560E+03</rscale>
<asrwt>0</asrwt>
<pdfrwt beam="1">  1       21 0.14141569E-01 0.41008348E+03</pdfrwt>
<pdfrwt beam="2">  1       21 0.36408158E+00 0.41008348E+03</pdfrwt>
<totfact> 0.50500736E+02</totfact>
</mgrwt>
</event>
<event>
 6    1  0.9163926E-004  0.4989475E+03  0.7818608E-02  0.1014072E+00
         21   -1    0    0  501  502  0.00000000000E+00  0.00000000000E+00  0.33067922631E+03  0.33067922631E+03  0.00000000000E+00 0. -1.
         21   -1    0    0  502  503 -0.00000000000E+00 -0.00000000000E+00 -0.82559610727E+03  0.82559610727E+03  0.00000000000E+00 0. -1.
    9000007    2    1    2  501    0 -0.39661714034E+02  0.29559352904E+03 -0.41950348404E+03  0.65166086053E+03  0.39966250518E+03 0.  0.
    9000005    1    3    3    0    0  0.15493464257E+03  0.10221526324E+03 -0.29920350749E+03  0.35210288609E+03  0.99999687468E+00 0.  0.
          4    1    3    3  501    0 -0.19459635661E+03  0.19337826580E+03 -0.12029997656E+03  0.29955797444E+03  0.00000000000E+00 0.  1.
   -9000007    1    1    2    0  503  0.39661714034E+02 -0.29559352904E+03 -0.75413396917E+02  0.50461447304E+03  0.40000000000E+03 0. -1.
<mgrwt>
<rscale>  2 0.49887983E+03</rscale>
<asrwt>0</asrwt>
<pdfrwt beam="1">  1       21 0.50873728E-01 0.49894748E+03</pdfrwt>
<pdfrwt beam="2">  1       21 0.12701478E+00 0.49894748E+03</pdfrwt>
<totfact> 0.14118528E+03</totfact>
</mgrwt>
</event>
<event>
 6    1  0.9163926E-004  0.4520081E+03  0.7818608E-02  0.1027192E+00
         21   -1    0    0  501  502  0.00000000000E+00  0.00000000000E+00  0.59443256674E+03  0.59443256674E+03  0.00000000000E+00 0. -1.
         21   -1    0    0  502  503 -0.00000000000E+00 -0.00000000000E+00 -0.50686128568E+03  0.50686128568E+03  0.00000000000E+00 0. -1.
    9000007    2    1    2  501    0  0.20325873428E+03 -0.46660224908E+02  0.35688636227E+03  0.57591598592E+03  0.40102376190E+03 0.  0.
    9000005    1    3    3    0    0 -0.25488118523E+01 -0.17511372106E+03  0.26257788698E+03  0.31562550351E+03  0.99999687468E+00 0.  0.
          4    1    3    3  501    0  0.20580754614E+03  0.12845349615E+03  0.94308475295E+02  0.26029048241E+03  0.00000000000E+00 0.  1.
   -9000007    1    1    2    0  503 -0.20325873428E+03  0.46660224908E+02 -0.26931508121E+03  0.52537786651E+03  0.40000000000E+03 0. -1.
<mgrwt>
<rscale>  2 0.45178095E+03</rscale>
<asrwt>0</asrwt>
<pdfrwt beam="1">  1       21 0.91451164E-01 0.45200813E+03</pdfrwt>
<pdfrwt beam="2">  1       21 0.77978659E-01 0.45200813E+03</pdfrwt>
<totfact> 0.12597436E+03</totfact>
</mgrwt>
</event>
<event>
 6    1  0.9163926E-004  0.4316198E+03  0.7818608E-02  0.1033355E+00
         21   -1    0    0  501  502  0.00000000000E+00  0.00000000000E+00  0.21851222011E+04  0.21851222011E+04  0.00000000000E+00 0. -1.
         21   -1    0    0  502  503 -0.00000000000E+00 -0.00000000000E+00 -0.18277805750E+03  0.18277805750E+03  0.00000000000E+00 0. -1.
    9000007    2    1    2  501    0  0.44169495379E+02 -0.15602781886E+03  0.18660065799E+04  0.19152596110E+04  0.39992898961E+03 0.  0.
    9000005    1    3    3    0    0 -0.88886759065E+02 -0.12848469927E+03  0.25868800184E+03  0.30220796842E+03  0.99999687468E+00 0.  0.
          4    1    3    3  501    0  0.13305625444E+03 -0.27543119596E+02  0.16073185781E+04  0.16130516426E+04  0.00000000000E+00 0.  1.
   -9000007    1    1    2    0  503 -0.44169495379E+02  0.15602781886E+03  0.13633756370E+03  0.45264064760E+03  0.40000000000E+03 0. -1.
<mgrwt>
<rscale>  2 0.43160332E+03</rscale>
<asrwt>0</asrwt>
<pdfrwt beam="1">  1       21 0.33617263E+00 0.43161977E+03</pdfrwt>
<pdfrwt beam="2">  1       21 0.28119703E-01 0.43161977E+03</pdfrwt>
<totfact> 0.19964136E+02</totfact>
</mgrwt>
</event>
<event>
 6    1  0.9163926E-004  0.4371799E+03  0.7818608E-02  0.1031679E+00
         21   -1    0    0  501  502  0.00000000000E+00  0.00000000000E+00  0.73350715614E+03  0.73350715614E+03  0.00000000000E+00 0.  1.
         21   -1    0    0  502  503 -0.00000000000E+00 -0.00000000000E+00 -0.26821857317E+03  0.26821857317E+03  0.00000000000E+00 0.  1.
    9000007    2    1    2  501    0 -0.17152559601E+03  0.31478477652E+02  0.32011377582E+03  0.54184786588E+03  0.40089195009E+03 0.  0.
    9000005    1    3    3    0    0  0.36293498016E+02 -0.15202691422E+03  0.82640104809E+02  0.17680437653E+03  0.99999687468E+00 0.  0.
          4    1    3    3  501    0 -0.20781909403E+03  0.18350539187E+03  0.23747367101E+03  0.36504348934E+03  0.00000000000E+00 0.  1.
   -9000007    1    1    2    0  503  0.17152559601E+03 -0.31478477652E+02  0.14517480715E+03  0.45987786343E+03  0.40000000000E+03 0.  1.
<mgrwt>
<rscale>  2 0.43697533E+03</rscale>
<asrwt>0</asrwt>
<pdfrwt beam="1">  1       21 0.11284725E+00 0.43717992E+03</pdfrwt>
<pdfrwt beam="2">  1       21 0.41264396E-01 0.43717992E+03</pdfrwt>
<totfact> 0.30287410E+03</totfact>
</mgrwt>
</event>
<event>
 6    1  0.9163926E-004  0.6295842E+03  0.7818608E-02  0.9846617E-01
         21   -1    0    0  501  502  0.00000000000E+00  0.00000000000E+00  0.34009507939E+03  0.34009507939E+03  0.00000000000E+00 0. -1.
         21   -1    0    0  502  503 -0.00000000000E+00 -0.00000000000E+00 -0.15150577124E+04  0.15150577124E+04  0.00000000000E+00 0. -1.
    9000007    2    1    2  501    0 -0.17622934322E+03 -0.45312197427E+03 -0.13954855704E+03  0.64335305021E+03  0.39755885409E+03 0.  0.
    9000005    1    3    3    0    0 -0.25463875225E+03 -0.32782693691E+03 -0.22547043345E+03  0.47238682355E+03  0.99999687468E+00 0.  0.
          4    1    3    3  501    0  0.78409409033E+02 -0.12529503736E+03  0.85921876409E+02  0.17096622666E+03  0.00000000000E+00 0.  1.
   -9000007    1    1    2    0  503  0.17622934322E+03  0.45312197427E+03 -0.10354140759E+04  0.12117997415E+04  0.40000000000E+03 0. -1.
<mgrwt>
<rscale>  2 0.62919684E+03</rscale>
<asrwt>0</asrwt>
<pdfrwt beam="1">  1       21 0.52322320E-01 0.62958423E+03</pdfrwt>
<pdfrwt beam="2">  1       21 0.23308580E+00 0.62958423E+03</pdfrwt>
<totfact> 0.21471538E+02</totfact>
</mgrwt>
</event>
<event>
 6    1  0.9163926E-004  0.6118881E+03  0.7818608E-02  0.9881135E-01
         21   -1    0    0  501  502  0.00000000000E+00  0.00000000000E+00  0.78076621942E+03  0.78076621942E+03  0.00000000000E+00 0. -1.
         21   -1    0    0  502  503 -0.00000000000E+00 -0.00000000000E+00 -0.12632198922E+04  0.12632198922E+04  0.00000000000E+00 0. -1.
    9000007    2    1    2  501    0  0.21647600151E+03  0.40932280630E+03  0.56382635801E+03  0.83191807648E+03  0.39972553708E+03 0.  0.
    9000005    1    3    3    0    0  0.33321393361E+03  0.28310377018E+03  0.43779679248E+03  0.61874574887E+03  0.99999687468E+00 0.  0.
          4    1    3    3  501    0 -0.11673793210E+03  0.12621903612E+03  0.12602956553E+03  0.21317232761E+03  0.00000000000E+00 0.  1.
   -9000007    1    1    2    0  503 -0.21647600151E+03 -0.40932280630E+03 -0.10462800308E+04  0.12120680351E+04  0.40000000000E+03 0. -1.
<mgrwt>
<rscale>  2 0.61184323E+03</rscale>
<asrwt>0</asrwt>
<pdfrwt beam="1">  1       21 0.12011788E+00 0.61188808E+03</pdfrwt>
<pdfrwt beam="2">  1       21 0.19434152E+00 0.61188808E+03</pdfrwt>
<totfact> 0.55785914E+01</totfact>
</mgrwt>
</event>
<event>
 6    1  0.9163926E-004  0.4182593E+03  0.7818608E-02  0.1037694E+00
         21   -1    0    0  501  502  0.00000000000E+00  0.00000000000E+00  0.42293724391E+03  0.42293724391E+03  0.00000000000E+00 0.  1.
         21   -1    0    0  502  503 -0.00000000000E+00 -0.00000000000E+00 -0.69510843587E+03  0.69510843587E+03  0.00000000000E+00 0.  1.
    9000007    2    1    2  501    0 -0.22067786496E+01  0.11971419202E+03  0.22002829104E+03  0.47260266238E+03  0.40075487519E+03 0.  0.
    9000005    1    3    3    0    0  0.16975970039E+03  0.15221144918E+03  0.60747413699E+02  0.23596171173E+03  0.99999687468E+00 0.  0.
          4    1    3    3  501    0 -0.17196647904E+03 -0.32497257161E+02  0.15928087734E+03  0.23664095065E+03  0.00000000000E+00 0.  1.
   -9000007    1    1    2    0  503  0.22067786496E+01 -0.11971419202E+03 -0.49219948301E+03  0.64544301740E+03  0.40000000000E+03 0.  1.
<mgrwt>
<rscale>  2 0.41807836E+03</rscale>
<asrwt>0</asrwt>
<pdfrwt beam="1">  1       21 0.65067269E-01 0.41825928E+03</pdfrwt>
<pdfrwt beam="2">  1       21 0.10693976E+00 0.41825928E+03</pdfrwt>
<totfact> 0.13161807E+03</totfact>
</mgrwt>
</event>
<event>
 6    1  0.9163926E-004  0.4066124E+03  0.7818608E-02  0.1041557E+00
         21   -1    0    0  501  502  0.00000000000E+00  0.00000000000E+00  0.46159274711E+03  0.46159274711E+03  0.00000000000E+00 0.  1.
         21   -1    0    0  502  503 -0.00000000000E+00 -0.00000000000E+00 -0.38462350409E+03  0.38462350409E+03  0.00000000000E+00 0.  1.
    9000007    2    1    2  501    0  0.49965750635E+02  0.53263771704E+02  0.15033743674E+03  0.43303772144E+03  0.39948306308E+03 0.  0.
    9000005    1    3    3    0    0 -0.14116405024E+03 -0.63296999449E+02 -0.13978108096E+02  0.15533894141E+03  0.99999687468E+00 0.  0.
          4    1    3    3  501    0  0.19112980087E+03  0.11656077115E+03  0.16431554484E+03  0.27769878003E+03  0.00000000000E+00 0.  1.
   -9000007    1    1    2    0  503 -0.49965750635E+02 -0.53263771704E+02 -0.73368193720E+02  0.41317852977E+03  0.40000000000E+03 0.  1.
<mgrwt>
<rscale>  2 0.40648516E+03</rscale>
<asrwt>0</asrwt>
<pdfrwt beam="1">  1       21 0.71014269E-01 0.40661235E+03</pdfrwt>
<pdfrwt beam="2">  1       21 0.59172847E-01 0.40661235E+03</pdfrwt>
<totfact> 0.42670575E+03</totfact>
</mgrwt>
</event>
<event>
 6    1  0.9163926E-004  0.4233773E+03  0.7818608E-02  0.1035973E+00
         21   -1    0    0  501  502  0.00000000000E+00  0.00000000000E+00  0.31967485284E+03  0.31967485284E+03  0.00000000000E+00 0.  1.
         21   -1    0    0  502  503 -0.00000000000E+00 -0.00000000000E+00 -0.12673289709E+04  0.12673289709E+04  0.00000000000E+00 0.  1.
    9000007    2    1    2  501    0  0.11240729361E+03 -0.81293955151E+02  0.11868030156E+03  0.43969688954E+03  0.40000529234E+03 0.  0.
    9000005    1    3    3    0    0  0.87445783311E+02 -0.22215808199E+03 -0.21105945888E+02  0.23968195460E+03  0.99999687468E+00 0.  0.
          4    1    3    3  501    0  0.24961510299E+02  0.14086412684E+03  0.13978624745E+03  0.20001493495E+03  0.00000000000E+00 0.  1.
   -9000007    1    1    2    0  503 -0.11240729361E+03  0.81293955151E+02 -0.10663344196E+04  0.11473069342E+04  0.40000000000E+03 0.  1.
<mgrwt>
<rscale>  2 0.42337605E+03</rscale>
<asrwt>0</asrwt>
<pdfrwt beam="1">  1       21 0.49180746E-01 0.42337730E+03</pdfrwt>
<pdfrwt beam="2">  1       21 0.19497369E+00 0.42337730E+03</pdfrwt>
<totfact> 0.47629262E+02</totfact>
</mgrwt>
</event>
<event>
 6    1  0.9163926E-004  0.5300664E+03  0.7818608E-02  0.1006231E+00
         21   -1    0    0  501  502  0.00000000000E+00  0.00000000000E+00  0.47117374414E+03  0.47117374414E+03  0.00000000000E+00 0. -1.
         21   -1    0    0  502  503 -0.00000000000E+00 -0.00000000000E+00 -0.87570699637E+03  0.87570699637E+03  0.00000000000E+00 0. -1.
    9000007    2    1    2  501    0 -0.14312870918E+03  0.31699305159E+03  0.17834600648E+03  0.55902374056E+03  0.39966213523E+03 0.  0.
    9000005    1    3    3    0    0 -0.20722285092E+03  0.11244783270E+03 -0.55072454601E+02  0.24211526237E+03  0.99999687468E+00 0.  0.
          4    1    3    3  501    0  0.64094141741E+02  0.20454521888E+03  0.23341846108E+03  0.31690847819E+03  0.00000000000E+00 0.  1.
   -9000007    1    1    2    0  503  0.14312870918E+03 -0.31699305159E+03 -0.58287925870E+03  0.78785699995E+03  0.40000000000E+03 0. -1.
<mgrwt>
<rscale>  2 0.53000269E+03</rscale>
<asrwt>0</asrwt>
<pdfrwt beam="1">  1       21 0.72488269E-01 0.53006643E+03</pdfrwt>
<pdfrwt beam="2">  1       21 0.13472415E+00 0.53006643E+03</pdfrwt>
<totfact> 0.54854222E+02</totfact>
</mgrwt>
</event>
<event>
 6    1  0.9163926E-004  0.4236599E+03  0.7818608E-02  0.1036871E+00
         21   -1    0    0  501  502  0.00000000000E+00  0.00000000000E+00  0.17785740014E+04  0.17785740014E+04  0.00000000000E+00 0.  1.
         21   -1    0    0  502  503 -0.00000000000E+00 -0.00000000000E+00 -0.29089628124E+03  0.29089628124E+03  0.00000000000E+00 0.  1.
    9000007    2    1    2  501    0 -0.92926724544E+02  0.10417437493E+03  0.15826587520E+04  0.16352939672E+04  0.38715624403E+03 0.  0.
    9000005    1    3    3    0    0  0.25602405066E+02  0.23419112874E+03  0.89617254708E+03  0.92662139089E+03  0.99999687468E+00 0.  0.
          4    1    3    3  501    0 -0.11852912961E+03 -0.13001675381E+03  0.68648620490E+03  0.70867257627E+03  0.00000000000E+00 0.  1.
   -9000007    1    1    2    0  503  0.92926724544E+02 -0.10417437493E+03 -0.94981031809E+02  0.43417631549E+03  0.40000000000E+03 0.  1.
<mgrwt>
<rscale>  2 0.42060070E+03</rscale>
<asrwt>0</asrwt>
<pdfrwt beam="1">  1       21 0.27362676E+00 0.42365986E+03</pdfrwt>
<pdfrwt beam="2">  1       21 0.44753275E-01 0.42365986E+03</pdfrwt>
<totfact> 0.18608296E+02</totfact>
</mgrwt>
</event>
<event>
 6    1  0.9163926E-004  0.4043101E+03  0.7818608E-02  0.1042297E+00
         21   -1    0    0  501  502  0.00000000000E+00  0.00000000000E+00  0.24071091488E+03  0.24071091488E+03  0.00000000000E+00 0. -1.
         21   -1    0    0  502  503 -0.00000000000E+00 -0.00000000000E+00 -0.76576568731E+03  0.76576568731E+03  0.00000000000E+00 0. -1.
    9000007    2    1    2  501    0 -0.58287660700E+02  0.83197908195E+01 -0.93228282814E+02  0.41491866974E+03  0.39999914934E+03 0.  0.
    9000005    1    3    3    0    0 -0.20306379670E+03 -0.45397449276E+02  0.38902494377E+02  0.21168428849E+03  0.99999687468E+00 0.  0.
          4    1    3    3  501    0  0.14477613600E+03  0.53717240095E+02 -0.13213077719E+03  0.20323438125E+03  0.00000000000E+00 0.  1.
   -9000007    1    1    2    0  503  0.58287660700E+02 -0.83197908195E+01 -0.43182648962E+03  0.59155793245E+03  0.40000000000E+03 0. -1.
<mgrwt>
<rscale>  2 0.40430991E+03</rscale>
<asrwt>0</asrwt>
<pdfrwt beam="1">  1       21 0.37032448E-01 0.40431012E+03</pdfrwt>
<pdfrwt beam="2">  1       21 0.11781011E+00 0.40431012E+03</pdfrwt>
<totfact> 0.34389267E+03</totfact>
</mgrwt>
</event>
<event>
 6    1  0.9163926E-004  0.4269743E+03  0.7818608E-02  0.1034858E+00
         21   -1    0    0  501  502  0.00000000000E+00  0.00000000000E+00  0.54710211411E+03  0.54710211411E+03  0.00000000000E+00 0.  1.
         21   -1    0    0  502  503 -0.00000000000E+00 -0.00000000000E+00 -0.36946816535E+03  0.36946816535E+03  0.00000000000E+00 0.  1.
    9000007    2    1    2  501    0 -0.10611348248E+03 -0.10312768641E+03  0.23314502882E+03  0.48648090401E+03  0.40051426272E+03 0.  0.
    9000005    1    3    3    0    0 -0.25120344226E+03 -0.11601018012E+02  0.17063684623E+03  0.30390078366E+03  0.99999687468E+00 0.  0.
          4    1    3    3  501    0  0.14508995978E+03 -0.91526668401E+02  0.62508182584E+02  0.18258012035E+03  0.00000000000E+00 0.  1.
   -9000007    1    1    2    0  503  0.10611348248E+03  0.10312768641E+03 -0.55511080059E+02  0.43008937545E+03  0.40000000000E+03 0.  1.
<mgrwt>
<rscale>  2 0.42685367E+03</rscale>
<asrwt>0</asrwt>
<pdfrwt beam="1">  1       21 0.84169556E-01 0.42697431E+03</pdfrwt>
<pdfrwt beam="2">  1       21 0.56841256E-01 0.42697431E+03</pdfrwt>
<totfact> 0.31313162E+03</totfact>
</mgrwt>
</event>
<event>
 6    1  0.9163926E-004  0.4788167E+03  0.7818608E-02  0.1019512E+00
         21   -1    0    0  501  502  0.00000000000E+00  0.00000000000E+00  0.11915619724E+03  0.11915619724E+03  0.00000000000E+00 0.  1.
         21   -1    0    0  502  503 -0.00000000000E+00 -0.00000000000E+00 -0.19438742910E+04  0.19438742910E+04  0.00000000000E+00 0. -1.
    9000007    2    1    2  501    0  0.25674441011E+03 -0.57859299904E+02 -0.10233339367E+04  0.11294985081E+04  0.39911043979E+03 0.  0.
    9000005    1    3    3    0    0  0.19293953200E+03  0.65646127943E+02 -0.95138532214E+03  0.97296973658E+03  0.99999687468E+00 0.  0.
          4    1    3    3  501    0  0.63804878103E+02 -0.12350542785E+03 -0.71948614509E+02  0.15652877150E+03  0.00000000000E+00 0.  1.
   -9000007    1    1    2    0  503 -0.25674441011E+03  0.57859299904E+02 -0.80138415708E+03  0.93353198013E+03  0.40000000000E+03 0.  1.
<mgrwt>
<rscale>  2 0.47863083E+03</rscale>
<asrwt>0</asrwt>
<pdfrwt beam="1">  1       21 0.18331724E-01 0.47881666E+03</pdfrwt>
<pdfrwt beam="2">  1       21 0.29905756E+00 0.47881666E+03</pdfrwt>
<totfact> 0.74233675E+02</totfact>
</mgrwt>
</event>
<event>
 6    1  0.9163926E-004  0.4221590E+03  0.7818608E-02  0.1036400E+00
         21   -1    0    0  501  502  0.00000000000E+00  0.00000000000E+00  0.82756194863E+03  0.82756194863E+03  0.00000000000E+00 0.  1.
         21   -1    0    0  502  503 -0.00000000000E+00 -0.00000000000E+00 -0.22697573834E+03  0.22697573834E+03  0.00000000000E+00 0. -1.
    9000007    2    1    2  501    0 -0.62468666765E+02 -0.11964903403E+03  0.42054974930E+03  0.59559177191E+03  0.39956131126E+03 0.  0.
    9000005    1    3    3    0    0 -0.19228323085E+03  0.32223201086E+02  0.10322017622E+03  0.22060503241E+03  0.99999687468E+00 0.  0.
          4    1    3    3  501    0  0.12981456408E+03 -0.15187223511E+03  0.31732957308E+03  0.37498673950E+03  0.00000000000E+00 0.  1.
   -9000007    1    1    2    0  503  0.62468666765E+02  0.11964903403E+03  0.18003646099E+03  0.45894591507E+03  0.40000000000E+03 0. -1.
<mgrwt>
<rscale>  2 0.42205506E+03</rscale>
<asrwt>0</asrwt>
<pdfrwt beam="1">  1       21 0.12731722E+00 0.42215901E+03</pdfrwt>
<pdfrwt beam="2">  1       21 0.34919345E-01 0.42215901E+03</pdfrwt>
<totfact> 0.31556233E+03</totfact>
</mgrwt>
</event>
<event>
 6    1  0.9163926E-004  0.5244642E+03  0.7818608E-02  0.1007585E+00
         21   -1    0    0  501  502  0.00000000000E+00  0.00000000000E+00  0.78917388348E+03  0.78917388348E+03  0.00000000000E+00 0.  1.
         21   -1    0    0  502  503 -0.00000000000E+00 -0.00000000000E+00 -0.44631991870E+03  0.44631991870E+03  0.00000000000E+00 0. -1.
    9000007    2    1    2  501    0 -0.37934649357E+02  0.33705414502E+03 -0.11772299864E+03  0.53751409364E+03  0.40002270205E+03 0.  0.
    9000005    1    3    3    0    0 -0.20752594839E+03  0.14583426605E+03  0.56459372655E+01  0.25370756593E+03  0.99999687468E+00 0.  0.
          4    1    3    3  501    0  0.16959129903E+03  0.19121987897E+03 -0.12336893591E+03  0.28380652770E+03  0.00000000000E+00 0.  1.
   -9000007    1    1    2    0  503  0.37934649357E+02 -0.33705414502E+03  0.46057696342E+03  0.69797970854E+03  0.40000000000E+03 0.  1.
<mgrwt>
<rscale>  2 0.52445987E+03</rscale>
<asrwt>0</asrwt>
<pdfrwt beam="1">  1       21 0.12141137E+00 0.52446420E+03</pdfrwt>
<pdfrwt beam="2">  1       21 0.68664603E-01 0.52446420E+03</pdfrwt>
<totfact> 0.81422708E+02</totfact>
</mgrwt>
</event>
<event>
 6    1  0.9163926E-004  0.4101767E+03  0.7818608E-02  0.1040350E+00
         21   -1    0    0  501  502  0.00000000000E+00  0.00000000000E+00  0.12439646404E+04  0.12439646404E+04  0.00000000000E+00 0. -1.
         21   -1    0    0  502  503 -0.00000000000E+00 -0.00000000000E+00 -0.43171267720E+03  0.43171267720E+03  0.00000000000E+00 0. -1.
    9000007    2    1    2  501    0 -0.84995579522E+02  0.31947645495E+02  0.11005327295E+04  0.11743284362E+04  0.39953734090E+03 0.  0.
    9000005    1    3    3    0    0 -0.53204598449E+00 -0.78917605835E+02  0.99845899924E+03  0.10015735843E+04  0.99999687468E+00 0.  0.
          4    1    3    3  501    0 -0.84463533537E+02  0.11086525133E+03  0.10207373026E+03  0.17275485191E+03  0.00000000000E+00 0.  1.
   -9000007    1    1    2    0  503  0.84995579522E+02 -0.31947645495E+02 -0.28828076635E+03  0.50134888136E+03  0.40000000000E+03 0. -1.
<mgrwt>
<rscale>  2 0.41006383E+03</rscale>
<asrwt>0</asrwt>
<pdfrwt beam="1">  1       21 0.19137917E+00 0.41017667E+03</pdfrwt>
<pdfrwt beam="2">  1       21 0.66417336E-01 0.41017667E+03</pdfrwt>
<totfact> 0.26429178E+02</totfact>
</mgrwt>
</event>
<event>
 6    1  0.9163926E-004  0.4372218E+03  0.7818608E-02  0.1031923E+00
         21   -1    0    0  501  502  0.00000000000E+00  0.00000000000E+00  0.22337762625E+03  0.22337762625E+03  0.00000000000E+00 0.  1.
         21   -1    0    0  502  503 -0.00000000000E+00 -0.00000000000E+00 -0.12664508010E+04  0.12664508010E+04  0.00000000000E+00 0.  1.
    9000007    2    1    2  501    0  0.15269997847E+03  0.88575661790E+02 -0.91566675796E+02  0.44267631373E+03  0.39549327597E+03 0.  0.
    9000005    1    3    3    0    0  0.58941942794E+02 -0.97208045622E+02  0.10621324221E+03  0.15558216340E+03  0.99999687468E+00 0.  0.
          4    1    3    3  501    0  0.93758035673E+02  0.18578370741E+03 -0.19777991800E+03  0.28709415034E+03  0.00000000000E+00 0.  1.
   -9000007    1    1    2    0  503 -0.15269997847E+03 -0.88575661790E+02 -0.95150649894E+03  0.10471521135E+04  0.40000000000E+03 0.  1.
<mgrwt>
<rscale>  2 0.43618837E+03</rscale>
<asrwt>0</asrwt>
<pdfrwt beam="1">  1       21 0.34365788E-01 0.43722183E+03</pdfrwt>
<pdfrwt beam="2">  1       21 0.19483859E+00 0.43722183E+03</pdfrwt>
<totfact> 0.99438140E+02</totfact>
</mgrwt>
</event>
<event>
 6    1  0.9163926E-004  0.4088769E+03  0.7818608E-02  0.1040845E+00
         21   -1    0    0  501  502  0.00000000000E+00  0.00000000000E+00  0.44930796429E+02  0.44930796429E+02  0.00000000000E+00 0.  1.
         21   -1    0    0  502  503 -0.00000000000E+00 -0.00000000000E+00 -0.39361248560E+04  0.39361248560E+04  0.00000000000E+00 0.  1.
    9000007    2    1    2  501    0 -0.68386409333E+02 -0.50035870484E+02 -0.14664290007E+04  0.15220587269E+04  0.39883388089E+03 0.  0.
    9000005    1    3    3    0    0 -0.12540439214E+02  0.15697195374E+03 -0.33084441694E+03  0.36641026881E+03  0.99999687468E+00 0.  0.
          4    1    3    3  501    0 -0.55845970119E+02 -0.20700782423E+03 -0.11355845838E+04  0.11556484581E+04  0.00000000000E+00 0.  1.
   -9000007    1    1    2    0  503  0.68386409333E+02  0.50035870484E+02 -0.24247650588E+04  0.24589969255E+04  0.40000000000E+03 0.  1.
<mgrwt>
<rscale>  2 0.40859138E+03</rscale>
<asrwt>0</asrwt>
<pdfrwt beam="1">  1       21 0.69124277E-02 0.40887686E+03</pdfrwt>
<pdfrwt beam="2">  1       21 0.60555789E+00 0.40887686E+03</pdfrwt>
<totfact> 0.36949441E+01</totfact>
</mgrwt>
</event>
<event>
 6    1  0.9163926E-004  0.5950136E+03  0.7818608E-02  0.9915819E-01
         21   -1    0    0  501  502  0.00000000000E+00  0.00000000000E+00  0.32853256574E+03  0.32853256574E+03  0.00000000000E+00 0.  1.
         21   -1    0    0  502  503 -0.00000000000E+00 -0.00000000000E+00 -0.10812987935E+04  0.10812987935E+04  0.00000000000E+00 0.  1.
    9000007    2    1    2  501    0  0.43682980663E+03  0.56753342766E+02 -0.33513904455E+03  0.68288315888E+03  0.39996250776E+03 0.  0.
    9000005    1    3    3    0    0 -0.12700209320E+01  0.19698303139E+02 -0.22996719710E+03  0.23081496449E+03  0.99999687468E+00 0.  0.
          4    1    3    3  501    0  0.43809982757E+03  0.37055039626E+02 -0.10517184745E+03  0.45206819438E+03  0.00000000000E+00 0.  1.
   -9000007    1    1    2    0  503 -0.43682980663E+03 -0.56753342766E+02 -0.41762718323E+03  0.72694820039E+03  0.40000000000E+03 0.  1.
<mgrwt>
<rscale>  2 0.59500733E+03</rscale>
<asrwt>0</asrwt>
<pdfrwt beam="1">  1       21 0.50543472E-01 0.59501363E+03</pdfrwt>
<pdfrwt beam="2">  1       21 0.16635366E+00 0.59501363E+03</pdfrwt>
<totfact> 0.66629890E+02</totfact>
</mgrwt>
</event>
<event>
 6    1  0.9163926E-004  0.4739854E+03  0.7818608E-02  0.1021199E+00
         21   -1    0    0  501  502  0.00000000000E+00  0.00000000000E+00  0.10640217006E+04  0.10640217006E+04  0.00000000000E+00 0. -1.
         21   -1    0    0  502  503 -0.00000000000E+00 -0.00000000000E+00 -0.23535569310E+03  0.23535569310E+03  0.00000000000E+00 0.  1.
    9000007    2    1    2  501    0 -0.21668658758E+03 -0.13307553469E+03  0.63105100613E+03  0.78584661182E+03  0.39327770061E+03 0.  0.
    9000005    1    3    3    0    0 -0.18493049873E+03 -0.23252493754E+03  0.61119457346E+03  0.67957850360E+03  0.99999687468E+00 0.  0.
          4    1    3    3  501    0 -0.31756088856E+02  0.99449402844E+02  0.19856432668E+02  0.10626810822E+03  0.00000000000E+00 0.  1.
   -9000007    1    1    2    0  503  0.21668658758E+03  0.13307553469E+03  0.19761500137E+03  0.51353078188E+03  0.40000000000E+03 0. -1.
<mgrwt>
<rscale>  2 0.47256426E+03</rscale>
<asrwt>0</asrwt>
<pdfrwt beam="1">  1       21 0.16369564E+00 0.47398542E+03</pdfrwt>
<pdfrwt beam="2">  1       21 0.36208569E-01 0.47398542E+03</pdfrwt>
<totfact> 0.14625468E+03</totfact>
</mgrwt>
</event>
<event>
 6    1  0.9163926E-004  0.4579173E+03  0.7818608E-02  0.1025580E+00
         21   -1    0    0  501  502  0.00000000000E+00  0.00000000000E+00  0.17712048798E+03  0.17712048798E+03  0.00000000000E+00 0.  1.
         21   -1    0    0  502  503 -0.00000000000E+00 -0.00000000000E+00 -0.11828430461E+04  0.11828430461E+04  0.00000000000E+00 0.  1.
    9000007    2    1    2  501    0 -0.22198180562E+03 -0.20306268648E+02 -0.45393279837E+03  0.64291388061E+03  0.39698237477E+03 0.  0.
    9000005    1    3    3    0    0 -0.50326009061E+02  0.12743906349E+03 -0.38113923929E+03  0.40502042147E+03  0.99999687468E+00 0.  0.
          4    1    3    3  501    0 -0.17165579656E+03 -0.14774533213E+03 -0.72793559079E+02  0.23789345914E+03  0.00000000000E+00 0.  1.
   -9000007    1    1    2    0  503  0.22198180562E+03  0.20306268648E+02 -0.55178975973E+03  0.71704965345E+03  0.40000000000E+03 0. -1.
<mgrwt>
<rscale>  2 0.45725749E+03</rscale>
<asrwt>0</asrwt>
<pdfrwt beam="1">  1       21 0.27249306E-01 0.45791731E+03</pdfrwt>
<pdfrwt beam="2">  1       21 0.18197585E+00 0.45791731E+03</pdfrwt>
<totfact> 0.19173292E+03</totfact>
</mgrwt>
</event>
<event>
 6    1  0.9163926E-004  0.5929385E+03  0.7818608E-02  0.9920474E-01
         21   -1    0    0  501  502  0.00000000000E+00  0.00000000000E+00  0.21430403337E+04  0.21430403337E+04  0.00000000000E+00 0.  1.
         21   -1    0    0  502  503 -0.00000000000E+00 -0.00000000000E+00 -0.26937523379E+03  0.26937523379E+03  0.00000000000E+00 0.  1.
    9000007    2    1    2  501    0  0.23283496665E+03  0.36968819170E+03  0.16919171646E+04  0.17928077941E+04  0.40086732741E+03 0.  0.
    9000005    1    3    3    0    0  0.18619236274E+03  0.19219164112E+03  0.15130768020E+04  0.15365570707E+04  0.99999687468E+00 0.  0.
          4    1    3    3  501    0  0.46642603916E+02  0.17749655058E+03  0.17884036259E+03  0.25625072343E+03  0.00000000000E+00 0.  1.
   -9000007    1    1    2    0  503 -0.23283496665E+03 -0.36968819170E+03  0.18174793531E+03  0.61960777333E+03  0.40000000000E+03 0.  1.
<mgrwt>
<rscale>  2 0.59279196E+03</rscale>
<asrwt>0</asrwt>
<pdfrwt beam="1">  1       21 0.32969850E+00 0.59293853E+03</pdfrwt>
<pdfrwt beam="2">  1       21 0.41442345E-01 0.59293853E+03</pdfrwt>
<totfact> 0.90930757E+01</totfact>
</mgrwt>
</event>
<event>
 6    1  0.9163926E-004  0.4073236E+03  0.7818608E-02  0.1041276E+00
         21   -1    0    0  501  502  0.00000000000E+00  0.00000000000E+00  0.49838131487E+03  0.49838131487E+03  0.00000000000E+00 0.  1.
         21   -1    0    0  502  503 -0.00000000000E+00 -0.00000000000E+00 -0.33404291153E+03  0.33404291153E+03  0.00000000000E+00 0.  1.
    9000007    2    1    2  501    0 -0.75828506109E+02 -0.12749870298E+02  0.10681930841E+03  0.42105946392E+03  0.39996023049E+03 0.  0.
    9000005    1    3    3    0    0  0.86258034213E+02 -0.33447655141E+02 -0.11370654043E+03  0.14659253539E+03  0.99999687468E+00 0.  0.
          4    1    3    3  501    0 -0.16208654032E+03  0.20697784843E+02  0.22052584884E+03  0.27446692853E+03  0.00000000000E+00 0.  1.
   -9000007    1    1    2    0  503  0.75828506109E+02  0.12749870298E+02  0.57519094933E+02  0.41136476248E+03  0.40000000000E+03 0.  1.
<mgrwt>
<rscale>  2 0.40731384E+03</rscale>
<asrwt>0</asrwt>
<pdfrwt beam="1">  1       21 0.76674049E-01 0.40732361E+03</pdfrwt>
<pdfrwt beam="2">  1       21 0.51391217E-01 0.40732361E+03</pdfrwt>
<totfact> 0.48578589E+03</totfact>
</mgrwt>
</event>
<event>
 6    1  0.9163926E-004  0.4247670E+03  0.7818608E-02  0.1035815E+00
         21   -1    0    0  501  502  0.00000000000E+00  0.00000000000E+00  0.40355235473E+03  0.40355235473E+03  0.00000000000E+00 0.  1.
         21   -1    0    0  502  503 -0.00000000000E+00 -0.00000000000E+00 -0.44719263595E+03  0.44719263595E+03  0.00000000000E+00 0.  1.
    9000007    2    1    2  501    0 -0.29473141753E+02  0.12856137045E+03 -0.61422102403E+02  0.42918492945E+03  0.40377015361E+03 0.  0.
    9000005    1    3    3    0    0  0.17695721459E+02 -0.14133331217E+03 -0.61624696764E+02  0.15519937800E+03  0.99999687468E+00 0.  0.
          4    1    3    3  501    0 -0.47168863212E+02  0.26989468262E+03  0.20259436109E+00  0.27398555145E+03  0.00000000000E+00 0.  1.
   -9000007    1    1    2    0  503  0.29473141753E+02 -0.12856137045E+03  0.17781821184E+02  0.42156006123E+03  0.40000000000E+03 0.  1.
<mgrwt>
<rscale>  2 0.42386864E+03</rscale>
<asrwt>0</asrwt>
<pdfrwt beam="1">  1       21 0.62084978E-01 0.42476703E+03</pdfrwt>
<pdfrwt beam="2">  1       21 0.68798867E-01 0.42476703E+03</pdfrwt>
<totfact> 0.40969142E+03</totfact>
</mgrwt>
</event>
<event>
 6    1  0.9163926E-004  0.5069877E+03  0.7818608E-02  0.1011972E+00
         21   -1    0    0  501  502  0.00000000000E+00  0.00000000000E+00  0.35656474528E+03  0.35656474528E+03  0.00000000000E+00 0.  1.
         21   -1    0    0  502  503 -0.00000000000E+00 -0.00000000000E+00 -0.13401704165E+04  0.13401704165E+04  0.00000000000E+00 0.  1.
    9000007    2    1    2  501    0 -0.25126340177E+03  0.18408803626E+03  0.84909752603E+02  0.51404884956E+03  0.40001856393E+03 0.  0.
    9000005    1    3    3    0    0  0.46028735638E+02  0.16633061573E+03 -0.60165383394E+02  0.18277141896E+03  0.99999687468E+00 0.  0.
          4    1    3    3  501    0 -0.29729213740E+03  0.17757420526E+02  0.14507513600E+03  0.33127743061E+03  0.00000000000E+00 0.  1.
   -9000007    1    1    2    0  503  0.25126340177E+03 -0.18408803626E+03 -0.10685154238E+04  0.11826863122E+04  0.40000000000E+03 0.  1.
<mgrwt>
<rscale>  2 0.50698406E+03</rscale>
<asrwt>0</asrwt>
<pdfrwt beam="1">  1       21 0.54856116E-01 0.50698773E+03</pdfrwt>
<pdfrwt beam="2">  1       21 0.20618006E+00 0.50698773E+03</pdfrwt>
<totfact> 0.30463759E+02</totfact>
</mgrwt>
</event>
<event>
 6    1  0.9163926E-004  0.4715846E+03  0.7818608E-02  0.1021483E+00
         21   -1    0    0  501  502  0.00000000000E+00  0.00000000000E+00  0.69846915688E+03  0.69846915688E+03  0.00000000000E+00 0. -1.
         21   -1    0    0  502  503 -0.00000000000E+00 -0.00000000000E+00 -0.44948973962E+03  0.44948973962E+03  0.00000000000E+00 0. -1.
    9000007    2    1    2  501    0 -0.95842922642E+02 -0.23039220193E+03  0.43458017971E+03  0.64128930441E+03  0.40015697772E+03 0.  0.
    9000005    1    3    3    0    0  0.40350829029E+01 -0.19350620828E+03  0.48594734980E+03  0.52307433631E+03  0.99999687468E+00 0.  0.
          4    1    3    3  501    0 -0.99878005544E+02 -0.36885993655E+02 -0.51367170089E+02  0.11821496810E+03  0.00000000000E+00 0.  1.
   -9000007    1    1    2    0  503  0.95842922642E+02  0.23039220193E+03 -0.18560076245E+03  0.50666959209E+03  0.40000000000E+03 0. -1.
<mgrwt>
<rscale>  2 0.47155130E+03</rscale>
<asrwt>0</asrwt>
<pdfrwt beam="1">  1       21 0.10745679E+00 0.47158460E+03</pdfrwt>
<pdfrwt beam="2">  1       21 0.69152268E-01 0.47158460E+03</pdfrwt>
<totfact> 0.11106575E+03</totfact>
</mgrwt>
</event>
<event>
 6    1  0.9163926E-004  0.4259483E+03  0.7818608E-02  0.1035186E+00
         21   -1    0    0  501  502  0.00000000000E+00  0.00000000000E+00  0.34568625601E+03  0.34568625601E+03  0.00000000000E+00 0. -1.
         21   -1    0    0  502  503 -0.00000000000E+00 -0.00000000000E+00 -0.74029169574E+03  0.74029169574E+03  0.00000000000E+00 0. -1.
    9000007    2    1    2  501    0 -0.73556334518E+02 -0.12657568352E+03  0.96103659475E+02  0.43618771018E+03  0.39948950817E+03 0.  0.
    9000005    1    3    3    0    0  0.12020928898E+03 -0.17802387297E+03  0.22397240777E+01  0.21482269168E+03  0.99999687468E+00 0.  0.
          4    1    3    3  501    0 -0.19376562350E+03  0.51448189442E+02  0.93863935398E+02  0.22136501850E+03  0.00000000000E+00 0.  1.
   -9000007    1    1    2    0  503  0.73556334518E+02  0.12657568352E+03 -0.49070909921E+03  0.64979024158E+03  0.40000000000E+03 0. -1.
<mgrwt>
<rscale>  2 0.42582839E+03</rscale>
<asrwt>0</asrwt>
<pdfrwt beam="1">  1       21 0.53182502E-01 0.42594828E+03</pdfrwt>
<pdfrwt beam="2">  1       21 0.11389103E+00 0.42594828E+03</pdfrwt>
<totfact> 0.17425593E+03</totfact>
</mgrwt>
</event>
<event>
 6    1  0.9163926E-004  0.4565504E+03  0.7818608E-02  0.1025868E+00
         21   -1    0    0  501  502  0.00000000000E+00  0.00000000000E+00  0.11987116911E+04  0.11987116911E+04  0.00000000000E+00 0.  1.
         21   -1    0    0  502  503 -0.00000000000E+00 -0.00000000000E+00 -0.23400938772E+03  0.23400938772E+03  0.00000000000E+00 0. -1.
    9000007    2    1    2  501    0  0.14867294588E+03  0.16227948220E+03  0.84630038427E+03  0.96106729729E+03  0.39873266022E+03 0.  0.
    9000005    1    3    3    0    0  0.15670369764E+03  0.27617835484E+03  0.73919926975E+03  0.80451668282E+03  0.99999687468E+00 0.  0.
          4    1    3    3  501    0 -0.80307517589E+01 -0.11389887263E+03  0.10710111452E+03  0.15655061448E+03  0.00000000000E+00 0.  1.
   -9000007    1    1    2    0  503 -0.14867294588E+03 -0.16227948220E+03  0.11840191910E+03  0.47165378153E+03  0.40000000000E+03 0. -1.
<mgrwt>
<rscale>  2 0.45627267E+03</rscale>
<asrwt>0</asrwt>
<pdfrwt beam="1">  1       21 0.18441718E+00 0.45655041E+03</pdfrwt>
<pdfrwt beam="2">  1       21 0.36001445E-01 0.45655041E+03</pdfrwt>
<totfact> 0.10573370E+03</totfact>
</mgrwt>
</event>
<event>
 6    1  0.9163926E-004  0.4795288E+03  0.7818608E-02  0.1019284E+00
         21   -1    0    0  501  502  0.00000000000E+00  0.00000000000E+00  0.46644164686E+03  0.46644164686E+03  0.00000000000E+00 0.  1.
         21   -1    0    0  502  503 -0.00000000000E+00 -0.00000000000E+00 -0.90184380956E+03  0.90184380956E+03  0.00000000000E+00 0.  1.
    9000007    2    1    2  501    0 -0.17126077732E+03  0.20153816002E+03  0.24314469713E+03  0.53739814470E+03  0.39966178000E+03 0.  0.
    9000005    1    3    3    0    0  0.12535045388E+03  0.93948521257E+02  0.38474611005E+02  0.16130826582E+03  0.99999687468E+00 0.  0.
          4    1    3    3  501    0 -0.29661123121E+03  0.10758963876E+03  0.20467008613E+03  0.37608987889E+03  0.00000000000E+00 0.  1.
   -9000007    1    1    2    0  503  0.17126077732E+03 -0.20153816002E+03 -0.67854685983E+03  0.83088731172E+03  0.40000000000E+03 0.  1.
<mgrwt>
<rscale>  2 0.47945828E+03</rscale>
<asrwt>0</asrwt>
<pdfrwt beam="1">  1       21 0.71760254E-01 0.47952881E+03</pdfrwt>
<pdfrwt beam="2">  1       21 0.13874520E+00 0.47952881E+03</pdfrwt>
<totfact> 0.52986384E+02</totfact>
</mgrwt>
</event>
<event>
 6    1  0.9163926E-004  0.4153646E+03  0.7818608E-02  0.1038608E+00
         21   -1    0    0  501  502  0.00000000000E+00  0.00000000000E+00  0.14359518400E+04  0.14359518400E+04  0.00000000000E+00 0.  1.
         21   -1    0    0  502  503 -0.00000000000E+00 -0.00000000000E+00 -0.72995435590E+03  0.72995435590E+03  0.00000000000E+00 0. -1.
    9000007    2    1    2  501    0 -0.61691345346E+02 -0.93391457672E+02  0.13428668558E+04  0.14055573398E+04  0.39971521921E+03 0.  0.
    9000005    1    3    3    0    0 -0.19178279366E+02  0.92909022800E+02  0.68684574902E+02  0.11712584574E+03  0.99999687468E+00 0.  0.
          4    1    3    3  501    0 -0.42513065981E+02 -0.18630048047E+03  0.12741822809E+04  0.12884314940E+04  0.00000000000E+00 0.  1.
   -9000007    1    1    2    0  503  0.61691345346E+02  0.93391457672E+02 -0.63686937170E+03  0.76034885616E+03  0.40000000000E+03 0. -1.
<mgrwt>
<rscale>  2 0.41529607E+03</rscale>
<asrwt>0</asrwt>
<pdfrwt beam="1">  1       21 0.22091567E+00 0.41536464E+03</pdfrwt>
<pdfrwt beam="2">  1       21 0.11230067E+00 0.41536464E+03</pdfrwt>
<totfact> 0.49112095E+01</totfact>
</mgrwt>
</event>
<event>
 6    1  0.9163926E-004  0.5362911E+03  0.7818608E-02  0.1004803E+00
         21   -1    0    0  501  502  0.00000000000E+00  0.00000000000E+00  0.25202129406E+03  0.25202129406E+03  0.00000000000E+00 0.  1.
         21   -1    0    0  502  503 -0.00000000000E+00 -0.00000000000E+00 -0.12021865395E+04  0.12021865395E+04  0.00000000000E+00 0.  1.
    9000007    2    1    2  501    0 -0.97408814727E+02 -0.34368543553E+03 -0.64226611317E+03  0.83581472926E+03  0.39808585224E+03 0.  0.
    9000005    1    3    3    0    0  0.63537201829E+02  0.11743919523E+01 -0.35065507036E+03  0.35636825556E+03  0.99999687468E+00 0.  0.
          4    1    3    3  501    0 -0.16094601656E+03 -0.34485982748E+03 -0.29161104281E+03  0.47944647370E+03  0.00000000000E+00 0.  1.
   -9000007    1    1    2    0  503  0.97408814727E+02  0.34368543553E+03 -0.30789913226E+03  0.61839310428E+03  0.40000000000E+03 0.  1.
<mgrwt>
<rscale>  2 0.53593421E+03</rscale>
<asrwt>0</asrwt>
<pdfrwt beam="1">  1       21 0.38772507E-01 0.53629111E+03</pdfrwt>
<pdfrwt beam="2">  1       21 0.18495177E+00 0.53629111E+03</pdfrwt>
<totfact> 0.87210873E+02</totfact>
</mgrwt>
</event>
<event>
 6    1  0.9163926E-004  0.4567928E+03  0.7818608E-02  0.1025737E+00
         21   -1    0    0  501  502  0.00000000000E+00  0.00000000000E+00  0.24274776169E+03  0.24274776169E+03  0.00000000000E+00 0. -1.
         21   -1    0    0  502  503 -0.00000000000E+00 -0.00000000000E+00 -0.95927457979E+03  0.95927457979E+03  0.00000000000E+00 0. -1.
    9000007    2    1    2  501    0 -0.12562157986E+03 -0.18059088958E+03 -0.16407618244E+03  0.48536652760E+03  0.40033213929E+03 0.  0.
    9000005    1    3    3    0    0 -0.17780691771E+03 -0.16341103870E+03 -0.27232194011E+03  0.36397624457E+03  0.99999687468E+00 0.  0.
          4    1    3    3  501    0  0.52185337842E+02 -0.17179850879E+02  0.10824575767E+03  0.12139028303E+03  0.00000000000E+00 0.  1.
   -9000007    1    1    2    0  503  0.12562157986E+03  0.18059088958E+03 -0.55245063565E+03  0.71665581388E+03  0.40000000000E+03 0. -1.
<mgrwt>
<rscale>  2 0.45672003E+03</rscale>
<asrwt>0</asrwt>
<pdfrwt beam="1">  1       21 0.37345811E-01 0.45679281E+03</pdfrwt>
<pdfrwt beam="2">  1       21 0.14758070E+00 0.45679281E+03</pdfrwt>
<totfact> 0.18398688E+03</totfact>
</mgrwt>
</event>
<event>
 6    1  0.9163926E-004  0.4704138E+03  0.7818608E-02  0.1021815E+00
         21   -1    0    0  501  502  0.00000000000E+00  0.00000000000E+00  0.18024525524E+04  0.18024525524E+04  0.00000000000E+00 0.  1.
         21   -1    0    0  502  503 -0.00000000000E+00 -0.00000000000E+00 -0.20974648280E+03  0.20974648280E+03  0.00000000000E+00 0.  1.
    9000007    2    1    2  501    0 -0.24316232721E+03 -0.44740736533E+02  0.14839660854E+03  0.49326537300E+03  0.40019935519E+03 0.  0.
    9000005    1    3    3    0    0 -0.11007322305E+03  0.10706294727E+03  0.22913918893E+03  0.27583393012E+03  0.99999687468E+00 0.  0.
          4    1    3    3  501    0 -0.13308910416E+03 -0.15180368381E+03 -0.80742580387E+02  0.21743144288E+03  0.00000000000E+00 0.  1.
   -9000007    1    1    2    0  503  0.24316232721E+03  0.44740736533E+02  0.14443094610E+04  0.15189336622E+04  0.40000000000E+03 0.  1.
<mgrwt>
<rscale>  2 0.47037143E+03</rscale>
<asrwt>0</asrwt>
<pdfrwt beam="1">  1       21 0.27730038E+00 0.47041383E+03</pdfrwt>
<pdfrwt beam="2">  1       21 0.32268691E-01 0.47041383E+03</pdfrwt>
<totfact> 0.33594888E+02</totfact>
</mgrwt>
</event>
<event>
 6    1  0.9163926E-004  0.4129547E+03  0.7818608E-02  0.1039419E+00
         21   -1    0    0  501  502  0.00000000000E+00  0.00000000000E+00  0.11003710799E+04  0.11003710799E+04  0.00000000000E+00 0. -1.
         21   -1    0    0  502  503 -0.00000000000E+00 -0.00000000000E+00 -0.29118357866E+03  0.29118357866E+03  0.00000000000E+00 0.  1.
    9000007    2    1    2  501    0 -0.10247713199E+03  0.54825502798E+01  0.88062576963E+03  0.97246630619E+03  0.39957145743E+03 0.  0.
    9000005    1    3    3    0    0 -0.92470280047E+02 -0.75947009574E+02  0.88232876433E+03  0.89040650790E+03  0.99999687468E+00 0.  0.
          4    1    3    3  501    0 -0.10006851939E+02  0.81429559854E+02 -0.17029946996E+01  0.82059798285E+02  0.00000000000E+00 0.  1.
   -9000007    1    1    2    0  503  0.10247713199E+03 -0.54825502798E+01 -0.71438268349E+02  0.41908835241E+03  0.40000000000E+03 0.  1.
<mgrwt>
<rscale>  2 0.41285093E+03</rscale>
<asrwt>0</asrwt>
<pdfrwt beam="1">  1       21 0.16928786E+00 0.41295474E+03</pdfrwt>
<pdfrwt beam="2">  1       21 0.44797474E-01 0.41295474E+03</pdfrwt>
<totfact> 0.88099237E+02</totfact>
</mgrwt>
</event>
<event>
 6    1  0.9163926E-004  0.6491835E+03  0.7818608E-02  0.9808416E-01
         21   -1    0    0  501  502  0.00000000000E+00  0.00000000000E+00  0.11716530344E+04  0.11716530344E+04  0.00000000000E+00 0.  1.
         21   -1    0    0  502  503 -0.00000000000E+00 -0.00000000000E+00 -0.50326357634E+03  0.50326357634E+03  0.00000000000E+00 0. -1.
    9000007    2    1    2  501    0  0.48319269333E+03 -0.16722432496E+03  0.78163793354E+03  0.10159292277E+04  0.39964381998E+03 0.  0.
    9000005    1    3    3    0    0 -0.63089216138E+02 -0.62797952455E+02  0.73178043795E+02  0.11523826670E+03  0.99999687468E+00 0.  0.
          4    1    3    3  501    0  0.54628190947E+03 -0.10442637251E+03  0.70845988975E+03  0.90069096102E+03  0.00000000000E+00 0.  1.
   -9000007    1    1    2    0  503 -0.48319269333E+03  0.16722432496E+03 -0.11324847549E+03  0.65898738300E+03  0.40000000000E+03 0. -1.
<mgrwt>
<rscale>  2 0.64912859E+03</rscale>
<asrwt>0</asrwt>
<pdfrwt beam="1">  1       21 0.18025431E+00 0.64918345E+03</pdfrwt>
<pdfrwt beam="2">  1       21 0.77425166E-01 0.64918345E+03</pdfrwt>
<totfact> 0.20055934E+02</totfact>
</mgrwt>
</event>
<event>
 6    1  0.9163926E-004  0.5098081E+03  0.7818608E-02  0.1011448E+00
         21   -1    0    0  501  502  0.00000000000E+00  0.00000000000E+00  0.34526591084E+03  0.34526591084E+03  0.00000000000E+00 0.  1.
         21   -1    0    0  502  503 -0.00000000000E+00 -0.00000000000E+00 -0.74865249376E+03  0.74865249376E+03  0.00000000000E+00 0. -1.
    9000007    2    1    2  501    0  0.31656950051E+02  0.31448707125E+03 -0.18745449822E+03  0.54026603562E+03  0.39603525079E+03 0.  0.
    9000005    1    3    3    0    0  0.13719392736E+03  0.20978522770E+03 -0.27147595135E+03  0.36950264900E+03  0.99999687468E+00 0.  0.
          4    1    3    3  501    0 -0.10553697731E+03  0.10470184355E+03  0.84021453129E+02  0.17076338661E+03  0.00000000000E+00 0.  1.
   -9000007    1    1    2    0  503 -0.31656950051E+02 -0.31448707125E+03 -0.21593208470E+03  0.55365236898E+03  0.40000000000E+03 0.  1.
<mgrwt>
<rscale>  2 0.50903010E+03</rscale>
<asrwt>0</asrwt>
<pdfrwt beam="1">  1       21 0.53117833E-01 0.50980808E+03</pdfrwt>
<pdfrwt beam="2">  1       21 0.11517731E+00 0.50980808E+03</pdfrwt>
<totfact> 0.16461278E+03</totfact>
</mgrwt>
</event>
<event>
 6    1  0.9163926E-004  0.4072887E+03  0.7818608E-02  0.1041314E+00
         21   -1    0    0  501  502  0.00000000000E+00  0.00000000000E+00  0.16102005292E+03  0.16102005292E+03  0.00000000000E+00 0.  1.
         21   -1    0    0  502  503 -0.00000000000E+00 -0.00000000000E+00 -0.10729898707E+04  0.10729898707E+04  0.00000000000E+00 0.  1.
    9000007    2    1    2  501    0  0.33244714666E+02 -0.69129139212E+02 -0.33135089652E+03  0.52478331620E+03  0.39964992605E+03 0.  0.
    9000005    1    3    3    0    0 -0.70219395795E+02 -0.20860778459E+03 -0.11819275784E+03  0.24983694550E+03  0.99999687468E+00 0.  0.
          4    1    3    3  501    0  0.10346411046E+03  0.13947864538E+03 -0.21315813868E+03  0.27494637069E+03  0.00000000000E+00 0.  1.
   -9000007    1    1    2    0  503 -0.33244714666E+02  0.69129139212E+02 -0.58061892125E+03  0.70922660741E+03  0.40000000000E+03 0.  1.
<mgrwt>
<rscale>  2 0.40720268E+03</rscale>
<asrwt>0</asrwt>
<pdfrwt beam="1">  1       21 0.24772317E-01 0.40728866E+03</pdfrwt>
<pdfrwt beam="2">  1       21 0.16507536E+00 0.40728866E+03</pdfrwt>
<totfact> 0.31197659E+03</totfact>
</mgrwt>
</event>
<event>
 6    1  0.9163926E-004  0.4200722E+03  0.7818608E-02  0.1037058E+00
         21   -1    0    0  501  502  0.00000000000E+00  0.00000000000E+00  0.39763835329E+03  0.39763835329E+03  0.00000000000E+00 0. -1.
         21   -1    0    0  502  503 -0.00000000000E+00 -0.00000000000E+00 -0.62694728784E+03  0.62694728784E+03  0.00000000000E+00 0. -1.
    9000007    2    1    2  501    0  0.83792833745E+02  0.96332201860E+02  0.16238747589E+03  0.45036685873E+03  0.40019930411E+03 0.  0.
    9000005    1    3    3    0    0  0.22998132249E+03 -0.22428679005E+01  0.14792182280E+03  0.27345622100E+03  0.99999687468E+00 0.  0.
          4    1    3    3  501    0 -0.14618848875E+03  0.98575069761E+02  0.14465653097E+02  0.17691063773E+03  0.00000000000E+00 0.  1.
   -9000007    1    1    2    0  503 -0.83792833745E+02 -0.96332201860E+02 -0.39169641045E+03  0.57421878240E+03  0.40000000000E+03 0. -1.
<mgrwt>
<rscale>  2 0.42002468E+03</rscale>
<asrwt>0</asrwt>
<pdfrwt beam="1">  1       21 0.61175132E-01 0.42007215E+03</pdfrwt>
<pdfrwt beam="2">  1       21 0.96453428E-01 0.42007215E+03</pdfrwt>
<totfact> 0.19376611E+03</totfact>
</mgrwt>
</event>
<event>
 6    1  0.9163926E-004  0.5265316E+03  0.7818608E-02  0.1007094E+00
         21   -1    0    0  501  502  0.00000000000E+00  0.00000000000E+00  0.45899976651E+03  0.45899976651E+03  0.00000000000E+00 0. -1.
         21   -1    0    0  502  503 -0.00000000000E+00 -0.00000000000E+00 -0.93666295012E+03  0.93666295012E+03  0.00000000000E+00 0. -1.
    9000007    2    1    2  501    0 -0.34058262541E+03 -0.30770947724E+02  0.17720045430E+03  0.55554977171E+03  0.40036504829E+03 0.  0.
    9000005    1    3    3    0    0 -0.41606328873E+03  0.19203773725E+02  0.20023633488E+03  0.46213962712E+03  0.99999687468E+00 0.  0.
          4    1    3    3  501    0  0.75480663317E+02 -0.49974721449E+02 -0.23035880584E+02  0.93410144593E+02  0.00000000000E+00 0.  1.
   -9000007    1    1    2    0  503  0.34058262541E+03  0.30770947724E+02 -0.65486363791E+03  0.84011294491E+03  0.40000000000E+03 0. -1.
<mgrwt>
<rscale>  2 0.52646223E+03</rscale>
<asrwt>0</asrwt>
<pdfrwt beam="1">  1       21 0.70615348E-01 0.52653162E+03</pdfrwt>
<pdfrwt beam="2">  1       21 0.14410199E+00 0.52653162E+03</pdfrwt>
<totfact> 0.48709619E+02</totfact>
</mgrwt>
</event>
<event>
 6    1  0.9163926E-004  0.5318599E+03  0.7818608E-02  0.1005793E+00
         21   -1    0    0  501  502  0.00000000000E+00  0.00000000000E+00  0.24822421052E+03  0.24822421052E+03  0.00000000000E+00 0. -1.
         21   -1    0    0  502  503 -0.00000000000E+00 -0.00000000000E+00 -0.12191045163E+04  0.12191045163E+04  0.00000000000E+00 0. -1.
    9000007    2    1    2  501    0  0.49020955161E+02 -0.34709069488E+03 -0.29756407370E+03  0.60929041015E+03  0.39976921021E+03 0.  0.
    9000005    1    3    3    0    0  0.39006463759E+02 -0.38104446907E+03 -0.83130099659E+02  0.39195408543E+03  0.99999687468E+00 0.  0.
          4    1    3    3  501    0  0.10014491402E+02  0.33953774188E+02 -0.21443397404E+03  0.21733632472E+03  0.00000000000E+00 0.  1.
   -9000007    1    1    2    0  503 -0.49020955161E+02  0.34709069488E+03 -0.67331623212E+03  0.85803831672E+03  0.40000000000E+03 0. -1.
<mgrwt>
<rscale>  2 0.53181656E+03</rscale>
<asrwt>0</asrwt>
<pdfrwt beam="1">  1       21 0.38188340E-01 0.53185995E+03</pdfrwt>
<pdfrwt beam="2">  1       21 0.18755454E+00 0.53185995E+03</pdfrwt>
<totfact> 0.86444848E+02</totfact>
</mgrwt>
</event>
<event>
 6    1  0.9163926E-004  0.5586863E+03  0.7818608E-02  0.9995877E-01
         21   -1    0    0  501  502  0.00000000000E+00  0.00000000000E+00  0.25520246926E+03  0.25520246926E+03  0.00000000000E+00 0. -1.
         21   -1    0    0  502  503 -0.00000000000E+00 -0.00000000000E+00 -0.20786920231E+04  0.20786920231E+04  0.00000000000E+00 0. -1.
    9000007    2    1    2  501    0 -0.38729585163E+03  0.21707832170E+02 -0.16235369129E+03  0.58179813071E+03  0.40207093548E+03 0.  0.
    9000005    1    3    3    0    0 -0.23284490139E+03 -0.17394664470E+03 -0.16155060289E+03  0.33252636075E+03  0.99999687468E+00 0.  0.
          4    1    3    3  501    0 -0.15445095023E+03  0.19565447687E+03 -0.80308839298E+00  0.24927176996E+03  0.00000000000E+00 0.  1.
   -9000007    1    1    2    0  503  0.38729585163E+03 -0.21707832170E+02 -0.16611358625E+04  0.17520963616E+04  0.40000000000E+03 0. -1.
<mgrwt>
<rscale>  2 0.55831376E+03</rscale>
<asrwt>0</asrwt>
<pdfrwt beam="1">  1       21 0.39261918E-01 0.55868627E+03</pdfrwt>
<pdfrwt beam="2">  1       21 0.31979877E+00 0.55868627E+03</pdfrwt>
<totfact> 0.11898562E+02</totfact>
</mgrwt>
</event>
<event>
 6    1  0.9163926E-004  0.4145493E+03  0.7818608E-02  0.1038855E+00
         21   -1    0    0  501  502  0.00000000000E+00  0.00000000000E+00  0.33124899576E+03  0.33124899576E+03  0.00000000000E+00 0.  1.
         21   -1    0    0  502  503 -0.00000000000E+00 -0.00000000000E+00 -0.56705969709E+03  0.56705969709E+03  0.00000000000E+00 0.  1.
    9000007    2    1    2  501    0  0.53843405975E+02  0.94614904895E+02 -0.24894430139E+03  0.48355143367E+03  0.39999703900E+03 0.  0.
    9000005    1    3    3    0    0  0.13406645202E+03  0.16075083830E+03  0.47534698070E+01  0.20937583680E+03  0.99999687468E+00 0.  0.
          4    1    3    3  501    0 -0.80223046040E+02 -0.66135933401E+02 -0.25369777120E+03  0.27417559686E+03  0.00000000000E+00 0.  1.
   -9000007    1    1    2    0  503 -0.53843405975E+02 -0.94614904895E+02  0.13133600070E+02  0.41475725918E+03  0.40000000000E+03 0. -1.
<mgrwt>
<rscale>  2 0.41454855E+03</rscale>
<asrwt>0</asrwt>
<pdfrwt beam="1">  1       21 0.50961384E-01 0.41454926E+03</pdfrwt>
<pdfrwt beam="2">  1       21 0.87239953E-01 0.41454926E+03</pdfrwt>
<totfact> 0.36576218E+03</totfact>
</mgrwt>
</event>
<event>
 6    1  0.9163926E-004  0.5260776E+03  0.7818608E-02  0.1007214E+00
         21   -1    0    0  501  502  0.00000000000E+00  0.00000000000E+00  0.73106470745E+03  0.73106470745E+03  0.00000000000E+00 0.  1.
         21   -1    0    0  502  503 -0.00000000000E+00 -0.00000000000E+00 -0.65758790314E+03  0.65758790314E+03  0.00000000000E+00 0. -1.
    9000007    2    1    2  501    0  0.34102766054E+03 -0.21394991251E+02  0.48925304362E+03  0.71810992584E+03  0.39944425642E+03 0.  0.
    9000005    1    3    3    0    0  0.36438030028E+02  0.60929182509E+02 -0.54458582370E+02  0.89480905790E+02  0.99999687468E+00 0.  0.
          4    1    3    3  501    0  0.30458963051E+03 -0.82324173760E+02  0.54371162599E+03  0.62862902005E+03  0.00000000000E+00 0.  1.
   -9000007    1    1    2    0  503 -0.34102766054E+03  0.21394991251E+02 -0.41577623932E+03  0.67054268476E+03  0.40000000000E+03 0. -1.
<mgrwt>
<rscale>  2 0.52597193E+03</rscale>
<asrwt>0</asrwt>
<pdfrwt beam="1">  1       21 0.11247149E+00 0.52607757E+03</pdfrwt>
<pdfrwt beam="2">  1       21 0.10116737E+00 0.52607757E+03</pdfrwt>
<totfact> 0.39840483E+02</totfact>
</mgrwt>
</event>
<event>
 6    1  0.9163926E-004  0.4021845E+03  0.7818608E-02  0.1043041E+00
         21   -1    0    0  501  502  0.00000000000E+00  0.00000000000E+00  0.85299872047E+03  0.85299872047E+03  0.00000000000E+00 0.  1.
         21   -1    0    0  502  503 -0.00000000000E+00 -0.00000000000E+00 -0.27733978066E+03  0.27733978066E+03  0.00000000000E+00 0.  1.
    9000007    2    1    2  501    0 -0.37924489170E+02  0.13265990145E+02  0.60585304185E+03  0.72719344391E+03  0.40017264170E+03 0.  0.
    9000005    1    3    3    0    0 -0.25061863719E+02 -0.36065681633E+02 -0.51599757280E+02  0.67766993071E+02  0.99999687468E+00 0.  0.
          4    1    3    3  501    0 -0.12862625450E+02  0.49331671778E+02  0.65745279913E+03  0.65942645084E+03  0.00000000000E+00 0.  1.
   -9000007    1    1    2    0  503  0.37924489170E+02 -0.13265990145E+02 -0.30194102042E+02  0.40314505723E+03  0.40000000000E+03 0.  1.
<mgrwt>
<rscale>  2 0.40214158E+03</rscale>
<asrwt>0</asrwt>
<pdfrwt beam="1">  1       21 0.13123057E+00 0.40218453E+03</pdfrwt>
<pdfrwt beam="2">  1       21 0.42667659E-01 0.40218453E+03</pdfrwt>
<totfact> 0.19525053E+03</totfact>
</mgrwt>
</event>
<event>
 6    1  0.9163926E-004  0.4064203E+03  0.7818608E-02  0.1041834E+00
         21   -1    0    0  501  502  0.00000000000E+00  0.00000000000E+00  0.50638375568E+03  0.50638375568E+03  0.00000000000E+00 0. -1.
         21   -1    0    0  502  503 -0.00000000000E+00 -0.00000000000E+00 -0.69859347042E+03  0.69859347042E+03  0.00000000000E+00 0. -1.
    9000007    2    1    2  501    0 -0.29772764895E+02 -0.65506032018E+02  0.34535991707E+03  0.53106434833E+03  0.39696147419E+03 0.  0.
    9000005    1    3    3    0    0  0.46382464977E+02  0.60506480392E+02  0.37346522416E+03  0.38116878267E+03  0.99999687468E+00 0.  0.
          4    1    3    3  501    0 -0.76155229872E+02 -0.12601251241E+03 -0.28105307090E+02  0.14989556567E+03  0.00000000000E+00 0.  1.
   -9000007    1    1    2    0  503  0.29772764895E+02  0.65506032018E+02 -0.53756963182E+03  0.67391287776E+03  0.40000000000E+03 0. -1.
<mgrwt>
<rscale>  2 0.40567068E+03</rscale>
<asrwt>0</asrwt>
<pdfrwt beam="1">  1       21 0.77905194E-01 0.40642030E+03</pdfrwt>
<pdfrwt beam="2">  1       21 0.10747592E+00 0.40642030E+03</pdfrwt>
<totfact> 0.87084017E+02</totfact>
</mgrwt>
</event>
<event>
 6    1  0.9163926E-004  0.5700829E+03  0.7818608E-02  0.9969833E-01
         21   -1    0    0  501  502  0.00000000000E+00  0.00000000000E+00  0.47881845694E+03  0.47881845694E+03  0.00000000000E+00 0. -1.
         21   -1    0    0  502  503 -0.00000000000E+00 -0.00000000000E+00 -0.75354947240E+03  0.75354947240E+03  0.00000000000E+00 0. -1.
    9000007    2    1    2  501    0 -0.31283950566E+03 -0.25908688131E+03  0.57785662682E+02  0.57239678634E+03  0.39912946500E+03 0.  0.
    9000005    1    3    3    0    0 -0.26941250965E+03 -0.34265372871E+03  0.12872065827E+03  0.45449387896E+03  0.99999687468E+00 0.  0.
          4    1    3    3  501    0 -0.43426996012E+02  0.83566847403E+02 -0.70934995590E+02  0.11790290737E+03  0.00000000000E+00 0.  1.
   -9000007    1    1    2    0  503  0.31283950566E+03  0.25908688131E+03 -0.33251667814E+03  0.65997114301E+03  0.40000000000E+03 0. -1.
<mgrwt>
<rscale>  2 0.56993027E+03</rscale>
<asrwt>0</asrwt>
<pdfrwt beam="1">  1       21 0.73664378E-01 0.57008295E+03</pdfrwt>
<pdfrwt beam="2">  1       21 0.11593069E+00 0.57008295E+03</pdfrwt>
<totfact> 0.76851714E+02</totfact>
</mgrwt>
</event>
<event>
 6    1  0.9163926E-004  0.4144878E+03  0.7818608E-02  0.1038893E+00
         21   -1    0    0  501  502  0.00000000000E+00  0.00000000000E+00  0.19986509103E+04  0.19986509103E+04  0.00000000000E+00 0. -1.
         21   -1    0    0  502  503 -0.00000000000E+00 -0.00000000000E+00 -0.88639328740E+02  0.88639328740E+02  0.00000000000E+00 0. -1.
    9000007    2    1    2  501    0 -0.10647667614E+03  0.21514623727E+02  0.11377936302E+04  0.12108652702E+04  0.39977518190E+03 0.  0.
    9000005    1    3    3    0    0 -0.13720462068E+03 -0.14384315431E+03  0.88627007422E+03  0.90829048515E+03  0.99999687468E+00 0.  0.
          4    1    3    3  501    0  0.30727944540E+02  0.16535777803E+03  0.25152355598E+03  0.30257478504E+03  0.00000000000E+00 0.  1.
   -9000007    1    1    2    0  503  0.10647667614E+03 -0.21514623727E+02  0.77221795134E+03  0.87642496882E+03  0.40000000000E+03 0. -1.
<mgrwt>
<rscale>  2 0.41443358E+03</rscale>
<asrwt>0</asrwt>
<pdfrwt beam="1">  1       21 0.30748472E+00 0.41448783E+03</pdfrwt>
<pdfrwt beam="2">  1       21 0.13636821E-01 0.41448783E+03</pdfrwt>
<totfact> 0.11874834E+03</totfact>
</mgrwt>
</event>
<event>
 6    1  0.9163926E-004  0.4038886E+03  0.7818608E-02  0.1042533E+00
         21   -1    0    0  501  502  0.00000000000E+00  0.00000000000E+00  0.11858084586E+03  0.11858084586E+03  0.00000000000E+00 0.  1.
         21   -1    0    0  502  503 -0.00000000000E+00 -0.00000000000E+00 -0.17919765504E+04  0.17919765504E+04  0.00000000000E+00 0.  1.
    9000007    2    1    2  501    0 -0.32489808617E+02  0.45501866449E+02 -0.37338268748E+03  0.54924925627E+03  0.39891616498E+03 0.  0.
    9000005    1    3    3    0    0  0.69509831909E+02 -0.27932977492E+02 -0.41122300854E+03  0.41799190268E+03  0.99999687468E+00 0.  0.
          4    1    3    3  501    0 -0.10199964053E+03  0.73434843941E+02  0.37840321058E+02  0.13125735358E+03  0.00000000000E+00 0.  1.
   -9000007    1    1    2    0  503  0.32489808617E+02 -0.45501866449E+02 -0.13000130171E+04  0.13613081400E+04  0.40000000000E+03 0.  1.
<mgrwt>
<rscale>  2 0.40362000E+03</rscale>
<asrwt>0</asrwt>
<pdfrwt beam="1">  1       21 0.18243207E-01 0.40388861E+03</pdfrwt>
<pdfrwt beam="2">  1       21 0.27568869E+00 0.40388861E+03</pdfrwt>
<totfact> 0.10785441E+03</totfact>
</mgrwt>
</event>
<event>
 6    1  0.9163926E-004  0.4217492E+03  0.7818608E-02  0.1036532E+00
         21   -1    0    0  501  502  0.00000000000E+00  0.00000000000E+00  0.73640235737E+03  0.73640235737E+03  0.00000000000E+00 0.  1.
         21   -1    0    0  502  503 -0.00000000000E+00 -0.00000000000E+00 -0.28748479200E+03  0.28748479200E+03  0.00000000000E+00 0. -1.
    9000007    2    1    2  501    0 -0.11020767354E+03 -0.75674627269E+02  0.42955204830E+03  0.60169358740E+03  0.39955954550E+03 0.  0.
    9000005    1    3    3    0    0  0.96770623457E+01  0.15725799309E+03  0.18868753730E+03  0.24582048054E+03  0.99999687468E+00 0.  0.
          4    1    3    3  501    0 -0.11988473588E+03 -0.23293262036E+03  0.24086451100E+03  0.35587310686E+03  0.00000000000E+00 0.  1.
   -9000007    1    1    2    0  503  0.11020767354E+03  0.75674627269E+02  0.19365517079E+02  0.42219356197E+03  0.40000000000E+03 0. -1.
<mgrwt>
<rscale>  2 0.42164472E+03</rscale>
<asrwt>0</asrwt>
<pdfrwt beam="1">  1       21 0.11329267E+00 0.42174919E+03</pdfrwt>
<pdfrwt beam="2">  1       21 0.44228430E-01 0.42174919E+03</pdfrwt>
<totfact> 0.26119856E+03</totfact>
</mgrwt>
</event>
<event>
 6    1  0.9163926E-004  0.4765912E+03  0.7818608E-02  0.1020084E+00
         21   -1    0    0  501  502  0.00000000000E+00  0.00000000000E+00  0.96459930895E+03  0.96459930895E+03  0.00000000000E+00 0.  1.
         21   -1    0    0  502  503 -0.00000000000E+00 -0.00000000000E+00 -0.29412095593E+03  0.29412095593E+03  0.00000000000E+00 0. -1.
    9000007    2    1    2  501    0  0.18586191174E+03  0.18053953914E+03  0.61637220801E+03  0.77906762978E+03  0.39986559934E+03 0.  0.
    9000005    1    3    3    0    0 -0.14247876523E+02 -0.24311050372E+01  0.47134863549E+03  0.47157125488E+03  0.99999687468E+00 0.  0.
          4    1    3    3  501    0  0.20010978827E+03  0.18297064418E+03  0.14502357252E+03  0.30749637490E+03  0.00000000000E+00 0.  1.
   -9000007    1    1    2    0  503 -0.18586191174E+03 -0.18053953914E+03  0.54106145008E+02  0.47965263510E+03  0.40000000000E+03 0. -1.
<mgrwt>
<rscale>  2 0.47656300E+03</rscale>
<asrwt>0</asrwt>
<pdfrwt beam="1">  1       21 0.14839989E+00 0.47659120E+03</pdfrwt>
<pdfrwt beam="2">  1       21 0.45249378E-01 0.47659120E+03</pdfrwt>
<totfact> 0.12086687E+03</totfact>
</mgrwt>
</event>
<event>
 6    1  0.9163926E-004  0.4595973E+03  0.7818608E-02  0.1024943E+00
         21   -1    0    0  501  502  0.00000000000E+00  0.00000000000E+00  0.16486195035E+04  0.16486195035E+04  0.00000000000E+00 0. -1.
         21   -1    0    0  502  503 -0.00000000000E+00 -0.00000000000E+00 -0.22304188003E+03  0.22304188003E+03  0.00000000000E+00 0.  1.
    9000007    2    1    2  501    0  0.13345213370E+03 -0.18281193461E+03  0.13235502949E+04  0.14008756030E+04  0.39929612613E+03 0.  0.
    9000005    1    3    3    0    0  0.21662560897E+03 -0.13640490363E+03  0.12614757435E+04  0.12871887988E+04  0.99999687468E+00 0.  0.
          4    1    3    3  501    0 -0.83173475270E+02 -0.46407030974E+02  0.62074551386E+02  0.11368680417E+03  0.00000000000E+00 0.  1.
   -9000007    1    1    2    0  503 -0.13345213370E+03  0.18281193461E+03  0.10202732855E+03  0.47078578058E+03  0.40000000000E+03 0.  1.
<mgrwt>
<rscale>  2 0.45944410E+03</rscale>
<asrwt>0</asrwt>
<pdfrwt beam="1">  1       21 0.25363376E+00 0.45959730E+03</pdfrwt>
<pdfrwt beam="2">  1       21 0.34314136E-01 0.45959730E+03</pdfrwt>
<totfact> 0.41591230E+02</totfact>
</mgrwt>
</event>
<event>
 6    1  0.9163926E-004  0.4033037E+03  0.7818608E-02  0.1042796E+00
         21   -1    0    0  501  502  0.00000000000E+00  0.00000000000E+00  0.29896957817E+03  0.29896957817E+03  0.00000000000E+00 0. -1.
         21   -1    0    0  502  503 -0.00000000000E+00 -0.00000000000E+00 -0.54198121067E+03  0.54198121067E+03  0.00000000000E+00 0. -1.
    9000007    2    1    2  501    0 -0.17289585030E+02  0.48527813345E+02 -0.13188605430E+03  0.42261746175E+03  0.39819305524E+03 0.  0.
    9000005    1    3    3    0    0 -0.12439707317E+03  0.17333102639E+03 -0.14448596724E+03  0.25767318690E+03  0.99999687468E+00 0.  0.
          4    1    3    3  501    0  0.10710748814E+03 -0.12480321305E+03  0.12599912941E+02  0.16494427486E+03  0.00000000000E+00 0.  1.
   -9000007    1    1    2    0  503  0.17289585030E+02 -0.48527813345E+02 -0.11112557821E+03  0.41833332709E+03  0.40000000000E+03 0. -1.
<mgrwt>
<rscale>  2 0.40285494E+03</rscale>
<asrwt>0</asrwt>
<pdfrwt beam="1">  1       21 0.45995320E-01 0.40330370E+03</pdfrwt>
<pdfrwt beam="2">  1       21 0.83381725E-01 0.40330370E+03</pdfrwt>
<totfact> 0.50698349E+03</totfact>
</mgrwt>
</event>
<event>
 6    1  0.9163926E-004  0.4042261E+03  0.7818608E-02  0.1042538E+00
         21   -1    0    0  501  502  0.00000000000E+00  0.00000000000E+00  0.14283649287E+04  0.14283649287E+04  0.00000000000E+00 0.  1.
         21   -1    0    0  502  503 -0.00000000000E+00 -0.00000000000E+00 -0.12517433204E+03  0.12517433204E+03  0.00000000000E+00 0.  1.
    9000007    2    1    2  501    0  0.58139139749E+02  0.43094055233E+01  0.41455975678E+03  0.57728954877E+03  0.39749805110E+03 0.  0.
    9000005    1    3    3    0    0 -0.10277763514E+03  0.11963082869E+03  0.55374892147E+02  0.16715907433E+03  0.99999687468E+00 0.  0.
          4    1    3    3  501    0  0.16091677489E+03 -0.11532142317E+03  0.35918486464E+03  0.41013047444E+03  0.00000000000E+00 0.  1.
   -9000007    1    1    2    0  503 -0.58139139749E+02 -0.43094055233E+01  0.88863083989E+03  0.97624971199E+03  0.40000000000E+03 0. -1.
<mgrwt>
<rscale>  2 0.40360575E+03</rscale>
<asrwt>0</asrwt>
<pdfrwt beam="1">  1       21 0.21974844E+00 0.40422609E+03</pdfrwt>
<pdfrwt beam="2">  1       21 0.19257591E-01 0.40422609E+03</pdfrwt>
<totfact> 0.21487723E+03</totfact>
</mgrwt>
</event>
<event>
 6    1  0.9163926E-004  0.4276359E+03  0.7818608E-02  0.1034635E+00
         21   -1    0    0  501  502  0.00000000000E+00  0.00000000000E+00  0.15518948893E+04  0.15518948893E+04  0.00000000000E+00 0. -1.
         21   -1    0    0  502  503 -0.00000000000E+00 -0.00000000000E+00 -0.27135518747E+03  0.27135518747E+03  0.00000000000E+00 0. -1.
    9000007    2    1    2  501    0 -0.10130926343E+03  0.11228924150E+03  0.13260496869E+04  0.13931993828E+04  0.39965523585E+03 0.  0.
    9000005    1    3    3    0    0  0.41168987942E+02  0.10543697019E+03  0.79041553847E+02  0.13805943459E+03  0.99999687468E+00 0.  0.
          4    1    3    3  501    0 -0.14247825137E+03  0.68522713137E+01  0.12470081331E+04  0.12551399482E+04  0.00000000000E+00 0.  1.
   -9000007    1    1    2    0  503  0.10130926343E+03 -0.11228924150E+03 -0.45509985086E+02  0.43005069394E+03  0.40000000000E+03 0. -1.
<mgrwt>
<rscale>  2 0.42755523E+03</rscale>
<asrwt>0</asrwt>
<pdfrwt beam="1">  1       21 0.23875306E+00 0.42763587E+03</pdfrwt>
<pdfrwt beam="2">  1       21 0.41746953E-01 0.42763587E+03</pdfrwt>
<totfact> 0.35013213E+02</totfact>
</mgrwt>
</event>
<event>
 6    1  0.9163926E-004  0.5801828E+03  0.7818608E-02  0.9947509E-01
         21   -1    0    0  501  502  0.00000000000E+00  0.00000000000E+00  0.55211886037E+03  0.55211886037E+03  0.00000000000E+00 0. -1.
         21   -1    0    0  502  503 -0.00000000000E+00 -0.00000000000E+00 -0.61990946170E+03  0.61990946170E+03  0.00000000000E+00 0.  1.
    9000007    2    1    2  501    0  0.34964507797E+03  0.23262984402E+03  0.42209533689E+02  0.58171623971E+03  0.40030465140E+03 0.  0.
    9000005    1    3    3    0    0  0.76476936203E+02  0.28232771063E+03  0.75458150515E+02  0.30208043702E+03  0.99999687468E+00 0.  0.
          4    1    3    3  501    0  0.27316814177E+03 -0.49697866609E+02 -0.33248616826E+02  0.27963580269E+03  0.00000000000E+00 0.  1.
   -9000007    1    1    2    0  503 -0.34964507797E+03 -0.23262984402E+03 -0.11000013502E+03  0.59031208236E+03  0.40000000000E+03 0.  1.
<mgrwt>
<rscale>  2 0.58013030E+03</rscale>
<asrwt>0</asrwt>
<pdfrwt beam="1">  1       21 0.84941363E-01 0.58018285E+03</pdfrwt>
<pdfrwt beam="2">  1       21 0.95370686E-01 0.58018285E+03</pdfrwt>
<totfact> 0.89220650E+02</totfact>
</mgrwt>
</event>
<event>
 6    1  0.9163926E-004  0.4390012E+03  0.7818608E-02  0.1031128E+00
         21   -1    0    0  501  502  0.00000000000E+00  0.00000000000E+00  0.54698847861E+03  0.54698847861E+03  0.00000000000E+00 0.  1.
         21   -1    0    0  502  503 -0.00000000000E+00 -0.00000000000E+00 -0.49055758763E+03  0.49055758763E+03  0.00000000000E+00 0.  1.
    9000007    2    1    2  501    0 -0.10768068225E+02  0.18057147786E+03  0.30433423898E+03  0.53338529836E+03  0.39894678541E+03 0.  0.
    9000005    1    3    3    0    0  0.13580136848E+02 -0.65468714812E+02 -0.62155498697E+02  0.91295557110E+02  0.99999687468E+00 0.  0.
          4    1    3    3  501    0 -0.24348205073E+02  0.24604019267E+03  0.36648973768E+03  0.44208974125E+03  0.00000000000E+00 0.  1.
   -9000007    1    1    2    0  503  0.10768068225E+02 -0.18057147786E+03 -0.24790334801E+03  0.50416076787E+03  0.40000000000E+03 0.  1.
<mgrwt>
<rscale>  2 0.43876110E+03</rscale>
<asrwt>0</asrwt>
<pdfrwt beam="1">  1       21 0.84152074E-01 0.43900115E+03</pdfrwt>
<pdfrwt beam="2">  1       21 0.75470398E-01 0.43900115E+03</pdfrwt>
<totfact> 0.16600465E+03</totfact>
</mgrwt>
</event>
<event>
 6    1  0.9163926E-004  0.5723886E+03  0.7818608E-02  0.9965063E-01
         21   -1    0    0  501  502  0.00000000000E+00  0.00000000000E+00  0.32682992941E+03  0.32682992941E+03  0.00000000000E+00 0. -1.
         21   -1    0    0  502  503 -0.00000000000E+00 -0.00000000000E+00 -0.16598717161E+04  0.16598717161E+04  0.00000000000E+00 0.  1.
    9000007    2    1    2  501    0  0.16053980115E+03  0.37663740287E+03 -0.39954636296E+02  0.57259304307E+03  0.39829343330E+03 0.  0.
    9000005    1    3    3    0    0  0.14585036395E+03  0.45889437809E+03 -0.37548494819E+01  0.48153034982E+03  0.99999687468E+00 0.  0.
          4    1    3    3  501    0  0.14689437198E+02 -0.82256975216E+02 -0.36199786814E+02  0.91062693252E+02  0.00000000000E+00 0.  1.
   -9000007    1    1    2    0  503 -0.16053980115E+03 -0.37663740287E+03 -0.12930871504E+04  0.14141086025E+04  0.40000000000E+03 0.  1.
<mgrwt>
<rscale>  2 0.57209059E+03</rscale>
<asrwt>0</asrwt>
<pdfrwt beam="1">  1       21 0.50281528E-01 0.57238865E+03</pdfrwt>
<pdfrwt beam="2">  1       21 0.25536488E+00 0.57238865E+03</pdfrwt>
<totfact> 0.17368104E+02</totfact>
</mgrwt>
</event>
<event>
 6    1  0.9163926E-004  0.5625162E+03  0.7818608E-02  0.9987016E-01
         21   -1    0    0  501  502  0.00000000000E+00  0.00000000000E+00  0.32776955181E+03  0.32776955181E+03  0.00000000000E+00 0.  1.
         21   -1    0    0  502  503 -0.00000000000E+00 -0.00000000000E+00 -0.10924067206E+04  0.10924067206E+04  0.00000000000E+00 0.  1.
    9000007    2    1    2  501    0  0.13442785157E+03 -0.37195920349E+03 -0.13799736426E+03  0.57809436369E+03  0.39840346943E+03 0.  0.
    9000005    1    3    3    0    0 -0.86150090127E+02 -0.12724071776E+03 -0.19021006508E+03  0.24452588235E+03  0.99999687468E+00 0.  0.
          4    1    3    3  501    0  0.22057794170E+03 -0.24471848573E+03  0.52212700826E+02  0.33356848135E+03  0.00000000000E+00 0.  1.
   -9000007    1    1    2    0  503 -0.13442785157E+03  0.37195920349E+03 -0.62663980450E+03  0.84208190868E+03  0.40000000000E+03 0.  1.
<mgrwt>
<rscale>  2 0.56223247E+03</rscale>
<asrwt>0</asrwt>
<pdfrwt beam="1">  1       21 0.50426084E-01 0.56251622E+03</pdfrwt>
<pdfrwt beam="2">  1       21 0.16806257E+00 0.56251622E+03</pdfrwt>
<totfact> 0.65785970E+02</totfact>
</mgrwt>
</event>
<event>
 6    1  0.9163926E-004  0.4544690E+03  0.7818608E-02  0.1026454E+00
         21   -1    0    0  501  502  0.00000000000E+00  0.00000000000E+00  0.19878549583E+03  0.19878549583E+03  0.00000000000E+00 0.  1.
         21   -1    0    0  502  503 -0.00000000000E+00 -0.00000000000E+00 -0.11052572787E+04  0.11052572787E+04  0.00000000000E+00 0.  1.
    9000007    2    1    2  501    0 -0.10414223486E+03 -0.18709873832E+03 -0.29189382729E+03  0.54013335158E+03  0.40086218095E+03 0.  0.
    9000005    1    3    3    0    0 -0.16154418694E+03  0.64129296270E+02 -0.37075594056E+02  0.17772082220E+03  0.99999687468E+00 0.  0.
          4    1    3    3  501    0  0.57401952081E+02 -0.25122803459E+03 -0.25481823324E+03  0.36241252939E+03  0.00000000000E+00 0.  1.
   -9000007    1    1    2    0  503  0.10414223486E+03  0.18709873832E+03 -0.61457795553E+03  0.76390942290E+03  0.40000000000E+03 0.  1.
<mgrwt>
<rscale>  2 0.45427876E+03</rscale>
<asrwt>0</asrwt>
<pdfrwt beam="1">  1       21 0.30582384E-01 0.45446896E+03</pdfrwt>
<pdfrwt beam="2">  1       21 0.17003958E+00 0.45446896E+03</pdfrwt>
<totfact> 0.18595426E+03</totfact>
</mgrwt>
</event>
<event>
 6    1  0.9163926E-004  0.4243817E+03  0.7818608E-02  0.1035680E+00
         21   -1    0    0  501  502  0.00000000000E+00  0.00000000000E+00  0.56529065698E+03  0.56529065698E+03  0.00000000000E+00 0. -1.
         21   -1    0    0  502  503 -0.00000000000E+00 -0.00000000000E+00 -0.31835166023E+03  0.31835166023E+03  0.00000000000E+00 0. -1.
    9000007    2    1    2  501    0 -0.61808484309E+02 -0.12633802437E+03  0.12824721752E+03  0.44333637404E+03  0.40039756070E+03 0.  0.
    9000005    1    3    3    0    0 -0.43006219885E+02  0.20490773480E+02 -0.13398672443E+03  0.14220706405E+03  0.99999687468E+00 0.  0.
          4    1    3    3  501    0 -0.18802264424E+02 -0.14682879785E+03  0.26223394196E+03  0.30112931000E+03  0.00000000000E+00 0.  1.
   -9000007    1    1    2    0  503  0.61808484309E+02  0.12633802437E+03  0.11869177923E+03  0.44030594317E+03  0.40000000000E+03 0. -1.
<mgrwt>
<rscale>  2 0.42428786E+03</rscale>
<asrwt>0</asrwt>
<pdfrwt beam="1">  1       21 0.86967794E-01 0.42438166E+03</pdfrwt>
<pdfrwt beam="2">  1       21 0.48977178E-01 0.42438166E+03</pdfrwt>
<totfact> 0.39943591E+03</totfact>
</mgrwt>
</event>
<event>
 6    1  0.9163926E-004  0.4435951E+03  0.7818608E-02  0.1029873E+00
         21   -1    0    0  501  502  0.00000000000E+00  0.00000000000E+00  0.15235026820E+04  0.15235026820E+04  0.00000000000E+00 0.  1.
         21   -1    0    0  502  503 -0.00000000000E+00 -0.00000000000E+00 -0.16041453241E+03  0.16041453241E+03  0.00000000000E+00 0.  1.
    9000007    2    1    2  501    0 -0.14967093566E+03 -0.11989668438E+03  0.10564035740E+04  0.11446287639E+04  0.39674915528E+03 0.  0.
    9000005    1    3    3    0    0 -0.66816520378E+02 -0.37094647371E+02 -0.51775787341E+01  0.76604618492E+02  0.99999687468E+00 0.  0.
          4    1    3    3  501    0 -0.82854415282E+02 -0.82802037011E+02  0.10615811527E+04  0.10680241454E+04  0.00000000000E+00 0.  1.
   -9000007    1    1    2    0  503  0.14967093566E+03  0.11989668438E+03  0.30668457564E+03  0.53928845050E+03  0.40000000000E+03 0.  1.
<mgrwt>
<rscale>  2 0.44286099E+03</rscale>
<asrwt>0</asrwt>
<pdfrwt beam="1">  1       21 0.23438502E+00 0.44359509E+03</pdfrwt>
<pdfrwt beam="2">  1       21 0.24679160E-01 0.44359509E+03</pdfrwt>
<totfact> 0.10593341E+03</totfact>
</mgrwt>
</event>
<event>
 6    1  0.9163926E-004  0.4672870E+03  0.7818608E-02  0.1022701E+00
         21   -1    0    0  501  502  0.00000000000E+00  0.00000000000E+00  0.23740003127E+03  0.23740003127E+03  0.00000000000E+00 0.  1.
         21   -1    0    0  502  503 -0.00000000000E+00 -0.00000000000E+00 -0.10012768279E+04  0.10012768279E+04  0.00000000000E+00 0.  1.
    9000007    2    1    2  501    0 -0.20726995134E+03  0.12408200528E+03 -0.20482746837E+03  0.51005258824E+03  0.39980266908E+03 0.  0.
    9000005    1    3    3    0    0  0.10598254035E+03  0.11018210064E+03 -0.54379331377E+02  0.16226677366E+03  0.99999687468E+00 0.  0.
          4    1    3    3  501    0 -0.31325249169E+03  0.13899904644E+02 -0.15044813699E+03  0.34778581458E+03  0.00000000000E+00 0.  1.
   -9000007    1    1    2    0  503  0.20726995134E+03 -0.12408200528E+03 -0.55904932830E+03  0.72862427096E+03  0.40000000000E+03 0.  1.
<mgrwt>
<rscale>  2 0.46724481E+03</rscale>
<asrwt>0</asrwt>
<pdfrwt beam="1">  1       21 0.36523081E-01 0.46728704E+03</pdfrwt>
<pdfrwt beam="2">  1       21 0.15404259E+00 0.46728704E+03</pdfrwt>
<totfact> 0.17063273E+03</totfact>
</mgrwt>
</event>
<event>
 6    1  0.9163926E-004  0.4394451E+03  0.7818608E-02  0.1030978E+00
         21   -1    0    0  501  502  0.00000000000E+00  0.00000000000E+00  0.21610889422E+03  0.21610889422E+03  0.00000000000E+00 0.  1.
         21   -1    0    0  502  503 -0.00000000000E+00 -0.00000000000E+00 -0.11485844926E+04  0.11485844926E+04  0.00000000000E+00 0.  1.
    9000007    2    1    2  501    0  0.94501909977E+02  0.15326098147E+03 -0.14404598272E+03  0.46245129166E+03  0.40086458136E+03 0.  0.
    9000005    1    3    3    0    0 -0.83135152604E+02  0.15561146742E+03 -0.20880617359E+03  0.27336312940E+03  0.99999687468E+00 0.  0.
          4    1    3    3  501    0  0.17763706258E+03 -0.23504859570E+01  0.64760190866E+02  0.18908816226E+03  0.00000000000E+00 0.  1.
   -9000007    1    1    2    0  503 -0.94501909977E+02 -0.15326098147E+03 -0.78842961561E+03  0.90224209512E+03  0.40000000000E+03 0.  1.
<mgrwt>
<rscale>  2 0.43924778E+03</rscale>
<asrwt>0</asrwt>
<pdfrwt beam="1">  1       21 0.33247523E-01 0.43944505E+03</pdfrwt>
<pdfrwt beam="2">  1       21 0.17670530E+00 0.43944505E+03</pdfrwt>
<totfact> 0.14177106E+03</totfact>
</mgrwt>
</event>
<event>
 6    1  0.9163926E-004  0.4652339E+03  0.7818608E-02  0.1024116E+00
         21   -1    0    0  501  502  0.00000000000E+00  0.00000000000E+00  0.40803220480E+03  0.40803220480E+03  0.00000000000E+00 0.  1.
         21   -1    0    0  502  503 -0.00000000000E+00 -0.00000000000E+00 -0.51981405150E+03  0.51981405150E+03  0.00000000000E+00 0. -1.
    9000007    2    1    2  501    0  0.12223576197E+03  0.17555125138E+03 -0.88975453758E+02  0.47366572509E+03  0.41313770632E+03 0.  0.
    9000005    1    3    3    0    0  0.27128847019E+03  0.11433056985E+03 -0.10306059520E+03  0.31191569299E+03  0.99999687468E+00 0.  0.
          4    1    3    3  501    0 -0.14905270822E+03  0.61220681531E+02  0.14085141438E+02  0.16175003209E+03  0.00000000000E+00 0.  1.
   -9000007    1    1    2    0  503 -0.12223576197E+03 -0.17555125138E+03 -0.22806392941E+02  0.45418053121E+03  0.40000000000E+03 0.  1.
<mgrwt>
<rscale>  2 0.46229968E+03</rscale>
<asrwt>0</asrwt>
<pdfrwt beam="1">  1       21 0.62774186E-01 0.46523391E+03</pdfrwt>
<pdfrwt beam="2">  1       21 0.79971392E-01 0.46523391E+03</pdfrwt>
<totfact> 0.27986600E+03</totfact>
</mgrwt>
</event>
<event>
 6    1  0.9163926E-004  0.5109959E+03  0.7818608E-02  0.1010957E+00
         21   -1    0    0  501  502  0.00000000000E+00  0.00000000000E+00  0.11353808851E+04  0.11353808851E+04  0.00000000000E+00 0. -1.
         21   -1    0    0  502  503 -0.00000000000E+00 -0.00000000000E+00 -0.24741987398E+03  0.24741987398E+03  0.00000000000E+00 0. -1.
    9000007    2    1    2  501    0 -0.49688002325E+01 -0.31794987548E+03  0.26004780418E+03  0.57323803281E+03  0.39982517367E+03 0.  0.
    9000005    1    3    3    0    0  0.30753444266E+02 -0.41021001463E+03  0.22009218990E+03  0.46654003310E+03  0.99999687468E+00 0.  0.
          4    1    3    3  501    0 -0.35722244499E+02  0.92260139151E+02  0.39955614284E+02  0.10669799970E+03  0.00000000000E+00 0.  1.
   -9000007    1    1    2    0  503  0.49688002325E+01  0.31794987548E+03  0.62791320689E+03  0.80956272622E+03  0.40000000000E+03 0. -1.
<mgrwt>
<rscale>  2 0.51096169E+03</rscale>
<asrwt>0</asrwt>
<pdfrwt beam="1">  1       21 0.17467398E+00 0.51099590E+03</pdfrwt>
<pdfrwt beam="2">  1       21 0.38064597E-01 0.51099590E+03</pdfrwt>
<totfact> 0.10816803E+03</totfact>
</mgrwt>
</event>
<event>
 6    1  0.9163926E-004  0.5060979E+03  0.7818608E-02  0.1012228E+00
         21   -1    0    0  501  502  0.00000000000E+00  0.00000000000E+00  0.78223483098E+03  0.78223483098E+03  0.00000000000E+00 0. -1.
         21   -1    0    0  502  503 -0.00000000000E+00 -0.00000000000E+00 -0.34327730696E+03  0.34327730696E+03  0.00000000000E+00 0.  1.
    9000007    2    1    2  501    0  0.86288167790E+02  0.29705274455E+03  0.34153630993E+03  0.61055886443E+03  0.40056097537E+03 0.  0.
    9000005    1    3    3    0    0  0.16724295052E+03  0.10854008865E+03  0.35263681314E+03  0.40509860197E+03  0.99999687468E+00 0.  0.
          4    1    3    3  501    0 -0.80954782725E+02  0.18851265589E+03 -0.11100503212E+02  0.20546026246E+03  0.00000000000E+00 0.  1.
   -9000007    1    1    2    0  503 -0.86288167790E+02 -0.29705274455E+03  0.97421214086E+02  0.51495327351E+03  0.40000000000E+03 0. -1.
<mgrwt>
<rscale>  2 0.50598689E+03</rscale>
<asrwt>0</asrwt>
<pdfrwt beam="1">  1       21 0.12034382E+00 0.50609789E+03</pdfrwt>
<pdfrwt beam="2">  1       21 0.52811894E-01 0.50609789E+03</pdfrwt>
<totfact> 0.14934483E+03</totfact>
</mgrwt>
</event>
<event>
 6    1  0.9163926E-004  0.4081832E+03  0.7818608E-02  0.1040989E+00
         21   -1    0    0  501  502  0.00000000000E+00  0.00000000000E+00  0.40757483208E+03  0.40757483208E+03  0.00000000000E+00 0. -1.
         21   -1    0    0  502  503 -0.00000000000E+00 -0.00000000000E+00 -0.60537150833E+03  0.60537150833E+03  0.00000000000E+00 0. -1.
    9000007    2    1    2  501    0 -0.59884850822E+02  0.54459211785E+02 -0.38757170914E+03  0.56287238625E+03  0.40007685808E+03 0.  0.
    9000005    1    3    3    0    0  0.78684115332E+02 -0.51311525771E+02 -0.37667012016E+03  0.38820798820E+03  0.99999687468E+00 0.  0.
          4    1    3    3  501    0 -0.13856896615E+03  0.10577073756E+03 -0.10901588978E+02  0.17466439805E+03  0.00000000000E+00 0.  1.
   -9000007    1    1    2    0  503  0.59884850822E+02 -0.54459211785E+02  0.18977503289E+03  0.45007395416E+03  0.40000000000E+03 0. -1.
<mgrwt>
<rscale>  2 0.40816433E+03</rscale>
<asrwt>0</asrwt>
<pdfrwt beam="1">  1       21 0.62703821E-01 0.40818316E+03</pdfrwt>
<pdfrwt beam="2">  1       21 0.93134078E-01 0.40818316E+03</pdfrwt>
<totfact> 0.20052641E+03</totfact>
</mgrwt>
</event>
<event>
 6    1  0.9163926E-004  0.1129166E+04  0.7818608E-02  0.9177238E-01
         21   -1    0    0  501  502  0.00000000000E+00  0.00000000000E+00  0.46395754474E+03  0.46395754474E+03  0.00000000000E+00 0. -1.
         21   -1    0    0  502  503 -0.00000000000E+00 -0.00000000000E+00 -0.27546093019E+04  0.27546093019E+04  0.00000000000E+00 0.  1.
    9000007    2    1    2  501    0 -0.44010642029E+03  0.95977432923E+03 -0.10663133043E+04  0.15530744055E+04  0.40019448014E+03 0.  0.
    9000005    1    3    3    0    0 -0.35487215305E+03  0.64192884774E+03 -0.46752935833E+03  0.86982273566E+03  0.99999687468E+00 0.  0.
          4    1    3    3  501    0 -0.85234267244E+02  0.31784548148E+03 -0.59878394600E+03  0.68325166988E+03  0.00000000000E+00 0.  1.
   -9000007    1    1    2    0  503  0.44010642029E+03 -0.95977432923E+03 -0.12243384528E+04  0.16654924411E+04  0.40000000000E+03 0.  1.
<mgrwt>
<rscale>  2 0.11291489E+04</rscale>
<asrwt>0</asrwt>
<pdfrwt beam="1">  1       21 0.71378083E-01 0.11291661E+04</pdfrwt>
<pdfrwt beam="2">  1       21 0.42378605E+00 0.11291661E+04</pdfrwt>
<totfact> 0.56456021E+00</totfact>
</mgrwt>
</event>
<event>
 6    1  0.9163926E-004  0.4573623E+03  0.7818608E-02  0.1025563E+00
         21   -1    0    0  501  502  0.00000000000E+00  0.00000000000E+00  0.19912056587E+04  0.19912056587E+04  0.00000000000E+00 0.  1.
         21   -1    0    0  502  503 -0.00000000000E+00 -0.00000000000E+00 -0.13480949339E+03  0.13480949339E+03  0.00000000000E+00 0.  1.
    9000007    2    1    2  501    0  0.26438615409E+02 -0.21978932848E+03  0.14281438478E+04  0.14995916558E+04  0.40021735936E+03 0.  0.
    9000005    1    3    3    0    0 -0.61449266111E+02  0.65408770230E+01  0.12218778384E+02  0.63000745367E+02  0.99999687468E+00 0.  0.
          4    1    3    3  501    0  0.87887881520E+02 -0.22633020550E+03  0.14159250694E+04  0.14365909104E+04  0.00000000000E+00 0.  1.
   -9000007    1    1    2    0  503 -0.26438615409E+02  0.21978932848E+03  0.42825231753E+03  0.62642349634E+03  0.40000000000E+03 0.  1.
<mgrwt>
<rscale>  2 0.45731476E+03</rscale>
<asrwt>0</asrwt>
<pdfrwt beam="1">  1       21 0.30633931E+00 0.45736231E+03</pdfrwt>
<pdfrwt beam="2">  1       21 0.20739924E-01 0.45736231E+03</pdfrwt>
<totfact> 0.53694585E+02</totfact>
</mgrwt>
</event>
<event>
 6    1  0.9163926E-004  0.4379312E+03  0.7818608E-02  0.1031400E+00
         21   -1    0    0  501  502  0.00000000000E+00  0.00000000000E+00  0.44771264782E+03  0.44771264782E+03  0.00000000000E+00 0. -1.
         21   -1    0    0  502  503 -0.00000000000E+00 -0.00000000000E+00 -0.42834882939E+03  0.42834882939E+03  0.00000000000E+00 0. -1.
    9000007    2    1    2  501    0 -0.16657013973E+03 -0.62046634457E+02  0.19048649431E+02  0.43834524992E+03  0.40023531926E+03 0.  0.
    9000005    1    3    3    0    0 -0.23779999989E+03  0.68948583656E+02 -0.78993334128E+02  0.25989169661E+03  0.99999687468E+00 0.  0.
          4    1    3    3  501    0  0.71229860166E+02 -0.13099521811E+03  0.98041983559E+02  0.17845355331E+03  0.00000000000E+00 0.  1.
   -9000007    1    1    2    0  503  0.16657013973E+03  0.62046634457E+02  0.31516900484E+00  0.43771622728E+03  0.40000000000E+03 0. -1.
<mgrwt>
<rscale>  2 0.43787739E+03</rscale>
<asrwt>0</asrwt>
<pdfrwt beam="1">  1       21 0.68878869E-01 0.43793117E+03</pdfrwt>
<pdfrwt beam="2">  1       21 0.65899820E-01 0.43793117E+03</pdfrwt>
<totfact> 0.35641706E+03</totfact>
</mgrwt>
</event>
<event>
 6    1  0.9163926E-004  0.5064833E+03  0.7818608E-02  0.1012138E+00
         21   -1    0    0  501  502  0.00000000000E+00  0.00000000000E+00  0.31143805095E+04  0.31143805095E+04  0.00000000000E+00 0. -1.
         21   -1    0    0  502  503 -0.00000000000E+00 -0.00000000000E+00 -0.26213003397E+03  0.26213003397E+03  0.00000000000E+00 0.  1.
    9000007    2    1    2  501    0 -0.11344965985E+03 -0.28923095934E+03  0.28243053444E+04  0.28692568560E+04  0.39926038337E+03 0.  0.
    9000005    1    3    3    0    0 -0.21265275793E+03 -0.28673350705E+03  0.25944574594E+04  0.26189020234E+04  0.99999687468E+00 0.  0.
          4    1    3    3  501    0  0.99203098076E+02 -0.24974522958E+01  0.22984788506E+03  0.25035483259E+03  0.00000000000E+00 0.  1.
   -9000007    1    1    2    0  503  0.11344965985E+03  0.28923095934E+03  0.27945131128E+02  0.50725368753E+03  0.40000000000E+03 0.  1.
<mgrwt>
<rscale>  2 0.50633730E+03</rscale>
<asrwt>0</asrwt>
<pdfrwt beam="1">  1       21 0.47913544E+00 0.50648334E+03</pdfrwt>
<pdfrwt beam="2">  1       21 0.40327700E-01 0.50648334E+03</pdfrwt>
<totfact> 0.10792558E+01</totfact>
</mgrwt>
</event>
<event>
 6    1  0.9163926E-004  0.4129234E+03  0.7818608E-02  0.1040309E+00
         21   -1    0    0  501  502  0.00000000000E+00  0.00000000000E+00  0.40572227816E+03  0.40572227816E+03  0.00000000000E+00 0.  1.
         21   -1    0    0  502  503 -0.00000000000E+00 -0.00000000000E+00 -0.50639544766E+03  0.50639544766E+03  0.00000000000E+00 0.  1.
    9000007    2    1    2  501    0 -0.28019584129E+02 -0.29723208704E+02  0.14881772455E+03  0.43892191810E+03  0.41089800294E+03 0.  0.
    9000005    1    3    3    0    0  0.14713292007E+03 -0.74738727809E+02 -0.47769881353E+02  0.17180493346E+03  0.99999687468E+00 0.  0.
          4    1    3    3  501    0 -0.17515250420E+03  0.45015519105E+02  0.19658760590E+03  0.26711698464E+03  0.00000000000E+00 0.  1.
   -9000007    1    1    2    0  503  0.28019584129E+02  0.29723208704E+02 -0.24949089405E+03  0.47319580772E+03  0.40000000000E+03 0.  1.
<mgrwt>
<rscale>  2 0.41018552E+03</rscale>
<asrwt>0</asrwt>
<pdfrwt beam="1">  1       21 0.62418812E-01 0.41292340E+03</pdfrwt>
<pdfrwt beam="2">  1       21 0.77906992E-01 0.41292340E+03</pdfrwt>
<totfact> 0.30677004E+03</totfact>
</mgrwt>
</event>
<event>
 6    1  0.9163926E-004  0.4017808E+03  0.7818608E-02  0.1043215E+00
         21   -1    0    0  501  502  0.00000000000E+00  0.00000000000E+00  0.24416482529E+03  0.24416482529E+03  0.00000000000E+00 0.  1.
         21   -1    0    0  502  503 -0.00000000000E+00 -0.00000000000E+00 -0.72891957097E+03  0.72891957097E+03  0.00000000000E+00 0.  1.
    9000007    2    1    2  501    0 -0.26055104797E+02 -0.27367234873E+02 -0.92813303531E+02  0.41179487373E+03  0.39941566655E+03 0.  0.
    9000005    1    3    3    0    0 -0.11604651514E+03  0.78433549763E+02 -0.19447652836E+03  0.23966796925E+03  0.99999687468E+00 0.  0.
          4    1    3    3  501    0  0.89991410347E+02 -0.10580078464E+03  0.10166322483E+03  0.17212690449E+03  0.00000000000E+00 0.  1.
   -9000007    1    1    2    0  503  0.26055104797E+02  0.27367234873E+02 -0.39194144214E+03  0.56128952253E+03  0.40000000000E+03 0.  1.
<mgrwt>
<rscale>  2 0.40163531E+03</rscale>
<asrwt>0</asrwt>
<pdfrwt beam="1">  1       21 0.37563820E-01 0.40178083E+03</pdfrwt>
<pdfrwt beam="2">  1       21 0.11214147E+00 0.40178083E+03</pdfrwt>
<totfact> 0.37815174E+03</totfact>
</mgrwt>
</event>
<event>
 6    1  0.9163926E-004  0.5936430E+03  0.7818608E-02  0.9919213E-01
         21   -1    0    0  501  502  0.00000000000E+00  0.00000000000E+00  0.14500530450E+04  0.14500530450E+04  0.00000000000E+00 0. -1.
         21   -1    0    0  502  503 -0.00000000000E+00 -0.00000000000E+00 -0.30412219548E+03  0.30412219548E+03  0.00000000000E+00 0.  1.
    9000007    2    1    2  501    0  0.18111453379E+03 -0.39951162860E+03  0.96699689582E+03  0.11341515510E+04  0.39850310956E+03 0.  0.
    9000005    1    3    3    0    0  0.56694460347E+02 -0.27146721230E+02  0.57821797092E+03  0.58162550511E+03  0.99999687468E+00 0.  0.
          4    1    3    3  501    0  0.12442007345E+03 -0.37236490737E+03  0.38877892490E+03  0.55252604587E+03  0.00000000000E+00 0.  1.
   -9000007    1    1    2    0  503 -0.18111453379E+03  0.39951162860E+03  0.17893395370E+03  0.62002368949E+03  0.40000000000E+03 0.  1.
<mgrwt>
<rscale>  2 0.59339095E+03</rscale>
<asrwt>0</asrwt>
<pdfrwt beam="1">  1       21 0.22308508E+00 0.59364300E+03</pdfrwt>
<pdfrwt beam="2">  1       21 0.46788031E-01 0.59364300E+03</pdfrwt>
<totfact> 0.32032861E+02</totfact>
</mgrwt>
</event>
<event>
 6    1  0.9163926E-004  0.4693602E+03  0.7818608E-02  0.1022134E+00
         21   -1    0    0  501  502  0.00000000000E+00  0.00000000000E+00  0.28194153744E+03  0.28194153744E+03  0.00000000000E+00 0.  1.
         21   -1    0    0  502  503 -0.00000000000E+00 -0.00000000000E+00 -0.85706891287E+03  0.85706891287E+03  0.00000000000E+00 0.  1.
    9000007    2    1    2  501    0  0.18333885053E+03  0.16199511302E+03 -0.11755958870E+03  0.48385868911E+03  0.40055389572E+03 0.  0.
    9000005    1    3    3    0    0 -0.23701357196E+02  0.16538239963E+03 -0.20033361969E+03  0.26085944801E+03  0.99999687468E+00 0.  0.
          4    1    3    3  501    0  0.20704020772E+03 -0.33872866183E+01  0.82774030996E+02  0.22299924110E+03  0.00000000000E+00 0.  1.
   -9000007    1    1    2    0  503 -0.18333885053E+03 -0.16199511302E+03 -0.45756778673E+03  0.65515176120E+03  0.40000000000E+03 0.  1.
<mgrwt>
<rscale>  2 0.46924198E+03</rscale>
<asrwt>0</asrwt>
<pdfrwt beam="1">  1       21 0.43375621E-01 0.46936018E+03</pdfrwt>
<pdfrwt beam="2">  1       21 0.13185675E+00 0.46936018E+03</pdfrwt>
<totfact> 0.18136097E+03</totfact>
</mgrwt>
</event>
<event>
 6    1  0.9163926E-004  0.5594523E+03  0.7818608E-02  0.9993378E-01
         21   -1    0    0  501  502  0.00000000000E+00  0.00000000000E+00  0.20520006686E+04  0.20520006686E+04  0.00000000000E+00 0. -1.
         21   -1    0    0  502  503 -0.00000000000E+00 -0.00000000000E+00 -0.18266741164E+03  0.18266741164E+03  0.00000000000E+00 0. -1.
    9000007    2    1    2  501    0 -0.17595392528E+03 -0.34908655904E+03  0.48060580447E+03  0.73754245197E+03  0.40020709593E+03 0.  0.
    9000005    1    3    3    0    0 -0.28067258823E+03 -0.34961054979E+03  0.43008870217E+03  0.62127444019E+03  0.99999687468E+00 0.  0.
          4    1    3    3  501    0  0.10471866295E+03  0.52399075212E+00  0.50517102305E+02  0.11626801177E+03  0.00000000000E+00 0.  1.
   -9000007    1    1    2    0  503  0.17595392528E+03  0.34908655904E+03  0.13887274525E+04  0.14971256282E+04  0.40000000000E+03 0. -1.
<mgrwt>
<rscale>  2 0.55941531E+03</rscale>
<asrwt>0</asrwt>
<pdfrwt beam="1">  1       21 0.31569239E+00 0.55945235E+03</pdfrwt>
<pdfrwt beam="2">  1       21 0.28102680E-01 0.55945235E+03</pdfrwt>
<totfact> 0.24761029E+02</totfact>
</mgrwt>
</event>
<event>
 6    1  0.9163926E-004  0.4439092E+03  0.7818608E-02  0.1029623E+00
         21   -1    0    0  501  502  0.00000000000E+00  0.00000000000E+00  0.12214668090E+04  0.12214668090E+04  0.00000000000E+00 0. -1.
         21   -1    0    0  502  503 -0.00000000000E+00 -0.00000000000E+00 -0.17712487138E+03  0.17712487138E+03  0.00000000000E+00 0. -1.
    9000007    2    1    2  501    0  0.14593973738E+03  0.12552681072E+03  0.73269898728E+03  0.85621108002E+03  0.39899150420E+03 0.  0.
    9000005    1    3    3    0    0  0.16092378244E+03 -0.44231374605E+02  0.86620337213E+02  0.18803446776E+03  0.99999687468E+00 0.  0.
          4    1    3    3  501    0 -0.14984045056E+02  0.16975818533E+03  0.64607865007E+03  0.66817661226E+03  0.00000000000E+00 0.  1.
   -9000007    1    1    2    0  503 -0.14593973738E+03 -0.12552681072E+03  0.31164295033E+03  0.54238060036E+03  0.40000000000E+03 0.  1.
<mgrwt>
<rscale>  2 0.44368190E+03</rscale>
<asrwt>0</asrwt>
<pdfrwt beam="1">  1       21 0.18791797E+00 0.44390921E+03</pdfrwt>
<pdfrwt beam="2">  1       21 0.27249981E-01 0.44390921E+03</pdfrwt>
<totfact> 0.17538351E+03</totfact>
</mgrwt>
</event>
<event>
 6    1  0.9163926E-004  0.4197000E+03  0.7818608E-02  0.1037198E+00
         21   -1    0    0  501  502  0.00000000000E+00  0.00000000000E+00  0.20380532285E+03  0.20380532285E+03  0.00000000000E+00 0.  1.
         21   -1    0    0  502  503 -0.00000000000E+00 -0.00000000000E+00 -0.87071469453E+03  0.87071469453E+03  0.00000000000E+00 0. -1.
    9000007    2    1    2  501    0  0.11317949125E+03 -0.54693225509E+02 -0.28452308499E+03  0.50705176417E+03  0.40043371424E+03 0.  0.
    9000005    1    3    3    0    0  0.61403737106E+02 -0.22064304085E+03 -0.89760331448E+02  0.24599123461E+03  0.99999687468E+00 0.  0.
          4    1    3    3  501    0  0.51775754147E+02  0.16594981534E+03 -0.19476275354E+03  0.26106052957E+03  0.00000000000E+00 0.  1.
   -9000007    1    1    2    0  503 -0.11317949125E+03  0.54693225509E+02 -0.38238628669E+03  0.56746825321E+03  0.40000000000E+03 0.  1.
<mgrwt>
<rscale>  2 0.41959653E+03</rscale>
<asrwt>0</asrwt>
<pdfrwt beam="1">  1       21 0.31354665E-01 0.41970002E+03</pdfrwt>
<pdfrwt beam="2">  1       21 0.13395611E+00 0.41970002E+03</pdfrwt>
<totfact> 0.34367249E+03</totfact>
</mgrwt>
</event>
<event>
 6    1  0.9163926E-004  0.4220545E+03  0.7818608E-02  0.1036581E+00
         21   -1    0    0  501  502  0.00000000000E+00  0.00000000000E+00  0.77319505666E+02  0.77319505666E+02  0.00000000000E+00 0. -1.
         21   -1    0    0  502  503 -0.00000000000E+00 -0.00000000000E+00 -0.23882697311E+04  0.23882697311E+04  0.00000000000E+00 0. -1.
    9000007    2    1    2  501    0 -0.14764167414E+01 -0.12747316223E+03 -0.91045894606E+03  0.10035265122E+04  0.40234112563E+03 0.  0.
    9000005    1    3    3    0    0  0.68721881148E+02  0.11844171924E+03 -0.15951951766E+03  0.21023466487E+03  0.99999687468E+00 0.  0.
          4    1    3    3  501    0 -0.70198297889E+02 -0.24591488147E+03 -0.75093942839E+03  0.79329184735E+03  0.00000000000E+00 0.  1.
   -9000007    1    1    2    0  503  0.14764167414E+01  0.12747316223E+03 -0.14004912793E+04  0.14620627245E+04  0.40000000000E+03 0. -1.
<mgrwt>
<rscale>  2 0.42149556E+03</rscale>
<asrwt>0</asrwt>
<pdfrwt beam="1">  1       21 0.11895307E-01 0.42205446E+03</pdfrwt>
<pdfrwt beam="2">  1       21 0.36742616E+00 0.42205446E+03</pdfrwt>
<totfact> 0.65575145E+02</totfact>
</mgrwt>
</event>
<event>
 6    1  0.9163926E-004  0.5183248E+03  0.7818608E-02  0.1009114E+00
         21   -1    0    0  501  502  0.00000000000E+00  0.00000000000E+00  0.34025935999E+03  0.34025935999E+03  0.00000000000E+00 0.  1.
         21   -1    0    0  502  503 -0.00000000000E+00 -0.00000000000E+00 -0.88381221694E+03  0.88381221694E+03  0.00000000000E+00 0.  1.
    9000007    2    1    2  501    0  0.31023250425E+03 -0.11068405305E+03 -0.71705278926E+02  0.52326111527E+03  0.40020667339E+03 0.  0.
    9000005    1    3    3    0    0 -0.64104136413E+02 -0.10657094544E+03  0.43209424923E+02  0.13166153999E+03  0.99999687468E+00 0.  0.
          4    1    3    3  501    0  0.37433664066E+03 -0.41131076183E+01 -0.11491470385E+03  0.39159957528E+03  0.00000000000E+00 0.  1.
   -9000007    1    1    2    0  503 -0.31023250425E+03  0.11068405305E+03 -0.47184757802E+03  0.70081046166E+03  0.40000000000E+03 0.  1.
<mgrwt>
<rscale>  2 0.51828486E+03</rscale>
<asrwt>0</asrwt>
<pdfrwt beam="1">  1       21 0.52347593E-01 0.51832475E+03</pdfrwt>
<pdfrwt beam="2">  1       21 0.13597111E+00 0.51832475E+03</pdfrwt>
<totfact> 0.11039571E+03</totfact>
</mgrwt>
</event>
<event>
 6    1  0.9163926E-004  0.7018170E+03  0.7818608E-02  0.9714141E-01
         21   -1    0    0  501  502  0.00000000000E+00  0.00000000000E+00  0.46499304178E+03  0.46499304178E+03  0.00000000000E+00 0. -1.
         21   -1    0    0  502  503 -0.00000000000E+00 -0.00000000000E+00 -0.10643924462E+04  0.10643924462E+04  0.00000000000E+00 0.  1.
    9000007    2    1    2  501    0  0.28017479327E+03  0.50403290470E+03 -0.24637003168E+03  0.74377946598E+03  0.39995326939E+03 0.  0.
    9000005    1    3    3    0    0  0.10184677161E+03  0.11223557151E+03  0.10808708183E+03  0.18615425231E+03  0.99999687468E+00 0.  0.
          4    1    3    3  501    0  0.17832802166E+03  0.39179733319E+03 -0.35445711351E+03  0.55762521367E+03  0.00000000000E+00 0.  1.
   -9000007    1    1    2    0  503 -0.28017479327E+03 -0.50403290470E+03 -0.35302937274E+03  0.78560602201E+03  0.40000000000E+03 0.  1.
<mgrwt>
<rscale>  2 0.70181033E+03</rscale>
<asrwt>0</asrwt>
<pdfrwt beam="1">  1       21 0.71537391E-01 0.70181699E+03</pdfrwt>
<pdfrwt beam="2">  1       21 0.16375268E+00 0.70181699E+03</pdfrwt>
<totfact> 0.31251421E+02</totfact>
</mgrwt>
</event>
<event>
 6    1  0.9163926E-004  0.4214522E+03  0.7818608E-02  0.1036598E+00
         21   -1    0    0  501  502  0.00000000000E+00  0.00000000000E+00  0.11337729201E+04  0.11337729201E+04  0.00000000000E+00 0. -1.
         21   -1    0    0  502  503 -0.00000000000E+00 -0.00000000000E+00 -0.18421937287E+03  0.18421937287E+03  0.00000000000E+00 0. -1.
    9000007    2    1    2  501    0  0.11502163738E+03 -0.66271823079E+02  0.72969573899E+03  0.84264043654E+03  0.39995637535E+03 0.  0.
    9000005    1    3    3    0    0 -0.24595480690E+02 -0.33325215265E+02  0.69344182891E+03  0.69467839877E+03  0.99999687468E+00 0.  0.
          4    1    3    3  501    0  0.13961711807E+03 -0.32946607813E+02  0.36253910086E+02  0.14796203777E+03  0.00000000000E+00 0.  1.
   -9000007    1    1    2    0  503 -0.11502163738E+03  0.66271823079E+02  0.21985780828E+03  0.47535185648E+03  0.40000000000E+03 0. -1.
<mgrwt>
<rscale>  2 0.42144182E+03</rscale>
<asrwt>0</asrwt>
<pdfrwt beam="1">  1       21 0.17442660E+00 0.42145217E+03</pdfrwt>
<pdfrwt beam="2">  1       21 0.28341443E-01 0.42145217E+03</pdfrwt>
<totfact> 0.20384012E+03</totfact>
</mgrwt>
</event>
<event>
 6    1  0.9163926E-004  0.4749199E+03  0.7818608E-02  0.1020550E+00
         21   -1    0    0  501  502  0.00000000000E+00  0.00000000000E+00  0.78101749139E+03  0.78101749139E+03  0.00000000000E+00 0. -1.
         21   -1    0    0  502  503 -0.00000000000E+00 -0.00000000000E+00 -0.29633066739E+03  0.29633066739E+03  0.00000000000E+00 0.  1.
    9000007    2    1    2  501    0 -0.14397912628E+03  0.21139739301E+03  0.32878825553E+03  0.57762502521E+03  0.40016259970E+03 0.  0.
    9000005    1    3    3    0    0 -0.24590531815E+03  0.14070944949E+03  0.71811227269E+02  0.29227799614E+03  0.99999687468E+00 0.  0.
          4    1    3    3  501    0  0.10192619187E+03  0.70687943517E+02  0.25697702826E+03  0.28534702907E+03  0.00000000000E+00 0.  1.
   -9000007    1    1    2    0  503  0.14397912628E+03 -0.21139739301E+03  0.15589856847E+03  0.49972313357E+03  0.40000000000E+03 0.  1.
<mgrwt>
<rscale>  2 0.47488569E+03</rscale>
<asrwt>0</asrwt>
<pdfrwt beam="1">  1       21 0.12015654E+00 0.47491994E+03</pdfrwt>
<pdfrwt beam="2">  1       21 0.45589334E-01 0.47491994E+03</pdfrwt>
<totfact> 0.20724677E+03</totfact>
</mgrwt>
</event>
<event>
 6    1  0.9163926E-004  0.5892924E+03  0.7818608E-02  0.9928171E-01
         21   -1    0    0  501  502  0.00000000000E+00  0.00000000000E+00  0.16902970597E+04  0.16902970597E+04  0.00000000000E+00 0. -1.
         21   -1    0    0  502  503 -0.00000000000E+00 -0.00000000000E+00 -0.33054254215E+03  0.33054254215E+03  0.00000000000E+00 0.  1.
    9000007    2    1    2  501    0  0.37868173294E+03  0.20785881435E+03  0.13021619875E+04  0.14292975145E+04  0.40082465213E+03 0.  0.
    9000005    1    3    3    0    0  0.20532766095E+03  0.15651772580E+02  0.10425773458E+04  0.10627196000E+04  0.99999687468E+00 0.  0.
          4    1    3    3  501    0  0.17335407199E+03  0.19220704177E+03  0.25958464172E+03  0.36657791450E+03  0.00000000000E+00 0.  1.
   -9000007    1    1    2    0  503 -0.37868173294E+03 -0.20785881435E+03  0.57592530057E+02  0.59154208733E+03  0.40000000000E+03 0.  1.
<mgrwt>
<rscale>  2 0.58915221E+03</rscale>
<asrwt>0</asrwt>
<pdfrwt beam="1">  1       21 0.26004570E+00 0.58929241E+03</pdfrwt>
<pdfrwt beam="2">  1       21 0.50852700E-01 0.58929241E+03</pdfrwt>
<totfact> 0.15741341E+02</totfact>
</mgrwt>
</event>
<event>
 6    1  0.9163926E-004  0.4859324E+03  0.7818608E-02  0.1017544E+00
         21   -1    0    0  501  502  0.00000000000E+00  0.00000000000E+00  0.47223328590E+03  0.47223328590E+03  0.00000000000E+00 0. -1.
         21   -1    0    0  502  503 -0.00000000000E+00 -0.00000000000E+00 -0.97080967340E+03  0.97080967340E+03  0.00000000000E+00 0. -1.
    9000007    2    1    2  501    0 -0.17485243321E+03 -0.21344074851E+03  0.25342387097E+03  0.54770240104E+03  0.39952964247E+03 0.  0.
    9000005    1    3    3    0    0 -0.19003994280E+03 -0.12415690509E+03  0.34880839854E+03  0.41617113767E+03  0.99999687468E+00 0.  0.
          4    1    3    3  501    0  0.15187509594E+02 -0.89283843418E+02 -0.95384527579E+02  0.13153126337E+03  0.00000000000E+00 0.  1.
   -9000007    1    1    2    0  503  0.17485243321E+03  0.21344074851E+03 -0.75200025846E+03  0.89534055825E+03  0.40000000000E+03 0. -1.
<mgrwt>
<rscale>  2 0.48583562E+03</rscale>
<asrwt>0</asrwt>
<pdfrwt beam="1">  1       21 0.72651275E-01 0.48593243E+03</pdfrwt>
<pdfrwt beam="2">  1       21 0.14935533E+00 0.48593243E+03</pdfrwt>
<totfact> 0.42142337E+02</totfact>
</mgrwt>
</event>
<event>
 6    1  0.9163926E-004  0.4885155E+03  0.7818608E-02  0.1016824E+00
         21   -1    0    0  501  502  0.00000000000E+00  0.00000000000E+00  0.75376908898E+03  0.75376908898E+03  0.00000000000E+00 0. -1.
         21   -1    0    0  502  503 -0.00000000000E+00 -0.00000000000E+00 -0.34453120857E+03  0.34453120857E+03  0.00000000000E+00 0. -1.
    9000007    2    1    2  501    0 -0.27072124849E+03 -0.73194515229E+02  0.36105219922E+03  0.60741406703E+03  0.39993215278E+03 0.  0.
    9000005    1    3    3    0    0 -0.18280342019E+03  0.39164000447E+01  0.43306030896E+03  0.47007941862E+03  0.99999687468E+00 0.  0.
          4    1    3    3  501    0 -0.87917828294E+02 -0.77110915274E+02 -0.72008109739E+02  0.13733464841E+03  0.00000000000E+00 0.  1.
   -9000007    1    1    2    0  503  0.27072124849E+03  0.73194515229E+02  0.48185681187E+02  0.49088623052E+03  0.40000000000E+03 0. -1.
<mgrwt>
<rscale>  2 0.48850165E+03</rscale>
<asrwt>0</asrwt>
<pdfrwt beam="1">  1       21 0.11596447E+00 0.48851554E+03</pdfrwt>
<pdfrwt beam="2">  1       21 0.53004801E-01 0.48851554E+03</pdfrwt>
<totfact> 0.16377511E+03</totfact>
</mgrwt>
</event>
<event>
 6    1  0.9163926E-004  0.4360154E+03  0.7818608E-02  0.1031979E+00
         21   -1    0    0  501  502  0.00000000000E+00  0.00000000000E+00  0.60165705237E+02  0.60165705237E+02  0.00000000000E+00 0.  1.
         21   -1    0    0  502  503 -0.00000000000E+00 -0.00000000000E+00 -0.35594836170E+04  0.35594836170E+04  0.00000000000E+00 0.  1.
    9000007    2    1    2  501    0  0.15090234223E+03  0.85508614766E+02 -0.11430617040E+04  0.12233967152E+04  0.40003277807E+03 0.  0.
    9000005    1    3    3    0    0  0.14518030967E+03  0.39924705773E+02 -0.11634364944E+04  0.11731397107E+04  0.99999687468E+00 0.  0.
          4    1    3    3  501    0  0.57220325586E+01  0.45583908993E+02  0.20374790380E+02  0.50257004474E+02  0.00000000000E+00 0.  1.
   -9000007    1    1    2    0  503 -0.15090234223E+03 -0.85508614766E+02 -0.23562562078E+04  0.23962526070E+04  0.40000000000E+03 0.  1.
<mgrwt>
<rscale>  2 0.43600792E+03</rscale>
<asrwt>0</asrwt>
<pdfrwt beam="1">  1       21 0.92562608E-02 0.43601544E+03</pdfrwt>
<pdfrwt beam="2">  1       21 0.54761296E+00 0.43601544E+03</pdfrwt>
<totfact> 0.60185259E+01</totfact>
</mgrwt>
</event>
<event>
 6    1  0.9163926E-004  0.4379682E+03  0.7818608E-02  0.1031378E+00
         21   -1    0    0  501  502  0.00000000000E+00  0.00000000000E+00  0.29971548100E+03  0.29971548100E+03  0.00000000000E+00 0.  1.
         21   -1    0    0  502  503 -0.00000000000E+00 -0.00000000000E+00 -0.64491271414E+03  0.64491271414E+03  0.00000000000E+00 0. -1.
    9000007    2    1    2  501    0 -0.44179583196E+02  0.17263199253E+03 -0.21429562500E+03  0.48758457422E+03  0.40007806952E+03 0.  0.
    9000005    1    3    3    0    0 -0.12068521961E+03  0.27905311675E+03 -0.17477352259E+03  0.35068839215E+03  0.99999687468E+00 0.  0.
          4    1    3    3  501    0  0.76505636419E+02 -0.10642112422E+03 -0.39522102419E+02  0.13689618207E+03  0.00000000000E+00 0.  1.
   -9000007    1    1    2    0  503  0.44179583196E+02 -0.17263199253E+03 -0.13090160813E+03  0.45704362092E+03  0.40000000000E+03 0.  1.
<mgrwt>
<rscale>  2 0.43795032E+03</rscale>
<asrwt>0</asrwt>
<pdfrwt beam="1">  1       21 0.46110074E-01 0.43796815E+03</pdfrwt>
<pdfrwt beam="2">  1       21 0.99217340E-01 0.43796815E+03</pdfrwt>
<totfact> 0.32977517E+03</totfact>
</mgrwt>
</event>
<event>
 6    1  0.9163926E-004  0.4174422E+03  0.7818608E-02  0.1037931E+00
         21   -1    0    0  501  502  0.00000000000E+00  0.00000000000E+00  0.27518810510E+03  0.27518810510E+03  0.00000000000E+00 0. -1.
         21   -1    0    0  502  503 -0.00000000000E+00 -0.00000000000E+00 -0.13959826770E+04  0.13959826770E+04  0.00000000000E+00 0. -1.
    9000007    2    1    2  501    0 -0.11339684220E+03 -0.37404993123E+02  0.57574996896E+02  0.42104566116E+03  0.39963307068E+03 0.  0.
    9000005    1    3    3    0    0 -0.38978088842E+02  0.47736700467E+02  0.21700247516E+03  0.22558625446E+03  0.99999687468E+00 0.  0.
          4    1    3    3  501    0 -0.74418753359E+02 -0.85141693589E+02 -0.15942747827E+03  0.19545940670E+03  0.00000000000E+00 0.  1.
   -9000007    1    1    2    0  503  0.11339684220E+03  0.37404993123E+02 -0.11783695688E+04  0.12501251210E+04  0.40000000000E+03 0. -1.
<mgrwt>
<rscale>  2 0.41735426E+03</rscale>
<asrwt>0</asrwt>
<pdfrwt beam="1">  1       21 0.42336630E-01 0.41744218E+03</pdfrwt>
<pdfrwt beam="2">  1       21 0.21476657E+00 0.41744218E+03</pdfrwt>
<totfact> 0.48464227E+02</totfact>
</mgrwt>
</event>
<event>
 6    1  0.9163926E-004  0.4751425E+03  0.7818608E-02  0.1020787E+00
         21   -1    0    0  501  502  0.00000000000E+00  0.00000000000E+00  0.11591476720E+03  0.11591476720E+03  0.00000000000E+00 0. -1.
         21   -1    0    0  502  503 -0.00000000000E+00 -0.00000000000E+00 -0.23550322497E+04  0.23550322497E+04  0.00000000000E+00 0. -1.
    9000007    2    1    2  501    0 -0.25614831153E+03 -0.12182899569E+02 -0.59018527605E+03  0.75492318199E+03  0.39475304950E+03 0.  0.
    9000005    1    3    3    0    0 -0.31522597071E+03 -0.12401249813E+03 -0.37518284623E+03  0.50547965380E+03  0.99999687468E+00 0.  0.
          4    1    3    3  501    0  0.59077659176E+02  0.11182959856E+03 -0.21500242982E+03  0.24944352819E+03  0.00000000000E+00 0.  1.
   -9000007    1    1    2    0  503  0.25614831153E+03  0.12182899569E+02 -0.16489322065E+04  0.17160238349E+04  0.40000000000E+03 0. -1.
<mgrwt>
<rscale>  2 0.47403647E+03</rscale>
<asrwt>0</asrwt>
<pdfrwt beam="1">  1       21 0.17833042E-01 0.47514248E+03</pdfrwt>
<pdfrwt beam="2">  1       21 0.36231264E+00 0.47514248E+03</pdfrwt>
<totfact> 0.32263397E+02</totfact>
</mgrwt>
</event>
<event>
 6    1  0.9163926E-004  0.4181680E+03  0.7818608E-02  0.1037696E+00
         21   -1    0    0  501  502  0.00000000000E+00  0.00000000000E+00  0.18406485725E+03  0.18406485725E+03  0.00000000000E+00 0. -1.
         21   -1    0    0  502  503 -0.00000000000E+00 -0.00000000000E+00 -0.11946378001E+04  0.11946378001E+04  0.00000000000E+00 0. -1.
    9000007    2    1    2  501    0 -0.10931236412E+03 -0.53993037109E+02 -0.19260031433E+03  0.46003859360E+03  0.39959502690E+03 0.  0.
    9000005    1    3    3    0    0 -0.15524068770E+03  0.13794483044E+03 -0.15497699315E+03  0.25912799108E+03  0.99999687468E+00 0.  0.
          4    1    3    3  501    0  0.45928323583E+02 -0.19193786755E+03 -0.37623321185E+02  0.20091060252E+03  0.00000000000E+00 0.  1.
   -9000007    1    1    2    0  503  0.10931236412E+03  0.53993037109E+02 -0.81797262848E+03  0.91866406371E+03  0.40000000000E+03 0. -1.
<mgrwt>
<rscale>  2 0.41807108E+03</rscale>
<asrwt>0</asrwt>
<pdfrwt beam="1">  1       21 0.28317671E-01 0.41816796E+03</pdfrwt>
<pdfrwt beam="2">  1       21 0.18379043E+00 0.41816796E+03</pdfrwt>
<totfact> 0.17562390E+03</totfact>
</mgrwt>
</event>
<event>
 6    1  0.9163926E-004  0.7219172E+03  0.7818608E-02  0.9680880E-01
         21   -1    0    0  501  502  0.00000000000E+00  0.00000000000E+00  0.35828928086E+03  0.35828928086E+03  0.00000000000E+00 0.  1.
         21   -1    0    0  502  503 -0.00000000000E+00 -0.00000000000E+00 -0.20483638640E+04  0.20483638640E+04  0.00000000000E+00 0.  1.
    9000007    2    1    2  501    0 -0.55602036304E+03  0.22804777043E+03 -0.14935938740E+04  0.16584759608E+04  0.39819018348E+03 0.  0.
    9000005    1    3    3    0    0 -0.10877286657E+03 -0.10846609810E+03 -0.42974676604E+03  0.45637672361E+03  0.99999687468E+00 0.  0.
          4    1    3    3  501    0 -0.44724749647E+03  0.33651386853E+03 -0.10638471080E+04  0.12020992371E+04  0.00000000000E+00 0.  1.
   -9000007    1    1    2    0  503  0.55602036304E+03 -0.22804777043E+03 -0.19648070909E+03  0.74817718407E+03  0.40000000000E+03 0.  1.
<mgrwt>
<rscale>  2 0.72166676E+03</rscale>
<asrwt>0</asrwt>
<pdfrwt beam="1">  1       21 0.55121428E-01 0.72191719E+03</pdfrwt>
<pdfrwt beam="2">  1       21 0.31513290E+00 0.72191719E+03</pdfrwt>
<totfact> 0.57459079E+01</totfact>
</mgrwt>
</event>
<event>
 6    1  0.9163926E-004  0.4347860E+03  0.7818608E-02  0.1032396E+00
         21   -1    0    0  501  502  0.00000000000E+00  0.00000000000E+00  0.33353392742E+03  0.33353392742E+03  0.00000000000E+00 0.  1.
         21   -1    0    0  502  503 -0.00000000000E+00 -0.00000000000E+00 -0.57252377268E+03  0.57252377268E+03  0.00000000000E+00 0.  1.
    9000007    2    1    2  501    0 -0.76874101471E+02  0.15069170515E+03 -0.71737787153E+02  0.44066445947E+03  0.40052620171E+03 0.  0.
    9000005    1    3    3    0    0  0.20104323310E+02 -0.65428423343E+02 -0.17072117698E+03  0.18393418024E+03  0.99999687468E+00 0.  0.
          4    1    3    3  501    0 -0.96978424781E+02  0.21612012850E+03  0.98983389827E+02  0.25673027923E+03  0.00000000000E+00 0.  1.
   -9000007    1    1    2    0  503  0.76874101471E+02 -0.15069170515E+03 -0.16725205811E+03  0.46539324063E+03  0.40000000000E+03 0. -1.
<mgrwt>
<rscale>  2 0.43466477E+03</rscale>
<asrwt>0</asrwt>
<pdfrwt beam="1">  1       21 0.51312912E-01 0.43478599E+03</pdfrwt>
<pdfrwt beam="2">  1       21 0.88080579E-01 0.43478599E+03</pdfrwt>
<totfact> 0.34980165E+03</totfact>
</mgrwt>
</event>
<event>
 6    1  0.9163926E-004  0.4084813E+03  0.7818608E-02  0.1041334E+00
         21   -1    0    0  501  502  0.00000000000E+00  0.00000000000E+00  0.11860508641E+04  0.11860508641E+04  0.00000000000E+00 0.  1.
         21   -1    0    0  502  503 -0.00000000000E+00 -0.00000000000E+00 -0.15252604534E+03  0.15252604534E+03  0.00000000000E+00 0.  1.
    9000007    2    1    2  501    0 -0.48715001629E+02 -0.12576176698E+02  0.72023472386E+03  0.82800664478E+03  0.40537098409E+03 0.  0.
    9000005    1    3    3    0    0  0.23629536270E+02  0.19030646903E+03  0.30621195785E+03  0.36130550821E+03  0.99999687468E+00 0.  0.
          4    1    3    3  501    0 -0.72344537899E+02 -0.20288264573E+03  0.41402276601E+03  0.46670113657E+03  0.00000000000E+00 0.  1.
   -9000007    1    1    2    0  503  0.48715001629E+02  0.12576176698E+02  0.31329009491E+03  0.51057026468E+03  0.40000000000E+03 0.  1.
<mgrwt>
<rscale>  2 0.40714231E+03</rscale>
<asrwt>0</asrwt>
<pdfrwt beam="1">  1       21 0.18246936E+00 0.40848127E+03</pdfrwt>
<pdfrwt beam="2">  1       21 0.23465546E-01 0.40848127E+03</pdfrwt>
<totfact> 0.25987519E+03</totfact>
</mgrwt>
</event>
<event>
 6    1  0.9163926E-004  0.4253960E+03  0.7818608E-02  0.1035429E+00
         21   -1    0    0  501  502  0.00000000000E+00  0.00000000000E+00  0.10099491143E+04  0.10099491143E+04  0.00000000000E+00 0.  1.
         21   -1    0    0  502  503 -0.00000000000E+00 -0.00000000000E+00 -0.25158657427E+03  0.25158657427E+03  0.00000000000E+00 0.  1.
    9000007    2    1    2  501    0 -0.12436912941E+03  0.74121975074E+02  0.39088890109E+02  0.42588245247E+03  0.39860528654E+03 0.  0.
    9000005    1    3    3    0    0 -0.18970172745E+03  0.54228664282E+02  0.18140836207E+03  0.26802516160E+03  0.99999687468E+00 0.  0.
          4    1    3    3  501    0  0.65332598044E+02  0.19893310792E+02 -0.14231947196E+03  0.15785729087E+03  0.00000000000E+00 0.  1.
   -9000007    1    1    2    0  503  0.12436912941E+03 -0.74121975074E+02  0.71927364994E+03  0.83565323612E+03  0.40000000000E+03 0.  1.
<mgrwt>
<rscale>  2 0.42506781E+03</rscale>
<asrwt>0</asrwt>
<pdfrwt beam="1">  1       21 0.15537679E+00 0.42539599E+03</pdfrwt>
<pdfrwt beam="2">  1       21 0.38705627E-01 0.42539599E+03</pdfrwt>
<totfact> 0.15060351E+03</totfact>
</mgrwt>
</event>
<event>
 6    1  0.9163926E-004  0.4223080E+03  0.7818608E-02  0.1036333E+00
         21   -1    0    0  501  502  0.00000000000E+00  0.00000000000E+00  0.14757545595E+04  0.14757545595E+04  0.00000000000E+00 0. -1.
         21   -1    0    0  502  503 -0.00000000000E+00 -0.00000000000E+00 -0.19123045336E+03  0.19123045336E+03  0.00000000000E+00 0. -1.
    9000007    2    1    2  501    0 -0.13324986758E+03 -0.20649150479E+02  0.11482028572E+04  0.12234025543E+04  0.40020256620E+03 0.  0.
    9000005    1    3    3    0    0 -0.22456169196E+03  0.11293497646E+03  0.81687179683E+03  0.85467116182E+03  0.99999687468E+00 0.  0.
          4    1    3    3  501    0  0.91311824380E+02 -0.13358412694E+03  0.33133106040E+03  0.36873139251E+03  0.00000000000E+00 0.  1.
   -9000007    1    1    2    0  503  0.13324986758E+03  0.20649150479E+02  0.13632124896E+03  0.44358245856E+03  0.40000000000E+03 0. -1.
<mgrwt>
<rscale>  2 0.42225996E+03</rscale>
<asrwt>0</asrwt>
<pdfrwt beam="1">  1       21 0.22703916E+00 0.42230795E+03</pdfrwt>
<pdfrwt beam="2">  1       21 0.29420071E-01 0.42230795E+03</pdfrwt>
<totfact> 0.84362565E+02</totfact>
</mgrwt>
</event>
<event>
 6    1  0.9163926E-004  0.4595194E+03  0.7818608E-02  0.1024950E+00
         21   -1    0    0  501  502  0.00000000000E+00  0.00000000000E+00  0.21014997851E+03  0.21014997851E+03  0.00000000000E+00 0.  1.
         21   -1    0    0  502  503 -0.00000000000E+00 -0.00000000000E+00 -0.21784155808E+04  0.21784155808E+04  0.00000000000E+00 0.  1.
    9000007    2    1    2  501    0  0.11137307173E+03 -0.19591045528E+03 -0.10740416069E+03  0.47190435492E+03  0.40046622688E+03 0.  0.
    9000005    1    3    3    0    0  0.58716065550E+02 -0.27223353552E+03 -0.19843844181E+03  0.34196123961E+03  0.99999687468E+00 0.  0.
          4    1    3    3  501    0  0.52657006180E+02  0.76323080246E+02  0.91034281119E+02  0.12994311531E+03  0.00000000000E+00 0.  1.
   -9000007    1    1    2    0  503 -0.11137307173E+03  0.19591045528E+03 -0.18608614416E+04  0.19166612044E+04  0.40000000000E+03 0.  1.
<mgrwt>
<rscale>  2 0.45941779E+03</rscale>
<asrwt>0</asrwt>
<pdfrwt beam="1">  1       21 0.32330767E-01 0.45951939E+03</pdfrwt>
<pdfrwt beam="2">  1       21 0.33514085E+00 0.45951939E+03</pdfrwt>
<totfact> 0.15071918E+02</totfact>
</mgrwt>
</event>
<event>
 6    1  0.9163926E-004  0.4259708E+03  0.7818608E-02  0.1035232E+00
         21   -1    0    0  501  502  0.00000000000E+00  0.00000000000E+00  0.16534591845E+04  0.16534591845E+04  0.00000000000E+00 0.  1.
         21   -1    0    0  502  503 -0.00000000000E+00 -0.00000000000E+00 -0.29877977170E+03  0.29877977170E+03  0.00000000000E+00 0. -1.
    9000007    2    1    2  501    0  0.13180494349E+03  0.63863653004E+02  0.14540429348E+04  0.15148327162E+04  0.39878088277E+03 0.  0.
    9000005    1    3    3    0    0 -0.12571540192E+03 -0.57966497460E+02  0.53702503976E+03  0.55458215841E+03  0.99999687468E+00 0.  0.
          4    1    3    3  501    0  0.25752034541E+03  0.12183015046E+03  0.91701789508E+03  0.96025055780E+03  0.00000000000E+00 0.  1.
   -9000007    1    1    2    0  503 -0.13180494349E+03 -0.63863653004E+02 -0.99363522005E+02  0.43740624002E+03  0.40000000000E+03 0. -1.
<mgrwt>
<rscale>  2 0.42568435E+03</rscale>
<asrwt>0</asrwt>
<pdfrwt beam="1">  1       21 0.25437833E+00 0.42597078E+03</pdfrwt>
<pdfrwt beam="2">  1       21 0.45966120E-01 0.42597078E+03</pdfrwt>
<totfact> 0.22983047E+02</totfact>
</mgrwt>
</event>
<event>
 6    1  0.9163926E-004  0.4997123E+03  0.7818608E-02  0.1013879E+00
         21   -1    0    0  501  502  0.00000000000E+00  0.00000000000E+00  0.14111393378E+04  0.14111393378E+04  0.00000000000E+00 0. -1.
         21   -1    0    0  502  503 -0.00000000000E+00 -0.00000000000E+00 -0.17772868740E+03  0.17772868740E+03  0.00000000000E+00 0. -1.
    9000007    2    1    2  501    0 -0.27201141471E+03 -0.12538821167E+03  0.55968706601E+03  0.75004987952E+03  0.39951570250E+03 0.  0.
    9000005    1    3    3    0    0 -0.98788588950E+02 -0.26099674944E+03  0.30079894673E+03  0.41031633513E+03  0.99999687468E+00 0.  0.
          4    1    3    3  501    0 -0.17322282576E+03  0.13560853777E+03  0.25888811928E+03  0.33973354439E+03  0.00000000000E+00 0.  1.
   -9000007    1    1    2    0  503  0.27201141471E+03  0.12538821167E+03  0.67372358438E+03  0.83881814567E+03  0.40000000000E+03 0. -1.
<mgrwt>
<rscale>  2 0.49961541E+03</rscale>
<asrwt>0</asrwt>
<pdfrwt beam="1">  1       21 0.21709835E+00 0.49971233E+03</pdfrwt>
<pdfrwt beam="2">  1       21 0.27342876E-01 0.49971233E+03</pdfrwt>
<totfact> 0.10880081E+03</totfact>
</mgrwt>
</event>
<event>
 6    1  0.9163926E-004  0.4249416E+03  0.7818608E-02  0.1035538E+00
         21   -1    0    0  501  502  0.00000000000E+00  0.00000000000E+00  0.55598120705E+03  0.55598120705E+03  0.00000000000E+00 0. -1.
         21   -1    0    0  502  503 -0.00000000000E+00 -0.00000000000E+00 -0.32613583742E+03  0.32613583742E+03  0.00000000000E+00 0. -1.
    9000007    2    1    2  501    0 -0.11222269282E+03 -0.85192863592E+02  0.80497361493E+02  0.43249877935E+03  0.40090349480E+03 0.  0.
    9000005    1    3    3    0    0  0.26896856777E+02 -0.14832080988E+03 -0.11123729611E+03  0.18734257281E+03  0.99999687468E+00 0.  0.
          4    1    3    3  501    0 -0.13911954959E+03  0.63127946284E+02  0.19173465760E+03  0.24515620654E+03  0.00000000000E+00 0.  1.
   -9000007    1    1    2    0  503  0.11222269282E+03  0.85192863592E+02  0.14934800813E+03  0.44961826511E+03  0.40000000000E+03 0. -1.
<mgrwt>
<rscale>  2 0.42472838E+03</rscale>
<asrwt>0</asrwt>
<pdfrwt beam="1">  1       21 0.85535570E-01 0.42494161E+03</pdfrwt>
<pdfrwt beam="2">  1       21 0.50174744E-01 0.42494161E+03</pdfrwt>
<totfact> 0.39445800E+03</totfact>
</mgrwt>
</event>
<event>
 6    1  0.9163926E-004  0.4264605E+03  0.7818608E-02  0.1035086E+00
         21   -1    0    0  501  502  0.00000000000E+00  0.00000000000E+00  0.99334153126E+03  0.99334153126E+03  0.00000000000E+00 0. -1.
         21   -1    0    0  502  503 -0.00000000000E+00 -0.00000000000E+00 -0.88977527405E+03  0.88977527405E+03  0.00000000000E+00 0. -1.
    9000007    2    1    2  501    0  0.40729798816E+02 -0.13828791861E+03  0.89123735860E+03  0.98801444866E+03  0.40135527460E+03 0.  0.
    9000005    1    3    3    0    0 -0.77487754418E+02  0.60774594518E+02  0.63534143214E+03  0.64292895316E+03  0.99999687468E+00 0.  0.
          4    1    3    3  501    0  0.11821755323E+03 -0.19906251313E+03  0.25589592646E+03  0.34508549550E+03  0.00000000000E+00 0.  1.
   -9000007    1    1    2    0  503 -0.40729798816E+02  0.13828791861E+03 -0.78767110139E+03  0.89510235666E+03  0.40000000000E+03 0. -1.
<mgrwt>
<rscale>  2 0.42614129E+03</rscale>
<asrwt>0</asrwt>
<pdfrwt beam="1">  1       21 0.15282177E+00 0.42646046E+03</pdfrwt>
<pdfrwt beam="2">  1       21 0.13688850E+00 0.42646046E+03</pdfrwt>
<totfact> 0.87338598E+01</totfact>
</mgrwt>
</event>
<event>
 6    1  0.9163926E-004  0.4091035E+03  0.7818608E-02  0.1040737E+00
         21   -1    0    0  501  502  0.00000000000E+00  0.00000000000E+00  0.33060226523E+03  0.33060226523E+03  0.00000000000E+00 0. -1.
         21   -1    0    0  502  503 -0.00000000000E+00 -0.00000000000E+00 -0.61410227587E+03  0.61410227587E+03  0.00000000000E+00 0. -1.
    9000007    2    1    2  501    0 -0.81481706837E+02  0.99899403351E+01  0.56965713512E+02  0.41305054010E+03  0.40078247055E+03 0.  0.
    9000005    1    3    3    0    0  0.11983661770E+03  0.45656036539E+02  0.14224913143E+03  0.19152311610E+03  0.99999687468E+00 0.  0.
          4    1    3    3  501    0 -0.20131832454E+03 -0.35666096204E+02 -0.85283417915E+02  0.22152742400E+03  0.00000000000E+00 0.  1.
   -9000007    1    1    2    0  503  0.81481706837E+02 -0.99899403351E+01 -0.34046572416E+03  0.53165400100E+03  0.40000000000E+03 0. -1.
<mgrwt>
<rscale>  2 0.40891171E+03</rscale>
<asrwt>0</asrwt>
<pdfrwt beam="1">  1       21 0.50861888E-01 0.40910348E+03</pdfrwt>
<pdfrwt beam="2">  1       21 0.94477272E-01 0.40910348E+03</pdfrwt>
<totfact> 0.30475871E+03</totfact>
</mgrwt>
</event>
<event>
 6    1  0.9163926E-004  0.4755051E+03  0.7818608E-02  0.1020390E+00
         21   -1    0    0  501  502  0.00000000000E+00  0.00000000000E+00  0.31471041331E+03  0.31471041331E+03  0.00000000000E+00 0. -1.
         21   -1    0    0  502  503 -0.00000000000E+00 -0.00000000000E+00 -0.74296980483E+03  0.74296980483E+03  0.00000000000E+00 0. -1.
    9000007    2    1    2  501    0  0.17440466584E+03  0.18891309298E+03 -0.11751154206E+03  0.48964028106E+03  0.39979181852E+03 0.  0.
    9000005    1    3    3    0    0 -0.20420583574E+02  0.38748620267E+02  0.13211140239E+03  0.13918648800E+03  0.99999687468E+00 0.  0.
          4    1    3    3  501    0  0.19482524942E+03  0.15016447271E+03 -0.24962294445E+03  0.35045379306E+03  0.00000000000E+00 0.  1.
   -9000007    1    1    2    0  503 -0.17440466584E+03 -0.18891309298E+03 -0.31074784946E+03  0.56803993707E+03  0.40000000000E+03 0. -1.
<mgrwt>
<rscale>  2 0.47546136E+03</rscale>
<asrwt>0</asrwt>
<pdfrwt beam="1">  1       21 0.48416987E-01 0.47550515E+03</pdfrwt>
<pdfrwt beam="2">  1       21 0.11430305E+00 0.47550515E+03</pdfrwt>
<totfact> 0.20698216E+03</totfact>
</mgrwt>
</event>
<event>
 6    1  0.9163926E-004  0.5035924E+03  0.7818608E-02  0.1012870E+00
         21   -1    0    0  501  502  0.00000000000E+00  0.00000000000E+00  0.33137596278E+03  0.33137596278E+03  0.00000000000E+00 0.  1.
         21   -1    0    0  502  503 -0.00000000000E+00 -0.00000000000E+00 -0.19649665001E+04  0.19649665001E+04  0.00000000000E+00 0.  1.
    9000007    2    1    2  501    0  0.27239560416E+03  0.13795435210E+03  0.80433103423E+02  0.50997525274E+03  0.40046785870E+03 0.  0.
    9000005    1    3    3    0    0  0.30433802478E+03  0.18824057929E+03 -0.54968130463E+02  0.36204784819E+03  0.99999687468E+00 0.  0.
          4    1    3    3  501    0 -0.31942420619E+02 -0.50286227187E+02  0.13540123389E+03  0.14792740455E+03  0.00000000000E+00 0.  1.
   -9000007    1    1    2    0  503 -0.27239560416E+03 -0.13795435210E+03 -0.17140236407E+04  0.17863672101E+04  0.40000000000E+03 0.  1.
<mgrwt>
<rscale>  2 0.50349935E+03</rscale>
<asrwt>0</asrwt>
<pdfrwt beam="1">  1       21 0.50980918E-01 0.50359237E+03</pdfrwt>
<pdfrwt beam="2">  1       21 0.30230254E+00 0.50359237E+03</pdfrwt>
<totfact> 0.90403242E+01</totfact>
</mgrwt>
</event>
<event>
 6    1  0.9163926E-004  0.4719378E+03  0.7818608E-02  0.1021446E+00
         21   -1    0    0  501  502  0.00000000000E+00  0.00000000000E+00  0.13324120828E+04  0.13324120828E+04  0.00000000000E+00 0. -1.
         21   -1    0    0  502  503 -0.00000000000E+00 -0.00000000000E+00 -0.86027650473E+03  0.86027650473E+03  0.00000000000E+00 0. -1.
    9000007    2    1    2  501    0 -0.24143195751E+03  0.66602217641E+02  0.12203540645E+04  0.13080665501E+04  0.39880924173E+03 0.  0.
    9000005    1    3    3    0    0 -0.14755956760E+03 -0.15500460433E+03  0.74687162174E+03  0.77692887236E+03  0.99999687468E+00 0.  0.
          4    1    3    3  501    0 -0.93872389919E+02  0.22160682197E+03  0.47348244276E+03  0.53113767776E+03  0.00000000000E+00 0.  1.
   -9000007    1    1    2    0  503  0.24143195751E+03 -0.66602217641E+02 -0.74821848647E+03  0.88462203737E+03  0.40000000000E+03 0. -1.
<mgrwt>
<rscale>  2 0.47168535E+03</rscale>
<asrwt>0</asrwt>
<pdfrwt beam="1">  1       21 0.20498648E+00 0.47193776E+03</pdfrwt>
<pdfrwt beam="2">  1       21 0.13235023E+00 0.47193776E+03</pdfrwt>
<totfact> 0.39518708E+01</totfact>
</mgrwt>
</event>
<event>
 6    1  0.9163926E-004  0.4684343E+03  0.7818608E-02  0.1022392E+00
         21   -1    0    0  501  502  0.00000000000E+00  0.00000000000E+00  0.15507423259E+03  0.15507423259E+03  0.00000000000E+00 0. -1.
         21   -1    0    0  502  503 -0.00000000000E+00 -0.00000000000E+00 -0.24669052021E+04  0.24669052021E+04  0.00000000000E+00 0.  1.
    9000007    2    1    2  501    0 -0.13634066641E+03  0.20209372631E+03 -0.29904512250E+03  0.55540315555E+03  0.39951724416E+03 0.  0.
    9000005    1    3    3    0    0  0.14128904430E+02  0.23120451201E+03 -0.14356234910E+02  0.23208242886E+03  0.99999687468E+00 0.  0.
          4    1    3    3  501    0 -0.15046957084E+03 -0.29110785696E+02 -0.28468888759E+03  0.32332072669E+03  0.00000000000E+00 0.  1.
   -9000007    1    1    2    0  503  0.13634066641E+03 -0.20209372631E+03 -0.20127858470E+04  0.20665762792E+04  0.40000000000E+03 0.  1.
<mgrwt>
<rscale>  2 0.46833118E+03</rscale>
<asrwt>0</asrwt>
<pdfrwt beam="1">  1       21 0.23857575E-01 0.46843426E+03</pdfrwt>
<pdfrwt beam="2">  1       21 0.37952386E+00 0.46843426E+03</pdfrwt>
<totfact> 0.14500975E+02</totfact>
</mgrwt>
</event>
<event>
 6    1  0.9163926E-004  0.4664685E+03  0.7818608E-02  0.1023084E+00
         21   -1    0    0  501  502  0.00000000000E+00  0.00000000000E+00  0.20584298142E+04  0.20584298142E+04  0.00000000000E+00 0. -1.
         21   -1    0    0  502  503 -0.00000000000E+00 -0.00000000000E+00 -0.10700756343E+03  0.10700756343E+03  0.00000000000E+00 0. -1.
    9000007    2    1    2  501    0 -0.20140999243E+03  0.12210666184E+03  0.11190326328E+04  0.12123641915E+04  0.40263740233E+03 0.  0.
    9000005    1    3    3    0    0  0.10333827264E+02 -0.55898359358E+02  0.74493027874E+03  0.74709673720E+03  0.99999687468E+00 0.  0.
          4    1    3    3  501    0 -0.21174381970E+03  0.17800502120E+03  0.37410235402E+03  0.46526745431E+03  0.00000000000E+00 0.  1.
   -9000007    1    1    2    0  503  0.20140999243E+03 -0.12210666184E+03  0.83238961802E+03  0.95307318612E+03  0.40000000000E+03 0. -1.
<mgrwt>
<rscale>  2 0.46589885E+03</rscale>
<asrwt>0</asrwt>
<pdfrwt beam="1">  1       21 0.31668148E+00 0.46646854E+03</pdfrwt>
<pdfrwt beam="2">  1       21 0.16462704E-01 0.46646854E+03</pdfrwt>
<totfact> 0.71608821E+02</totfact>
</mgrwt>
</event>
<event>
 6    1  0.9163926E-004  0.5238827E+03  0.7818608E-02  0.1007782E+00
         21   -1    0    0  501  502  0.00000000000E+00  0.00000000000E+00  0.43730208639E+03  0.43730208639E+03  0.00000000000E+00 0.  1.
         21   -1    0    0  502  503 -0.00000000000E+00 -0.00000000000E+00 -0.78013274181E+03  0.78013274181E+03  0.00000000000E+00 0.  1.
    9000007    2    1    2  501    0 -0.30664076624E+03 -0.13958164267E+03 -0.44163896101E+03  0.68519928284E+03  0.40117513735E+03 0.  0.
    9000005    1    3    3    0    0  0.66284260671E+02  0.61551705173E+02 -0.13363068418E+03  0.16137030511E+03  0.99999687468E+00 0.  0.
          4    1    3    3  501    0 -0.37292502691E+03 -0.20113334784E+03 -0.30800827683E+03  0.52382897773E+03  0.00000000000E+00 0.  1.
   -9000007    1    1    2    0  503  0.30664076624E+03  0.13958164267E+03  0.98808305598E+02  0.53223554536E+03  0.40000000000E+03 0.  1.
<mgrwt>
<rscale>  2 0.52365772E+03</rscale>
<asrwt>0</asrwt>
<pdfrwt beam="1">  1       21 0.67277244E-01 0.52388270E+03</pdfrwt>
<pdfrwt beam="2">  1       21 0.12002042E+00 0.52388270E+03</pdfrwt>
<totfact> 0.87818270E+02</totfact>
</mgrwt>
</event>
<event>
 6    1  0.9163926E-004  0.4470396E+03  0.7818608E-02  0.1028706E+00
         21   -1    0    0  501  502  0.00000000000E+00  0.00000000000E+00  0.17440490606E+04  0.17440490606E+04  0.00000000000E+00 0.  1.
         21   -1    0    0  502  503 -0.00000000000E+00 -0.00000000000E+00 -0.11992330606E+03  0.11992330606E+03  0.00000000000E+00 0.  1.
    9000007    2    1    2  501    0 -0.73849167168E+02 -0.18544739316E+03  0.10135870142E+04  0.11072676762E+04  0.39854565141E+03 0.  0.
    9000005    1    3    3    0    0  0.75860876848E+02  0.98009496340E+02  0.24692935267E+03  0.27628941206E+03  0.99999687468E+00 0.  0.
          4    1    3    3  501    0 -0.14971004402E+03 -0.28345688950E+03  0.76665766153E+03  0.83097826413E+03  0.00000000000E+00 0.  1.
   -9000007    1    1    2    0  503  0.73849167168E+02  0.18544739316E+03  0.61053874036E+03  0.75670469048E+03  0.40000000000E+03 0.  1.
<mgrwt>
<rscale>  2 0.44671407E+03</rscale>
<asrwt>0</asrwt>
<pdfrwt beam="1">  1       21 0.26831522E+00 0.44703963E+03</pdfrwt>
<pdfrwt beam="2">  1       21 0.18449741E-01 0.44703963E+03</pdfrwt>
<totfact> 0.11428347E+03</totfact>
</mgrwt>
</event>
<event>
 6    1  0.9163926E-004  0.4441342E+03  0.7818608E-02  0.1029555E+00
         21   -1    0    0  501  502  0.00000000000E+00  0.00000000000E+00  0.29493827869E+03  0.29493827869E+03  0.00000000000E+00 0. -1.
         21   -1    0    0  502  503 -0.00000000000E+00 -0.00000000000E+00 -0.12608290199E+04  0.12608290199E+04  0.00000000000E+00 0. -1.
    9000007    2    1    2  501    0 -0.56182912900E+02 -0.18465819498E+03  0.50965848447E+02  0.44614912435E+03  0.39899417887E+03 0.  0.
    9000005    1    3    3    0    0  0.15013778472E+02 -0.29123503188E+03 -0.32147080899E+02  0.29339000007E+03  0.99999687468E+00 0.  0.
          4    1    3    3  501    0 -0.71196691372E+02  0.10657683689E+03  0.83112929346E+02  0.15275912427E+03  0.00000000000E+00 0.  1.
   -9000007    1    1    2    0  503  0.56182912900E+02  0.18465819498E+03 -0.10168565896E+04  0.11096181742E+04  0.40000000000E+03 0. -1.
<mgrwt>
<rscale>  2 0.44390759E+03</rscale>
<asrwt>0</asrwt>
<pdfrwt beam="1">  1       21 0.45375120E-01 0.44413418E+03</pdfrwt>
<pdfrwt beam="2">  1       21 0.19397370E+00 0.44413418E+03</pdfrwt>
<totfact> 0.56731044E+02</totfact>
</mgrwt>
</event>
<event>
 6    1  0.9163926E-004  0.4607880E+03  0.7818608E-02  0.1024646E+00
         21   -1    0    0  501  502  0.00000000000E+00  0.00000000000E+00  0.13002873794E+03  0.13002873794E+03  0.00000000000E+00 0.  1.
         21   -1    0    0  502  503 -0.00000000000E+00 -0.00000000000E+00 -0.16286183630E+04  0.16286183630E+04  0.00000000000E+00 0. -1.
    9000007    2    1    2  501    0  0.22461488868E+03 -0.43286209210E+02 -0.75871227636E+03  0.88701413044E+03  0.39852754632E+03 0.  0.
    9000005    1    3    3    0    0  0.18727288732E+03 -0.12984215515E+03 -0.75928478439E+03  0.79274491697E+03  0.99999687468E+00 0.  0.
          4    1    3    3  501    0  0.37342001363E+02  0.86555945936E+02  0.57250803457E+00  0.94269213469E+02  0.00000000000E+00 0.  1.
   -9000007    1    1    2    0  503 -0.22461488868E+03  0.43286209210E+02 -0.73987734868E+03  0.87163297047E+03  0.40000000000E+03 0.  1.
<mgrwt>
<rscale>  2 0.46046822E+03</rscale>
<asrwt>0</asrwt>
<pdfrwt beam="1">  1       21 0.20004420E-01 0.46078796E+03</pdfrwt>
<pdfrwt beam="2">  1       21 0.25055668E+00 0.46078796E+03</pdfrwt>
<totfact> 0.12493241E+03</totfact>
</mgrwt>
</event>
<event>
 6    1  0.9163926E-004  0.4954873E+03  0.7818608E-02  0.1014967E+00
         21   -1    0    0  501  502  0.00000000000E+00  0.00000000000E+00  0.30036826236E+03  0.30036826236E+03  0.00000000000E+00 0. -1.
         21   -1    0    0  502  503 -0.00000000000E+00 -0.00000000000E+00 -0.98529097224E+03  0.98529097224E+03  0.00000000000E+00 0. -1.
    9000007    2    1    2  501    0 -0.15169836975E+03 -0.24989241057E+03 -0.77020830306E+02  0.50143776880E+03  0.40006126460E+03 0.  0.
    9000005    1    3    3    0    0 -0.23854507195E+03 -0.19414385371E+03 -0.17940581368E+03  0.35606605183E+03  0.99999687468E+00 0.  0.
          4    1    3    3  501    0  0.86846702201E+02 -0.55748556857E+02  0.10238498338E+03  0.14537171697E+03  0.00000000000E+00 0.  1.
   -9000007    1    1    2    0  503  0.15169836975E+03  0.24989241057E+03 -0.60790187957E+03  0.78422146580E+03  0.40000000000E+03 0. -1.
<mgrwt>
<rscale>  2 0.49547490E+03</rscale>
<asrwt>0</asrwt>
<pdfrwt beam="1">  1       21 0.46210502E-01 0.49548726E+03</pdfrwt>
<pdfrwt beam="2">  1       21 0.15158323E+00 0.49548726E+03</pdfrwt>
<totfact> 0.10834005E+03</totfact>
</mgrwt>
</event>
<event>
 6    1  0.9163926E-004  0.5846631E+03  0.7818608E-02  0.9938230E-01
         21   -1    0    0  501  502  0.00000000000E+00  0.00000000000E+00  0.93951072072E+03  0.93951072072E+03  0.00000000000E+00 0.  1.
         21   -1    0    0  502  503 -0.00000000000E+00 -0.00000000000E+00 -0.37804828270E+03  0.37804828270E+03  0.00000000000E+00 0.  1.
    9000007    2    1    2  501    0 -0.31683304971E+03  0.28353621684E+03  0.15072332235E+03  0.60377851280E+03  0.40131658946E+03 0.  0.
    9000005    1    3    3    0    0 -0.34052742977E+02 -0.10044840506E+03  0.45600894650E+02  0.11545524228E+03  0.99999687468E+00 0.  0.
          4    1    3    3  501    0 -0.28278030674E+03  0.38398462190E+03  0.10512242770E+03  0.48832327052E+03  0.00000000000E+00 0.  1.
   -9000007    1    1    2    0  503  0.31683304971E+03 -0.28353621684E+03  0.41073911567E+03  0.71378049062E+03  0.40000000000E+03 0.  1.
<mgrwt>
<rscale>  2 0.58443726E+03</rscale>
<asrwt>0</asrwt>
<pdfrwt beam="1">  1       21 0.14454011E+00 0.58466313E+03</pdfrwt>
<pdfrwt beam="2">  1       21 0.58161274E-01 0.58466313E+03</pdfrwt>
<totfact> 0.72885771E+02</totfact>
</mgrwt>
</event>
<event>
 6    1  0.9163926E-004  0.5044041E+03  0.7818608E-02  0.1012654E+00
         21   -1    0    0  501  502  0.00000000000E+00  0.00000000000E+00  0.18492063549E+03  0.18492063549E+03  0.00000000000E+00 0. -1.
         21   -1    0    0  502  503 -0.00000000000E+00 -0.00000000000E+00 -0.20683387661E+04  0.20683387661E+04  0.00000000000E+00 0. -1.
    9000007    2    1    2  501    0 -0.12904261551E+03 -0.27836403615E+03 -0.28962945380E+03  0.58164315388E+03  0.40035609739E+03 0.  0.
    9000005    1    3    3    0    0  0.62018525256E+02 -0.92688152336E+02  0.71793220279E+02  0.13263731575E+03  0.99999687468E+00 0.  0.
          4    1    3    3  501    0 -0.19106114076E+03 -0.18567588381E+03 -0.36142267408E+03  0.44900583813E+03  0.00000000000E+00 0.  1.
   -9000007    1    1    2    0  503  0.12904261551E+03  0.27836403615E+03 -0.15937886768E+04  0.16716162477E+04  0.40000000000E+03 0. -1.
<mgrwt>
<rscale>  2 0.50433348E+03</rscale>
<asrwt>0</asrwt>
<pdfrwt beam="1">  1       21 0.28449328E-01 0.50440414E+03</pdfrwt>
<pdfrwt beam="2">  1       21 0.31820597E+00 0.50440414E+03</pdfrwt>
<totfact> 0.23993505E+02</totfact>
</mgrwt>
</event>
<event>
 6    1  0.9163926E-004  0.5214151E+03  0.7818608E-02  0.1008336E+00
         21   -1    0    0  501  502  0.00000000000E+00  0.00000000000E+00  0.14087015292E+04  0.14087015292E+04  0.00000000000E+00 0. -1.
         21   -1    0    0  502  503 -0.00000000000E+00 -0.00000000000E+00 -0.25209616984E+03  0.25209616984E+03  0.00000000000E+00 0. -1.
    9000007    2    1    2  501    0 -0.28379205526E+03 -0.17699123936E+03  0.98038531771E+03  0.11104184366E+04  0.40001237941E+03 0.  0.
    9000005    1    3    3    0    0  0.54917490277E+02 -0.10050581431E+03  0.65701285999E+02  0.13204169200E+03  0.99999687468E+00 0.  0.
          4    1    3    3  501    0 -0.33870954554E+03 -0.76485425048E+02  0.91468403171E+03  0.97837674459E+03  0.00000000000E+00 0.  1.
   -9000007    1    1    2    0  503  0.28379205526E+03  0.17699123936E+03  0.17622004161E+03  0.55037926242E+03  0.40000000000E+03 0. -1.
<mgrwt>
<rscale>  2 0.52141275E+03</rscale>
<asrwt>0</asrwt>
<pdfrwt beam="1">  1       21 0.21672331E+00 0.52141513E+03</pdfrwt>
<pdfrwt beam="2">  1       21 0.38784027E-01 0.52141513E+03</pdfrwt>
<totfact> 0.53663065E+02</totfact>
</mgrwt>
</event>
<event>
 6    1  0.9163926E-004  0.4212618E+03  0.7818608E-02  0.1036685E+00
         21   -1    0    0  501  502  0.00000000000E+00  0.00000000000E+00  0.26785809974E+03  0.26785809974E+03  0.00000000000E+00 0.  1.
         21   -1    0    0  502  503 -0.00000000000E+00 -0.00000000000E+00 -0.10958545246E+04  0.10958545246E+04  0.00000000000E+00 0.  1.
    9000007    2    1    2  501    0  0.13051353882E+03 -0.20682068173E+02  0.15149317686E+02  0.42118608628E+03  0.39963318893E+03 0.  0.
    9000005    1    3    3    0    0  0.25864079124E+03  0.62922265097E+02  0.28005812611E+02  0.26765574134E+03  0.99999687468E+00 0.  0.
          4    1    3    3  501    0 -0.12812725242E+03 -0.83604333271E+02 -0.12856494925E+02  0.15353034494E+03  0.00000000000E+00 0.  1.
   -9000007    1    1    2    0  503 -0.13051353882E+03  0.20682068173E+02 -0.84314574252E+03  0.94252653803E+03  0.40000000000E+03 0.  1.
<mgrwt>
<rscale>  2 0.42117474E+03</rscale>
<asrwt>0</asrwt>
<pdfrwt beam="1">  1       21 0.41208939E-01 0.42126183E+03</pdfrwt>
<pdfrwt beam="2">  1       21 0.16859300E+00 0.42126183E+03</pdfrwt>
<totfact> 0.10560185E+03</totfact>
</mgrwt>
</event>
<event>
 6    1  0.9163926E-004  0.5451399E+03  0.7818608E-02  0.1002694E+00
         21   -1    0    0  501  502  0.00000000000E+00  0.00000000000E+00  0.12547954996E+04  0.12547954996E+04  0.00000000000E+00 0.  1.
         21   -1    0    0  502  503 -0.00000000000E+00 -0.00000000000E+00 -0.34297530698E+03  0.34297530698E+03  0.00000000000E+00 0.  1.
    9000007    2    1    2  501    0 -0.32584247604E+03 -0.17240973237E+03  0.90173794747E+03  0.10537119066E+04  0.40159559412E+03 0.  0.
    9000005    1    3    3    0    0 -0.21046580128E+02 -0.72855194331E+02 -0.19466692738E+02  0.78299361402E+02  0.99999687468E+00 0.  0.
          4    1    3    3  501    0 -0.30479589591E+03 -0.99554538039E+02  0.92120464021E+03  0.97541254521E+03  0.00000000000E+00 0.  1.
   -9000007    1    1    2    0  503  0.32584247604E+03  0.17240973237E+03  0.10082245174E+02  0.54405890000E+03  0.40000000000E+03 0.  1.
<mgrwt>
<rscale>  2 0.54484602E+03</rscale>
<asrwt>0</asrwt>
<pdfrwt beam="1">  1       21 0.19304546E+00 0.54513985E+03</pdfrwt>
<pdfrwt beam="2">  1       21 0.52765432E-01 0.54513985E+03</pdfrwt>
<totfact> 0.39942332E+02</totfact>
</mgrwt>
</event>
<event>
 6    1  0.9163926E-004  0.5179832E+03  0.7818608E-02  0.1009323E+00
         21   -1    0    0  501  502  0.00000000000E+00  0.00000000000E+00  0.72255989983E+03  0.72255989983E+03  0.00000000000E+00 0.  1.
         21   -1    0    0  502  503 -0.00000000000E+00 -0.00000000000E+00 -0.37211091985E+03  0.37211091985E+03  0.00000000000E+00 0.  1.
    9000007    2    1    2  501    0  0.30126037469E+03  0.13247170237E+03  0.21806672826E+03  0.56003858546E+03  0.39721978040E+03 0.  0.
    9000005    1    3    3    0    0 -0.54570903910E+02 -0.75421922699E+02 -0.14470207012E+01  0.93110385241E+02  0.99999687468E+00 0.  0.
          4    1    3    3  501    0  0.35583127861E+03  0.20789362507E+03  0.21951374896E+03  0.46692820022E+03  0.00000000000E+00 0.  1.
   -9000007    1    1    2    0  503 -0.30126037469E+03 -0.13247170237E+03  0.13238225172E+03  0.53463223421E+03  0.40000000000E+03 0.  1.
<mgrwt>
<rscale>  2 0.51744635E+03</rscale>
<asrwt>0</asrwt>
<pdfrwt beam="1">  1       21 0.11116306E+00 0.51798317E+03</pdfrwt>
<pdfrwt beam="2">  1       21 0.57247834E-01 0.51798317E+03</pdfrwt>
<totfact> 0.15254313E+03</totfact>
</mgrwt>
</event>
<event>
 6    1  0.9163926E-004  0.6249823E+03  0.7818608E-02  0.9855558E-01
         21   -1    0    0  501  502  0.00000000000E+00  0.00000000000E+00  0.97709002583E+03  0.97709002583E+03  0.00000000000E+00 0.  1.
         21   -1    0    0  502  503 -0.00000000000E+00 -0.00000000000E+00 -0.40916015048E+03  0.40916015048E+03  0.00000000000E+00 0. -1.
    9000007    2    1    2  501    0 -0.35156982078E+03 -0.32711093039E+03  0.39344923362E+03  0.73736929818E+03  0.39787973409E+03 0.  0.
    9000005    1    3    3    0    0 -0.39234875176E+03 -0.29044134383E+03  0.44614278631E+03  0.66131543380E+03  0.99999687468E+00 0.  0.
          4    1    3    3  501    0  0.40778930977E+02 -0.36669586556E+02 -0.52693552699E+02  0.76053864371E+02  0.00000000000E+00 0.  1.
   -9000007    1    1    2    0  503  0.35156982078E+03  0.32711093039E+03  0.17448064174E+03  0.64888087813E+03  0.40000000000E+03 0.  1.
<mgrwt>
<rscale>  2 0.62464332E+03</rscale>
<asrwt>0</asrwt>
<pdfrwt beam="1">  1       21 0.15032154E+00 0.62498232E+03</pdfrwt>
<pdfrwt beam="2">  1       21 0.62947715E-01 0.62498232E+03</pdfrwt>
<totfact> 0.54275701E+02</totfact>
</mgrwt>
</event>
<event>
 6    1  0.9163926E-004  0.4358508E+03  0.7818608E-02  0.1032085E+00
         21   -1    0    0  501  502  0.00000000000E+00  0.00000000000E+00  0.54466374448E+03  0.54466374448E+03  0.00000000000E+00 0. -1.
         21   -1    0    0  502  503 -0.00000000000E+00 -0.00000000000E+00 -0.53945535260E+03  0.53945535260E+03  0.00000000000E+00 0. -1.
    9000007    2    1    2  501    0  0.16449490940E+03 -0.53919626048E+02  0.32537445245E+03  0.54331210043E+03  0.39919118587E+03 0.  0.
    9000005    1    3    3    0    0 -0.19939313516E+01  0.13931628337E+03  0.12867019090E+02  0.13992699078E+03  0.99999687468E+00 0.  0.
          4    1    3    3  501    0  0.16648884075E+03 -0.19323590942E+03  0.31250743336E+03  0.40338510965E+03  0.00000000000E+00 0.  1.
   -9000007    1    1    2    0  503 -0.16449490940E+03  0.53919626048E+02 -0.32016606057E+03  0.54080699666E+03  0.40000000000E+03 0. -1.
<mgrwt>
<rscale>  2 0.43566512E+03</rscale>
<asrwt>0</asrwt>
<pdfrwt beam="1">  1       21 0.83794423E-01 0.43585078E+03</pdfrwt>
<pdfrwt beam="2">  1       21 0.82993131E-01 0.43585078E+03</pdfrwt>
<totfact> 0.13487014E+03</totfact>
</mgrwt>
</event>
<event>
 6    1  0.9163926E-004  0.4255621E+03  0.7818608E-02  0.1035316E+00
         21   -1    0    0  501  502  0.00000000000E+00  0.00000000000E+00  0.25326119991E+03  0.25326119991E+03  0.00000000000E+00 0.  1.
         21   -1    0    0  502  503 -0.00000000000E+00 -0.00000000000E+00 -0.72167058844E+03  0.72167058844E+03  0.00000000000E+00 0.  1.
    9000007    2    1    2  501    0 -0.12404388850E+02  0.14306869239E+03 -0.28416990951E+03  0.51171833298E+03  0.40060029360E+03 0.  0.
    9000005    1    3    3    0    0 -0.77579862252E+02  0.21431653921E+03 -0.18073612942E+02  0.22864354241E+03  0.99999687468E+00 0.  0.
          4    1    3    3  501    0  0.65175473402E+02 -0.71247846824E+02 -0.26609629656E+03  0.28307479057E+03  0.00000000000E+00 0.  1.
   -9000007    1    1    2    0  503  0.12404388850E+02 -0.14306869239E+03 -0.18423947903E+03  0.46321345537E+03  0.40000000000E+03 0. -1.
<mgrwt>
<rscale>  2 0.42542079E+03</rscale>
<asrwt>0</asrwt>
<pdfrwt beam="1">  1       21 0.38963262E-01 0.42556212E+03</pdfrwt>
<pdfrwt beam="2">  1       21 0.11102624E+00 0.42556212E+03</pdfrwt>
<totfact> 0.35646560E+03</totfact>
</mgrwt>
</event>
<event>
 6    1  0.9163926E-004  0.5506589E+03  0.7818608E-02  0.1001381E+00
         21   -1    0    0  501  502  0.00000000000E+00  0.00000000000E+00  0.47284162157E+03  0.47284162157E+03  0.00000000000E+00 0.  1.
         21   -1    0    0  502  503 -0.00000000000E+00 -0.00000000000E+00 -0.79217421489E+03  0.79217421489E+03  0.00000000000E+00 0.  1.
    9000007    2    1    2  501    0  0.18122304892E+03  0.33223995614E+03  0.11719792711E+03  0.56231812251E+03  0.39905029114E+03 0.  0.
    9000005    1    3    3    0    0  0.60796150900E+02  0.62590787071E+02 -0.14379266492E+03  0.16819961079E+03  0.99999687468E+00 0.  0.
          4    1    3    3  501    0  0.12042689802E+03  0.26964916907E+03  0.26099059203E+03  0.39411851172E+03  0.00000000000E+00 0.  1.
   -9000007    1    1    2    0  503 -0.18122304892E+03 -0.33223995614E+03 -0.43653052043E+03  0.70269771395E+03  0.40000000000E+03 0.  1.
<mgrwt>
<rscale>  2 0.55048641E+03</rscale>
<asrwt>0</asrwt>
<pdfrwt beam="1">  1       21 0.72744865E-01 0.55065886E+03</pdfrwt>
<pdfrwt beam="2">  1       21 0.12187296E+00 0.55065886E+03</pdfrwt>
<totfact> 0.70094122E+02</totfact>
</mgrwt>
</event>
<event>
 6    1  0.9163926E-004  0.5286793E+03  0.7818608E-02  0.1006559E+00
         21   -1    0    0  501  502  0.00000000000E+00  0.00000000000E+00  0.62957886730E+03  0.62957886730E+03  0.00000000000E+00 0. -1.
         21   -1    0    0  502  503 -0.00000000000E+00 -0.00000000000E+00 -0.45609909421E+03  0.45609909421E+03  0.00000000000E+00 0.  1.
    9000007    2    1    2  501    0 -0.27591419318E+03 -0.20800043407E+03  0.17565740984E+03  0.55709725370E+03  0.40013622915E+03 0.  0.
    9000005    1    3    3    0    0 -0.16393883729E+03 -0.21784872401E+03  0.28910810677E+03  0.39738961526E+03  0.99999687468E+00 0.  0.
          4    1    3    3  501    0 -0.11197535589E+03  0.98482899433E+01 -0.11345069693E+03  0.15970763844E+03  0.00000000000E+00 0.  1.
   -9000007    1    1    2    0  503  0.27591419318E+03  0.20800043407E+03 -0.21776367470E+01  0.52858070781E+03  0.40000000000E+03 0.  1.
<mgrwt>
<rscale>  2 0.52865354E+03</rscale>
<asrwt>0</asrwt>
<pdfrwt beam="1">  1       21 0.96858287E-01 0.52867932E+03</pdfrwt>
<pdfrwt beam="2">  1       21 0.70169092E-01 0.52867932E+03</pdfrwt>
<totfact> 0.13578394E+03</totfact>
</mgrwt>
</event>
<event>
 6    1  0.9163926E-004  0.4880677E+03  0.7818608E-02  0.1016971E+00
         21   -1    0    0  501  502  0.00000000000E+00  0.00000000000E+00  0.12576083645E+03  0.12576083645E+03  0.00000000000E+00 0. -1.
         21   -1    0    0  502  503 -0.00000000000E+00 -0.00000000000E+00 -0.19033690637E+04  0.19033690637E+04  0.00000000000E+00 0. -1.
    9000007    2    1    2  501    0  0.12373720251E+02 -0.27860359261E+03 -0.96618204302E+03  0.10824591426E+04  0.40054585799E+03 0.  0.
    9000005    1    3    3    0    0  0.14057606669E+03 -0.29459574789E+03 -0.84283526979E+03  0.90383658766E+03  0.99999687468E+00 0.  0.
          4    1    3    3  501    0 -0.12820234644E+03  0.15992155279E+02 -0.12334677323E+03  0.17862255493E+03  0.00000000000E+00 0.  1.
   -9000007    1    1    2    0  503 -0.12373720251E+02  0.27860359261E+03 -0.81142618420E+03  0.94667075753E+03  0.40000000000E+03 0. -1.
<mgrwt>
<rscale>  2 0.48795567E+03</rscale>
<asrwt>0</asrwt>
<pdfrwt beam="1">  1       21 0.19347822E-01 0.48806767E+03</pdfrwt>
<pdfrwt beam="2">  1       21 0.29282599E+00 0.48806767E+03</pdfrwt>
<totfact> 0.72728297E+02</totfact>
</mgrwt>
</event>
<event>
 6    1  0.9163926E-004  0.4550430E+03  0.7818608E-02  0.1026251E+00
         21   -1    0    0  501  502  0.00000000000E+00  0.00000000000E+00  0.34609008613E+03  0.34609008613E+03  0.00000000000E+00 0.  1.
         21   -1    0    0  502  503 -0.00000000000E+00 -0.00000000000E+00 -0.79427300972E+03  0.79427300972E+03  0.00000000000E+00 0.  1.
    9000007    2    1    2  501    0 -0.10028399744E+03 -0.19165482287E+03  0.59364953546E+02  0.45889901106E+03  0.40034441843E+03 0.  0.
    9000005    1    3    3    0    0  0.15131364813E+03 -0.11762956315E+03  0.91841949019E+01  0.19187986780E+03  0.99999687468E+00 0.  0.
          4    1    3    3  501    0 -0.25159764556E+03 -0.74025259725E+02  0.50180758644E+02  0.26701914326E+03  0.00000000000E+00 0.  1.
   -9000007    1    1    2    0  503  0.10028399744E+03  0.19165482287E+03 -0.50754787714E+03  0.68146408479E+03  0.40000000000E+03 0.  1.
<mgrwt>
<rscale>  2 0.45496720E+03</rscale>
<asrwt>0</asrwt>
<pdfrwt beam="1">  1       21 0.53244629E-01 0.45504297E+03</pdfrwt>
<pdfrwt beam="2">  1       21 0.12219585E+00 0.45504297E+03</pdfrwt>
<totfact> 0.14383985E+03</totfact>
</mgrwt>
</event>
<event>
 6    1  0.9163926E-004  0.4170346E+03  0.7818608E-02  0.1038139E+00
         21   -1    0    0  501  502  0.00000000000E+00  0.00000000000E+00  0.49263816628E+03  0.49263816628E+03  0.00000000000E+00 0. -1.
         21   -1    0    0  502  503 -0.00000000000E+00 -0.00000000000E+00 -0.89098156264E+03  0.89098156264E+03  0.00000000000E+00 0. -1.
    9000007    2    1    2  501    0 -0.25436333951E+02  0.11056878193E+03  0.33879422856E+03  0.53730752843E+03  0.40130460772E+03 0.  0.
    9000005    1    3    3    0    0 -0.27507806650E+02 -0.37657648980E+02  0.38047085942E+03  0.38331951792E+03  0.99999687468E+00 0.  0.
          4    1    3    3  501    0  0.20714726995E+01  0.14822643091E+03 -0.41676630865E+02  0.15398801051E+03  0.00000000000E+00 0.  1.
   -9000007    1    1    2    0  503  0.25436333951E+02 -0.11056878193E+03 -0.73713762492E+03  0.84631220049E+03  0.40000000000E+03 0. -1.
<mgrwt>
<rscale>  2 0.41672042E+03</rscale>
<asrwt>0</asrwt>
<pdfrwt beam="1">  1       21 0.75790488E-01 0.41703459E+03</pdfrwt>
<pdfrwt beam="2">  1       21 0.13707408E+00 0.41703459E+03</pdfrwt>
<totfact> 0.49733241E+02</totfact>
</mgrwt>
</event>
<event>
 6    1  0.9163926E-004  0.4243817E+03  0.7818608E-02  0.1035698E+00
         21   -1    0    0  501  502  0.00000000000E+00  0.00000000000E+00  0.17926088037E+03  0.17926088037E+03  0.00000000000E+00 0. -1.
         21   -1    0    0  502  503 -0.00000000000E+00 -0.00000000000E+00 -0.13866030092E+04  0.13866030092E+04  0.00000000000E+00 0.  1.
    9000007    2    1    2  501    0  0.13576788287E+03 -0.34014100223E+02 -0.19231640292E+03  0.46592429973E+03  0.40063696436E+03 0.  0.
    9000005    1    3    3    0    0  0.24489299115E+03 -0.13150476879E+03 -0.13031478618E+03  0.30700004042E+03  0.99999687468E+00 0.  0.
          4    1    3    3  501    0 -0.10912510829E+03  0.97490668565E+02 -0.62001616737E+02  0.15892425930E+03  0.00000000000E+00 0.  1.
   -9000007    1    1    2    0  503 -0.13576788287E+03  0.34014100223E+02 -0.10150257259E+04  0.10999395898E+04  0.40000000000E+03 0.  1.
<mgrwt>
<rscale>  2 0.42423133E+03</rscale>
<asrwt>0</asrwt>
<pdfrwt beam="1">  1       21 0.27578597E-01 0.42438173E+03</pdfrwt>
<pdfrwt beam="2">  1       21 0.21332354E+00 0.42438173E+03</pdfrwt>
<totfact> 0.11709749E+03</totfact>
</mgrwt>
</event>
<event>
 6    1  0.9163926E-004  0.4434650E+03  0.7818608E-02  0.1029698E+00
         21   -1    0    0  501  502  0.00000000000E+00  0.00000000000E+00  0.49348724317E+03  0.49348724317E+03  0.00000000000E+00 0. -1.
         21   -1    0    0  502  503 -0.00000000000E+00 -0.00000000000E+00 -0.45287705614E+03  0.45287705614E+03  0.00000000000E+00 0. -1.
    9000007    2    1    2  501    0 -0.34310451641E+02  0.18809559187E+03  0.18440940236E+03  0.48027914282E+03  0.40013006457E+03 0.  0.
    9000005    1    3    3    0    0  0.45728828306E+02  0.21696575205E+01  0.26015126301E+03  0.26415054949E+03  0.99999687468E+00 0.  0.
          4    1    3    3  501    0 -0.80039279946E+02  0.18592593435E+03 -0.75741860659E+02  0.21612859333E+03  0.00000000000E+00 0.  1.
   -9000007    1    1    2    0  503  0.34310451641E+02 -0.18809559187E+03 -0.14379921533E+03  0.46608515649E+03  0.40000000000E+03 0. -1.
<mgrwt>
<rscale>  2 0.44343568E+03</rscale>
<asrwt>0</asrwt>
<pdfrwt beam="1">  1       21 0.75921114E-01 0.44346502E+03</pdfrwt>
<pdfrwt beam="2">  1       21 0.69673393E-01 0.44346502E+03</pdfrwt>
<totfact> 0.25190774E+03</totfact>
</mgrwt>
</event>
<event>
 6    1  0.9163926E-004  0.4443893E+03  0.7818608E-02  0.1029425E+00
         21   -1    0    0  501  502  0.00000000000E+00  0.00000000000E+00  0.20954050541E+03  0.20954050541E+03  0.00000000000E+00 0. -1.
         21   -1    0    0  502  503 -0.00000000000E+00 -0.00000000000E+00 -0.10206396989E+04  0.10206396989E+04  0.00000000000E+00 0.  1.
    9000007    2    1    2  501    0  0.16571280910E+03  0.10010543938E+03 -0.57619627991E+03  0.72752603603E+03  0.39976261210E+03 0.  0.
    9000005    1    3    3    0    0 -0.13257642847E+02  0.83396341376E+02  0.34276441753E+02  0.91140492108E+02  0.99999687468E+00 0.  0.
          4    1    3    3  501    0  0.17897045194E+03  0.16709098005E+02 -0.61047272166E+03  0.63638554393E+03  0.00000000000E+00 0.  1.
   -9000007    1    1    2    0  503 -0.16571280910E+03 -0.10010543938E+03 -0.23490291362E+03  0.50265416831E+03  0.40000000000E+03 0. -1.
<mgrwt>
<rscale>  2 0.44433586E+03</rscale>
<asrwt>0</asrwt>
<pdfrwt beam="1">  1       21 0.32237001E-01 0.44438928E+03</pdfrwt>
<pdfrwt beam="2">  1       21 0.15702149E+00 0.44438928E+03</pdfrwt>
<totfact> 0.21017022E+03</totfact>
</mgrwt>
</event>
<event>
 6    1  0.9163926E-004  0.4493615E+03  0.7818608E-02  0.1028000E+00
         21   -1    0    0  501  502  0.00000000000E+00  0.00000000000E+00  0.90217526441E+03  0.90217526441E+03  0.00000000000E+00 0. -1.
         21   -1    0    0  502  503 -0.00000000000E+00 -0.00000000000E+00 -0.28775358499E+03  0.28775358499E+03  0.00000000000E+00 0. -1.
    9000007    2    1    2  501    0  0.17637158890E+03  0.10401368023E+03  0.58860946061E+03  0.73982657915E+03  0.39869347506E+03 0.  0.
    9000005    1    3    3    0    0  0.12407735350E+03  0.98995050051E+02  0.10226024812E+02  0.15906219276E+03  0.99999687468E+00 0.  0.
          4    1    3    3  501    0  0.52294235398E+02  0.50186301795E+01  0.57838343579E+03  0.58076438640E+03  0.00000000000E+00 0.  1.
   -9000007    1    1    2    0  503 -0.17637158890E+03 -0.10401368023E+03  0.25812218815E+02  0.45010227025E+03  0.40000000000E+03 0. -1.
<mgrwt>
<rscale>  2 0.44907059E+03</rscale>
<asrwt>0</asrwt>
<pdfrwt beam="1">  1       21 0.13879619E+00 0.44936153E+03</pdfrwt>
<pdfrwt beam="2">  1       21 0.44269783E-01 0.44936153E+03</pdfrwt>
<totfact> 0.15308572E+03</totfact>
</mgrwt>
</event>
<event>
 6    1  0.9163926E-004  0.4850282E+03  0.7818608E-02  0.1017773E+00
         21   -1    0    0  501  502  0.00000000000E+00  0.00000000000E+00  0.45432626539E+03  0.45432626539E+03  0.00000000000E+00 0.  1.
         21   -1    0    0  502  503 -0.00000000000E+00 -0.00000000000E+00 -0.52066069650E+03  0.52066069650E+03  0.00000000000E+00 0. -1.
    9000007    2    1    2  501    0 -0.18933995394E+03  0.19850121185E+03  0.40037974010E+01  0.48488511976E+03  0.39980645281E+03 0.  0.
    9000005    1    3    3    0    0  0.74582117537E+02 -0.22441278665E+02 -0.98663227933E+02  0.12570415977E+03  0.99999687468E+00 0.  0.
          4    1    3    3  501    0 -0.26392207147E+03  0.22094249052E+03  0.10266702533E+03  0.35918095999E+03  0.00000000000E+00 0.  1.
   -9000007    1    1    2    0  503  0.18933995394E+03 -0.19850121185E+03 -0.70338228512E+02  0.49010184212E+03  0.40000000000E+03 0. -1.
<mgrwt>
<rscale>  2 0.48498829E+03</rscale>
<asrwt>0</asrwt>
<pdfrwt beam="1">  1       21 0.69896349E-01 0.48502819E+03</pdfrwt>
<pdfrwt beam="2">  1       21 0.80101645E-01 0.48502819E+03</pdfrwt>
<totfact> 0.21784079E+03</totfact>
</mgrwt>
</event>
<event>
 6    1  0.9163926E-004  0.5642732E+03  0.7818608E-02  0.9982516E-01
         21   -1    0    0  501  502  0.00000000000E+00  0.00000000000E+00  0.19995954172E+04  0.19995954172E+04  0.00000000000E+00 0.  1.
         21   -1    0    0  502  503 -0.00000000000E+00 -0.00000000000E+00 -0.16158592002E+03  0.16158592002E+03  0.00000000000E+00 0.  1.
    9000007    2    1    2  501    0 -0.25403116925E+03  0.30610820632E+03  0.78759247758E+03  0.96886846553E+03  0.40021259829E+03 0.  0.
    9000005    1    3    3    0    0 -0.34293656895E+02  0.71923449182E+02  0.58228997686E+03  0.58771732541E+03  0.99999687468E+00 0.  0.
          4    1    3    3  501    0 -0.21973751236E+03  0.23418475713E+03  0.20530250072E+03  0.38115114012E+03  0.00000000000E+00 0.  1.
   -9000007    1    1    2    0  503  0.25403116925E+03 -0.30610820632E+03  0.10504170196E+04  0.11923128717E+04  0.40000000000E+03 0.  1.
<mgrwt>
<rscale>  2 0.56423546E+03</rscale>
<asrwt>0</asrwt>
<pdfrwt beam="1">  1       21 0.30763005E+00 0.56427315E+03</pdfrwt>
<pdfrwt beam="2">  1       21 0.24859374E-01 0.56427315E+03</pdfrwt>
<totfact> 0.35200245E+02</totfact>
</mgrwt>
</event>
<event>
 6    1  0.9163926E-004  0.4265143E+03  0.7818608E-02  0.1034998E+00
         21   -1    0    0  501  502  0.00000000000E+00  0.00000000000E+00  0.10110760979E+04  0.10110760979E+04  0.00000000000E+00 0.  1.
         21   -1    0    0  502  503 -0.00000000000E+00 -0.00000000000E+00 -0.60728809869E+03  0.60728809869E+03  0.00000000000E+00 0. -1.
    9000007    2    1    2  501    0  0.55784544392E+02  0.13712229083E+03  0.88081060465E+03  0.97846967076E+03  0.39957619712E+03 0.  0.
    9000005    1    3    3    0    0  0.14284649573E+03  0.24695305001E+03  0.56435033095E+03  0.63236320757E+03  0.99999687468E+00 0.  0.
          4    1    3    3  501    0 -0.87061951341E+02 -0.10983075918E+03  0.31646027370E+03  0.34610646319E+03  0.00000000000E+00 0.  1.
   -9000007    1    1    2    0  503 -0.55784544392E+02 -0.13712229083E+03 -0.47702260546E+03  0.63989452580E+03  0.40000000000E+03 0. -1.
<mgrwt>
<rscale>  2 0.42641490E+03</rscale>
<asrwt>0</asrwt>
<pdfrwt beam="1">  1       21 0.15555017E+00 0.42651429E+03</pdfrwt>
<pdfrwt beam="2">  1       21 0.93428938E-01 0.42651429E+03</pdfrwt>
<totfact> 0.21626157E+02</totfact>
</mgrwt>
</event>
<event>
 6    1  0.9163926E-004  0.4481695E+03  0.7818608E-02  0.1028425E+00
         21   -1    0    0  501  502  0.00000000000E+00  0.00000000000E+00  0.13455555957E+03  0.13455555957E+03  0.00000000000E+00 0. -1.
         21   -1    0    0  502  503 -0.00000000000E+00 -0.00000000000E+00 -0.15502591001E+04  0.15502591001E+04  0.00000000000E+00 0.  1.
    9000007    2    1    2  501    0 -0.18674040756E+03  0.77356036769E+02 -0.53457582011E+03  0.69625914988E+03  0.39768022342E+03 0.  0.
    9000005    1    3    3    0    0 -0.29148507690E+03  0.83248102504E+02 -0.50196214298E+03  0.58639644406E+03  0.99999687468E+00 0.  0.
          4    1    3    3  501    0  0.10474466934E+03 -0.58920657345E+01 -0.32613677133E+02  0.10986270582E+03  0.00000000000E+00 0.  1.
   -9000007    1    1    2    0  503  0.18674040756E+03 -0.77356036769E+02 -0.88112772046E+03  0.98855550983E+03  0.40000000000E+03 0.  1.
<mgrwt>
<rscale>  2 0.44765134E+03</rscale>
<asrwt>0</asrwt>
<pdfrwt beam="1">  1       21 0.20700856E-01 0.44816954E+03</pdfrwt>
<pdfrwt beam="2">  1       21 0.23850139E+00 0.44816954E+03</pdfrwt>
<totfact> 0.13977654E+03</totfact>
</mgrwt>
</event>
<event>
 6    1  0.9163926E-004  0.4096103E+03  0.7818608E-02  0.1040524E+00
         21   -1    0    0  501  502  0.00000000000E+00  0.00000000000E+00  0.56063322930E+03  0.56063322930E+03  0.00000000000E+00 0. -1.
         21   -1    0    0  502  503 -0.00000000000E+00 -0.00000000000E+00 -0.30248482215E+03  0.30248482215E+03  0.00000000000E+00 0. -1.
    9000007    2    1    2  501    0 -0.77824849946E+02  0.38872474854E+02  0.83328120211E+02  0.41800019145E+03  0.40026592144E+03 0.  0.
    9000005    1    3    3    0    0 -0.89448387259E+01  0.12795575776E+03 -0.12631692365E+03  0.18002680711E+03  0.99999687468E+00 0.  0.
          4    1    3    3  501    0 -0.68880011220E+02 -0.89083282903E+02  0.20964504386E+03  0.23797338434E+03  0.00000000000E+00 0.  1.
   -9000007    1    1    2    0  503  0.77824849946E+02 -0.38872474854E+02  0.17482028693E+03  0.44511786000E+03  0.40000000000E+03 0. -1.
<mgrwt>
<rscale>  2 0.40954531E+03</rscale>
<asrwt>0</asrwt>
<pdfrwt beam="1">  1       21 0.86251266E-01 0.40961028E+03</pdfrwt>
<pdfrwt beam="2">  1       21 0.46536127E-01 0.40961028E+03</pdfrwt>
<totfact> 0.45607233E+03</totfact>
</mgrwt>
</event>
<event>
 6    1  0.9163926E-004  0.5266357E+03  0.7818608E-02  0.1007108E+00
         21   -1    0    0  501  502  0.00000000000E+00  0.00000000000E+00  0.55001726729E+03  0.55001726729E+03  0.00000000000E+00 0. -1.
         21   -1    0    0  502  503 -0.00000000000E+00 -0.00000000000E+00 -0.84407344962E+03  0.84407344962E+03  0.00000000000E+00 0.  1.
    9000007    2    1    2  501    0  0.34068790428E+03 -0.35733195307E+02  0.29591019484E+03  0.60326492347E+03  0.39877388971E+03 0.  0.
    9000005    1    3    3    0    0  0.22436608919E+03 -0.20399017358E+03  0.25146990432E+03  0.39394193185E+03  0.99999687468E+00 0.  0.
          4    1    3    3  501    0  0.11632181508E+03  0.16825697827E+03  0.44440290518E+02  0.20932299163E+03  0.00000000000E+00 0.  1.
   -9000007    1    1    2    0  503 -0.34068790428E+03  0.35733195307E+02 -0.58996637717E+03  0.79082579343E+03  0.40000000000E+03 0.  1.
<mgrwt>
<rscale>  2 0.52640283E+03</rscale>
<asrwt>0</asrwt>
<pdfrwt beam="1">  1       21 0.84618041E-01 0.52663565E+03</pdfrwt>
<pdfrwt beam="2">  1       21 0.12985745E+00 0.52663565E+03</pdfrwt>
<totfact> 0.42306209E+02</totfact>
</mgrwt>
</event>
<event>
 6    1  0.9163926E-004  0.6670571E+03  0.7818608E-02  0.9775349E-01
         21   -1    0    0  501  502  0.00000000000E+00  0.00000000000E+00  0.10730138299E+04  0.10730138299E+04  0.00000000000E+00 0. -1.
         21   -1    0    0  502  503 -0.00000000000E+00 -0.00000000000E+00 -0.41601097647E+03  0.41601097647E+03  0.00000000000E+00 0.  1.
    9000007    2    1    2  501    0 -0.13100660196E+03 -0.51732577826E+03  0.37181597259E+03  0.76368333669E+03  0.40022047757E+03 0.  0.
    9000005    1    3    3    0    0  0.10778788829E+03 -0.23938077498E+02  0.11132619664E+03  0.15679854103E+03  0.99999687468E+00 0.  0.
          4    1    3    3  501    0 -0.23879449025E+03 -0.49338770076E+03  0.26048977595E+03  0.60688479567E+03  0.00000000000E+00 0.  1.
   -9000007    1    1    2    0  503  0.13100660196E+03  0.51732577826E+03  0.28518688084E+03  0.72534146966E+03  0.40000000000E+03 0. -1.
<mgrwt>
<rscale>  2 0.66702399E+03</rscale>
<asrwt>0</asrwt>
<pdfrwt beam="1">  1       21 0.16507905E+00 0.66705706E+03</pdfrwt>
<pdfrwt beam="2">  1       21 0.64001689E-01 0.66705706E+03</pdfrwt>
<totfact> 0.39698896E+02</totfact>
</mgrwt>
</event>
<event>
 6    1  0.9163926E-004  0.4336686E+03  0.7818608E-02  0.1032826E+00
         21   -1    0    0  501  502  0.00000000000E+00  0.00000000000E+00  0.72141191810E+03  0.72141191810E+03  0.00000000000E+00 0. -1.
         21   -1    0    0  502  503 -0.00000000000E+00 -0.00000000000E+00 -0.25979251862E+03  0.25979251862E+03  0.00000000000E+00 0. -1.
    9000007    2    1    2  501    0 -0.58761344872E+02  0.15264515528E+03  0.23422283400E+03  0.49287807345E+03  0.40164041161E+03 0.  0.
    9000005    1    3    3    0    0 -0.66454061411E+02 -0.11461025340E+03 -0.71456647436E+01  0.13267898470E+03  0.99999687468E+00 0.  0.
          4    1    3    3  501    0  0.76927165390E+01  0.26725540867E+03  0.24136849874E+03  0.36019908875E+03  0.00000000000E+00 0.  1.
   -9000007    1    1    2    0  503  0.58761344872E+02 -0.15264515528E+03  0.22739656549E+03  0.48832636328E+03  0.40000000000E+03 0. -1.
<mgrwt>
<rscale>  2 0.43328840E+03</rscale>
<asrwt>0</asrwt>
<pdfrwt beam="1">  1       21 0.11098645E+00 0.43366861E+03</pdfrwt>
<pdfrwt beam="2">  1       21 0.39968080E-01 0.43366861E+03</pdfrwt>
<totfact> 0.33758863E+03</totfact>
</mgrwt>
</event>
<event>
 6    1  0.9163926E-004  0.5137496E+03  0.7818608E-02  0.1010275E+00
         21   -1    0    0  501  502  0.00000000000E+00  0.00000000000E+00  0.84130516148E+03  0.84130516148E+03  0.00000000000E+00 0.  1.
         21   -1    0    0  502  503 -0.00000000000E+00 -0.00000000000E+00 -0.31674580891E+03  0.31674580891E+03  0.00000000000E+00 0. -1.
    9000007    2    1    2  501    0  0.29101037093E+03  0.13734247738E+03  0.32104186504E+03  0.60581066055E+03  0.40048556185E+03 0.  0.
    9000005    1    3    3    0    0  0.26346394266E+03  0.13584723895E+03  0.13184411057E+02  0.29671964900E+03  0.99999687468E+00 0.  0.
          4    1    3    3  501    0  0.27546428262E+02  0.14952384306E+01  0.30785745399E+03  0.30909101155E+03  0.00000000000E+00 0.  1.
   -9000007    1    1    2    0  503 -0.29101037093E+03 -0.13734247738E+03  0.20351748753E+03  0.55224030984E+03  0.40000000000E+03 0. -1.
<mgrwt>
<rscale>  2 0.51365499E+03</rscale>
<asrwt>0</asrwt>
<pdfrwt beam="1">  1       21 0.12943156E+00 0.51374963E+03</pdfrwt>
<pdfrwt beam="2">  1       21 0.48730125E-01 0.51374963E+03</pdfrwt>
<totfact> 0.14660177E+03</totfact>
</mgrwt>
</event>
<event>
 6    1  0.9163926E-004  0.4732677E+03  0.7818608E-02  0.1021035E+00
         21   -1    0    0  501  502  0.00000000000E+00  0.00000000000E+00  0.11380995087E+04  0.11380995087E+04  0.00000000000E+00 0. -1.
         21   -1    0    0  502  503 -0.00000000000E+00 -0.00000000000E+00 -0.20307894651E+03  0.20307894651E+03  0.00000000000E+00 0. -1.
    9000007    2    1    2  501    0  0.22711931962E+03  0.11135118527E+03  0.34755819531E+03  0.58679506176E+03  0.39943644497E+03 0.  0.
    9000005    1    3    3    0    0  0.22162576650E+03 -0.73987764258E+02  0.54369702200E+02  0.23989421450E+03  0.99999687468E+00 0.  0.
          4    1    3    3  501    0  0.54935531165E+01  0.18533894953E+03  0.29318849311E+03  0.34690084726E+03  0.00000000000E+00 0.  1.
   -9000007    1    1    2    0  503 -0.22711931962E+03 -0.11135118527E+03  0.58746236686E+03  0.75438339343E+03  0.40000000000E+03 0. -1.
<mgrwt>
<rscale>  2 0.47314856E+03</rscale>
<asrwt>0</asrwt>
<pdfrwt beam="1">  1       21 0.17509223E+00 0.47326765E+03</pdfrwt>
<pdfrwt beam="2">  1       21 0.31242916E-01 0.47326765E+03</pdfrwt>
<totfact> 0.16259147E+03</totfact>
</mgrwt>
</event>
<event>
 6    1  0.9163926E-004  0.4036111E+03  0.7818608E-02  0.1042593E+00
         21   -1    0    0  501  502  0.00000000000E+00  0.00000000000E+00  0.47362088341E+03  0.47362088341E+03  0.00000000000E+00 0. -1.
         21   -1    0    0  502  503 -0.00000000000E+00 -0.00000000000E+00 -0.36128331445E+03  0.36128331445E+03  0.00000000000E+00 0. -1.
    9000007    2    1    2  501    0 -0.13198669193E+02 -0.52227888195E+02  0.14903059635E+03  0.42962856890E+03  0.39933523686E+03 0.  0.
    9000005    1    3    3    0    0 -0.20548461399E+03 -0.19879541101E+02  0.58005441089E+02  0.21444056037E+03  0.99999687468E+00 0.  0.
          4    1    3    3  501    0  0.19228594480E+03 -0.32348347094E+02  0.91025155258E+02  0.21518800853E+03  0.00000000000E+00 0.  1.
   -9000007    1    1    2    0  503  0.13198669193E+02  0.52227888195E+02 -0.36693027384E+02  0.40527562896E+03  0.40000000000E+03 0. -1.
<mgrwt>
<rscale>  2 0.40344634E+03</rscale>
<asrwt>0</asrwt>
<pdfrwt beam="1">  1       21 0.72864752E-01 0.40361115E+03</pdfrwt>
<pdfrwt beam="2">  1       21 0.55582048E-01 0.40361115E+03</pdfrwt>
<totfact> 0.46172054E+03</totfact>
</mgrwt>
</event>
<event>
 6    1  0.9163926E-004  0.5779888E+03  0.7818608E-02  0.9952166E-01
         21   -1    0    0  501  502  0.00000000000E+00  0.00000000000E+00  0.63906461452E+03  0.63906461452E+03  0.00000000000E+00 0.  1.
         21   -1    0    0  502  503 -0.00000000000E+00 -0.00000000000E+00 -0.55737127286E+03  0.55737127286E+03  0.00000000000E+00 0. -1.
    9000007    2    1    2  501    0 -0.39068727494E+03 -0.14640545496E+03 -0.10828901676E+03  0.58802451294E+03  0.39996901457E+03 0.  0.
    9000005    1    3    3    0    0 -0.33176109816E+03 -0.21368075821E+03 -0.21452018839E+03  0.44916010943E+03  0.99999687468E+00 0.  0.
          4    1    3    3  501    0 -0.58926176784E+02  0.67275303244E+02  0.10623117163E+03  0.13886440351E+03  0.00000000000E+00 0.  1.
   -9000007    1    1    2    0  503  0.39068727494E+03  0.14640545496E+03  0.18998235842E+03  0.60841137445E+03  0.40000000000E+03 0.  1.
<mgrwt>
<rscale>  2 0.57798348E+03</rscale>
<asrwt>0</asrwt>
<pdfrwt beam="1">  1       21 0.98317634E-01 0.57798884E+03</pdfrwt>
<pdfrwt beam="2">  1       21 0.85749426E-01 0.57798884E+03</pdfrwt>
<totfact> 0.81107430E+02</totfact>
</mgrwt>
</event>
<event>
 6    1  0.9163926E-004  0.4098815E+03  0.7818608E-02  0.1040486E+00
         21   -1    0    0  501  502  0.00000000000E+00  0.00000000000E+00  0.16099456235E+04  0.16099456235E+04  0.00000000000E+00 0.  1.
         21   -1    0    0  502  503 -0.00000000000E+00 -0.00000000000E+00 -0.52911760757E+03  0.52911760757E+03  0.00000000000E+00 0.  1.
    9000007    2    1    2  501    0  0.83395410948E+02 -0.32373023307E+02  0.14988322792E+04  0.15536314492E+04  0.39908604512E+03 0.  0.
    9000005    1    3    3    0    0  0.54499609058E+02  0.76082894436E+02  0.61651631543E+02  0.11207469776E+03  0.99999687468E+00 0.  0.
          4    1    3    3  501    0  0.28895801890E+02 -0.10845591774E+03  0.14371806477E+04  0.14415567514E+04  0.00000000000E+00 0.  1.
   -9000007    1    1    2    0  503 -0.83395410948E+02  0.32373023307E+02 -0.41800426325E+03  0.58543178194E+03  0.40000000000E+03 0.  1.
<mgrwt>
<rscale>  2 0.40965830E+03</rscale>
<asrwt>0</asrwt>
<pdfrwt beam="1">  1       21 0.24768394E+00 0.40988146E+03</pdfrwt>
<pdfrwt beam="2">  1       21 0.81402710E-01 0.40988146E+03</pdfrwt>
<totfact> 0.72639704E+01</totfact>
</mgrwt>
</event>
<event>
 6    1  0.9163926E-004  0.4004918E+03  0.7818608E-02  0.1043623E+00
         21   -1    0    0  501  502  0.00000000000E+00  0.00000000000E+00  0.65025787041E+03  0.65025787041E+03  0.00000000000E+00 0.  1.
         21   -1    0    0  502  503 -0.00000000000E+00 -0.00000000000E+00 -0.91812595776E+03  0.91812595776E+03  0.00000000000E+00 0.  1.
    9000007    2    1    2  501    0 -0.20948871463E+01  0.19729630335E+02  0.53674961674E+03  0.66960504749E+03  0.39984637262E+03 0.  0.
    9000005    1    3    3    0    0  0.97604044417E+02 -0.12869255614E+02 -0.22177267792E+02  0.10092075320E+03  0.99999687468E+00 0.  0.
          4    1    3    3  501    0 -0.99698931563E+02  0.32598885949E+02  0.55892688453E+03  0.56868429429E+03  0.00000000000E+00 0.  1.
   -9000007    1    1    2    0  503  0.20948871463E+01 -0.19729630335E+02 -0.80461770408E+03  0.89877878067E+03  0.40000000000E+03 0.  1.
<mgrwt>
<rscale>  2 0.40045339E+03</rscale>
<asrwt>0</asrwt>
<pdfrwt beam="1">  1       21 0.10003967E+00 0.40049176E+03</pdfrwt>
<pdfrwt beam="2">  1       21 0.14125015E+00 0.40049176E+03</pdfrwt>
<totfact> 0.24153430E+02</totfact>
</mgrwt>
</event>
<event>
 6    1  0.9163926E-004  0.4624840E+03  0.7818608E-02  0.1024068E+00
         21   -1    0    0  501  502  0.00000000000E+00  0.00000000000E+00  0.11073489940E+04  0.11073489940E+04  0.00000000000E+00 0.  1.
         21   -1    0    0  502  503 -0.00000000000E+00 -0.00000000000E+00 -0.50647154027E+03  0.50647154027E+03  0.00000000000E+00 0.  1.
    9000007    2    1    2  501    0  0.15669801724E+03 -0.17128110278E+03  0.93511319128E+03  0.10432024370E+04  0.39992894265E+03 0.  0.
    9000005    1    3    3    0    0  0.61302812732E+02  0.68358112584E+02  0.22088289670E+02  0.94444475430E+02  0.99999687468E+00 0.  0.
          4    1    3    3  501    0  0.95395204507E+02 -0.23963921536E+03  0.91302490161E+03  0.94875796152E+03  0.00000000000E+00 0.  1.
   -9000007    1    1    2    0  503 -0.15669801724E+03  0.17128110278E+03 -0.33423573753E+03  0.57061809735E+03  0.40000000000E+03 0.  1.
<mgrwt>
<rscale>  2 0.46246867E+03</rscale>
<asrwt>0</asrwt>
<pdfrwt beam="1">  1       21 0.17036138E+00 0.46248404E+03</pdfrwt>
<pdfrwt beam="2">  1       21 0.77918698E-01 0.46248404E+03</pdfrwt>
<totfact> 0.25165381E+02</totfact>
</mgrwt>
</event>
<event>
 6    1  0.9163926E-004  0.4426982E+03  0.7818608E-02  0.1029956E+00
         21   -1    0    0  501  502  0.00000000000E+00  0.00000000000E+00  0.57757167589E+03  0.57757167589E+03  0.00000000000E+00 0. -1.
         21   -1    0    0  502  503 -0.00000000000E+00 -0.00000000000E+00 -0.52566695913E+03  0.52566695913E+03  0.00000000000E+00 0. -1.
    9000007    2    1    2  501    0  0.15300053155E+03 -0.11212721887E+03  0.35467544701E+03  0.56690684315E+03  0.39950847330E+03 0.  0.
    9000005    1    3    3    0    0 -0.12153276974E+03 -0.11015291267E+03  0.98028280199E+02  0.19108747213E+03  0.99999687468E+00 0.  0.
          4    1    3    3  501    0  0.27453330130E+03 -0.19743061948E+01  0.25664716681E+03  0.37581937103E+03  0.00000000000E+00 0.  1.
   -9000007    1    1    2    0  503 -0.15300053155E+03  0.11212721887E+03 -0.30277073025E+03  0.53633179186E+03  0.40000000000E+03 0.  1.
<mgrwt>
<rscale>  2 0.44258712E+03</rscale>
<asrwt>0</asrwt>
<pdfrwt beam="1">  1       21 0.88857181E-01 0.44269818E+03</pdfrwt>
<pdfrwt beam="2">  1       21 0.80871840E-01 0.44269818E+03</pdfrwt>
<totfact> 0.12445786E+03</totfact>
</mgrwt>
</event>
<event>
 6    1  0.9163926E-004  0.5939439E+03  0.7818608E-02  0.9918405E-01
         21   -1    0    0  501  502  0.00000000000E+00  0.00000000000E+00  0.31334228121E+03  0.31334228121E+03  0.00000000000E+00 0.  1.
         21   -1    0    0  502  503 -0.00000000000E+00 -0.00000000000E+00 -0.11304236830E+04  0.11304236830E+04  0.00000000000E+00 0. -1.
    9000007    2    1    2  501    0  0.43537495485E+03  0.49174849802E+02 -0.35673940161E+03  0.69284368177E+03  0.40099856551E+03 0.  0.
    9000005    1    3    3    0    0  0.18445017027E+03 -0.14996029264E+03 -0.27248931051E+03  0.36160942883E+03  0.99999687468E+00 0.  0.
          4    1    3    3  501    0  0.25092478458E+03  0.19913514244E+03 -0.84250091104E+02  0.33123425294E+03  0.00000000000E+00 0.  1.
   -9000007    1    1    2    0  503 -0.43537495485E+03 -0.49174849802E+02 -0.46034200022E+03  0.75092228248E+03  0.40000000000E+03 0. -1.
<mgrwt>
<rscale>  2 0.59377541E+03</rscale>
<asrwt>0</asrwt>
<pdfrwt beam="1">  1       21 0.48206505E-01 0.59394391E+03</pdfrwt>
<pdfrwt beam="2">  1       21 0.17391134E+00 0.59394391E+03</pdfrwt>
<totfact> 0.64897655E+02</totfact>
</mgrwt>
</event>
<event>
 6    1  0.9163926E-004  0.5033860E+03  0.7818608E-02  0.1012916E+00
         21   -1    0    0  501  502  0.00000000000E+00  0.00000000000E+00  0.14851321623E+04  0.14851321623E+04  0.00000000000E+00 0.  1.
         21   -1    0    0  502  503 -0.00000000000E+00 -0.00000000000E+00 -0.20698611334E+03  0.20698611334E+03  0.00000000000E+00 0. -1.
    9000007    2    1    2  501    0 -0.21565572625E+03 -0.21593959335E+03  0.28416278259E+03  0.57805363027E+03  0.40032513313E+03 0.  0.
    9000005    1    3    3    0    0 -0.21893645552E+03 -0.29215209245E+03  0.99720639893E+02  0.37845901059E+03  0.99999687468E+00 0.  0.
          4    1    3    3  501    0  0.32807292704E+01  0.76212499099E+02  0.18444214270E+03  0.19959461968E+03  0.00000000000E+00 0.  1.
   -9000007    1    1    2    0  503  0.21565572625E+03  0.21593959335E+03  0.99398326640E+03  0.11140646454E+04  0.40000000000E+03 0.  1.
<mgrwt>
<rscale>  2 0.50332140E+03</rscale>
<asrwt>0</asrwt>
<pdfrwt beam="1">  1       21 0.22848186E+00 0.50338605E+03</pdfrwt>
<pdfrwt beam="2">  1       21 0.31844018E-01 0.50338605E+03</pdfrwt>
<totfact> 0.67859977E+02</totfact>
</mgrwt>
</event>
<event>
 6    1  0.9163926E-004  0.4038446E+03  0.7818608E-02  0.1042509E+00
         21   -1    0    0  501  502  0.00000000000E+00  0.00000000000E+00  0.36938437606E+04  0.36938437606E+04  0.00000000000E+00 0. -1.
         21   -1    0    0  502  503 -0.00000000000E+00 -0.00000000000E+00 -0.90684695954E+02  0.90684695954E+02  0.00000000000E+00 0. -1.
    9000007    2    1    2  501    0  0.53993224925E+02  0.13235960363E+02  0.31573707367E+04  0.31830156202E+04  0.39938453937E+03 0.  0.
    9000005    1    3    3    0    0  0.10455529915E+03  0.19096308831E+03  0.18034945102E+04  0.18165880546E+04  0.99999687468E+00 0.  0.
          4    1    3    3  501    0 -0.50562074221E+02 -0.17772712795E+03  0.13538762265E+04  0.13664275656E+04  0.00000000000E+00 0.  1.
   -9000007    1    1    2    0  503 -0.53993224925E+02 -0.13235960363E+02  0.44578832789E+03  0.60151283633E+03  0.40000000000E+03 0. -1.
<mgrwt>
<rscale>  2 0.40369211E+03</rscale>
<asrwt>0</asrwt>
<pdfrwt beam="1">  1       21 0.56828354E+00 0.40384460E+03</pdfrwt>
<pdfrwt beam="2">  1       21 0.13951494E-01 0.40384460E+03</pdfrwt>
<totfact> 0.20477484E+01</totfact>
</mgrwt>
</event>
<event>
 6    1  0.9163926E-004  0.5120555E+03  0.7818608E-02  0.1010732E+00
         21   -1    0    0  501  502  0.00000000000E+00  0.00000000000E+00  0.55923010290E+03  0.55923010290E+03  0.00000000000E+00 0.  1.
         21   -1    0    0  502  503 -0.00000000000E+00 -0.00000000000E+00 -0.64991715169E+03  0.64991715169E+03  0.00000000000E+00 0.  1.
    9000007    2    1    2  501    0  0.31699164927E+03  0.29456146104E+02  0.27439932105E+03  0.58094392150E+03  0.40106044718E+03 0.  0.
    9000005    1    3    3    0    0  0.76139538135E+02  0.18694575959E+03  0.31374207861E+02  0.20428237126E+03  0.99999687468E+00 0.  0.
          4    1    3    3  501    0  0.24085211113E+03 -0.15748961348E+03  0.24302511319E+03  0.37666155025E+03  0.00000000000E+00 0.  1.
   -9000007    1    1    2    0  503 -0.31699164927E+03 -0.29456146104E+02 -0.36508636984E+03  0.62820333308E+03  0.40000000000E+03 0.  1.
<mgrwt>
<rscale>  2 0.51184785E+03</rscale>
<asrwt>0</asrwt>
<pdfrwt beam="1">  1       21 0.86035401E-01 0.51205552E+03</pdfrwt>
<pdfrwt beam="2">  1       21 0.99987254E-01 0.51205552E+03</pdfrwt>
<totfact> 0.79023163E+02</totfact>
</mgrwt>
</event>
<event>
 6    1  0.9163926E-004  0.4236952E+03  0.7818608E-02  0.1035928E+00
         21   -1    0    0  501  502  0.00000000000E+00  0.00000000000E+00  0.46472347204E+03  0.46472347204E+03  0.00000000000E+00 0.  1.
         21   -1    0    0  502  503 -0.00000000000E+00 -0.00000000000E+00 -0.45563690172E+03  0.45563690172E+03  0.00000000000E+00 0. -1.
    9000007    2    1    2  501    0  0.10459440251E+03  0.92615662148E+02  0.18490912959E+03  0.46163254350E+03  0.39924374648E+03 0.  0.
    9000005    1    3    3    0    0  0.96056946921E+02  0.24008569094E+03  0.53809869053E+02  0.26412985073E+03  0.99999687468E+00 0.  0.
          4    1    3    3  501    0  0.85374555845E+01 -0.14747002879E+03  0.13109926054E+03  0.19750269277E+03  0.00000000000E+00 0.  1.
   -9000007    1    1    2    0  503 -0.10459440251E+03 -0.92615662148E+02 -0.17582255926E+03  0.45872783026E+03  0.40000000000E+03 0. -1.
<mgrwt>
<rscale>  2 0.42351665E+03</rscale>
<asrwt>0</asrwt>
<pdfrwt beam="1">  1       21 0.71495919E-01 0.42369523E+03</pdfrwt>
<pdfrwt beam="2">  1       21 0.70097985E-01 0.42369523E+03</pdfrwt>
<totfact> 0.28691106E+03</totfact>
</mgrwt>
</event>
<event>
 6    1  0.9163926E-004  0.4893803E+03  0.7818608E-02  0.1016616E+00
         21   -1    0    0  501  502  0.00000000000E+00  0.00000000000E+00  0.41386275030E+03  0.41386275030E+03  0.00000000000E+00 0.  1.
         21   -1    0    0  502  503 -0.00000000000E+00 -0.00000000000E+00 -0.58206847482E+03  0.58206847482E+03  0.00000000000E+00 0.  1.
    9000007    2    1    2  501    0 -0.97441580471E+02  0.26382320130E+03 -0.12473548045E+03  0.50502674840E+03  0.40049411152E+03 0.  0.
    9000005    1    3    3    0    0  0.13270185685E+03  0.63064301016E+01 -0.84188742484E+02  0.15728413216E+03  0.99999687468E+00 0.  0.
          4    1    3    3  501    0 -0.23014343733E+03  0.25751677119E+03 -0.40546737971E+02  0.34774261624E+03  0.00000000000E+00 0.  1.
   -9000007    1    1    2    0  503  0.97441580471E+02 -0.26382320130E+03 -0.43470244061E+02  0.49090447672E+03  0.40000000000E+03 0.  1.
<mgrwt>
<rscale>  2 0.48927920E+03</rscale>
<asrwt>0</asrwt>
<pdfrwt beam="1">  1       21 0.63671193E-01 0.48938030E+03</pdfrwt>
<pdfrwt beam="2">  1       21 0.89548996E-01 0.48938030E+03</pdfrwt>
<totfact> 0.20637778E+03</totfact>
</mgrwt>
</event>
<event>
 6    1  0.9163926E-004  0.4588983E+03  0.7818608E-02  0.1025137E+00
         21   -1    0    0  501  502  0.00000000000E+00  0.00000000000E+00  0.66489895157E+03  0.66489895157E+03  0.00000000000E+00 0.  1.
         21   -1    0    0  502  503 -0.00000000000E+00 -0.00000000000E+00 -0.61289024092E+03  0.61289024092E+03  0.00000000000E+00 0. -1.
    9000007    2    1    2  501    0  0.18211522041E+03 -0.13026352428E+03  0.47039449082E+03  0.65715951200E+03  0.40056598451E+03 0.  0.
    9000005    1    3    3    0    0  0.21254589864E+03  0.70211681991E+02  0.36617071058E+03  0.42917062877E+03  0.99999687468E+00 0.  0.
          4    1    3    3  501    0 -0.30430678224E+02 -0.20047520627E+03  0.10422378024E+03  0.22798888323E+03  0.00000000000E+00 0.  1.
   -9000007    1    1    2    0  503 -0.18211522041E+03  0.13026352428E+03 -0.41838578018E+03  0.62062968050E+03  0.40000000000E+03 0. -1.
<mgrwt>
<rscale>  2 0.45877476E+03</rscale>
<asrwt>0</asrwt>
<pdfrwt beam="1">  1       21 0.10229215E+00 0.45889830E+03</pdfrwt>
<pdfrwt beam="2">  1       21 0.94290807E-01 0.45889830E+03</pdfrwt>
<totfact> 0.61421607E+02</totfact>
</mgrwt>
</event>
<event>
 6    1  0.9163926E-004  0.4313905E+03  0.7818608E-02  0.1033446E+00
         21   -1    0    0  501  502  0.00000000000E+00  0.00000000000E+00  0.14711111507E+04  0.14711111507E+04  0.00000000000E+00 0.  1.
         21   -1    0    0  502  503 -0.00000000000E+00 -0.00000000000E+00 -0.13416613347E+03  0.13416613347E+03  0.00000000000E+00 0.  1.
    9000007    2    1    2  501    0 -0.91498182174E+02  0.13313859179E+03  0.86123806685E+03  0.96309747710E+03  0.39965978110E+03 0.  0.
    9000005    1    3    3    0    0 -0.68454530048E+02  0.23198502307E+03  0.81758141658E+03  0.85260978551E+03  0.99999687468E+00 0.  0.
          4    1    3    3  501    0 -0.23043652125E+02 -0.98846431279E+02  0.43656650272E+02  0.11048769159E+03  0.00000000000E+00 0.  1.
   -9000007    1    1    2    0  503  0.91498182174E+02 -0.13313859179E+03  0.47570695034E+03  0.64217980704E+03  0.40000000000E+03 0. -1.
<mgrwt>
<rscale>  2 0.43131166E+03</rscale>
<asrwt>0</asrwt>
<pdfrwt beam="1">  1       21 0.22632478E+00 0.43139054E+03</pdfrwt>
<pdfrwt beam="2">  1       21 0.20640945E-01 0.43139054E+03</pdfrwt>
<totfact> 0.16888385E+03</totfact>
</mgrwt>
</event>
<event>
 6    1  0.9163926E-004  0.4110599E+03  0.7818608E-02  0.1040098E+00
         21   -1    0    0  501  502  0.00000000000E+00  0.00000000000E+00  0.48390177320E+03  0.48390177320E+03  0.00000000000E+00 0. -1.
         21   -1    0    0  502  503 -0.00000000000E+00 -0.00000000000E+00 -0.35707658497E+03  0.35707658497E+03  0.00000000000E+00 0. -1.
    9000007    2    1    2  501    0 -0.51285135376E+02 -0.79624349886E+02 -0.23868349163E+01  0.41008864010E+03  0.39899472873E+03 0.  0.
    9000005    1    3    3    0    0 -0.19950788352E+03 -0.14335822478E+03 -0.25916051236E+02  0.24703768519E+03  0.99999687468E+00 0.  0.
          4    1    3    3  501    0  0.14822274815E+03  0.63733874894E+02  0.23529216319E+02  0.16305095491E+03  0.00000000000E+00 0.  1.
   -9000007    1    1    2    0  503  0.51285135376E+02  0.79624349886E+02  0.12921202315E+03  0.43088971806E+03  0.40000000000E+03 0. -1.
<mgrwt>
<rscale>  2 0.41081509E+03</rscale>
<asrwt>0</asrwt>
<pdfrwt beam="1">  1       21 0.74446427E-01 0.41105985E+03</pdfrwt>
<pdfrwt beam="2">  1       21 0.54934859E-01 0.41105985E+03</pdfrwt>
<totfact> 0.44976393E+03</totfact>
</mgrwt>
</event>
<event>
 6    1  0.9163926E-004  0.4059161E+03  0.7818608E-02  0.1041822E+00
         21   -1    0    0  501  502  0.00000000000E+00  0.00000000000E+00  0.22949456256E+03  0.22949456256E+03  0.00000000000E+00 0.  1.
         21   -1    0    0  502  503 -0.00000000000E+00 -0.00000000000E+00 -0.72330686463E+03  0.72330686463E+03  0.00000000000E+00 0.  1.
    9000007    2    1    2  501    0  0.14351341056E+02  0.62280884228E+02 -0.29347392189E+03  0.50089398522E+03  0.40085280599E+03 0.  0.
    9000005    1    3    3    0    0  0.11816502766E+03  0.10877388891E+03  0.25156192688E+02  0.16256865225E+03  0.99999687468E+00 0.  0.
          4    1    3    3  501    0 -0.10381368661E+03 -0.46493004679E+02 -0.31863011458E+03  0.33832533297E+03  0.00000000000E+00 0.  1.
   -9000007    1    1    2    0  503 -0.14351341056E+02 -0.62280884228E+02 -0.20033838017E+03  0.45190744196E+03  0.40000000000E+03 0.  1.
<mgrwt>
<rscale>  2 0.40570535E+03</rscale>
<asrwt>0</asrwt>
<pdfrwt beam="1">  1       21 0.35306856E-01 0.40591605E+03</pdfrwt>
<pdfrwt beam="2">  1       21 0.11127798E+00 0.40591605E+03</pdfrwt>
<totfact> 0.43640636E+03</totfact>
</mgrwt>
</event>
<event>
 6    1  0.9163926E-004  0.4043521E+03  0.7818608E-02  0.1042324E+00
         21   -1    0    0  501  502  0.00000000000E+00  0.00000000000E+00  0.21438034896E+03  0.21438034896E+03  0.00000000000E+00 0. -1.
         21   -1    0    0  502  503 -0.00000000000E+00 -0.00000000000E+00 -0.76248814912E+03  0.76248814912E+03  0.00000000000E+00 0. -1.
    9000007    2    1    2  501    0 -0.35970785975E+02  0.42622480412E+02 -0.25908250953E+03  0.48023363030E+03  0.40048722782E+03 0.  0.
    9000005    1    3    3    0    0 -0.11998836544E+03  0.19574244088E+03 -0.15249034836E+03  0.27562042257E+03  0.99999687468E+00 0.  0.
          4    1    3    3  501    0  0.84017579464E+02 -0.15311996047E+03 -0.10659216117E+03  0.20461320772E+03  0.00000000000E+00 0.  1.
   -9000007    1    1    2    0  503  0.35970785975E+02 -0.42622480412E+02 -0.28902529063E+03  0.49663486779E+03  0.40000000000E+03 0. -1.
<mgrwt>
<rscale>  2 0.40423137E+03</rscale>
<asrwt>0</asrwt>
<pdfrwt beam="1">  1       21 0.32981592E-01 0.40435207E+03</pdfrwt>
<pdfrwt beam="2">  1       21 0.11730587E+00 0.40435207E+03</pdfrwt>
<totfact> 0.43918884E+03</totfact>
</mgrwt>
</event>
<event>
 6    1  0.9163926E-004  0.4667005E+03  0.7818608E-02  0.1022858E+00
         21   -1    0    0  501  502  0.00000000000E+00  0.00000000000E+00  0.14906786386E+04  0.14906786386E+04  0.00000000000E+00 0. -1.
         21   -1    0    0  502  503 -0.00000000000E+00 -0.00000000000E+00 -0.14898168283E+03  0.14898168283E+03  0.00000000000E+00 0. -1.
    9000007    2    1    2  501    0  0.19286158323E+02  0.23960862729E+03  0.78477234981E+03  0.91305914683E+03  0.40003139179E+03 0.  0.
    9000005    1    3    3    0    0 -0.74355236329E+02  0.31121676207E+03  0.69421507423E+03  0.76440836170E+03  0.99999687468E+00 0.  0.
          4    1    3    3  501    0  0.93641394652E+02 -0.71608134779E+02  0.90557275577E+02  0.14865078513E+03  0.00000000000E+00 0.  1.
   -9000007    1    1    2    0  503 -0.19286158323E+02 -0.23960862729E+03  0.55692460594E+03  0.72660117456E+03  0.40000000000E+03 0. -1.
<mgrwt>
<rscale>  2 0.46669378E+03</rscale>
<asrwt>0</asrwt>
<pdfrwt beam="1">  1       21 0.22933517E+00 0.46670051E+03</pdfrwt>
<pdfrwt beam="2">  1       21 0.22920260E-01 0.46670051E+03</pdfrwt>
<totfact> 0.13007819E+03</totfact>
</mgrwt>
</event>
<event>
 6    1  0.9163926E-004  0.4287598E+03  0.7818608E-02  0.1034269E+00
         21   -1    0    0  501  502  0.00000000000E+00  0.00000000000E+00  0.31016372050E+03  0.31016372050E+03  0.00000000000E+00 0. -1.
         21   -1    0    0  502  503 -0.00000000000E+00 -0.00000000000E+00 -0.67448481011E+03  0.67448481011E+03  0.00000000000E+00 0.  1.
    9000007    2    1    2  501    0 -0.11539602670E+03  0.10166575203E+03 -0.10459158737E+02  0.42888740005E+03  0.40022848450E+03 0.  0.
    9000005    1    3    3    0    0 -0.21939718805E+03  0.15830325645E+03 -0.91259995942E+02  0.28552483952E+03  0.99999687468E+00 0.  0.
          4    1    3    3  501    0  0.10400116135E+03 -0.56637504427E+02  0.80800837205E+02  0.14336256053E+03  0.00000000000E+00 0.  1.
   -9000007    1    1    2    0  503  0.11539602670E+03 -0.10166575203E+03 -0.35386193087E+03  0.55576113055E+03  0.40000000000E+03 0.  1.
<mgrwt>
<rscale>  2 0.42870652E+03</rscale>
<asrwt>0</asrwt>
<pdfrwt beam="1">  1       21 0.47717496E-01 0.42875985E+03</pdfrwt>
<pdfrwt beam="2">  1       21 0.10376689E+00 0.42875985E+03</pdfrwt>
<totfact> 0.27596954E+03</totfact>
</mgrwt>
</event>
<event>
 6    1  0.9163926E-004  0.4015380E+03  0.7818608E-02  0.1043271E+00
         21   -1    0    0  501  502  0.00000000000E+00  0.00000000000E+00  0.13600773281E+03  0.13600773281E+03  0.00000000000E+00 0.  1.
         21   -1    0    0  502  503 -0.00000000000E+00 -0.00000000000E+00 -0.12822860895E+04  0.12822860895E+04  0.00000000000E+00 0.  1.
    9000007    2    1    2  501    0  0.31448725733E+01  0.31837025408E+02 -0.76894387317E+03  0.86747189204E+03  0.40026156071E+03 0.  0.
    9000005    1    3    3    0    0  0.45744567604E+02 -0.17877831780E+03 -0.39992837723E+03  0.44045199431E+03  0.99999687468E+00 0.  0.
          4    1    3    3  501    0 -0.42599695031E+02  0.21061534321E+03 -0.36901549593E+03  0.42701989773E+03  0.00000000000E+00 0.  1.
   -9000007    1    1    2    0  503 -0.31448725733E+01 -0.31837025408E+02 -0.37733448351E+03  0.55082193026E+03  0.40000000000E+03 0. -1.
<mgrwt>
<rscale>  2 0.40147285E+03</rscale>
<asrwt>0</asrwt>
<pdfrwt beam="1">  1       21 0.20924267E-01 0.40153805E+03</pdfrwt>
<pdfrwt beam="2">  1       21 0.19727478E+00 0.40153805E+03</pdfrwt>
<totfact> 0.25745433E+03</totfact>
</mgrwt>
</event>
<event>
 6    1  0.9163926E-004  0.5992364E+03  0.7818608E-02  0.9907072E-01
         21   -1    0    0  501  502  0.00000000000E+00  0.00000000000E+00  0.22291889984E+04  0.22291889984E+04  0.00000000000E+00 0. -1.
         21   -1    0    0  502  503 -0.00000000000E+00 -0.00000000000E+00 -0.17295684633E+03  0.17295684633E+03  0.00000000000E+00 0.  1.
    9000007    2    1    2  501    0  0.27264907454E+03  0.35319499299E+03  0.13432418167E+04  0.14707815555E+04  0.39976941473E+03 0.  0.
    9000005    1    3    3    0    0  0.17021576061E+03  0.32368106375E+03  0.13085270950E+04  0.13586710398E+04  0.99999687468E+00 0.  0.
          4    1    3    3  501    0  0.10243331393E+03  0.29513929249E+02  0.34714721739E+02  0.11211051569E+03  0.00000000000E+00 0.  1.
   -9000007    1    1    2    0  503 -0.27264907454E+03 -0.35319499299E+03  0.71299033535E+03  0.93136428921E+03  0.40000000000E+03 0.  1.
<mgrwt>
<rscale>  2 0.59919789E+03</rscale>
<asrwt>0</asrwt>
<pdfrwt beam="1">  1       21 0.34295213E+00 0.59923636E+03</pdfrwt>
<pdfrwt beam="2">  1       21 0.26608747E-01 0.59923636E+03</pdfrwt>
<totfact> 0.18419666E+02</totfact>
</mgrwt>
</event>
<event>
 6    1  0.9163926E-004  0.4992266E+03  0.7818608E-02  0.1013997E+00
         21   -1    0    0  501  502  0.00000000000E+00  0.00000000000E+00  0.70554644150E+03  0.70554644150E+03  0.00000000000E+00 0. -1.
         21   -1    0    0  502  503 -0.00000000000E+00 -0.00000000000E+00 -0.35309918159E+03  0.35309918159E+03  0.00000000000E+00 0. -1.
    9000007    2    1    2  501    0  0.15779762340E+03 -0.25362782836E+03  0.17115233579E+03  0.52751944714E+03  0.39969548383E+03 0.  0.
    9000005    1    3    3    0    0  0.14587213395E+03 -0.30281011046E+03 -0.13172498011E+02  0.33637353814E+03  0.99999687468E+00 0.  0.
          4    1    3    3  501    0  0.11925489448E+02  0.49182282098E+02  0.18432483380E+03  0.19114590900E+03  0.00000000000E+00 0.  1.
   -9000007    1    1    2    0  503 -0.15779762340E+03  0.25362782836E+03  0.18129492412E+03  0.53112617595E+03  0.40000000000E+03 0. -1.
<mgrwt>
<rscale>  2 0.49916557E+03</rscale>
<asrwt>0</asrwt>
<pdfrwt beam="1">  1       21 0.10854561E+00 0.49922657E+03</pdfrwt>
<pdfrwt beam="2">  1       21 0.54322951E-01 0.49922657E+03</pdfrwt>
<totfact> 0.18251887E+03</totfact>
</mgrwt>
</event>
<event>
 6    1  0.9163926E-004  0.5553901E+03  0.7818608E-02  0.1000292E+00
         21   -1    0    0  501  502  0.00000000000E+00  0.00000000000E+00  0.53482757316E+03  0.53482757316E+03  0.00000000000E+00 0. -1.
         21   -1    0    0  502  503 -0.00000000000E+00 -0.00000000000E+00 -0.93566729372E+03  0.93566729372E+03  0.00000000000E+00 0.  1.
    9000007    2    1    2  501    0 -0.33899978514E+03 -0.18109674022E+03  0.25532559566E+03  0.61126858362E+03  0.40092547672E+03 0.  0.
    9000005    1    3    3    0    0 -0.99685337091E+01 -0.20227676483E+03  0.18465236341E+03  0.27406706581E+03  0.99999687468E+00 0.  0.
          4    1    3    3  501    0 -0.32903125143E+03  0.21180024605E+02  0.70673232242E+02  0.33720151781E+03  0.00000000000E+00 0.  1.
   -9000007    1    1    2    0  503  0.33899978514E+03  0.18109674022E+03 -0.65616531622E+03  0.85922628326E+03  0.40000000000E+03 0.  1.
<mgrwt>
<rscale>  2 0.55522306E+03</rscale>
<asrwt>0</asrwt>
<pdfrwt beam="1">  1       21 0.82281166E-01 0.55539006E+03</pdfrwt>
<pdfrwt beam="2">  1       21 0.14394881E+00 0.55539006E+03</pdfrwt>
<totfact> 0.33993988E+02</totfact>
</mgrwt>
</event>
<event>
 6    1  0.9163926E-004  0.4997366E+03  0.7818608E-02  0.1013917E+00
         21   -1    0    0  501  502  0.00000000000E+00  0.00000000000E+00  0.83705703853E+03  0.83705703853E+03  0.00000000000E+00 0.  1.
         21   -1    0    0  502  503 -0.00000000000E+00 -0.00000000000E+00 -0.48266976623E+03  0.48266976623E+03  0.00000000000E+00 0. -1.
    9000007    2    1    2  501    0  0.89817723938E+02  0.28391256864E+03 -0.23116062836E+03  0.55061048448E+03  0.40132667410E+03 0.  0.
    9000005    1    3    3    0    0  0.13541847069E+03  0.32512955294E+03 -0.45612890173E+02  0.35514634187E+03  0.99999687468E+00 0.  0.
          4    1    3    3  501    0 -0.45600746749E+02 -0.41216984304E+02 -0.18554773819E+03  0.19546414261E+03  0.00000000000E+00 0.  1.
   -9000007    1    1    2    0  503 -0.89817723938E+02 -0.28391256864E+03  0.58554790066E+03  0.76911632029E+03  0.40000000000E+03 0.  1.
<mgrwt>
<rscale>  2 0.49947019E+03</rscale>
<asrwt>0</asrwt>
<pdfrwt beam="1">  1       21 0.12877801E+00 0.49973660E+03</pdfrwt>
<pdfrwt beam="2">  1       21 0.74256887E-01 0.49973660E+03</pdfrwt>
<totfact> 0.59108505E+02</totfact>
</mgrwt>
</event>
<event>
 6    1  0.9163926E-004  0.5271501E+03  0.7818608E-02  0.1006928E+00
         21   -1    0    0  501  502  0.00000000000E+00  0.00000000000E+00  0.67765195938E+03  0.67765195938E+03  0.00000000000E+00 0.  1.
         21   -1    0    0  502  503 -0.00000000000E+00 -0.00000000000E+00 -0.43601900225E+03  0.43601900225E+03  0.00000000000E+00 0.  1.
    9000007    2    1    2  501    0 -0.31627165874E+03 -0.13363933925E+03  0.25671838694E+03  0.58630504946E+03  0.39995255433E+03 0.  0.
    9000005    1    3    3    0    0 -0.10781559375E+03 -0.25754677413E+03  0.95424385871E+02  0.29506161481E+03  0.99999687468E+00 0.  0.
          4    1    3    3  501    0 -0.20845606499E+03  0.12390743488E+03  0.16129400106E+03  0.29124343465E+03  0.00000000000E+00 0.  1.
   -9000007    1    1    2    0  503  0.31627165874E+03  0.13363933925E+03 -0.15085429805E+02  0.52736591216E+03  0.40000000000E+03 0. -1.
<mgrwt>
<rscale>  2 0.52714111E+03</rscale>
<asrwt>0</asrwt>
<pdfrwt beam="1">  1       21 0.10425415E+00 0.52715011E+03</pdfrwt>
<pdfrwt beam="2">  1       21 0.67079847E-01 0.52715011E+03</pdfrwt>
<totfact> 0.12560147E+03</totfact>
</mgrwt>
</event>
<event>
 6    1  0.9163926E-004  0.5114909E+03  0.7818608E-02  0.1010837E+00
         21   -1    0    0  501  502  0.00000000000E+00  0.00000000000E+00  0.14006507627E+04  0.14006507627E+04  0.00000000000E+00 0. -1.
         21   -1    0    0  502  503 -0.00000000000E+00 -0.00000000000E+00 -0.18684182907E+03  0.18684182907E+03  0.00000000000E+00 0.  1.
    9000007    2    1    2  501    0 -0.31649594079E+03 -0.34830740703E+02  0.58525221567E+03  0.77726644511E+03  0.40030002463E+03 0.  0.
    9000005    1    3    3    0    0 -0.37390238290E+03  0.36837621329E+02  0.57219106099E+03  0.68451706520E+03  0.99999687468E+00 0.  0.
          4    1    3    3  501    0  0.57406442111E+02 -0.71668362033E+02  0.13061154682E+02  0.92749379911E+02  0.00000000000E+00 0.  1.
   -9000007    1    1    2    0  503  0.31649594079E+03  0.34830740703E+02  0.62855671794E+03  0.81022614664E+03  0.40000000000E+03 0.  1.
<mgrwt>
<rscale>  2 0.51143223E+03</rscale>
<asrwt>0</asrwt>
<pdfrwt beam="1">  1       21 0.21548473E+00 0.51149093E+03</pdfrwt>
<pdfrwt beam="2">  1       21 0.28744898E-01 0.51149093E+03</pdfrwt>
<totfact> 0.10047922E+03</totfact>
</mgrwt>
</event>
<event>
 6    1  0.9163926E-004  0.4262503E+03  0.7818608E-02  0.1035123E+00
         21   -1    0    0  501  502  0.00000000000E+00  0.00000000000E+00  0.30416401145E+03  0.30416401145E+03  0.00000000000E+00 0.  1.
         21   -1    0    0  502  503 -0.00000000000E+00 -0.00000000000E+00 -0.17988194324E+04  0.17988194324E+04  0.00000000000E+00 0.  1.
    9000007    2    1    2  501    0 -0.20055890515E+02 -0.14590102357E+03  0.11273027486E+03  0.44004083435E+03  0.39904695664E+03 0.  0.
    9000005    1    3    3    0    0  0.98221098277E+02 -0.84850712961E+02 -0.11686182306E+03  0.17465598564E+03  0.99999687468E+00 0.  0.
          4    1    3    3  501    0 -0.11827698879E+03 -0.61050310611E+02  0.22959209791E+03  0.26538484871E+03  0.00000000000E+00 0.  1.
   -9000007    1    1    2    0  503  0.20055890515E+02  0.14590102357E+03 -0.16073856958E+04  0.16629426095E+04  0.40000000000E+03 0.  1.
<mgrwt>
<rscale>  2 0.42602660E+03</rscale>
<asrwt>0</asrwt>
<pdfrwt beam="1">  1       21 0.46794463E-01 0.42625033E+03</pdfrwt>
<pdfrwt beam="2">  1       21 0.27674145E+00 0.42625033E+03</pdfrwt>
<totfact> 0.16203820E+02</totfact>
</mgrwt>
</event>
<event>
 6    1  0.9163926E-004  0.4155766E+03  0.7818608E-02  0.1038542E+00
         21   -1    0    0  501  502  0.00000000000E+00  0.00000000000E+00  0.80898986906E+03  0.80898986906E+03  0.00000000000E+00 0.  1.
         21   -1    0    0  502  503 -0.00000000000E+00 -0.00000000000E+00 -0.22408197038E+03  0.22408197038E+03  0.00000000000E+00 0.  1.
    9000007    2    1    2  501    0 -0.98046926460E+02 -0.53113035778E+02  0.40579227284E+03  0.58083672163E+03  0.40033702569E+03 0.  0.
    9000005    1    3    3    0    0  0.43780588203E+02  0.14979350818E+03  0.22696439142E+03  0.27544267999E+03  0.99999687468E+00 0.  0.
          4    1    3    3  501    0 -0.14182751466E+03 -0.20290654395E+03  0.17882788142E+03  0.30539404164E+03  0.00000000000E+00 0.  1.
   -9000007    1    1    2    0  503  0.98046926460E+02  0.53113035778E+02  0.17911562584E+03  0.45223511781E+03  0.40000000000E+03 0.  1.
<mgrwt>
<rscale>  2 0.41549543E+03</rscale>
<asrwt>0</asrwt>
<pdfrwt beam="1">  1       21 0.12445998E+00 0.41557662E+03</pdfrwt>
<pdfrwt beam="2">  1       21 0.34474150E-01 0.41557662E+03</pdfrwt>
<totfact> 0.34417245E+03</totfact>
</mgrwt>
</event>
<event>
 6    1  0.9163926E-004  0.5556688E+03  0.7818608E-02  0.1000265E+00
         21   -1    0    0  501  502  0.00000000000E+00  0.00000000000E+00  0.32946781427E+03  0.32946781427E+03  0.00000000000E+00 0. -1.
         21   -1    0    0  502  503 -0.00000000000E+00 -0.00000000000E+00 -0.93502136633E+03  0.93502136633E+03  0.00000000000E+00 0. -1.
    9000007    2    1    2  501    0  0.37785387904E+03 -0.77422855722E+02 -0.30661928005E+03  0.63351410068E+03  0.39819201444E+03 0.  0.
    9000005    1    3    3    0    0  0.34428057639E+03 -0.21439325712E+03 -0.17902177368E+03  0.44333213218E+03  0.99999687468E+00 0.  0.
          4    1    3    3  501    0  0.33573302647E+02  0.13697040140E+03 -0.12759750636E+03  0.19018196849E+03  0.00000000000E+00 0.  1.
   -9000007    1    1    2    0  503 -0.37785387904E+03  0.77422855722E+02 -0.29893427202E+03  0.63097507992E+03  0.40000000000E+03 0. -1.
<mgrwt>
<rscale>  2 0.55534353E+03</rscale>
<asrwt>0</asrwt>
<pdfrwt beam="1">  1       21 0.50687357E-01 0.55566883E+03</pdfrwt>
<pdfrwt beam="2">  1       21 0.14384944E+00 0.55566883E+03</pdfrwt>
<totfact> 0.10044011E+03</totfact>
</mgrwt>
</event>
<event>
 6    1  0.9163926E-004  0.6054306E+03  0.7818608E-02  0.9894433E-01
         21   -1    0    0  501  502  0.00000000000E+00  0.00000000000E+00  0.14417173323E+04  0.14417173323E+04  0.00000000000E+00 0. -1.
         21   -1    0    0  502  503 -0.00000000000E+00 -0.00000000000E+00 -0.27773811263E+03  0.27773811263E+03  0.00000000000E+00 0.  1.
    9000007    2    1    2  501    0  0.34443631272E+03  0.29558025383E+03  0.33113372580E+03  0.69006937711E+03  0.40067710303E+03 0.  0.
    9000005    1    3    3    0    0  0.29638233035E+03 -0.64840467697E+01  0.12806784399E+03  0.32293482511E+03  0.99999687468E+00 0.  0.
          4    1    3    3  501    0  0.48053982361E+02  0.30206430060E+03  0.20306588181E+03  0.36713455200E+03  0.00000000000E+00 0.  1.
   -9000007    1    1    2    0  503 -0.34443631272E+03 -0.29558025383E+03  0.83284549387E+03  0.10293860678E+04  0.40000000000E+03 0. -1.
<mgrwt>
<rscale>  2 0.60531859E+03</rscale>
<asrwt>0</asrwt>
<pdfrwt beam="1">  1       21 0.22180266E+00 0.60543059E+03</pdfrwt>
<pdfrwt beam="2">  1       21 0.42728941E-01 0.60543059E+03</pdfrwt>
<totfact> 0.39347405E+02</totfact>
</mgrwt>
</event>
<event>
 6    1  0.9163926E-004  0.5144371E+03  0.7818608E-02  0.1010113E+00
         21   -1    0    0  501  502  0.00000000000E+00  0.00000000000E+00  0.18910776048E+03  0.18910776048E+03  0.00000000000E+00 0.  1.
         21   -1    0    0  502  503 -0.00000000000E+00 -0.00000000000E+00 -0.18402507485E+04  0.18402507485E+04  0.00000000000E+00 0.  1.
    9000007    2    1    2  501    0  0.28947888817E+03  0.14438661190E+03 -0.32777809711E+03  0.60952043550E+03  0.39928831682E+03 0.  0.
    9000005    1    3    3    0    0  0.18390483922E+02  0.72423655537E+02 -0.32034369468E+03  0.32894449151E+03  0.99999687468E+00 0.  0.
          4    1    3    3  501    0  0.27108840425E+03  0.71962956366E+02 -0.74344024304E+01  0.28057594399E+03  0.00000000000E+00 0.  1.
   -9000007    1    1    2    0  503 -0.28947888817E+03 -0.14438661190E+03 -0.13233648909E+04  0.14198380735E+04  0.40000000000E+03 0.  1.
<mgrwt>
<rscale>  2 0.51429874E+03</rscale>
<asrwt>0</asrwt>
<pdfrwt beam="1">  1       21 0.29093502E-01 0.51443709E+03</pdfrwt>
<pdfrwt beam="2">  1       21 0.28311550E+00 0.51443709E+03</pdfrwt>
<totfact> 0.37236597E+02</totfact>
</mgrwt>
</event>
<event>
 6    1  0.9163926E-004  0.4264268E+03  0.7818608E-02  0.1035049E+00
         21   -1    0    0  501  502  0.00000000000E+00  0.00000000000E+00  0.23879251005E+03  0.23879251005E+03  0.00000000000E+00 0. -1.
         21   -1    0    0  502  503 -0.00000000000E+00 -0.00000000000E+00 -0.79094459506E+03  0.79094459506E+03  0.00000000000E+00 0. -1.
    9000007    2    1    2  501    0 -0.12493175752E+03 -0.78942364559E+02 -0.17450405120E+03  0.46012506310E+03  0.39927881092E+03 0.  0.
    9000005    1    3    3    0    0 -0.24993353743E+03  0.36608543192E+02 -0.77625906782E+02  0.26426074238E+03  0.99999687468E+00 0.  0.
          4    1    3    3  501    0  0.12500177991E+03 -0.11555090775E+03 -0.96878144414E+02  0.19586432071E+03  0.00000000000E+00 0.  1.
   -9000007    1    1    2    0  503  0.12493175752E+03  0.78942364559E+02 -0.37764803381E+03  0.56961204201E+03  0.40000000000E+03 0. -1.
<mgrwt>
<rscale>  2 0.42625762E+03</rscale>
<asrwt>0</asrwt>
<pdfrwt beam="1">  1       21 0.36737310E-01 0.42642683E+03</pdfrwt>
<pdfrwt beam="2">  1       21 0.12168378E+00 0.42642683E+03</pdfrwt>
<totfact> 0.31923108E+03</totfact>
</mgrwt>
</event>
<event>
 6    1  0.9163926E-004  0.5429315E+03  0.7818608E-02  0.1003169E+00
         21   -1    0    0  501  502  0.00000000000E+00  0.00000000000E+00  0.52967849962E+03  0.52967849962E+03  0.00000000000E+00 0.  1.
         21   -1    0    0  502  503 -0.00000000000E+00 -0.00000000000E+00 -0.15608968149E+04  0.15608968149E+04  0.00000000000E+00 0. -1.
    9000007    2    1    2  501    0 -0.31768528672E+03  0.18398557103E+03  0.32313588940E+03  0.63144888289E+03  0.39941990053E+03 0.  0.
    9000005    1    3    3    0    0 -0.42850236821E+02  0.96144679668E+02 -0.82444100765E+02  0.13370853364E+03  0.99999687468E+00 0.  0.
          4    1    3    3  501    0 -0.27483504990E+03  0.87840891365E+02  0.40557999016E+03  0.49774034925E+03  0.00000000000E+00 0.  1.
   -9000007    1    1    2    0  503  0.31768528672E+03 -0.18398557103E+03 -0.13543542047E+04  0.14591264316E+04  0.40000000000E+03 0. -1.
<mgrwt>
<rscale>  2 0.54282467E+03</rscale>
<asrwt>0</asrwt>
<pdfrwt beam="1">  1       21 0.81489002E-01 0.54293152E+03</pdfrwt>
<pdfrwt beam="2">  1       21 0.24013797E+00 0.54293152E+03</pdfrwt>
<totfact> 0.74655669E+01</totfact>
</mgrwt>
</event>
<event>
 6    1  0.9163926E-004  0.4770345E+03  0.7818608E-02  0.1020285E+00
         21   -1    0    0  501  502  0.00000000000E+00  0.00000000000E+00  0.17731077321E+04  0.17731077321E+04  0.00000000000E+00 0.  1.
         21   -1    0    0  502  503 -0.00000000000E+00 -0.00000000000E+00 -0.13912527452E+03  0.13912527452E+03  0.00000000000E+00 0. -1.
    9000007    2    1    2  501    0 -0.10723874266E+03 -0.23677363458E+03  0.10947761362E+04  0.11922987326E+04  0.39430898708E+03 0.  0.
    9000005    1    3    3    0    0 -0.35550874559E+02 -0.33291623789E+03  0.93051458067E+03  0.98891631141E+03  0.99999687468E+00 0.  0.
          4    1    3    3  501    0 -0.71687868104E+02  0.96142603314E+02  0.16426155554E+03  0.20338242115E+03  0.00000000000E+00 0.  1.
   -9000007    1    1    2    0  503  0.10723874266E+03  0.23677363458E+03  0.53920632137E+03  0.71993427406E+03  0.40000000000E+03 0. -1.
<mgrwt>
<rscale>  2 0.47583955E+03</rscale>
<asrwt>0</asrwt>
<pdfrwt beam="1">  1       21 0.27278579E+00 0.47703449E+03</pdfrwt>
<pdfrwt beam="2">  1       21 0.21403890E-01 0.47703449E+03</pdfrwt>
<totfact> 0.79712491E+02</totfact>
</mgrwt>
</event>
<event>
 6    1  0.9163926E-004  0.4285709E+03  0.7818608E-02  0.1034729E+00
         21   -1    0    0  501  502  0.00000000000E+00  0.00000000000E+00  0.90690815534E+03  0.90690815534E+03  0.00000000000E+00 0. -1.
         21   -1    0    0  502  503 -0.00000000000E+00 -0.00000000000E+00 -0.68591116891E+03  0.68591116891E+03  0.00000000000E+00 0. -1.
    9000007    2    1    2  501    0  0.11031730593E+03 -0.83987966709E+02  0.78096496829E+03  0.89083070095E+03  0.40552332796E+03 0.  0.
    9000005    1    3    3    0    0  0.34680003418E+02 -0.22859352473E+03  0.61958362927E+03  0.66131881558E+03  0.99999687468E+00 0.  0.
          4    1    3    3  501    0  0.75637302507E+02  0.14460555802E+03  0.16138133901E+03  0.22951188537E+03  0.00000000000E+00 0.  1.
   -9000007    1    1    2    0  503 -0.11031730593E+03  0.83987966709E+02 -0.55996798185E+03  0.70198862330E+03  0.40000000000E+03 0. -1.
<mgrwt>
<rscale>  2 0.42725931E+03</rscale>
<asrwt>0</asrwt>
<pdfrwt beam="1">  1       21 0.13952433E+00 0.42857095E+03</pdfrwt>
<pdfrwt beam="2">  1       21 0.10552479E+00 0.42857095E+03</pdfrwt>
<totfact> 0.21566376E+02</totfact>
</mgrwt>
</event>
<event>
 6    1  0.9163926E-004  0.4221091E+03  0.7818608E-02  0.1036405E+00
         21   -1    0    0  501  502  0.00000000000E+00  0.00000000000E+00  0.48648904994E+03  0.48648904994E+03  0.00000000000E+00 0.  1.
         21   -1    0    0  502  503 -0.00000000000E+00 -0.00000000000E+00 -0.86126858302E+03  0.86126858302E+03  0.00000000000E+00 0. -1.
    9000007    2    1    2  501    0  0.57036586733E+02 -0.12119166232E+03  0.32359445967E+03  0.53187355726E+03  0.40029428591E+03 0.  0.
    9000005    1    3    3    0    0 -0.16223393238E+03 -0.97413346204E+02  0.21374082410E+03  0.28547390198E+03  0.99999687468E+00 0.  0.
          4    1    3    3  501    0  0.21927051911E+03 -0.23778316119E+02  0.10985363557E+03  0.24639965527E+03  0.00000000000E+00 0.  1.
   -9000007    1    1    2    0  503 -0.57036586733E+02  0.12119166232E+03 -0.69837399275E+03  0.81588407570E+03  0.40000000000E+03 0. -1.
<mgrwt>
<rscale>  2 0.42203933E+03</rscale>
<asrwt>0</asrwt>
<pdfrwt beam="1">  1       21 0.74844470E-01 0.42210912E+03</pdfrwt>
<pdfrwt beam="2">  1       21 0.13250286E+00 0.42210912E+03</pdfrwt>
<totfact> 0.55781355E+02</totfact>
</mgrwt>
</event>
<event>
 6    1  0.9163926E-004  0.5060561E+03  0.7818608E-02  0.1012234E+00
         21   -1    0    0  501  502  0.00000000000E+00  0.00000000000E+00  0.29667003584E+03  0.29667003584E+03  0.00000000000E+00 0.  1.
         21   -1    0    0  502  503 -0.00000000000E+00 -0.00000000000E+00 -0.21404676189E+04  0.21404676189E+04  0.00000000000E+00 0.  1.
    9000007    2    1    2  501    0 -0.17141652237E+03 -0.25828118445E+03  0.19777698288E+02  0.50607431459E+03  0.39953380353E+03 0.  0.
    9000005    1    3    3    0    0 -0.14965566973E+03 -0.51225188810E+02  0.18273281291E+03  0.24168806416E+03  0.99999687468E+00 0.  0.
          4    1    3    3  501    0 -0.21760852642E+02 -0.20705599564E+03 -0.16295511462E+03  0.26438625043E+03  0.00000000000E+00 0.  1.
   -9000007    1    1    2    0  503  0.17141652237E+03  0.25828118445E+03 -0.18635752814E+04  0.19310633402E+04  0.40000000000E+03 0.  1.
<mgrwt>
<rscale>  2 0.50596399E+03</rscale>
<asrwt>0</asrwt>
<pdfrwt beam="1">  1       21 0.45641543E-01 0.50605612E+03</pdfrwt>
<pdfrwt beam="2">  1       21 0.32930272E+00 0.50605612E+03</pdfrwt>
<totfact> 0.78307493E+01</totfact>
</mgrwt>
</event>
<event>
 6    1  0.9163926E-004  0.5709192E+03  0.7818608E-02  0.9969888E-01
         21   -1    0    0  501  502  0.00000000000E+00  0.00000000000E+00  0.18170147646E+04  0.18170147646E+04  0.00000000000E+00 0. -1.
         21   -1    0    0  502  503 -0.00000000000E+00 -0.00000000000E+00 -0.37527872209E+03  0.37527872209E+03  0.00000000000E+00 0. -1.
    9000007    2    1    2  501    0 -0.40722156737E+03 -0.10925947524E+02  0.15141634186E+04  0.16167984771E+04  0.39420511918E+03 0.  0.
    9000005    1    3    3    0    0 -0.40439699730E+03 -0.14736046748E+03  0.11490525970E+04  0.12270187078E+04  0.99999687468E+00 0.  0.
          4    1    3    3  501    0 -0.28245700690E+01  0.13643451995E+03  0.36511082168E+03  0.38977976928E+03  0.00000000000E+00 0.  1.
   -9000007    1    1    2    0  503  0.40722156737E+03  0.10925947524E+02 -0.72427376111E+02  0.57549500960E+03  0.40000000000E+03 0. -1.
<mgrwt>
<rscale>  2 0.56990531E+03</rscale>
<asrwt>0</asrwt>
<pdfrwt beam="1">  1       21 0.27954073E+00 0.57091924E+03</pdfrwt>
<pdfrwt beam="2">  1       21 0.57735189E-01 0.57091924E+03</pdfrwt>
<totfact> 0.91617345E+01</totfact>
</mgrwt>
</event>
<event>
 6    1  0.9163926E-004  0.4172285E+03  0.7818608E-02  0.1037980E+00
         21   -1    0    0  501  502  0.00000000000E+00  0.00000000000E+00  0.56115198454E+03  0.56115198454E+03  0.00000000000E+00 0.  1.
         21   -1    0    0  502  503 -0.00000000000E+00 -0.00000000000E+00 -0.58067981493E+03  0.58067981493E+03  0.00000000000E+00 0.  1.
    9000007    2    1    2  501    0  0.11797549635E+03  0.89026977167E+01  0.37992189464E+03  0.56428737816E+03  0.40010264104E+03 0.  0.
    9000005    1    3    3    0    0 -0.70337864207E+02 -0.60434826284E+02 -0.38358818101E+02  0.10036026250E+03  0.99999687468E+00 0.  0.
          4    1    3    3  501    0  0.18831336056E+03  0.69337524001E+02  0.41828071274E+03  0.46392711566E+03  0.00000000000E+00 0.  1.
   -9000007    1    1    2    0  503 -0.11797549635E+03 -0.89026977167E+01 -0.39944972502E+03  0.57754442131E+03  0.40000000000E+03 0.  1.
<mgrwt>
<rscale>  2 0.41720386E+03</rscale>
<asrwt>0</asrwt>
<pdfrwt beam="1">  1       21 0.86331074E-01 0.41722847E+03</pdfrwt>
<pdfrwt beam="2">  1       21 0.89335356E-01 0.41722847E+03</pdfrwt>
<totfact> 0.10669080E+03</totfact>
</mgrwt>
</event>
<event>
 6    1  0.9163926E-004  0.4029875E+03  0.7818608E-02  0.1042913E+00
         21   -1    0    0  501  502  0.00000000000E+00  0.00000000000E+00  0.23377954935E+03  0.23377954935E+03  0.00000000000E+00 0. -1.
         21   -1    0    0  502  503 -0.00000000000E+00 -0.00000000000E+00 -0.10016835168E+04  0.10016835168E+04  0.00000000000E+00 0. -1.
    9000007    2    1    2  501    0 -0.41312486980E+02 -0.26309667582E+02 -0.39524336463E+02  0.40303540742E+03  0.39809100250E+03 0.  0.
    9000005    1    3    3    0    0  0.84572934628E+02  0.11180322610E+03 -0.13374113632E+03  0.19375302366E+03  0.99999687468E+00 0.  0.
          4    1    3    3  501    0 -0.12588542161E+03 -0.13811289368E+03  0.94216799861E+02  0.20928238376E+03  0.00000000000E+00 0.  1.
   -9000007    1    1    2    0  503  0.41312486980E+02  0.26309667582E+02 -0.72837963101E+03  0.83242765876E+03  0.40000000000E+03 0. -1.
<mgrwt>
<rscale>  2 0.40251296E+03</rscale>
<asrwt>0</asrwt>
<pdfrwt beam="1">  1       21 0.35966084E-01 0.40298749E+03</pdfrwt>
<pdfrwt beam="2">  1       21 0.15410516E+00 0.40298749E+03</pdfrwt>
<totfact> 0.18065662E+03</totfact>
</mgrwt>
</event>
<event>
 6    1  0.9163926E-004  0.4274730E+03  0.7818608E-02  0.1034705E+00
         21   -1    0    0  501  502  0.00000000000E+00  0.00000000000E+00  0.73491733440E+03  0.73491733440E+03  0.00000000000E+00 0.  1.
         21   -1    0    0  502  503 -0.00000000000E+00 -0.00000000000E+00 -0.52681500705E+03  0.52681500705E+03  0.00000000000E+00 0.  1.
    9000007    2    1    2  501    0 -0.10639993531E+03 -0.10682818411E+03  0.56270196228E+03  0.70632788680E+03  0.39941504499E+03 0.  0.
    9000005    1    3    3    0    0 -0.20536267773E+03  0.61647683261E+02  0.39228561645E+03  0.44706070184E+03  0.99999687468E+00 0.  0.
          4    1    3    3  501    0  0.98962742426E+02 -0.16847586737E+03  0.17041634583E+03  0.25926718496E+03  0.00000000000E+00 0.  1.
   -9000007    1    1    2    0  503  0.10639993531E+03  0.10682818411E+03 -0.35459963493E+03  0.55540445465E+03  0.40000000000E+03 0.  1.
<mgrwt>
<rscale>  2 0.42733615E+03</rscale>
<asrwt>0</asrwt>
<pdfrwt beam="1">  1       21 0.11306421E+00 0.42747305E+03</pdfrwt>
<pdfrwt beam="2">  1       21 0.81048463E-01 0.42747305E+03</pdfrwt>
<totfact> 0.69441867E+02</totfact>
</mgrwt>
</event>
<event>
 6    1  0.9163926E-004  0.5859444E+03  0.7818608E-02  0.9935862E-01
         21   -1    0    0  501  502  0.00000000000E+00  0.00000000000E+00  0.30749602729E+03  0.30749602729E+03  0.00000000000E+00 0. -1.
         21   -1    0    0  502  503 -0.00000000000E+00 -0.00000000000E+00 -0.22776707673E+04  0.22776707673E+04  0.00000000000E+00 0. -1.
    9000007    2    1    2  501    0 -0.21078135701E+03 -0.37016874331E+03 -0.61635825151E+02  0.58917719830E+03  0.40233955444E+03 0.  0.
    9000005    1    3    3    0    0 -0.43562983676E+02 -0.40632164961E+03 -0.82285482017E+02  0.41685359184E+03  0.99999687468E+00 0.  0.
          4    1    3    3  501    0 -0.16721837333E+03  0.36152906299E+02  0.20649656867E+02  0.17232360646E+03  0.00000000000E+00 0.  1.
   -9000007    1    1    2    0  503  0.21078135701E+03  0.37016874331E+03 -0.19085389148E+04  0.19959895963E+04  0.40000000000E+03 0. -1.
<mgrwt>
<rscale>  2 0.58554295E+03</rscale>
<asrwt>0</asrwt>
<pdfrwt beam="1">  1       21 0.47307081E-01 0.58594436E+03</pdfrwt>
<pdfrwt beam="2">  1       21 0.35041089E+00 0.58594436E+03</pdfrwt>
<totfact> 0.51497175E+01</totfact>
</mgrwt>
</event>
<event>
 6    1  0.9163926E-004  0.5205644E+03  0.7818608E-02  0.1008614E+00
         21   -1    0    0  501  502  0.00000000000E+00  0.00000000000E+00  0.42681505485E+03  0.42681505485E+03  0.00000000000E+00 0.  1.
         21   -1    0    0  502  503 -0.00000000000E+00 -0.00000000000E+00 -0.73758695277E+03  0.73758695277E+03  0.00000000000E+00 0.  1.
    9000007    2    1    2  501    0  0.43349512017E+02  0.32858995886E+03  0.63104555573E+02  0.52437533338E+03  0.40141844011E+03 0.  0.
    9000005    1    3    3    0    0  0.13991389295E+03 -0.14824899443E+02  0.89357439106E+02  0.16667761398E+03  0.99999687468E+00 0.  0.
          4    1    3    3  501    0 -0.96564380932E+02  0.34341485831E+03 -0.26252883533E+02  0.35769771940E+03  0.00000000000E+00 0.  1.
   -9000007    1    1    2    0  503 -0.43349512017E+02 -0.32858995886E+03 -0.37387645349E+03  0.64002667424E+03  0.40000000000E+03 0.  1.
<mgrwt>
<rscale>  2 0.52029094E+03</rscale>
<asrwt>0</asrwt>
<pdfrwt beam="1">  1       21 0.65663855E-01 0.52056441E+03</pdfrwt>
<pdfrwt beam="2">  1       21 0.11347491E+00 0.52056441E+03</pdfrwt>
<totfact> 0.10695057E+03</totfact>
</mgrwt>
</event>
<event>
 6    1  0.9163926E-004  0.4860809E+03  0.7818608E-02  0.1017483E+00
         21   -1    0    0  501  502  0.00000000000E+00  0.00000000000E+00  0.10674289077E+04  0.10674289077E+04  0.00000000000E+00 0. -1.
         21   -1    0    0  502  503 -0.00000000000E+00 -0.00000000000E+00 -0.25011824596E+03  0.25011824596E+03  0.00000000000E+00 0. -1.
    9000007    2    1    2  501    0  0.27588988811E+03  0.90918790076E+01  0.63224601114E+03  0.79750213874E+03  0.40009592608E+03 0.  0.
    9000005    1    3    3    0    0  0.30244695301E+03 -0.13771994058E+03  0.48457381605E+03  0.58758295126E+03  0.99999687468E+00 0.  0.
          4    1    3    3  501    0 -0.26557064907E+02  0.14681181959E+03  0.14767219510E+03  0.20991918748E+03  0.00000000000E+00 0.  1.
   -9000007    1    1    2    0  503 -0.27588988811E+03 -0.90918790076E+01  0.18506465057E+03  0.52004501489E+03  0.40000000000E+03 0. -1.
<mgrwt>
<rscale>  2 0.48606116E+03</rscale>
<asrwt>0</asrwt>
<pdfrwt beam="1">  1       21 0.16421983E+00 0.48608090E+03</pdfrwt>
<pdfrwt beam="2">  1       21 0.38479731E-01 0.48608090E+03</pdfrwt>
<totfact> 0.12738810E+03</totfact>
</mgrwt>
</event>
<event>
 6    1  0.9163926E-004  0.4238035E+03  0.7818608E-02  0.1035854E+00
         21   -1    0    0  501  502  0.00000000000E+00  0.00000000000E+00  0.75320499429E+03  0.75320499429E+03  0.00000000000E+00 0.  1.
         21   -1    0    0  502  503 -0.00000000000E+00 -0.00000000000E+00 -0.31812714851E+03  0.31812714851E+03  0.00000000000E+00 0.  1.
    9000007    2    1    2  501    0 -0.12473145953E+03 -0.63650916794E+02  0.48577089940E+03  0.64450763332E+03  0.39975911059E+03 0.  0.
    9000005    1    3    3    0    0  0.11100951446E+03  0.68650510387E+02  0.26531293700E+03  0.29568219326E+03  0.99999687468E+00 0.  0.
          4    1    3    3  501    0 -0.23574097398E+03 -0.13230142718E+03  0.22045796240E+03  0.34882544006E+03  0.00000000000E+00 0.  1.
   -9000007    1    1    2    0  503  0.12473145953E+03  0.63650916794E+02 -0.50693053614E+02  0.42682450948E+03  0.40000000000E+03 0.  1.
<mgrwt>
<rscale>  2 0.42374661E+03</rscale>
<asrwt>0</asrwt>
<pdfrwt beam="1">  1       21 0.11587769E+00 0.42380346E+03</pdfrwt>
<pdfrwt beam="2">  1       21 0.48942639E-01 0.42380346E+03</pdfrwt>
<totfact> 0.19939321E+03</totfact>
</mgrwt>
</event>
<event>
 6    1  0.9163926E-004  0.5394733E+03  0.7818608E-02  0.1003984E+00
         21   -1    0    0  501  502  0.00000000000E+00  0.00000000000E+00  0.29013331831E+03  0.29013331831E+03  0.00000000000E+00 0. -1.
         21   -1    0    0  502  503 -0.00000000000E+00 -0.00000000000E+00 -0.10574738102E+04  0.10574738102E+04  0.00000000000E+00 0.  1.
    9000007    2    1    2  501    0  0.33475469264E+03  0.13614580753E+03 -0.22996051813E+03  0.58644116674E+03  0.40054340214E+03 0.  0.
    9000005    1    3    3    0    0  0.30594471026E+03  0.25262955878E+03 -0.24374702853E+03  0.46565810808E+03  0.99999687468E+00 0.  0.
          4    1    3    3  501    0  0.28809982380E+02 -0.11648375125E+03  0.13786510407E+02  0.12078305866E+03  0.00000000000E+00 0.  1.
   -9000007    1    1    2    0  503 -0.33475469264E+03 -0.13614580753E+03 -0.53737997380E+03  0.76116596180E+03  0.40000000000E+03 0. -1.
<mgrwt>
<rscale>  2 0.53937240E+03</rscale>
<asrwt>0</asrwt>
<pdfrwt beam="1">  1       21 0.44635895E-01 0.53947326E+03</pdfrwt>
<pdfrwt beam="2">  1       21 0.16268828E+00 0.53947326E+03</pdfrwt>
<totfact> 0.94215529E+02</totfact>
</mgrwt>
</event>
<event>
 6    1  0.9163926E-004  0.4267939E+03  0.7818608E-02  0.1034888E+00
         21   -1    0    0  501  502  0.00000000000E+00  0.00000000000E+00  0.12814423232E+04  0.12814423232E+04  0.00000000000E+00 0. -1.
         21   -1    0    0  502  503 -0.00000000000E+00 -0.00000000000E+00 -0.15426873716E+03  0.15426873716E+03  0.00000000000E+00 0. -1.
    9000007    2    1    2  501    0 -0.13148241016E+03 -0.69752758771E+02  0.76509029505E+03  0.87601705364E+03  0.39986203515E+03 0.  0.
    9000005    1    3    3    0    0 -0.10743527783E+03  0.42889597663E+02  0.75113837706E+03  0.75999455129E+03  0.99999687468E+00 0.  0.
          4    1    3    3  501    0 -0.24047132329E+02 -0.11264235643E+03  0.13951917992E+02  0.11602250235E+03  0.00000000000E+00 0.  1.
   -9000007    1    1    2    0  503  0.13148241016E+03  0.69752758771E+02  0.36208329098E+03  0.55969400671E+03  0.40000000000E+03 0. -1.
<mgrwt>
<rscale>  2 0.42676162E+03</rscale>
<asrwt>0</asrwt>
<pdfrwt beam="1">  1       21 0.19714497E+00 0.42679395E+03</pdfrwt>
<pdfrwt beam="2">  1       21 0.23733653E-01 0.42679395E+03</pdfrwt>
<totfact> 0.20021253E+03</totfact>
</mgrwt>
</event>
<event>
 6    1  0.9163926E-004  0.4289886E+03  0.7818608E-02  0.1034223E+00
         21   -1    0    0  501  502  0.00000000000E+00  0.00000000000E+00  0.11215931641E+04  0.11215931641E+04  0.00000000000E+00 0. -1.
         21   -1    0    0  502  503 -0.00000000000E+00 -0.00000000000E+00 -0.16387254181E+03  0.16387254181E+03  0.00000000000E+00 0.  1.
    9000007    2    1    2  501    0  0.10638329778E+03 -0.11067005293E+03  0.47973577033E+03  0.64356634824E+03  0.40058203729E+03 0.  0.
    9000005    1    3    3    0    0  0.70465332476E+01 -0.11317458620E+03  0.52302585206E+03  0.53517771115E+03  0.99999687468E+00 0.  0.
          4    1    3    3  501    0  0.99336764529E+02  0.25045332664E+01 -0.43290081736E+02  0.10838863709E+03  0.00000000000E+00 0.  1.
   -9000007    1    1    2    0  503 -0.10638329778E+03  0.11067005293E+03  0.47798485195E+03  0.64189935765E+03  0.40000000000E+03 0.  1.
<mgrwt>
<rscale>  2 0.42885269E+03</rscale>
<asrwt>0</asrwt>
<pdfrwt beam="1">  1       21 0.17255279E+00 0.42898862E+03</pdfrwt>
<pdfrwt beam="2">  1       21 0.25211161E-01 0.42898862E+03</pdfrwt>
<totfact> 0.26356068E+03</totfact>
</mgrwt>
</event>
<event>
 6    1  0.9163926E-004  0.4257127E+03  0.7818608E-02  0.1035250E+00
         21   -1    0    0  501  502  0.00000000000E+00  0.00000000000E+00  0.75979005435E+03  0.75979005435E+03  0.00000000000E+00 0.  1.
         21   -1    0    0  502  503 -0.00000000000E+00 -0.00000000000E+00 -0.47272658515E+03  0.47272658515E+03  0.00000000000E+00 0. -1.
    9000007    2    1    2  501    0  0.61742775300E+02 -0.13090587054E+03  0.57749261360E+03  0.71744615388E+03  0.40035327862E+03 0.  0.
    9000005    1    3    3    0    0 -0.14518395055E+03 -0.96890055382E+02  0.11333470064E+03  0.20811491223E+03  0.99999687468E+00 0.  0.
          4    1    3    3  501    0  0.20692672585E+03 -0.34015815160E+02  0.46415791296E+03  0.50933124165E+03  0.00000000000E+00 0.  1.
   -9000007    1    1    2    0  503 -0.61742775300E+02  0.13090587054E+03 -0.29042914440E+03  0.51507048562E+03  0.40000000000E+03 0. -1.
<mgrwt>
<rscale>  2 0.42562958E+03</rscale>
<asrwt>0</asrwt>
<pdfrwt beam="1">  1       21 0.11689078E+00 0.42571266E+03</pdfrwt>
<pdfrwt beam="2">  1       21 0.72727167E-01 0.42571266E+03</pdfrwt>
<totfact> 0.81951200E+02</totfact>
</mgrwt>
</event>
<event>
 6    1  0.9163926E-004  0.4040932E+03  0.7818608E-02  0.1042379E+00
         21   -1    0    0  501  502  0.00000000000E+00  0.00000000000E+00  0.84385243581E+03  0.84385243581E+03  0.00000000000E+00 0.  1.
         21   -1    0    0  502  503 -0.00000000000E+00 -0.00000000000E+00 -0.24941125727E+03  0.24941125727E+03  0.00000000000E+00 0.  1.
    9000007    2    1    2  501    0 -0.57363998364E+02  0.81990933437E+00  0.55609159055E+03  0.68735484684E+03  0.39990939952E+03 0.  0.
    9000005    1    3    3    0    0 -0.25789435603E+02 -0.18373936841E+03  0.14449477987E+03  0.23517013394E+03  0.99999687468E+00 0.  0.
          4    1    3    3  501    0 -0.31574562761E+02  0.18455927774E+03  0.41159681069E+03  0.45218471290E+03  0.00000000000E+00 0.  1.
   -9000007    1    1    2    0  503  0.57363998364E+02 -0.81990933437E+00  0.38349587995E+02  0.40590884624E+03  0.40000000000E+03 0.  1.
<mgrwt>
<rscale>  2 0.40407076E+03</rscale>
<asrwt>0</asrwt>
<pdfrwt beam="1">  1       21 0.12982345E+00 0.40409318E+03</pdfrwt>
<pdfrwt beam="2">  1       21 0.38370963E-01 0.40409318E+03</pdfrwt>
<totfact> 0.24960134E+03</totfact>
</mgrwt>
</event>
<event>
 6    1  0.9163926E-004  0.4092319E+03  0.7818608E-02  0.1040652E+00
         21   -1    0    0  501  502  0.00000000000E+00  0.00000000000E+00  0.20499553388E+03  0.20499553388E+03  0.00000000000E+00 0.  1.
         21   -1    0    0  502  503 -0.00000000000E+00 -0.00000000000E+00 -0.16371371575E+04  0.16371371575E+04  0.00000000000E+00 0.  1.
    9000007    2    1    2  501    0 -0.40023340320E+02  0.76608487631E+02 -0.63805789761E+02  0.41391223137E+03  0.39972669204E+03 0.  0.
    9000005    1    3    3    0    0 -0.27211640104E+01 -0.48050864881E+02 -0.21159603488E+03  0.21700270118E+03  0.99999687468E+00 0.  0.
          4    1    3    3  501    0 -0.37302176309E+02  0.12465935251E+03  0.14779024512E+03  0.19690953019E+03  0.00000000000E+00 0.  1.
   -9000007    1    1    2    0  503  0.40023340320E+02 -0.76608487631E+02 -0.13683358338E+04  0.14282204600E+04  0.40000000000E+03 0.  1.
<mgrwt>
<rscale>  2 0.40916507E+03</rscale>
<asrwt>0</asrwt>
<pdfrwt beam="1">  1       21 0.31537773E-01 0.40923188E+03</pdfrwt>
<pdfrwt beam="2">  1       21 0.25186726E+00 0.40923188E+03</pdfrwt>
<totfact> 0.51933412E+02</totfact>
</mgrwt>
</event>
<event>
 6    1  0.9163926E-004  0.4937150E+03  0.7818608E-02  0.1015435E+00
         21   -1    0    0  501  502  0.00000000000E+00  0.00000000000E+00  0.29127814354E+03  0.29127814354E+03  0.00000000000E+00 0.  1.
         21   -1    0    0  502  503 -0.00000000000E+00 -0.00000000000E+00 -0.19761908199E+04  0.19761908199E+04  0.00000000000E+00 0.  1.
    9000007    2    1    2  501    0 -0.17269573216E+03 -0.23222982479E+03  0.18433083059E+02  0.49401434503E+03  0.39994485510E+03 0.  0.
    9000005    1    3    3    0    0  0.11747842265E+03 -0.35083287615E+02 -0.56960038549E+02  0.13519416719E+03  0.99999687468E+00 0.  0.
          4    1    3    3  501    0 -0.29017415481E+03 -0.19714653717E+03  0.75393121607E+02  0.35882017784E+03  0.00000000000E+00 0.  1.
   -9000007    1    1    2    0  503  0.17269573216E+03  0.23222982479E+03 -0.17033457594E+04  0.17734546184E+04  0.40000000000E+03 0.  1.
<mgrwt>
<rscale>  2 0.49370384E+03</rscale>
<asrwt>0</asrwt>
<pdfrwt beam="1">  1       21 0.44812024E-01 0.49371501E+03</pdfrwt>
<pdfrwt beam="2">  1       21 0.30402935E+00 0.49371501E+03</pdfrwt>
<totfact> 0.11662662E+02</totfact>
</mgrwt>
</event>
<event>
 6    1  0.9163926E-004  0.5620900E+03  0.7818608E-02  0.9987513E-01
         21   -1    0    0  501  502  0.00000000000E+00  0.00000000000E+00  0.66972409186E+03  0.66972409186E+03  0.00000000000E+00 0. -1.
         21   -1    0    0  502  503 -0.00000000000E+00 -0.00000000000E+00 -0.49679810123E+03  0.49679810123E+03  0.00000000000E+00 0.  1.
    9000007    2    1    2  501    0  0.20010979042E+03  0.33992491036E+03 -0.45155535832E+02  0.56390089818E+03  0.40044016737E+03 0.  0.
    9000005    1    3    3    0    0 -0.10206294178E+03  0.24292777896E+01  0.25970870482E+02  0.10534814465E+03  0.99999687468E+00 0.  0.
          4    1    3    3  501    0  0.30217273220E+03  0.33749563257E+03 -0.71126406314E+02  0.45855275352E+03  0.00000000000E+00 0.  1.
   -9000007    1    1    2    0  503 -0.20010979042E+03 -0.33992491036E+03  0.21808152646E+03  0.60262129492E+03  0.40000000000E+03 0.  1.
<mgrwt>
<rscale>  2 0.56201164E+03</rscale>
<asrwt>0</asrwt>
<pdfrwt beam="1">  1       21 0.10303448E+00 0.56209003E+03</pdfrwt>
<pdfrwt beam="2">  1       21 0.76430477E-01 0.56209003E+03</pdfrwt>
<totfact> 0.95021485E+02</totfact>
</mgrwt>
</event>
<event>
 6    1  0.9163926E-004  0.4447099E+03  0.7818608E-02  0.1029398E+00
         21   -1    0    0  501  502  0.00000000000E+00  0.00000000000E+00  0.11660266261E+04  0.11660266261E+04  0.00000000000E+00 0.  1.
         21   -1    0    0  502  503 -0.00000000000E+00 -0.00000000000E+00 -0.25516404445E+03  0.25516404445E+03  0.00000000000E+00 0.  1.
    9000007    2    1    2  501    0 -0.58108141433E+02 -0.18544621830E+03  0.42531803075E+02  0.44560612937E+03  0.39873426273E+03 0.  0.
    9000005    1    3    3    0    0  0.82320122896E+02 -0.25857608388E+03  0.79984680090E+02  0.28290765778E+03  0.99999687468E+00 0.  0.
          4    1    3    3  501    0 -0.14042826433E+03  0.73129865572E+02 -0.37452877014E+02  0.16269847159E+03  0.00000000000E+00 0.  1.
   -9000007    1    1    2    0  503  0.58108141433E+02  0.18544621830E+03  0.86833077856E+03  0.97558454117E+03  0.40000000000E+03 0.  1.
<mgrwt>
<rscale>  2 0.44442505E+03</rscale>
<asrwt>0</asrwt>
<pdfrwt beam="1">  1       21 0.17938871E+00 0.44470986E+03</pdfrwt>
<pdfrwt beam="2">  1       21 0.39256008E-01 0.44470986E+03</pdfrwt>
<totfact> 0.96604039E+02</totfact>
</mgrwt>
</event>
<event>
 6    1  0.9163926E-004  0.4888082E+03  0.7818608E-02  0.1016746E+00
         21   -1    0    0  501  502  0.00000000000E+00  0.00000000000E+00  0.20804492013E+04  0.20804492013E+04  0.00000000000E+00 0. -1.
         21   -1    0    0  502  503 -0.00000000000E+00 -0.00000000000E+00 -0.12041957196E+03  0.12041957196E+03  0.00000000000E+00 0.  1.
    9000007    2    1    2  501    0 -0.26929234927E+03  0.79774258568E+02  0.74308021625E+03  0.88943895213E+03  0.40006391999E+03 0.  0.
    9000005    1    3    3    0    0 -0.34675182523E+02  0.12400131888E+03  0.59438327174E+03  0.60817034545E+03  0.99999687468E+00 0.  0.
          4    1    3    3  501    0 -0.23461716675E+03 -0.44227060313E+02  0.14869694451E+03  0.28126860668E+03  0.00000000000E+00 0.  1.
   -9000007    1    1    2    0  503  0.26929234927E+03 -0.79774258568E+02  0.12169494131E+04  0.13114298211E+04  0.40000000000E+03 0. -1.
<mgrwt>
<rscale>  2 0.48879511E+03</rscale>
<asrwt>0</asrwt>
<pdfrwt beam="1">  1       21 0.32006908E+00 0.48880819E+03</pdfrwt>
<pdfrwt beam="2">  1       21 0.18526090E-01 0.48880819E+03</pdfrwt>
<totfact> 0.54037703E+02</totfact>
</mgrwt>
</event>
<event>
 6    1  0.9163926E-004  0.4657746E+03  0.7818608E-02  0.1023188E+00
         21   -1    0    0  501  502  0.00000000000E+00  0.00000000000E+00  0.27509259397E+03  0.27509259397E+03  0.00000000000E+00 0. -1.
         21   -1    0    0  502  503 -0.00000000000E+00 -0.00000000000E+00 -0.88326077238E+03  0.88326077238E+03  0.00000000000E+00 0.  1.
    9000007    2    1    2  501    0  0.14477075150E+02 -0.23819395197E+03 -0.49500466481E+03  0.67902891958E+03  0.39887931882E+03 0.  0.
    9000005    1    3    3    0    0 -0.99718703041E+02  0.42621027806E+02 -0.29893988279E+03  0.31800381329E+03  0.99999687468E+00 0.  0.
          4    1    3    3  501    0  0.11419577819E+03 -0.28081497978E+03 -0.19606478202E+03  0.36102510629E+03  0.00000000000E+00 0.  1.
   -9000007    1    1    2    0  503 -0.14477075150E+02  0.23819395197E+03 -0.11316351360E+03  0.47932444677E+03  0.40000000000E+03 0. -1.
<mgrwt>
<rscale>  2 0.46553386E+03</rscale>
<asrwt>0</asrwt>
<pdfrwt beam="1">  1       21 0.42321937E-01 0.46577456E+03</pdfrwt>
<pdfrwt beam="2">  1       21 0.13588628E+00 0.46577456E+03</pdfrwt>
<totfact> 0.17667800E+03</totfact>
</mgrwt>
</event>
<event>
 6    1  0.9163926E-004  0.4090979E+03  0.7818608E-02  0.1040707E+00
         21   -1    0    0  501  502  0.00000000000E+00  0.00000000000E+00  0.27033268687E+03  0.27033268687E+03  0.00000000000E+00 0.  1.
         21   -1    0    0  502  503 -0.00000000000E+00 -0.00000000000E+00 -0.68575499057E+03  0.68575499057E+03  0.00000000000E+00 0.  1.
    9000007    2    1    2  501    0 -0.32688022910E+02 -0.77279864344E+02 -0.58093041457E+02  0.41320197498E+03  0.40040028270E+03 0.  0.
    9000005    1    3    3    0    0  0.10557112327E+03  0.11477848062E+03 -0.80491127855E+02  0.17549696105E+03  0.99999687468E+00 0.  0.
          4    1    3    3  501    0 -0.13825914618E+03 -0.19205834496E+03  0.22398086399E+02  0.23770501393E+03  0.00000000000E+00 0.  1.
   -9000007    1    1    2    0  503  0.32688022910E+02  0.77279864344E+02 -0.35732926225E+03  0.54288570246E+03  0.40000000000E+03 0.  1.
<mgrwt>
<rscale>  2 0.40899990E+03</rscale>
<asrwt>0</asrwt>
<pdfrwt beam="1">  1       21 0.41589645E-01 0.40909787E+03</pdfrwt>
<pdfrwt beam="2">  1       21 0.10550077E+00 0.40909787E+03</pdfrwt>
<totfact> 0.35574430E+03</totfact>
</mgrwt>
</event>
<event>
 6    1  0.9163926E-004  0.5893388E+03  0.7818608E-02  0.9927996E-01
         21   -1    0    0  501  502  0.00000000000E+00  0.00000000000E+00  0.55888000923E+03  0.55888000923E+03  0.00000000000E+00 0.  1.
         21   -1    0    0  502  503 -0.00000000000E+00 -0.00000000000E+00 -0.69926576764E+03  0.69926576764E+03  0.00000000000E+00 0.  1.
    9000007    2    1    2  501    0  0.23740629094E+03 -0.36188185308E+03 -0.28060335025E+03  0.65235604799E+03  0.39938696850E+03 0.  0.
    9000005    1    3    3    0    0  0.41984917168E+02  0.84908199592E+02 -0.11629260873E+02  0.95437808702E+02  0.99999687468E+00 0.  0.
          4    1    3    3  501    0  0.19542137377E+03 -0.44679005267E+03 -0.26897408938E+03  0.55691823928E+03  0.00000000000E+00 0.  1.
   -9000007    1    1    2    0  503 -0.23740629094E+03  0.36188185308E+03  0.14021759184E+03  0.60578972889E+03  0.40000000000E+03 0.  1.
<mgrwt>
<rscale>  2 0.58923480E+03</rscale>
<asrwt>0</asrwt>
<pdfrwt beam="1">  1       21 0.85981540E-01 0.58933880E+03</pdfrwt>
<pdfrwt beam="2">  1       21 0.10757935E+00 0.58933880E+03</pdfrwt>
<totfact> 0.64310023E+02</totfact>
</mgrwt>
</event>
<event>
 6    1  0.9163926E-004  0.4877125E+03  0.7818608E-02  0.1017073E+00
         21   -1    0    0  501  502  0.00000000000E+00  0.00000000000E+00  0.46842115777E+03  0.46842115777E+03  0.00000000000E+00 0.  1.
         21   -1    0    0  502  503 -0.00000000000E+00 -0.00000000000E+00 -0.55572989061E+03  0.55572989061E+03  0.00000000000E+00 0. -1.
    9000007    2    1    2  501    0  0.24445009502E+03 -0.13456446542E+03  0.10761887077E+03  0.49892708190E+03  0.39935318629E+03 0.  0.
    9000005    1    3    3    0    0  0.67324806612E-01 -0.33945658198E+02  0.21205313002E+03  0.21475530771E+03  0.99999687468E+00 0.  0.
          4    1    3    3  501    0  0.24438277021E+03 -0.10061880722E+03 -0.10443425925E+03  0.28417177419E+03  0.00000000000E+00 0.  1.
   -9000007    1    1    2    0  503 -0.24445009502E+03  0.13456446542E+03 -0.19492760362E+03  0.52522396648E+03  0.40000000000E+03 0. -1.
<mgrwt>
<rscale>  2 0.48757982E+03</rscale>
<asrwt>0</asrwt>
<pdfrwt beam="1">  1       21 0.72064794E-01 0.48771246E+03</pdfrwt>
<pdfrwt beam="2">  1       21 0.85496906E-01 0.48771246E+03</pdfrwt>
<totfact> 0.17447402E+03</totfact>
</mgrwt>
</event>
<event>
 6    1  0.9163926E-004  0.4932798E+03  0.7818608E-02  0.1015615E+00
         21   -1    0    0  501  502  0.00000000000E+00  0.00000000000E+00  0.31260570535E+03  0.31260570535E+03  0.00000000000E+00 0.  1.
         21   -1    0    0  502  503 -0.00000000000E+00 -0.00000000000E+00 -0.10756814466E+04  0.10756814466E+04  0.00000000000E+00 0.  1.
    9000007    2    1    2  501    0 -0.26178114980E+03 -0.11746620238E+03 -0.15913714029E+02  0.49353647493E+03  0.40124472170E+03 0.  0.
    9000005    1    3    3    0    0 -0.35432877964E+03 -0.92707115245E+02 -0.84295668005E+02  0.37583274596E+03  0.99999687468E+00 0.  0.
          4    1    3    3  501    0  0.92547629833E+02 -0.24759087134E+02  0.68381953976E+02  0.11770372897E+03  0.00000000000E+00 0.  1.
   -9000007    1    1    2    0  503  0.26178114980E+03  0.11746620238E+03 -0.74716202721E+03  0.89475067700E+03  0.40000000000E+03 0.  1.
<mgrwt>
<rscale>  2 0.49302666E+03</rscale>
<asrwt>0</asrwt>
<pdfrwt beam="1">  1       21 0.48093186E-01 0.49327985E+03</pdfrwt>
<pdfrwt beam="2">  1       21 0.16548945E+00 0.49327985E+03</pdfrwt>
<totfact> 0.78060584E+02</totfact>
</mgrwt>
</event>
<event>
 6    1  0.9163926E-004  0.4098640E+03  0.7818608E-02  0.1040421E+00
         21   -1    0    0  501  502  0.00000000000E+00  0.00000000000E+00  0.41958125476E+03  0.41958125476E+03  0.00000000000E+00 0.  1.
         21   -1    0    0  502  503 -0.00000000000E+00 -0.00000000000E+00 -0.40110885736E+03  0.40110885736E+03  0.00000000000E+00 0.  1.
    9000007    2    1    2  501    0 -0.36476578113E+02 -0.81596504745E+02  0.27435797059E+02  0.41072807380E+03  0.39994536791E+03 0.  0.
    9000005    1    3    3    0    0 -0.10017667640E+03  0.84094415572E+02 -0.12186801636E+03  0.17877374144E+03  0.99999687468E+00 0.  0.
          4    1    3    3  501    0  0.63700098292E+02 -0.16569092032E+03  0.14930381342E+03  0.23195433235E+03  0.00000000000E+00 0.  1.
   -9000007    1    1    2    0  503  0.36476578113E+02  0.81596504745E+02 -0.89633996605E+01  0.40996203833E+03  0.40000000000E+03 0.  1.
<mgrwt>
<rscale>  2 0.40985071E+03</rscale>
<asrwt>0</asrwt>
<pdfrwt beam="1">  1       21 0.64550962E-01 0.40986404E+03</pdfrwt>
<pdfrwt beam="2">  1       21 0.61709055E-01 0.40986404E+03</pdfrwt>
<totfact> 0.48112014E+03</totfact>
</mgrwt>
</event>
<event>
 6    1  0.9163926E-004  0.5010886E+03  0.7818608E-02  0.1013510E+00
         21   -1    0    0  501  502  0.00000000000E+00  0.00000000000E+00  0.33281233218E+03  0.33281233218E+03  0.00000000000E+00 0.  1.
         21   -1    0    0  502  503 -0.00000000000E+00 -0.00000000000E+00 -0.13073372737E+04  0.13073372737E+04  0.00000000000E+00 0.  1.
    9000007    2    1    2  501    0 -0.29472377573E+03  0.63300036020E+02  0.46144147629E+02  0.50320880352E+03  0.40027592863E+03 0.  0.
    9000005    1    3    3    0    0 -0.20612794211E+03  0.23193452709E+03  0.37066607244E+02  0.31250165878E+03  0.99999687468E+00 0.  0.
          4    1    3    3  501    0 -0.88595833621E+02 -0.16863449107E+03  0.90775403849E+01  0.19070714474E+03  0.00000000000E+00 0.  1.
   -9000007    1    1    2    0  503  0.29472377573E+03 -0.63300036020E+02 -0.10206690892E+04  0.11369408024E+04  0.40000000000E+03 0.  1.
<mgrwt>
<rscale>  2 0.50103353E+03</rscale>
<asrwt>0</asrwt>
<pdfrwt beam="1">  1       21 0.51201898E-01 0.50108863E+03</pdfrwt>
<pdfrwt beam="2">  1       21 0.20112881E+00 0.50108863E+03</pdfrwt>
<totfact> 0.38272767E+02</totfact>
</mgrwt>
</event>
<event>
 6    1  0.9163926E-004  0.5338894E+03  0.7818608E-02  0.1005352E+00
         21   -1    0    0  501  502  0.00000000000E+00  0.00000000000E+00  0.15253134698E+04  0.15253134698E+04  0.00000000000E+00 0.  1.
         21   -1    0    0  502  503 -0.00000000000E+00 -0.00000000000E+00 -0.22979902616E+03  0.22979902616E+03  0.00000000000E+00 0.  1.
    9000007    2    1    2  501    0 -0.19166823595E+03  0.29715513948E+03  0.10280640568E+04  0.11579796807E+04  0.39870207743E+03 0.  0.
    9000005    1    3    3    0    0 -0.11985181801E+03 -0.66935883369E+02  0.45491059580E+03  0.47517314837E+03  0.99999687468E+00 0.  0.
          4    1    3    3  501    0 -0.71816417940E+02  0.36409102285E+03  0.57315346100E+03  0.68280653238E+03  0.00000000000E+00 0.  1.
   -9000007    1    1    2    0  503  0.19166823595E+03 -0.29715513948E+03  0.26745038685E+03  0.59713281523E+03  0.40000000000E+03 0.  1.
<mgrwt>
<rscale>  2 0.53364630E+03</rscale>
<asrwt>0</asrwt>
<pdfrwt beam="1">  1       21 0.23466360E+00 0.53388940E+03</pdfrwt>
<pdfrwt beam="2">  1       21 0.35353697E-01 0.53388940E+03</pdfrwt>
<totfact> 0.49560641E+02</totfact>
</mgrwt>
</event>
<event>
 6    1  0.9163926E-004  0.4896796E+03  0.7818608E-02  0.1016567E+00
         21   -1    0    0  501  502  0.00000000000E+00  0.00000000000E+00  0.12259849465E+04  0.12259849465E+04  0.00000000000E+00 0. -1.
         21   -1    0    0  502  503 -0.00000000000E+00 -0.00000000000E+00 -0.97384554392E+03  0.97384554392E+03  0.00000000000E+00 0. -1.
    9000007    2    1    2  501    0  0.27945772365E+03 -0.28981932972E+02  0.11095888643E+04  0.12128369995E+04  0.40106055406E+03 0.  0.
    9000005    1    3    3    0    0  0.11198565036E+03  0.16750132285E+03  0.28686425313E+03  0.35055609931E+03  0.99999687468E+00 0.  0.
          4    1    3    3  501    0  0.16747207329E+03 -0.19648325583E+03  0.82272461114E+03  0.86228090024E+03  0.00000000000E+00 0.  1.
   -9000007    1    1    2    0  503 -0.27945772365E+03  0.28981932972E+02 -0.85744946166E+03  0.98699349089E+03  0.40000000000E+03 0. -1.
<mgrwt>
<rscale>  2 0.48946242E+03</rscale>
<asrwt>0</asrwt>
<pdfrwt beam="1">  1       21 0.18861307E+00 0.48967963E+03</pdfrwt>
<pdfrwt beam="2">  1       21 0.14982239E+00 0.48967963E+03</pdfrwt>
<totfact> 0.36217384E+01</totfact>
</mgrwt>
</event>
<event>
 6    1  0.9163926E-004  0.4848779E+03  0.7818608E-02  0.1017844E+00
         21   -1    0    0  501  502  0.00000000000E+00  0.00000000000E+00  0.24452789535E+03  0.24452789535E+03  0.00000000000E+00 0. -1.
         21   -1    0    0  502  503 -0.00000000000E+00 -0.00000000000E+00 -0.96457989496E+03  0.96457989496E+03  0.00000000000E+00 0. -1.
    9000007    2    1    2  501    0  0.57236327113E+02  0.26690861266E+03 -0.31981194829E+03  0.58084964007E+03  0.40073734222E+03 0.  0.
    9000005    1    3    3    0    0 -0.13419367479E+03  0.12863716721E+03 -0.32631443597E+01  0.18592232584E+03  0.99999687468E+00 0.  0.
          4    1    3    3  501    0  0.19143000191E+03  0.13827144546E+03 -0.31654880393E+03  0.39492731423E+03  0.00000000000E+00 0.  1.
   -9000007    1    1    2    0  503 -0.57236327113E+02 -0.26690861266E+03 -0.40024005133E+03  0.62825815024E+03  0.40000000000E+03 0. -1.
<mgrwt>
<rscale>  2 0.48472557E+03</rscale>
<asrwt>0</asrwt>
<pdfrwt beam="1">  1       21 0.37619676E-01 0.48487795E+03</pdfrwt>
<pdfrwt beam="2">  1       21 0.14839691E+00 0.48487795E+03</pdfrwt>
<totfact> 0.17665568E+03</totfact>
</mgrwt>
</event>
<event>
 6    1  0.9163926E-004  0.4822110E+03  0.7818608E-02  0.1018539E+00
         21   -1    0    0  501  502  0.00000000000E+00  0.00000000000E+00  0.33876745689E+03  0.33876745689E+03  0.00000000000E+00 0.  1.
         21   -1    0    0  502  503 -0.00000000000E+00 -0.00000000000E+00 -0.11824208246E+04  0.11824208246E+04  0.00000000000E+00 0. -1.
    9000007    2    1    2  501    0 -0.26636278717E+03 -0.38045832015E+02  0.70863966392E+02  0.48739015124E+03  0.40016351416E+03 0.  0.
    9000005    1    3    3    0    0  0.90853866574E+02 -0.80740727200E+01  0.90350126637E+02  0.12838910039E+03  0.99999687468E+00 0.  0.
          4    1    3    3  501    0 -0.35721665375E+03 -0.29971759295E+02 -0.19486160245E+02  0.35900105085E+03  0.00000000000E+00 0.  1.
   -9000007    1    1    2    0  503  0.26636278717E+03  0.38045832015E+02 -0.91451733411E+03  0.10337981303E+04  0.40000000000E+03 0. -1.
<mgrwt>
<rscale>  2 0.48217709E+03</rscale>
<asrwt>0</asrwt>
<pdfrwt beam="1">  1       21 0.52118069E-01 0.48221101E+03</pdfrwt>
<pdfrwt beam="2">  1       21 0.18191090E+00 0.48221101E+03</pdfrwt>
<totfact> 0.50304782E+02</totfact>
</mgrwt>
</event>
<event>
 6    1  0.9163926E-004  0.4863372E+03  0.7818608E-02  0.1017414E+00
         21   -1    0    0  501  502  0.00000000000E+00  0.00000000000E+00  0.42966850568E+03  0.42966850568E+03  0.00000000000E+00 0. -1.
         21   -1    0    0  502  503 -0.00000000000E+00 -0.00000000000E+00 -0.74485075153E+03  0.74485075153E+03  0.00000000000E+00 0.  1.
    9000007    2    1    2  501    0  0.19917434577E+03 -0.19197252433E+03  0.14249140643E+03  0.50669514706E+03  0.39989036126E+03 0.  0.
    9000005    1    3    3    0    0  0.93801539375E+02 -0.44843927251E+02  0.26733339714E+03  0.28684116131E+03  0.99999687468E+00 0.  0.
          4    1    3    3  501    0  0.10537280640E+03 -0.14712859708E+03 -0.12484199071E+03  0.21985398575E+03  0.00000000000E+00 0.  1.
   -9000007    1    1    2    0  503 -0.19917434577E+03  0.19197252433E+03 -0.45767365228E+03  0.66782411016E+03  0.40000000000E+03 0.  1.
<mgrwt>
<rscale>  2 0.48631465E+03</rscale>
<asrwt>0</asrwt>
<pdfrwt beam="1">  1       21 0.66102847E-01 0.48633720E+03</pdfrwt>
<pdfrwt beam="2">  1       21 0.11459242E+00 0.48633720E+03</pdfrwt>
<totfact> 0.10410484E+03</totfact>
</mgrwt>
</event>
<event>
 6    1  0.9163926E-004  0.4664214E+03  0.7818608E-02  0.1022951E+00
         21   -1    0    0  501  502  0.00000000000E+00  0.00000000000E+00  0.13398330943E+04  0.13398330943E+04  0.00000000000E+00 0. -1.
         21   -1    0    0  502  503 -0.00000000000E+00 -0.00000000000E+00 -0.24258683010E+03  0.24258683010E+03  0.00000000000E+00 0. -1.
    9000007    2    1    2  501    0  0.18617294844E+03 -0.15128977404E+03  0.10037352215E+04  0.11067169944E+04  0.39973634862E+03 0.  0.
    9000005    1    3    3    0    0  0.28279953342E+03 -0.14413124730E+03  0.48929847999E+03  0.58323528276E+03  0.99999687468E+00 0.  0.
          4    1    3    3  501    0 -0.96626584974E+02 -0.71585267450E+01  0.51443674149E+03  0.52348171164E+03  0.00000000000E+00 0.  1.
   -9000007    1    1    2    0  503 -0.18617294844E+03  0.15128977404E+03  0.93511042668E+02  0.47570292995E+03  0.40000000000E+03 0. -1.
<mgrwt>
<rscale>  2 0.46636491E+03</rscale>
<asrwt>0</asrwt>
<pdfrwt beam="1">  1       21 0.20612816E+00 0.46642144E+03</pdfrwt>
<pdfrwt beam="2">  1       21 0.37321052E-01 0.46642144E+03</pdfrwt>
<totfact> 0.69769445E+02</totfact>
</mgrwt>
</event>
<event>
 6    1  0.9163926E-004  0.5073594E+03  0.7818608E-02  0.1011906E+00
         21   -1    0    0  501  502  0.00000000000E+00  0.00000000000E+00  0.11229552000E+04  0.11229552000E+04  0.00000000000E+00 0.  1.
         21   -1    0    0  502  503 -0.00000000000E+00 -0.00000000000E+00 -0.39072432476E+03  0.39072432476E+03  0.00000000000E+00 0.  1.
    9000007    2    1    2  501    0  0.26433002845E+03  0.16453071540E+03  0.85310540365E+03  0.99257361238E+03  0.40059059651E+03 0.  0.
    9000005    1    3    3    0    0  0.10583592393E+03  0.26421341979E+03  0.68168743669E+03  0.73872101319E+03  0.99999687468E+00 0.  0.
          4    1    3    3  501    0  0.15849410452E+03 -0.99682704383E+02  0.17141796696E+03  0.25385259919E+03  0.00000000000E+00 0.  1.
   -9000007    1    1    2    0  503 -0.26433002845E+03 -0.16453071540E+03 -0.12087452845E+03  0.52110591234E+03  0.40000000000E+03 0.  1.
<mgrwt>
<rscale>  2 0.50724280E+03</rscale>
<asrwt>0</asrwt>
<pdfrwt beam="1">  1       21 0.17276234E+00 0.50735939E+03</pdfrwt>
<pdfrwt beam="2">  1       21 0.60111435E-01 0.50735939E+03</pdfrwt>
<totfact> 0.42430991E+02</totfact>
</mgrwt>
</event>
<event>
 6    1  0.9163926E-004  0.4752444E+03  0.7818608E-02  0.1020533E+00
         21   -1    0    0  501  502  0.00000000000E+00  0.00000000000E+00  0.12248822527E+04  0.12248822527E+04  0.00000000000E+00 0.  1.
         21   -1    0    0  502  503 -0.00000000000E+00 -0.00000000000E+00 -0.18477041753E+03  0.18477041753E+03  0.00000000000E+00 0.  1.
    9000007    2    1    2  501    0 -0.25493152066E+03  0.29448121667E+02  0.47191902728E+03  0.66890957100E+03  0.39859148734E+03 0.  0.
    9000005    1    3    3    0    0 -0.33586703890E+03  0.10110296604E+03  0.28067782733E+03  0.44923214524E+03  0.99999687468E+00 0.  0.
          4    1    3    3  501    0  0.80935518241E+02 -0.71654844373E+02  0.19124119995E+03  0.21967742577E+03  0.00000000000E+00 0.  1.
   -9000007    1    1    2    0  503  0.25493152066E+03 -0.29448121667E+02  0.56819280785E+03  0.74074309918E+03  0.40000000000E+03 0. -1.
<mgrwt>
<rscale>  2 0.47494793E+03</rscale>
<asrwt>0</asrwt>
<pdfrwt beam="1">  1       21 0.18844342E+00 0.47524443E+03</pdfrwt>
<pdfrwt beam="2">  1       21 0.28426219E-01 0.47524443E+03</pdfrwt>
<totfact> 0.15793735E+03</totfact>
</mgrwt>
</event>
<event>
 6    1  0.9163926E-004  0.4130868E+03  0.7818608E-02  0.1039361E+00
         21   -1    0    0  501  502  0.00000000000E+00  0.00000000000E+00  0.85104469150E+03  0.85104469150E+03  0.00000000000E+00 0. -1.
         21   -1    0    0  502  503 -0.00000000000E+00 -0.00000000000E+00 -0.25283067554E+03  0.25283067554E+03  0.00000000000E+00 0. -1.
    9000007    2    1    2  501    0  0.99587563971E+02  0.22614868736E+02  0.47796215831E+02  0.41584275889E+03  0.40026442096E+03 0.  0.
    9000005    1    3    3    0    0  0.23751965052E+03  0.92430906555E+02  0.30063105703E+01  0.25489035832E+03  0.99999687468E+00 0.  0.
          4    1    3    3  501    0 -0.13793208654E+03 -0.69816037819E+02  0.44789905260E+02  0.16095240057E+03  0.00000000000E+00 0.  1.
   -9000007    1    1    2    0  503 -0.99587563971E+02 -0.22614868736E+02  0.55041780013E+03  0.68803260816E+03  0.40000000000E+03 0. -1.
<mgrwt>
<rscale>  2 0.41302275E+03</rscale>
<asrwt>0</asrwt>
<pdfrwt beam="1">  1       21 0.13092995E+00 0.41308682E+03</pdfrwt>
<pdfrwt beam="2">  1       21 0.38897027E-01 0.41308682E+03</pdfrwt>
<totfact> 0.23657412E+03</totfact>
</mgrwt>
</event>
<event>
 6    1  0.9163926E-004  0.4143924E+03  0.7818608E-02  0.1038935E+00
         21   -1    0    0  501  502  0.00000000000E+00  0.00000000000E+00  0.60372628398E+03  0.60372628398E+03  0.00000000000E+00 0. -1.
         21   -1    0    0  502  503 -0.00000000000E+00 -0.00000000000E+00 -0.28689697415E+03  0.28689697415E+03  0.00000000000E+00 0. -1.
    9000007    2    1    2  501    0 -0.10061038837E+03  0.36325818946E+02  0.20162092938E+03  0.46083844418E+03  0.40034866941E+03 0.  0.
    9000005    1    3    3    0    0  0.66579197078E+02 -0.96880476915E+02  0.21670782071E+03  0.24653984635E+03  0.99999687468E+00 0.  0.
          4    1    3    3  501    0 -0.16718958545E+03  0.13320629586E+03 -0.15086891324E+02  0.21429859783E+03  0.00000000000E+00 0.  1.
   -9000007    1    1    2    0  503  0.10061038837E+03 -0.36325818946E+02  0.11520838045E+03  0.42978481394E+03  0.40000000000E+03 0. -1.
<mgrwt>
<rscale>  2 0.41430818E+03</rscale>
<asrwt>0</asrwt>
<pdfrwt beam="1">  1       21 0.92880966E-01 0.41439241E+03</pdfrwt>
<pdfrwt beam="2">  1       21 0.44137996E-01 0.41439241E+03</pdfrwt>
<totfact> 0.42701834E+03</totfact>
</mgrwt>
</event>
<event>
 6    1  0.9163926E-004  0.4692642E+03  0.7818608E-02  0.1022197E+00
         21   -1    0    0  501  502  0.00000000000E+00  0.00000000000E+00  0.54446691468E+03  0.54446691468E+03  0.00000000000E+00 0.  1.
         21   -1    0    0  502  503 -0.00000000000E+00 -0.00000000000E+00 -0.44512507554E+03  0.44512507554E+03  0.00000000000E+00 0.  1.
    9000007    2    1    2  501    0  0.18908326601E+03 -0.15342796339E+03 -0.10139621064E+03  0.48009381940E+03  0.40114369304E+03 0.  0.
    9000005    1    3    3    0    0  0.26647170596E+03 -0.11305396262E+03  0.60911949629E+02  0.29580337074E+03  0.99999687468E+00 0.  0.
          4    1    3    3  501    0 -0.77388439953E+02 -0.40374000767E+02 -0.16230816027E+03  0.18429044866E+03  0.00000000000E+00 0.  1.
   -9000007    1    1    2    0  503 -0.18908326601E+03  0.15342796339E+03  0.20073804978E+03  0.50949817081E+03  0.40000000000E+03 0.  1.
<mgrwt>
<rscale>  2 0.46901968E+03</rscale>
<asrwt>0</asrwt>
<pdfrwt beam="1">  1       21 0.83764140E-01 0.46926419E+03</pdfrwt>
<pdfrwt beam="2">  1       21 0.68480781E-01 0.46926419E+03</pdfrwt>
<totfact> 0.20673073E+03</totfact>
</mgrwt>
</event>
<event>
 6    1  0.9163926E-004  0.4480609E+03  0.7818608E-02  0.1028307E+00
         21   -1    0    0  501  502  0.00000000000E+00  0.00000000000E+00  0.49964519383E+03  0.49964519383E+03  0.00000000000E+00 0.  1.
         21   -1    0    0  502  503 -0.00000000000E+00 -0.00000000000E+00 -0.50644198891E+03  0.50644198891E+03  0.00000000000E+00 0. -1.
    9000007    2    1    2  501    0  0.41447491958E+02 -0.19744217618E+03  0.22532338316E+03  0.50152689430E+03  0.40007160757E+03 0.  0.
    9000005    1    3    3    0    0 -0.17057506972E+03 -0.22366279340E+02  0.10361246393E+03  0.20082989702E+03  0.99999687468E+00 0.  0.
          4    1    3    3  501    0  0.21202256168E+03 -0.17507589684E+03  0.12171091923E+03  0.30069699728E+03  0.00000000000E+00 0.  1.
   -9000007    1    1    2    0  503 -0.41447491958E+02  0.19744217618E+03 -0.23212017824E+03  0.50456028844E+03  0.40000000000E+03 0.  1.
<mgrwt>
<rscale>  2 0.44804495E+03</rscale>
<asrwt>0</asrwt>
<pdfrwt beam="1">  1       21 0.76868491E-01 0.44806093E+03</pdfrwt>
<pdfrwt beam="2">  1       21 0.77914153E-01 0.44806093E+03</pdfrwt>
<totfact> 0.18958702E+03</totfact>
</mgrwt>
</event>
<event>
 6    1  0.9163926E-004  0.4541853E+03  0.7818608E-02  0.1026739E+00
         21   -1    0    0  501  502  0.00000000000E+00  0.00000000000E+00  0.29528233609E+03  0.29528233609E+03  0.00000000000E+00 0.  1.
         21   -1    0    0  502  503 -0.00000000000E+00 -0.00000000000E+00 -0.81756681071E+03  0.81756681071E+03  0.00000000000E+00 0.  1.
    9000007    2    1    2  501    0  0.20678372080E+03 -0.19442549322E+02 -0.45029650982E+02  0.45641203131E+03  0.40391428911E+03 0.  0.
    9000005    1    3    3    0    0 -0.85804274780E+02  0.68024331351E+02 -0.97424177301E+02  0.14656791444E+03  0.99999687468E+00 0.  0.
          4    1    3    3  501    0  0.29258799558E+03 -0.87466880673E+02  0.52394526319E+02  0.30984411687E+03  0.00000000000E+00 0.  1.
   -9000007    1    1    2    0  503 -0.20678372080E+03  0.19442549322E+02 -0.47725482363E+03  0.65643711549E+03  0.40000000000E+03 0.  1.
<mgrwt>
<rscale>  2 0.45331341E+03</rscale>
<asrwt>0</asrwt>
<pdfrwt beam="1">  1       21 0.45428053E-01 0.45418528E+03</pdfrwt>
<pdfrwt beam="2">  1       21 0.12577951E+00 0.45418528E+03</pdfrwt>
<totfact> 0.18713447E+03</totfact>
</mgrwt>
</event>
<event>
 6    1  0.9163926E-004  0.4516374E+03  0.7818608E-02  0.1027237E+00
         21   -1    0    0  501  502  0.00000000000E+00  0.00000000000E+00  0.18733339395E+04  0.18733339395E+04  0.00000000000E+00 0. -1.
         21   -1    0    0  502  503 -0.00000000000E+00 -0.00000000000E+00 -0.11075994287E+03  0.11075994287E+03  0.00000000000E+00 0.  1.
    9000007    2    1    2  501    0  0.20633751369E+03  0.37432646424E+02  0.75190581693E+03  0.87710402603E+03  0.39996592652E+03 0.  0.
    9000005    1    3    3    0    0  0.29735134426E+03 -0.71106889189E+02  0.45553914625E+03  0.54862639873E+03  0.99999687468E+00 0.  0.
          4    1    3    3  501    0 -0.91013830574E+02  0.10853953561E+03  0.29636667068E+03  0.32847762730E+03  0.00000000000E+00 0.  1.
   -9000007    1    1    2    0  503 -0.20633751369E+03 -0.37432646424E+02  0.10106681797E+04  0.11069898563E+04  0.40000000000E+03 0.  1.
<mgrwt>
<rscale>  2 0.45162989E+03</rscale>
<asrwt>0</asrwt>
<pdfrwt beam="1">  1       21 0.28820520E+00 0.45163743E+03</pdfrwt>
<pdfrwt beam="2">  1       21 0.17039993E-01 0.45163743E+03</pdfrwt>
<totfact> 0.10043677E+03</totfact>
</mgrwt>
</event>
<event>
 6    1  0.9163926E-004  0.4844749E+03  0.7818608E-02  0.1018041E+00
         21   -1    0    0  501  502  0.00000000000E+00  0.00000000000E+00  0.67134798049E+03  0.67134798049E+03  0.00000000000E+00 0.  1.
         21   -1    0    0  502  503 -0.00000000000E+00 -0.00000000000E+00 -0.35311720439E+03  0.35311720439E+03  0.00000000000E+00 0.  1.
    9000007    2    1    2  501    0 -0.26916027084E+03  0.21155910862E+02  0.99352911191E+02  0.49455732146E+03  0.40226995822E+03 0.  0.
    9000005    1    3    3    0    0 -0.16740369083E+03 -0.15725636452E+03  0.16056151832E+03  0.28024018456E+03  0.99999687468E+00 0.  0.
          4    1    3    3  501    0 -0.10175658001E+03  0.17841227538E+03 -0.61208607129E+02  0.21431713690E+03  0.00000000000E+00 0.  1.
   -9000007    1    1    2    0  503  0.26916027084E+03 -0.21155910862E+02  0.21887786491E+03  0.52990786342E+03  0.40000000000E+03 0.  1.
<mgrwt>
<rscale>  2 0.48400344E+03</rscale>
<asrwt>0</asrwt>
<pdfrwt beam="1">  1       21 0.10328430E+00 0.48447491E+03</pdfrwt>
<pdfrwt beam="2">  1       21 0.54325724E-01 0.48447491E+03</pdfrwt>
<totfact> 0.20739485E+03</totfact>
</mgrwt>
</event>
<event>
 6    1  0.9163926E-004  0.4254675E+03  0.7818608E-02  0.1035344E+00
         21   -1    0    0  501  502  0.00000000000E+00  0.00000000000E+00  0.56725281147E+03  0.56725281147E+03  0.00000000000E+00 0. -1.
         21   -1    0    0  502  503 -0.00000000000E+00 -0.00000000000E+00 -0.47915820112E+03  0.47915820112E+03  0.00000000000E+00 0. -1.
    9000007    2    1    2  501    0 -0.10642322029E+03 -0.98471723988E+02  0.34677479675E+03  0.54847726089E+03  0.39943956216E+03 0.  0.
    9000005    1    3    3    0    0 -0.25500169031E+02 -0.24724705889E+03  0.15639592980E+03  0.29366997395E+03  0.99999687468E+00 0.  0.
          4    1    3    3  501    0 -0.80923051255E+02  0.14877533490E+03  0.19037886695E+03  0.25480728695E+03  0.00000000000E+00 0.  1.
   -9000007    1    1    2    0  503  0.10642322029E+03  0.98471723988E+02 -0.25868018640E+03  0.49793375169E+03  0.40000000000E+03 0. -1.
<mgrwt>
<rscale>  2 0.42533571E+03</rscale>
<asrwt>0</asrwt>
<pdfrwt beam="1">  1       21 0.87269663E-01 0.42546749E+03</pdfrwt>
<pdfrwt beam="2">  1       21 0.73716647E-01 0.42546749E+03</pdfrwt>
<totfact> 0.16170643E+03</totfact>
</mgrwt>
</event>
<event>
 6    1  0.9163926E-004  0.4228805E+03  0.7818608E-02  0.1036246E+00
         21   -1    0    0  501  502  0.00000000000E+00  0.00000000000E+00  0.55727142527E+03  0.55727142527E+03  0.00000000000E+00 0. -1.
         21   -1    0    0  502  503 -0.00000000000E+00 -0.00000000000E+00 -0.51120517376E+03  0.51120517376E+03  0.00000000000E+00 0. -1.
    9000007    2    1    2  501    0 -0.10183823906E+02 -0.13683642033E+03  0.34987757134E+03  0.54777588436E+03  0.39851748815E+03 0.  0.
    9000005    1    3    3    0    0 -0.10752437136E+02  0.13302932623E+03  0.19598208075E+03  0.23711261567E+03  0.99999687468E+00 0.  0.
          4    1    3    3  501    0  0.56861323066E+00 -0.26986574656E+03  0.15389549059E+03  0.31066326869E+03  0.00000000000E+00 0.  1.
   -9000007    1    1    2    0  503  0.10183823906E+02  0.13683642033E+03 -0.30381131984E+03  0.52070071467E+03  0.40000000000E+03 0. -1.
<mgrwt>
<rscale>  2 0.42252956E+03</rscale>
<asrwt>0</asrwt>
<pdfrwt beam="1">  1       21 0.85734066E-01 0.42288050E+03</pdfrwt>
<pdfrwt beam="2">  1       21 0.78646950E-01 0.42288050E+03</pdfrwt>
<totfact> 0.14555691E+03</totfact>
</mgrwt>
</event>
<event>
 6    1  0.9163926E-004  0.5559264E+03  0.7818608E-02  0.1000148E+00
         21   -1    0    0  501  502  0.00000000000E+00  0.00000000000E+00  0.13671004217E+03  0.13671004217E+03  0.00000000000E+00 0.  1.
         21   -1    0    0  502  503 -0.00000000000E+00 -0.00000000000E+00 -0.23714103416E+04  0.23714103416E+04  0.00000000000E+00 0.  1.
    9000007    2    1    2  501    0  0.34343889775E+03 -0.17544991348E+03 -0.84517503039E+03  0.10116199922E+04  0.40040133369E+03 0.  0.
    9000005    1    3    3    0    0  0.15178280161E+02 -0.21552571664E+03 -0.42639273618E+03  0.47800991640E+03  0.99999687468E+00 0.  0.
          4    1    3    3  501    0  0.32826061759E+03  0.40075803159E+02 -0.41878229421E+03  0.53361007580E+03  0.00000000000E+00 0.  1.
   -9000007    1    1    2    0  503 -0.34343889775E+03  0.17544991348E+03 -0.13895252690E+04  0.14965003915E+04  0.40000000000E+03 0.  1.
<mgrwt>
<rscale>  2 0.55585415E+03</rscale>
<asrwt>0</asrwt>
<pdfrwt beam="1">  1       21 0.21032313E-01 0.55592641E+03</pdfrwt>
<pdfrwt beam="2">  1       21 0.36483237E+00 0.55592641E+03</pdfrwt>
<totfact> 0.21743314E+02</totfact>
</mgrwt>
</event>
<event>
 6    1  0.9163926E-004  0.4246040E+03  0.7818608E-02  0.1035621E+00
         21   -1    0    0  501  502  0.00000000000E+00  0.00000000000E+00  0.18857402178E+03  0.18857402178E+03  0.00000000000E+00 0.  1.
         21   -1    0    0  502  503 -0.00000000000E+00 -0.00000000000E+00 -0.95611008373E+03  0.95611008373E+03  0.00000000000E+00 0.  1.
    9000007    2    1    2  501    0 -0.13843802305E+03  0.25940902051E+02 -0.40463977585E+03  0.58653382907E+03  0.40056281382E+03 0.  0.
    9000005    1    3    3    0    0 -0.27862061464E+03  0.16012290734E+02 -0.22519412279E+03  0.35860735253E+03  0.99999687468E+00 0.  0.
          4    1    3    3  501    0  0.14018259158E+03  0.99286113174E+01 -0.17944565306E+03  0.22792647654E+03  0.00000000000E+00 0.  1.
   -9000007    1    1    2    0  503  0.13843802305E+03 -0.25940902051E+02 -0.36289628609E+03  0.55815027644E+03  0.40000000000E+03 0. -1.
<mgrwt>
<rscale>  2 0.42447124E+03</rscale>
<asrwt>0</asrwt>
<pdfrwt beam="1">  1       21 0.29011388E-01 0.42460403E+03</pdfrwt>
<pdfrwt beam="2">  1       21 0.14709386E+00 0.42460403E+03</pdfrwt>
<totfact> 0.31218715E+03</totfact>
</mgrwt>
</event>
<event>
 6    1  0.9163926E-004  0.5630730E+03  0.7818608E-02  0.9985131E-01
         21   -1    0    0  501  502  0.00000000000E+00  0.00000000000E+00  0.75504760613E+03  0.75504760613E+03  0.00000000000E+00 0.  1.
         21   -1    0    0  502  503 -0.00000000000E+00 -0.00000000000E+00 -0.48774986799E+03  0.48774986799E+03  0.00000000000E+00 0.  1.
    9000007    2    1    2  501    0 -0.85622590290E+02 -0.38693659350E+03  0.36540937810E+03  0.67124078467E+03  0.39998627731E+03 0.  0.
    9000005    1    3    3    0    0 -0.99716942983E+02 -0.30939807135E+03  0.45032102270E+03  0.55539234668E+03  0.99999687468E+00 0.  0.
          4    1    3    3  501    0  0.14094352694E+02 -0.77538522158E+02 -0.84911644600E+02  0.11584843799E+03  0.00000000000E+00 0.  1.
   -9000007    1    1    2    0  503  0.85622590290E+02  0.38693659350E+03 -0.98111639959E+02  0.57155668945E+03  0.40000000000E+03 0. -1.
<mgrwt>
<rscale>  2 0.56307052E+03</rscale>
<asrwt>0</asrwt>
<pdfrwt beam="1">  1       21 0.11616117E+00 0.56307296E+03</pdfrwt>
<pdfrwt beam="2">  1       21 0.75038442E-01 0.56307296E+03</pdfrwt>
<totfact> 0.73473409E+02</totfact>
</mgrwt>
</event>
<event>
 6    1  0.9163926E-004  0.5012185E+03  0.7818608E-02  0.1013487E+00
         21   -1    0    0  501  502  0.00000000000E+00  0.00000000000E+00  0.29494012183E+03  0.29494012183E+03  0.00000000000E+00 0.  1.
         21   -1    0    0  502  503 -0.00000000000E+00 -0.00000000000E+00 -0.94300368286E+03  0.94300368286E+03  0.00000000000E+00 0. -1.
    9000007    2    1    2  501    0 -0.28629962270E+03  0.94143453118E+02 -0.13091829577E+03  0.51803430406E+03  0.40048654945E+03 0.  0.
    9000005    1    3    3    0    0 -0.25806845735E+03 -0.30131173966E+02 -0.23741217949E+03  0.35195562119E+03  0.99999687468E+00 0.  0.
          4    1    3    3  501    0 -0.28231165357E+02  0.12427462708E+03  0.10649388372E+03  0.16607868287E+03  0.00000000000E+00 0.  1.
   -9000007    1    1    2    0  503  0.28629962270E+03 -0.94143453118E+02 -0.51714526526E+03  0.71990950063E+03  0.40000000000E+03 0. -1.
<mgrwt>
<rscale>  2 0.50112126E+03</rscale>
<asrwt>0</asrwt>
<pdfrwt beam="1">  1       21 0.45375404E-01 0.50121846E+03</pdfrwt>
<pdfrwt beam="2">  1       21 0.14507749E+00 0.50121846E+03</pdfrwt>
<totfact> 0.12655120E+03</totfact>
</mgrwt>
</event>
<event>
 6    1  0.9163926E-004  0.4935235E+03  0.7818608E-02  0.1015520E+00
         21   -1    0    0  501  502  0.00000000000E+00  0.00000000000E+00  0.65470256710E+03  0.65470256710E+03  0.00000000000E+00 0. -1.
         21   -1    0    0  502  503 -0.00000000000E+00 -0.00000000000E+00 -0.46198682160E+03  0.46198682160E+03  0.00000000000E+00 0.  1.
    9000007    2    1    2  501    0 -0.28611783365E+03 -0.34117484984E+02  0.34334987046E+03  0.60121091474E+03  0.40067195178E+03 0.  0.
    9000005    1    3    3    0    0 -0.20678028152E+03  0.31756349106E+02  0.42233866747E+03  0.47131465134E+03  0.99999687468E+00 0.  0.
          4    1    3    3  501    0 -0.79337552128E+02 -0.65873834090E+02 -0.78988797002E+02  0.12989626341E+03  0.00000000000E+00 0.  1.
   -9000007    1    1    2    0  503  0.28611783365E+03  0.34117484984E+02 -0.15063412497E+03  0.51547847396E+03  0.40000000000E+03 0. -1.
<mgrwt>
<rscale>  2 0.49338709E+03</rscale>
<asrwt>0</asrwt>
<pdfrwt beam="1">  1       21 0.10072347E+00 0.49352349E+03</pdfrwt>
<pdfrwt beam="2">  1       21 0.71074895E-01 0.49352349E+03</pdfrwt>
<totfact> 0.12140822E+03</totfact>
</mgrwt>
</event>
<event>
 6    1  0.9163926E-004  0.4517071E+03  0.7818608E-02  0.1027220E+00
         21   -1    0    0  501  502  0.00000000000E+00  0.00000000000E+00  0.11613014298E+04  0.11613014298E+04  0.00000000000E+00 0. -1.
         21   -1    0    0  502  503 -0.00000000000E+00 -0.00000000000E+00 -0.21113828825E+03  0.21113828825E+03  0.00000000000E+00 0. -1.
    9000007    2    1    2  501    0 -0.69921095005E+02 -0.19786455769E+03  0.75631056012E+03  0.88089301018E+03  0.39990935137E+03 0.  0.
    9000005    1    3    3    0    0  0.80668554177E+02 -0.15252470598E+03  0.86779435982E+02  0.19313951452E+03  0.99999687468E+00 0.  0.
          4    1    3    3  501    0 -0.15058964918E+03 -0.45339851708E+02  0.66953112414E+03  0.68775349566E+03  0.00000000000E+00 0.  1.
   -9000007    1    1    2    0  503  0.69921095005E+02  0.19786455769E+03  0.19385258145E+03  0.49154670790E+03  0.40000000000E+03 0. -1.
<mgrwt>
<rscale>  2 0.45168707E+03</rscale>
<asrwt>0</asrwt>
<pdfrwt beam="1">  1       21 0.17866176E+00 0.45170714E+03</pdfrwt>
<pdfrwt beam="2">  1       21 0.32482814E-01 0.45170714E+03</pdfrwt>
<totfact> 0.14311322E+03</totfact>
</mgrwt>
</event>
<event>
 6    1  0.9163926E-004  0.4189767E+03  0.7818608E-02  0.1037462E+00
         21   -1    0    0  501  502  0.00000000000E+00  0.00000000000E+00  0.16753428853E+04  0.16753428853E+04  0.00000000000E+00 0. -1.
         21   -1    0    0  502  503 -0.00000000000E+00 -0.00000000000E+00 -0.16689433680E+03  0.16689433680E+03  0.00000000000E+00 0. -1.
    9000007    2    1    2  501    0 -0.12104859368E+03 -0.29811546714E+02  0.13165974806E+04  0.13814245458E+04  0.39920340621E+03 0.  0.
    9000005    1    3    3    0    0 -0.23842823330E+03 -0.11427837314E+03  0.70464927800E+03  0.75262153436E+03  0.99999687468E+00 0.  0.
          4    1    3    3  501    0  0.11737963962E+03  0.84466826425E+02  0.61194820258E+03  0.62880301145E+03  0.00000000000E+00 0.  1.
   -9000007    1    1    2    0  503  0.12104859368E+03  0.29811546714E+02  0.19185106786E+03  0.46081267625E+03  0.40000000000E+03 0.  1.
<mgrwt>
<rscale>  2 0.41878648E+03</rscale>
<asrwt>0</asrwt>
<pdfrwt beam="1">  1       21 0.25774505E+00 0.41897672E+03</pdfrwt>
<pdfrwt beam="2">  1       21 0.25676053E-01 0.41897672E+03</pdfrwt>
<totfact> 0.71333108E+02</totfact>
</mgrwt>
</event>
<event>
 6    1  0.9163926E-004  0.4776464E+03  0.7818608E-02  0.1019787E+00
         21   -1    0    0  501  502  0.00000000000E+00  0.00000000000E+00  0.15163979852E+04  0.15163979852E+04  0.00000000000E+00 0. -1.
         21   -1    0    0  502  503 -0.00000000000E+00 -0.00000000000E+00 -0.15450195777E+03  0.15450195777E+03  0.00000000000E+00 0. -1.
    9000007    2    1    2  501    0 -0.25725533753E+03 -0.43839268848E+02  0.81647348641E+03  0.94592550311E+03  0.40005488780E+03 0.  0.
    9000005    1    3    3    0    0 -0.28831990096E+03 -0.69584670556E+02  0.27983752316E+03  0.40777497597E+03  0.99999687468E+00 0.  0.
          4    1    3    3  501    0  0.31064563432E+02  0.25745401708E+02  0.53663596325E+03  0.53815052714E+03  0.00000000000E+00 0.  1.
   -9000007    1    1    2    0  503  0.25725533753E+03  0.43839268848E+02  0.54542254100E+03  0.72497443983E+03  0.40000000000E+03 0. -1.
<mgrwt>
<rscale>  2 0.47763493E+03</rscale>
<asrwt>0</asrwt>
<pdfrwt beam="1">  1       21 0.23329199E+00 0.47764642E+03</pdfrwt>
<pdfrwt beam="2">  1       21 0.23769533E-01 0.47764642E+03</pdfrwt>
<totfact> 0.11390893E+03</totfact>
</mgrwt>
</event>
<event>
 6    1  0.9163926E-004  0.5007742E+03  0.7818608E-02  0.1013623E+00
         21   -1    0    0  501  502  0.00000000000E+00  0.00000000000E+00  0.50049451940E+03  0.50049451940E+03  0.00000000000E+00 0. -1.
         21   -1    0    0  502  503 -0.00000000000E+00 -0.00000000000E+00 -0.81632162496E+03  0.81632162496E+03  0.00000000000E+00 0. -1.
    9000007    2    1    2  501    0 -0.16115483949E+03  0.25456609438E+03  0.25178772603E+03  0.55987402256E+03  0.39910785943E+03 0.  0.
    9000005    1    3    3    0    0 -0.24967838030E+03  0.15610086542E+03  0.29866353286E+03  0.41941349481E+03  0.99999687468E+00 0.  0.
          4    1    3    3  501    0  0.88523540802E+02  0.98465228958E+02 -0.46875806835E+02  0.14046052775E+03  0.00000000000E+00 0.  1.
   -9000007    1    1    2    0  503  0.16115483949E+03 -0.25456609438E+03 -0.56761483159E+03  0.75694212179E+03  0.40000000000E+03 0. -1.
<mgrwt>
<rscale>  2 0.50059600E+03</rscale>
<asrwt>0</asrwt>
<pdfrwt beam="1">  1       21 0.76999157E-01 0.50077418E+03</pdfrwt>
<pdfrwt beam="2">  1       21 0.12558794E+00 0.50077418E+03</pdfrwt>
<totfact> 0.58024924E+02</totfact>
</mgrwt>
</event>
<event>
 6    1  0.9163926E-004  0.5161231E+03  0.7818608E-02  0.1009678E+00
         21   -1    0    0  501  502  0.00000000000E+00  0.00000000000E+00  0.11523794545E+04  0.11523794545E+04  0.00000000000E+00 0. -1.
         21   -1    0    0  502  503 -0.00000000000E+00 -0.00000000000E+00 -0.24129508549E+03  0.24129508549E+03  0.00000000000E+00 0. -1.
    9000007    2    1    2  501    0  0.16515216891E+03  0.28056225079E+03  0.59971833543E+03  0.79123016715E+03  0.40049054932E+03 0.  0.
    9000005    1    3    3    0    0  0.23299737239E+03  0.28272510196E+03  0.62020109592E+03  0.72032746595E+03  0.99999687468E+00 0.  0.
          4    1    3    3  501    0 -0.67845203489E+02 -0.21628511710E+01 -0.20482760485E+02  0.70902701210E+02  0.00000000000E+00 0.  1.
   -9000007    1    1    2    0  503 -0.16515216891E+03 -0.28056225079E+03  0.31136603354E+03  0.60244437279E+03  0.40000000000E+03 0. -1.
<mgrwt>
<rscale>  2 0.51602798E+03</rscale>
<asrwt>0</asrwt>
<pdfrwt beam="1">  1       21 0.17728914E+00 0.51612314E+03</pdfrwt>
<pdfrwt beam="2">  1       21 0.37122322E-01 0.51612314E+03</pdfrwt>
<totfact> 0.10883489E+03</totfact>
</mgrwt>
</event>
<event>
 6    1  0.9163926E-004  0.6094217E+03  0.7818608E-02  0.9886463E-01
         21   -1    0    0  501  502  0.00000000000E+00  0.00000000000E+00  0.10987526698E+04  0.10987526698E+04  0.00000000000E+00 0.  1.
         21   -1    0    0  502  503 -0.00000000000E+00 -0.00000000000E+00 -0.41902253051E+03  0.41902253051E+03  0.00000000000E+00 0. -1.
    9000007    2    1    2  501    0 -0.12650041328E+03  0.44203218428E+03  0.67428241781E+03  0.90832915332E+03  0.39876091245E+03 0.  0.
    9000005    1    3    3    0    0 -0.21169449343E+03  0.19087528613E+03  0.15311921767E+03  0.32356518388E+03  0.99999687468E+00 0.  0.
          4    1    3    3  501    0  0.85194080147E+02  0.25115689816E+03  0.52116320014E+03  0.58476396945E+03  0.00000000000E+00 0.  1.
   -9000007    1    1    2    0  503  0.12650041328E+03 -0.44203218428E+03  0.54477214525E+01  0.60944604697E+03  0.40000000000E+03 0. -1.
<mgrwt>
<rscale>  2 0.60921845E+03</rscale>
<asrwt>0</asrwt>
<pdfrwt beam="1">  1       21 0.16903887E+00 0.60942170E+03</pdfrwt>
<pdfrwt beam="2">  1       21 0.64465005E-01 0.60942170E+03</pdfrwt>
<totfact> 0.37199148E+02</totfact>
</mgrwt>
</event>
<event>
 6    1  0.9163926E-004  0.4409494E+03  0.7818608E-02  0.1030518E+00
         21   -1    0    0  501  502  0.00000000000E+00  0.00000000000E+00  0.52204674902E+03  0.52204674902E+03  0.00000000000E+00 0. -1.
         21   -1    0    0  502  503 -0.00000000000E+00 -0.00000000000E+00 -0.10411789527E+04  0.10411789527E+04  0.00000000000E+00 0. -1.
    9000007    2    1    2  501    0 -0.13062007832E+02  0.18511014204E+03  0.36724015918E+03  0.57322956718E+03  0.39911204121E+03 0.  0.
    9000005    1    3    3    0    0  0.49322420902E+02 -0.97109785526E+02  0.22741032089E+03  0.25214968906E+03  0.99999687468E+00 0.  0.
          4    1    3    3  501    0 -0.62384428733E+02  0.28221992756E+03  0.13982983829E+03  0.32107987813E+03  0.00000000000E+00 0.  1.
   -9000007    1    1    2    0  503  0.13062007832E+02 -0.18511014204E+03 -0.88637236287E+03  0.98999613453E+03  0.40000000000E+03 0. -1.
<mgrwt>
<rscale>  2 0.44074794E+03</rscale>
<asrwt>0</asrwt>
<pdfrwt beam="1">  1       21 0.80314884E-01 0.44094941E+03</pdfrwt>
<pdfrwt beam="2">  1       21 0.16018138E+00 0.44094941E+03</pdfrwt>
<totfact> 0.28222235E+02</totfact>
</mgrwt>
</event>
<event>
 6    1  0.9163926E-004  0.5634635E+03  0.7818608E-02  0.9984581E-01
         21   -1    0    0  501  502  0.00000000000E+00  0.00000000000E+00  0.63766189690E+03  0.63766189690E+03  0.00000000000E+00 0. -1.
         21   -1    0    0  502  503 -0.00000000000E+00 -0.00000000000E+00 -0.92582530756E+03  0.92582530756E+03  0.00000000000E+00 0. -1.
    9000007    2    1    2  501    0 -0.35486301819E+03 -0.17577409185E+03  0.38767915443E+03  0.68394899276E+03  0.40083263948E+03 0.  0.
    9000005    1    3    3    0    0 -0.18892524753E+03  0.28730505129E+02  0.37428791663E+03  0.42025068187E+03  0.99999687468E+00 0.  0.
          4    1    3    3  501    0 -0.16593777065E+03 -0.20450459698E+03  0.13391237794E+02  0.26369831089E+03  0.00000000000E+00 0.  1.
   -9000007    1    1    2    0  503  0.35486301819E+03  0.17577409185E+03 -0.67584256509E+03  0.87953821170E+03  0.40000000000E+03 0. -1.
<mgrwt>
<rscale>  2 0.56331542E+03</rscale>
<asrwt>0</asrwt>
<pdfrwt beam="1">  1       21 0.98101830E-01 0.56346348E+03</pdfrwt>
<pdfrwt beam="2">  1       21 0.14243466E+00 0.56346348E+03</pdfrwt>
<totfact> 0.22938630E+02</totfact>
</mgrwt>
</event>
<event>
 6    1  0.9163926E-004  0.4381505E+03  0.7818608E-02  0.1031350E+00
         21   -1    0    0  501  502  0.00000000000E+00  0.00000000000E+00  0.35181061491E+03  0.35181061491E+03  0.00000000000E+00 0. -1.
         21   -1    0    0  502  503 -0.00000000000E+00 -0.00000000000E+00 -0.55764351999E+03  0.55764351999E+03  0.00000000000E+00 0. -1.
    9000007    2    1    2  501    0 -0.52486764515E+02 -0.16979287439E+03 -0.17110445229E+03  0.47037493239E+03  0.40048890470E+03 0.  0.
    9000005    1    3    3    0    0  0.70619827181E+02 -0.25901023735E+03 -0.17107062021E+03  0.31833884485E+03  0.99999687468E+00 0.  0.
          4    1    3    3  501    0 -0.12310659170E+03  0.89217362958E+02 -0.33832074666E-01  0.15203608755E+03  0.00000000000E+00 0.  1.
   -9000007    1    1    2    0  503  0.52486764515E+02  0.16979287439E+03 -0.34728452789E+02  0.43907920251E+03  0.40000000000E+03 0. -1.
<mgrwt>
<rscale>  2 0.43803873E+03</rscale>
<asrwt>0</asrwt>
<pdfrwt beam="1">  1       21 0.54124710E-01 0.43815048E+03</pdfrwt>
<pdfrwt beam="2">  1       21 0.85791310E-01 0.43815048E+03</pdfrwt>
<totfact> 0.33152476E+03</totfact>
</mgrwt>
</event>
<event>
 6    1  0.9163926E-004  0.4198930E+03  0.7818608E-02  0.1037319E+00
         21   -1    0    0  501  502  0.00000000000E+00  0.00000000000E+00  0.33707062781E+03  0.33707062781E+03  0.00000000000E+00 0. -1.
         21   -1    0    0  502  503 -0.00000000000E+00 -0.00000000000E+00 -0.14690561753E+04  0.14690561753E+04  0.00000000000E+00 0. -1.
    9000007    2    1    2  501    0  0.18746233178E+02  0.11716091124E+03  0.15931069890E+03  0.44909913341E+03  0.40278037746E+03 0.  0.
    9000005    1    3    3    0    0  0.99675248981E+02 -0.67185384606E+02  0.20956487808E+03  0.24159360357E+03  0.99999687468E+00 0.  0.
          4    1    3    3  501    0 -0.80929015803E+02  0.18434629585E+03 -0.50254179181E+02  0.20750552985E+03  0.00000000000E+00 0.  1.
   -9000007    1    1    2    0  503 -0.18746233178E+02 -0.11716091124E+03 -0.12912962464E+04  0.13570276697E+04  0.40000000000E+03 0. -1.
<mgrwt>
<rscale>  2 0.41922483E+03</rscale>
<asrwt>0</asrwt>
<pdfrwt beam="1">  1       21 0.51857019E-01 0.41989300E+03</pdfrwt>
<pdfrwt beam="2">  1       21 0.22600864E+00 0.41989300E+03</pdfrwt>
<totfact> 0.26782857E+02</totfact>
</mgrwt>
</event>
<event>
 6    1  0.9163926E-004  0.4157377E+03  0.7818608E-02  0.1038485E+00
         21   -1    0    0  501  502  0.00000000000E+00  0.00000000000E+00  0.83889626562E+03  0.83889626562E+03  0.00000000000E+00 0.  1.
         21   -1    0    0  502  503 -0.00000000000E+00 -0.00000000000E+00 -0.24249246133E+03  0.24249246133E+03  0.00000000000E+00 0.  1.
    9000007    2    1    2  501    0  0.60253954867E+02  0.94757017481E+02  0.50834149946E+03  0.65669542471E+03  0.40028535986E+03 0.  0.
    9000005    1    3    3    0    0  0.11911826807E+03  0.27996118238E+02  0.54637039956E+03  0.55990584738E+03  0.99999687468E+00 0.  0.
          4    1    3    3  501    0 -0.58864313201E+02  0.66760899243E+02 -0.38028900100E+02  0.96789577327E+02  0.00000000000E+00 0.  1.
   -9000007    1    1    2    0  503 -0.60253954867E+02 -0.94757017481E+02  0.88062304827E+02  0.42469330224E+03  0.40000000000E+03 0. -1.
<mgrwt>
<rscale>  2 0.41566895E+03</rscale>
<asrwt>0</asrwt>
<pdfrwt beam="1">  1       21 0.12906096E+00 0.41573766E+03</pdfrwt>
<pdfrwt beam="2">  1       21 0.37306533E-01 0.41573766E+03</pdfrwt>
<totfact> 0.26710563E+03</totfact>
</mgrwt>
</event>
<event>
 6    1  0.9163926E-004  0.6781132E+03  0.7818608E-02  0.9755697E-01
         21   -1    0    0  501  502  0.00000000000E+00  0.00000000000E+00  0.58828587202E+03  0.58828587202E+03  0.00000000000E+00 0.  1.
         21   -1    0    0  502  503 -0.00000000000E+00 -0.00000000000E+00 -0.79522291269E+03  0.79522291269E+03  0.00000000000E+00 0. -1.
    9000007    2    1    2  501    0  0.52558928233E+03 -0.15360160331E+03 -0.19620355943E+03  0.70531061762E+03  0.39891062201E+03 0.  0.
    9000005    1    3    3    0    0  0.36700904822E+03  0.86861198446E+02 -0.44519073122E+02  0.37976763571E+03  0.99999687468E+00 0.  0.
          4    1    3    3  501    0  0.15858023411E+03 -0.24046280176E+03 -0.15168448631E+03  0.32554298190E+03  0.00000000000E+00 0.  1.
   -9000007    1    1    2    0  503 -0.52558928233E+03  0.15360160331E+03 -0.10733481245E+02  0.67819816710E+03  0.40000000000E+03 0.  1.
<mgrwt>
<rscale>  2 0.67795266E+03</rscale>
<asrwt>0</asrwt>
<pdfrwt beam="1">  1       21 0.90505518E-01 0.67811323E+03</pdfrwt>
<pdfrwt beam="2">  1       21 0.12234199E+00 0.67811323E+03</pdfrwt>
<totfact> 0.39995827E+02</totfact>
</mgrwt>
</event>
<event>
 6    1  0.9163926E-004  0.5800902E+03  0.7818608E-02  0.9948112E-01
         21   -1    0    0  501  502  0.00000000000E+00  0.00000000000E+00  0.48527255742E+03  0.48527255742E+03  0.00000000000E+00 0. -1.
         21   -1    0    0  502  503 -0.00000000000E+00 -0.00000000000E+00 -0.94846518399E+03  0.94846518399E+03  0.00000000000E+00 0.  1.
    9000007    2    1    2  501    0 -0.30167318077E+03  0.29050599173E+03  0.14082135027E+03  0.59693828907E+03  0.40137791299E+03 0.  0.
    9000005    1    3    3    0    0 -0.25583717592E+03  0.36653747808E+03  0.20571666273E+02  0.44746684444E+03  0.99999687468E+00 0.  0.
          4    1    3    3  501    0 -0.45836004844E+02 -0.76031486354E+02  0.12024968400E+03  0.14947144463E+03  0.00000000000E+00 0.  1.
   -9000007    1    1    2    0  503  0.30167318077E+03 -0.29050599173E+03 -0.60401397684E+03  0.83679945235E+03  0.40000000000E+03 0.  1.
<mgrwt>
<rscale>  2 0.57985194E+03</rscale>
<asrwt>0</asrwt>
<pdfrwt beam="1">  1       21 0.74657316E-01 0.58009022E+03</pdfrwt>
<pdfrwt beam="2">  1       21 0.14591772E+00 0.58009022E+03</pdfrwt>
<totfact> 0.40655149E+02</totfact>
</mgrwt>
</event>
<event>
 6    1  0.9163926E-004  0.5424101E+03  0.7818608E-02  0.1003268E+00
         21   -1    0    0  501  502  0.00000000000E+00  0.00000000000E+00  0.67359560351E+03  0.67359560351E+03  0.00000000000E+00 0.  1.
         21   -1    0    0  502  503 -0.00000000000E+00 -0.00000000000E+00 -0.46446673259E+03  0.46446673259E+03  0.00000000000E+00 0. -1.
    9000007    2    1    2  501    0  0.29686886421E+03 -0.21456908697E+03  0.24358365358E+03  0.59459370990E+03  0.40004708215E+03 0.  0.
    9000005    1    3    3    0    0  0.12956293177E+03  0.11116471042E+03  0.11774774537E+03  0.20738774715E+03  0.99999687468E+00 0.  0.
          4    1    3    3  501    0  0.16730593243E+03 -0.32573379739E+03  0.12583590821E+03  0.38720596275E+03  0.00000000000E+00 0.  1.
   -9000007    1    1    2    0  503 -0.29686886421E+03  0.21456908697E+03 -0.34454782666E+02  0.54346862620E+03  0.40000000000E+03 0. -1.
<mgrwt>
<rscale>  2 0.54240139E+03</rscale>
<asrwt>0</asrwt>
<pdfrwt beam="1">  1       21 0.10363009E+00 0.54241007E+03</pdfrwt>
<pdfrwt beam="2">  1       21 0.71456420E-01 0.54241007E+03</pdfrwt>
<totfact> 0.10996977E+03</totfact>
</mgrwt>
</event>
<event>
 6    1  0.9163926E-004  0.5369997E+03  0.7818608E-02  0.1004582E+00
         21   -1    0    0  501  502  0.00000000000E+00  0.00000000000E+00  0.48361275406E+03  0.48361275406E+03  0.00000000000E+00 0.  1.
         21   -1    0    0  502  503 -0.00000000000E+00 -0.00000000000E+00 -0.59979946943E+03  0.59979946943E+03  0.00000000000E+00 0.  1.
    9000007    2    1    2  501    0  0.35428628535E+03 -0.53384210993E+02 -0.13028911379E+02  0.53659399181E+03  0.39924267501E+03 0.  0.
    9000005    1    3    3    0    0  0.18459694463E+03 -0.22348411746E+03  0.33720912089E+02  0.29182063435E+03  0.99999687468E+00 0.  0.
          4    1    3    3  501    0  0.16968934072E+03  0.17009990647E+03 -0.46749823468E+02  0.24477335747E+03  0.00000000000E+00 0.  1.
   -9000007    1    1    2    0  503 -0.35428628535E+03  0.53384210993E+02 -0.10315780400E+03  0.54681823168E+03  0.40000000000E+03 0.  1.
<mgrwt>
<rscale>  2 0.53685865E+03</rscale>
<asrwt>0</asrwt>
<pdfrwt beam="1">  1       21 0.74401962E-01 0.53699967E+03</pdfrwt>
<pdfrwt beam="2">  1       21 0.92276841E-01 0.53699967E+03</pdfrwt>
<totfact> 0.13317247E+03</totfact>
</mgrwt>
</event>
<event>
 6    1  0.9163926E-004  0.4501754E+03  0.7818608E-02  0.1027693E+00
         21   -1    0    0  501  502  0.00000000000E+00  0.00000000000E+00  0.81914864887E+03  0.81914864887E+03  0.00000000000E+00 0.  1.
         21   -1    0    0  502  503 -0.00000000000E+00 -0.00000000000E+00 -0.38597525025E+03  0.38597525025E+03  0.00000000000E+00 0.  1.
    9000007    2    1    2  501    0 -0.41680472582E+02 -0.20228852644E+03  0.57780971895E+03  0.73228399504E+03  0.39964717984E+03 0.  0.
    9000005    1    3    3    0    0 -0.60829479549E+02 -0.13511649074E+03 -0.20868663894E+01  0.14819597382E+03  0.99999687468E+00 0.  0.
          4    1    3    3  501    0  0.19149006967E+02 -0.67172035708E+02  0.57989658534E+03  0.58408802123E+03  0.00000000000E+00 0.  1.
   -9000007    1    1    2    0  503  0.41680472582E+02  0.20228852644E+03 -0.14463632033E+03  0.47283990407E+03  0.40000000000E+03 0.  1.
<mgrwt>
<rscale>  2 0.45009703E+03</rscale>
<asrwt>0</asrwt>
<pdfrwt beam="1">  1       21 0.12602287E+00 0.45017542E+03</pdfrwt>
<pdfrwt beam="2">  1       21 0.59380808E-01 0.45017542E+03</pdfrwt>
<totfact> 0.10511659E+03</totfact>
</mgrwt>
</event>
<event>
 6    1  0.9163926E-004  0.4883531E+03  0.7818608E-02  0.1017022E+00
         21   -1    0    0  501  502  0.00000000000E+00  0.00000000000E+00  0.32720433765E+03  0.32720433765E+03  0.00000000000E+00 0.  1.
         21   -1    0    0  502  503 -0.00000000000E+00 -0.00000000000E+00 -0.88453800102E+03  0.88453800102E+03  0.00000000000E+00 0. -1.
    9000007    2    1    2  501    0  0.27547705775E+03 -0.17958325265E+02 -0.22215527579E+02  0.48885816396E+03  0.40283826036E+03 0.  0.
    9000005    1    3    3    0    0 -0.43500125319E+01 -0.11216125616E+03 -0.13251783744E+03  0.17366936179E+03  0.99999687468E+00 0.  0.
          4    1    3    3  501    0  0.27982707028E+03  0.94202930897E+02  0.11030230986E+03  0.31518880217E+03  0.00000000000E+00 0.  1.
   -9000007    1    1    2    0  503 -0.27547705775E+03  0.17958325265E+02 -0.53511813580E+03  0.72288417471E+03  0.40000000000E+03 0. -1.
<mgrwt>
<rscale>  2 0.48776742E+03</rscale>
<asrwt>0</asrwt>
<pdfrwt beam="1">  1       21 0.50339129E-01 0.48835313E+03</pdfrwt>
<pdfrwt beam="2">  1       21 0.13608277E+00 0.48835313E+03</pdfrwt>
<totfact> 0.12110333E+03</totfact>
</mgrwt>
</event>
<event>
 6    1  0.9163926E-004  0.4077013E+03  0.7818608E-02  0.1041198E+00
         21   -1    0    0  501  502  0.00000000000E+00  0.00000000000E+00  0.79607305652E+03  0.79607305652E+03  0.00000000000E+00 0.  1.
         21   -1    0    0  502  503 -0.00000000000E+00 -0.00000000000E+00 -0.31983404827E+03  0.31983404827E+03  0.00000000000E+00 0.  1.
    9000007    2    1    2  501    0 -0.64457841888E+02 -0.39487093635E+02  0.56745639259E+03  0.69873249489E+03  0.40063237261E+03 0.  0.
    9000005    1    3    3    0    0  0.14322325085E+03 -0.69048181138E+02  0.39958491250E+03  0.43005773239E+03  0.99999687468E+00 0.  0.
          4    1    3    3  501    0 -0.20768109274E+03  0.29561087503E+02  0.16787148009E+03  0.26867476250E+03  0.00000000000E+00 0.  1.
   -9000007    1    1    2    0  503  0.64457841888E+02  0.39487093635E+02 -0.91217384341E+02  0.41717460991E+03  0.40000000000E+03 0.  1.
<mgrwt>
<rscale>  2 0.40754585E+03</rscale>
<asrwt>0</asrwt>
<pdfrwt beam="1">  1       21 0.12247278E+00 0.40770129E+03</pdfrwt>
<pdfrwt beam="2">  1       21 0.49205238E-01 0.40770129E+03</pdfrwt>
<totfact> 0.17255570E+03</totfact>
</mgrwt>
</event>
<event>
 6    1  0.9163926E-004  0.4819364E+03  0.7818608E-02  0.1018638E+00
         21   -1    0    0  501  502  0.00000000000E+00  0.00000000000E+00  0.21724420508E+03  0.21724420508E+03  0.00000000000E+00 0.  1.
         21   -1    0    0  502  503 -0.00000000000E+00 -0.00000000000E+00 -0.15401131497E+04  0.15401131497E+04  0.00000000000E+00 0. -1.
    9000007    2    1    2  501    0 -0.60838112355E+02 -0.26094891250E+03 -0.17520122706E+03  0.51279445931E+03  0.40058342038E+03 0.  0.
    9000005    1    3    3    0    0 -0.47124622402E+02 -0.10738357394E+02 -0.24734898514E+03  0.25202889278E+03  0.99999687468E+00 0.  0.
          4    1    3    3  501    0 -0.13713489953E+02 -0.25021055510E+03  0.72147758072E+02  0.26076556653E+03  0.00000000000E+00 0.  1.
   -9000007    1    1    2    0  503  0.60838112355E+02  0.26094891250E+03 -0.11476677175E+04  0.12445628954E+04  0.40000000000E+03 0. -1.
<mgrwt>
<rscale>  2 0.48181514E+03</rscale>
<asrwt>0</asrwt>
<pdfrwt beam="1">  1       21 0.33422186E-01 0.48193639E+03</pdfrwt>
<pdfrwt beam="2">  1       21 0.23694048E+00 0.48193639E+03</pdfrwt>
<totfact> 0.55005000E+02</totfact>
</mgrwt>
</event>
<event>
 6    1  0.9163926E-004  0.4827905E+03  0.7818608E-02  0.1018384E+00
         21   -1    0    0  501  502  0.00000000000E+00  0.00000000000E+00  0.11307567988E+03  0.11307567988E+03  0.00000000000E+00 0. -1.
         21   -1    0    0  502  503 -0.00000000000E+00 -0.00000000000E+00 -0.20860278869E+04  0.20860278869E+04  0.00000000000E+00 0. -1.
    9000007    2    1    2  501    0 -0.25361618666E+03  0.92666274250E+02 -0.11081934001E+04  0.12087925032E+04  0.40022305682E+03 0.  0.
    9000005    1    3    3    0    0 -0.17223293727E+03  0.11150009556E+03 -0.16879203530E+03  0.26568441272E+03  0.99999687468E+00 0.  0.
          4    1    3    3  501    0 -0.81383249394E+02 -0.18833821310E+02 -0.93940136477E+03  0.94310809043E+03  0.00000000000E+00 0.  1.
   -9000007    1    1    2    0  503  0.25361618666E+03 -0.92666274250E+02 -0.86475880695E+03  0.99031106361E+03  0.40000000000E+03 0. -1.
<mgrwt>
<rscale>  2 0.48274431E+03</rscale>
<asrwt>0</asrwt>
<pdfrwt beam="1">  1       21 0.17396260E-01 0.48279054E+03</pdfrwt>
<pdfrwt beam="2">  1       21 0.32092734E+00 0.48279054E+03</pdfrwt>
<totfact> 0.60321475E+02</totfact>
</mgrwt>
</event>
<event>
 6    1  0.9163926E-004  0.4921364E+03  0.7818608E-02  0.1015879E+00
         21   -1    0    0  501  502  0.00000000000E+00  0.00000000000E+00  0.12146277799E+04  0.12146277799E+04  0.00000000000E+00 0. -1.
         21   -1    0    0  502  503 -0.00000000000E+00 -0.00000000000E+00 -0.27958403064E+03  0.27958403064E+03  0.00000000000E+00 0. -1.
    9000007    2    1    2  501    0  0.76208533444E+02 -0.27567874061E+03  0.86815718167E+03  0.99794542895E+03  0.40048929883E+03 0.  0.
    9000005    1    3    3    0    0  0.13765618639E+03  0.48606561400E+02  0.39440192364E+03  0.42055404032E+03  0.99999687468E+00 0.  0.
          4    1    3    3  501    0 -0.61447652950E+02 -0.32428530201E+03  0.47375525803E+03  0.57739138863E+03  0.00000000000E+00 0.  1.
   -9000007    1    1    2    0  503 -0.76208533444E+02  0.27567874061E+03  0.66886567613E+02  0.49626638161E+03  0.40000000000E+03 0. -1.
<mgrwt>
<rscale>  2 0.49203680E+03</rscale>
<asrwt>0</asrwt>
<pdfrwt beam="1">  1       21 0.18686581E+00 0.49213635E+03</pdfrwt>
<pdfrwt beam="2">  1       21 0.43012928E-01 0.49213635E+03</pdfrwt>
<totfact> 0.69413198E+02</totfact>
</mgrwt>
</event>
<event>
 6    1  0.9163926E-004  0.4346511E+03  0.7818608E-02  0.1032486E+00
         21   -1    0    0  501  502  0.00000000000E+00  0.00000000000E+00  0.16612269949E+03  0.16612269949E+03  0.00000000000E+00 0. -1.
         21   -1    0    0  502  503 -0.00000000000E+00 -0.00000000000E+00 -0.11344982986E+04  0.11344982986E+04  0.00000000000E+00 0. -1.
    9000007    2    1    2  501    0 -0.16926642865E+03 -0.16444246750E+02 -0.48991548523E+03  0.65421120726E+03  0.39881522528E+03 0.  0.
    9000005    1    3    3    0    0 -0.14843668603E+03 -0.19716012879E+03 -0.32947440576E+03  0.41165513502E+03  0.99999687468E+00 0.  0.
          4    1    3    3  501    0 -0.20829742620E+02  0.18071588204E+03 -0.16044107947E+03  0.24255607224E+03  0.00000000000E+00 0.  1.
   -9000007    1    1    2    0  503  0.16926642865E+03  0.16444246750E+02 -0.47846011388E+03  0.64640979084E+03  0.40000000000E+03 0. -1.
<mgrwt>
<rscale>  2 0.43437828E+03</rscale>
<asrwt>0</asrwt>
<pdfrwt beam="1">  1       21 0.25557338E-01 0.43465105E+03</pdfrwt>
<pdfrwt beam="2">  1       21 0.17453820E+00 0.43465105E+03</pdfrwt>
<totfact> 0.24778203E+03</totfact>
</mgrwt>
</event>
<event>
 6    1  0.9163926E-004  0.4952160E+03  0.7818608E-02  0.1015037E+00
         21   -1    0    0  501  502  0.00000000000E+00  0.00000000000E+00  0.32891296569E+03  0.32891296569E+03  0.00000000000E+00 0. -1.
         21   -1    0    0  502  503 -0.00000000000E+00 -0.00000000000E+00 -0.75172269258E+03  0.75172269258E+03  0.00000000000E+00 0. -1.
    9000007    2    1    2  501    0 -0.27023438108E+03  0.11050933724E+03 -0.16249983873E+03  0.52117147515E+03  0.39996821697E+03 0.  0.
    9000005    1    3    3    0    0 -0.30809773382E+03 -0.12158416927E+02 -0.22173244504E+03  0.37978720076E+03  0.99999687468E+00 0.  0.
          4    1    3    3  501    0  0.37863352743E+02  0.12266775417E+03  0.59232606303E+02  0.14138427438E+03  0.00000000000E+00 0.  1.
   -9000007    1    1    2    0  503  0.27023438108E+03 -0.11050933724E+03 -0.26030988816E+03  0.55946418313E+03  0.40000000000E+03 0. -1.
<mgrwt>
<rscale>  2 0.49520963E+03</rscale>
<asrwt>0</asrwt>
<pdfrwt beam="1">  1       21 0.50601995E-01 0.49521605E+03</pdfrwt>
<pdfrwt beam="2">  1       21 0.11564964E+00 0.49521605E+03</pdfrwt>
<totfact> 0.18169599E+03</totfact>
</mgrwt>
</event>
<event>
 6    1  0.9163926E-004  0.4621303E+03  0.7818608E-02  0.1024177E+00
         21   -1    0    0  501  502  0.00000000000E+00  0.00000000000E+00  0.31129678426E+04  0.31129678426E+04  0.00000000000E+00 0.  1.
         21   -1    0    0  502  503 -0.00000000000E+00 -0.00000000000E+00 -0.70558714546E+02  0.70558714546E+02  0.00000000000E+00 0. -1.
    9000007    2    1    2  501    0  0.10343476501E+03  0.20667669824E+03  0.17879843513E+04  0.18467410363E+04  0.40018796391E+03 0.  0.
    9000005    1    3    3    0    0  0.16956193261E+03 -0.34689904882E+02  0.39210028188E+03  0.42860036110E+03  0.99999687468E+00 0.  0.
          4    1    3    3  501    0 -0.66127167602E+02  0.24136660312E+03  0.13958840694E+04  0.14181406752E+04  0.00000000000E+00 0.  1.
   -9000007    1    1    2    0  503 -0.10343476501E+03 -0.20667669824E+03  0.12544247767E+04  0.13367855208E+04  0.40000000000E+03 0. -1.
<mgrwt>
<rscale>  2 0.46208961E+03</rscale>
<asrwt>0</asrwt>
<pdfrwt beam="1">  1       21 0.47891802E+00 0.46213030E+03</pdfrwt>
<pdfrwt beam="2">  1       21 0.10855189E-01 0.46213030E+03</pdfrwt>
<totfact> 0.13923617E+02</totfact>
</mgrwt>
</event>
<event>
 6    1  0.9163926E-004  0.4187235E+03  0.7818608E-02  0.1038182E+00
         21   -1    0    0  501  502  0.00000000000E+00  0.00000000000E+00  0.33033251964E+03  0.33033251964E+03  0.00000000000E+00 0. -1.
         21   -1    0    0  502  503 -0.00000000000E+00 -0.00000000000E+00 -0.58306963836E+03  0.58306963836E+03  0.00000000000E+00 0. -1.
    9000007    2    1    2  501    0 -0.52161174088E+02 -0.11228806696E+03  0.24873962202E+02  0.41101056739E+03  0.39112859068E+03 0.  0.
    9000005    1    3    3    0    0 -0.69178037539E+02 -0.23111586668E+03  0.10869165328E+03  0.26460351509E+03  0.99999687468E+00 0.  0.
          4    1    3    3  501    0  0.17016863450E+02  0.11882779972E+03 -0.83817691076E+02  0.14640705231E+03  0.00000000000E+00 0.  1.
   -9000007    1    1    2    0  503  0.52161174088E+02  0.11228806696E+03 -0.27761108092E+03  0.50239159061E+03  0.40000000000E+03 0. -1.
<mgrwt>
<rscale>  2 0.41659071E+03</rscale>
<asrwt>0</asrwt>
<pdfrwt beam="1">  1       21 0.50820388E-01 0.41872353E+03</pdfrwt>
<pdfrwt beam="2">  1       21 0.89703021E-01 0.41872353E+03</pdfrwt>
<totfact> 0.34403749E+03</totfact>
</mgrwt>
</event>
<event>
 6    1  0.9163926E-004  0.7757833E+03  0.7818608E-02  0.9595780E-01
         21   -1    0    0  501  502  0.00000000000E+00  0.00000000000E+00  0.15841618424E+04  0.15841618424E+04  0.00000000000E+00 0.  1.
         21   -1    0    0  502  503 -0.00000000000E+00 -0.00000000000E+00 -0.61091943742E+03  0.61091943742E+03  0.00000000000E+00 0. -1.
    9000007    2    1    2  501    0  0.99972971208E+02 -0.65704622703E+03  0.11616062266E+04  0.13968424253E+04  0.40016920919E+03 0.  0.
    9000005    1    3    3    0    0 -0.73181579860E+02 -0.55854120331E+03  0.96225250806E+03  0.11150133222E+04  0.99999687468E+00 0.  0.
          4    1    3    3  501    0  0.17315455107E+03 -0.98505023714E+02  0.19935371858E+03  0.28182910312E+03  0.00000000000E+00 0.  1.
   -9000007    1    1    2    0  503 -0.99972971208E+02  0.65704622703E+03 -0.18836382171E+03  0.79823885445E+03  0.40000000000E+03 0.  1.
<mgrwt>
<rscale>  2 0.77576149E+03</rscale>
<asrwt>0</asrwt>
<pdfrwt beam="1">  1       21 0.24371721E+00 0.77578330E+03</pdfrwt>
<pdfrwt beam="2">  1       21 0.93987606E-01 0.77578330E+03</pdfrwt>
<totfact> 0.45827599E+01</totfact>
</mgrwt>
</event>
<event>
 6    1  0.9163926E-004  0.4500766E+03  0.7818608E-02  0.1027723E+00
         21   -1    0    0  501  502  0.00000000000E+00  0.00000000000E+00  0.27330820907E+03  0.27330820907E+03  0.00000000000E+00 0.  1.
         21   -1    0    0  502  503 -0.00000000000E+00 -0.00000000000E+00 -0.17815855023E+04  0.17815855023E+04  0.00000000000E+00 0.  1.
    9000007    2    1    2  501    0  0.17247927436E+03 -0.11197398613E+03  0.31107474867E+02  0.45115035973E+03  0.40035196819E+03 0.  0.
    9000005    1    3    3    0    0 -0.13086793616E+03 -0.30208645374E+02  0.26725683593E+02  0.13694612491E+03  0.99999687468E+00 0.  0.
          4    1    3    3  501    0  0.30334721053E+03 -0.81765340755E+02  0.43817912740E+01  0.31420423482E+03  0.00000000000E+00 0.  1.
   -9000007    1    1    2    0  503 -0.17247927436E+03  0.11197398613E+03 -0.15393847681E+04  0.16037433516E+04  0.40000000000E+03 0.  1.
<mgrwt>
<rscale>  2 0.44999835E+03</rscale>
<asrwt>0</asrwt>
<pdfrwt beam="1">  1       21 0.42047418E-01 0.45007663E+03</pdfrwt>
<pdfrwt beam="2">  1       21 0.27409007E+00 0.45007663E+03</pdfrwt>
<totfact> 0.20717524E+02</totfact>
</mgrwt>
</event>
<event>
 6    1  0.9163926E-004  0.4217647E+03  0.7818608E-02  0.1036506E+00
         21   -1    0    0  501  502  0.00000000000E+00  0.00000000000E+00  0.12675675366E+03  0.12675675366E+03  0.00000000000E+00 0. -1.
         21   -1    0    0  502  503 -0.00000000000E+00 -0.00000000000E+00 -0.14768617639E+04  0.14768617639E+04  0.00000000000E+00 0. -1.
    9000007    2    1    2  501    0  0.12912791974E+03  0.34805704768E+02 -0.49546332021E+03  0.65057188959E+03  0.39984300057E+03 0.  0.
    9000005    1    3    3    0    0 -0.12962305989E+03  0.77869196335E+02 -0.24487751887E+03  0.28780505318E+03  0.99999687468E+00 0.  0.
          4    1    3    3  501    0  0.25875097963E+03 -0.43063491567E+02 -0.25058580134E+03  0.36276683641E+03  0.00000000000E+00 0.  1.
   -9000007    1    1    2    0  503 -0.12912791974E+03 -0.34805704768E+02 -0.85464169006E+03  0.95304662799E+03  0.40000000000E+03 0.  1.
<mgrwt>
<rscale>  2 0.42172746E+03</rscale>
<asrwt>0</asrwt>
<pdfrwt beam="1">  1       21 0.19501040E-01 0.42176469E+03</pdfrwt>
<pdfrwt beam="2">  1       21 0.22720949E+00 0.42176469E+03</pdfrwt>
<totfact> 0.18660511E+03</totfact>
</mgrwt>
</event>
<event>
 6    1  0.9163926E-004  0.5486019E+03  0.7818608E-02  0.1001855E+00
         21   -1    0    0  501  502  0.00000000000E+00  0.00000000000E+00  0.41157972148E+03  0.41157972148E+03  0.00000000000E+00 0. -1.
         21   -1    0    0  502  503 -0.00000000000E+00 -0.00000000000E+00 -0.85129076205E+03  0.85129076205E+03  0.00000000000E+00 0.  1.
    9000007    2    1    2  501    0  0.24376537165E+03 -0.28555640477E+03  0.18204763238E+02  0.54827206477E+03  0.39913259311E+03 0.  0.
    9000005    1    3    3    0    0  0.34234042113E+03 -0.13650934543E+03 -0.91997114725E+00  0.36855611739E+03  0.99999687468E+00 0.  0.
          4    1    3    3  501    0 -0.98575049478E+02 -0.14904705934E+03  0.19124734385E+02  0.17971594738E+03  0.00000000000E+00 0.  1.
   -9000007    1    1    2    0  503 -0.24376537165E+03  0.28555640477E+03 -0.45791580381E+03  0.71459841876E+03  0.40000000000E+03 0.  1.
<mgrwt>
<rscale>  2 0.54844377E+03</rscale>
<asrwt>0</asrwt>
<pdfrwt beam="1">  1       21 0.63319957E-01 0.54860187E+03</pdfrwt>
<pdfrwt beam="2">  1       21 0.13096781E+00 0.54860187E+03</pdfrwt>
<totfact> 0.79526286E+02</totfact>
</mgrwt>
</event>
<event>
 6    1  0.9163926E-004  0.4289303E+03  0.7818608E-02  0.1034293E+00
         21   -1    0    0  501  502  0.00000000000E+00  0.00000000000E+00  0.81991769574E+03  0.81991769574E+03  0.00000000000E+00 0.  1.
         21   -1    0    0  502  503 -0.00000000000E+00 -0.00000000000E+00 -0.23292348205E+03  0.23292348205E+03  0.00000000000E+00 0.  1.
    9000007    2    1    2  501    0 -0.47301239454E+02 -0.14745791440E+03  0.39748516377E+03  0.58391162682E+03  0.39871931072E+03 0.  0.
    9000005    1    3    3    0    0 -0.94451367719E+02  0.10853623603E+03  0.23956785868E+03  0.27945470886E+03  0.99999687468E+00 0.  0.
          4    1    3    3  501    0  0.47150128264E+02 -0.25599415043E+03  0.15791730509E+03  0.30445691797E+03  0.00000000000E+00 0.  1.
   -9000007    1    1    2    0  503  0.47301239454E+02  0.14745791440E+03  0.18950904991E+03  0.46892955097E+03  0.40000000000E+03 0.  1.
<mgrwt>
<rscale>  2 0.42863152E+03</rscale>
<asrwt>0</asrwt>
<pdfrwt beam="1">  1       21 0.12614118E+00 0.42893035E+03</pdfrwt>
<pdfrwt beam="2">  1       21 0.35834382E-01 0.42893035E+03</pdfrwt>
<totfact> 0.30591194E+03</totfact>
</mgrwt>
</event>
<event>
 6    1  0.9163926E-004  0.7145447E+03  0.7818608E-02  0.9692841E-01
         21   -1    0    0  501  502  0.00000000000E+00  0.00000000000E+00  0.12230245019E+04  0.12230245019E+04  0.00000000000E+00 0. -1.
         21   -1    0    0  502  503 -0.00000000000E+00 -0.00000000000E+00 -0.79186003028E+03  0.79186003028E+03  0.00000000000E+00 0.  1.
    9000007    2    1    2  501    0  0.85208498113E+02  0.58592969295E+03  0.90848546487E+03  0.11555770064E+04  0.39929723857E+03 0.  0.
    9000005    1    3    3    0    0 -0.50788382421E+02  0.41617349821E+03  0.81958330121E+03  0.92059634369E+03  0.99999687468E+00 0.  0.
          4    1    3    3  501    0  0.13599688053E+03  0.16975619474E+03  0.88902163656E+02  0.23498066276E+03  0.00000000000E+00 0.  1.
   -9000007    1    1    2    0  503 -0.85208498113E+02 -0.58592969295E+03 -0.47732099323E+03  0.85930752575E+03  0.40000000000E+03 0.  1.
<mgrwt>
<rscale>  2 0.71444636E+03</rscale>
<asrwt>0</asrwt>
<pdfrwt beam="1">  1       21 0.18815762E+00 0.71454468E+03</pdfrwt>
<pdfrwt beam="2">  1       21 0.12182462E+00 0.71454468E+03</pdfrwt>
<totfact> 0.57002702E+01</totfact>
</mgrwt>
</event>
<event>
 6    1  0.9163926E-004  0.5751970E+03  0.7818608E-02  0.9958288E-01
         21   -1    0    0  501  502  0.00000000000E+00  0.00000000000E+00  0.33393589621E+03  0.33393589621E+03  0.00000000000E+00 0. -1.
         21   -1    0    0  502  503 -0.00000000000E+00 -0.00000000000E+00 -0.11730769911E+04  0.11730769911E+04  0.00000000000E+00 0. -1.
    9000007    2    1    2  501    0 -0.38115948209E+03  0.15990328253E+03 -0.12237929162E+03  0.58799216221E+03  0.39988308448E+03 0.  0.
    9000005    1    3    3    0    0 -0.34953756543E+03  0.17789563251E+03  0.64614955633E+02  0.39749145676E+03  0.99999687468E+00 0.  0.
          4    1    3    3  501    0 -0.31621916658E+02 -0.17992349984E+02 -0.18699424725E+03  0.19050070545E+03  0.00000000000E+00 0.  1.
   -9000007    1    1    2    0  503  0.38115948209E+03 -0.15990328253E+03 -0.71676180328E+03  0.91902072511E+03  0.40000000000E+03 0. -1.
<mgrwt>
<rscale>  2 0.57517669E+03</rscale>
<asrwt>0</asrwt>
<pdfrwt beam="1">  1       21 0.51374752E-01 0.57519702E+03</pdfrwt>
<pdfrwt beam="2">  1       21 0.18047339E+00 0.57519702E+03</pdfrwt>
<totfact> 0.51154719E+02</totfact>
</mgrwt>
</event>
<event>
 6    1  0.9163926E-004  0.4391490E+03  0.7818608E-02  0.1031099E+00
         21   -1    0    0  501  502  0.00000000000E+00  0.00000000000E+00  0.77936684421E+03  0.77936684421E+03  0.00000000000E+00 0. -1.
         21   -1    0    0  502  503 -0.00000000000E+00 -0.00000000000E+00 -0.40170293356E+03  0.40170293356E+03  0.00000000000E+00 0. -1.
    9000007    2    1    2  501    0 -0.14865739310E+03  0.10369594997E+03  0.55540370655E+03  0.70731529956E+03  0.39871015185E+03 0.  0.
    9000005    1    3    3    0    0 -0.53544218878E+01  0.67365003776E+02 -0.50033681171E+02  0.84089730721E+02  0.99999687468E+00 0.  0.
          4    1    3    3  501    0 -0.14330297121E+03  0.36330946199E+02  0.60543738772E+03  0.62322556884E+03  0.00000000000E+00 0.  1.
   -9000007    1    1    2    0  503  0.14865739310E+03 -0.10369594997E+03 -0.17773979590E+03  0.47375447820E+03  0.40000000000E+03 0. -1.
<mgrwt>
<rscale>  2 0.43885510E+03</rscale>
<asrwt>0</asrwt>
<pdfrwt beam="1">  1       21 0.11990259E+00 0.43914903E+03</pdfrwt>
<pdfrwt beam="2">  1       21 0.61800451E-01 0.43914903E+03</pdfrwt>
<totfact> 0.10989592E+03</totfact>
</mgrwt>
</event>
<event>
 6    1  0.9163926E-004  0.4292203E+03  0.7818608E-02  0.1034156E+00
         21   -1    0    0  501  502  0.00000000000E+00  0.00000000000E+00  0.34948692954E+03  0.34948692954E+03  0.00000000000E+00 0.  1.
         21   -1    0    0  502  503 -0.00000000000E+00 -0.00000000000E+00 -0.74718426013E+03  0.74718426013E+03  0.00000000000E+00 0.  1.
    9000007    2    1    2  501    0  0.14539510480E+03  0.50543121021E+02  0.99133279501E+02  0.44051953136E+03  0.40066907395E+03 0.  0.
    9000005    1    3    3    0    0  0.14011303418E+03 -0.77908273731E+02 -0.11042517440E+03  0.19466915677E+03  0.99999687468E+00 0.  0.
          4    1    3    3  501    0  0.52820706211E+01  0.12845139475E+03  0.20955845390E+03  0.24585037459E+03  0.00000000000E+00 0.  1.
   -9000007    1    1    2    0  503 -0.14539510480E+03 -0.50543121021E+02 -0.49683061009E+03  0.65615165831E+03  0.40000000000E+03 0.  1.
<mgrwt>
<rscale>  2 0.42906407E+03</rscale>
<asrwt>0</asrwt>
<pdfrwt beam="1">  1       21 0.53767220E-01 0.42922028E+03</pdfrwt>
<pdfrwt beam="2">  1       21 0.11495142E+00 0.42922028E+03</pdfrwt>
<totfact> 0.16610032E+03</totfact>
</mgrwt>
</event>
<event>
 6    1  0.9163926E-004  0.5551210E+03  0.7818608E-02  0.1000321E+00
         21   -1    0    0  501  502  0.00000000000E+00  0.00000000000E+00  0.10168962044E+04  0.10168962044E+04  0.00000000000E+00 0.  1.
         21   -1    0    0  502  503 -0.00000000000E+00 -0.00000000000E+00 -0.68893980970E+03  0.68893980970E+03  0.00000000000E+00 0.  1.
    9000007    2    1    2  501    0 -0.20697062204E+02 -0.38421730697E+03  0.80237193661E+03  0.97568437657E+03  0.40013494057E+03 0.  0.
    9000005    1    3    3    0    0  0.15537903619E+02  0.30043313405E+02  0.38509640785E+03  0.38658022513E+03  0.99999687468E+00 0.  0.
          4    1    3    3  501    0 -0.36234965822E+02 -0.41426062038E+03  0.41727552876E+03  0.58910415144E+03  0.00000000000E+00 0.  1.
   -9000007    1    1    2    0  503  0.20697062204E+02  0.38421730697E+03 -0.47441554192E+03  0.73015163752E+03  0.40000000000E+03 0.  1.
<mgrwt>
<rscale>  2 0.55509664E+03</rscale>
<asrwt>0</asrwt>
<pdfrwt beam="1">  1       21 0.15644557E+00 0.55512096E+03</pdfrwt>
<pdfrwt beam="2">  1       21 0.10599074E+00 0.55512096E+03</pdfrwt>
<totfact> 0.14727959E+02</totfact>
</mgrwt>
</event>
<event>
 6    1  0.9163926E-004  0.4337760E+03  0.7818608E-02  0.1032691E+00
         21   -1    0    0  501  502  0.00000000000E+00  0.00000000000E+00  0.95333902375E+03  0.95333902375E+03  0.00000000000E+00 0.  1.
         21   -1    0    0  502  503 -0.00000000000E+00 -0.00000000000E+00 -0.31986295257E+03  0.31986295257E+03  0.00000000000E+00 0.  1.
    9000007    2    1    2  501    0  0.11927370716E+03  0.11724016755E+03  0.71089570392E+03  0.83278708824E+03  0.40023762738E+03 0.  0.
    9000005    1    3    3    0    0  0.17917788007E+02 -0.12950996804E+03  0.41160022722E+03  0.43186760238E+03  0.99999687468E+00 0.  0.
          4    1    3    3  501    0  0.10135591916E+03  0.24675013559E+03  0.29929547671E+03  0.40091948586E+03  0.00000000000E+00 0.  1.
   -9000007    1    1    2    0  503 -0.11927370716E+03 -0.11724016755E+03 -0.77419632750E+02  0.44041488808E+03  0.40000000000E+03 0.  1.
<mgrwt>
<rscale>  2 0.43372119E+03</rscale>
<asrwt>0</asrwt>
<pdfrwt beam="1">  1       21 0.14666754E+00 0.43377602E+03</pdfrwt>
<pdfrwt beam="2">  1       21 0.49209685E-01 0.43377602E+03</pdfrwt>
<totfact> 0.10641373E+03</totfact>
</mgrwt>
</event>
<event>
 6    1  0.9163926E-004  0.4328727E+03  0.7818608E-02  0.1033025E+00
         21   -1    0    0  501  502  0.00000000000E+00  0.00000000000E+00  0.15968318658E+04  0.15968318658E+04  0.00000000000E+00 0. -1.
         21   -1    0    0  502  503 -0.00000000000E+00 -0.00000000000E+00 -0.12351766084E+03  0.12351766084E+03  0.00000000000E+00 0.  1.
    9000007    2    1    2  501    0 -0.15484992073E+03  0.51433437921E+02  0.93331544768E+03  0.10288131542E+04  0.40094249583E+03 0.  0.
    9000005    1    3    3    0    0  0.27677369520E+02 -0.15489227396E+03  0.33189421033E+03  0.36730426102E+03  0.99999687468E+00 0.  0.
          4    1    3    3  501    0 -0.18252729025E+03  0.20632571188E+03  0.60142123734E+03  0.66150889321E+03  0.00000000000E+00 0.  1.
   -9000007    1    1    2    0  503  0.15484992073E+03 -0.51433437921E+02  0.53999875723E+03  0.69153637236E+03  0.40000000000E+03 0.  1.
<mgrwt>
<rscale>  2 0.43265434E+03</rscale>
<asrwt>0</asrwt>
<pdfrwt beam="1">  1       21 0.24566643E+00 0.43287271E+03</pdfrwt>
<pdfrwt beam="2">  1       21 0.19002718E-01 0.43287271E+03</pdfrwt>
<totfact> 0.14962667E+03</totfact>
</mgrwt>
</event>
<event>
 6    1  0.9163926E-004  0.4750685E+03  0.7818608E-02  0.1020516E+00
         21   -1    0    0  501  502  0.00000000000E+00  0.00000000000E+00  0.28852789588E+03  0.28852789588E+03  0.00000000000E+00 0.  1.
         21   -1    0    0  502  503 -0.00000000000E+00 -0.00000000000E+00 -0.80969803842E+03  0.80969803842E+03  0.00000000000E+00 0.  1.
    9000007    2    1    2  501    0 -0.13908559454E+03 -0.21473898269E+03 -0.15874067743E+03  0.50088788053E+03  0.40029043568E+03 0.  0.
    9000005    1    3    3    0    0  0.66422102662E+02  0.58539816600E+02 -0.13062509866E+03  0.15780596390E+03  0.99999687468E+00 0.  0.
          4    1    3    3  501    0 -0.20550769720E+03 -0.27327879929E+03 -0.28115578767E+02  0.34308191663E+03  0.00000000000E+00 0.  1.
   -9000007    1    1    2    0  503  0.13908559454E+03  0.21473898269E+03 -0.36242946512E+03  0.59733805377E+03  0.40000000000E+03 0.  1.
<mgrwt>
<rscale>  2 0.47500730E+03</rscale>
<asrwt>0</asrwt>
<pdfrwt beam="1">  1       21 0.44388908E-01 0.47506849E+03</pdfrwt>
<pdfrwt beam="2">  1       21 0.12456893E+00 0.47506849E+03</pdfrwt>
<totfact> 0.19981164E+03</totfact>
</mgrwt>
</event>
<event>
 6    1  0.9163926E-004  0.4421020E+03  0.7818608E-02  0.1030129E+00
         21   -1    0    0  501  502  0.00000000000E+00  0.00000000000E+00  0.62589950503E+03  0.62589950503E+03  0.00000000000E+00 0. -1.
         21   -1    0    0  502  503 -0.00000000000E+00 -0.00000000000E+00 -0.41180351608E+03  0.41180351608E+03  0.00000000000E+00 0. -1.
    9000007    2    1    2  501    0 -0.18476261393E+03 -0.36290185815E+02  0.36239023801E+03  0.57139262513E+03  0.39963564201E+03 0.  0.
    9000005    1    3    3    0    0 -0.28191576488E+03 -0.11297031670E+03  0.31844721817E+03  0.44005502121E+03  0.99999687468E+00 0.  0.
          4    1    3    3  501    0  0.97153150948E+02  0.76680130885E+02  0.43943019842E+02  0.13133760392E+03  0.00000000000E+00 0.  1.
   -9000007    1    1    2    0  503  0.18476261393E+03  0.36290185815E+02 -0.14829424906E+03  0.46631039598E+03  0.40000000000E+03 0. -1.
<mgrwt>
<rscale>  2 0.44201959E+03</rscale>
<asrwt>0</asrwt>
<pdfrwt beam="1">  1       21 0.96292232E-01 0.44210203E+03</pdfrwt>
<pdfrwt beam="2">  1       21 0.63354387E-01 0.44210203E+03</pdfrwt>
<totfact> 0.17853893E+03</totfact>
</mgrwt>
</event>
<event>
 6    1  0.9163926E-004  0.4085645E+03  0.7818608E-02  0.1040859E+00
         21   -1    0    0  501  502  0.00000000000E+00  0.00000000000E+00  0.75627655923E+03  0.75627655923E+03  0.00000000000E+00 0.  1.
         21   -1    0    0  502  503 -0.00000000000E+00 -0.00000000000E+00 -0.31513533024E+03  0.31513533024E+03  0.00000000000E+00 0.  1.
    9000007    2    1    2  501    0 -0.77031404872E+02  0.30718819047E+02  0.51385497526E+03  0.65648445957E+03  0.40005927921E+03 0.  0.
    9000005    1    3    3    0    0  0.67695403766E+01 -0.35269765205E+02 -0.61554558397E+02  0.71272341534E+02  0.99999687468E+00 0.  0.
          4    1    3    3  501    0 -0.83800945248E+02  0.65988584252E+02  0.57540953366E+03  0.58521211804E+03  0.00000000000E+00 0.  1.
   -9000007    1    1    2    0  503  0.77031404872E+02 -0.30718819047E+02 -0.72713746272E+02  0.41492742989E+03  0.40000000000E+03 0.  1.
<mgrwt>
<rscale>  2 0.40854994E+03</rscale>
<asrwt>0</asrwt>
<pdfrwt beam="1">  1       21 0.11635024E+00 0.40856445E+03</pdfrwt>
<pdfrwt beam="2">  1       21 0.48482359E-01 0.40856445E+03</pdfrwt>
<totfact> 0.20262674E+03</totfact>
</mgrwt>
</event>
<event>
 6    1  0.9163926E-004  0.4537944E+03  0.7818608E-02  0.1026600E+00
         21   -1    0    0  501  502  0.00000000000E+00  0.00000000000E+00  0.52079241278E+03  0.52079241278E+03  0.00000000000E+00 0.  1.
         21   -1    0    0  502  503 -0.00000000000E+00 -0.00000000000E+00 -0.40466731663E+03  0.40466731663E+03  0.00000000000E+00 0.  1.
    9000007    2    1    2  501    0 -0.57031925322E+02  0.20658352766E+03  0.12819733586E+03  0.47150473894E+03  0.39994095504E+03 0.  0.
    9000005    1    3    3    0    0  0.86615047967E+02  0.93571940740E+02  0.22949378416E+03  0.26253813359E+03  0.99999687468E+00 0.  0.
          4    1    3    3  501    0 -0.14364697329E+03  0.11301158691E+03 -0.10129644830E+03  0.20896660535E+03  0.00000000000E+00 0.  1.
   -9000007    1    1    2    0  503  0.57031925322E+02 -0.20658352766E+03 -0.12072239707E+02  0.45395499047E+03  0.40000000000E+03 0.  1.
<mgrwt>
<rscale>  2 0.45378143E+03</rscale>
<asrwt>0</asrwt>
<pdfrwt beam="1">  1       21 0.80121910E-01 0.45379444E+03</pdfrwt>
<pdfrwt beam="2">  1       21 0.62256510E-01 0.45379444E+03</pdfrwt>
<totfact> 0.28493407E+03</totfact>
</mgrwt>
</event>
<event>
 6    1  0.9163926E-004  0.5652857E+03  0.7818608E-02  0.9980218E-01
         21   -1    0    0  501  502  0.00000000000E+00  0.00000000000E+00  0.12527982950E+03  0.12527982950E+03  0.00000000000E+00 0. -1.
         21   -1    0    0  502  503 -0.00000000000E+00 -0.00000000000E+00 -0.26308796086E+04  0.26308796086E+04  0.00000000000E+00 0.  1.
    9000007    2    1    2  501    0 -0.26620126529E+03  0.29780001366E+03 -0.14939517409E+04  0.15972894217E+04  0.39986714128E+03 0.  0.
    9000005    1    3    3    0    0 -0.30168798922E+03  0.20242722340E+03 -0.14337274869E+04  0.14790429102E+04  0.99999687468E+00 0.  0.
          4    1    3    3  501    0  0.35486723924E+02  0.95372790263E+02 -0.60224253982E+02  0.11824651143E+03  0.00000000000E+00 0.  1.
   -9000007    1    1    2    0  503  0.26620126529E+03 -0.29780001366E+03 -0.10116480382E+04  0.11588700165E+04  0.40000000000E+03 0.  1.
<mgrwt>
<rscale>  2 0.56526223E+03</rscale>
<asrwt>0</asrwt>
<pdfrwt beam="1">  1       21 0.19273820E-01 0.56528573E+03</pdfrwt>
<pdfrwt beam="2">  1       21 0.40475071E+00 0.56528573E+03</pdfrwt>
<totfact> 0.14239832E+02</totfact>
</mgrwt>
</event>
<event>
 6    1  0.9163926E-004  0.5082911E+03  0.7818608E-02  0.1012048E+00
         21   -1    0    0  501  502  0.00000000000E+00  0.00000000000E+00  0.40841336159E+03  0.40841336159E+03  0.00000000000E+00 0. -1.
         21   -1    0    0  502  503 -0.00000000000E+00 -0.00000000000E+00 -0.64580318315E+03  0.64580318315E+03  0.00000000000E+00 0. -1.
    9000007    2    1    2  501    0 -0.19491462072E+03 -0.24569934115E+03 -0.22618956164E+02  0.50241368118E+03  0.39185203107E+03 0.  0.
    9000005    1    3    3    0    0  0.11746057014E+03 -0.88875781073E+02 -0.39410051065E+02  0.15247964493E+03  0.99999687468E+00 0.  0.
          4    1    3    3  501    0 -0.31237519086E+03 -0.15682356007E+03  0.16791094901E+02  0.34993403625E+03  0.00000000000E+00 0.  1.
   -9000007    1    1    2    0  503  0.19491462072E+03  0.24569934115E+03 -0.21477086539E+03  0.55180286356E+03  0.40000000000E+03 0. -1.
<mgrwt>
<rscale>  2 0.50668684E+03</rscale>
<asrwt>0</asrwt>
<pdfrwt beam="1">  1       21 0.62832825E-01 0.50829113E+03</pdfrwt>
<pdfrwt beam="2">  1       21 0.99354336E-01 0.50829113E+03</pdfrwt>
<totfact> 0.16457154E+03</totfact>
</mgrwt>
</event>
<event>
 6    1  0.9163926E-004  0.4469745E+03  0.7818608E-02  0.1028634E+00
         21   -1    0    0  501  502  0.00000000000E+00  0.00000000000E+00  0.11721302386E+03  0.11721302386E+03  0.00000000000E+00 0. -1.
         21   -1    0    0  502  503 -0.00000000000E+00 -0.00000000000E+00 -0.17055211801E+04  0.17055211801E+04  0.00000000000E+00 0. -1.
    9000007    2    1    2  501    0 -0.12390424823E+03 -0.15631374094E+03 -0.76827776952E+03  0.88879840131E+03  0.39990701256E+03 0.  0.
    9000005    1    3    3    0    0 -0.23148341355E+03  0.23878253869E+02 -0.34206847267E+03  0.41372283203E+03  0.99999687468E+00 0.  0.
          4    1    3    3  501    0  0.10757916532E+03 -0.18019199481E+03 -0.42620929685E+03  0.47507556928E+03  0.00000000000E+00 0.  1.
   -9000007    1    1    2    0  503  0.12390424823E+03  0.15631374094E+03 -0.82003038674E+03  0.93393580267E+03  0.40000000000E+03 0. -1.
<mgrwt>
<rscale>  2 0.44695375E+03</rscale>
<asrwt>0</asrwt>
<pdfrwt beam="1">  1       21 0.18032774E-01 0.44697455E+03</pdfrwt>
<pdfrwt beam="2">  1       21 0.26238786E+00 0.44697455E+03</pdfrwt>
<totfact> 0.12962204E+03</totfact>
</mgrwt>
</event>
<event>
 6    1  0.9163926E-004  0.4852276E+03  0.7818608E-02  0.1018289E+00
         21   -1    0    0  501  502  0.00000000000E+00  0.00000000000E+00  0.45124034077E+03  0.45124034077E+03  0.00000000000E+00 0.  1.
         21   -1    0    0  502  503 -0.00000000000E+00 -0.00000000000E+00 -0.67975917115E+03  0.67975917115E+03  0.00000000000E+00 0.  1.
    9000007    2    1    2  501    0  0.27003655622E+03  0.50260055465E+02  0.16684849153E+03  0.50509126456E+03  0.38965747976E+03 0.  0.
    9000005    1    3    3    0    0  0.11318501154E+03 -0.14156184309E+03  0.18198050867E+03  0.25684335262E+03  0.99999687468E+00 0.  0.
          4    1    3    3  501    0  0.15685154468E+03  0.19182189856E+03 -0.15132017137E+02  0.24824791193E+03  0.00000000000E+00 0.  1.
   -9000007    1    1    2    0  503 -0.27003655622E+03 -0.50260055465E+02 -0.39536732192E+03  0.62590824736E+03  0.40000000000E+03 0.  1.
<mgrwt>
<rscale>  2 0.48309103E+03</rscale>
<asrwt>0</asrwt>
<pdfrwt beam="1">  1       21 0.69421592E-01 0.48522759E+03</pdfrwt>
<pdfrwt beam="2">  1       21 0.10457833E+00 0.48522759E+03</pdfrwt>
<totfact> 0.11711696E+03</totfact>
</mgrwt>
</event>
<event>
 6    1  0.9163926E-004  0.4316482E+03  0.7818608E-02  0.1033341E+00
         21   -1    0    0  501  502  0.00000000000E+00  0.00000000000E+00  0.68331678687E+03  0.68331678687E+03  0.00000000000E+00 0. -1.
         21   -1    0    0  502  503 -0.00000000000E+00 -0.00000000000E+00 -0.27587734746E+03  0.27587734746E+03  0.00000000000E+00 0. -1.
    9000007    2    1    2  501    0  0.12987123329E+03 -0.97229877208E+02  0.25548198489E+03  0.50157938999E+03  0.39998831683E+03 0.  0.
    9000005    1    3    3    0    0  0.23803954836E+03 -0.61554243152E+02  0.28365067852E+02  0.24750217878E+03  0.99999687468E+00 0.  0.
          4    1    3    3  501    0 -0.10816831507E+03 -0.35675634056E+02  0.22711691703E+03  0.25407721120E+03  0.00000000000E+00 0.  1.
   -9000007    1    1    2    0  503 -0.12987123329E+03  0.97229877208E+02  0.15195745452E+03  0.45761474435E+03  0.40000000000E+03 0. -1.
<mgrwt>
<rscale>  2 0.43164551E+03</rscale>
<asrwt>0</asrwt>
<pdfrwt beam="1">  1       21 0.10512566E+00 0.43164822E+03</pdfrwt>
<pdfrwt beam="2">  1       21 0.42442669E-01 0.43164822E+03</pdfrwt>
<totfact> 0.34118755E+03</totfact>
</mgrwt>
</event>
<event>
 6    1  0.9163926E-004  0.6529287E+03  0.7818608E-02  0.9801379E-01
         21   -1    0    0  501  502  0.00000000000E+00  0.00000000000E+00  0.57525313807E+03  0.57525313807E+03  0.00000000000E+00 0. -1.
         21   -1    0    0  502  503 -0.00000000000E+00 -0.00000000000E+00 -0.95958448594E+03  0.95958448594E+03  0.00000000000E+00 0.  1.
    9000007    2    1    2  501    0 -0.41657889963E+02 -0.51437385783E+03 -0.55849965062E+03  0.85907846343E+03  0.39972253025E+03 0.  0.
    9000005    1    3    3    0    0  0.21930120932E+02  0.65144668489E+02 -0.74364428074E+02  0.10127105309E+03  0.99999687468E+00 0.  0.
          4    1    3    3  501    0 -0.63588010895E+02 -0.57951852631E+03 -0.48413522254E+03  0.75780741035E+03  0.00000000000E+00 0.  1.
   -9000007    1    1    2    0  503  0.41657889963E+02  0.51437385783E+03  0.17416830275E+03  0.67575916057E+03  0.40000000000E+03 0. -1.
<mgrwt>
<rscale>  2 0.65288618E+03</rscale>
<asrwt>0</asrwt>
<pdfrwt beam="1">  1       21 0.88500483E-01 0.65292867E+03</pdfrwt>
<pdfrwt beam="2">  1       21 0.14762838E+00 0.65292867E+03</pdfrwt>
<totfact> 0.25818209E+02</totfact>
</mgrwt>
</event>
<event>
 6    1  0.9163926E-004  0.4334984E+03  0.7818608E-02  0.1032796E+00
         21   -1    0    0  501  502  0.00000000000E+00  0.00000000000E+00  0.50937355786E+03  0.50937355786E+03  0.00000000000E+00 0. -1.
         21   -1    0    0  502  503 -0.00000000000E+00 -0.00000000000E+00 -0.40100128270E+03  0.40100128270E+03  0.00000000000E+00 0. -1.
    9000007    2    1    2  501    0  0.11278999680E+03 -0.12168271493E+03  0.18372131992E+03  0.47082308589E+03  0.40049043475E+03 0.  0.
    9000005    1    3    3    0    0  0.15550371753E+03 -0.23366161636E+03  0.39722770617E+02  0.28347496472E+03  0.99999687468E+00 0.  0.
          4    1    3    3  501    0 -0.42713720738E+02  0.11197890143E+03  0.14399854930E+03  0.18734812117E+03  0.00000000000E+00 0.  1.
   -9000007    1    1    2    0  503 -0.11278999680E+03  0.12168271493E+03 -0.75349044749E+02  0.43955175467E+03  0.40000000000E+03 0. -1.
<mgrwt>
<rscale>  2 0.43338508E+03</rscale>
<asrwt>0</asrwt>
<pdfrwt beam="1">  1       21 0.78365163E-01 0.43349839E+03</pdfrwt>
<pdfrwt beam="2">  1       21 0.61692505E-01 0.43349839E+03</pdfrwt>
<totfact> 0.30818732E+03</totfact>
</mgrwt>
</event>
<event>
 6    1  0.9163926E-004  0.7640679E+03  0.7818608E-02  0.9613584E-01
         21   -1    0    0  501  502  0.00000000000E+00  0.00000000000E+00  0.81226963180E+03  0.81226963180E+03  0.00000000000E+00 0.  1.
         21   -1    0    0  502  503 -0.00000000000E+00 -0.00000000000E+00 -0.15008668607E+04  0.15008668607E+04  0.00000000000E+00 0. -1.
    9000007    2    1    2  501    0 -0.28254094751E+03  0.58632398722E+03  0.49066705531E+03  0.90804949980E+03  0.40024308853E+03 0.  0.
    9000005    1    3    3    0    0 -0.18175150803E+03  0.18177643499E+02  0.16106304199E+03  0.24352893233E+03  0.99999687468E+00 0.  0.
          4    1    3    3  501    0 -0.10078943948E+03  0.56814634372E+03  0.32960401332E+03  0.66452056747E+03  0.00000000000E+00 0.  1.
   -9000007    1    1    2    0  503  0.28254094751E+03 -0.58632398722E+03 -0.11792642842E+04  0.14050869927E+04  0.40000000000E+03 0. -1.
<mgrwt>
<rscale>  2 0.76403606E+03</rscale>
<asrwt>0</asrwt>
<pdfrwt beam="1">  1       21 0.12496456E+00 0.76406789E+03</pdfrwt>
<pdfrwt beam="2">  1       21 0.23090259E+00 0.76406789E+03</pdfrwt>
<totfact> 0.27157013E+01</totfact>
</mgrwt>
</event>
<event>
 6    1  0.9163926E-004  0.4668941E+03  0.7818608E-02  0.1022831E+00
         21   -1    0    0  501  502  0.00000000000E+00  0.00000000000E+00  0.43502587094E+03  0.43502587094E+03  0.00000000000E+00 0.  1.
         21   -1    0    0  502  503 -0.00000000000E+00 -0.00000000000E+00 -0.57478538928E+03  0.57478538928E+03  0.00000000000E+00 0.  1.
    9000007    2    1    2  501    0 -0.58901448744E+02  0.23349666079E+03  0.11150354330E+03  0.47960073843E+03  0.39949187335E+03 0.  0.
    9000005    1    3    3    0    0  0.11269808051E+03 -0.39057555193E+02  0.10270958155E+03  0.15740587061E+03  0.99999687468E+00 0.  0.
          4    1    3    3  501    0 -0.17159952925E+03  0.27255421598E+03  0.87939617509E+01  0.32219486782E+03  0.00000000000E+00 0.  1.
   -9000007    1    1    2    0  503  0.58901448744E+02 -0.23349666079E+03 -0.25126306164E+03  0.53021052178E+03  0.40000000000E+03 0.  1.
<mgrwt>
<rscale>  2 0.46678522E+03</rscale>
<asrwt>0</asrwt>
<pdfrwt beam="1">  1       21 0.66927058E-01 0.46689407E+03</pdfrwt>
<pdfrwt beam="2">  1       21 0.88428520E-01 0.46689407E+03</pdfrwt>
<totfact> 0.19179572E+03</totfact>
</mgrwt>
</event>
<event>
 6    1  0.9163926E-004  0.8292741E+03  0.7818608E-02  0.9518827E-01
         21   -1    0    0  501  502  0.00000000000E+00  0.00000000000E+00  0.12400909253E+04  0.12400909253E+04  0.00000000000E+00 0. -1.
         21   -1    0    0  502  503 -0.00000000000E+00 -0.00000000000E+00 -0.89832727497E+03  0.89832727497E+03  0.00000000000E+00 0.  1.
    9000007    2    1    2  501    0  0.47267927078E+03  0.55160655003E+03  0.83271474617E+03  0.11747126137E+04  0.39854786073E+03 0.  0.
    9000005    1    3    3    0    0  0.50522107459E+03  0.57558699763E+03  0.70570954488E+03  0.10414296365E+04  0.99999687468E+00 0.  0.
          4    1    3    3  501    0 -0.32541803814E+02 -0.23980447602E+02  0.12700520129E+03  0.13328297722E+03  0.00000000000E+00 0.  1.
   -9000007    1    1    2    0  503 -0.47267927078E+03 -0.55160655003E+03 -0.49095109583E+03  0.96370558655E+03  0.40000000000E+03 0.  1.
<mgrwt>
<rscale>  2 0.82909915E+03</rscale>
<asrwt>0</asrwt>
<pdfrwt beam="1">  1       21 0.19078322E+00 0.82927407E+03</pdfrwt>
<pdfrwt beam="2">  1       21 0.13820420E+00 0.82927407E+03</pdfrwt>
<totfact> 0.37690520E+01</totfact>
</mgrwt>
</event>
<event>
 6    1  0.9163926E-004  0.6137529E+03  0.7818608E-02  0.9877343E-01
         21   -1    0    0  501  502  0.00000000000E+00  0.00000000000E+00  0.70420326630E+03  0.70420326630E+03  0.00000000000E+00 0.  1.
         21   -1    0    0  502  503 -0.00000000000E+00 -0.00000000000E+00 -0.15086323620E+04  0.15086323620E+04  0.00000000000E+00 0. -1.
    9000007    2    1    2  501    0  0.35603917465E+02 -0.46396560343E+03  0.48670153324E+03  0.78330772682E+03  0.40020106487E+03 0.  0.
    9000005    1    3    3    0    0  0.11643264732E+03 -0.13249689304E+03 -0.14519087911E+02  0.17698528734E+03  0.99999687468E+00 0.  0.
          4    1    3    3  501    0 -0.80828729858E+02 -0.33146871039E+03  0.50122062115E+03  0.60632243947E+03  0.00000000000E+00 0.  1.
   -9000007    1    1    2    0  503 -0.35603917465E+02  0.46396560343E+03 -0.12911306290E+04  0.14295279015E+04  0.40000000000E+03 0. -1.
<mgrwt>
<rscale>  2 0.61372012E+03</rscale>
<asrwt>0</asrwt>
<pdfrwt beam="1">  1       21 0.10833896E+00 0.61375289E+03</pdfrwt>
<pdfrwt beam="2">  1       21 0.23209729E+00 0.61375289E+03</pdfrwt>
<totfact> 0.40826231E+01</totfact>
</mgrwt>
</event>
<event>
 6    1  0.9163926E-004  0.4399108E+03  0.7818608E-02  0.1030833E+00
         21   -1    0    0  501  502  0.00000000000E+00  0.00000000000E+00  0.16180690733E+03  0.16180690733E+03  0.00000000000E+00 0. -1.
         21   -1    0    0  502  503 -0.00000000000E+00 -0.00000000000E+00 -0.12335142694E+04  0.12335142694E+04  0.00000000000E+00 0. -1.
    9000007    2    1    2  501    0  0.14782012369E+03 -0.10485826297E+03 -0.41130495379E+03  0.60224023184E+03  0.40084347014E+03 0.  0.
    9000005    1    3    3    0    0  0.18613187772E+03  0.88200083334E+01 -0.44091860141E+03  0.47867847405E+03  0.99999687468E+00 0.  0.
          4    1    3    3  501    0 -0.38311754037E+02 -0.11367827130E+03  0.29613647620E+02  0.12356175779E+03  0.00000000000E+00 0.  1.
   -9000007    1    1    2    0  503 -0.14782012369E+03  0.10485826297E+03 -0.66040240831E+03  0.79308094491E+03  0.40000000000E+03 0. -1.
<mgrwt>
<rscale>  2 0.43971859E+03</rscale>
<asrwt>0</asrwt>
<pdfrwt beam="1">  1       21 0.24893370E-01 0.43991082E+03</pdfrwt>
<pdfrwt beam="2">  1       21 0.18977143E+00 0.43991082E+03</pdfrwt>
<totfact> 0.20359758E+03</totfact>
</mgrwt>
</event>
<event>
 6    1  0.9163926E-004  0.4142549E+03  0.7818608E-02  0.1039073E+00
         21   -1    0    0  501  502  0.00000000000E+00  0.00000000000E+00  0.39389069136E+03  0.39389069136E+03  0.00000000000E+00 0.  1.
         21   -1    0    0  502  503 -0.00000000000E+00 -0.00000000000E+00 -0.49976695245E+03  0.49976695245E+03  0.00000000000E+00 0.  1.
    9000007    2    1    2  501    0 -0.38118534018E+02 -0.10076754883E+03  0.10904691591E+03  0.42696813938E+03  0.39850149390E+03 0.  0.
    9000005    1    3    3    0    0  0.12472172193E+03 -0.18399870359E+03  0.18931777061E+02  0.22309290222E+03  0.99999687468E+00 0.  0.
          4    1    3    3  501    0 -0.16284025594E+03  0.83231154759E+02  0.90115138845E+02  0.20387523716E+03  0.00000000000E+00 0.  1.
   -9000007    1    1    2    0  503  0.38118534018E+02  0.10076754883E+03 -0.21492317700E+03  0.46668950443E+03  0.40000000000E+03 0.  1.
<mgrwt>
<rscale>  2 0.41389274E+03</rscale>
<asrwt>0</asrwt>
<pdfrwt beam="1">  1       21 0.60598568E-01 0.41425490E+03</pdfrwt>
<pdfrwt beam="2">  1       21 0.76887223E-01 0.41425490E+03</pdfrwt>
<totfact> 0.33723863E+03</totfact>
</mgrwt>
</event>
<event>
 6    1  0.9163926E-004  0.5051217E+03  0.7818608E-02  0.1012472E+00
         21   -1    0    0  501  502  0.00000000000E+00  0.00000000000E+00  0.57508756402E+03  0.57508756402E+03  0.00000000000E+00 0.  1.
         21   -1    0    0  502  503 -0.00000000000E+00 -0.00000000000E+00 -0.44365722002E+03  0.44365722002E+03  0.00000000000E+00 0.  1.
    9000007    2    1    2  501    0  0.29292319697E+03  0.96664204952E+02  0.78558088426E+02  0.51086345612E+03  0.39957743893E+03 0.  0.
    9000005    1    3    3    0    0 -0.72369650768E+02 -0.17532232456E+02  0.10329239955E+03  0.12733838905E+03  0.99999687468E+00 0.  0.
          4    1    3    3  501    0  0.36529284774E+03  0.11419643741E+03 -0.24734311120E+02  0.38352506707E+03  0.00000000000E+00 0.  1.
   -9000007    1    1    2    0  503 -0.29292319697E+03 -0.96664204952E+02  0.52872255577E+02  0.50788132792E+03  0.40000000000E+03 0.  1.
<mgrwt>
<rscale>  2 0.50503808E+03</rscale>
<asrwt>0</asrwt>
<pdfrwt beam="1">  1       21 0.88475009E-01 0.50512174E+03</pdfrwt>
<pdfrwt beam="2">  1       21 0.68254957E-01 0.50512174E+03</pdfrwt>
<totfact> 0.18086548E+03</totfact>
</mgrwt>
</event>
<event>
 6    1  0.9163926E-004  0.4617399E+03  0.7818608E-02  0.1024282E+00
         21   -1    0    0  501  502  0.00000000000E+00  0.00000000000E+00  0.54777573341E+03  0.54777573341E+03  0.00000000000E+00 0.  1.
         21   -1    0    0  502  503 -0.00000000000E+00 -0.00000000000E+00 -0.39159850152E+03  0.39159850152E+03  0.00000000000E+00 0.  1.
    9000007    2    1    2  501    0 -0.17932062203E+03 -0.14490410429E+03  0.11507346092E+03  0.47586306471E+03  0.40006333251E+03 0.  0.
    9000005    1    3    3    0    0 -0.49572441696E+01  0.99957467334E+02 -0.70657711894E+02  0.12251359839E+03  0.99999687468E+00 0.  0.
          4    1    3    3  501    0 -0.17436337786E+03 -0.24486157162E+03  0.18573117282E+03  0.35334946633E+03  0.00000000000E+00 0.  1.
   -9000007    1    1    2    0  503  0.17932062203E+03  0.14490410429E+03  0.41103770961E+02  0.46351117021E+03  0.40000000000E+03 0.  1.
<mgrwt>
<rscale>  2 0.46172620E+03</rscale>
<asrwt>0</asrwt>
<pdfrwt beam="1">  1       21 0.84273190E-01 0.46173992E+03</pdfrwt>
<pdfrwt beam="2">  1       21 0.60245923E-01 0.46173992E+03</pdfrwt>
<totfact> 0.27159003E+03</totfact>
</mgrwt>
</event>
<event>
 6    1  0.9163926E-004  0.5159727E+03  0.7818608E-02  0.1009734E+00
         21   -1    0    0  501  502  0.00000000000E+00  0.00000000000E+00  0.19971398056E+03  0.19971398056E+03  0.00000000000E+00 0.  1.
         21   -1    0    0  502  503 -0.00000000000E+00 -0.00000000000E+00 -0.25342823305E+04  0.25342823305E+04  0.00000000000E+00 0.  1.
    9000007    2    1    2  501    0 -0.57115122024E+01 -0.32482224777E+03 -0.22586611605E+03  0.56324362471E+03  0.40085628894E+03 0.  0.
    9000005    1    3    3    0    0 -0.64304353512E+02 -0.34305544752E+03 -0.30471532711E+03  0.46332981830E+03  0.99999687468E+00 0.  0.
          4    1    3    3  501    0  0.58592841310E+02  0.18233199750E+02  0.78849211067E+02  0.99913806413E+02  0.00000000000E+00 0.  1.
   -9000007    1    1    2    0  503  0.57115122024E+01  0.32482224777E+03 -0.21087022339E+04  0.21707526863E+04  0.40000000000E+03 0.  1.
<mgrwt>
<rscale>  2 0.51580643E+03</rscale>
<asrwt>0</asrwt>
<pdfrwt beam="1">  1       21 0.30725229E-01 0.51597275E+03</pdfrwt>
<pdfrwt beam="2">  1       21 0.38988957E+00 0.51597275E+03</pdfrwt>
<totfact> 0.73539787E+01</totfact>
</mgrwt>
</event>
<event>
 6    1  0.9163926E-004  0.4499666E+03  0.7818608E-02  0.1027794E+00
         21   -1    0    0  501  502  0.00000000000E+00  0.00000000000E+00  0.16304319130E+03  0.16304319130E+03  0.00000000000E+00 0.  1.
         21   -1    0    0  502  503 -0.00000000000E+00 -0.00000000000E+00 -0.12534526350E+04  0.12534526350E+04  0.00000000000E+00 0.  1.
    9000007    2    1    2  501    0  0.19376403913E+03  0.70181438218E+02 -0.61938323635E+03  0.76508533731E+03  0.39906145237E+03 0.  0.
    9000005    1    3    3    0    0  0.38372708719E+00 -0.10686596837E+03 -0.42625188673E+03  0.43944527916E+03  0.99999687468E+00 0.  0.
          4    1    3    3  501    0  0.19338031205E+03  0.17704740659E+03 -0.19313134962E+03  0.32564005815E+03  0.00000000000E+00 0.  1.
   -9000007    1    1    2    0  503 -0.19376403913E+03 -0.70181438218E+02 -0.47102620731E+03  0.65141048894E+03  0.40000000000E+03 0.  1.
<mgrwt>
<rscale>  2 0.44975792E+03</rscale>
<asrwt>0</asrwt>
<pdfrwt beam="1">  1       21 0.25083568E-01 0.44996660E+03</pdfrwt>
<pdfrwt beam="2">  1       21 0.19283887E+00 0.44996660E+03</pdfrwt>
<totfact> 0.19036330E+03</totfact>
</mgrwt>
</event>
<event>
 6    1  0.9163926E-004  0.4810453E+03  0.7818608E-02  0.1018852E+00
         21   -1    0    0  501  502  0.00000000000E+00  0.00000000000E+00  0.27298292358E+03  0.27298292358E+03  0.00000000000E+00 0.  1.
         21   -1    0    0  502  503 -0.00000000000E+00 -0.00000000000E+00 -0.85249704572E+03  0.85249704572E+03  0.00000000000E+00 0.  1.
    9000007    2    1    2  501    0  0.53966456248E+02  0.26161012884E+03 -0.24709176977E+03  0.54079470502E+03  0.40006541012E+03 0.  0.
    9000005    1    3    3    0    0  0.18474737119E+03  0.12645099469E+02 -0.34765288667E+02  0.18841739567E+03  0.99999687468E+00 0.  0.
          4    1    3    3  501    0 -0.13078091494E+03  0.24896502938E+03 -0.21232648110E+03  0.35237730935E+03  0.00000000000E+00 0.  1.
   -9000007    1    1    2    0  503 -0.53966456248E+02 -0.26161012884E+03 -0.33242235237E+03  0.58468526428E+03  0.40000000000E+03 0.  1.
<mgrwt>
<rscale>  2 0.48103169E+03</rscale>
<asrwt>0</asrwt>
<pdfrwt beam="1">  1       21 0.41997373E-01 0.48104529E+03</pdfrwt>
<pdfrwt beam="2">  1       21 0.13115339E+00 0.48104529E+03</pdfrwt>
<totfact> 0.19584088E+03</totfact>
</mgrwt>
</event>
<event>
 6    1  0.9163926E-004  0.5361852E+03  0.7818608E-02  0.1004752E+00
         21   -1    0    0  501  502  0.00000000000E+00  0.00000000000E+00  0.25961816125E+03  0.25961816125E+03  0.00000000000E+00 0. -1.
         21   -1    0    0  502  503 -0.00000000000E+00 -0.00000000000E+00 -0.11201692168E+04  0.11201692168E+04  0.00000000000E+00 0.  1.
    9000007    2    1    2  501    0 -0.16215224268E+03 -0.31786386946E+03 -0.50497084028E+03  0.73653930864E+03  0.40020471552E+03 0.  0.
    9000005    1    3    3    0    0  0.93357070294E+02 -0.23498961297E+03 -0.15962220623E+03  0.29902493122E+03  0.99999687468E+00 0.  0.
          4    1    3    3  501    0 -0.25550931298E+03 -0.82874256494E+02 -0.34534863406E+03  0.43751437742E+03  0.00000000000E+00 0.  1.
   -9000007    1    1    2    0  503  0.16215224268E+03  0.31786386946E+03 -0.35558021528E+03  0.64324806942E+03  0.40000000000E+03 0.  1.
<mgrwt>
<rscale>  2 0.53614703E+03</rscale>
<asrwt>0</asrwt>
<pdfrwt beam="1">  1       21 0.39941255E-01 0.53618523E+03</pdfrwt>
<pdfrwt beam="2">  1       21 0.17233373E+00 0.53618523E+03</pdfrwt>
<totfact> 0.10091224E+03</totfact>
</mgrwt>
</event>
<event>
 6    1  0.9163926E-004  0.4657532E+03  0.7818608E-02  0.1023175E+00
         21   -1    0    0  501  502  0.00000000000E+00  0.00000000000E+00  0.49500071837E+03  0.49500071837E+03  0.00000000000E+00 0. -1.
         21   -1    0    0  502  503 -0.00000000000E+00 -0.00000000000E+00 -0.43875157615E+03  0.43875157615E+03  0.00000000000E+00 0.  1.
    9000007    2    1    2  501    0  0.21916439930E+03 -0.90806674359E+02  0.40184357595E+01  0.46577052914E+03  0.40080812362E+03 0.  0.
    9000005    1    3    3    0    0  0.13811887003E+03 -0.24088026233E+03 -0.59129075180E+02  0.28389676040E+03  0.99999687468E+00 0.  0.
          4    1    3    3  501    0  0.81045529265E+02  0.15007358797E+03  0.63147510940E+02  0.18187376874E+03  0.00000000000E+00 0.  1.
   -9000007    1    1    2    0  503 -0.21916439930E+03  0.90806674359E+02  0.52230706460E+02  0.46798176538E+03  0.40000000000E+03 0. -1.
<mgrwt>
<rscale>  2 0.46557928E+03</rscale>
<asrwt>0</asrwt>
<pdfrwt beam="1">  1       21 0.76153957E-01 0.46575319E+03</pdfrwt>
<pdfrwt beam="2">  1       21 0.67500242E-01 0.46575319E+03</pdfrwt>
<totfact> 0.26645002E+03</totfact>
</mgrwt>
</event>
<event>
 6    1  0.9163926E-004  0.5361085E+03  0.7818608E-02  0.1004810E+00
         21   -1    0    0  501  502  0.00000000000E+00  0.00000000000E+00  0.33064442947E+03  0.33064442947E+03  0.00000000000E+00 0. -1.
         21   -1    0    0  502  503 -0.00000000000E+00 -0.00000000000E+00 -0.86848541357E+03  0.86848541357E+03  0.00000000000E+00 0. -1.
    9000007    2    1    2  501    0 -0.23283520563E+03 -0.27055520491E+03 -0.25370868498E+03  0.59238153007E+03  0.39891782167E+03 0.  0.
    9000005    1    3    3    0    0 -0.28552978029E+03 -0.32548991984E+03 -0.13906051755E+03  0.45476342299E+03  0.99999687468E+00 0.  0.
          4    1    3    3  501    0  0.52694574661E+02  0.54934714931E+02 -0.11464816742E+03  0.13761810708E+03  0.00000000000E+00 0.  1.
   -9000007    1    1    2    0  503  0.23283520563E+03  0.27055520491E+03 -0.28413229912E+03  0.60674831297E+03  0.40000000000E+03 0. -1.
<mgrwt>
<rscale>  2 0.53590668E+03</rscale>
<asrwt>0</asrwt>
<pdfrwt beam="1">  1       21 0.50868375E-01 0.53610853E+03</pdfrwt>
<pdfrwt beam="2">  1       21 0.13361314E+00 0.53610853E+03</pdfrwt>
<totfact> 0.12216366E+03</totfact>
</mgrwt>
</event>
<event>
 6    1  0.9163926E-004  0.4895244E+03  0.7818608E-02  0.1016601E+00
         21   -1    0    0  501  502  0.00000000000E+00  0.00000000000E+00  0.96172517955E+03  0.96172517955E+03  0.00000000000E+00 0. -1.
         21   -1    0    0  502  503 -0.00000000000E+00 -0.00000000000E+00 -0.71662750559E+03  0.71662750559E+03  0.00000000000E+00 0. -1.
    9000007    2    1    2  501    0 -0.78336800642E+02 -0.27110415716E+03  0.80055924587E+03  0.93796651817E+03  0.39906386041E+03 0.  0.
    9000005    1    3    3    0    0 -0.59078652695E+02 -0.37630426975E+03  0.64775105390E+03  0.75145034331E+03  0.99999687468E+00 0.  0.
          4    1    3    3  501    0 -0.19258147946E+02  0.10520011258E+03  0.15280819197E+03  0.18651617485E+03  0.00000000000E+00 0.  1.
   -9000007    1    1    2    0  503  0.78336800642E+02  0.27110415716E+03 -0.55546157192E+03  0.74038616697E+03  0.40000000000E+03 0. -1.
<mgrwt>
<rscale>  2 0.48933311E+03</rscale>
<asrwt>0</asrwt>
<pdfrwt beam="1">  1       21 0.14795772E+00 0.48952438E+03</pdfrwt>
<pdfrwt beam="2">  1       21 0.11025039E+00 0.48952438E+03</pdfrwt>
<totfact> 0.16026844E+02</totfact>
</mgrwt>
</event>
<event>
 6    1  0.9163926E-004  0.5701499E+03  0.7818608E-02  0.9969702E-01
         21   -1    0    0  501  502  0.00000000000E+00  0.00000000000E+00  0.11597020025E+04  0.11597020025E+04  0.00000000000E+00 0.  1.
         21   -1    0    0  502  503 -0.00000000000E+00 -0.00000000000E+00 -0.28482597510E+03  0.28482597510E+03  0.00000000000E+00 0.  1.
    9000007    2    1    2  501    0  0.26760019594E+03 -0.30451617814E+03  0.53178972740E+03  0.77966094064E+03  0.40091258471E+03 0.  0.
    9000005    1    3    3    0    0  0.17640012455E+03 -0.39113559714E+03  0.32759622780E+03  0.53983733453E+03  0.99999687468E+00 0.  0.
          4    1    3    3  501    0  0.91200071387E+02  0.86619418999E+02  0.20419349960E+03  0.23982360611E+03  0.00000000000E+00 0.  1.
   -9000007    1    1    2    0  503 -0.26760019594E+03  0.30451617814E+03  0.34308630004E+03  0.66486703700E+03  0.40000000000E+03 0.  1.
<mgrwt>
<rscale>  2 0.56998946E+03</rscale>
<asrwt>0</asrwt>
<pdfrwt beam="1">  1       21 0.17841569E+00 0.57014986E+03</pdfrwt>
<pdfrwt beam="2">  1       21 0.43819381E-01 0.57014986E+03</pdfrwt>
<totfact> 0.74292398E+02</totfact>
</mgrwt>
</event>
<event>
 6    1  0.9163926E-004  0.6613245E+03  0.7818608E-02  0.9785851E-01
         21   -1    0    0  501  502  0.00000000000E+00  0.00000000000E+00  0.85325178866E+03  0.85325178866E+03  0.00000000000E+00 0.  1.
         21   -1    0    0  502  503 -0.00000000000E+00 -0.00000000000E+00 -0.52624590516E+03  0.52624590516E+03  0.00000000000E+00 0. -1.
    9000007    2    1    2  501    0  0.43236304575E+03  0.30068626692E+03  0.51650139939E+02  0.66313827289E+03  0.39966810927E+03 0.  0.
    9000005    1    3    3    0    0  0.43934386322E+03  0.90952515767E+02  0.76539044487E+01  0.44872594367E+03  0.99999687468E+00 0.  0.
          4    1    3    3  501    0 -0.69808174675E+01  0.20973375115E+03  0.43996235490E+02  0.21441232922E+03  0.00000000000E+00 0.  1.
   -9000007    1    1    2    0  503 -0.43236304575E+03 -0.30068626692E+03  0.27535574356E+03  0.71635942093E+03  0.40000000000E+03 0.  1.
<mgrwt>
<rscale>  2 0.66127428E+03</rscale>
<asrwt>0</asrwt>
<pdfrwt beam="1">  1       21 0.13126951E+00 0.66132445E+03</pdfrwt>
<pdfrwt beam="2">  1       21 0.80960909E-01 0.66132445E+03</pdfrwt>
<totfact> 0.43540886E+02</totfact>
</mgrwt>
</event>
<event>
 6    1  0.9163926E-004  0.6076044E+03  0.7818608E-02  0.9890420E-01
         21   -1    0    0  501  502  0.00000000000E+00  0.00000000000E+00  0.28291856560E+03  0.28291856560E+03  0.00000000000E+00 0.  1.
         21   -1    0    0  502  503 -0.00000000000E+00 -0.00000000000E+00 -0.13701998519E+04  0.13701998519E+04  0.00000000000E+00 0.  1.
    9000007    2    1    2  501    0 -0.38831469555E+03  0.24165022088E+03 -0.72734005518E+03  0.94690257099E+03  0.39801732507E+03 0.  0.
    9000005    1    3    3    0    0 -0.46104335659E+02 -0.10552860701E+03 -0.10074042584E+03  0.15300826793E+03  0.99999687468E+00 0.  0.
          4    1    3    3  501    0 -0.34221035989E+03  0.34717882789E+03 -0.62659962934E+03  0.79389430307E+03  0.00000000000E+00 0.  1.
   -9000007    1    1    2    0  503  0.38831469555E+03 -0.24165022088E+03 -0.35994123116E+03  0.70621584655E+03  0.40000000000E+03 0.  1.
<mgrwt>
<rscale>  2 0.60727831E+03</rscale>
<asrwt>0</asrwt>
<pdfrwt beam="1">  1       21 0.43525934E-01 0.60760442E+03</pdfrwt>
<pdfrwt beam="2">  1       21 0.21079997E+00 0.60760442E+03</pdfrwt>
<totfact> 0.44622535E+02</totfact>
</mgrwt>
</event>
<event>
 6    1  0.9163926E-004  0.4140900E+03  0.7818608E-02  0.1039014E+00
         21   -1    0    0  501  502  0.00000000000E+00  0.00000000000E+00  0.96620003399E+03  0.96620003399E+03  0.00000000000E+00 0.  1.
         21   -1    0    0  502  503 -0.00000000000E+00 -0.00000000000E+00 -0.19090654128E+03  0.19090654128E+03  0.00000000000E+00 0.  1.
    9000007    2    1    2  501    0 -0.77542692430E+02  0.73442207107E+02  0.54136373477E+03  0.68157554728E+03  0.40007987502E+03 0.  0.
    9000005    1    3    3    0    0 -0.22799897781E+03 -0.11564516539E+02  0.22190187255E+03  0.31836883164E+03  0.99999687468E+00 0.  0.
          4    1    3    3  501    0  0.15045628538E+03  0.85006723646E+02  0.31946186222E+03  0.36320671564E+03  0.00000000000E+00 0.  1.
   -9000007    1    1    2    0  503  0.77542692430E+02 -0.73442207107E+02  0.23392975794E+03  0.47553102799E+03  0.40000000000E+03 0.  1.
<mgrwt>
<rscale>  2 0.41407071E+03</rscale>
<asrwt>0</asrwt>
<pdfrwt beam="1">  1       21 0.14864616E+00 0.41409001E+03</pdfrwt>
<pdfrwt beam="2">  1       21 0.29370238E-01 0.41409001E+03</pdfrwt>
<totfact> 0.29743231E+03</totfact>
</mgrwt>
</event>
<event>
 6    1  0.9163926E-004  0.5544533E+03  0.7818608E-02  0.1000478E+00
         21   -1    0    0  501  502  0.00000000000E+00  0.00000000000E+00  0.25015378607E+03  0.25015378607E+03  0.00000000000E+00 0.  1.
         21   -1    0    0  502  503 -0.00000000000E+00 -0.00000000000E+00 -0.12469383611E+04  0.12469383611E+04  0.00000000000E+00 0.  1.
    9000007    2    1    2  501    0 -0.29070347273E+03 -0.25043607341E+03 -0.58940760476E+03  0.80920935784E+03  0.40023958369E+03 0.  0.
    9000005    1    3    3    0    0  0.93316793366E+02 -0.12951739279E+02 -0.16241950690E+03  0.18776812213E+03  0.99999687468E+00 0.  0.
          4    1    3    3  501    0 -0.38402026609E+03 -0.23748433413E+03 -0.42698809786E+03  0.62144123571E+03  0.00000000000E+00 0.  1.
   -9000007    1    1    2    0  503  0.29070347273E+03  0.25043607341E+03 -0.40737697024E+03  0.68788278929E+03  0.40000000000E+03 0.  1.
<mgrwt>
<rscale>  2 0.55441006E+03</rscale>
<asrwt>0</asrwt>
<pdfrwt beam="1">  1       21 0.38485198E-01 0.55445330E+03</pdfrwt>
<pdfrwt beam="2">  1       21 0.19183667E+00 0.55445330E+03</pdfrwt>
<totfact> 0.78818616E+02</totfact>
</mgrwt>
</event>
<event>
 6    1  0.9163926E-004  0.6705030E+03  0.7818608E-02  0.9769053E-01
         21   -1    0    0  501  502  0.00000000000E+00  0.00000000000E+00  0.10800098393E+04  0.10800098393E+04  0.00000000000E+00 0. -1.
         21   -1    0    0  502  503 -0.00000000000E+00 -0.00000000000E+00 -0.41648350366E+03  0.41648350366E+03  0.00000000000E+00 0.  1.
    9000007    2    1    2  501    0 -0.52994206189E+03  0.93409712472E+02  0.31458275123E+03  0.74063251684E+03  0.40001281766E+03 0.  0.
    9000005    1    3    3    0    0 -0.51934644749E+03  0.18384289160E+03  0.33835020213E+03  0.64652981416E+03  0.99999687468E+00 0.  0.
          4    1    3    3  501    0 -0.10595614392E+02 -0.90433179125E+02 -0.23767450902E+02  0.94102702689E+02  0.00000000000E+00 0.  1.
   -9000007    1    1    2    0  503  0.52994206189E+03 -0.93409712472E+02  0.34894358439E+03  0.75586082610E+03  0.40000000000E+03 0. -1.
<mgrwt>
<rscale>  2 0.67050105E+03</rscale>
<asrwt>0</asrwt>
<pdfrwt beam="1">  1       21 0.16615536E+00 0.67050296E+03</pdfrwt>
<pdfrwt beam="2">  1       21 0.64074386E-01 0.67050296E+03</pdfrwt>
<totfact> 0.38827073E+02</totfact>
</mgrwt>
</event>
<event>
 6    1  0.9163926E-004  0.4046997E+03  0.7818608E-02  0.1042201E+00
         21   -1    0    0  501  502  0.00000000000E+00  0.00000000000E+00  0.42684643982E+03  0.42684643982E+03  0.00000000000E+00 0. -1.
         21   -1    0    0  502  503 -0.00000000000E+00 -0.00000000000E+00 -0.49931457280E+03  0.49931457280E+03  0.00000000000E+00 0.  1.
    9000007    2    1    2  501    0  0.25352627773E+02 -0.52794814241E+02  0.18697692487E+03  0.44580511728E+03  0.40043948858E+03 0.  0.
    9000005    1    3    3    0    0  0.11517708954E+03 -0.15336309422E+03  0.23439692629E+03  0.30286782542E+03  0.99999687468E+00 0.  0.
          4    1    3    3  501    0 -0.89824461768E+02  0.10056827998E+03 -0.47420001421E+02  0.14293729186E+03  0.00000000000E+00 0.  1.
   -9000007    1    1    2    0  503 -0.25352627773E+02  0.52794814241E+02 -0.25944505784E+03  0.48035589534E+03  0.40000000000E+03 0.  1.
<mgrwt>
<rscale>  2 0.40459092E+03</rscale>
<asrwt>0</asrwt>
<pdfrwt beam="1">  1       21 0.65668683E-01 0.40469968E+03</pdfrwt>
<pdfrwt beam="2">  1       21 0.76817626E-01 0.40469968E+03</pdfrwt>
<totfact> 0.28410288E+03</totfact>
</mgrwt>
</event>
<event>
 6    1  0.9163926E-004  0.4629656E+03  0.7818608E-02  0.1023942E+00
         21   -1    0    0  501  502  0.00000000000E+00  0.00000000000E+00  0.83853700119E+03  0.83853700119E+03  0.00000000000E+00 0.  1.
         21   -1    0    0  502  503 -0.00000000000E+00 -0.00000000000E+00 -0.27607203700E+03  0.27607203700E+03  0.00000000000E+00 0.  1.
    9000007    2    1    2  501    0  0.11758931423E+03  0.20127078486E+03  0.12892710961E+03  0.48034391459E+03  0.39971352370E+03 0.  0.
    9000005    1    3    3    0    0  0.26747630060E+02 -0.12257012882E+03  0.21678457847E+02  0.12731782170E+03  0.99999687468E+00 0.  0.
          4    1    3    3  501    0  0.90841684173E+02  0.32384091368E+03  0.10724865176E+03  0.35302609289E+03  0.00000000000E+00 0.  1.
   -9000007    1    1    2    0  503 -0.11758931423E+03 -0.20127078486E+03  0.43353785459E+03  0.63426512360E+03  0.40000000000E+03 0.  1.
<mgrwt>
<rscale>  2 0.46290375E+03</rscale>
<asrwt>0</asrwt>
<pdfrwt beam="1">  1       21 0.12900569E+00 0.46296563E+03</pdfrwt>
<pdfrwt beam="2">  1       21 0.42472621E-01 0.46296563E+03</pdfrwt>
<totfact> 0.20104524E+03</totfact>
</mgrwt>
</event>
<event>
 6    1  0.9163926E-004  0.4083140E+03  0.7818608E-02  0.1040950E+00
         21   -1    0    0  501  502  0.00000000000E+00  0.00000000000E+00  0.49502939266E+03  0.49502939266E+03  0.00000000000E+00 0.  1.
         21   -1    0    0  502  503 -0.00000000000E+00 -0.00000000000E+00 -0.36037322044E+03  0.36037322044E+03  0.00000000000E+00 0.  1.
    9000007    2    1    2  501    0  0.78734528239E+02 -0.22829076387E+02 -0.42370986258E+02  0.41036451641E+03  0.39985427744E+03 0.  0.
    9000005    1    3    3    0    0 -0.70150940089E+02  0.95550506284E+02 -0.15049080295E+03  0.19157122804E+03  0.99999687468E+00 0.  0.
          4    1    3    3  501    0  0.14888546833E+03 -0.11837958267E+03  0.10811981669E+03  0.21879328837E+03  0.00000000000E+00 0.  1.
   -9000007    1    1    2    0  503 -0.78734528239E+02  0.22829076387E+02  0.17702715848E+03  0.44503809669E+03  0.40000000000E+03 0.  1.
<mgrwt>
<rscale>  2 0.40827827E+03</rscale>
<asrwt>0</asrwt>
<pdfrwt beam="1">  1       21 0.76158368E-01 0.40831396E+03</pdfrwt>
<pdfrwt beam="2">  1       21 0.55442034E-01 0.40831396E+03</pdfrwt>
<totfact> 0.41911443E+03</totfact>
</mgrwt>
</event>
<event>
 6    1  0.9163926E-004  0.4177068E+03  0.7818608E-02  0.1038512E+00
         21   -1    0    0  501  502  0.00000000000E+00  0.00000000000E+00  0.23802239577E+03  0.23802239577E+03  0.00000000000E+00 0.  1.
         21   -1    0    0  502  503 -0.00000000000E+00 -0.00000000000E+00 -0.74583653713E+03  0.74583653713E+03  0.00000000000E+00 0.  1.
    9000007    2    1    2  501    0  0.51123025343E+02  0.10892838866E+03 -0.15699137156E+03  0.43837238551E+03  0.39120979034E+03 0.  0.
    9000005    1    3    3    0    0 -0.15974934712E+03  0.52135441512E+02 -0.14106792894E+03  0.21940628691E+03  0.99999687468E+00 0.  0.
          4    1    3    3  501    0  0.21087237246E+03  0.56792947148E+02 -0.15923442616E+02  0.21896609860E+03  0.00000000000E+00 0.  1.
   -9000007    1    1    2    0  503 -0.51123025343E+02 -0.10892838866E+03 -0.35082276981E+03  0.54548654740E+03  0.40000000000E+03 0. -1.
<mgrwt>
<rscale>  2 0.41558828E+03</rscale>
<asrwt>0</asrwt>
<pdfrwt beam="1">  1       21 0.36618830E-01 0.41770678E+03</pdfrwt>
<pdfrwt beam="2">  1       21 0.11474408E+00 0.41770678E+03</pdfrwt>
<totfact> 0.37385062E+03</totfact>
</mgrwt>
</event>
<event>
 6    1  0.9163926E-004  0.4102585E+03  0.7818608E-02  0.1040291E+00
         21   -1    0    0  501  502  0.00000000000E+00  0.00000000000E+00  0.79666689633E+03  0.79666689633E+03  0.00000000000E+00 0.  1.
         21   -1    0    0  502  503 -0.00000000000E+00 -0.00000000000E+00 -0.82230995732E+03  0.82230995732E+03  0.00000000000E+00 0.  1.
    9000007    2    1    2  501    0  0.41843104158E+02  0.80599888216E+02  0.68499593937E+03  0.79845569232E+03  0.40008107717E+03 0.  0.
    9000005    1    3    3    0    0 -0.16079755713E+03  0.40101635149E+02  0.14476312654E+03  0.22004853628E+03  0.99999687468E+00 0.  0.
          4    1    3    3  501    0  0.20264066128E+03  0.40498253067E+02  0.54023281283E+03  0.57840715604E+03  0.00000000000E+00 0.  1.
   -9000007    1    1    2    0  503 -0.41843104158E+02 -0.80599888216E+02 -0.71063900036E+03  0.82052116132E+03  0.40000000000E+03 0.  1.
<mgrwt>
<rscale>  2 0.41023876E+03</rscale>
<asrwt>0</asrwt>
<pdfrwt beam="1">  1       21 0.12256414E+00 0.41025852E+03</pdfrwt>
<pdfrwt beam="2">  1       21 0.12650922E+00 0.41025852E+03</pdfrwt>
<totfact> 0.19344615E+02</totfact>
</mgrwt>
</event>
<event>
 6    1  0.9163926E-004  0.4944172E+03  0.7818608E-02  0.1015263E+00
         21   -1    0    0  501  502  0.00000000000E+00  0.00000000000E+00  0.68938562906E+03  0.68938562906E+03  0.00000000000E+00 0. -1.
         21   -1    0    0  502  503 -0.00000000000E+00 -0.00000000000E+00 -0.36136881578E+03  0.36136881578E+03  0.00000000000E+00 0. -1.
    9000007    2    1    2  501    0 -0.40054744077E+02 -0.28740516183E+03  0.23693857366E+03  0.54825931521E+03  0.40030273477E+03 0.  0.
    9000005    1    3    3    0    0  0.34182751005E+02 -0.21909215216E+03 -0.64052703209E+02  0.23081070250E+03  0.99999687468E+00 0.  0.
          4    1    3    3  501    0 -0.74237495082E+02 -0.68313009661E+02  0.30099127687E+03  0.31744861271E+03  0.00000000000E+00 0.  1.
   -9000007    1    1    2    0  503  0.40054744077E+02  0.28740516183E+03  0.91078239628E+02  0.50249512963E+03  0.40000000000E+03 0. -1.
<mgrwt>
<rscale>  2 0.49435594E+03</rscale>
<asrwt>0</asrwt>
<pdfrwt beam="1">  1       21 0.10605933E+00 0.49441722E+03</pdfrwt>
<pdfrwt beam="2">  1       21 0.55595202E-01 0.49441722E+03</pdfrwt>
<totfact> 0.18416295E+03</totfact>
</mgrwt>
</event>
<event>
 6    1  0.9163926E-004  0.4121390E+03  0.7818608E-02  0.1039709E+00
         21   -1    0    0  501  502  0.00000000000E+00  0.00000000000E+00  0.61108466009E+03  0.61108466009E+03  0.00000000000E+00 0. -1.
         21   -1    0    0  502  503 -0.00000000000E+00 -0.00000000000E+00 -0.29431483424E+03  0.29431483424E+03  0.00000000000E+00 0. -1.
    9000007    2    1    2  501    0 -0.81210590707E+02 -0.52298008342E+02  0.26661050973E+03  0.49085613265E+03  0.40065987738E+03 0.  0.
    9000005    1    3    3    0    0 -0.21842222153E+03  0.43470163887E+01  0.43314343181E+02  0.22272021850E+03  0.99999687468E+00 0.  0.
          4    1    3    3  501    0  0.13721163082E+03 -0.56645024731E+02  0.22329616655E+03  0.26813591415E+03  0.00000000000E+00 0.  1.
   -9000007    1    1    2    0  503  0.81210590707E+02  0.52298008342E+02  0.50159316125E+02  0.41454336168E+03  0.40000000000E+03 0. -1.
<mgrwt>
<rscale>  2 0.41197857E+03</rscale>
<asrwt>0</asrwt>
<pdfrwt beam="1">  1       21 0.94013024E-01 0.41213903E+03</pdfrwt>
<pdfrwt beam="2">  1       21 0.45279206E-01 0.41213903E+03</pdfrwt>
<totfact> 0.39365208E+03</totfact>
</mgrwt>
</event>
<event>
 6    1  0.9163926E-004  0.5000071E+03  0.7818608E-02  0.1013799E+00
         21   -1    0    0  501  502  0.00000000000E+00  0.00000000000E+00  0.10318843408E+04  0.10318843408E+04  0.00000000000E+00 0. -1.
         21   -1    0    0  502  503 -0.00000000000E+00 -0.00000000000E+00 -0.86907546221E+03  0.86907546221E+03  0.00000000000E+00 0.  1.
    9000007    2    1    2  501    0  0.29440276618E+03 -0.57741849894E+02  0.88869109727E+03  0.10195336261E+04  0.39958708494E+03 0.  0.
    9000005    1    3    3    0    0 -0.56361997922E+02  0.99651008461E+02  0.22776946699E+03  0.25492533884E+03  0.99999687468E+00 0.  0.
          4    1    3    3  501    0  0.35076476411E+03 -0.15739285836E+03  0.66092163028E+03  0.76460828728E+03  0.00000000000E+00 0.  1.
   -9000007    1    1    2    0  503 -0.29440276618E+03  0.57741849894E+02 -0.72588221866E+03  0.88142617691E+03  0.40000000000E+03 0.  1.
<mgrwt>
<rscale>  2 0.49992452E+03</rscale>
<asrwt>0</asrwt>
<pdfrwt beam="1">  1       21 0.15875144E+00 0.50000711E+03</pdfrwt>
<pdfrwt beam="2">  1       21 0.13370392E+00 0.50000711E+03</pdfrwt>
<totfact> 0.80288872E+01</totfact>
</mgrwt>
</event>
<event>
 6    1  0.9163926E-004  0.4036570E+03  0.7818608E-02  0.1042596E+00
         21   -1    0    0  501  502  0.00000000000E+00  0.00000000000E+00  0.97018613703E+02  0.97018613703E+02  0.00000000000E+00 0.  1.
         21   -1    0    0  502  503 -0.00000000000E+00 -0.00000000000E+00 -0.21083200729E+04  0.21083200729E+04  0.00000000000E+00 0.  1.
    9000007    2    1    2  501    0  0.40091155846E+02 -0.24912105173E+02 -0.50708550443E+03  0.64813171502E+03  0.40088788639E+03 0.  0.
    9000005    1    3    3    0    0 -0.10931569113E+03  0.99906624066E+02 -0.39868594997E+03  0.42530311610E+03  0.99999687468E+00 0.  0.
          4    1    3    3  501    0  0.14940684698E+03 -0.12481872924E+03 -0.10839955445E+03  0.22282859892E+03  0.00000000000E+00 0.  1.
   -9000007    1    1    2    0  503 -0.40091155846E+02  0.24912105173E+02 -0.15042159548E+04  0.15572069716E+04  0.40000000000E+03 0.  1.
<mgrwt>
<rscale>  2 0.40343642E+03</rscale>
<asrwt>0</asrwt>
<pdfrwt beam="1">  1       21 0.14925940E-01 0.40365705E+03</pdfrwt>
<pdfrwt beam="2">  1       21 0.32435694E+00 0.40365705E+03</pdfrwt>
<totfact> 0.80145391E+02</totfact>
</mgrwt>
</event>
<event>
 6    1  0.9163926E-004  0.4722632E+03  0.7818608E-02  0.1021826E+00
         21   -1    0    0  501  502  0.00000000000E+00  0.00000000000E+00  0.13087819183E+03  0.13087819183E+03  0.00000000000E+00 0.  1.
         21   -1    0    0  502  503 -0.00000000000E+00 -0.00000000000E+00 -0.16765720128E+04  0.16765720128E+04  0.00000000000E+00 0.  1.
    9000007    2    1    2  501    0  0.13545680160E+03 -0.21138576522E+03 -0.76759874461E+03  0.89724998781E+03  0.39091843273E+03 0.  0.
    9000005    1    3    3    0    0  0.18185138422E+03  0.53412427504E+02 -0.24703128937E+03  0.31136517351E+03  0.99999687468E+00 0.  0.
          4    1    3    3  501    0 -0.46394582613E+02 -0.26479819272E+03 -0.52056745525E+03  0.58588481430E+03  0.00000000000E+00 0.  1.
   -9000007    1    1    2    0  503 -0.13545680160E+03  0.21138576522E+03 -0.77809507635E+03  0.91020021681E+03  0.40000000000E+03 0.  1.
<mgrwt>
<rscale>  2 0.47033466E+03</rscale>
<asrwt>0</asrwt>
<pdfrwt beam="1">  1       21 0.20135108E-01 0.47226315E+03</pdfrwt>
<pdfrwt beam="2">  1       21 0.25793414E+00 0.47226315E+03</pdfrwt>
<totfact> 0.11057845E+03</totfact>
</mgrwt>
</event>
<event>
 6    1  0.9163926E-004  0.4292727E+03  0.7818608E-02  0.1034119E+00
         21   -1    0    0  501  502  0.00000000000E+00  0.00000000000E+00  0.13214817377E+03  0.13214817377E+03  0.00000000000E+00 0.  1.
         21   -1    0    0  502  503 -0.00000000000E+00 -0.00000000000E+00 -0.21184400466E+04  0.21184400466E+04  0.00000000000E+00 0.  1.
    9000007    2    1    2  501    0  0.38114468366E+02 -0.15107056635E+03 -0.33448378005E+03  0.54391162416E+03  0.39960659036E+03 0.  0.
    9000005    1    3    3    0    0  0.18101747971E+03  0.38182243299E+02 -0.19495893019E+03  0.26876606207E+03  0.99999687468E+00 0.  0.
          4    1    3    3  501    0 -0.14290301135E+03 -0.18925280965E+03 -0.13952484986E+03  0.27514556209E+03  0.00000000000E+00 0.  1.
   -9000007    1    1    2    0  503 -0.38114468366E+02  0.15107056635E+03 -0.16518080928E+04  0.17066765962E+04  0.40000000000E+03 0.  1.
<mgrwt>
<rscale>  2 0.42918101E+03</rscale>
<asrwt>0</asrwt>
<pdfrwt beam="1">  1       21 0.20330489E-01 0.42927267E+03</pdfrwt>
<pdfrwt beam="2">  1       21 0.32591384E+00 0.42927267E+03</pdfrwt>
<totfact> 0.43221374E+02</totfact>
</mgrwt>
</event>
<event>
 6    1  0.9163926E-004  0.4037172E+03  0.7818608E-02  0.1042524E+00
         21   -1    0    0  501  502  0.00000000000E+00  0.00000000000E+00  0.65774807693E+03  0.65774807693E+03  0.00000000000E+00 0.  1.
         21   -1    0    0  502  503 -0.00000000000E+00 -0.00000000000E+00 -0.84994445924E+03  0.84994445924E+03  0.00000000000E+00 0.  1.
    9000007    2    1    2  501    0  0.54585770637E+02  0.28184751785E+01  0.53851156817E+03  0.67287419721E+03  0.39972168575E+03 0.  0.
    9000005    1    3    3    0    0  0.91021622268E+02  0.18727946575E+03  0.34564061006E+03  0.40351823419E+03  0.99999687468E+00 0.  0.
          4    1    3    3  501    0 -0.36435851631E+02 -0.18446099058E+03  0.19287095811E+03  0.26935596302E+03  0.00000000000E+00 0.  1.
   -9000007    1    1    2    0  503 -0.54585770637E+02 -0.28184751785E+01 -0.73070795048E+03  0.83481833896E+03  0.40000000000E+03 0.  1.
<mgrwt>
<rscale>  2 0.40364821E+03</rscale>
<asrwt>0</asrwt>
<pdfrwt beam="1">  1       21 0.10119201E+00 0.40371717E+03</pdfrwt>
<pdfrwt beam="2">  1       21 0.13076069E+00 0.40371717E+03</pdfrwt>
<totfact> 0.28702861E+02</totfact>
</mgrwt>
</event>
<event>
 6    1  0.9163926E-004  0.4245512E+03  0.7818608E-02  0.1035601E+00
         21   -1    0    0  501  502  0.00000000000E+00  0.00000000000E+00  0.33321899147E+03  0.33321899147E+03  0.00000000000E+00 0. -1.
         21   -1    0    0  502  503 -0.00000000000E+00 -0.00000000000E+00 -0.66095521132E+03  0.66095521132E+03  0.00000000000E+00 0. -1.
    9000007    2    1    2  501    0  0.51809139171E+02  0.13228879274E+03  0.48038709447E+02  0.42726035654E+03  0.40007397201E+03 0.  0.
    9000005    1    3    3    0    0  0.13402243923E+03  0.17544176200E+03  0.16666103441E+03  0.27662018447E+03  0.99999687468E+00 0.  0.
          4    1    3    3  501    0 -0.82213300056E+02 -0.43152969266E+02 -0.11862232496E+03  0.15064017207E+03  0.00000000000E+00 0.  1.
   -9000007    1    1    2    0  503 -0.51809139171E+02 -0.13228879274E+03 -0.37577492930E+03  0.56691384625E+03  0.40000000000E+03 0. -1.
<mgrwt>
<rscale>  2 0.42453374E+03</rscale>
<asrwt>0</asrwt>
<pdfrwt beam="1">  1       21 0.51264460E-01 0.42455117E+03</pdfrwt>
<pdfrwt beam="2">  1       21 0.10168542E+00 0.42455117E+03</pdfrwt>
<totfact> 0.24948301E+03</totfact>
</mgrwt>
</event>
<event>
 6    1  0.9163926E-004  0.4529252E+03  0.7818608E-02  0.1026874E+00
         21   -1    0    0  501  502  0.00000000000E+00  0.00000000000E+00  0.11542166041E+04  0.11542166041E+04  0.00000000000E+00 0. -1.
         21   -1    0    0  502  503 -0.00000000000E+00 -0.00000000000E+00 -0.27118995795E+03  0.27118995795E+03  0.00000000000E+00 0.  1.
    9000007    2    1    2  501    0  0.40897618978E+02  0.20789544194E+03  0.86023014691E+03  0.97218166156E+03  0.40031006406E+03 0.  0.
    9000005    1    3    3    0    0  0.63579981500E+02 -0.62879516422E+02  0.56061688536E+03  0.56770462371E+03  0.99999687468E+00 0.  0.
          4    1    3    3  501    0 -0.22682362523E+02  0.27077495836E+03  0.29961326155E+03  0.40447703785E+03  0.00000000000E+00 0.  1.
   -9000007    1    1    2    0  503 -0.40897618978E+02 -0.20789544194E+03  0.22796499207E+02  0.45322490046E+03  0.40000000000E+03 0.  1.
<mgrwt>
<rscale>  2 0.45285672E+03</rscale>
<asrwt>0</asrwt>
<pdfrwt beam="1">  1       21 0.17757178E+00 0.45292524E+03</pdfrwt>
<pdfrwt beam="2">  1       21 0.41721532E-01 0.45292524E+03</pdfrwt>
<totfact> 0.87430923E+02</totfact>
</mgrwt>
</event>
<event>
 6    1  0.9163926E-004  0.4223862E+03  0.7818608E-02  0.1036427E+00
         21   -1    0    0  501  502  0.00000000000E+00  0.00000000000E+00  0.10963844966E+04  0.10963844966E+04  0.00000000000E+00 0. -1.
         21   -1    0    0  502  503 -0.00000000000E+00 -0.00000000000E+00 -0.27447324016E+03  0.27447324016E+03  0.00000000000E+00 0. -1.
    9000007    2    1    2  501    0  0.11116319825E+02  0.12995637726E+03  0.85003127147E+03  0.94919084481E+03  0.40174353116E+03 0.  0.
    9000005    1    3    3    0    0  0.12043813226E+03 -0.85121847265E+02  0.51911802829E+03  0.53966248700E+03  0.99999687468E+00 0.  0.
          4    1    3    3  501    0 -0.10932181244E+03  0.21507822452E+03  0.33091324319E+03  0.40952835781E+03  0.00000000000E+00 0.  1.
   -9000007    1    1    2    0  503 -0.11116319825E+02 -0.12995637726E+03 -0.28120015001E+02  0.42166689199E+03  0.40000000000E+03 0. -1.
<mgrwt>
<rscale>  2 0.42197109E+03</rscale>
<asrwt>0</asrwt>
<pdfrwt beam="1">  1       21 0.16867454E+00 0.42238619E+03</pdfrwt>
<pdfrwt beam="2">  1       21 0.42226653E-01 0.42238619E+03</pdfrwt>
<totfact> 0.10021205E+03</totfact>
</mgrwt>
</event>
<event>
 6    1  0.9163926E-004  0.4233711E+03  0.7818608E-02  0.1035980E+00
         21   -1    0    0  501  502  0.00000000000E+00  0.00000000000E+00  0.45711667997E+03  0.45711667997E+03  0.00000000000E+00 0. -1.
         21   -1    0    0  502  503 -0.00000000000E+00 -0.00000000000E+00 -0.12184458490E+04  0.12184458490E+04  0.00000000000E+00 0. -1.
    9000007    2    1    2  501    0  0.12932180041E+02 -0.13793190329E+03  0.30927834051E+03  0.52430543749E+03  0.40006330580E+03 0.  0.
    9000005    1    3    3    0    0  0.35577023645E+02 -0.20597340810E+03  0.37351897447E+03  0.42802826278E+03  0.99999687468E+00 0.  0.
          4    1    3    3  501    0 -0.22644843604E+02  0.68041504812E+02 -0.64240633960E+02  0.96277174712E+02  0.00000000000E+00 0.  1.
   -9000007    1    1    2    0  503 -0.12932180041E+02  0.13793190329E+03 -0.10706075095E+04  0.11512570914E+04  0.40000000000E+03 0. -1.
<mgrwt>
<rscale>  2 0.42335616E+03</rscale>
<asrwt>0</asrwt>
<pdfrwt beam="1">  1       21 0.70325643E-01 0.42337111E+03</pdfrwt>
<pdfrwt beam="2">  1       21 0.18745321E+00 0.42337111E+03</pdfrwt>
<totfact> 0.24553542E+02</totfact>
</mgrwt>
</event>
<event>
 6    1  0.9163926E-004  0.4444167E+03  0.7818608E-02  0.1029521E+00
         21   -1    0    0  501  502  0.00000000000E+00  0.00000000000E+00  0.12153979857E+04  0.12153979857E+04  0.00000000000E+00 0.  1.
         21   -1    0    0  502  503 -0.00000000000E+00 -0.00000000000E+00 -0.16988786802E+03  0.16988786802E+03  0.00000000000E+00 0. -1.
    9000007    2    1    2  501    0  0.13965405527E+03  0.13417508680E+03  0.67183485428E+03  0.80464877984E+03  0.39823533043E+03 0.  0.
    9000005    1    3    3    0    0  0.91820236978E+02  0.25289439780E+03  0.26297348029E+03  0.37622145564E+03  0.99999687468E+00 0.  0.
          4    1    3    3  501    0  0.47833818292E+02 -0.11871931100E+03  0.40886137400E+03  0.42842732420E+03  0.00000000000E+00 0.  1.
   -9000007    1    1    2    0  503 -0.13965405527E+03 -0.13417508680E+03  0.37367526338E+03  0.58063707385E+03  0.40000000000E+03 0.  1.
<mgrwt>
<rscale>  2 0.44401927E+03</rscale>
<asrwt>0</asrwt>
<pdfrwt beam="1">  1       21 0.18698430E+00 0.44441671E+03</pdfrwt>
<pdfrwt beam="2">  1       21 0.26136596E-01 0.44441671E+03</pdfrwt>
<totfact> 0.19311245E+03</totfact>
</mgrwt>
</event>
<event>
 6    1  0.9163926E-004  0.6338620E+03  0.7818608E-02  0.9837825E-01
         21   -1    0    0  501  502  0.00000000000E+00  0.00000000000E+00  0.55340350895E+03  0.55340350895E+03  0.00000000000E+00 0.  1.
         21   -1    0    0  502  503 -0.00000000000E+00 -0.00000000000E+00 -0.17963310245E+04  0.17963310245E+04  0.00000000000E+00 0. -1.
    9000007    2    1    2  501    0 -0.43090366326E+03 -0.23686099428E+03  0.28581946236E+03  0.69478788171E+03  0.39906933969E+03 0.  0.
    9000005    1    3    3    0    0 -0.17307907917E+03 -0.30845688450E+03  0.95306232631E+02  0.36631447584E+03  0.99999687468E+00 0.  0.
          4    1    3    3  501    0 -0.25782458409E+03  0.71595890219E+02  0.19051322973E+03  0.32847340587E+03  0.00000000000E+00 0.  1.
   -9000007    1    1    2    0  503  0.43090366326E+03  0.23686099428E+03 -0.15287469779E+04  0.16549466517E+04  0.40000000000E+03 0. -1.
<mgrwt>
<rscale>  2 0.63371528E+03</rscale>
<asrwt>0</asrwt>
<pdfrwt beam="1">  1       21 0.85139002E-01 0.63386205E+03</pdfrwt>
<pdfrwt beam="2">  1       21 0.27635862E+00 0.63386205E+03</pdfrwt>
<totfact> 0.38514853E+01</totfact>
</mgrwt>
</event>
<event>
 6    1  0.9163926E-004  0.4610381E+03  0.7818608E-02  0.1024660E+00
         21   -1    0    0  501  502  0.00000000000E+00  0.00000000000E+00  0.10744989499E+04  0.10744989499E+04  0.00000000000E+00 0.  1.
         21   -1    0    0  502  503 -0.00000000000E+00 -0.00000000000E+00 -0.21583876669E+03  0.21583876669E+03  0.00000000000E+00 0. -1.
    9000007    2    1    2  501    0 -0.11808990184E+03  0.19649660093E+03  0.62010550432E+03  0.77123804029E+03  0.39714120815E+03 0.  0.
    9000005    1    3    3    0    0 -0.18408278613E+03  0.61104562808E+02  0.58536693642E+03  0.61666497387E+03  0.99999687468E+00 0.  0.
          4    1    3    3  501    0  0.65992884290E+02  0.13539203812E+03  0.34738567901E+02  0.15457306642E+03  0.00000000000E+00 0.  1.
   -9000007    1    1    2    0  503  0.11808990184E+03 -0.19649660093E+03  0.23855467886E+03  0.51909967627E+03  0.40000000000E+03 0.  1.
<mgrwt>
<rscale>  2 0.46041733E+03</rscale>
<asrwt>0</asrwt>
<pdfrwt beam="1">  1       21 0.16530753E+00 0.46103811E+03</pdfrwt>
<pdfrwt beam="2">  1       21 0.33205965E-01 0.46103811E+03</pdfrwt>
<totfact> 0.17038723E+03</totfact>
</mgrwt>
</event>
<event>
 6    1  0.9163926E-004  0.4764260E+03  0.7818608E-02  0.1020147E+00
         21   -1    0    0  501  502  0.00000000000E+00  0.00000000000E+00  0.47093935588E+03  0.47093935588E+03  0.00000000000E+00 0.  1.
         21   -1    0    0  502  503 -0.00000000000E+00 -0.00000000000E+00 -0.66362449323E+03  0.66362449323E+03  0.00000000000E+00 0.  1.
    9000007    2    1    2  501    0 -0.20302581901E+03  0.16050613463E+03 -0.39340769913E+03  0.61758101647E+03  0.39956850693E+03 0.  0.
    9000005    1    3    3    0    0  0.38591712479E+02  0.59704193870E+01 -0.31885541783E+03  0.32123938683E+03  0.99999687468E+00 0.  0.
          4    1    3    3  501    0 -0.24161753149E+03  0.15453571524E+03 -0.74552281296E+02  0.29634162963E+03  0.00000000000E+00 0.  1.
   -9000007    1    1    2    0  503  0.20302581901E+03 -0.16050613463E+03  0.20072256178E+03  0.51698283264E+03  0.40000000000E+03 0.  1.
<mgrwt>
<rscale>  2 0.47633539E+03</rscale>
<asrwt>0</asrwt>
<pdfrwt beam="1">  1       21 0.72452209E-01 0.47642597E+03</pdfrwt>
<pdfrwt beam="2">  1       21 0.10209608E+00 0.47642597E+03</pdfrwt>
<totfact> 0.11317968E+03</totfact>
</mgrwt>
</event>
<event>
 6    1  0.9163926E-004  0.6148140E+03  0.7818608E-02  0.9875188E-01
         21   -1    0    0  501  502  0.00000000000E+00  0.00000000000E+00  0.12942303846E+03  0.12942303846E+03  0.00000000000E+00 0.  1.
         21   -1    0    0  502  503 -0.00000000000E+00 -0.00000000000E+00 -0.31049998970E+04  0.31049998970E+04  0.00000000000E+00 0. -1.
    9000007    2    1    2  501    0 -0.92795584800E+02 -0.45745831953E+03 -0.18824616968E+04  0.19803177199E+04  0.40014634504E+03 0.  0.
    9000005    1    3    3    0    0 -0.13900878582E+03 -0.25094728740E+03 -0.16098413268E+04  0.16352027645E+04  0.99999687468E+00 0.  0.
          4    1    3    3  501    0  0.46213201020E+02 -0.20651103213E+03 -0.27262036995E+03  0.34511495541E+03  0.00000000000E+00 0.  1.
   -9000007    1    1    2    0  503  0.92795584800E+02  0.45745831953E+03 -0.10931151617E+04  0.12541052155E+04  0.40000000000E+03 0. -1.
<mgrwt>
<rscale>  2 0.61479017E+03</rscale>
<asrwt>0</asrwt>
<pdfrwt beam="1">  1       21 0.19911236E-01 0.61481398E+03</pdfrwt>
<pdfrwt beam="2">  1       21 0.47769231E+00 0.61481398E+03</pdfrwt>
<totfact> 0.41977585E+01</totfact>
</mgrwt>
</event>
<event>
 6    1  0.9163926E-004  0.4581928E+03  0.7818608E-02  0.1025359E+00
         21   -1    0    0  501  502  0.00000000000E+00  0.00000000000E+00  0.64307921400E+03  0.64307921400E+03  0.00000000000E+00 0. -1.
         21   -1    0    0  502  503 -0.00000000000E+00 -0.00000000000E+00 -0.80673704318E+03  0.80673704318E+03  0.00000000000E+00 0. -1.
    9000007    2    1    2  501    0 -0.10714259700E+03 -0.19442426284E+03  0.47776631086E+03  0.66196775811E+03  0.40082456875E+03 0.  0.
    9000005    1    3    3    0    0 -0.15966739130E+03  0.76040480755E+02  0.13673282742E+03  0.22354573726E+03  0.99999687468E+00 0.  0.
          4    1    3    3  501    0  0.52524794298E+02 -0.27046474359E+03  0.34103348343E+03  0.43842202085E+03  0.00000000000E+00 0.  1.
   -9000007    1    1    2    0  503  0.10714259700E+03  0.19442426284E+03 -0.64142414004E+03  0.78784849908E+03  0.40000000000E+03 0. -1.
<mgrwt>
<rscale>  2 0.45801243E+03</rscale>
<asrwt>0</asrwt>
<pdfrwt beam="1">  1       21 0.98935264E-01 0.45819283E+03</pdfrwt>
<pdfrwt beam="2">  1       21 0.12411339E+00 0.45819283E+03</pdfrwt>
<totfact> 0.33744751E+02</totfact>
</mgrwt>
</event>
<event>
 6    1  0.9163926E-004  0.4012286E+03  0.7818608E-02  0.1043367E+00
         21   -1    0    0  501  502  0.00000000000E+00  0.00000000000E+00  0.24576032003E+03  0.24576032003E+03  0.00000000000E+00 0. -1.
         21   -1    0    0  502  503 -0.00000000000E+00 -0.00000000000E+00 -0.74580358583E+03  0.74580358583E+03  0.00000000000E+00 0. -1.
    9000007    2    1    2  501    0  0.97646647962E+01 -0.29816495384E+02 -0.76829723587E+02  0.40838805383E+03  0.39986700791E+03 0.  0.
    9000005    1    3    3    0    0 -0.13705720627E+03  0.11003486562E+03  0.31392646114E+02  0.17854648601E+03  0.99999687468E+00 0.  0.
          4    1    3    3  501    0  0.14682187106E+03 -0.13985136100E+03 -0.10822236970E+03  0.22984156783E+03  0.00000000000E+00 0.  1.
   -9000007    1    1    2    0  503 -0.97646647962E+01  0.29816495384E+02 -0.42321354221E+03  0.58317585202E+03  0.40000000000E+03 0. -1.
<mgrwt>
<rscale>  2 0.40119543E+03</rscale>
<asrwt>0</asrwt>
<pdfrwt beam="1">  1       21 0.37809281E-01 0.40122858E+03</pdfrwt>
<pdfrwt beam="2">  1       21 0.11473901E+00 0.40122858E+03</pdfrwt>
<totfact> 0.35258851E+03</totfact>
</mgrwt>
</event>
<event>
 6    1  0.9163926E-004  0.4054968E+03  0.7818608E-02  0.1042129E+00
         21   -1    0    0  501  502  0.00000000000E+00  0.00000000000E+00  0.24725562670E+03  0.24725562670E+03  0.00000000000E+00 0. -1.
         21   -1    0    0  502  503 -0.00000000000E+00 -0.00000000000E+00 -0.83675011028E+03  0.83675011028E+03  0.00000000000E+00 0. -1.
    9000007    2    1    2  501    0 -0.34045617931E+02 -0.32138178881E+02 -0.46778926049E+02  0.40818612864E+03  0.40278490668E+03 0.  0.
    9000005    1    3    3    0    0  0.67708837646E+02 -0.61081473280E+02  0.15529697736E+03  0.18009326540E+03  0.99999687468E+00 0.  0.
          4    1    3    3  501    0 -0.10175445558E+03  0.28943294399E+02 -0.20207590341E+03  0.22809286323E+03  0.00000000000E+00 0.  1.
   -9000007    1    1    2    0  503  0.34045617931E+02  0.32138178881E+02 -0.54271555752E+03  0.67581960834E+03  0.40000000000E+03 0. -1.
<mgrwt>
<rscale>  2 0.40480348E+03</rscale>
<asrwt>0</asrwt>
<pdfrwt beam="1">  1       21 0.38039327E-01 0.40549679E+03</pdfrwt>
<pdfrwt beam="2">  1       21 0.12873079E+00 0.40549679E+03</pdfrwt>
<totfact> 0.25951629E+03</totfact>
</mgrwt>
</event>
<event>
 6    1  0.9163926E-004  0.4241909E+03  0.7818608E-02  0.1035747E+00
         21   -1    0    0  501  502  0.00000000000E+00  0.00000000000E+00  0.69998525201E+03  0.69998525201E+03  0.00000000000E+00 0. -1.
         21   -1    0    0  502  503 -0.00000000000E+00 -0.00000000000E+00 -0.35395781471E+03  0.35395781471E+03  0.00000000000E+00 0. -1.
    9000007    2    1    2  501    0  0.12421482183E+03 -0.64218815034E+02  0.44919210405E+03  0.61782802842E+03  0.40048039676E+03 0.  0.
    9000005    1    3    3    0    0  0.17030189181E+03  0.55231539746E+02  0.45572153507E+03  0.48962881334E+03  0.99999687468E+00 0.  0.
          4    1    3    3  501    0 -0.46087069981E+02 -0.11945035478E+03 -0.65294310178E+01  0.12819921508E+03  0.00000000000E+00 0.  1.
   -9000007    1    1    2    0  503 -0.12421482183E+03  0.64218815034E+02 -0.10316466675E+03  0.43611503830E+03  0.40000000000E+03 0. -1.
<mgrwt>
<rscale>  2 0.42407748E+03</rscale>
<asrwt>0</asrwt>
<pdfrwt beam="1">  1       21 0.10769004E+00 0.42419091E+03</pdfrwt>
<pdfrwt beam="2">  1       21 0.54455049E-01 0.42419091E+03</pdfrwt>
<totfact> 0.19043332E+03</totfact>
</mgrwt>
</event>
<event>
 6    1  0.9163926E-004  0.4143452E+03  0.7818608E-02  0.1038938E+00
         21   -1    0    0  501  502  0.00000000000E+00  0.00000000000E+00  0.23773111025E+03  0.23773111025E+03  0.00000000000E+00 0.  1.
         21   -1    0    0  502  503 -0.00000000000E+00 -0.00000000000E+00 -0.10105613794E+04  0.10105613794E+04  0.00000000000E+00 0.  1.
    9000007    2    1    2  501    0  0.44326423470E+02  0.97814070285E+02 -0.52869187150E+02  0.41770451493E+03  0.40018681472E+03 0.  0.
    9000005    1    3    3    0    0 -0.73768291001E+00 -0.59818124705E+02 -0.19298076683E+03  0.20204288797E+03  0.99999687468E+00 0.  0.
          4    1    3    3  501    0  0.45064106380E+02  0.15763219499E+03  0.14011157968E+03  0.21566162696E+03  0.00000000000E+00 0.  1.
   -9000007    1    1    2    0  503 -0.44326423470E+02 -0.97814070285E+02 -0.71996108198E+03  0.83058797471E+03  0.40000000000E+03 0.  1.
<mgrwt>
<rscale>  2 0.41430004E+03</rscale>
<asrwt>0</asrwt>
<pdfrwt beam="1">  1       21 0.36574018E-01 0.41434516E+03</pdfrwt>
<pdfrwt beam="2">  1       21 0.15547098E+00 0.41434516E+03</pdfrwt>
<totfact> 0.16958063E+03</totfact>
</mgrwt>
</event>
<event>
 6    1  0.9163926E-004  0.4151397E+03  0.7818608E-02  0.1038665E+00
         21   -1    0    0  501  502  0.00000000000E+00  0.00000000000E+00  0.37802059377E+03  0.37802059377E+03  0.00000000000E+00 0.  1.
         21   -1    0    0  502  503 -0.00000000000E+00 -0.00000000000E+00 -0.46995755291E+03  0.46995755291E+03  0.00000000000E+00 0.  1.
    9000007    2    1    2  501    0 -0.11078524107E+03  0.38602587446E+01  0.27529830262E+02  0.41605154990E+03  0.40006590631E+03 0.  0.
    9000005    1    3    3    0    0  0.61887089640E+02 -0.65236600552E+02 -0.13956646634E+03  0.16602898673E+03  0.99999687468E+00 0.  0.
          4    1    3    3  501    0 -0.17267233071E+03  0.69096859297E+02  0.16709629660E+03  0.25002256317E+03  0.00000000000E+00 0.  1.
   -9000007    1    1    2    0  503  0.11078524107E+03 -0.38602587446E+01 -0.11946678940E+03  0.43192659678E+03  0.40000000000E+03 0.  1.
<mgrwt>
<rscale>  2 0.41512386E+03</rscale>
<asrwt>0</asrwt>
<pdfrwt beam="1">  1       21 0.58157015E-01 0.41513974E+03</pdfrwt>
<pdfrwt beam="2">  1       21 0.72301162E-01 0.41513974E+03</pdfrwt>
<totfact> 0.42417545E+03</totfact>
</mgrwt>
</event>
<event>
 6    1  0.9163926E-004  0.4814805E+03  0.7818608E-02  0.1018755E+00
         21   -1    0    0  501  502  0.00000000000E+00  0.00000000000E+00  0.30430075157E+03  0.30430075157E+03  0.00000000000E+00 0.  1.
         21   -1    0    0  502  503 -0.00000000000E+00 -0.00000000000E+00 -0.78493798286E+03  0.78493798286E+03  0.00000000000E+00 0.  1.
    9000007    2    1    2  501    0 -0.26352399848E+03  0.44884818195E+02 -0.14575044225E+03  0.50305727264E+03  0.40045459600E+03 0.  0.
    9000005    1    3    3    0    0 -0.26152325681E+03 -0.74546032653E+02  0.47316029675E+02  0.27602777305E+03  0.99999687468E+00 0.  0.
          4    1    3    3  501    0 -0.20007416680E+01  0.11943085085E+03 -0.19306647193E+03  0.22702949959E+03  0.00000000000E+00 0.  1.
   -9000007    1    1    2    0  503  0.26352399848E+03 -0.44884818195E+02 -0.33488678904E+03  0.58618146179E+03  0.40000000000E+03 0.  1.
<mgrwt>
<rscale>  2 0.48138592E+03</rscale>
<asrwt>0</asrwt>
<pdfrwt beam="1">  1       21 0.46815501E-01 0.48148045E+03</pdfrwt>
<pdfrwt beam="2">  1       21 0.12075969E+00 0.48148045E+03</pdfrwt>
<totfact> 0.19303276E+03</totfact>
</mgrwt>
</event>
<event>
 6    1  0.9163926E-004  0.4461297E+03  0.7818608E-02  0.1028898E+00
         21   -1    0    0  501  502  0.00000000000E+00  0.00000000000E+00  0.95308209717E+03  0.95308209717E+03  0.00000000000E+00 0. -1.
         21   -1    0    0  502  503 -0.00000000000E+00 -0.00000000000E+00 -0.42267955888E+03  0.42267955888E+03  0.00000000000E+00 0. -1.
    9000007    2    1    2  501    0 -0.11314723791E+03  0.16195499976E+03  0.75456518555E+03  0.87648156249E+03  0.39977442482E+03 0.  0.
    9000005    1    3    3    0    0 -0.25452006497E+03  0.16250356463E+03  0.46847248000E+03  0.55736463514E+03  0.99999687468E+00 0.  0.
          4    1    3    3  501    0  0.14137282706E+03 -0.54856487537E+00  0.28609270556E+03  0.31911692736E+03  0.00000000000E+00 0.  1.
   -9000007    1    1    2    0  503  0.11314723791E+03 -0.16195499976E+03 -0.22416264726E+03  0.49928009356E+03  0.40000000000E+03 0. -1.
<mgrwt>
<rscale>  2 0.44607914E+03</rscale>
<asrwt>0</asrwt>
<pdfrwt beam="1">  1       21 0.14662801E+00 0.44612971E+03</pdfrwt>
<pdfrwt beam="2">  1       21 0.65027625E-01 0.44612971E+03</pdfrwt>
<totfact> 0.57851588E+02</totfact>
</mgrwt>
</event>
<event>
 6    1  0.9163926E-004  0.6500781E+03  0.7818608E-02  0.9806683E-01
         21   -1    0    0  501  502  0.00000000000E+00  0.00000000000E+00  0.91709532490E+03  0.91709532490E+03  0.00000000000E+00 0. -1.
         21   -1    0    0  502  503 -0.00000000000E+00 -0.00000000000E+00 -0.76995783422E+03  0.76995783422E+03  0.00000000000E+00 0.  1.
    9000007    2    1    2  501    0 -0.29184167216E+03  0.42105862477E+03  0.60814389259E+03  0.89019129549E+03  0.40017448866E+03 0.  0.
    9000005    1    3    3    0    0 -0.30653457290E+03  0.49081065689E+03  0.54680920052E+03  0.79615315553E+03  0.99999687468E+00 0.  0.
          4    1    3    3  501    0  0.14692900738E+02 -0.69752032115E+02  0.61334692072E+02  0.94038139964E+02  0.00000000000E+00 0.  1.
   -9000007    1    1    2    0  503  0.29184167216E+03 -0.42105862477E+03 -0.46100640191E+03  0.79686186363E+03  0.40000000000E+03 0.  1.
<mgrwt>
<rscale>  2 0.65005126E+03</rscale>
<asrwt>0</asrwt>
<pdfrwt beam="1">  1       21 0.14109159E+00 0.65007811E+03</pdfrwt>
<pdfrwt beam="2">  1       21 0.11845505E+00 0.65007811E+03</pdfrwt>
<totfact> 0.14247055E+02</totfact>
</mgrwt>
</event>
<event>
 6    1  0.9163926E-004  0.4016547E+03  0.7818608E-02  0.1043218E+00
         21   -1    0    0  501  502  0.00000000000E+00  0.00000000000E+00  0.22530776807E+03  0.22530776807E+03  0.00000000000E+00 0. -1.
         21   -1    0    0  502  503 -0.00000000000E+00 -0.00000000000E+00 -0.10975548542E+04  0.10975548542E+04  0.00000000000E+00 0. -1.
    9000007    2    1    2  501    0  0.27002352728E+01  0.35040217630E+02 -0.46087062934E+02  0.40429009271E+03  0.40011417567E+03 0.  0.
    9000005    1    3    3    0    0 -0.16523871979E+03  0.81113233837E+02 -0.11495522610E+03  0.21702279885E+03  0.99999687468E+00 0.  0.
          4    1    3    3  501    0  0.16793895506E+03 -0.46073016207E+02  0.68868163164E+02  0.18726729386E+03  0.00000000000E+00 0.  1.
   -9000007    1    1    2    0  503 -0.27002352728E+01 -0.35040217630E+02 -0.82616002317E+03  0.91857252953E+03  0.40000000000E+03 0. -1.
<mgrwt>
<rscale>  2 0.40162622E+03</rscale>
<asrwt>0</asrwt>
<pdfrwt beam="1">  1       21 0.34662734E-01 0.40165465E+03</pdfrwt>
<pdfrwt beam="2">  1       21 0.16885459E+00 0.40165465E+03</pdfrwt>
<totfact> 0.15103214E+03</totfact>
</mgrwt>
</event>
<event>
 6    1  0.9163926E-004  0.5697518E+03  0.7818608E-02  0.9970323E-01
         21   -1    0    0  501  502  0.00000000000E+00  0.00000000000E+00  0.25108095259E+03  0.25108095259E+03  0.00000000000E+00 0.  1.
         21   -1    0    0  502  503 -0.00000000000E+00 -0.00000000000E+00 -0.22811204123E+04  0.22811204123E+04  0.00000000000E+00 0. -1.
    9000007    2    1    2  501    0 -0.10856180817E+03 -0.39068671601E+03 -0.18159542732E+03  0.59799167691E+03  0.40024413820E+03 0.  0.
    9000005    1    3    3    0    0  0.99142962028E+02 -0.53432440142E+02  0.66333840041E+02  0.13071163264E+03  0.99999687468E+00 0.  0.
          4    1    3    3  501    0 -0.20770477020E+03 -0.33725427587E+03 -0.24792926737E+03  0.46728004427E+03  0.00000000000E+00 0.  1.
   -9000007    1    1    2    0  503  0.10856180817E+03  0.39068671601E+03 -0.18484440324E+04  0.19342096880E+04  0.40000000000E+03 0. -1.
<mgrwt>
<rscale>  2 0.56970895E+03</rscale>
<asrwt>0</asrwt>
<pdfrwt beam="1">  1       21 0.38627839E-01 0.56975183E+03</pdfrwt>
<pdfrwt beam="2">  1       21 0.35094160E+00 0.56975183E+03</pdfrwt>
<totfact> 0.78765177E+01</totfact>
</mgrwt>
</event>
<event>
 6    1  0.9163926E-004  0.4271475E+03  0.7818608E-02  0.1034824E+00
         21   -1    0    0  501  502  0.00000000000E+00  0.00000000000E+00  0.25935868679E+03  0.25935868679E+03  0.00000000000E+00 0.  1.
         21   -1    0    0  502  503 -0.00000000000E+00 -0.00000000000E+00 -0.73910432344E+03  0.73910432344E+03  0.00000000000E+00 0.  1.
    9000007    2    1    2  501    0  0.87028951043E+02 -0.11937184778E+03 -0.12861773667E+03  0.44609132512E+03  0.40078831296E+03 0.  0.
    9000005    1    3    3    0    0  0.48825305560E+02 -0.16902670559E+03 -0.25221742124E+03  0.30752002412E+03  0.99999687468E+00 0.  0.
          4    1    3    3  501    0  0.38203645483E+02  0.49654857817E+02  0.12359968457E+03  0.13857130100E+03  0.00000000000E+00 0.  1.
   -9000007    1    1    2    0  503 -0.87028951043E+02  0.11937184778E+03 -0.35112789998E+03  0.55237168510E+03  0.40000000000E+03 0.  1.
<mgrwt>
<rscale>  2 0.42696244E+03</rscale>
<asrwt>0</asrwt>
<pdfrwt beam="1">  1       21 0.39901337E-01 0.42714745E+03</pdfrwt>
<pdfrwt beam="2">  1       21 0.11370836E+00 0.42714745E+03</pdfrwt>
<totfact> 0.31971504E+03</totfact>
</mgrwt>
</event>
<event>
 6    1  0.9163926E-004  0.4250151E+03  0.7818608E-02  0.1035485E+00
         21   -1    0    0  501  502  0.00000000000E+00  0.00000000000E+00  0.38064832864E+03  0.38064832864E+03  0.00000000000E+00 0.  1.
         21   -1    0    0  502  503 -0.00000000000E+00 -0.00000000000E+00 -0.55018953270E+03  0.55018953270E+03  0.00000000000E+00 0.  1.
    9000007    2    1    2  501    0 -0.97287413203E+02 -0.10375643769E+03  0.88363249114E+02  0.43410358017E+03  0.40050919514E+03 0.  0.
    9000005    1    3    3    0    0  0.13091822259E+03  0.76071085113E+01 -0.55330507851E+02  0.14233732539E+03  0.99999687468E+00 0.  0.
          4    1    3    3  501    0 -0.22820563580E+03 -0.11136354621E+03  0.14369375697E+03  0.29176625477E+03  0.00000000000E+00 0.  1.
   -9000007    1    1    2    0  503  0.97287413203E+02  0.10375643769E+03 -0.25790445317E+03  0.49673428117E+03  0.40000000000E+03 0.  1.
<mgrwt>
<rscale>  2 0.42489512E+03</rscale>
<asrwt>0</asrwt>
<pdfrwt beam="1">  1       21 0.58561282E-01 0.42501512E+03</pdfrwt>
<pdfrwt beam="2">  1       21 0.84644543E-01 0.42501512E+03</pdfrwt>
<totfact> 0.28986096E+03</totfact>
</mgrwt>
</event>
<event>
 6    1  0.9163926E-004  0.4522041E+03  0.7818608E-02  0.1027088E+00
         21   -1    0    0  501  502  0.00000000000E+00  0.00000000000E+00  0.12899234154E+03  0.12899234154E+03  0.00000000000E+00 0.  1.
         21   -1    0    0  502  503 -0.00000000000E+00 -0.00000000000E+00 -0.15931875355E+04  0.15931875355E+04  0.00000000000E+00 0. -1.
    9000007    2    1    2  501    0 -0.94588578568E+02 -0.18783361252E+03 -0.79675734915E+03  0.91613909528E+03  0.40032499709E+03 0.  0.
    9000005    1    3    3    0    0 -0.15035197739E+03  0.82206578585E+02 -0.37424819498E+03  0.41161432204E+03  0.99999687468E+00 0.  0.
          4    1    3    3  501    0  0.55763398824E+02 -0.27004019110E+03 -0.42250915417E+03  0.50452477324E+03  0.00000000000E+00 0.  1.
   -9000007    1    1    2    0  503  0.94588578568E+02  0.18783361252E+03 -0.66743784483E+03  0.80604078178E+03  0.40000000000E+03 0. -1.
<mgrwt>
<rscale>  2 0.45213218E+03</rscale>
<asrwt>0</asrwt>
<pdfrwt beam="1">  1       21 0.19844975E-01 0.45220412E+03</pdfrwt>
<pdfrwt beam="2">  1       21 0.24510578E+00 0.45220412E+03</pdfrwt>
<totfact> 0.13761014E+03</totfact>
</mgrwt>
</event>
<event>
 6    1  0.9163926E-004  0.4204319E+03  0.7818608E-02  0.1037064E+00
         21   -1    0    0  501  502  0.00000000000E+00  0.00000000000E+00  0.11849948785E+03  0.11849948785E+03  0.00000000000E+00 0. -1.
         21   -1    0    0  502  503 -0.00000000000E+00 -0.00000000000E+00 -0.32820879230E+04  0.32820879230E+04  0.00000000000E+00 0. -1.
    9000007    2    1    2  501    0  0.12040715720E+03 -0.28986237219E+02 -0.32532169850E+03  0.53159871204E+03  0.40177717417E+03 0.  0.
    9000005    1    3    3    0    0  0.19324557713E+03 -0.16350644354E+03 -0.13329646776E+03  0.28608942390E+03  0.99999687468E+00 0.  0.
          4    1    3    3  501    0 -0.72838419924E+02  0.13452020632E+03 -0.19202523073E+03  0.24550928814E+03  0.00000000000E+00 0.  1.
   -9000007    1    1    2    0  503 -0.12040715720E+03  0.28986237219E+02 -0.28382667367E+04  0.28689886988E+04  0.40000000000E+03 0. -1.
<mgrwt>
<rscale>  2 0.42000676E+03</rscale>
<asrwt>0</asrwt>
<pdfrwt beam="1">  1       21 0.18230694E-01 0.42043190E+03</pdfrwt>
<pdfrwt beam="2">  1       21 0.50493652E+00 0.42043190E+03</pdfrwt>
<totfact> 0.36098207E+01</totfact>
</mgrwt>
</event>
<event>
 6    1  0.9163926E-004  0.4495063E+03  0.7818608E-02  0.1027881E+00
         21   -1    0    0  501  502  0.00000000000E+00  0.00000000000E+00  0.10890538523E+04  0.10890538523E+04  0.00000000000E+00 0. -1.
         21   -1    0    0  502  503 -0.00000000000E+00 -0.00000000000E+00 -0.26381426614E+03  0.26381426614E+03  0.00000000000E+00 0. -1.
    9000007    2    1    2  501    0  0.19043547675E+03 -0.75131028084E+02  0.78130090697E+03  0.90138063273E+03  0.40018195318E+03 0.  0.
    9000005    1    3    3    0    0  0.24681103595E+03  0.98667990710E+02  0.49205445766E+03  0.55925812390E+03  0.99999687468E+00 0.  0.
          4    1    3    3  501    0 -0.56375559202E+02 -0.17379901879E+03  0.28924644931E+03  0.34212250883E+03  0.00000000000E+00 0.  1.
   -9000007    1    1    2    0  503 -0.19043547675E+03  0.75131028084E+02  0.43938679152E+02  0.45148748566E+03  0.40000000000E+03 0. -1.
<mgrwt>
<rscale>  2 0.44946583E+03</rscale>
<asrwt>0</asrwt>
<pdfrwt beam="1">  1       21 0.16754674E+00 0.44950633E+03</pdfrwt>
<pdfrwt beam="2">  1       21 0.40586811E-01 0.44950633E+03</pdfrwt>
<totfact> 0.10951212E+03</totfact>
</mgrwt>
</event>
<event>
 6    1  0.9163926E-004  0.4456432E+03  0.7818608E-02  0.1029037E+00
         21   -1    0    0  501  502  0.00000000000E+00  0.00000000000E+00  0.83710186921E+03  0.83710186921E+03  0.00000000000E+00 0. -1.
         21   -1    0    0  502  503 -0.00000000000E+00 -0.00000000000E+00 -0.26506561587E+03  0.26506561587E+03  0.00000000000E+00 0. -1.
    9000007    2    1    2  501    0  0.19633364235E+03 -0.71379509014E+01  0.46470551724E+03  0.64378147267E+03  0.39988187923E+03 0.  0.
    9000005    1    3    3    0    0  0.10791996875E+02 -0.14942448015E+03  0.35537669157E+03  0.38566531522E+03  0.99999687468E+00 0.  0.
          4    1    3    3  501    0  0.18554164548E+03  0.14228652924E+03  0.10932882568E+03  0.25811615745E+03  0.00000000000E+00 0.  1.
   -9000007    1    1    2    0  503 -0.19633364235E+03  0.71379509014E+01  0.10733073609E+03  0.45838601241E+03  0.40000000000E+03 0. -1.
<mgrwt>
<rscale>  2 0.44561668E+03</rscale>
<asrwt>0</asrwt>
<pdfrwt beam="1">  1       21 0.12878490E+00 0.44564319E+03</pdfrwt>
<pdfrwt beam="2">  1       21 0.40779326E-01 0.44564319E+03</pdfrwt>
<totfact> 0.22115953E+03</totfact>
</mgrwt>
</event>
<event>
 6    1  0.9163926E-004  0.4676123E+03  0.7818608E-02  0.1022603E+00
         21   -1    0    0  501  502  0.00000000000E+00  0.00000000000E+00  0.11278261247E+04  0.11278261247E+04  0.00000000000E+00 0. -1.
         21   -1    0    0  502  503 -0.00000000000E+00 -0.00000000000E+00 -0.19536830442E+03  0.19536830442E+03  0.00000000000E+00 0. -1.
    9000007    2    1    2  501    0 -0.15673004988E+03  0.18465370495E+03  0.40769640644E+03  0.62031759726E+03  0.39989531425E+03 0.  0.
    9000005    1    3    3    0    0 -0.17464386059E+03  0.17529359558E+03  0.38327752892E+02  0.25039636445E+03  0.99999687468E+00 0.  0.
          4    1    3    3  501    0  0.17913810706E+02  0.93601093612E+01  0.36936865354E+03  0.36992123281E+03  0.00000000000E+00 0.  1.
   -9000007    1    1    2    0  503  0.15673004988E+03 -0.18465370495E+03  0.52476141380E+03  0.70287683181E+03  0.40000000000E+03 0. -1.
<mgrwt>
<rscale>  2 0.46758995E+03</rscale>
<asrwt>0</asrwt>
<pdfrwt beam="1">  1       21 0.17351171E+00 0.46761234E+03</pdfrwt>
<pdfrwt beam="2">  1       21 0.30056663E-01 0.46761234E+03</pdfrwt>
<totfact> 0.18070825E+03</totfact>
</mgrwt>
</event>
<event>
 6    1  0.9163926E-004  0.4123104E+03  0.7818608E-02  0.1039647E+00
         21   -1    0    0  501  502  0.00000000000E+00  0.00000000000E+00  0.33032765016E+03  0.33032765016E+03  0.00000000000E+00 0. -1.
         21   -1    0    0  502  503 -0.00000000000E+00 -0.00000000000E+00 -0.72629420212E+03  0.72629420212E+03  0.00000000000E+00 0. -1.
    9000007    2    1    2  501    0  0.84564085707E+01  0.99640932908E+02 -0.48356887370E+03  0.63510792234E+03  0.39940379449E+03 0.  0.
    9000005    1    3    3    0    0  0.69999972211E+02  0.52228420602E+02 -0.53490557370E+03  0.54198964639E+03  0.99999687468E+00 0.  0.
          4    1    3    3  501    0 -0.61543563640E+02  0.47412512305E+02  0.51336699998E+02  0.93118275947E+02  0.00000000000E+00 0.  1.
   -9000007    1    1    2    0  503 -0.84564085707E+01 -0.99640932908E+02  0.87602321739E+02  0.42151392994E+03  0.40000000000E+03 0. -1.
<mgrwt>
<rscale>  2 0.41216568E+03</rscale>
<asrwt>0</asrwt>
<pdfrwt beam="1">  1       21 0.50819640E-01 0.41231035E+03</pdfrwt>
<pdfrwt beam="2">  1       21 0.11173757E+00 0.41231035E+03</pdfrwt>
<totfact> 0.20249292E+03</totfact>
</mgrwt>
</event>
<event>
 6    1  0.9163926E-004  0.4150088E+03  0.7818608E-02  0.1038819E+00
         21   -1    0    0  501  502  0.00000000000E+00  0.00000000000E+00  0.51472838395E+03  0.51472838395E+03  0.00000000000E+00 0.  1.
         21   -1    0    0  502  503 -0.00000000000E+00 -0.00000000000E+00 -0.34697421862E+03  0.34697421862E+03  0.00000000000E+00 0.  1.
    9000007    2    1    2  501    0 -0.49287540583E+02  0.99010136997E+02 -0.12414642927E+01  0.41360463146E+03  0.39854106569E+03 0.  0.
    9000005    1    3    3    0    0 -0.62844775579E+02  0.25170548949E+03  0.12196434854E+02  0.25972075827E+03  0.99999687468E+00 0.  0.
          4    1    3    3  501    0  0.13557234996E+02 -0.15269535250E+03 -0.13437899147E+02  0.15388387319E+03  0.00000000000E+00 0.  1.
   -9000007    1    1    2    0  503  0.49287540583E+02 -0.99010136997E+02  0.16899562962E+03  0.44809797111E+03  0.40000000000E+03 0. -1.
<mgrwt>
<rscale>  2 0.41465681E+03</rscale>
<asrwt>0</asrwt>
<pdfrwt beam="1">  1       21 0.79188982E-01 0.41500876E+03</pdfrwt>
<pdfrwt beam="2">  1       21 0.53380649E-01 0.41500876E+03</pdfrwt>
<totfact> 0.41477456E+03</totfact>
</mgrwt>
</event>
<event>
 6    1  0.9163926E-004  0.4140490E+03  0.7818608E-02  0.1039165E+00
         21   -1    0    0  501  502  0.00000000000E+00  0.00000000000E+00  0.36026119685E+03  0.36026119685E+03  0.00000000000E+00 0.  1.
         21   -1    0    0  502  503 -0.00000000000E+00 -0.00000000000E+00 -0.65850865234E+03  0.65850865234E+03  0.00000000000E+00 0. -1.
    9000007    2    1    2  501    0 -0.90339202146E+02  0.57230908624E+02  0.12082229569E+03  0.42965525533E+03  0.39820731152E+03 0.  0.
    9000005    1    3    3    0    0  0.14297409416E+03  0.92973228296E+02  0.15699365487E+02  0.17126903646E+03  0.99999687468E+00 0.  0.
          4    1    3    3  501    0 -0.23331329630E+03 -0.35742319673E+02  0.10512293021E+03  0.25838621887E+03  0.00000000000E+00 0.  1.
   -9000007    1    1    2    0  503  0.90339202146E+02 -0.57230908624E+02 -0.41906975119E+03  0.58911459387E+03  0.40000000000E+03 0. -1.
<mgrwt>
<rscale>  2 0.41361539E+03</rscale>
<asrwt>0</asrwt>
<pdfrwt beam="1">  1       21 0.55424801E-01 0.41404897E+03</pdfrwt>
<pdfrwt beam="2">  1       21 0.10130902E+00 0.41404897E+03</pdfrwt>
<totfact> 0.21384323E+03</totfact>
</mgrwt>
</event>
<event>
 6    1  0.9163926E-004  0.7344961E+03  0.7818608E-02  0.9660380E-01
         21   -1    0    0  501  502  0.00000000000E+00  0.00000000000E+00  0.19585593695E+04  0.19585593695E+04  0.00000000000E+00 0.  1.
         21   -1    0    0  502  503 -0.00000000000E+00 -0.00000000000E+00 -0.31292125373E+03  0.31292125373E+03  0.00000000000E+00 0. -1.
    9000007    2    1    2  501    0 -0.17360662615E+02 -0.61462981570E+03  0.42838714510E+03  0.85029410184E+03  0.40176275410E+03 0.  0.
    9000005    1    3    3    0    0 -0.24682072912E+02 -0.66869490572E+03  0.35103795010E+03  0.75563928171E+03  0.99999687468E+00 0.  0.
          4    1    3    3  501    0  0.73214102964E+01  0.54065090014E+02  0.77349194999E+02  0.94654820131E+02  0.00000000000E+00 0.  1.
   -9000007    1    1    2    0  503  0.17360662615E+02  0.61462981570E+03  0.12172509707E+04  0.14211865214E+04  0.40000000000E+03 0.  1.
<mgrwt>
<rscale>  2 0.73425530E+03</rscale>
<asrwt>0</asrwt>
<pdfrwt beam="1">  1       21 0.30131682E+00 0.73449609E+03</pdfrwt>
<pdfrwt beam="2">  1       21 0.48141733E-01 0.73449609E+03</pdfrwt>
<totfact> 0.93136761E+01</totfact>
</mgrwt>
</event>
<event>
 6    1  0.9163926E-004  0.4663225E+03  0.7818608E-02  0.1023004E+00
         21   -1    0    0  501  502  0.00000000000E+00  0.00000000000E+00  0.16855507299E+04  0.16855507299E+04  0.00000000000E+00 0. -1.
         21   -1    0    0  502  503 -0.00000000000E+00 -0.00000000000E+00 -0.26609210766E+03  0.26609210766E+03  0.00000000000E+00 0.  1.
    9000007    2    1    2  501    0 -0.21018543412E+03 -0.11292722531E+03  0.14107282116E+04  0.14858030636E+04  0.40065718741E+03 0.  0.
    9000005    1    3    3    0    0 -0.14036640540E+03 -0.12397512119E+03  0.20370423237E+03  0.27671099132E+03  0.99999687468E+00 0.  0.
          4    1    3    3  501    0 -0.69819028722E+02  0.11047895881E+02  0.12070239793E+04  0.12090920723E+04  0.00000000000E+00 0.  1.
   -9000007    1    1    2    0  503  0.21018543412E+03  0.11292722531E+03  0.87304106298E+01  0.46583977396E+03  0.40000000000E+03 0.  1.
<mgrwt>
<rscale>  2 0.46618129E+03</rscale>
<asrwt>0</asrwt>
<pdfrwt beam="1">  1       21 0.25931549E+00 0.46632248E+03</pdfrwt>
<pdfrwt beam="2">  1       21 0.40937248E-01 0.46632248E+03</pdfrwt>
<totfact> 0.26673122E+02</totfact>
</mgrwt>
</event>
<event>
 6    1  0.9163926E-004  0.5214574E+03  0.7818608E-02  0.1008337E+00
         21   -1    0    0  501  502  0.00000000000E+00  0.00000000000E+00  0.15900837682E+04  0.15900837682E+04  0.00000000000E+00 0. -1.
         21   -1    0    0  502  503 -0.00000000000E+00 -0.00000000000E+00 -0.22650565474E+03  0.22650565474E+03  0.00000000000E+00 0. -1.
    9000007    2    1    2  501    0  0.17875456463E+03 -0.28278009030E+03  0.11315400091E+04  0.12458360123E+04  0.39975843151E+03 0.  0.
    9000005    1    3    3    0    0  0.13162718954E+03 -0.14456457961E+03  0.10694165370E+04  0.10871418326E+04  0.99999687468E+00 0.  0.
          4    1    3    3  501    0  0.47127375088E+02 -0.13821551069E+03  0.62123472113E+02  0.15869417968E+03  0.00000000000E+00 0.  1.
   -9000007    1    1    2    0  503 -0.17875456463E+03  0.28278009030E+03  0.23203810435E+03  0.57075341060E+03  0.40000000000E+03 0. -1.
<mgrwt>
<rscale>  2 0.52141103E+03</rscale>
<asrwt>0</asrwt>
<pdfrwt beam="1">  1       21 0.24462826E+00 0.52145736E+03</pdfrwt>
<pdfrwt beam="2">  1       21 0.34847025E-01 0.52145736E+03</pdfrwt>
<totfact> 0.44452536E+02</totfact>
</mgrwt>
</event>
<event>
 6    1  0.9163926E-004  0.1293693E+04  0.7818608E-02  0.9034608E-01
         21   -1    0    0  501  502  0.00000000000E+00  0.00000000000E+00  0.18036407081E+04  0.18036407081E+04  0.00000000000E+00 0.  1.
         21   -1    0    0  502  503 -0.00000000000E+00 -0.00000000000E+00 -0.13188541925E+04  0.13188541925E+04  0.00000000000E+00 0. -1.
    9000007    2    1    2  501    0  0.10985151272E+04 -0.55368287484E+03  0.10925128211E+04  0.16932883120E+04  0.40042581429E+03 0.  0.
    9000005    1    3    3    0    0  0.36270923224E+03 -0.19978468693E+00  0.40844490028E+03  0.54624743809E+03  0.99999687468E+00 0.  0.
          4    1    3    3  501    0  0.73580589495E+03 -0.55348309016E+03  0.68406792086E+03  0.11470408739E+04  0.00000000000E+00 0.  1.
   -9000007    1    1    2    0  503 -0.10985151272E+04  0.55368287484E+03 -0.60772630554E+03  0.14292065886E+04  0.40000000000E+03 0. -1.
<mgrwt>
<rscale>  2 0.12936599E+04</rscale>
<asrwt>0</asrwt>
<pdfrwt beam="1">  1       21 0.27748319E+00 0.12936928E+04</pdfrwt>
<pdfrwt beam="2">  1       21 0.20290064E+00 0.12936928E+04</pdfrwt>
<totfact> 0.29043947E+00</totfact>
</mgrwt>
</event>
<event>
 6    1  0.9163926E-004  0.7754304E+03  0.7818608E-02  0.9596310E-01
         21   -1    0    0  501  502  0.00000000000E+00  0.00000000000E+00  0.43435365248E+03  0.43435365248E+03  0.00000000000E+00 0.  1.
         21   -1    0    0  502  503 -0.00000000000E+00 -0.00000000000E+00 -0.16383161085E+04  0.16383161085E+04  0.00000000000E+00 0.  1.
    9000007    2    1    2  501    0 -0.48164680653E+03  0.45750268294E+03 -0.19379278834E+03  0.79919612222E+03  0.39983302243E+03 0.  0.
    9000005    1    3    3    0    0 -0.40511965881E+03  0.12399332706E+03 -0.44951490986E+02  0.42604919862E+03  0.99999687468E+00 0.  0.
          4    1    3    3  501    0 -0.76527147721E+02  0.33350935588E+03 -0.14884129736E+03  0.37314692361E+03  0.00000000000E+00 0.  1.
   -9000007    1    1    2    0  503  0.48164680653E+03 -0.45750268294E+03 -0.10101696677E+04  0.12734736388E+04  0.40000000000E+03 0.  1.
<mgrwt>
<rscale>  2 0.77540890E+03</rscale>
<asrwt>0</asrwt>
<pdfrwt beam="1">  1       21 0.66823639E-01 0.77543043E+03</pdfrwt>
<pdfrwt beam="2">  1       21 0.25204863E+00 0.77543043E+03</pdfrwt>
<totfact> 0.90145575E+01</totfact>
</mgrwt>
</event>
<event>
 6    1  0.9163926E-004  0.4615557E+03  0.7818608E-02  0.1024356E+00
         21   -1    0    0  501  502  0.00000000000E+00  0.00000000000E+00  0.65844873643E+03  0.65844873643E+03  0.00000000000E+00 0.  1.
         21   -1    0    0  502  503 -0.00000000000E+00 -0.00000000000E+00 -0.39071916077E+03  0.39071916077E+03  0.00000000000E+00 0. -1.
    9000007    2    1    2  501    0 -0.14876403348E+03  0.17488803802E+03  0.35181798640E+03  0.58035298242E+03  0.40039621021E+03 0.  0.
    9000005    1    3    3    0    0 -0.15083730245E+03  0.20479424597E+03  0.28831395061E+02  0.25597817159E+03  0.99999687468E+00 0.  0.
          4    1    3    3  501    0  0.20732689756E+01 -0.29906207957E+02  0.32298659134E+03  0.32437481083E+03  0.00000000000E+00 0.  1.
   -9000007    1    1    2    0  503  0.14876403348E+03 -0.17488803802E+03 -0.84088410735E+02  0.46881491478E+03  0.40000000000E+03 0. -1.
<mgrwt>
<rscale>  2 0.46146979E+03</rscale>
<asrwt>0</asrwt>
<pdfrwt beam="1">  1       21 0.10129981E+00 0.46155573E+03</pdfrwt>
<pdfrwt beam="2">  1       21 0.60110640E-01 0.46155573E+03</pdfrwt>
<totfact> 0.17598059E+03</totfact>
</mgrwt>
</event>
<event>
 6    1  0.9163926E-004  0.4726939E+03  0.7818608E-02  0.1021177E+00
         21   -1    0    0  501  502  0.00000000000E+00  0.00000000000E+00  0.26509582225E+03  0.26509582225E+03  0.00000000000E+00 0.  1.
         21   -1    0    0  502  503 -0.00000000000E+00 -0.00000000000E+00 -0.14081632720E+04  0.14081632720E+04  0.00000000000E+00 0.  1.
    9000007    2    1    2  501    0 -0.24359446712E+03 -0.64040869627E+02 -0.41203645112E+02  0.47428313896E+03  0.39975900007E+03 0.  0.
    9000005    1    3    3    0    0 -0.31255158901E+03 -0.61771377648E+02 -0.14468294095E+03  0.34991192075E+03  0.99999687468E+00 0.  0.
          4    1    3    3  501    0  0.68957121887E+02 -0.22694919798E+01  0.10347929583E+03  0.12437121821E+03  0.00000000000E+00 0.  1.
   -9000007    1    1    2    0  503  0.24359446712E+03  0.64040869627E+02 -0.11018638046E+04  0.11989759553E+04  0.40000000000E+03 0.  1.
<mgrwt>
<rscale>  2 0.47264288E+03</rscale>
<asrwt>0</asrwt>
<pdfrwt beam="1">  1       21 0.40783973E-01 0.47269387E+03</pdfrwt>
<pdfrwt beam="2">  1       21 0.21664050E+00 0.47269387E+03</pdfrwt>
<totfact> 0.49511276E+02</totfact>
</mgrwt>
</event>
<event>
 6    1  0.9163926E-004  0.4133620E+03  0.7818608E-02  0.1039803E+00
         21   -1    0    0  501  502  0.00000000000E+00  0.00000000000E+00  0.16269873850E+03  0.16269873850E+03  0.00000000000E+00 0.  1.
         21   -1    0    0  502  503 -0.00000000000E+00 -0.00000000000E+00 -0.12572510538E+04  0.12572510538E+04  0.00000000000E+00 0.  1.
    9000007    2    1    2  501    0  0.19651179556E+02  0.71084261017E+02 -0.25137670122E+03  0.48379582142E+03  0.40672965209E+03 0.  0.
    9000005    1    3    3    0    0 -0.58510713734E+02  0.13564852122E+02 -0.34426131871E+03  0.34946296569E+03  0.99999687468E+00 0.  0.
          4    1    3    3  501    0  0.78161893291E+02  0.57519408895E+02  0.92884617491E+02  0.13433285573E+03  0.00000000000E+00 0.  1.
   -9000007    1    1    2    0  503 -0.19651179556E+02 -0.71084261017E+02 -0.84317561411E+03  0.93615397091E+03  0.40000000000E+03 0.  1.
<mgrwt>
<rscale>  2 0.41169700E+03</rscale>
<asrwt>0</asrwt>
<pdfrwt beam="1">  1       21 0.25030575E-01 0.41336201E+03</pdfrwt>
<pdfrwt beam="2">  1       21 0.19342324E+00 0.41336201E+03</pdfrwt>
<totfact> 0.19249311E+03</totfact>
</mgrwt>
</event>
<event>
 6    1  0.9163926E-004  0.4814223E+03  0.7818608E-02  0.1018756E+00
         21   -1    0    0  501  502  0.00000000000E+00  0.00000000000E+00  0.34314108790E+03  0.34314108790E+03  0.00000000000E+00 0. -1.
         21   -1    0    0  502  503 -0.00000000000E+00 -0.00000000000E+00 -0.74539567757E+03  0.74539567757E+03  0.00000000000E+00 0. -1.
    9000007    2    1    2  501    0 -0.17758449897E+03 -0.20019343320E+03 -0.36817414499E+03  0.60606900314E+03  0.40019216703E+03 0.  0.
    9000005    1    3    3    0    0 -0.21821480850E+03 -0.30106587599E+03 -0.29951409034E+03  0.47746000318E+03  0.99999687468E+00 0.  0.
          4    1    3    3  501    0  0.40630309526E+02  0.10087244279E+03 -0.68660054651E+02  0.12860899996E+03  0.00000000000E+00 0.  1.
   -9000007    1    1    2    0  503  0.17758449897E+03  0.20019343320E+03 -0.34080444683E+02  0.48246776232E+03  0.40000000000E+03 0. -1.
<mgrwt>
<rscale>  2 0.48138237E+03</rscale>
<asrwt>0</asrwt>
<pdfrwt beam="1">  1       21 0.52790937E-01 0.48142230E+03</pdfrwt>
<pdfrwt beam="2">  1       21 0.11467626E+00 0.48142230E+03</pdfrwt>
<totfact> 0.17033707E+03</totfact>
</mgrwt>
</event>
<event>
 6    1  0.9163926E-004  0.4191408E+03  0.7818608E-02  0.1037407E+00
         21   -1    0    0  501  502  0.00000000000E+00  0.00000000000E+00  0.91736095567E+03  0.91736095567E+03  0.00000000000E+00 0. -1.
         21   -1    0    0  502  503 -0.00000000000E+00 -0.00000000000E+00 -0.32459672954E+03  0.32459672954E+03  0.00000000000E+00 0. -1.
    9000007    2    1    2  501    0 -0.12206270306E+03  0.12404576712E+02  0.69467853592E+03  0.81133058023E+03  0.40078156787E+03 0.  0.
    9000005    1    3    3    0    0 -0.13176963399E+03  0.16955824749E+03  0.57429181403E+03  0.61312749359E+03  0.99999687468E+00 0.  0.
          4    1    3    3  501    0  0.97069309298E+01 -0.15715367078E+03  0.12038672189E+03  0.19820308665E+03  0.00000000000E+00 0.  1.
   -9000007    1    1    2    0  503  0.12206270306E+03 -0.12404576712E+02 -0.10191430979E+03  0.43062710498E+03  0.40000000000E+03 0. -1.
<mgrwt>
<rscale>  2 0.41895390E+03</rscale>
<asrwt>0</asrwt>
<pdfrwt beam="1">  1       21 0.14113245E+00 0.41914084E+03</pdfrwt>
<pdfrwt beam="2">  1       21 0.49937959E-01 0.41914084E+03</pdfrwt>
<totfact> 0.11508545E+03</totfact>
</mgrwt>
</event>
<event>
 6    1  0.9163926E-004  0.4767571E+03  0.7818608E-02  0.1020480E+00
         21   -1    0    0  501  502  0.00000000000E+00  0.00000000000E+00  0.16119999888E+04  0.16119999888E+04  0.00000000000E+00 0.  1.
         21   -1    0    0  502  503 -0.00000000000E+00 -0.00000000000E+00 -0.17493498462E+03  0.17493498462E+03  0.00000000000E+00 0.  1.
    9000007    2    1    2  501    0 -0.23891114010E+03 -0.10108806697E+03  0.11189929746E+04  0.12138144397E+04  0.39230458415E+03 0.  0.
    9000005    1    3    3    0    0 -0.12638318617E+03 -0.22165202219E+03  0.92324666443E+03  0.95785579920E+03  0.99999687468E+00 0.  0.
          4    1    3    3  501    0 -0.11252795393E+03  0.12056395522E+03  0.19574631014E+03  0.25595864050E+03  0.00000000000E+00 0.  1.
   -9000007    1    1    2    0  503  0.23891114010E+03  0.10108806697E+03  0.31807202959E+03  0.57312053370E+03  0.40000000000E+03 0. -1.
<mgrwt>
<rscale>  2 0.47513943E+03</rscale>
<asrwt>0</asrwt>
<pdfrwt beam="1">  1       21 0.24799999E+00 0.47675710E+03</pdfrwt>
<pdfrwt beam="2">  1       21 0.26913076E-01 0.47675710E+03</pdfrwt>
<totfact> 0.72446531E+02</totfact>
</mgrwt>
</event>
<event>
 6    1  0.9163926E-004  0.5437053E+03  0.7818608E-02  0.1002995E+00
         21   -1    0    0  501  502  0.00000000000E+00  0.00000000000E+00  0.17440101416E+04  0.17440101416E+04  0.00000000000E+00 0. -1.
         21   -1    0    0  502  503 -0.00000000000E+00 -0.00000000000E+00 -0.41804364795E+03  0.41804364795E+03  0.00000000000E+00 0.  1.
    9000007    2    1    2  501    0 -0.16213243377E+03  0.32972134057E+03  0.14969524202E+04  0.15926336673E+04  0.40076472068E+03 0.  0.
    9000005    1    3    3    0    0 -0.21229738302E+03  0.28099211875E+03  0.62113433471E+03  0.71402773853E+03  0.99999687468E+00 0.  0.
          4    1    3    3  501    0  0.50164949248E+02  0.48729221816E+02  0.87581808549E+03  0.87860592876E+03  0.00000000000E+00 0.  1.
   -9000007    1    1    2    0  503  0.16213243377E+03 -0.32972134057E+03 -0.17098592658E+03  0.56942012222E+03  0.40000000000E+03 0.  1.
<mgrwt>
<rscale>  2 0.54356438E+03</rscale>
<asrwt>0</asrwt>
<pdfrwt beam="1">  1       21 0.26830925E+00 0.54370530E+03</pdfrwt>
<pdfrwt beam="2">  1       21 0.64314408E-01 0.54370530E+03</pdfrwt>
<totfact> 0.85692287E+01</totfact>
</mgrwt>
</event>
<event>
 6    1  0.9163926E-004  0.4175924E+03  0.7818608E-02  0.1037896E+00
         21   -1    0    0  501  502  0.00000000000E+00  0.00000000000E+00  0.39604564418E+03  0.39604564418E+03  0.00000000000E+00 0. -1.
         21   -1    0    0  502  503 -0.00000000000E+00 -0.00000000000E+00 -0.60471642269E+03  0.60471642269E+03  0.00000000000E+00 0. -1.
    9000007    2    1    2  501    0  0.11992852510E+03 -0.72501336208E+00  0.15706337951E+03  0.44565410340E+03  0.39944373561E+03 0.  0.
    9000005    1    3    3    0    0  0.24553464515E+03 -0.62722048595E+02  0.16973014228E+03  0.30500924337E+03  0.99999687468E+00 0.  0.
          4    1    3    3  501    0 -0.12560612005E+03  0.61997035233E+02 -0.12666762773E+02  0.14064486003E+03  0.00000000000E+00 0.  1.
   -9000007    1    1    2    0  503 -0.11992852510E+03  0.72501336208E+00 -0.36573415801E+03  0.55510796347E+03  0.40000000000E+03 0. -1.
<mgrwt>
<rscale>  2 0.41745909E+03</rscale>
<asrwt>0</asrwt>
<pdfrwt beam="1">  1       21 0.60930099E-01 0.41759236E+03</pdfrwt>
<pdfrwt beam="2">  1       21 0.93033296E-01 0.41759236E+03</pdfrwt>
<totfact> 0.21331651E+03</totfact>
</mgrwt>
</event>
<event>
 6    1  0.9163926E-004  0.5018494E+03  0.7818608E-02  0.1013300E+00
         21   -1    0    0  501  502  0.00000000000E+00  0.00000000000E+00  0.36035451992E+03  0.36035451992E+03  0.00000000000E+00 0. -1.
         21   -1    0    0  502  503 -0.00000000000E+00 -0.00000000000E+00 -0.81978564364E+03  0.81978564364E+03  0.00000000000E+00 0. -1.
    9000007    2    1    2  501    0 -0.17770646261E+02  0.30255081956E+03 -0.30673961031E+01  0.50181822954E+03  0.39994916214E+03 0.  0.
    9000005    1    3    3    0    0  0.18220832604E+03  0.19402757670E+03  0.43141333001E+02  0.26964559927E+03  0.99999687468E+00 0.  0.
          4    1    3    3  501    0 -0.19997897230E+03  0.10852324286E+03 -0.46208729104E+02  0.23217263028E+03  0.00000000000E+00 0.  1.
   -9000007    1    1    2    0  503  0.17770646261E+02 -0.30255081956E+03 -0.45636372761E+03  0.67832193401E+03  0.40000000000E+03 0. -1.
<mgrwt>
<rscale>  2 0.50183924E+03</rscale>
<asrwt>0</asrwt>
<pdfrwt beam="1">  1       21 0.55439158E-01 0.50184937E+03</pdfrwt>
<pdfrwt beam="2">  1       21 0.12612087E+00 0.50184937E+03</pdfrwt>
<totfact> 0.11938701E+03</totfact>
</mgrwt>
</event>
<event>
 6    1  0.9163926E-004  0.4599517E+03  0.7818608E-02  0.1024829E+00
         21   -1    0    0  501  502  0.00000000000E+00  0.00000000000E+00  0.54709525685E+03  0.54709525685E+03  0.00000000000E+00 0.  1.
         21   -1    0    0  502  503 -0.00000000000E+00 -0.00000000000E+00 -0.86651393720E+03  0.86651393720E+03  0.00000000000E+00 0. -1.
    9000007    2    1    2  501    0  0.18914395671E+03  0.12561905337E+03  0.36650425148E+03  0.58774852097E+03  0.39945885221E+03 0.  0.
    9000005    1    3    3    0    0 -0.95027465307E+02 -0.54157575928E+02  0.33250056168E+02  0.11432335029E+03  0.99999687468E+00 0.  0.
          4    1    3    3  501    0  0.28417142202E+03  0.17977662930E+03  0.33325419531E+03  0.47342517067E+03  0.00000000000E+00 0.  1.
   -9000007    1    1    2    0  503 -0.18914395671E+03 -0.12561905337E+03 -0.68592293184E+03  0.82586067308E+03  0.40000000000E+03 0. -1.
<mgrwt>
<rscale>  2 0.45983404E+03</rscale>
<asrwt>0</asrwt>
<pdfrwt beam="1">  1       21 0.84168501E-01 0.45995172E+03</pdfrwt>
<pdfrwt beam="2">  1       21 0.13330984E+00 0.45995172E+03</pdfrwt>
<totfact> 0.41147571E+02</totfact>
</mgrwt>
</event>
<event>
 6    1  0.9163926E-004  0.5993010E+03  0.7818608E-02  0.9906913E-01
         21   -1    0    0  501  502  0.00000000000E+00  0.00000000000E+00  0.22587696931E+04  0.22587696931E+04  0.00000000000E+00 0. -1.
         21   -1    0    0  502  503 -0.00000000000E+00 -0.00000000000E+00 -0.16204908874E+03  0.16204908874E+03  0.00000000000E+00 0.  1.
    9000007    2    1    2  501    0  0.15903649998E+03 -0.41697614828E+03  0.12148602903E+04  0.13545921033E+04  0.39984062417E+03 0.  0.
    9000005    1    3    3    0    0 -0.55135392785E+02  0.39996089539E+02  0.32057581827E+03  0.32773381572E+03  0.99999687468E+00 0.  0.
          4    1    3    3  501    0  0.21417189276E+03 -0.45697223782E+03  0.89428447202E+03  0.10268582875E+04  0.00000000000E+00 0.  1.
   -9000007    1    1    2    0  503 -0.15903649998E+03  0.41697614828E+03  0.88186031405E+03  0.10662266786E+04  0.40000000000E+03 0. -1.
<mgrwt>
<rscale>  2 0.59927443E+03</rscale>
<asrwt>0</asrwt>
<pdfrwt beam="1">  1       21 0.34750301E+00 0.59930102E+03</pdfrwt>
<pdfrwt beam="2">  1       21 0.24930631E-01 0.59930102E+03</pdfrwt>
<totfact> 0.19617944E+02</totfact>
</mgrwt>
</event>
<event>
 6    1  0.9163926E-004  0.4188354E+03  0.7818608E-02  0.1037477E+00
         21   -1    0    0  501  502  0.00000000000E+00  0.00000000000E+00  0.51701265986E+03  0.51701265986E+03  0.00000000000E+00 0.  1.
         21   -1    0    0  502  503 -0.00000000000E+00 -0.00000000000E+00 -0.33905797676E+03  0.33905797676E+03  0.00000000000E+00 0.  1.
    9000007    2    1    2  501    0  0.12215817130E+03  0.22370998114E+02  0.83280314126E+02  0.42666835844E+03  0.39960880496E+03 0.  0.
    9000005    1    3    3    0    0 -0.44541575140E+02  0.17975066073E+03  0.66627787362E+02  0.19681085842E+03  0.99999687468E+00 0.  0.
          4    1    3    3  501    0  0.16669974644E+03 -0.15737966262E+03  0.16652526764E+02  0.22985750002E+03  0.00000000000E+00 0.  1.
   -9000007    1    1    2    0  503 -0.12215817130E+03 -0.22370998114E+02  0.94674368976E+02  0.42940227819E+03  0.40000000000E+03 0.  1.
<mgrwt>
<rscale>  2 0.41874196E+03</rscale>
<asrwt>0</asrwt>
<pdfrwt beam="1">  1       21 0.79540409E-01 0.41883539E+03</pdfrwt>
<pdfrwt beam="2">  1       21 0.52162766E-01 0.41883539E+03</pdfrwt>
<totfact> 0.43076836E+03</totfact>
</mgrwt>
</event>
<event>
 6    1  0.9163926E-004  0.5740379E+03  0.7818608E-02  0.9964578E-01
         21   -1    0    0  501  502  0.00000000000E+00  0.00000000000E+00  0.65232477814E+03  0.65232477814E+03  0.00000000000E+00 0.  1.
         21   -1    0    0  502  503 -0.00000000000E+00 -0.00000000000E+00 -0.61585064727E+03  0.61585064727E+03  0.00000000000E+00 0.  1.
    9000007    2    1    2  501    0  0.38067316697E+03  0.12945796401E+03  0.29439096045E+03  0.64512445199E+03  0.40969268539E+03 0.  0.
    9000005    1    3    3    0    0 -0.28005574387E+02  0.40380577727E+02 -0.73272781222E+02  0.88231534703E+02  0.99999687468E+00 0.  0.
          4    1    3    3  501    0  0.40867874136E+03  0.89077386287E+02  0.36766374167E+03  0.55689291728E+03  0.00000000000E+00 0.  1.
   -9000007    1    1    2    0  503 -0.38067316697E+03 -0.12945796401E+03 -0.25791682958E+03  0.62305097342E+03  0.40000000000E+03 0.  1.
<mgrwt>
<rscale>  2 0.57231086E+03</rscale>
<asrwt>0</asrwt>
<pdfrwt beam="1">  1       21 0.10035766E+00 0.57403791E+03</pdfrwt>
<pdfrwt beam="2">  1       21 0.94746254E-01 0.57403791E+03</pdfrwt>
<totfact> 0.60893539E+02</totfact>
</mgrwt>
</event>
<event>
 6    1  0.9163926E-004  0.4992063E+03  0.7818608E-02  0.1014020E+00
         21   -1    0    0  501  502  0.00000000000E+00  0.00000000000E+00  0.28615085341E+03  0.28615085341E+03  0.00000000000E+00 0.  1.
         21   -1    0    0  502  503 -0.00000000000E+00 -0.00000000000E+00 -0.14376159697E+04  0.14376159697E+04  0.00000000000E+00 0. -1.
    9000007    2    1    2  501    0  0.98679866779E+02 -0.28190289802E+03 -0.33975845185E+02  0.49984311999E+03  0.39935175789E+03 0.  0.
    9000005    1    3    3    0    0 -0.12329918691E+03 -0.42916423595E+02 -0.10318096268E+03  0.16640859341E+03  0.99999687468E+00 0.  0.
          4    1    3    3  501    0  0.22197905369E+03 -0.23898647442E+03  0.69205117493E+02  0.33343452659E+03  0.00000000000E+00 0.  1.
   -9000007    1    1    2    0  503 -0.98679866779E+02  0.28190289802E+03 -0.11174892711E+04  0.12239237031E+04  0.40000000000E+03 0. -1.
<mgrwt>
<rscale>  2 0.49907646E+03</rscale>
<asrwt>0</asrwt>
<pdfrwt beam="1">  1       21 0.44023207E-01 0.49920633E+03</pdfrwt>
<pdfrwt beam="2">  1       21 0.22117169E+00 0.49920633E+03</pdfrwt>
<totfact> 0.38996930E+02</totfact>
</mgrwt>
</event>
<event>
 6    1  0.9163926E-004  0.4203490E+03  0.7818608E-02  0.1036961E+00
         21   -1    0    0  501  502  0.00000000000E+00  0.00000000000E+00  0.48095816809E+03  0.48095816809E+03  0.00000000000E+00 0.  1.
         21   -1    0    0  502  503 -0.00000000000E+00 -0.00000000000E+00 -0.53453223794E+03  0.53453223794E+03  0.00000000000E+00 0.  1.
    9000007    2    1    2  501    0  0.12386529950E+03  0.36751742207E+02  0.25722631217E+03  0.49271877287E+03  0.39989137336E+03 0.  0.
    9000005    1    3    3    0    0  0.65428795233E+01 -0.16101335422E+03  0.20081344707E+02  0.16239572010E+03  0.99999687468E+00 0.  0.
          4    1    3    3  501    0  0.11732241998E+03  0.19776509643E+03  0.23714496747E+03  0.33032305277E+03  0.00000000000E+00 0.  1.
   -9000007    1    1    2    0  503 -0.12386529950E+03 -0.36751742207E+02 -0.31080038202E+03  0.52277163316E+03  0.40000000000E+03 0.  1.
<mgrwt>
<rscale>  2 0.42032318E+03</rscale>
<asrwt>0</asrwt>
<pdfrwt beam="1">  1       21 0.73993564E-01 0.42034903E+03</pdfrwt>
<pdfrwt beam="2">  1       21 0.82235729E-01 0.42034903E+03</pdfrwt>
<totfact> 0.18457440E+03</totfact>
</mgrwt>
</event>
<event>
 6    1  0.9163926E-004  0.4440444E+03  0.7818608E-02  0.1029556E+00
         21   -1    0    0  501  502  0.00000000000E+00  0.00000000000E+00  0.46422182875E+03  0.46422182875E+03  0.00000000000E+00 0. -1.
         21   -1    0    0  502  503 -0.00000000000E+00 -0.00000000000E+00 -0.13743554105E+04  0.13743554105E+04  0.00000000000E+00 0. -1.
    9000007    2    1    2  501    0 -0.18587275334E+03  0.46087490926E+02  0.30920562749E+03  0.54109473670E+03  0.40062782824E+03 0.  0.
    9000005    1    3    3    0    0  0.49016889050E+02 -0.98807919677E+02  0.22821148187E+03  0.25347019717E+03  0.99999687468E+00 0.  0.
          4    1    3    3  501    0 -0.23488964239E+03  0.14489541060E+03  0.80994145623E+02  0.28762453953E+03  0.00000000000E+00 0.  1.
   -9000007    1    1    2    0  503  0.18587275334E+03 -0.46087490926E+02 -0.12193392092E+04  0.12974825025E+04  0.40000000000E+03 0. -1.
<mgrwt>
<rscale>  2 0.44390270E+03</rscale>
<asrwt>0</asrwt>
<pdfrwt beam="1">  1       21 0.71418744E-01 0.44404436E+03</pdfrwt>
<pdfrwt beam="2">  1       21 0.21143929E+00 0.44404436E+03</pdfrwt>
<totfact> 0.16216284E+02</totfact>
</mgrwt>
</event>
<event>
 6    1  0.9163926E-004  0.4000924E+03  0.7818608E-02  0.1043813E+00
         21   -1    0    0  501  502  0.00000000000E+00  0.00000000000E+00  0.20572942741E+03  0.20572942741E+03  0.00000000000E+00 0.  1.
         21   -1    0    0  502  503 -0.00000000000E+00 -0.00000000000E+00 -0.12776564008E+04  0.12776564008E+04  0.00000000000E+00 0.  1.
    9000007    2    1    2  501    0  0.32223420942E+01  0.79735730518E+01 -0.71183070092E+02  0.40562782135E+03  0.39924045214E+03 0.  0.
    9000005    1    3    3    0    0 -0.16548698701E+03 -0.25840248873E+02 -0.14197320585E+03  0.21957015395E+03  0.99999687468E+00 0.  0.
          4    1    3    3  501    0  0.16870932910E+03  0.33813821925E+02  0.70790135760E+02  0.18605766740E+03  0.00000000000E+00 0.  1.
   -9000007    1    1    2    0  503 -0.32223420942E+01 -0.79735730518E+01 -0.10007439033E+04  0.10777580068E+04  0.40000000000E+03 0.  1.
<mgrwt>
<rscale>  2 0.39990246E+03</rscale>
<asrwt>0</asrwt>
<pdfrwt beam="1">  1       21 0.31650681E-01 0.40009244E+03</pdfrwt>
<pdfrwt beam="2">  1       21 0.19656253E+00 0.40009244E+03</pdfrwt>
<totfact> 0.11628975E+03</totfact>
</mgrwt>
</event>
<event>
 6    1  0.9163926E-004  0.4224094E+03  0.7818608E-02  0.1036827E+00
         21   -1    0    0  501  502  0.00000000000E+00  0.00000000000E+00  0.12592997839E+04  0.12592997839E+04  0.00000000000E+00 0. -1.
         21   -1    0    0  502  503 -0.00000000000E+00 -0.00000000000E+00 -0.21534019925E+03  0.21534019925E+03  0.00000000000E+00 0. -1.
    9000007    2    1    2  501    0 -0.11766502046E+03 -0.67709957665E+02  0.95695154424E+03  0.10433627005E+04  0.39296281171E+03 0.  0.
    9000005    1    3    3    0    0 -0.17448167959E+03  0.12300116363E+03  0.56033795168E+03  0.59962718655E+03  0.99999687468E+00 0.  0.
          4    1    3    3  501    0  0.56816659134E+02 -0.19071112130E+03  0.39661359256E+03  0.44373551396E+03  0.00000000000E+00 0.  1.
   -9000007    1    1    2    0  503  0.11766502046E+03  0.67709957665E+02  0.87008040377E+02  0.43127728261E+03  0.40000000000E+03 0. -1.
<mgrwt>
<rscale>  2 0.42073504E+03</rscale>
<asrwt>0</asrwt>
<pdfrwt beam="1">  1       21 0.19373842E+00 0.42240939E+03</pdfrwt>
<pdfrwt beam="2">  1       21 0.33129262E-01 0.42240939E+03</pdfrwt>
<totfact> 0.10966366E+03</totfact>
</mgrwt>
</event>
<event>
 6    1  0.9163926E-004  0.5122758E+03  0.7818608E-02  0.1010804E+00
         21   -1    0    0  501  502  0.00000000000E+00  0.00000000000E+00  0.42200745025E+03  0.42200745025E+03  0.00000000000E+00 0.  1.
         21   -1    0    0  502  503 -0.00000000000E+00 -0.00000000000E+00 -0.15183007478E+04  0.15183007478E+04  0.00000000000E+00 0.  1.
    9000007    2    1    2  501    0  0.14606040667E+02  0.31970798808E+03  0.19936829268E+03  0.54705104646E+03  0.39634656205E+03 0.  0.
    9000005    1    3    3    0    0 -0.67804431515E+02 -0.45387322438E+02 -0.51482201390E+02  0.96482470040E+02  0.99999687468E+00 0.  0.
          4    1    3    3  501    0  0.82410472182E+02  0.36509531051E+03  0.25085049407E+03  0.45056857642E+03  0.00000000000E+00 0.  1.
   -9000007    1    1    2    0  503 -0.14606040667E+02 -0.31970798808E+03 -0.12956615902E+04  0.13932571515E+04  0.40000000000E+03 0.  1.
<mgrwt>
<rscale>  2 0.51156245E+03</rscale>
<asrwt>0</asrwt>
<pdfrwt beam="1">  1       21 0.64924222E-01 0.51227584E+03</pdfrwt>
<pdfrwt beam="2">  1       21 0.23358473E+00 0.51227584E+03</pdfrwt>
<totfact> 0.13981843E+02</totfact>
</mgrwt>
</event>
<event>
 6    1  0.9163926E-004  0.4078119E+03  0.7818608E-02  0.1041115E+00
         21   -1    0    0  501  502  0.00000000000E+00  0.00000000000E+00  0.17593751550E+04  0.17593751550E+04  0.00000000000E+00 0. -1.
         21   -1    0    0  502  503 -0.00000000000E+00 -0.00000000000E+00 -0.11287893895E+03  0.11287893895E+03  0.00000000000E+00 0. -1.
    9000007    2    1    2  501    0 -0.60726313030E+02  0.50511030532E+02  0.44566705387E+03  0.60409411742E+03  0.40008940314E+03 0.  0.
    9000005    1    3    3    0    0 -0.48864512886E+02 -0.17514020292E+03  0.19595687244E+03  0.26732363747E+03  0.99999687468E+00 0.  0.
          4    1    3    3  501    0 -0.11861800144E+02  0.22565123345E+03  0.24971018143E+03  0.33677047996E+03  0.00000000000E+00 0.  1.
   -9000007    1    1    2    0  503  0.60726313030E+02 -0.50511030532E+02  0.12008291621E+04  0.12681599765E+04  0.40000000000E+03 0. -1.
<mgrwt>
<rscale>  2 0.40779001E+03</rscale>
<asrwt>0</asrwt>
<pdfrwt beam="1">  1       21 0.27067308E+00 0.40781194E+03</pdfrwt>
<pdfrwt beam="2">  1       21 0.17365992E-01 0.40781194E+03</pdfrwt>
<totfact> 0.12653301E+03</totfact>
</mgrwt>
</event>
<event>
 6    1  0.9163926E-004  0.4196182E+03  0.7818608E-02  0.1037196E+00
         21   -1    0    0  501  502  0.00000000000E+00  0.00000000000E+00  0.10558718153E+04  0.10558718153E+04  0.00000000000E+00 0. -1.
         21   -1    0    0  502  503 -0.00000000000E+00 -0.00000000000E+00 -0.25620491638E+03  0.25620491638E+03  0.00000000000E+00 0. -1.
    9000007    2    1    2  501    0  0.77065715538E+02 -0.10069899295E+03  0.78749416226E+03  0.89228203515E+03  0.39992594684E+03 0.  0.
    9000005    1    3    3    0    0 -0.15886273046E+03  0.56510716227E+00  0.36205609844E+03  0.39537742081E+03  0.99999687468E+00 0.  0.
          4    1    3    3  501    0  0.23592844600E+03 -0.10126410012E+03  0.42543806382E+03  0.49690461434E+03  0.00000000000E+00 0.  1.
   -9000007    1    1    2    0  503 -0.77065715538E+02  0.10069899295E+03  0.12172736627E+02  0.41979469650E+03  0.40000000000E+03 0. -1.
<mgrwt>
<rscale>  2 0.41960052E+03</rscale>
<asrwt>0</asrwt>
<pdfrwt beam="1">  1       21 0.16244182E+00 0.41961817E+03</pdfrwt>
<pdfrwt beam="2">  1       21 0.39416142E-01 0.41961817E+03</pdfrwt>
<totfact> 0.12858490E+03</totfact>
</mgrwt>
</event>
<event>
 6    1  0.9163926E-004  0.4467003E+03  0.7818608E-02  0.1028884E+00
         21   -1    0    0  501  502  0.00000000000E+00  0.00000000000E+00  0.10417191075E+03  0.10417191075E+03  0.00000000000E+00 0.  1.
         21   -1    0    0  502  503 -0.00000000000E+00 -0.00000000000E+00 -0.23791365853E+04  0.23791365853E+04  0.00000000000E+00 0.  1.
    9000007    2    1    2  501    0 -0.11190290351E+03  0.16437431632E+03 -0.16890424768E+04  0.17465276619E+04  0.39743327721E+03 0.  0.
    9000005    1    3    3    0    0  0.55580552313E+02  0.11540335112E+02 -0.17118309168E+02  0.59299356088E+02  0.99999687468E+00 0.  0.
          4    1    3    3  501    0 -0.16748345582E+03  0.15283398121E+03 -0.16719241676E+04  0.16872283059E+04  0.00000000000E+00 0.  1.
   -9000007    1    1    2    0  503  0.11190290351E+03 -0.16437431632E+03 -0.58592219774E+03  0.73678083409E+03  0.40000000000E+03 0.  1.
<mgrwt>
<rscale>  2 0.44612498E+03</rscale>
<asrwt>0</asrwt>
<pdfrwt beam="1">  1       21 0.16026448E-01 0.44670032E+03</pdfrwt>
<pdfrwt beam="2">  1       21 0.36602100E+00 0.44670032E+03</pdfrwt>
<totfact> 0.38043753E+02</totfact>
</mgrwt>
</event>
<event>
 6    1  0.9163926E-004  0.4146966E+03  0.7818608E-02  0.1038855E+00
         21   -1    0    0  501  502  0.00000000000E+00  0.00000000000E+00  0.88929982076E+03  0.88929982076E+03  0.00000000000E+00 0. -1.
         21   -1    0    0  502  503 -0.00000000000E+00 -0.00000000000E+00 -0.25008317061E+03  0.25008317061E+03  0.00000000000E+00 0. -1.
    9000007    2    1    2  501    0 -0.10889555207E+03  0.10727004893E+02  0.59135188377E+03  0.72193317911E+03  0.39939598742E+03 0.  0.
    9000005    1    3    3    0    0 -0.18586907065E+03 -0.64587999673E+01  0.61263483375E+03  0.64024328738E+03  0.99999687468E+00 0.  0.
          4    1    3    3  501    0  0.76973518580E+02  0.17185804860E+02 -0.21282949976E+02  0.81689891730E+02  0.00000000000E+00 0.  1.
   -9000007    1    1    2    0  503  0.10889555207E+03 -0.10727004893E+02  0.47864766376E+02  0.41744981226E+03  0.40000000000E+03 0. -1.
<mgrwt>
<rscale>  2 0.41455093E+03</rscale>
<asrwt>0</asrwt>
<pdfrwt beam="1">  1       21 0.13681536E+00 0.41469665E+03</pdfrwt>
<pdfrwt beam="2">  1       21 0.38474334E-01 0.41469665E+03</pdfrwt>
<totfact> 0.21558922E+03</totfact>
</mgrwt>
</event>
<event>
 6    1  0.9163926E-004  0.4056355E+03  0.7818608E-02  0.1042286E+00
         21   -1    0    0  501  502  0.00000000000E+00  0.00000000000E+00  0.10598073446E+03  0.10598073446E+03  0.00000000000E+00 0.  1.
         21   -1    0    0  502  503 -0.00000000000E+00 -0.00000000000E+00 -0.16417599167E+04  0.16417599167E+04  0.00000000000E+00 0.  1.
    9000007    2    1    2  501    0 -0.67243042641E+02  0.43008429050E+01 -0.53832190589E+03  0.67095787726E+03  0.39478332623E+03 0.  0.
    9000005    1    3    3    0    0 -0.26095467863E+02 -0.81510680403E+02  0.33022996798E+02  0.91741390735E+02  0.99999687468E+00 0.  0.
          4    1    3    3  501    0 -0.41147574778E+02  0.85811523308E+02 -0.57134490268E+03  0.57921648653E+03  0.00000000000E+00 0.  1.
   -9000007    1    1    2    0  503  0.67243042641E+02 -0.43008429050E+01 -0.99745727640E+03  0.10767827739E+04  0.40000000000E+03 0.  1.
<mgrwt>
<rscale>  2 0.40434348E+03</rscale>
<asrwt>0</asrwt>
<pdfrwt beam="1">  1       21 0.16304727E-01 0.40563546E+03</pdfrwt>
<pdfrwt beam="2">  1       21 0.25257847E+00 0.40563546E+03</pdfrwt>
<totfact> 0.18344861E+03</totfact>
</mgrwt>
</event>
<event>
 6    1  0.9163926E-004  0.4414887E+03  0.7818608E-02  0.1030360E+00
         21   -1    0    0  501  502  0.00000000000E+00  0.00000000000E+00  0.18119598142E+03  0.18119598142E+03  0.00000000000E+00 0.  1.
         21   -1    0    0  502  503 -0.00000000000E+00 -0.00000000000E+00 -0.11480230475E+04  0.11480230475E+04  0.00000000000E+00 0.  1.
    9000007    2    1    2  501    0  0.18105780400E+03 -0.46155397608E+02 -0.31360719474E+03  0.54079753669E+03  0.39899906513E+03 0.  0.
    9000005    1    3    3    0    0  0.74884544852E+02  0.17258445029E+03 -0.82797416750E+02  0.20554683105E+03  0.99999687468E+00 0.  0.
          4    1    3    3  501    0  0.10617325915E+03 -0.21873984789E+03 -0.23080977799E+03  0.33525070564E+03  0.00000000000E+00 0.  1.
   -9000007    1    1    2    0  503 -0.18105780400E+03  0.46155397608E+02 -0.65321987135E+03  0.78842149225E+03  0.40000000000E+03 0.  1.
<mgrwt>
<rscale>  2 0.44126183E+03</rscale>
<asrwt>0</asrwt>
<pdfrwt beam="1">  1       21 0.27876305E-01 0.44148867E+03</pdfrwt>
<pdfrwt beam="2">  1       21 0.17661893E+00 0.44148867E+03</pdfrwt>
<totfact> 0.20140697E+03</totfact>
</mgrwt>
</event>
<event>
 6    1  0.9163926E-004  0.5650917E+03  0.7818608E-02  0.9980813E-01
         21   -1    0    0  501  502  0.00000000000E+00  0.00000000000E+00  0.30759483117E+03  0.30759483117E+03  0.00000000000E+00 0.  1.
         21   -1    0    0  502  503 -0.00000000000E+00 -0.00000000000E+00 -0.20976891265E+04  0.20976891265E+04  0.00000000000E+00 0.  1.
    9000007    2    1    2  501    0 -0.34407175640E+03  0.20234448497E+03 -0.39892290473E+02  0.56611683042E+03  0.39945989372E+03 0.  0.
    9000005    1    3    3    0    0  0.79035808532E+02  0.90519107563E+02 -0.45357353183E+02  0.12844709941E+03  0.99999687468E+00 0.  0.
          4    1    3    3  501    0 -0.42310756493E+03  0.11182537741E+03  0.54650627104E+01  0.43766973101E+03  0.00000000000E+00 0.  1.
   -9000007    1    1    2    0  503  0.34407175640E+03 -0.20234448497E+03 -0.17502020048E+04  0.18391671272E+04  0.40000000000E+03 0.  1.
<mgrwt>
<rscale>  2 0.56499616E+03</rscale>
<asrwt>0</asrwt>
<pdfrwt beam="1">  1       21 0.47322282E-01 0.56509173E+03</pdfrwt>
<pdfrwt beam="2">  1       21 0.32272140E+00 0.56509173E+03</pdfrwt>
<totfact> 0.77011936E+01</totfact>
</mgrwt>
</event>
<event>
 6    1  0.9163926E-004  0.4515694E+03  0.7818608E-02  0.1027267E+00
         21   -1    0    0  501  502  0.00000000000E+00  0.00000000000E+00  0.52947016385E+03  0.52947016385E+03  0.00000000000E+00 0.  1.
         21   -1    0    0  502  503 -0.00000000000E+00 -0.00000000000E+00 -0.49539990432E+03  0.49539990432E+03  0.00000000000E+00 0.  1.
    9000007    2    1    2  501    0  0.17394554883E+03  0.11686684638E+03  0.25894279825E+03  0.52040741107E+03  0.39982194411E+03 0.  0.
    9000005    1    3    3    0    0  0.70666804600E+01  0.23998417877E+03  0.17299110007E+03  0.29592104476E+03  0.99999687468E+00 0.  0.
          4    1    3    3  501    0  0.16687886837E+03 -0.12311733239E+03  0.85951698179E+02  0.22448636631E+03  0.00000000000E+00 0.  1.
   -9000007    1    1    2    0  503 -0.17394554883E+03 -0.11686684638E+03 -0.22487253871E+03  0.50446265710E+03  0.40000000000E+03 0.  1.
<mgrwt>
<rscale>  2 0.45152996E+03</rscale>
<asrwt>0</asrwt>
<pdfrwt beam="1">  1       21 0.81456948E-01 0.45156939E+03</pdfrwt>
<pdfrwt beam="2">  1       21 0.76215370E-01 0.45156939E+03</pdfrwt>
<totfact> 0.17423681E+03</totfact>
</mgrwt>
</event>
<event>
 6    1  0.9163926E-004  0.4869909E+03  0.7818608E-02  0.1017244E+00
         21   -1    0    0  501  502  0.00000000000E+00  0.00000000000E+00  0.99382029666E+03  0.99382029666E+03  0.00000000000E+00 0. -1.
         21   -1    0    0  502  503 -0.00000000000E+00 -0.00000000000E+00 -0.23943661089E+03  0.23943661089E+03  0.00000000000E+00 0.  1.
    9000007    2    1    2  501    0 -0.88533757318E+02 -0.26329057327E+03  0.41476689213E+03  0.63954004012E+03  0.39977460643E+03 0.  0.
    9000005    1    3    3    0    0 -0.18048806314E+01 -0.26343541049E+03  0.46851819464E+03  0.53750513653E+03  0.99999687468E+00 0.  0.
          4    1    3    3  501    0 -0.86728876686E+02  0.14483722445E+00 -0.53751302504E+02  0.10203490359E+03  0.00000000000E+00 0.  1.
   -9000007    1    1    2    0  503  0.88533757318E+02  0.26329057327E+03  0.33961679364E+03  0.59371686743E+03  0.40000000000E+03 0.  1.
<mgrwt>
<rscale>  2 0.48694463E+03</rscale>
<asrwt>0</asrwt>
<pdfrwt beam="1">  1       21 0.15289543E+00 0.48699092E+03</pdfrwt>
<pdfrwt beam="2">  1       21 0.36836402E-01 0.48699092E+03</pdfrwt>
<totfact> 0.16986335E+03</totfact>
</mgrwt>
</event>
<event>
 6    1  0.9163926E-004  0.4481629E+03  0.7818608E-02  0.1028284E+00
         21   -1    0    0  501  502  0.00000000000E+00  0.00000000000E+00  0.30229787571E+03  0.30229787571E+03  0.00000000000E+00 0. -1.
         21   -1    0    0  502  503 -0.00000000000E+00 -0.00000000000E+00 -0.14624831218E+04  0.14624831218E+04  0.00000000000E+00 0.  1.
    9000007    2    1    2  501    0  0.70208925049E+01  0.20199171634E+03  0.71891977672E+02  0.45372637175E+03  0.39981147753E+03 0.  0.
    9000005    1    3    3    0    0 -0.19544872589E+03  0.11469054019E+03  0.50718783300E+02  0.23222299505E+03  0.99999687468E+00 0.  0.
          4    1    3    3  501    0  0.20246961839E+03  0.87301176151E+02  0.21173194371E+02  0.22150337670E+03  0.00000000000E+00 0.  1.
   -9000007    1    1    2    0  503 -0.70208925049E+01 -0.20199171634E+03 -0.12320772237E+04  0.13110546257E+04  0.40000000000E+03 0.  1.
<mgrwt>
<rscale>  2 0.44812079E+03</rscale>
<asrwt>0</asrwt>
<pdfrwt beam="1">  1       21 0.46507366E-01 0.44816286E+03</pdfrwt>
<pdfrwt beam="2">  1       21 0.22499740E+00 0.44816286E+03</pdfrwt>
<totfact> 0.33705702E+02</totfact>
</mgrwt>
</event>
<event>
 6    1  0.9163926E-004  0.5786510E+03  0.7818608E-02  0.9951067E-01
         21   -1    0    0  501  502  0.00000000000E+00  0.00000000000E+00  0.79055728877E+03  0.79055728877E+03  0.00000000000E+00 0. -1.
         21   -1    0    0  502  503 -0.00000000000E+00 -0.00000000000E+00 -0.68373370511E+03  0.68373370511E+03  0.00000000000E+00 0.  1.
    9000007    2    1    2  501    0  0.41227525705E+03 -0.69757514681E+02  0.50853622183E+03  0.76986921533E+03  0.39906455789E+03 0.  0.
    9000005    1    3    3    0    0  0.21212092310E+03 -0.14204036290E+03  0.49461135515E+03  0.55660771047E+03  0.99999687468E+00 0.  0.
          4    1    3    3  501    0  0.20015433394E+03  0.72282848223E+02  0.13924866681E+02  0.21326150486E+03  0.00000000000E+00 0.  1.
   -9000007    1    1    2    0  503 -0.41227525705E+03  0.69757514681E+02 -0.40171263817E+03  0.70442177855E+03  0.40000000000E+03 0.  1.
<mgrwt>
<rscale>  2 0.57848939E+03</rscale>
<asrwt>0</asrwt>
<pdfrwt beam="1">  1       21 0.12162420E+00 0.57865102E+03</pdfrwt>
<pdfrwt beam="2">  1       21 0.10518980E+00 0.57865102E+03</pdfrwt>
<totfact> 0.29094527E+02</totfact>
</mgrwt>
</event>
<event>
 6    1  0.9163926E-004  0.4162976E+03  0.7818608E-02  0.1038457E+00
         21   -1    0    0  501  502  0.00000000000E+00  0.00000000000E+00  0.40945960041E+03  0.40945960041E+03  0.00000000000E+00 0.  1.
         21   -1    0    0  502  503 -0.00000000000E+00 -0.00000000000E+00 -0.61003268712E+03  0.61003268712E+03  0.00000000000E+00 0.  1.
    9000007    2    1    2  501    0  0.10715367930E+03 -0.42682455268E+02  0.18361612575E+03  0.45300746518E+03  0.39774008963E+03 0.  0.
    9000005    1    3    3    0    0 -0.98193541213E+02 -0.12098281199E+03  0.17322187287E+03  0.23299276720E+03  0.99999687468E+00 0.  0.
          4    1    3    3  501    0  0.20534722052E+03  0.78300356719E+02  0.10394252874E+02  0.22001469798E+03  0.00000000000E+00 0.  1.
   -9000007    1    1    2    0  503 -0.10715367930E+03  0.42682455268E+02 -0.38418921246E+03  0.56648482235E+03  0.40000000000E+03 0.  1.
<mgrwt>
<rscale>  2 0.41575381E+03</rscale>
<asrwt>0</asrwt>
<pdfrwt beam="1">  1       21 0.62993785E-01 0.41629761E+03</pdfrwt>
<pdfrwt beam="2">  1       21 0.93851182E-01 0.41629761E+03</pdfrwt>
<totfact> 0.19425222E+03</totfact>
</mgrwt>
</event>
<event>
 6    1  0.9163926E-004  0.4934161E+03  0.7818608E-02  0.1015525E+00
         21   -1    0    0  501  502  0.00000000000E+00  0.00000000000E+00  0.84374152188E+03  0.84374152188E+03  0.00000000000E+00 0.  1.
         21   -1    0    0  502  503 -0.00000000000E+00 -0.00000000000E+00 -0.64539133216E+03  0.64539133216E+03  0.00000000000E+00 0. -1.
    9000007    2    1    2  501    0 -0.28522785372E+03 -0.45874949777E+02  0.65290067547E+03  0.81825612642E+03  0.39975537123E+03 0.  0.
    9000005    1    3    3    0    0 -0.56772665586E+02 -0.15312199238E+03  0.49334627842E+03  0.51967396561E+03  0.99999687468E+00 0.  0.
          4    1    3    3  501    0 -0.22845518813E+03  0.10724704260E+03  0.15955439705E+03  0.29858216081E+03  0.00000000000E+00 0.  1.
   -9000007    1    1    2    0  503  0.28522785372E+03  0.45874949777E+02 -0.45455048576E+03  0.67087672762E+03  0.40000000000E+03 0. -1.
<mgrwt>
<rscale>  2 0.49336651E+03</rscale>
<asrwt>0</asrwt>
<pdfrwt beam="1">  1       21 0.12980639E+00 0.49341609E+03</pdfrwt>
<pdfrwt beam="2">  1       21 0.99290974E-01 0.49341609E+03</pdfrwt>
<totfact> 0.29313624E+02</totfact>
</mgrwt>
</event>
<event>
 6    1  0.9163926E-004  0.4129219E+03  0.7818608E-02  0.1039463E+00
         21   -1    0    0  501  502  0.00000000000E+00  0.00000000000E+00  0.59328126656E+03  0.59328126656E+03  0.00000000000E+00 0. -1.
         21   -1    0    0  502  503 -0.00000000000E+00 -0.00000000000E+00 -0.64912519225E+03  0.64912519225E+03  0.00000000000E+00 0. -1.
    9000007    2    1    2  501    0  0.21183767426E+02 -0.10027844983E+03  0.43618141105E+03  0.60007208210E+03  0.39915881660E+03 0.  0.
    9000005    1    3    3    0    0 -0.14358510978E+03  0.31641908908E+02  0.41964983735E+02  0.15290504898E+03  0.99999687468E+00 0.  0.
          4    1    3    3  501    0  0.16476887721E+03 -0.13192035874E+03  0.39421642732E+03  0.44716703312E+03  0.00000000000E+00 0.  1.
   -9000007    1    1    2    0  503 -0.21183767426E+02  0.10027844983E+03 -0.49202533674E+03  0.64233437671E+03  0.40000000000E+03 0. -1.
<mgrwt>
<rscale>  2 0.41271808E+03</rscale>
<asrwt>0</asrwt>
<pdfrwt beam="1">  1       21 0.91274041E-01 0.41292193E+03</pdfrwt>
<pdfrwt beam="2">  1       21 0.99865414E-01 0.41292193E+03</pdfrwt>
<totfact> 0.71841621E+02</totfact>
</mgrwt>
</event>
<event>
 6    1  0.9163926E-004  0.4887335E+03  0.7818608E-02  0.1016780E+00
         21   -1    0    0  501  502  0.00000000000E+00  0.00000000000E+00  0.19284074947E+03  0.19284074947E+03  0.00000000000E+00 0.  1.
         21   -1    0    0  502  503 -0.00000000000E+00 -0.00000000000E+00 -0.12420756540E+04  0.12420756540E+04  0.00000000000E+00 0. -1.
    9000007    2    1    2  501    0  0.18496069712E+03  0.21130544498E+03 -0.48329702033E+03  0.68715565341E+03  0.39968291383E+03 0.  0.
    9000005    1    3    3    0    0  0.28531800965E+03  0.22944150309E+03 -0.28430149568E+03  0.46354946921E+03  0.99999687468E+00 0.  0.
          4    1    3    3  501    0 -0.10035731253E+03 -0.18136058109E+02 -0.19899552465E+03  0.22360618420E+03  0.00000000000E+00 0.  1.
   -9000007    1    1    2    0  503 -0.18496069712E+03 -0.21130544498E+03 -0.56593788420E+03  0.74776075006E+03  0.40000000000E+03 0.  1.
<mgrwt>
<rscale>  2 0.48866863E+03</rscale>
<asrwt>0</asrwt>
<pdfrwt beam="1">  1       21 0.29667809E-01 0.48873352E+03</pdfrwt>
<pdfrwt beam="2">  1       21 0.19108856E+00 0.48873352E+03</pdfrwt>
<totfact> 0.13840169E+03</totfact>
</mgrwt>
</event>
<event>
 6    1  0.9163926E-004  0.4575595E+03  0.7818608E-02  0.1026080E+00
         21   -1    0    0  501  502  0.00000000000E+00  0.00000000000E+00  0.39264494461E+03  0.39264494461E+03  0.00000000000E+00 0. -1.
         21   -1    0    0  502  503 -0.00000000000E+00 -0.00000000000E+00 -0.10788656725E+04  0.10788656725E+04  0.00000000000E+00 0. -1.
    9000007    2    1    2  501    0 -0.19139182066E+03 -0.11282663797E+03  0.18602124319E+03  0.48654019350E+03  0.39084111570E+03 0.  0.
    9000005    1    3    3    0    0 -0.12728586584E+03 -0.17678015959E+03  0.28084422083E+03  0.35542565022E+03  0.99999687468E+00 0.  0.
          4    1    3    3  501    0 -0.64105954820E+02  0.63953521621E+02 -0.94822977638E+02  0.13111454328E+03  0.00000000000E+00 0.  1.
   -9000007    1    1    2    0  503  0.19139182066E+03  0.11282663797E+03 -0.87224197107E+03  0.98497042359E+03  0.40000000000E+03 0. -1.
<mgrwt>
<rscale>  2 0.45555010E+03</rscale>
<asrwt>0</asrwt>
<pdfrwt beam="1">  1       21 0.60406916E-01 0.45755948E+03</pdfrwt>
<pdfrwt beam="2">  1       21 0.16597933E+00 0.45755948E+03</pdfrwt>
<totfact> 0.48108465E+02</totfact>
</mgrwt>
</event>
<event>
 6    1  0.9163926E-004  0.4068395E+03  0.7818608E-02  0.1042596E+00
         21   -1    0    0  501  502  0.00000000000E+00  0.00000000000E+00  0.72799414160E+03  0.72799414160E+03  0.00000000000E+00 0.  1.
         21   -1    0    0  502  503 -0.00000000000E+00 -0.00000000000E+00 -0.23059924139E+03  0.23059924139E+03  0.00000000000E+00 0.  1.
    9000007    2    1    2  501    0 -0.69922160835E+02 -0.25086030095E+02  0.14153776086E+03  0.41808184647E+03  0.38631732438E+03 0.  0.
    9000005    1    3    3    0    0 -0.21484572265E+03 -0.72737760375E+02  0.29355261376E+02  0.22871859935E+03  0.99999687468E+00 0.  0.
          4    1    3    3  501    0  0.14492356182E+03  0.47651730280E+02  0.11218249948E+03  0.18936324712E+03  0.00000000000E+00 0.  1.
   -9000007    1    1    2    0  503  0.69922160835E+02  0.25086030095E+02  0.35585713935E+03  0.54051153652E+03  0.40000000000E+03 0. -1.
<mgrwt>
<rscale>  2 0.40343589E+03</rscale>
<asrwt>0</asrwt>
<pdfrwt beam="1">  1       21 0.11199910E+00 0.40683955E+03</pdfrwt>
<pdfrwt beam="2">  1       21 0.35476807E-01 0.40683955E+03</pdfrwt>
<totfact> 0.42516611E+03</totfact>
</mgrwt>
</event>
<event>
 6    1  0.9163926E-004  0.5041104E+03  0.7818608E-02  0.1012812E+00
         21   -1    0    0  501  502  0.00000000000E+00  0.00000000000E+00  0.37664002219E+03  0.37664002219E+03  0.00000000000E+00 0. -1.
         21   -1    0    0  502  503 -0.00000000000E+00 -0.00000000000E+00 -0.73728828339E+03  0.73728828339E+03  0.00000000000E+00 0.  1.
    9000007    2    1    2  501    0  0.66913983824E+02 -0.29941572737E+03 -0.15157032198E+02  0.50278883839E+03  0.39804474793E+03 0.  0.
    9000005    1    3    3    0    0  0.26222649643E+02 -0.31787843381E+03  0.13483038873E+03  0.34628681718E+03  0.99999687468E+00 0.  0.
          4    1    3    3  501    0  0.40691334181E+02  0.18462706434E+02 -0.14998742093E+03  0.15650202121E+03  0.00000000000E+00 0.  1.
   -9000007    1    1    2    0  503 -0.66913983824E+02  0.29941572737E+03 -0.34549122901E+03  0.61113946718E+03  0.40000000000E+03 0. -1.
<mgrwt>
<rscale>  2 0.50372241E+03</rscale>
<asrwt>0</asrwt>
<pdfrwt beam="1">  1       21 0.57944619E-01 0.50411036E+03</pdfrwt>
<pdfrwt beam="2">  1       21 0.11342897E+00 0.50411036E+03</pdfrwt>
<totfact> 0.14193214E+03</totfact>
</mgrwt>
</event>
<event>
 6    1  0.9163926E-004  0.4506397E+03  0.7818608E-02  0.1027577E+00
         21   -1    0    0  501  502  0.00000000000E+00  0.00000000000E+00  0.27059378347E+03  0.27059378347E+03  0.00000000000E+00 0.  1.
         21   -1    0    0  502  503 -0.00000000000E+00 -0.00000000000E+00 -0.96115957221E+03  0.96115957221E+03  0.00000000000E+00 0.  1.
    9000007    2    1    2  501    0  0.10218729510E+03 -0.18064858066E+03 -0.63413278309E+03  0.77759387147E+03  0.39931402353E+03 0.  0.
    9000005    1    3    3    0    0 -0.65084049754E+02 -0.25239593030E+03 -0.30258325604E+03  0.39937108808E+03  0.99999687468E+00 0.  0.
          4    1    3    3  501    0  0.16727134485E+03  0.71747349645E+02 -0.33154952706E+03  0.37822278340E+03  0.00000000000E+00 0.  1.
   -9000007    1    1    2    0  503 -0.10218729510E+03  0.18064858066E+03 -0.56433005647E+02  0.45415948421E+03  0.40000000000E+03 0.  1.
<mgrwt>
<rscale>  2 0.45048744E+03</rscale>
<asrwt>0</asrwt>
<pdfrwt beam="1">  1       21 0.41629813E-01 0.45063972E+03</pdfrwt>
<pdfrwt beam="2">  1       21 0.14787070E+00 0.45063972E+03</pdfrwt>
<totfact> 0.14674844E+03</totfact>
</mgrwt>
</event>
<event>
 6    1  0.9163926E-004  0.4776889E+03  0.7818608E-02  0.1019803E+00
         21   -1    0    0  501  502  0.00000000000E+00  0.00000000000E+00  0.78476517141E+03  0.78476517141E+03  0.00000000000E+00 0. -1.
         21   -1    0    0  502  503 -0.00000000000E+00 -0.00000000000E+00 -0.47201984355E+03  0.47201984355E+03  0.00000000000E+00 0. -1.
    9000007    2    1    2  501    0 -0.20259778703E+03  0.16346731846E+03  0.54609746113E+03  0.72554058381E+03  0.40052374985E+03 0.  0.
    9000005    1    3    3    0    0 -0.23303086533E+03  0.22043165921E+03  0.57212209633E+03  0.65591020245E+03  0.99999687468E+00 0.  0.
          4    1    3    3  501    0  0.30433078304E+02 -0.56964340747E+02 -0.26024635195E+02  0.69630381364E+02  0.00000000000E+00 0.  1.
   -9000007    1    1    2    0  503  0.20259778703E+03 -0.16346731846E+03 -0.23335213327E+03  0.53124443114E+03  0.40000000000E+03 0. -1.
<mgrwt>
<rscale>  2 0.47757911E+03</rscale>
<asrwt>0</asrwt>
<pdfrwt beam="1">  1       21 0.12073310E+00 0.47768892E+03</pdfrwt>
<pdfrwt beam="2">  1       21 0.72618437E-01 0.47768892E+03</pdfrwt>
<totfact> 0.74092081E+02</totfact>
</mgrwt>
</event>
<event>
 6    1  0.9163926E-004  0.4545106E+03  0.7818608E-02  0.1026524E+00
         21   -1    0    0  501  502  0.00000000000E+00  0.00000000000E+00  0.17146187786E+03  0.17146187786E+03  0.00000000000E+00 0.  1.
         21   -1    0    0  502  503 -0.00000000000E+00 -0.00000000000E+00 -0.12537995570E+04  0.12537995570E+04  0.00000000000E+00 0. -1.
    9000007    2    1    2  501    0 -0.15735803556E+01 -0.21183808676E+03 -0.39441197793E+03  0.60178124595E+03  0.40212188262E+03 0.  0.
    9000005    1    3    3    0    0 -0.47411743692E+02 -0.31631339021E+03 -0.20263570599E+03  0.37863473639E+03  0.99999687468E+00 0.  0.
          4    1    3    3  501    0  0.45838163336E+02  0.10447530345E+03 -0.19177627194E+03  0.22314650956E+03  0.00000000000E+00 0.  1.
   -9000007    1    1    2    0  503  0.15735803556E+01  0.21183808676E+03 -0.68792570117E+03  0.82348018888E+03  0.40000000000E+03 0. -1.
<mgrwt>
<rscale>  2 0.45404079E+03</rscale>
<asrwt>0</asrwt>
<pdfrwt beam="1">  1       21 0.26378751E-01 0.45451057E+03</pdfrwt>
<pdfrwt beam="2">  1       21 0.19289223E+00 0.45451057E+03</pdfrwt>
<totfact> 0.17206972E+03</totfact>
</mgrwt>
</event>
<event>
 6    1  0.9163926E-004  0.5251458E+03  0.7818608E-02  0.1007436E+00
         21   -1    0    0  501  502  0.00000000000E+00  0.00000000000E+00  0.15877973029E+04  0.15877973029E+04  0.00000000000E+00 0.  1.
         21   -1    0    0  502  503 -0.00000000000E+00 -0.00000000000E+00 -0.17823387381E+03  0.17823387381E+03  0.00000000000E+00 0. -1.
    9000007    2    1    2  501    0 -0.21699866365E+03  0.26145357399E+03  0.84765114029E+03  0.99714118997E+03  0.40041441748E+03 0.  0.
    9000005    1    3    3    0    0  0.28801877241E+02  0.21046543766E+02 -0.34941210194E+02  0.49943901537E+02  0.99999687468E+00 0.  0.
          4    1    3    3  501    0 -0.24580054089E+03  0.24040703022E+03  0.88259235049E+03  0.94719728844E+03  0.00000000000E+00 0.  1.
   -9000007    1    1    2    0  503  0.21699866365E+03 -0.26145357399E+03  0.56191228877E+03  0.76888998670E+03  0.40000000000E+03 0. -1.
<mgrwt>
<rscale>  2 0.52506679E+03</rscale>
<asrwt>0</asrwt>
<pdfrwt beam="1">  1       21 0.24427650E+00 0.52514579E+03</pdfrwt>
<pdfrwt beam="2">  1       21 0.27420597E-01 0.52514579E+03</pdfrwt>
<totfact> 0.72045367E+02</totfact>
</mgrwt>
</event>
